                         Program Version 4.2.1 -  RELEASE  -
|  1> ! wB97X-D3 SP def2-SVP
|  2> %pal
|  3> nprocs 24
|  4> end
|  5>
|  6> * xyz 0 1
|  7> S 	 14.7768 	 -16.8571 	 -120.375
|  8> C 	 13.1179 	 -16.9017 	 -120.895
|  9> C 	 12.2151 	 -16.2442 	 -120.097
| 10> C 	 12.8757 	 -15.7584 	 -118.897
| 11> C 	 14.22 	 -16.1267 	 -118.855
| 12> H 	 12.4463 	 -15.2231 	 -118.072
| 13> C 	 10.7296 	 -16.3067 	 -120.323
| 14> H 	 10.3584 	 -17.3173 	 -120.166
| 15> H 	 10.5537 	 -16.1452 	 -121.409
| 16> C 	 9.89127 	 -15.2588 	 -119.632
| 17> H 	 10.1472 	 -15.3021 	 -118.592
| 18> H 	 10.1533 	 -14.2514 	 -119.976
| 19> C 	 8.40464 	 -15.5601 	 -119.867
| 20> H 	 8.1487 	 -15.3452 	 -120.921
| 21> H 	 8.19066 	 -16.6034 	 -119.743
| 22> H 	 7.73955 	 -15.0308 	 -119.214
| 23> S 	 15.8375 	 -14.1909 	 -117.642
| 24> C 	 16.7063 	 -14.6765 	 -116.177
| 25> C 	 16.6277 	 -16.0522 	 -115.955
| 26> C 	 15.6961 	 -16.6748 	 -116.838
| 27> C 	 15.1716 	 -15.8138 	 -117.753
| 28> H 	 17.3392 	 -16.4601 	 -115.203
| 29> C 	 15.4 	 -18.1331 	 -116.701
| 30> H 	 14.3375 	 -18.2705 	 -117.053
| 31> H 	 15.4456 	 -18.4512 	 -115.619
| 32> C 	 16.3283 	 -19.1085 	 -117.397
| 33> H 	 17.3827 	 -18.9716 	 -117
| 34> H 	 16.2933 	 -18.7487 	 -118.448
| 35> C 	 15.8156 	 -20.5781 	 -117.264
| 36> H 	 16.2679 	 -21.2228 	 -117.995
| 37> H 	 14.7009 	 -20.7391 	 -117.495
| 38> H 	 15.9955 	 -20.9655 	 -116.27
| 39> H 	 12.8167 	 -17.4692 	 -121.759
| 40> H 	 17.3825 	 -14.0108 	 -115.67
| 41> *
| 42>
| 43>                          ****END OF INPUT****

CARTESIAN COORDINATES (ANGSTROEM)
---------------------------------
  S     14.776800  -16.857100  -120.375000
  C     13.117900  -16.901700  -120.895000
  C     12.215100  -16.244200  -120.097000
  C     12.875700  -15.758400  -118.897000
  C     14.220000  -16.126700  -118.855000
  H     12.446300  -15.223100  -118.072000
  C     10.729600  -16.306700  -120.323000
  H     10.358400  -17.317300  -120.166000
  H     10.553700  -16.145200  -121.409000
  C      9.891270  -15.258800  -119.632000
  H     10.147200  -15.302100  -118.592000
  H     10.153300  -14.251400  -119.976000
  C      8.404640  -15.560100  -119.867000
  H      8.148700  -15.345200  -120.921000
  H      8.190660  -16.603400  -119.743000
  H      7.739550  -15.030800  -119.214000
  S     15.837500  -14.190900  -117.642000
  C     16.706300  -14.676500  -116.177000
  C     16.627700  -16.052200  -115.955000
  C     15.696100  -16.674800  -116.838000
  C     15.171600  -15.813800  -117.753000
  H     17.339200  -16.460100  -115.203000
  C     15.400000  -18.133100  -116.701000
  H     14.337500  -18.270500  -117.053000
  H     15.445600  -18.451200  -115.619000
  C     16.328300  -19.108500  -117.397000
  H     17.382700  -18.971600  -117.000000
  H     16.293300  -18.748700  -118.448000
  C     15.815600  -20.578100  -117.264000
  H     16.267900  -21.222800  -117.995000
  H     14.700900  -20.739100  -117.495000
  H     15.995500  -20.965500  -116.270000
  H     12.816700  -17.469200  -121.759000
  H     17.382500  -14.010800  -115.670000

 Total Charge           Charge          ....    0
 Multiplicity           Mult            ....    1
 Number of Electrons    NEL             ....  134
 Basis Dimension        Dim             ....  322

ORBITAL ENERGIES
----------------

  NO   OCC          E(Eh)            E(eV)
   0   2.0000     -88.968917     -2420.9673
   1   2.0000     -88.964549     -2420.8484
   2   2.0000     -10.331123      -281.1241
   3   2.0000     -10.322594      -280.8921
   4   2.0000     -10.317653      -280.7576
   5   2.0000     -10.309634      -280.5394
   6   2.0000     -10.301677      -280.3229
   7   2.0000     -10.299075      -280.2521
   8   2.0000     -10.298654      -280.2406
   9   2.0000     -10.296987      -280.1953
  10   2.0000     -10.291534      -280.0469
  11   2.0000     -10.290510      -280.0190
  12   2.0000     -10.289150      -279.9820
  13   2.0000     -10.285288      -279.8769
  14   2.0000     -10.281704      -279.7794
  15   2.0000     -10.277576      -279.6671
  16   2.0000      -8.083097      -219.9522
  17   2.0000      -8.078942      -219.8392
  18   2.0000      -6.041516      -164.3980
  19   2.0000      -6.037821      -164.2975
  20   2.0000      -6.037385      -164.2856
  21   2.0000      -6.033849      -164.1894
  22   2.0000      -6.033646      -164.1839
  23   2.0000      -6.029650      -164.0751
  24   2.0000      -1.002220       -27.2718
  25   2.0000      -0.981762       -26.7151
  26   2.0000      -0.916621       -24.9425
  27   2.0000      -0.905030       -24.6271
  28   2.0000      -0.865222       -23.5439
  29   2.0000      -0.848657       -23.0931
  30   2.0000      -0.845519       -23.0077
  31   2.0000      -0.813076       -22.1249
  32   2.0000      -0.779502       -21.2113
  33   2.0000      -0.768728       -20.9182
  34   2.0000      -0.711748       -19.3676
  35   2.0000      -0.691443       -18.8151
  36   2.0000      -0.684409       -18.6237
  37   2.0000      -0.660769       -17.9804
  38   2.0000      -0.642737       -17.4898
  39   2.0000      -0.617328       -16.7983
  40   2.0000      -0.592650       -16.1268
  41   2.0000      -0.572737       -15.5850
  42   2.0000      -0.566514       -15.4156
  43   2.0000      -0.560134       -15.2420
  44   2.0000      -0.522452       -14.2166
  45   2.0000      -0.515998       -14.0410
  46   2.0000      -0.512536       -13.9468
  47   2.0000      -0.508136       -13.8271
  48   2.0000      -0.500263       -13.6129
  49   2.0000      -0.499691       -13.5973
  50   2.0000      -0.486718       -13.2443
  51   2.0000      -0.475218       -12.9313
  52   2.0000      -0.471802       -12.8384
  53   2.0000      -0.466791       -12.7020
  54   2.0000      -0.456655       -12.4262
  55   2.0000      -0.452330       -12.3085
  56   2.0000      -0.442484       -12.0406
  57   2.0000      -0.441081       -12.0024
  58   2.0000      -0.428617       -11.6633
  59   2.0000      -0.427759       -11.6399
  60   2.0000      -0.421926       -11.4812
  61   2.0000      -0.419772       -11.4226
  62   2.0000      -0.409673       -11.1478
  63   2.0000      -0.336839        -9.1658
  64   2.0000      -0.328447        -8.9375
  65   2.0000      -0.318532        -8.6677
  66   2.0000      -0.309714        -8.4277
  67   0.0000       0.039505         1.0750
  68   0.0000       0.056669         1.5420
  69   0.0000       0.106879         2.9083
  70   0.0000       0.117052         3.1852
  71   0.0000       0.122719         3.3393

MULLIKEN ATOMIC CHARGES
-----------------------
   0 S :    0.125820
   1 C :   -0.123302
   2 C :   -0.037031
   3 C :    0.030651
   4 C :   -0.186484
   5 H :    0.016668
   6 C :    0.016039
   7 H :    0.040418
   8 H :    0.025195
   9 C :   -0.076580
  10 H :    0.026106
  11 H :    0.035867
  12 C :   -0.014862
  13 H :    0.028549
  14 H :    0.016686
  15 H :    0.030541
  16 S :    0.111859
  17 C :   -0.103432
  18 C :   -0.048733
  19 C :    0.015439
  20 C :   -0.183811
  21 H :    0.039316
  22 C :    0.018625
  23 H :    0.039114
  24 H :    0.024625
  25 C :   -0.075878
  26 H :    0.039266
  27 H :    0.023208
  28 C :   -0.048068
  29 H :    0.032823
  30 H :    0.037809
  31 H :    0.033219
  32 H :    0.037707
  33 H :    0.052632
Sum of atomic charges:    0.0000000

LOEWDIN ATOMIC CHARGES
----------------------
   0 S :    0.403336
   1 C :   -0.192573
   2 C :   -0.063923
   3 C :   -0.052038
   4 C :   -0.187108
   5 H :    0.031270
   6 C :   -0.037717
   7 H :    0.032877
   8 H :    0.034806
   9 C :   -0.039520
  10 H :    0.017565
  11 H :    0.028295
  12 C :   -0.057656
  13 H :    0.028716
  14 H :    0.021169
  15 H :    0.023303
  16 S :    0.392388
  17 C :   -0.174568
  18 C :   -0.072063
  19 C :   -0.059154
  20 C :   -0.205064
  21 H :    0.041686
  22 C :   -0.043301
  23 H :    0.036194
  24 H :    0.031256
  25 C :   -0.044862
  26 H :    0.029961
  27 H :    0.018364
  28 C :   -0.069936
  29 H :    0.024057
  30 H :    0.035713
  31 H :    0.022716
  32 H :    0.022571
  33 H :    0.023241

  Mayer bond orders larger than 0.100000
B(  0-S ,  1-C ) :   1.1402 B(  0-S ,  4-C ) :   1.1438 B(  1-C ,  2-C ) :   1.6390
B(  1-C , 32-H ) :   0.9684 B(  2-C ,  3-C ) :   1.2042 B(  2-C ,  6-C ) :   1.0142
B(  3-C ,  4-C ) :   1.6117 B(  3-C ,  5-H ) :   0.9946 B(  4-C , 20-C ) :   1.0070
B(  6-C ,  7-H ) :   0.9439 B(  6-C ,  8-H ) :   0.9375 B(  6-C ,  9-C ) :   1.0705
B(  9-C , 10-H ) :   0.9485 B(  9-C , 11-H ) :   0.9577 B(  9-C , 12-C ) :   1.0859
B( 12-C , 13-H ) :   0.9738 B( 12-C , 14-H ) :   0.9740 B( 12-C , 15-H ) :   0.9736
B( 16-S , 17-C ) :   1.1506 B( 16-S , 20-C ) :   1.1366 B( 17-C , 18-C ) :   1.6307
B( 17-C , 33-H ) :   0.9672 B( 18-C , 19-C ) :   1.2135 B( 18-C , 21-H ) :   0.9851
B( 19-C , 20-C ) :   1.6280 B( 19-C , 22-C ) :   1.0497 B( 22-C , 23-H ) :   0.9259
B( 22-C , 24-H ) :   0.9370 B( 22-C , 25-C ) :   1.0657 B( 25-C , 26-H ) :   0.9532
B( 25-C , 27-H ) :   0.9486 B( 25-C , 28-C ) :   1.0722 B( 28-C , 29-H ) :   0.9757
B( 28-C , 30-H ) :   0.9739 B( 28-C , 31-H ) :   0.9757

Dispersion correction           -0.014106158
FINAL SINGLE POINT ENERGY     -1339.889009276034

DIPOLE MOMENT
-------------
                                X             Y             Z
Electronic contribution:     17.30866      13.95314      -2.28661
Nuclear contribution   :    -17.63652     -14.26682       2.40924
                        -----------------------------------------
Total Dipole Moment    :     -0.32786      -0.31369       0.12263
                        -----------------------------------------
Magnitude (a.u.)       :      0.47003
Magnitude (Debye)      :      1.19473

Rotational constants in cm-1:     0.018374     0.007939     0.006701
Rotational constants in MHz :   550.849072   237.991486   200.883426

                             ****ORCA TERMINATED NORMALLY****
TOTAL RUN TIME: 0 days 0 hours 0 minutes 21 seconds 208 msec
