                         Program Version 4.2.1 -  RELEASE  -
|  1> ! wB97X-D3 SP def2-SVP
|  2> %pal
|  3> nprocs 24
|  4> end
|  5>
|  6> * xyz 0 1
|  7> S 	 -35.1938 	 -12.3401 	 16.8062
|  8> C 	 -35.6658 	 -10.6331 	 16.861
|  9> C 	 -35.7091 	 -10.0635 	 15.5984
| 10> C 	 -35.5584 	 -11.1035 	 14.6357
| 11> C 	 -35.2486 	 -12.3551 	 15.0917
| 12> H 	 -35.4285 	 -10.9797 	 13.5195
| 13> C 	 -36.1132 	 -8.57031 	 15.2641
| 14> H 	 -35.3014 	 -8.22039 	 14.648
| 15> H 	 -36.0823 	 -7.94373 	 16.1571
| 16> C 	 -37.4957 	 -8.45513 	 14.5791
| 17> H 	 -37.6548 	 -7.50659 	 13.9929
| 18> H 	 -37.5182 	 -9.19667 	 13.8255
| 19> C 	 -38.6871 	 -8.70153 	 15.4506
| 20> H 	 -38.6843 	 -9.7399 	 15.9037
| 21> H 	 -38.7043 	 -8.00142 	 16.2965
| 22> H 	 -39.5701 	 -8.59861 	 14.8061
| 23> S 	 -35.7659 	 -15.0495 	 14.5431
| 24> C 	 -35.0894 	 -15.7863 	 13.0852
| 25> C 	 -34.1825 	 -14.9143 	 12.5097
| 26> C 	 -33.9786 	 -13.6521 	 13.186
| 27> C 	 -34.8405 	 -13.5094 	 14.3209
| 28> H 	 -33.7648 	 -15.2062 	 11.5409
| 29> C 	 -33.1222 	 -12.5091 	 12.5224
| 30> H 	 -32.636 	 -11.8986 	 13.325
| 31> H 	 -33.8826 	 -11.8771 	 12.0916
| 32> C 	 -32.2406 	 -12.9683 	 11.3258
| 33> H 	 -32.7854 	 -13.4798 	 10.4747
| 34> H 	 -31.6435 	 -13.6704 	 11.7931
| 35> C 	 -31.4605 	 -11.7731 	 10.7893
| 36> H 	 -30.9242 	 -12.0328 	 9.88899
| 37> H 	 -30.8239 	 -11.2965 	 11.5546
| 38> H 	 -32.2104 	 -11.026 	 10.4522
| 39> H 	 -35.7466 	 -10.044 	 17.716
| 40> H 	 -35.2898 	 -16.789 	 12.7013
| 41> *
| 42>
| 43>                          ****END OF INPUT****

CARTESIAN COORDINATES (ANGSTROEM)
---------------------------------
  S    -35.193800  -12.340100   16.806200
  C    -35.665800  -10.633100   16.861000
  C    -35.709100  -10.063500   15.598400
  C    -35.558400  -11.103500   14.635700
  C    -35.248600  -12.355100   15.091700
  H    -35.428500  -10.979700   13.519500
  C    -36.113200   -8.570310   15.264100
  H    -35.301400   -8.220390   14.648000
  H    -36.082300   -7.943730   16.157100
  C    -37.495700   -8.455130   14.579100
  H    -37.654800   -7.506590   13.992900
  H    -37.518200   -9.196670   13.825500
  C    -38.687100   -8.701530   15.450600
  H    -38.684300   -9.739900   15.903700
  H    -38.704300   -8.001420   16.296500
  H    -39.570100   -8.598610   14.806100
  S    -35.765900  -15.049500   14.543100
  C    -35.089400  -15.786300   13.085200
  C    -34.182500  -14.914300   12.509700
  C    -33.978600  -13.652100   13.186000
  C    -34.840500  -13.509400   14.320900
  H    -33.764800  -15.206200   11.540900
  C    -33.122200  -12.509100   12.522400
  H    -32.636000  -11.898600   13.325000
  H    -33.882600  -11.877100   12.091600
  C    -32.240600  -12.968300   11.325800
  H    -32.785400  -13.479800   10.474700
  H    -31.643500  -13.670400   11.793100
  C    -31.460500  -11.773100   10.789300
  H    -30.924200  -12.032800    9.888990
  H    -30.823900  -11.296500   11.554600
  H    -32.210400  -11.026000   10.452200
  H    -35.746600  -10.044000   17.716000
  H    -35.289800  -16.789000   12.701300

 Total Charge           Charge          ....    0
 Multiplicity           Mult            ....    1
 Number of Electrons    NEL             ....  134
 Basis Dimension        Dim             ....  322

ORBITAL ENERGIES
----------------

  NO   OCC          E(Eh)            E(eV)
   0   2.0000     -88.965625     -2420.8777
   1   2.0000     -88.964477     -2420.8465
   2   2.0000     -10.334944      -281.2281
   3   2.0000     -10.325925      -280.9827
   4   2.0000     -10.322889      -280.9001
   5   2.0000     -10.316913      -280.7375
   6   2.0000     -10.313008      -280.6312
   7   2.0000     -10.307411      -280.4789
   8   2.0000     -10.301797      -280.3261
   9   2.0000     -10.300923      -280.3024
  10   2.0000     -10.297372      -280.2057
  11   2.0000     -10.295895      -280.1656
  12   2.0000     -10.290400      -280.0160
  13   2.0000     -10.285336      -279.8782
  14   2.0000     -10.283493      -279.8281
  15   2.0000     -10.278466      -279.6913
  16   2.0000      -8.080738      -219.8881
  17   2.0000      -8.078014      -219.8139
  18   2.0000      -6.039197      -164.3349
  19   2.0000      -6.036669      -164.2661
  20   2.0000      -6.035228      -164.2269
  21   2.0000      -6.032554      -164.1541
  22   2.0000      -6.031481      -164.1249
  23   2.0000      -6.028803      -164.0521
  24   2.0000      -1.005130       -27.3510
  25   2.0000      -0.975911       -26.5559
  26   2.0000      -0.910738       -24.7824
  27   2.0000      -0.908517       -24.7220
  28   2.0000      -0.870552       -23.6889
  29   2.0000      -0.848322       -23.0840
  30   2.0000      -0.840190       -22.8627
  31   2.0000      -0.812112       -22.0987
  32   2.0000      -0.784787       -21.3551
  33   2.0000      -0.771770       -21.0009
  34   2.0000      -0.709972       -19.3193
  35   2.0000      -0.703044       -19.1308
  36   2.0000      -0.691335       -18.8122
  37   2.0000      -0.647673       -17.6241
  38   2.0000      -0.643504       -17.5106
  39   2.0000      -0.615369       -16.7450
  40   2.0000      -0.592326       -16.1180
  41   2.0000      -0.574468       -15.6321
  42   2.0000      -0.566665       -15.4197
  43   2.0000      -0.554361       -15.0849
  44   2.0000      -0.537500       -14.6261
  45   2.0000      -0.530949       -14.4478
  46   2.0000      -0.515312       -14.0223
  47   2.0000      -0.511754       -13.9255
  48   2.0000      -0.506516       -13.7830
  49   2.0000      -0.491531       -13.3752
  50   2.0000      -0.483477       -13.1561
  51   2.0000      -0.478732       -13.0270
  52   2.0000      -0.472442       -12.8558
  53   2.0000      -0.465544       -12.6681
  54   2.0000      -0.456173       -12.4131
  55   2.0000      -0.449637       -12.2352
  56   2.0000      -0.444840       -12.1047
  57   2.0000      -0.438586       -11.9345
  58   2.0000      -0.436953       -11.8901
  59   2.0000      -0.426369       -11.6021
  60   2.0000      -0.421417       -11.4674
  61   2.0000      -0.411942       -11.2095
  62   2.0000      -0.410272       -11.1641
  63   2.0000      -0.343913        -9.3584
  64   2.0000      -0.334056        -9.0901
  65   2.0000      -0.327706        -8.9173
  66   2.0000      -0.294240        -8.0067
  67   0.0000       0.026755         0.7280
  68   0.0000       0.066201         1.8014
  69   0.0000       0.113380         3.0852
  70   0.0000       0.119649         3.2558
  71   0.0000       0.132384         3.6024

MULLIKEN ATOMIC CHARGES
-----------------------
   0 S :    0.114900
   1 C :   -0.090478
   2 C :   -0.117349
   3 C :   -0.003381
   4 C :   -0.149707
   5 H :    0.024697
   6 C :    0.098528
   7 H :    0.030326
   8 H :    0.018075
   9 C :   -0.072749
  10 H :    0.035037
  11 H :    0.016101
  12 C :   -0.063335
  13 H :    0.048891
  14 H :    0.027250
  15 H :    0.039722
  16 S :    0.090289
  17 C :   -0.087148
  18 C :   -0.068780
  19 C :   -0.019804
  20 C :   -0.153298
  21 H :    0.027688
  22 C :    0.009611
  23 H :    0.056348
  24 H :    0.037331
  25 C :   -0.085032
  26 H :    0.049271
  27 H :    0.022708
  28 C :   -0.024817
  29 H :    0.033804
  30 H :    0.041715
  31 H :    0.024906
  32 H :    0.022886
  33 H :    0.065797
Sum of atomic charges:    0.0000000

LOEWDIN ATOMIC CHARGES
----------------------
   0 S :    0.413674
   1 C :   -0.179453
   2 C :   -0.060713
   3 C :   -0.074745
   4 C :   -0.213302
   5 H :    0.036655
   6 C :   -0.020606
   7 H :    0.031414
   8 H :    0.026708
   9 C :   -0.048216
  10 H :    0.030552
  11 H :    0.018259
  12 C :   -0.067499
  13 H :    0.034167
  14 H :    0.020936
  15 H :    0.030354
  16 S :    0.376881
  17 C :   -0.180455
  18 C :   -0.083751
  19 C :   -0.045419
  20 C :   -0.191260
  21 H :    0.032443
  22 C :   -0.031964
  23 H :    0.041449
  24 H :    0.027100
  25 C :   -0.041787
  26 H :    0.034040
  27 H :    0.013756
  28 C :   -0.063091
  29 H :    0.024664
  30 H :    0.029758
  31 H :    0.027886
  32 H :    0.014833
  33 H :    0.036732

  Mayer bond orders larger than 0.100000
B(  0-S ,  1-C ) :   1.1458 B(  0-S ,  4-C ) :   1.1495 B(  1-C ,  2-C ) :   1.6105
B(  1-C , 32-H ) :   0.9730 B(  2-C ,  3-C ) :   1.2387 B(  2-C ,  6-C ) :   1.0141
B(  3-C ,  4-C ) :   1.6012 B(  3-C ,  5-H ) :   0.9774 B(  4-C , 20-C ) :   1.0390
B(  6-C ,  7-H ) :   0.9360 B(  6-C ,  8-H ) :   0.9487 B(  6-C ,  9-C ) :   1.0612
B(  9-C , 10-H ) :   0.9540 B(  9-C , 11-H ) :   0.9544 B(  9-C , 12-C ) :   1.0829
B( 12-C , 13-H ) :   0.9732 B( 12-C , 14-H ) :   0.9753 B( 12-C , 15-H ) :   0.9713
B( 16-S , 17-C ) :   1.1514 B( 16-S , 20-C ) :   1.1296 B( 17-C , 18-C ) :   1.6121
B( 17-C , 20-C ) :   0.1074 B( 17-C , 33-H ) :   0.9627 B( 18-C , 19-C ) :   1.2466
B( 18-C , 21-H ) :   0.9797 B( 19-C , 20-C ) :   1.5767 B( 19-C , 22-C ) :   1.0154
B( 22-C , 23-H ) :   0.9433 B( 22-C , 24-H ) :   0.9304 B( 22-C , 25-C ) :   1.0668
B( 25-C , 26-H ) :   0.9444 B( 25-C , 27-H ) :   0.9584 B( 25-C , 28-C ) :   1.0846
B( 28-C , 29-H ) :   0.9721 B( 28-C , 30-H ) :   0.9742 B( 28-C , 31-H ) :   0.9723

Dispersion correction           -0.013815130
FINAL SINGLE POINT ENERGY     -1339.870584254347

DIPOLE MOMENT
-------------
                                X             Y             Z
Electronic contribution:     -2.56853     -20.55989      15.83261
Nuclear contribution   :      2.77905      21.07207     -16.53023
                        -----------------------------------------
Total Dipole Moment    :      0.21053       0.51218      -0.69762
                        -----------------------------------------
Magnitude (a.u.)       :      0.89069
Magnitude (Debye)      :      2.26395

Rotational constants in cm-1:     0.017086     0.008241     0.006535
Rotational constants in MHz :   512.216782   247.071670   195.906187

                             ****ORCA TERMINATED NORMALLY****
TOTAL RUN TIME: 0 days 0 hours 0 minutes 21 seconds 78 msec
