                         Program Version 4.2.1 -  RELEASE  -
|  1> ! wB97X-D3 SP def2-SVP
|  2> %pal
|  3> nprocs 24
|  4> end
|  5>
|  6> * xyz 0 1
|  7> S 	 -107.53 	 35.4514 	 -12.4683
|  8> C 	 -108.2 	 35.7454 	 -14.0378
|  9> C 	 -107.201 	 35.8127 	 -15.0083
| 10> C 	 -105.897 	 35.7648 	 -14.4116
| 11> C 	 -105.9 	 35.7301 	 -13.0229
| 12> H 	 -104.974 	 35.9332 	 -14.9412
| 13> C 	 -107.425 	 35.9827 	 -16.4703
| 14> H 	 -107.001 	 35.1794 	 -17.0954
| 15> H 	 -106.781 	 36.843 	 -16.702
| 16> C 	 -108.735 	 36.4501 	 -17.0752
| 17> H 	 -109.463 	 35.6756 	 -16.7519
| 18> H 	 -109.036 	 37.4647 	 -16.6843
| 19> C 	 -108.761 	 36.4085 	 -18.6465
| 20> H 	 -108.054 	 36.9833 	 -19.2287
| 21> H 	 -108.51 	 35.3327 	 -18.9074
| 22> H 	 -109.801 	 36.7393 	 -18.9386
| 23> S 	 -104.998 	 37.1238 	 -10.8943
| 24> C 	 -103.294 	 37.311 	 -10.5708
| 25> C 	 -102.65 	 36.4247 	 -11.413
| 26> C 	 -103.393 	 35.6288 	 -12.2703
| 27> C 	 -104.738 	 35.9284 	 -12.1771
| 28> H 	 -101.568 	 36.4799 	 -11.159
| 29> C 	 -102.812 	 34.4958 	 -13.1228
| 30> H 	 -102.385 	 34.9596 	 -14.0438
| 31> H 	 -103.624 	 33.8133 	 -13.362
| 32> C 	 -101.702 	 33.6735 	 -12.4118
| 33> H 	 -102.065 	 33.0717 	 -11.5654
| 34> H 	 -101 	 34.4334 	 -12.0575
| 35> C 	 -101.047 	 32.7449 	 -13.4655
| 36> H 	 -100.333 	 32.1388 	 -12.911
| 37> H 	 -100.405 	 33.2745 	 -14.2105
| 38> H 	 -101.81 	 32.2603 	 -14.0932
| 39> H 	 -109.257 	 35.772 	 -14.2977
| 40> H 	 -102.846 	 37.8356 	 -9.7162
| 41> *
| 42>
| 43>                          ****END OF INPUT****

CARTESIAN COORDINATES (ANGSTROEM)
---------------------------------
  S    -107.530000   35.451400  -12.468300
  C    -108.200000   35.745400  -14.037800
  C    -107.201000   35.812700  -15.008300
  C    -105.897000   35.764800  -14.411600
  C    -105.900000   35.730100  -13.022900
  H    -104.974000   35.933200  -14.941200
  C    -107.425000   35.982700  -16.470300
  H    -107.001000   35.179400  -17.095400
  H    -106.781000   36.843000  -16.702000
  C    -108.735000   36.450100  -17.075200
  H    -109.463000   35.675600  -16.751900
  H    -109.036000   37.464700  -16.684300
  C    -108.761000   36.408500  -18.646500
  H    -108.054000   36.983300  -19.228700
  H    -108.510000   35.332700  -18.907400
  H    -109.801000   36.739300  -18.938600
  S    -104.998000   37.123800  -10.894300
  C    -103.294000   37.311000  -10.570800
  C    -102.650000   36.424700  -11.413000
  C    -103.393000   35.628800  -12.270300
  C    -104.738000   35.928400  -12.177100
  H    -101.568000   36.479900  -11.159000
  C    -102.812000   34.495800  -13.122800
  H    -102.385000   34.959600  -14.043800
  H    -103.624000   33.813300  -13.362000
  C    -101.702000   33.673500  -12.411800
  H    -102.065000   33.071700  -11.565400
  H    -101.000000   34.433400  -12.057500
  C    -101.047000   32.744900  -13.465500
  H    -100.333000   32.138800  -12.911000
  H    -100.405000   33.274500  -14.210500
  H    -101.810000   32.260300  -14.093200
  H    -109.257000   35.772000  -14.297700
  H    -102.846000   37.835600   -9.716200

 Total Charge           Charge          ....    0
 Multiplicity           Mult            ....    1
 Number of Electrons    NEL             ....  134
 Basis Dimension        Dim             ....  322

ORBITAL ENERGIES
----------------

  NO   OCC          E(Eh)            E(eV)
   0   2.0000     -88.966096     -2420.8905
   1   2.0000     -88.959189     -2420.7026
   2   2.0000     -10.330538      -281.1082
   3   2.0000     -10.328259      -281.0462
   4   2.0000     -10.317544      -280.7547
   5   2.0000     -10.312792      -280.6253
   6   2.0000     -10.303387      -280.3694
   7   2.0000     -10.302998      -280.3588
   8   2.0000     -10.298084      -280.2251
   9   2.0000     -10.296214      -280.1742
  10   2.0000     -10.293323      -280.0956
  11   2.0000     -10.293004      -280.0869
  12   2.0000     -10.292557      -280.0747
  13   2.0000     -10.290870      -280.0288
  14   2.0000     -10.290105      -280.0080
  15   2.0000     -10.283203      -279.8202
  16   2.0000      -8.081023      -219.8958
  17   2.0000      -8.074101      -219.7075
  18   2.0000      -6.039624      -164.3465
  19   2.0000      -6.035505      -164.2344
  20   2.0000      -6.032484      -164.1522
  21   2.0000      -6.031684      -164.1305
  22   2.0000      -6.028433      -164.0420
  23   2.0000      -6.025077      -163.9507
  24   2.0000      -1.009384       -27.4667
  25   2.0000      -0.987100       -26.8604
  26   2.0000      -0.913881       -24.8680
  27   2.0000      -0.906938       -24.6790
  28   2.0000      -0.870363       -23.6838
  29   2.0000      -0.852551       -23.1991
  30   2.0000      -0.845027       -22.9943
  31   2.0000      -0.812501       -22.1093
  32   2.0000      -0.778733       -21.1904
  33   2.0000      -0.771169       -20.9846
  34   2.0000      -0.709458       -19.3053
  35   2.0000      -0.701310       -19.0836
  36   2.0000      -0.695274       -18.9194
  37   2.0000      -0.654419       -17.8076
  38   2.0000      -0.636168       -17.3110
  39   2.0000      -0.614246       -16.7145
  40   2.0000      -0.596930       -16.2433
  41   2.0000      -0.572638       -15.5823
  42   2.0000      -0.570608       -15.5270
  43   2.0000      -0.565020       -15.3750
  44   2.0000      -0.535320       -14.5668
  45   2.0000      -0.519601       -14.1391
  46   2.0000      -0.518200       -14.1009
  47   2.0000      -0.514521       -14.0008
  48   2.0000      -0.505785       -13.7631
  49   2.0000      -0.499108       -13.5814
  50   2.0000      -0.487711       -13.2713
  51   2.0000      -0.481827       -13.1112
  52   2.0000      -0.475195       -12.9307
  53   2.0000      -0.467561       -12.7230
  54   2.0000      -0.456710       -12.4277
  55   2.0000      -0.445256       -12.1160
  56   2.0000      -0.440677       -11.9914
  57   2.0000      -0.438020       -11.9191
  58   2.0000      -0.430793       -11.7225
  59   2.0000      -0.423564       -11.5258
  60   2.0000      -0.420169       -11.4334
  61   2.0000      -0.410501       -11.1703
  62   2.0000      -0.405773       -11.0416
  63   2.0000      -0.350618        -9.5408
  64   2.0000      -0.330997        -9.0069
  65   2.0000      -0.325193        -8.8489
  66   2.0000      -0.288589        -7.8529
  67   0.0000       0.024214         0.6589
  68   0.0000       0.077260         2.1024
  69   0.0000       0.113769         3.0958
  70   0.0000       0.127520         3.4700
  71   0.0000       0.136988         3.7276

MULLIKEN ATOMIC CHARGES
-----------------------
   0 S :    0.120721
   1 C :   -0.126860
   2 C :   -0.064483
   3 C :    0.022497
   4 C :   -0.136238
   5 H :    0.008239
   6 C :    0.028408
   7 H :    0.036073
   8 H :    0.027769
   9 C :   -0.107587
  10 H :    0.035435
  11 H :    0.046757
  12 C :   -0.073801
  13 H :    0.035901
  14 H :    0.037295
  15 H :    0.051095
  16 S :    0.087256
  17 C :   -0.114913
  18 C :   -0.091549
  19 C :    0.014782
  20 C :   -0.159323
  21 H :    0.031605
  22 C :    0.052912
  23 H :    0.042115
  24 H :    0.035277
  25 C :   -0.100645
  26 H :    0.048052
  27 H :    0.033124
  28 C :   -0.049703
  29 H :    0.036908
  30 H :    0.027614
  31 H :    0.040391
  32 H :    0.052367
  33 H :    0.072510
Sum of atomic charges:   -0.0000000

LOEWDIN ATOMIC CHARGES
----------------------
   0 S :    0.413217
   1 C :   -0.208888
   2 C :   -0.062327
   3 C :   -0.058188
   4 C :   -0.198883
   5 H :    0.029152
   6 C :   -0.051067
   7 H :    0.034818
   8 H :    0.037755
   9 C :   -0.046696
  10 H :    0.024046
  11 H :    0.029169
  12 C :   -0.068952
  13 H :    0.019929
  14 H :    0.031873
  15 H :    0.036252
  16 S :    0.400019
  17 C :   -0.194556
  18 C :   -0.085940
  19 C :   -0.066911
  20 C :   -0.184285
  21 H :    0.037316
  22 C :   -0.028483
  23 H :    0.035631
  24 H :    0.030310
  25 C :   -0.038524
  26 H :    0.029474
  27 H :    0.022464
  28 C :   -0.069425
  29 H :    0.027012
  30 H :    0.026734
  31 H :    0.028204
  32 H :    0.030801
  33 H :    0.038951

  Mayer bond orders larger than 0.100000
B(  0-S ,  1-C ) :   1.1316 B(  0-S ,  4-C ) :   1.1515 B(  1-C ,  2-C ) :   1.6060
B(  1-C , 32-H ) :   0.9635 B(  2-C ,  3-C ) :   1.2539 B(  2-C ,  6-C ) :   1.0149
B(  3-C ,  4-C ) :   1.5593 B(  3-C ,  5-H ) :   0.9974 B(  4-C , 20-C ) :   1.0436
B(  6-C ,  7-H ) :   0.9353 B(  6-C ,  8-H ) :   0.9369 B(  6-C ,  9-C ) :   1.0736
B(  9-C , 10-H ) :   0.9489 B(  9-C , 11-H ) :   0.9565 B(  9-C , 12-C ) :   1.0695
B( 12-C , 13-H ) :   0.9807 B( 12-C , 14-H ) :   0.9737 B( 12-C , 15-H ) :   0.9742
B( 16-S , 17-C ) :   1.1588 B( 16-S , 20-C ) :   1.1534 B( 17-C , 18-C ) :   1.5962
B( 17-C , 20-C ) :   0.1125 B( 17-C , 33-H ) :   0.9653 B( 18-C , 19-C ) :   1.2392
B( 18-C , 21-H ) :   0.9826 B( 19-C , 20-C ) :   1.5687 B( 19-C , 22-C ) :   1.0213
B( 22-C , 23-H ) :   0.9347 B( 22-C , 24-H ) :   0.9404 B( 22-C , 25-C ) :   1.0682
B( 25-C , 26-H ) :   0.9590 B( 25-C , 27-H ) :   0.9520 B( 25-C , 28-C ) :   1.0796
B( 28-C , 29-H ) :   0.9742 B( 28-C , 30-H ) :   0.9748 B( 28-C , 31-H ) :   0.9734

Dispersion correction           -0.013053624
FINAL SINGLE POINT ENERGY     -1339.869291068808

DIPOLE MOMENT
-------------
                                X             Y             Z
Electronic contribution:     -7.44621       8.44322      23.89011
Nuclear contribution   :      7.88276      -8.51507     -24.42205
                        -----------------------------------------
Total Dipole Moment    :      0.43655      -0.07185      -0.53195
                        -----------------------------------------
Magnitude (a.u.)       :      0.69189
Magnitude (Debye)      :      1.75864

Rotational constants in cm-1:     0.019240     0.007094     0.005775
Rotational constants in MHz :   576.808927   212.683430   173.136569

                             ****ORCA TERMINATED NORMALLY****
TOTAL RUN TIME: 0 days 0 hours 0 minutes 20 seconds 628 msec
