                         Program Version 4.2.1 -  RELEASE  -
|  1> ! wB97X-D3 SP def2-SVP
|  2> %pal
|  3> nprocs 24
|  4> end
|  5>
|  6> * xyz 0 1
|  7> S 	 -63.5362 	 -56.945 	 -76.1229
|  8> C 	 -65.2425 	 -57.2531 	 -76.2805
|  9> C 	 -65.5496 	 -57.9505 	 -77.4849
| 10> C 	 -64.3482 	 -58.4826 	 -78.0955
| 11> C 	 -63.1475 	 -58.0463 	 -77.4543
| 12> H 	 -64.2176 	 -59.1272 	 -78.9667
| 13> C 	 -66.9259 	 -58.2119 	 -78.0631
| 14> H 	 -67.6573 	 -58.2933 	 -77.2204
| 15> H 	 -66.9008 	 -59.2031 	 -78.5801
| 16> C 	 -67.4853 	 -57.1152 	 -78.9532
| 17> H 	 -67.1079 	 -57.2047 	 -79.9207
| 18> H 	 -68.5851 	 -57.2926 	 -79.0653
| 19> C 	 -67.3681 	 -55.6492 	 -78.4865
| 20> H 	 -67.4409 	 -55.6676 	 -77.3768
| 21> H 	 -66.3904 	 -55.187 	 -78.7071
| 22> H 	 -68.166 	 -54.9412 	 -78.7778
| 23> S 	 -60.9455 	 -59.4196 	 -76.4553
| 24> C 	 -59.6732 	 -59.8987 	 -77.5847
| 25> C 	 -59.8437 	 -59.2536 	 -78.7914
| 26> C 	 -61.0309 	 -58.4726 	 -78.8716
| 27> C 	 -61.7804 	 -58.5505 	 -77.7222
| 28> H 	 -59.2397 	 -59.4207 	 -79.6722
| 29> C 	 -61.4868 	 -57.715 	 -80.1512
| 30> H 	 -62.6187 	 -57.9369 	 -80.1328
| 31> H 	 -61.0437 	 -58.1381 	 -81.064
| 32> C 	 -61.3299 	 -56.2404 	 -80.106
| 33> H 	 -61.456 	 -55.764 	 -81.1178
| 34> H 	 -60.2944 	 -55.94 	 -79.903
| 35> C 	 -62.1937 	 -55.3566 	 -79.169
| 36> H 	 -63.2466 	 -55.4122 	 -79.4099
| 37> H 	 -61.7908 	 -54.3234 	 -79.1023
| 38> H 	 -61.8997 	 -55.6491 	 -78.0484
| 39> H 	 -65.9693 	 -56.8286 	 -75.6128
| 40> H 	 -58.9364 	 -60.6579 	 -77.308
| 41> *
| 42>
| 43>                          ****END OF INPUT****

CARTESIAN COORDINATES (ANGSTROEM)
---------------------------------
  S    -63.536200  -56.945000  -76.122900
  C    -65.242500  -57.253100  -76.280500
  C    -65.549600  -57.950500  -77.484900
  C    -64.348200  -58.482600  -78.095500
  C    -63.147500  -58.046300  -77.454300
  H    -64.217600  -59.127200  -78.966700
  C    -66.925900  -58.211900  -78.063100
  H    -67.657300  -58.293300  -77.220400
  H    -66.900800  -59.203100  -78.580100
  C    -67.485300  -57.115200  -78.953200
  H    -67.107900  -57.204700  -79.920700
  H    -68.585100  -57.292600  -79.065300
  C    -67.368100  -55.649200  -78.486500
  H    -67.440900  -55.667600  -77.376800
  H    -66.390400  -55.187000  -78.707100
  H    -68.166000  -54.941200  -78.777800
  S    -60.945500  -59.419600  -76.455300
  C    -59.673200  -59.898700  -77.584700
  C    -59.843700  -59.253600  -78.791400
  C    -61.030900  -58.472600  -78.871600
  C    -61.780400  -58.550500  -77.722200
  H    -59.239700  -59.420700  -79.672200
  C    -61.486800  -57.715000  -80.151200
  H    -62.618700  -57.936900  -80.132800
  H    -61.043700  -58.138100  -81.064000
  C    -61.329900  -56.240400  -80.106000
  H    -61.456000  -55.764000  -81.117800
  H    -60.294400  -55.940000  -79.903000
  C    -62.193700  -55.356600  -79.169000
  H    -63.246600  -55.412200  -79.409900
  H    -61.790800  -54.323400  -79.102300
  H    -61.899700  -55.649100  -78.048400
  H    -65.969300  -56.828600  -75.612800
  H    -58.936400  -60.657900  -77.308000

 Total Charge           Charge          ....    0
 Multiplicity           Mult            ....    1
 Number of Electrons    NEL             ....  134
 Basis Dimension        Dim             ....  322

ORBITAL ENERGIES
----------------

  NO   OCC          E(Eh)            E(eV)
   0   2.0000     -88.969081     -2420.9718
   1   2.0000     -88.964812     -2420.8556
   2   2.0000     -10.334345      -281.2118
   3   2.0000     -10.326208      -280.9904
   4   2.0000     -10.322363      -280.8858
   5   2.0000     -10.318464      -280.7797
   6   2.0000     -10.309787      -280.5436
   7   2.0000     -10.302725      -280.3514
   8   2.0000     -10.302276      -280.3392
   9   2.0000     -10.300061      -280.2789
  10   2.0000     -10.299804      -280.2719
  11   2.0000     -10.295424      -280.1527
  12   2.0000     -10.285112      -279.8721
  13   2.0000     -10.284493      -279.8553
  14   2.0000     -10.282402      -279.7984
  15   2.0000     -10.281803      -279.7821
  16   2.0000      -8.082974      -219.9489
  17   2.0000      -8.079560      -219.8560
  18   2.0000      -6.041456      -164.3964
  19   2.0000      -6.038053      -164.3038
  20   2.0000      -6.037525      -164.2894
  21   2.0000      -6.034065      -164.1953
  22   2.0000      -6.033897      -164.1907
  23   2.0000      -6.030315      -164.0932
  24   2.0000      -1.002132       -27.2694
  25   2.0000      -0.978319       -26.6214
  26   2.0000      -0.910305       -24.7707
  27   2.0000      -0.905433       -24.6381
  28   2.0000      -0.862528       -23.4706
  29   2.0000      -0.846728       -23.0406
  30   2.0000      -0.841898       -22.9092
  31   2.0000      -0.807419       -21.9710
  32   2.0000      -0.782563       -21.2946
  33   2.0000      -0.772131       -21.0107
  34   2.0000      -0.701453       -19.0875
  35   2.0000      -0.694416       -18.8960
  36   2.0000      -0.685603       -18.6562
  37   2.0000      -0.661567       -18.0022
  38   2.0000      -0.642409       -17.4808
  39   2.0000      -0.610693       -16.6178
  40   2.0000      -0.593301       -16.1445
  41   2.0000      -0.563084       -15.3223
  42   2.0000      -0.554795       -15.0967
  43   2.0000      -0.550924       -14.9914
  44   2.0000      -0.545384       -14.8406
  45   2.0000      -0.535328       -14.5670
  46   2.0000      -0.517613       -14.0850
  47   2.0000      -0.503533       -13.7018
  48   2.0000      -0.497372       -13.5342
  49   2.0000      -0.493333       -13.4243
  50   2.0000      -0.487402       -13.2629
  51   2.0000      -0.479569       -13.0497
  52   2.0000      -0.466364       -12.6904
  53   2.0000      -0.463781       -12.6201
  54   2.0000      -0.458605       -12.4793
  55   2.0000      -0.450334       -12.2542
  56   2.0000      -0.442232       -12.0338
  57   2.0000      -0.439411       -11.9570
  58   2.0000      -0.431536       -11.7427
  59   2.0000      -0.416628       -11.3370
  60   2.0000      -0.414284       -11.2732
  61   2.0000      -0.410337       -11.1658
  62   2.0000      -0.395451       -10.7608
  63   2.0000      -0.341412        -9.2903
  64   2.0000      -0.332098        -9.0369
  65   2.0000      -0.324441        -8.8285
  66   2.0000      -0.293465        -7.9856
  67   0.0000       0.029401         0.8000
  68   0.0000       0.058483         1.5914
  69   0.0000       0.106480         2.8975
  70   0.0000       0.118842         3.2339
  71   0.0000       0.125715         3.4209

MULLIKEN ATOMIC CHARGES
-----------------------
   0 S :    0.121205
   1 C :   -0.124131
   2 C :   -0.090775
   3 C :    0.040028
   4 C :   -0.193257
   5 H :    0.028865
   6 C :    0.049099
   7 H :    0.030115
   8 H :    0.040494
   9 C :   -0.050827
  10 H :    0.015334
  11 H :    0.032126
  12 C :   -0.071854
  13 H :    0.010608
  14 H :    0.047427
  15 H :    0.043425
  16 S :    0.111708
  17 C :   -0.107363
  18 C :   -0.016638
  19 C :   -0.046594
  20 C :   -0.172373
  21 H :    0.016348
  22 C :    0.108252
  23 H :    0.024101
  24 H :    0.027971
  25 C :   -0.089323
  26 H :    0.027465
  27 H :    0.016838
  28 C :   -0.073091
  29 H :    0.050450
  30 H :    0.034912
  31 H :    0.035651
  32 H :    0.053548
  33 H :    0.070253
Sum of atomic charges:   -0.0000000

LOEWDIN ATOMIC CHARGES
----------------------
   0 S :    0.414606
   1 C :   -0.199350
   2 C :   -0.062057
   3 C :   -0.061998
   4 C :   -0.189892
   5 H :    0.033035
   6 C :   -0.036803
   7 H :    0.035095
   8 H :    0.039434
   9 C :   -0.042180
  10 H :    0.012733
  11 H :    0.031881
  12 C :   -0.073757
  13 H :    0.022912
  14 H :    0.028459
  15 H :    0.030818
  16 S :    0.402647
  17 C :   -0.177035
  18 C :   -0.071861
  19 C :   -0.056910
  20 C :   -0.206419
  21 H :    0.030985
  22 C :   -0.034196
  23 H :    0.040768
  24 H :    0.033300
  25 C :   -0.056860
  26 H :    0.027503
  27 H :    0.023200
  28 C :   -0.076592
  29 H :    0.021948
  30 H :    0.030119
  31 H :    0.029832
  32 H :    0.023042
  33 H :    0.033593

  Mayer bond orders larger than 0.100000
B(  0-S ,  1-C ) :   1.1574 B(  0-S ,  4-C ) :   1.1591 B(  1-C ,  2-C ) :   1.5703
B(  1-C ,  4-C ) :   0.1026 B(  1-C , 32-H ) :   0.9683 B(  2-C ,  3-C ) :   1.2442
B(  2-C ,  6-C ) :   1.0352 B(  3-C ,  4-C ) :   1.5690 B(  3-C ,  5-H ) :   0.9799
B(  4-C , 20-C ) :   1.0229 B(  6-C ,  7-H ) :   0.9371 B(  6-C ,  8-H ) :   0.9447
B(  6-C ,  9-C ) :   1.0742 B(  9-C , 10-H ) :   0.9566 B(  9-C , 11-H ) :   0.9557
B(  9-C , 12-C ) :   1.0721 B( 12-C , 13-H ) :   0.9725 B( 12-C , 14-H ) :   0.9723
B( 12-C , 15-H ) :   0.9747 B( 16-S , 17-C ) :   1.1549 B( 16-S , 20-C ) :   1.1449
B( 17-C , 18-C ) :   1.5865 B( 17-C , 33-H ) :   0.9705 B( 18-C , 19-C ) :   1.2607
B( 18-C , 21-H ) :   0.9892 B( 19-C , 20-C ) :   1.6057 B( 19-C , 22-C ) :   1.0106
B( 22-C , 23-H ) :   0.9299 B( 22-C , 24-H ) :   0.9341 B( 22-C , 25-C ) :   1.0761
B( 25-C , 26-H ) :   0.9523 B( 25-C , 27-H ) :   0.9492 B( 25-C , 28-C ) :   1.0929
B( 28-C , 29-H ) :   0.9731 B( 28-C , 30-H ) :   0.9678 B( 28-C , 31-H ) :   0.9623

Dispersion correction           -0.016170762
FINAL SINGLE POINT ENERGY     -1339.872530250535

DIPOLE MOMENT
-------------
                                X             Y             Z
Electronic contribution:     15.22497     -12.56962      16.63000
Nuclear contribution   :    -15.45636      12.53388     -17.17766
                        -----------------------------------------
Total Dipole Moment    :     -0.23139      -0.03575      -0.54765
                        -----------------------------------------
Magnitude (a.u.)       :      0.59561
Magnitude (Debye)      :      1.51391

Rotational constants in cm-1:     0.022582     0.008870     0.007704
Rotational constants in MHz :   677.002986   265.927430   230.971711

                             ****ORCA TERMINATED NORMALLY****
TOTAL RUN TIME: 0 days 0 hours 0 minutes 22 seconds 966 msec
