                         Program Version 4.2.1 -  RELEASE  -
|  1> ! wB97X-D3 SP def2-SVP
|  2> %pal
|  3> nprocs 24
|  4> end
|  5>
|  6> * xyz 0 1
|  7> S 	 -130.92 	 30.0525 	 -18.0763
|  8> C 	 -129.266 	 29.8619 	 -17.653
|  9> C 	 -128.493 	 30.8606 	 -18.2497
| 10> C 	 -129.257 	 31.8932 	 -18.9314
| 11> C 	 -130.603 	 31.605 	 -19.012
| 12> H 	 -128.919 	 32.7557 	 -19.4384
| 13> C 	 -126.951 	 30.945 	 -18.2572
| 14> H 	 -126.814 	 31.612 	 -17.4209
| 15> H 	 -126.557 	 31.5093 	 -19.0508
| 16> C 	 -126.123 	 29.666 	 -17.9824
| 17> H 	 -125.089 	 30.0093 	 -17.8853
| 18> H 	 -126.447 	 29.2417 	 -17.0061
| 19> C 	 -126.288 	 28.5569 	 -19.0368
| 20> H 	 -125.793 	 27.5535 	 -18.7228
| 21> H 	 -127.414 	 28.5137 	 -19.1724
| 22> H 	 -125.928 	 28.9132 	 -19.9865
| 23> S 	 -132.49 	 33.5223 	 -18.5899
| 24> C 	 -133.461 	 34.0668 	 -19.9135
| 25> C 	 -133.089 	 33.4881 	 -21.1253
| 26> C 	 -131.997 	 32.5547 	 -20.9867
| 27> C 	 -131.674 	 32.3752 	 -19.6471
| 28> H 	 -133.58 	 33.8384 	 -21.9732
| 29> C 	 -131.472 	 31.7103 	 -22.1256
| 30> H 	 -131.841 	 30.7144 	 -21.9434
| 31> H 	 -130.409 	 31.6658 	 -22.0108
| 32> C 	 -131.757 	 32.1747 	 -23.5635
| 33> H 	 -131.446 	 33.2325 	 -23.619
| 34> H 	 -132.822 	 32.1958 	 -23.7486
| 35> C 	 -131.129 	 31.2741 	 -24.6265
| 36> H 	 -130.074 	 31.3186 	 -24.722
| 37> H 	 -131.368 	 31.6163 	 -25.6358
| 38> H 	 -131.64 	 30.3458 	 -24.8001
| 39> H 	 -128.937 	 28.8709 	 -17.1992
| 40> H 	 -134.309 	 34.7239 	 -19.8035
| 41> *
| 42>
| 43>                          ****END OF INPUT****

CARTESIAN COORDINATES (ANGSTROEM)
---------------------------------
  S    -130.920000   30.052500  -18.076300
  C    -129.266000   29.861900  -17.653000
  C    -128.493000   30.860600  -18.249700
  C    -129.257000   31.893200  -18.931400
  C    -130.603000   31.605000  -19.012000
  H    -128.919000   32.755700  -19.438400
  C    -126.951000   30.945000  -18.257200
  H    -126.814000   31.612000  -17.420900
  H    -126.557000   31.509300  -19.050800
  C    -126.123000   29.666000  -17.982400
  H    -125.089000   30.009300  -17.885300
  H    -126.447000   29.241700  -17.006100
  C    -126.288000   28.556900  -19.036800
  H    -125.793000   27.553500  -18.722800
  H    -127.414000   28.513700  -19.172400
  H    -125.928000   28.913200  -19.986500
  S    -132.490000   33.522300  -18.589900
  C    -133.461000   34.066800  -19.913500
  C    -133.089000   33.488100  -21.125300
  C    -131.997000   32.554700  -20.986700
  C    -131.674000   32.375200  -19.647100
  H    -133.580000   33.838400  -21.973200
  C    -131.472000   31.710300  -22.125600
  H    -131.841000   30.714400  -21.943400
  H    -130.409000   31.665800  -22.010800
  C    -131.757000   32.174700  -23.563500
  H    -131.446000   33.232500  -23.619000
  H    -132.822000   32.195800  -23.748600
  C    -131.129000   31.274100  -24.626500
  H    -130.074000   31.318600  -24.722000
  H    -131.368000   31.616300  -25.635800
  H    -131.640000   30.345800  -24.800100
  H    -128.937000   28.870900  -17.199200
  H    -134.309000   34.723900  -19.803500

 Total Charge           Charge          ....    0
 Multiplicity           Mult            ....    1
 Number of Electrons    NEL             ....  134
 Basis Dimension        Dim             ....  322

ORBITAL ENERGIES
----------------

  NO   OCC          E(Eh)            E(eV)
   0   2.0000     -88.964758     -2420.8541
   1   2.0000     -88.958927     -2420.6955
   2   2.0000     -10.332892      -281.1723
   3   2.0000     -10.323486      -280.9163
   4   2.0000     -10.319641      -280.8117
   5   2.0000     -10.315817      -280.7076
   6   2.0000     -10.308894      -280.5193
   7   2.0000     -10.308042      -280.4961
   8   2.0000     -10.296432      -280.1802
   9   2.0000     -10.291190      -280.0375
  10   2.0000     -10.290671      -280.0234
  11   2.0000     -10.290579      -280.0209
  12   2.0000     -10.288173      -279.9554
  13   2.0000     -10.286352      -279.9059
  14   2.0000     -10.285027      -279.8698
  15   2.0000     -10.275978      -279.6236
  16   2.0000      -8.079747      -219.8611
  17   2.0000      -8.073268      -219.6848
  18   2.0000      -6.038109      -164.3053
  19   2.0000      -6.034205      -164.1991
  20   2.0000      -6.031785      -164.1332
  21   2.0000      -6.030658      -164.1026
  22   2.0000      -6.027829      -164.0256
  23   2.0000      -6.024037      -163.9224
  24   2.0000      -1.000322       -27.2201
  25   2.0000      -0.978012       -26.6131
  26   2.0000      -0.910556       -24.7775
  27   2.0000      -0.904880       -24.6230
  28   2.0000      -0.867857       -23.6156
  29   2.0000      -0.853335       -23.2204
  30   2.0000      -0.844030       -22.9672
  31   2.0000      -0.812137       -22.0994
  32   2.0000      -0.785842       -21.3838
  33   2.0000      -0.769934       -20.9510
  34   2.0000      -0.711283       -19.3550
  35   2.0000      -0.696779       -18.9603
  36   2.0000      -0.692552       -18.8453
  37   2.0000      -0.654025       -17.7969
  38   2.0000      -0.644944       -17.5498
  39   2.0000      -0.607014       -16.5177
  40   2.0000      -0.595063       -16.1925
  41   2.0000      -0.576357       -15.6835
  42   2.0000      -0.575813       -15.6687
  43   2.0000      -0.546691       -14.8762
  44   2.0000      -0.534858       -14.5542
  45   2.0000      -0.521515       -14.1911
  46   2.0000      -0.519305       -14.1310
  47   2.0000      -0.514686       -14.0053
  48   2.0000      -0.509617       -13.8674
  49   2.0000      -0.496212       -13.5026
  50   2.0000      -0.483508       -13.1569
  51   2.0000      -0.479076       -13.0363
  52   2.0000      -0.475632       -12.9426
  53   2.0000      -0.461253       -12.5513
  54   2.0000      -0.459201       -12.4955
  55   2.0000      -0.451651       -12.2900
  56   2.0000      -0.436076       -11.8662
  57   2.0000      -0.433351       -11.7921
  58   2.0000      -0.430227       -11.7071
  59   2.0000      -0.427054       -11.6207
  60   2.0000      -0.422914       -11.5081
  61   2.0000      -0.413344       -11.2477
  62   2.0000      -0.409851       -11.1526
  63   2.0000      -0.338287        -9.2053
  64   2.0000      -0.329704        -8.9717
  65   2.0000      -0.313836        -8.5399
  66   2.0000      -0.305033        -8.3004
  67   0.0000       0.041575         1.1313
  68   0.0000       0.053032         1.4431
  69   0.0000       0.116975         3.1830
  70   0.0000       0.122741         3.3400
  71   0.0000       0.128687         3.5017

MULLIKEN ATOMIC CHARGES
-----------------------
   0 S :    0.085958
   1 C :   -0.148718
   2 C :   -0.113685
   3 C :    0.072842
   4 C :   -0.184685
   5 H :    0.003847
   6 C :    0.070119
   7 H :    0.036852
   8 H :    0.011872
   9 C :   -0.076871
  10 H :    0.031942
  11 H :    0.028428
  12 C :   -0.068878
  13 H :    0.060015
  14 H :    0.041616
  15 H :    0.022879
  16 S :    0.123033
  17 C :   -0.087559
  18 C :   -0.033739
  19 C :   -0.016196
  20 C :   -0.182315
  21 H :   -0.002682
  22 C :    0.105058
  23 H :    0.039122
  24 H :    0.016390
  25 C :   -0.098389
  26 H :    0.031628
  27 H :    0.026690
  28 C :   -0.001357
  29 H :    0.031231
  30 H :    0.002912
  31 H :    0.029553
  32 H :    0.088920
  33 H :    0.054165
Sum of atomic charges:   -0.0000000

LOEWDIN ATOMIC CHARGES
----------------------
   0 S :    0.373796
   1 C :   -0.224645
   2 C :   -0.062532
   3 C :   -0.050940
   4 C :   -0.172398
   5 H :    0.029132
   6 C :   -0.034194
   7 H :    0.040667
   8 H :    0.021446
   9 C :   -0.044407
  10 H :    0.025003
  11 H :    0.023491
  12 C :   -0.078287
  13 H :    0.038445
  14 H :    0.033462
  15 H :    0.018561
  16 S :    0.419105
  17 C :   -0.184512
  18 C :   -0.070799
  19 C :   -0.041963
  20 C :   -0.211000
  21 H :    0.020626
  22 C :   -0.030229
  23 H :    0.036701
  24 H :    0.029752
  25 C :   -0.040446
  26 H :    0.027385
  27 H :    0.022223
  28 C :   -0.072445
  29 H :    0.023953
  30 H :    0.032131
  31 H :    0.031235
  32 H :    0.044806
  33 H :    0.026878

  Mayer bond orders larger than 0.100000
B(  0-S ,  1-C ) :   1.1420 B(  0-S ,  4-C ) :   1.1273 B(  1-C ,  2-C ) :   1.6141
B(  1-C , 32-H ) :   0.9531 B(  2-C ,  3-C ) :   1.2097 B(  2-C ,  6-C ) :   0.9989
B(  3-C ,  4-C ) :   1.6206 B(  3-C ,  5-H ) :   0.9996 B(  4-C , 20-C ) :   1.0139
B(  6-C ,  7-H ) :   0.9292 B(  6-C ,  8-H ) :   0.9492 B(  6-C ,  9-C ) :   1.0812
B(  9-C , 10-H ) :   0.9528 B(  9-C , 11-H ) :   0.9512 B(  9-C , 12-C ) :   1.0698
B( 12-C , 13-H ) :   0.9739 B( 12-C , 14-H ) :   0.9725 B( 12-C , 15-H ) :   0.9732
B( 16-S , 17-C ) :   1.1717 B( 16-S , 20-C ) :   1.1522 B( 17-C , 18-C ) :   1.6057
B( 17-C , 33-H ) :   0.9647 B( 18-C , 19-C ) :   1.2236 B( 18-C , 21-H ) :   1.0005
B( 19-C , 20-C ) :   1.5995 B( 19-C , 22-C ) :   1.0365 B( 22-C , 23-H ) :   0.9321
B( 22-C , 24-H ) :   0.9216 B( 22-C , 25-C ) :   1.0768 B( 25-C , 26-H ) :   0.9573
B( 25-C , 27-H ) :   0.9458 B( 25-C , 28-C ) :   1.1023 B( 28-C , 29-H ) :   0.9730
B( 28-C , 30-H ) :   0.9576 B( 28-C , 31-H ) :   0.9665

Dispersion correction           -0.013889108
FINAL SINGLE POINT ENERGY     -1339.865052443109

DIPOLE MOMENT
-------------
                                X             Y             Z
Electronic contribution:    -17.60027       8.71564      18.05561
Nuclear contribution   :     17.94299      -8.56617     -18.68980
                        -----------------------------------------
Total Dipole Moment    :      0.34272       0.14948      -0.63419
                        -----------------------------------------
Magnitude (a.u.)       :      0.73620
Magnitude (Debye)      :      1.87128

Rotational constants in cm-1:     0.018154     0.007967     0.006219
Rotational constants in MHz :   544.246135   238.842421   186.436511

                             ****ORCA TERMINATED NORMALLY****
TOTAL RUN TIME: 0 days 0 hours 0 minutes 20 seconds 915 msec
