                         Program Version 4.2.1 -  RELEASE  -
|  1> ! wB97X-D3 SP def2-SVP
|  2> %pal
|  3> nprocs 24
|  4> end
|  5>
|  6> * xyz 0 1
|  7> S 	 -49.2785 	 11.8619 	 27.4189
|  8> C 	 -50.1272 	 12.7993 	 28.491
|  9> C 	 -51.2874 	 13.3613 	 27.9805
| 10> C 	 -51.3999 	 13.0134 	 26.6264
| 11> C 	 -50.3408 	 12.3374 	 26.1059
| 12> H 	 -52.2191 	 13.3188 	 26.0302
| 13> C 	 -52.3937 	 14.0938 	 28.594
| 14> H 	 -52.3047 	 13.7756 	 29.6122
| 15> H 	 -53.3267 	 13.7849 	 28.1341
| 16> C 	 -52.3414 	 15.6253 	 28.5449
| 17> H 	 -52.6981 	 16.0493 	 27.6683
| 18> H 	 -53.125 	 16.0248 	 29.2872
| 19> C 	 -50.952 	 16.2288 	 28.6986
| 20> H 	 -50.5093 	 15.8858 	 29.6318
| 21> H 	 -50.3814 	 15.9791 	 27.8043
| 22> H 	 -51.0368 	 17.2753 	 28.6781
| 23> S 	 -49.8424 	 10.1479 	 24.5837
| 24> C 	 -50.3394 	 10.1464 	 22.8867
| 25> C 	 -50.6081 	 11.4185 	 22.4188
| 26> C 	 -50.653 	 12.3324 	 23.5157
| 27> C 	 -50.3392 	 11.781 	 24.7496
| 28> H 	 -50.9115 	 11.4804 	 21.4013
| 29> C 	 -51.0068 	 13.7698 	 23.254
| 30> H 	 -51.3429 	 14.3445 	 24.1142
| 31> H 	 -51.8316 	 13.8466 	 22.5549
| 32> C 	 -49.8944 	 14.6753 	 22.629
| 33> H 	 -49.0156 	 14.6688 	 23.2616
| 34> H 	 -50.2846 	 15.6815 	 22.6323
| 35> C 	 -49.555 	 14.2561 	 21.2157
| 36> H 	 -50.3793 	 14.4013 	 20.5314
| 37> H 	 -49.0267 	 13.3077 	 21.1497
| 38> H 	 -48.7368 	 14.8355 	 20.8307
| 39> H 	 -49.8921 	 12.9065 	 29.5527
| 40> H 	 -50.1726 	 9.40589 	 22.1533
| 41> *
| 42>
| 43>                          ****END OF INPUT****

CARTESIAN COORDINATES (ANGSTROEM)
---------------------------------
  S    -49.278500   11.861900   27.418900
  C    -50.127200   12.799300   28.491000
  C    -51.287400   13.361300   27.980500
  C    -51.399900   13.013400   26.626400
  C    -50.340800   12.337400   26.105900
  H    -52.219100   13.318800   26.030200
  C    -52.393700   14.093800   28.594000
  H    -52.304700   13.775600   29.612200
  H    -53.326700   13.784900   28.134100
  C    -52.341400   15.625300   28.544900
  H    -52.698100   16.049300   27.668300
  H    -53.125000   16.024800   29.287200
  C    -50.952000   16.228800   28.698600
  H    -50.509300   15.885800   29.631800
  H    -50.381400   15.979100   27.804300
  H    -51.036800   17.275300   28.678100
  S    -49.842400   10.147900   24.583700
  C    -50.339400   10.146400   22.886700
  C    -50.608100   11.418500   22.418800
  C    -50.653000   12.332400   23.515700
  C    -50.339200   11.781000   24.749600
  H    -50.911500   11.480400   21.401300
  C    -51.006800   13.769800   23.254000
  H    -51.342900   14.344500   24.114200
  H    -51.831600   13.846600   22.554900
  C    -49.894400   14.675300   22.629000
  H    -49.015600   14.668800   23.261600
  H    -50.284600   15.681500   22.632300
  C    -49.555000   14.256100   21.215700
  H    -50.379300   14.401300   20.531400
  H    -49.026700   13.307700   21.149700
  H    -48.736800   14.835500   20.830700
  H    -49.892100   12.906500   29.552700
  H    -50.172600    9.405890   22.153300

 Total Charge           Charge          ....    0
 Multiplicity           Mult            ....    1
 Number of Electrons    NEL             ....  134
 Basis Dimension        Dim             ....  322

ORBITAL ENERGIES
----------------

  NO   OCC          E(Eh)            E(eV)
   0   2.0000     -88.969608     -2420.9861
   1   2.0000     -88.964307     -2420.8419
   2   2.0000     -10.324728      -280.9501
   3   2.0000     -10.323905      -280.9278
   4   2.0000     -10.310634      -280.5666
   5   2.0000     -10.309507      -280.5360
   6   2.0000     -10.300819      -280.2995
   7   2.0000     -10.291053      -280.0338
   8   2.0000     -10.289642      -279.9954
   9   2.0000     -10.285626      -279.8861
  10   2.0000     -10.284606      -279.8584
  11   2.0000     -10.283808      -279.8366
  12   2.0000     -10.281231      -279.7665
  13   2.0000     -10.280919      -279.7580
  14   2.0000     -10.270716      -279.4804
  15   2.0000     -10.269272      -279.4411
  16   2.0000      -8.085858      -220.0274
  17   2.0000      -8.079464      -219.8534
  18   2.0000      -6.044318      -164.4743
  19   2.0000      -6.040114      -164.3599
  20   2.0000      -6.037933      -164.3005
  21   2.0000      -6.036632      -164.2651
  22   2.0000      -6.034048      -164.1948
  23   2.0000      -6.030110      -164.0876
  24   2.0000      -1.017102       -27.6767
  25   2.0000      -0.992100       -26.9964
  26   2.0000      -0.919945       -25.0330
  27   2.0000      -0.906666       -24.6716
  28   2.0000      -0.874143       -23.7866
  29   2.0000      -0.859320       -23.3833
  30   2.0000      -0.846399       -23.0317
  31   2.0000      -0.819020       -22.2867
  32   2.0000      -0.785778       -21.3821
  33   2.0000      -0.774330       -21.0706
  34   2.0000      -0.709803       -19.3147
  35   2.0000      -0.700871       -19.0717
  36   2.0000      -0.689480       -18.7617
  37   2.0000      -0.665777       -18.1167
  38   2.0000      -0.641516       -17.4565
  39   2.0000      -0.626942       -17.0600
  40   2.0000      -0.595091       -16.1933
  41   2.0000      -0.569639       -15.5007
  42   2.0000      -0.561715       -15.2850
  43   2.0000      -0.553039       -15.0490
  44   2.0000      -0.547109       -14.8876
  45   2.0000      -0.537003       -14.6126
  46   2.0000      -0.520206       -14.1555
  47   2.0000      -0.517402       -14.0792
  48   2.0000      -0.500986       -13.6325
  49   2.0000      -0.494460       -13.4549
  50   2.0000      -0.490253       -13.3405
  51   2.0000      -0.484000       -13.1703
  52   2.0000      -0.475965       -12.9517
  53   2.0000      -0.466389       -12.6911
  54   2.0000      -0.457162       -12.4400
  55   2.0000      -0.452105       -12.3024
  56   2.0000      -0.443358       -12.0644
  57   2.0000      -0.437573       -11.9070
  58   2.0000      -0.430827       -11.7234
  59   2.0000      -0.426155       -11.5963
  60   2.0000      -0.423125       -11.5138
  61   2.0000      -0.412544       -11.2259
  62   2.0000      -0.407903       -11.0996
  63   2.0000      -0.357417        -9.7258
  64   2.0000      -0.333986        -9.0882
  65   2.0000      -0.324070        -8.8184
  66   2.0000      -0.285390        -7.7658
  67   0.0000       0.031052         0.8450
  68   0.0000       0.073882         2.0104
  69   0.0000       0.108693         2.9577
  70   0.0000       0.119205         3.2437
  71   0.0000       0.131021         3.5653

MULLIKEN ATOMIC CHARGES
-----------------------
   0 S :    0.131260
   1 C :   -0.112509
   2 C :   -0.123762
   3 C :    0.008591
   4 C :   -0.121012
   5 H :    0.000848
   6 C :    0.126889
   7 H :    0.011522
   8 H :    0.029669
   9 C :   -0.091824
  10 H :    0.001376
  11 H :    0.032539
  12 C :   -0.015529
  13 H :    0.027235
  14 H :    0.045211
  15 H :    0.020791
  16 S :    0.098723
  17 C :   -0.073570
  18 C :   -0.042522
  19 C :   -0.030647
  20 C :   -0.136483
  21 H :    0.021954
  22 C :    0.053656
  23 H :    0.011771
  24 H :    0.011551
  25 C :   -0.054807
  26 H :    0.028412
  27 H :    0.023626
  28 C :   -0.043148
  29 H :    0.029173
  30 H :    0.034984
  31 H :    0.013746
  32 H :    0.044391
  33 H :    0.037896
Sum of atomic charges:   -0.0000000

LOEWDIN ATOMIC CHARGES
----------------------
   0 S :    0.443987
   1 C :   -0.224544
   2 C :   -0.070993
   3 C :   -0.051435
   4 C :   -0.199150
   5 H :    0.023928
   6 C :   -0.029710
   7 H :    0.029702
   8 H :    0.036731
   9 C :   -0.041130
  10 H :    0.009974
  11 H :    0.030680
  12 C :   -0.057166
  13 H :    0.021928
  14 H :    0.031732
  15 H :    0.020195
  16 S :    0.407237
  17 C :   -0.178556
  18 C :   -0.060145
  19 C :   -0.062958
  20 C :   -0.198319
  21 H :    0.032537
  22 C :   -0.035487
  23 H :    0.025447
  24 H :    0.025117
  25 C :   -0.029961
  26 H :    0.023763
  27 H :    0.022596
  28 C :   -0.074279
  29 H :    0.023192
  30 H :    0.029790
  31 H :    0.025130
  32 H :    0.029786
  33 H :    0.020380

  Mayer bond orders larger than 0.100000
B(  0-S ,  1-C ) :   1.1714 B(  0-S ,  4-C ) :   1.1479 B(  1-C ,  2-C ) :   1.5680
B(  1-C , 32-H ) :   0.9573 B(  2-C ,  3-C ) :   1.2796 B(  2-C ,  6-C ) :   1.0294
B(  3-C ,  4-C ) :   1.5456 B(  3-C ,  5-H ) :   0.9992 B(  4-C , 20-C ) :   1.0480
B(  6-C ,  7-H ) :   0.9241 B(  6-C ,  8-H ) :   0.9405 B(  6-C ,  9-C ) :   1.0649
B(  9-C , 10-H ) :   0.9525 B(  9-C , 11-H ) :   0.9556 B(  9-C , 12-C ) :   1.0926
B( 12-C , 13-H ) :   0.9789 B( 12-C , 14-H ) :   0.9617 B( 12-C , 15-H ) :   0.9707
B( 16-S , 17-C ) :   1.1477 B( 16-S , 20-C ) :   1.1373 B( 17-C , 18-C ) :   1.6388
B( 17-C , 33-H ) :   0.9628 B( 18-C , 19-C ) :   1.2253 B( 18-C , 21-H ) :   0.9898
B( 19-C , 20-C ) :   1.6047 B( 19-C , 22-C ) :   1.0520 B( 22-C , 23-H ) :   0.9335
B( 22-C , 24-H ) :   0.9351 B( 22-C , 25-C ) :   1.0747 B( 25-C , 26-H ) :   0.9526
B( 25-C , 27-H ) :   0.9541 B( 25-C , 28-C ) :   1.1035 B( 28-C , 29-H ) :   0.9731
B( 28-C , 30-H ) :   0.9626 B( 28-C , 31-H ) :   0.9641

Dispersion correction           -0.014658205
FINAL SINGLE POINT ENERGY     -1339.865195943957

DIPOLE MOMENT
-------------
                                X             Y             Z
Electronic contribution:      7.47454     -25.07634       4.44373
Nuclear contribution   :     -7.81497      25.60993      -4.60568
                        -----------------------------------------
Total Dipole Moment    :     -0.34043       0.53359      -0.16194
                        -----------------------------------------
Magnitude (a.u.)       :      0.65333
Magnitude (Debye)      :      1.66064

Rotational constants in cm-1:     0.019913     0.008973     0.006938
Rotational constants in MHz :   596.964437   269.010421   207.998134

                             ****ORCA TERMINATED NORMALLY****
TOTAL RUN TIME: 0 days 0 hours 0 minutes 22 seconds 262 msec
