                         Program Version 4.2.1 -  RELEASE  -
|  1> ! wB97X-D3 SP def2-SVP
|  2> %pal
|  3> nprocs 24
|  4> end
|  5>
|  6> * xyz 0 1
|  7> S 	 -130.774 	 9.27174 	 -2.23602
|  8> C 	 -129.716 	 9.06984 	 -0.828763
|  9> C 	 -128.87 	 7.99272 	 -0.979137
| 10> C 	 -129.172 	 7.23634 	 -2.15225
| 11> C 	 -130.374 	 7.65991 	 -2.68533
| 12> H 	 -128.686 	 6.39328 	 -2.62088
| 13> C 	 -127.813 	 7.5692 	 -0.0254088
| 14> H 	 -127.047 	 8.28911 	 0.123375
| 15> H 	 -127.448 	 6.67075 	 -0.500498
| 16> C 	 -128.354 	 7.32605 	 1.3847
| 17> H 	 -128.729 	 8.25558 	 1.70043
| 18> H 	 -129.126 	 6.59884 	 1.3103
| 19> C 	 -127.325 	 6.75732 	 2.32206
| 20> H 	 -127.852 	 6.79978 	 3.28618
| 21> H 	 -127.169 	 5.73806 	 1.99388
| 22> H 	 -126.385 	 7.33039 	 2.29285
| 23> S 	 -131.117 	 7.8677 	 -5.29909
| 24> C 	 -131.83 	 6.54418 	 -6.15484
| 25> C 	 -132.018 	 5.44517 	 -5.29692
| 26> C 	 -131.554 	 5.64973 	 -3.95107
| 27> C 	 -131.135 	 7.00013 	 -3.77376
| 28> H 	 -132.229 	 4.54153 	 -5.77652
| 29> C 	 -131.387 	 4.49911 	 -2.90136
| 30> H 	 -132.293 	 4.00663 	 -2.85922
| 31> H 	 -131.402 	 4.97983 	 -1.87863
| 32> C 	 -130.231 	 3.54333 	 -3.24592
| 33> H 	 -129.407 	 4.17101 	 -3.50103
| 34> H 	 -130.5 	 2.96028 	 -4.1445
| 35> C 	 -129.9 	 2.6259 	 -2.11143
| 36> H 	 -130.643 	 1.83348 	 -2.01746
| 37> H 	 -129.752 	 3.1201 	 -1.14158
| 38> H 	 -128.911 	 2.22766 	 -2.10231
| 39> H 	 -129.4 	 9.81206 	 -0.135504
| 40> H 	 -132.062 	 6.70669 	 -7.19818
| 41> *
| 42>
| 43>                          ****END OF INPUT****

CARTESIAN COORDINATES (ANGSTROEM)
---------------------------------
  S    -130.774000    9.271740   -2.236020
  C    -129.716000    9.069840   -0.828763
  C    -128.870000    7.992720   -0.979137
  C    -129.172000    7.236340   -2.152250
  C    -130.374000    7.659910   -2.685330
  H    -128.686000    6.393280   -2.620880
  C    -127.813000    7.569200   -0.025409
  H    -127.047000    8.289110    0.123375
  H    -127.448000    6.670750   -0.500498
  C    -128.354000    7.326050    1.384700
  H    -128.729000    8.255580    1.700430
  H    -129.126000    6.598840    1.310300
  C    -127.325000    6.757320    2.322060
  H    -127.852000    6.799780    3.286180
  H    -127.169000    5.738060    1.993880
  H    -126.385000    7.330390    2.292850
  S    -131.117000    7.867700   -5.299090
  C    -131.830000    6.544180   -6.154840
  C    -132.018000    5.445170   -5.296920
  C    -131.554000    5.649730   -3.951070
  C    -131.135000    7.000130   -3.773760
  H    -132.229000    4.541530   -5.776520
  C    -131.387000    4.499110   -2.901360
  H    -132.293000    4.006630   -2.859220
  H    -131.402000    4.979830   -1.878630
  C    -130.231000    3.543330   -3.245920
  H    -129.407000    4.171010   -3.501030
  H    -130.500000    2.960280   -4.144500
  C    -129.900000    2.625900   -2.111430
  H    -130.643000    1.833480   -2.017460
  H    -129.752000    3.120100   -1.141580
  H    -128.911000    2.227660   -2.102310
  H    -129.400000    9.812060   -0.135504
  H    -132.062000    6.706690   -7.198180

 Total Charge           Charge          ....    0
 Multiplicity           Mult            ....    1
 Number of Electrons    NEL             ....  134
 Basis Dimension        Dim             ....  322

ORBITAL ENERGIES
----------------

  NO   OCC          E(Eh)            E(eV)
   0   2.0000     -88.964644     -2420.8510
   1   2.0000     -88.963290     -2420.8142
   2   2.0000     -10.327806      -281.0339
   3   2.0000     -10.326030      -280.9856
   4   2.0000     -10.319500      -280.8079
   5   2.0000     -10.312741      -280.6239
   6   2.0000     -10.305208      -280.4190
   7   2.0000     -10.296590      -280.1844
   8   2.0000     -10.294819      -280.1363
   9   2.0000     -10.292742      -280.0798
  10   2.0000     -10.291974      -280.0589
  11   2.0000     -10.288875      -279.9745
  12   2.0000     -10.282047      -279.7887
  13   2.0000     -10.278123      -279.6819
  14   2.0000     -10.276310      -279.6326
  15   2.0000     -10.275298      -279.6051
  16   2.0000      -8.079638      -219.8581
  17   2.0000      -8.078594      -219.8297
  18   2.0000      -6.038072      -164.3043
  19   2.0000      -6.036965      -164.2742
  20   2.0000      -6.034480      -164.2066
  21   2.0000      -6.032883      -164.1631
  22   2.0000      -6.030088      -164.0870
  23   2.0000      -6.029609      -164.0740
  24   2.0000      -1.006509       -27.3885
  25   2.0000      -0.982176       -26.7264
  26   2.0000      -0.922390       -25.0995
  27   2.0000      -0.911403       -24.8005
  28   2.0000      -0.867965       -23.6185
  29   2.0000      -0.853247       -23.2180
  30   2.0000      -0.848183       -23.0802
  31   2.0000      -0.812783       -22.1170
  32   2.0000      -0.785649       -21.3786
  33   2.0000      -0.772586       -21.0231
  34   2.0000      -0.708953       -19.2916
  35   2.0000      -0.704260       -19.1639
  36   2.0000      -0.689835       -18.7714
  37   2.0000      -0.662031       -18.0148
  38   2.0000      -0.639868       -17.4117
  39   2.0000      -0.618206       -16.8222
  40   2.0000      -0.596278       -16.2256
  41   2.0000      -0.579855       -15.7787
  42   2.0000      -0.573913       -15.6170
  43   2.0000      -0.562203       -15.2983
  44   2.0000      -0.526797       -14.3349
  45   2.0000      -0.524325       -14.2676
  46   2.0000      -0.521006       -14.1773
  47   2.0000      -0.514275       -13.9941
  48   2.0000      -0.512093       -13.9347
  49   2.0000      -0.498805       -13.5732
  50   2.0000      -0.492569       -13.4035
  51   2.0000      -0.479724       -13.0540
  52   2.0000      -0.475381       -12.9358
  53   2.0000      -0.464785       -12.6475
  54   2.0000      -0.456898       -12.4328
  55   2.0000      -0.450723       -12.2648
  56   2.0000      -0.443594       -12.0708
  57   2.0000      -0.432121       -11.7586
  58   2.0000      -0.431522       -11.7423
  59   2.0000      -0.425748       -11.5852
  60   2.0000      -0.424415       -11.5489
  61   2.0000      -0.423925       -11.5356
  62   2.0000      -0.416542       -11.3347
  63   2.0000      -0.336540        -9.1577
  64   2.0000      -0.328039        -8.9264
  65   2.0000      -0.326732        -8.8908
  66   2.0000      -0.292574        -7.9613
  67   0.0000       0.028000         0.7619
  68   0.0000       0.061805         1.6818
  69   0.0000       0.101216         2.7542
  70   0.0000       0.119396         3.2489
  71   0.0000       0.127189         3.4610

MULLIKEN ATOMIC CHARGES
-----------------------
   0 S :    0.112036
   1 C :   -0.087304
   2 C :   -0.116832
   3 C :    0.039989
   4 C :   -0.169883
   5 H :    0.012468
   6 C :    0.109526
   7 H :    0.017326
   8 H :    0.003930
   9 C :   -0.084745
  10 H :    0.014417
  11 H :    0.019803
  12 C :   -0.021265
  13 H :    0.042949
  14 H :    0.028330
  15 H :    0.033072
  16 S :    0.098324
  17 C :   -0.117043
  18 C :   -0.008793
  19 C :   -0.064665
  20 C :   -0.150974
  21 H :    0.006153
  22 C :    0.083224
  23 H :    0.002616
  24 H :    0.037080
  25 C :   -0.046635
  26 H :    0.020460
  27 H :    0.037031
  28 C :   -0.024287
  29 H :    0.037571
  30 H :    0.016805
  31 H :    0.018372
  32 H :    0.033189
  33 H :    0.067759
Sum of atomic charges:   -0.0000000

LOEWDIN ATOMIC CHARGES
----------------------
   0 S :    0.406321
   1 C :   -0.199667
   2 C :   -0.055634
   3 C :   -0.062761
   4 C :   -0.195617
   5 H :    0.031042
   6 C :   -0.028153
   7 H :    0.024858
   8 H :    0.025450
   9 C :   -0.029368
  10 H :    0.013319
  11 H :    0.020833
  12 C :   -0.059669
  13 H :    0.033603
  14 H :    0.024796
  15 H :    0.024845
  16 S :    0.414470
  17 C :   -0.187913
  18 C :   -0.071598
  19 C :   -0.047638
  20 C :   -0.207120
  21 H :    0.021543
  22 C :   -0.027079
  23 H :    0.017909
  24 H :    0.039954
  25 C :   -0.036395
  26 H :    0.018870
  27 H :    0.031392
  28 C :   -0.070446
  29 H :    0.027823
  30 H :    0.028842
  31 H :    0.025156
  32 H :    0.020588
  33 H :    0.027442

  Mayer bond orders larger than 0.100000
B(  0-S ,  1-C ) :   1.1129 B(  0-S ,  4-C ) :   1.1707 B(  1-C ,  2-C ) :   1.6268
B(  1-C , 32-H ) :   0.9646 B(  2-C ,  3-C ) :   1.2214 B(  2-C ,  6-C ) :   1.0330
B(  3-C ,  4-C ) :   1.5655 B(  3-C ,  5-H ) :   0.9991 B(  4-C , 20-C ) :   1.0032
B(  6-C ,  7-H ) :   0.9231 B(  6-C ,  8-H ) :   0.9399 B(  6-C ,  9-C ) :   1.0746
B(  9-C , 10-H ) :   0.9536 B(  9-C , 11-H ) :   0.9555 B(  9-C , 12-C ) :   1.0891
B( 12-C , 13-H ) :   0.9729 B( 12-C , 14-H ) :   0.9752 B( 12-C , 15-H ) :   0.9728
B( 16-S , 17-C ) :   1.1828 B( 16-S , 20-C ) :   1.1698 B( 17-C , 18-C ) :   1.5634
B( 17-C , 20-C ) :   0.1088 B( 17-C , 33-H ) :   0.9716 B( 18-C , 19-C ) :   1.2577
B( 18-C , 21-H ) :   0.9990 B( 19-C , 20-C ) :   1.5797 B( 19-C , 22-C ) :   1.0375
B( 22-C , 23-H ) :   0.9289 B( 22-C , 24-H ) :   0.9399 B( 22-C , 25-C ) :   1.0487
B( 25-C , 26-H ) :   0.9569 B( 25-C , 27-H ) :   0.9495 B( 25-C , 28-C ) :   1.0963
B( 28-C , 29-H ) :   0.9741 B( 28-C , 30-H ) :   0.9677 B( 28-C , 31-H ) :   0.9685

Dispersion correction           -0.014234455
FINAL SINGLE POINT ENERGY     -1339.849295223236

DIPOLE MOMENT
-------------
                                X             Y             Z
Electronic contribution:    -12.95415      21.16493     -20.66380
Nuclear contribution   :     13.40904     -21.77746      20.82412
                        -----------------------------------------
Total Dipole Moment    :      0.45489      -0.61253       0.16032
                        -----------------------------------------
Magnitude (a.u.)       :      0.77963
Magnitude (Debye)      :      1.98165

Rotational constants in cm-1:     0.018171     0.009190     0.006461
Rotational constants in MHz :   544.744534   275.512378   193.693067

                             ****ORCA TERMINATED NORMALLY****
TOTAL RUN TIME: 0 days 0 hours 0 minutes 21 seconds 702 msec
