                         Program Version 4.2.1 -  RELEASE  -
|  1> ! wB97X-D3 SP def2-SVP
|  2> %pal
|  3> nprocs 24
|  4> end
|  5>
|  6> * xyz 0 1
|  7> S 	 -63.3215 	 19.5757 	 18.4711
|  8> C 	 -62.4485 	 18.0744 	 18.8101
|  9> C 	 -61.1692 	 18.4021 	 19.1741
| 10> C 	 -60.8777 	 19.7789 	 19.1422
| 11> C 	 -62.0166 	 20.5734 	 18.8884
| 12> H 	 -59.9332 	 20.2531 	 19.2469
| 13> C 	 -60.1772 	 17.3789 	 19.7871
| 14> H 	 -59.1352 	 17.6922 	 19.6348
| 15> H 	 -60.3764 	 16.3899 	 19.3057
| 16> C 	 -60.3414 	 17.2666 	 21.2553
| 17> H 	 -60.0019 	 18.2402 	 21.6208
| 18> H 	 -61.3432 	 16.9919 	 21.4252
| 19> C 	 -59.59 	 16.2052 	 22.0318
| 20> H 	 -59.7628 	 16.2221 	 23.1324
| 21> H 	 -59.8723 	 15.2423 	 21.7179
| 22> H 	 -58.5848 	 16.3781 	 21.9188
| 23> S 	 -63.3424 	 22.8723 	 19.5625
| 24> C 	 -62.5552 	 24.3806 	 19.3165
| 25> C 	 -61.4709 	 24.2031 	 18.5559
| 26> C 	 -61.1721 	 22.8753 	 18.2701
| 27> C 	 -62.0745 	 21.9978 	 18.8505
| 28> H 	 -60.9215 	 25.0707 	 18.1296
| 29> C 	 -60.0832 	 22.5252 	 17.3659
| 30> H 	 -60.2009 	 23.1056 	 16.4927
| 31> H 	 -60.101 	 21.3951 	 17.108
| 32> C 	 -58.5844 	 22.7737 	 17.7804
| 33> H 	 -58.4108 	 22.0495 	 18.6704
| 34> H 	 -58.3835 	 23.7453 	 18.2848
| 35> C 	 -57.6116 	 22.4432 	 16.6326
| 36> H 	 -57.9503 	 22.9414 	 15.688
| 37> H 	 -57.5081 	 21.3809 	 16.3816
| 38> H 	 -56.6409 	 22.8595 	 16.7731
| 39> H 	 -62.8251 	 17.0472 	 18.721
| 40> H 	 -62.9073 	 25.3106 	 19.7408
| 41> *
| 42>
| 43>                          ****END OF INPUT****

CARTESIAN COORDINATES (ANGSTROEM)
---------------------------------
  S    -63.321500   19.575700   18.471100
  C    -62.448500   18.074400   18.810100
  C    -61.169200   18.402100   19.174100
  C    -60.877700   19.778900   19.142200
  C    -62.016600   20.573400   18.888400
  H    -59.933200   20.253100   19.246900
  C    -60.177200   17.378900   19.787100
  H    -59.135200   17.692200   19.634800
  H    -60.376400   16.389900   19.305700
  C    -60.341400   17.266600   21.255300
  H    -60.001900   18.240200   21.620800
  H    -61.343200   16.991900   21.425200
  C    -59.590000   16.205200   22.031800
  H    -59.762800   16.222100   23.132400
  H    -59.872300   15.242300   21.717900
  H    -58.584800   16.378100   21.918800
  S    -63.342400   22.872300   19.562500
  C    -62.555200   24.380600   19.316500
  C    -61.470900   24.203100   18.555900
  C    -61.172100   22.875300   18.270100
  C    -62.074500   21.997800   18.850500
  H    -60.921500   25.070700   18.129600
  C    -60.083200   22.525200   17.365900
  H    -60.200900   23.105600   16.492700
  H    -60.101000   21.395100   17.108000
  C    -58.584400   22.773700   17.780400
  H    -58.410800   22.049500   18.670400
  H    -58.383500   23.745300   18.284800
  C    -57.611600   22.443200   16.632600
  H    -57.950300   22.941400   15.688000
  H    -57.508100   21.380900   16.381600
  H    -56.640900   22.859500   16.773100
  H    -62.825100   17.047200   18.721000
  H    -62.907300   25.310600   19.740800

 Total Charge           Charge          ....    0
 Multiplicity           Mult            ....    1
 Number of Electrons    NEL             ....  134
 Basis Dimension        Dim             ....  322

ORBITAL ENERGIES
----------------

  NO   OCC          E(Eh)            E(eV)
   0   2.0000     -88.966994     -2420.9150
   1   2.0000     -88.964329     -2420.8425
   2   2.0000     -10.326966      -281.0110
   3   2.0000     -10.320262      -280.8286
   4   2.0000     -10.314645      -280.6758
   5   2.0000     -10.311933      -280.6020
   6   2.0000     -10.299996      -280.2771
   7   2.0000     -10.299972      -280.2765
   8   2.0000     -10.293992      -280.1138
   9   2.0000     -10.292742      -280.0798
  10   2.0000     -10.290765      -280.0260
  11   2.0000     -10.290620      -280.0220
  12   2.0000     -10.288046      -279.9520
  13   2.0000     -10.282614      -279.8042
  14   2.0000     -10.273114      -279.5456
  15   2.0000     -10.266784      -279.3734
  16   2.0000      -8.082224      -219.9285
  17   2.0000      -8.080931      -219.8933
  18   2.0000      -6.040686      -164.3754
  19   2.0000      -6.039304      -164.3378
  20   2.0000      -6.036535      -164.2625
  21   2.0000      -6.035150      -164.2248
  22   2.0000      -6.033120      -164.1695
  23   2.0000      -6.031736      -164.1319
  24   2.0000      -1.022797       -27.8317
  25   2.0000      -0.995483       -27.0885
  26   2.0000      -0.920277       -25.0420
  27   2.0000      -0.909482       -24.7483
  28   2.0000      -0.879244       -23.9255
  29   2.0000      -0.855771       -23.2867
  30   2.0000      -0.848421       -23.0867
  31   2.0000      -0.817183       -22.2367
  32   2.0000      -0.787578       -21.4311
  33   2.0000      -0.774382       -21.0720
  34   2.0000      -0.710506       -19.3339
  35   2.0000      -0.697828       -18.9889
  36   2.0000      -0.690999       -18.8030
  37   2.0000      -0.665409       -18.1067
  38   2.0000      -0.639737       -17.4081
  39   2.0000      -0.620796       -16.8927
  40   2.0000      -0.603722       -16.4281
  41   2.0000      -0.588965       -16.0266
  42   2.0000      -0.566588       -15.4177
  43   2.0000      -0.558019       -15.1845
  44   2.0000      -0.532570       -14.4920
  45   2.0000      -0.522549       -14.2193
  46   2.0000      -0.516964       -14.0673
  47   2.0000      -0.513468       -13.9722
  48   2.0000      -0.510804       -13.8997
  49   2.0000      -0.508116       -13.8266
  50   2.0000      -0.498206       -13.5569
  51   2.0000      -0.483011       -13.1434
  52   2.0000      -0.479656       -13.0521
  53   2.0000      -0.469150       -12.7662
  54   2.0000      -0.460857       -12.5406
  55   2.0000      -0.454398       -12.3648
  56   2.0000      -0.445203       -12.1146
  57   2.0000      -0.432096       -11.7579
  58   2.0000      -0.430834       -11.7236
  59   2.0000      -0.428500       -11.6601
  60   2.0000      -0.419768       -11.4225
  61   2.0000      -0.411559       -11.1991
  62   2.0000      -0.402933       -10.9644
  63   2.0000      -0.355695        -9.6790
  64   2.0000      -0.332466        -9.0469
  65   2.0000      -0.329269        -8.9599
  66   2.0000      -0.288986        -7.8637
  67   0.0000       0.028422         0.7734
  68   0.0000       0.077393         2.1060
  69   0.0000       0.114367         3.1121
  70   0.0000       0.121609         3.3091
  71   0.0000       0.131923         3.5898

MULLIKEN ATOMIC CHARGES
-----------------------
   0 S :    0.116397
   1 C :   -0.138067
   2 C :   -0.057990
   3 C :    0.032038
   4 C :   -0.159682
   5 H :   -0.014414
   6 C :    0.052834
   7 H :    0.017046
   8 H :    0.018294
   9 C :   -0.055403
  10 H :    0.023349
  11 H :    0.011602
  12 C :    0.008356
  13 H :    0.035976
  14 H :    0.011790
  15 H :    0.004400
  16 S :    0.118311
  17 C :   -0.089369
  18 C :   -0.032489
  19 C :    0.009078
  20 C :   -0.144493
  21 H :    0.026976
  22 C :    0.013284
  23 H :    0.018024
  24 H :    0.048303
  25 C :   -0.113495
  26 H :    0.030203
  27 H :    0.035594
  28 C :   -0.034425
  29 H :    0.025072
  30 H :    0.041336
  31 H :    0.029593
  32 H :    0.056052
  33 H :    0.055918
Sum of atomic charges:   -0.0000000

LOEWDIN ATOMIC CHARGES
----------------------
   0 S :    0.428731
   1 C :   -0.203209
   2 C :   -0.059686
   3 C :   -0.066841
   4 C :   -0.203116
   5 H :    0.022999
   6 C :   -0.027729
   7 H :    0.026306
   8 H :    0.026869
   9 C :   -0.040177
  10 H :    0.026273
  11 H :    0.017545
  12 C :   -0.052917
  13 H :    0.035187
  14 H :    0.016024
  15 H :    0.010100
  16 S :    0.440832
  17 C :   -0.188589
  18 C :   -0.074309
  19 C :   -0.064929
  20 C :   -0.218352
  21 H :    0.039258
  22 C :   -0.038875
  23 H :    0.025221
  24 H :    0.043390
  25 C :   -0.048905
  26 H :    0.024956
  27 H :    0.023963
  28 C :   -0.069549
  29 H :    0.028783
  30 H :    0.029507
  31 H :    0.023768
  32 H :    0.036045
  33 H :    0.031426

  Mayer bond orders larger than 0.100000
B(  0-S ,  1-C ) :   1.1295 B(  0-S ,  4-C ) :   1.1911 B(  1-C ,  2-C ) :   1.5855
B(  1-C ,  4-C ) :   0.1062 B(  1-C , 32-H ) :   0.9714 B(  2-C ,  3-C ) :   1.2690
B(  2-C ,  6-C ) :   1.0302 B(  3-C ,  4-C ) :   1.5105 B(  3-C ,  5-H ) :   1.0056
B(  4-C , 20-C ) :   1.0580 B(  6-C ,  7-H ) :   0.9395 B(  6-C ,  8-H ) :   0.9370
B(  6-C ,  9-C ) :   1.0786 B(  9-C , 10-H ) :   0.9530 B(  9-C , 11-H ) :   0.9540
B(  9-C , 12-C ) :   1.0935 B( 12-C , 13-H ) :   0.9718 B( 12-C , 14-H ) :   0.9722
B( 12-C , 15-H ) :   0.9718 B( 16-S , 17-C ) :   1.1661 B( 16-S , 20-C ) :   1.1554
B( 17-C , 18-C ) :   1.5775 B( 17-C , 33-H ) :   0.9718 B( 18-C , 19-C ) :   1.2713
B( 18-C , 21-H ) :   0.9884 B( 19-C , 20-C ) :   1.5350 B( 19-C , 22-C ) :   1.0637
B( 22-C , 23-H ) :   0.9273 B( 22-C , 24-H ) :   0.9325 B( 22-C , 25-C ) :   1.0467
B( 25-C , 26-H ) :   0.9520 B( 25-C , 27-H ) :   0.9575 B( 25-C , 28-C ) :   1.0717
B( 28-C , 29-H ) :   0.9730 B( 28-C , 30-H ) :   0.9752 B( 28-C , 31-H ) :   0.9739

Dispersion correction           -0.013878227
FINAL SINGLE POINT ENERGY     -1339.869307952537

DIPOLE MOMENT
-------------
                                X             Y             Z
Electronic contribution:    -26.64895      10.56754      -1.81367
Nuclear contribution   :     27.23678     -10.49632       1.77325
                        -----------------------------------------
Total Dipole Moment    :      0.58782       0.07121      -0.04042
                        -----------------------------------------
Magnitude (a.u.)       :      0.59350
Magnitude (Debye)      :      1.50856

Rotational constants in cm-1:     0.017174     0.008579     0.006721
Rotational constants in MHz :   514.861534   257.183207   201.501908

                             ****ORCA TERMINATED NORMALLY****
TOTAL RUN TIME: 0 days 0 hours 0 minutes 21 seconds 543 msec
