                         Program Version 4.2.1 -  RELEASE  -
|  1> ! wB97X-D3 SP def2-SVP
|  2> %pal
|  3> nprocs 24
|  4> end
|  5>
|  6> * xyz 0 1
|  7> S 	 -105.173 	 19.864 	 -121.944
|  8> C 	 -104.771 	 21.1301 	 -120.792
|  9> C 	 -104.443 	 20.5957 	 -119.547
| 10> C 	 -104.227 	 19.1845 	 -119.653
| 11> C 	 -104.674 	 18.5624 	 -120.804
| 12> H 	 -104.026 	 18.595 	 -118.818
| 13> C 	 -103.998 	 21.2698 	 -118.207
| 14> H 	 -103.463 	 22.1335 	 -118.432
| 15> H 	 -103.405 	 20.5674 	 -117.699
| 16> C 	 -105.206 	 21.7644 	 -117.303
| 17> H 	 -105.882 	 20.937 	 -116.949
| 18> H 	 -104.709 	 22.1882 	 -116.404
| 19> C 	 -106.127 	 22.792 	 -117.908
| 20> H 	 -106.677 	 22.336 	 -118.741
| 21> H 	 -106.84 	 23.15 	 -117.152
| 22> H 	 -105.613 	 23.5716 	 -118.415
| 23> S 	 -104.182 	 16.705 	 -122.796
| 24> C 	 -104.325 	 15.0167 	 -122.419
| 25> C 	 -104.732 	 14.8222 	 -121.093
| 26> C 	 -104.893 	 16.001 	 -120.371
| 27> C 	 -104.671 	 17.172 	 -121.156
| 28> H 	 -104.874 	 13.8798 	 -120.63
| 29> C 	 -105.209 	 16.012 	 -118.888
| 30> H 	 -106.075 	 15.3782 	 -118.783
| 31> H 	 -105.606 	 16.9539 	 -118.571
| 32> C 	 -104.203 	 15.5555 	 -117.921
| 33> H 	 -103.272 	 16.0453 	 -117.91
| 34> H 	 -103.957 	 14.5979 	 -118.335
| 35> C 	 -104.804 	 15.3862 	 -116.521
| 36> H 	 -105.489 	 16.164 	 -116.292
| 37> H 	 -104.088 	 15.1566 	 -115.777
| 38> H 	 -105.482 	 14.4695 	 -116.485
| 39> H 	 -104.963 	 22.2327 	 -120.934
| 40> H 	 -104.13 	 14.1835 	 -123.121
| 41> *
| 42>
| 43>                          ****END OF INPUT****

CARTESIAN COORDINATES (ANGSTROEM)
---------------------------------
  S    -105.173000   19.864000  -121.944000
  C    -104.771000   21.130100  -120.792000
  C    -104.443000   20.595700  -119.547000
  C    -104.227000   19.184500  -119.653000
  C    -104.674000   18.562400  -120.804000
  H    -104.026000   18.595000  -118.818000
  C    -103.998000   21.269800  -118.207000
  H    -103.463000   22.133500  -118.432000
  H    -103.405000   20.567400  -117.699000
  C    -105.206000   21.764400  -117.303000
  H    -105.882000   20.937000  -116.949000
  H    -104.709000   22.188200  -116.404000
  C    -106.127000   22.792000  -117.908000
  H    -106.677000   22.336000  -118.741000
  H    -106.840000   23.150000  -117.152000
  H    -105.613000   23.571600  -118.415000
  S    -104.182000   16.705000  -122.796000
  C    -104.325000   15.016700  -122.419000
  C    -104.732000   14.822200  -121.093000
  C    -104.893000   16.001000  -120.371000
  C    -104.671000   17.172000  -121.156000
  H    -104.874000   13.879800  -120.630000
  C    -105.209000   16.012000  -118.888000
  H    -106.075000   15.378200  -118.783000
  H    -105.606000   16.953900  -118.571000
  C    -104.203000   15.555500  -117.921000
  H    -103.272000   16.045300  -117.910000
  H    -103.957000   14.597900  -118.335000
  C    -104.804000   15.386200  -116.521000
  H    -105.489000   16.164000  -116.292000
  H    -104.088000   15.156600  -115.777000
  H    -105.482000   14.469500  -116.485000
  H    -104.963000   22.232700  -120.934000
  H    -104.130000   14.183500  -123.121000

 Total Charge           Charge          ....    0
 Multiplicity           Mult            ....    1
 Number of Electrons    NEL             ....  134
 Basis Dimension        Dim             ....  322

ORBITAL ENERGIES
----------------

  NO   OCC          E(Eh)            E(eV)
   0   2.0000     -88.971597     -2421.0402
   1   2.0000     -88.965954     -2420.8867
   2   2.0000     -10.332092      -281.1505
   3   2.0000     -10.331490      -281.1341
   4   2.0000     -10.324455      -280.9427
   5   2.0000     -10.321738      -280.8688
   6   2.0000     -10.305252      -280.4202
   7   2.0000     -10.303439      -280.3708
   8   2.0000     -10.293179      -280.0916
   9   2.0000     -10.293087      -280.0891
  10   2.0000     -10.292980      -280.0862
  11   2.0000     -10.286630      -279.9134
  12   2.0000     -10.284586      -279.8578
  13   2.0000     -10.280249      -279.7398
  14   2.0000     -10.278647      -279.6962
  15   2.0000     -10.274623      -279.5867
  16   2.0000      -8.085814      -220.0262
  17   2.0000      -8.079718      -219.8603
  18   2.0000      -6.044240      -164.4721
  19   2.0000      -6.040268      -164.3641
  20   2.0000      -6.038497      -164.3159
  21   2.0000      -6.036811      -164.2700
  22   2.0000      -6.034313      -164.2020
  23   2.0000      -6.030286      -164.0924
  24   2.0000      -1.003379       -27.3033
  25   2.0000      -0.980163       -26.6716
  26   2.0000      -0.924252       -25.1502
  27   2.0000      -0.905685       -24.6449
  28   2.0000      -0.869105       -23.6495
  29   2.0000      -0.857581       -23.3360
  30   2.0000      -0.846220       -23.0268
  31   2.0000      -0.810021       -22.0418
  32   2.0000      -0.787816       -21.4376
  33   2.0000      -0.775398       -21.0996
  34   2.0000      -0.713706       -19.4209
  35   2.0000      -0.700250       -19.0548
  36   2.0000      -0.694174       -18.8894
  37   2.0000      -0.666255       -18.1297
  38   2.0000      -0.637034       -17.3346
  39   2.0000      -0.623428       -16.9643
  40   2.0000      -0.604965       -16.4619
  41   2.0000      -0.569674       -15.5016
  42   2.0000      -0.563922       -15.3451
  43   2.0000      -0.550735       -14.9863
  44   2.0000      -0.538068       -14.6416
  45   2.0000      -0.535290       -14.5660
  46   2.0000      -0.521754       -14.1976
  47   2.0000      -0.518671       -14.1138
  48   2.0000      -0.506379       -13.7793
  49   2.0000      -0.497967       -13.5504
  50   2.0000      -0.487645       -13.2695
  51   2.0000      -0.481906       -13.1133
  52   2.0000      -0.470646       -12.8069
  53   2.0000      -0.465822       -12.6757
  54   2.0000      -0.456573       -12.4240
  55   2.0000      -0.455493       -12.3946
  56   2.0000      -0.450627       -12.2622
  57   2.0000      -0.445844       -12.1320
  58   2.0000      -0.434948       -11.8355
  59   2.0000      -0.428082       -11.6487
  60   2.0000      -0.421230       -11.4622
  61   2.0000      -0.408997       -11.1294
  62   2.0000      -0.407855       -11.0983
  63   2.0000      -0.353235        -9.6120
  64   2.0000      -0.337634        -9.1875
  65   2.0000      -0.329161        -8.9569
  66   2.0000      -0.282661        -7.6916
  67   0.0000       0.018117         0.4930
  68   0.0000       0.072317         1.9679
  69   0.0000       0.106044         2.8856
  70   0.0000       0.120434         3.2772
  71   0.0000       0.130224         3.5436

MULLIKEN ATOMIC CHARGES
-----------------------
   0 S :    0.097073
   1 C :   -0.138441
   2 C :   -0.111654
   3 C :    0.042146
   4 C :   -0.143886
   5 H :   -0.015018
   6 C :    0.116918
   7 H :    0.017133
   8 H :    0.017618
   9 C :   -0.108317
  10 H :    0.036226
  11 H :    0.033996
  12 C :   -0.043933
  13 H :    0.034012
  14 H :    0.047325
  15 H :    0.012965
  16 S :    0.121510
  17 C :   -0.100738
  18 C :   -0.022103
  19 C :   -0.017259
  20 C :   -0.148829
  21 H :    0.004695
  22 C :    0.044528
  23 H :    0.012600
  24 H :    0.005343
  25 C :   -0.009806
  26 H :    0.019850
  27 H :    0.001054
  28 C :   -0.033655
  29 H :    0.025927
  30 H :    0.032534
  31 H :    0.025066
  32 H :    0.071428
  33 H :    0.073688
Sum of atomic charges:    0.0000000

LOEWDIN ATOMIC CHARGES
----------------------
   0 S :    0.378230
   1 C :   -0.206109
   2 C :   -0.062387
   3 C :   -0.061446
   4 C :   -0.175766
   5 H :    0.017541
   6 C :   -0.011012
   7 H :    0.023026
   8 H :    0.025066
   9 C :   -0.042662
  10 H :    0.027851
  11 H :    0.024034
  12 C :   -0.069827
  13 H :    0.027789
  14 H :    0.033586
  15 H :    0.015064
  16 S :    0.418443
  17 C :   -0.192984
  18 C :   -0.070120
  19 C :   -0.046590
  20 C :   -0.196404
  21 H :    0.026331
  22 C :   -0.033460
  23 H :    0.032360
  24 H :    0.020158
  25 C :   -0.038036
  26 H :    0.017856
  27 H :    0.022160
  28 C :   -0.058575
  29 H :    0.020447
  30 H :    0.022843
  31 H :    0.033559
  32 H :    0.040681
  33 H :    0.038354

  Mayer bond orders larger than 0.100000
B(  0-S ,  1-C ) :   1.1381 B(  0-S ,  4-C ) :   1.1216 B(  1-C ,  2-C ) :   1.6061
B(  1-C , 32-H ) :   0.9566 B(  2-C ,  3-C ) :   1.2508 B(  2-C ,  6-C ) :   1.0146
B(  3-C ,  4-C ) :   1.5811 B(  3-C ,  5-H ) :   0.9846 B(  4-C , 20-C ) :   1.0960
B(  6-C ,  7-H ) :   0.9429 B(  6-C ,  8-H ) :   0.9461 B(  6-C ,  9-C ) :   1.0619
B(  9-C , 10-H ) :   0.9567 B(  9-C , 11-H ) :   0.9578 B(  9-C , 12-C ) :   1.0823
B( 12-C , 13-H ) :   0.9690 B( 12-C , 14-H ) :   0.9713 B( 12-C , 15-H ) :   0.9741
B( 16-S , 17-C ) :   1.1778 B( 16-S , 20-C ) :   1.1477 B( 17-C , 18-C ) :   1.5401
B( 17-C , 20-C ) :   0.1126 B( 17-C , 33-H ) :   0.9645 B( 18-C , 19-C ) :   1.3083
B( 18-C , 21-H ) :   0.9929 B( 19-C , 20-C ) :   1.5252 B( 19-C , 22-C ) :   1.0399
B( 22-C , 23-H ) :   0.9282 B( 22-C , 24-H ) :   0.9267 B( 22-C , 25-C ) :   1.0650
B( 25-C , 26-H ) :   0.9531 B( 25-C , 27-H ) :   0.9450 B( 25-C , 28-C ) :   1.0789
B( 28-C , 29-H ) :   0.9765 B( 28-C , 30-H ) :   0.9732 B( 28-C , 31-H ) :   0.9717

Dispersion correction           -0.014111168
FINAL SINGLE POINT ENERGY     -1339.867979099188

DIPOLE MOMENT
-------------
                                X             Y             Z
Electronic contribution:      3.17223      -3.76621     -30.20958
Nuclear contribution   :     -3.14747       3.55607      30.95647
                        -----------------------------------------
Total Dipole Moment    :      0.02476      -0.21014       0.74689
                        -----------------------------------------
Magnitude (a.u.)       :      0.77628
Magnitude (Debye)      :      1.97315

Rotational constants in cm-1:     0.017736     0.009150     0.006344
Rotational constants in MHz :   531.725241   274.295917   190.202652

                             ****ORCA TERMINATED NORMALLY****
TOTAL RUN TIME: 0 days 0 hours 0 minutes 21 seconds 819 msec
