                         Program Version 4.2.1 -  RELEASE  -
|  1> ! wB97X-D3 SP def2-SVP
|  2> %pal
|  3> nprocs 24
|  4> end
|  5>
|  6> * xyz 0 1
|  7> S 	 -44.9382 	 14.6819 	 34.1612
|  8> C 	 -43.2502 	 14.2836 	 34.7124
|  9> C 	 -42.4788 	 15.4764 	 34.6704
| 10> C 	 -43.139 	 16.5298 	 34.0086
| 11> C 	 -44.4937 	 16.3195 	 33.7374
| 12> H 	 -42.638 	 17.4322 	 33.7469
| 13> C 	 -41.0676 	 15.5283 	 35.0305
| 14> H 	 -40.6111 	 15.7142 	 34.1133
| 15> H 	 -40.8441 	 14.5118 	 35.22
| 16> C 	 -40.5694 	 16.5915 	 36.1377
| 17> H 	 -39.5043 	 16.4912 	 36.1899
| 18> H 	 -40.7612 	 17.5255 	 35.6655
| 19> C 	 -41.2016 	 16.612 	 37.4422
| 20> H 	 -41.1811 	 17.5836 	 37.8607
| 21> H 	 -42.1905 	 16.3774 	 37.271
| 22> H 	 -40.8356 	 15.9195 	 38.1207
| 23> S 	 -46.3713 	 16.6699 	 31.7539
| 24> C 	 -47.1371 	 18.3322 	 31.5655
| 25> C 	 -46.8638 	 19.1203 	 32.5655
| 26> C 	 -45.7987 	 18.6154 	 33.4056
| 27> C 	 -45.4417 	 17.2408 	 33.1101
| 28> H 	 -47.4049 	 20.0609 	 32.6703
| 29> C 	 -45.2838 	 19.3402 	 34.6626
| 30> H 	 -44.6086 	 18.6744 	 35.1539
| 31> H 	 -46.1777 	 19.5735 	 35.2598
| 32> C 	 -44.6996 	 20.7343 	 34.3076
| 33> H 	 -44.4483 	 21.2132 	 35.272
| 34> H 	 -45.3415 	 21.4114 	 33.75
| 35> C 	 -43.3178 	 20.6231 	 33.5237
| 36> H 	 -42.6341 	 19.8622 	 33.9943
| 37> H 	 -42.8148 	 21.5531 	 33.3866
| 38> H 	 -43.5522 	 20.2957 	 32.4886
| 39> H 	 -42.9624 	 13.2824 	 34.9929
| 40> H 	 -47.8242 	 18.6062 	 30.8487
| 41> *
| 42>
| 43>                          ****END OF INPUT****

CARTESIAN COORDINATES (ANGSTROEM)
---------------------------------
  S    -44.938200   14.681900   34.161200
  C    -43.250200   14.283600   34.712400
  C    -42.478800   15.476400   34.670400
  C    -43.139000   16.529800   34.008600
  C    -44.493700   16.319500   33.737400
  H    -42.638000   17.432200   33.746900
  C    -41.067600   15.528300   35.030500
  H    -40.611100   15.714200   34.113300
  H    -40.844100   14.511800   35.220000
  C    -40.569400   16.591500   36.137700
  H    -39.504300   16.491200   36.189900
  H    -40.761200   17.525500   35.665500
  C    -41.201600   16.612000   37.442200
  H    -41.181100   17.583600   37.860700
  H    -42.190500   16.377400   37.271000
  H    -40.835600   15.919500   38.120700
  S    -46.371300   16.669900   31.753900
  C    -47.137100   18.332200   31.565500
  C    -46.863800   19.120300   32.565500
  C    -45.798700   18.615400   33.405600
  C    -45.441700   17.240800   33.110100
  H    -47.404900   20.060900   32.670300
  C    -45.283800   19.340200   34.662600
  H    -44.608600   18.674400   35.153900
  H    -46.177700   19.573500   35.259800
  C    -44.699600   20.734300   34.307600
  H    -44.448300   21.213200   35.272000
  H    -45.341500   21.411400   33.750000
  C    -43.317800   20.623100   33.523700
  H    -42.634100   19.862200   33.994300
  H    -42.814800   21.553100   33.386600
  H    -43.552200   20.295700   32.488600
  H    -42.962400   13.282400   34.992900
  H    -47.824200   18.606200   30.848700

 Total Charge           Charge          ....    0
 Multiplicity           Mult            ....    1
 Number of Electrons    NEL             ....  134
 Basis Dimension        Dim             ....  322

ORBITAL ENERGIES
----------------

  NO   OCC          E(Eh)            E(eV)
   0   2.0000     -88.966535     -2420.9025
   1   2.0000     -88.963922     -2420.8314
   2   2.0000     -10.335093      -281.2322
   3   2.0000     -10.333606      -281.1917
   4   2.0000     -10.322673      -280.8942
   5   2.0000     -10.312322      -280.6126
   6   2.0000     -10.312227      -280.6100
   7   2.0000     -10.301767      -280.3253
   8   2.0000     -10.293661      -280.1048
   9   2.0000     -10.293462      -280.0994
  10   2.0000     -10.293379      -280.0971
  11   2.0000     -10.291283      -280.0400
  12   2.0000     -10.283127      -279.8181
  13   2.0000     -10.281646      -279.7778
  14   2.0000     -10.281532      -279.7747
  15   2.0000     -10.256023      -279.0806
  16   2.0000      -8.080154      -219.8722
  17   2.0000      -8.077734      -219.8063
  18   2.0000      -6.038687      -164.3210
  19   2.0000      -6.036454      -164.2603
  20   2.0000      -6.034753      -164.2140
  21   2.0000      -6.032503      -164.1527
  22   2.0000      -6.031014      -164.1122
  23   2.0000      -6.028170      -164.0349
  24   2.0000      -0.999880       -27.2081
  25   2.0000      -0.978537       -26.6274
  26   2.0000      -0.918653       -24.9978
  27   2.0000      -0.900408       -24.5014
  28   2.0000      -0.879900       -23.9433
  29   2.0000      -0.855831       -23.2884
  30   2.0000      -0.836166       -22.7532
  31   2.0000      -0.820085       -22.3157
  32   2.0000      -0.785892       -21.3852
  33   2.0000      -0.767407       -20.8822
  34   2.0000      -0.717054       -19.5120
  35   2.0000      -0.701982       -19.1019
  36   2.0000      -0.696492       -18.9525
  37   2.0000      -0.651438       -17.7265
  38   2.0000      -0.639708       -17.4073
  39   2.0000      -0.625356       -17.0168
  40   2.0000      -0.596117       -16.2212
  41   2.0000      -0.571776       -15.5588
  42   2.0000      -0.558361       -15.1938
  43   2.0000      -0.553380       -15.0582
  44   2.0000      -0.547359       -14.8944
  45   2.0000      -0.536433       -14.5971
  46   2.0000      -0.526865       -14.3367
  47   2.0000      -0.522787       -14.2258
  48   2.0000      -0.504216       -13.7204
  49   2.0000      -0.493642       -13.4327
  50   2.0000      -0.489108       -13.3093
  51   2.0000      -0.478494       -13.0205
  52   2.0000      -0.473112       -12.8740
  53   2.0000      -0.466553       -12.6956
  54   2.0000      -0.458618       -12.4796
  55   2.0000      -0.448554       -12.2058
  56   2.0000      -0.445609       -12.1256
  57   2.0000      -0.441108       -12.0032
  58   2.0000      -0.435650       -11.8546
  59   2.0000      -0.426159       -11.5964
  60   2.0000      -0.423829       -11.5330
  61   2.0000      -0.412029       -11.2119
  62   2.0000      -0.405747       -11.0409
  63   2.0000      -0.353546        -9.6205
  64   2.0000      -0.329870        -8.9762
  65   2.0000      -0.322943        -8.7877
  66   2.0000      -0.287490        -7.8230
  67   0.0000       0.023165         0.6303
  68   0.0000       0.068952         1.8763
  69   0.0000       0.098778         2.6879
  70   0.0000       0.119657         3.2560
  71   0.0000       0.122174         3.3245

MULLIKEN ATOMIC CHARGES
-----------------------
   0 S :    0.096219
   1 C :   -0.137742
   2 C :   -0.115748
   3 C :    0.040382
   4 C :   -0.139568
   5 H :   -0.008023
   6 C :    0.108649
   7 H :    0.018305
   8 H :   -0.007077
   9 C :   -0.062150
  10 H :    0.024462
  11 H :    0.009688
  12 C :    0.047649
  13 H :    0.021990
  14 H :    0.009167
  15 H :    0.014448
  16 S :    0.086911
  17 C :   -0.050798
  18 C :   -0.019897
  19 C :   -0.059203
  20 C :   -0.144976
  21 H :    0.030875
  22 C :    0.087651
  23 H :    0.026015
  24 H :    0.040978
  25 C :   -0.095512
  26 H :    0.033469
  27 H :    0.035681
  28 C :   -0.083601
  29 H :    0.040357
  30 H :    0.031785
  31 H :    0.041767
  32 H :    0.055217
  33 H :    0.022630
Sum of atomic charges:   -0.0000000

LOEWDIN ATOMIC CHARGES
----------------------
   0 S :    0.382012
   1 C :   -0.182864
   2 C :   -0.059688
   3 C :   -0.065889
   4 C :   -0.190054
   5 H :    0.024304
   6 C :   -0.029031
   7 H :    0.030902
   8 H :    0.022918
   9 C :   -0.025872
  10 H :    0.022066
  11 H :    0.019593
  12 C :   -0.052415
  13 H :    0.028136
  14 H :    0.022141
  15 H :    0.018840
  16 S :    0.368330
  17 C :   -0.138784
  18 C :   -0.069959
  19 C :   -0.047109
  20 C :   -0.205771
  21 H :    0.040365
  22 C :   -0.025280
  23 H :    0.026464
  24 H :    0.037916
  25 C :   -0.039548
  26 H :    0.024078
  27 H :    0.021695
  28 C :   -0.072741
  29 H :    0.025241
  30 H :    0.019618
  31 H :    0.028142
  32 H :    0.026223
  33 H :    0.016023

  Mayer bond orders larger than 0.100000
B(  0-S ,  1-C ) :   1.1290 B(  0-S ,  4-C ) :   1.1609 B(  1-C ,  2-C ) :   1.5526
B(  1-C ,  4-C ) :   0.1068 B(  1-C , 32-H ) :   0.9726 B(  2-C ,  3-C ) :   1.2575
B(  2-C ,  6-C ) :   1.0319 B(  3-C ,  4-C ) :   1.5394 B(  3-C ,  5-H ) :   0.9980
B(  4-C , 20-C ) :   1.0499 B(  6-C ,  7-H ) :   0.9319 B(  6-C ,  8-H ) :   0.9337
B(  6-C ,  9-C ) :   1.0526 B(  9-C , 10-H ) :   0.9558 B(  9-C , 11-H ) :   0.9556
B(  9-C , 12-C ) :   1.0920 B( 12-C , 13-H ) :   0.9666 B( 12-C , 14-H ) :   0.9645
B( 12-C , 15-H ) :   0.9689 B( 16-S , 17-C ) :   1.1089 B( 16-S , 20-C ) :   1.1318
B( 17-C , 18-C ) :   1.6917 B( 17-C , 33-H ) :   0.9702 B( 18-C , 19-C ) :   1.1966
B( 18-C , 21-H ) :   0.9804 B( 19-C , 20-C ) :   1.5791 B( 19-C , 22-C ) :   1.0425
B( 22-C , 23-H ) :   0.9400 B( 22-C , 24-H ) :   0.9372 B( 22-C , 25-C ) :   1.0598
B( 25-C , 26-H ) :   0.9597 B( 25-C , 27-H ) :   0.9610 B( 25-C , 28-C ) :   1.0626
B( 28-C , 29-H ) :   0.9739 B( 28-C , 30-H ) :   0.9751 B( 28-C , 31-H ) :   0.9762

Dispersion correction           -0.015056679
FINAL SINGLE POINT ENERGY     -1339.846332746097

DIPOLE MOMENT
-------------
                                X             Y             Z
Electronic contribution:    -19.54337     -16.75369     -14.17033
Nuclear contribution   :     19.84729      17.33727      14.41840
                        -----------------------------------------
Total Dipole Moment    :      0.30392       0.58357       0.24807
                        -----------------------------------------
Magnitude (a.u.)       :      0.70318
Magnitude (Debye)      :      1.78735

Rotational constants in cm-1:     0.018434     0.009790     0.007005
Rotational constants in MHz :   552.646531   293.490218   210.017701

                             ****ORCA TERMINATED NORMALLY****
TOTAL RUN TIME: 0 days 0 hours 0 minutes 22 seconds 361 msec
