                         Program Version 4.2.1 -  RELEASE  -
|  1> ! wB97X-D3 SP def2-SVP
|  2> %pal
|  3> nprocs 24
|  4> end
|  5>
|  6> * xyz 0 1
|  7> S 	 -57.6563 	 13.1487 	 -95.3844
|  8> C 	 -57.5532 	 13.32 	 -97.1311
|  9> C 	 -57.9394 	 14.4936 	 -97.6802
| 10> C 	 -58.3511 	 15.3829 	 -96.6454
| 11> C 	 -58.2862 	 14.8252 	 -95.3768
| 12> H 	 -58.712 	 16.3777 	 -96.8253
| 13> C 	 -58.1302 	 14.7088 	 -99.2127
| 14> H 	 -58.9 	 15.4224 	 -99.423
| 15> H 	 -58.6054 	 13.8307 	 -99.5996
| 16> C 	 -56.8239 	 15.2068 	 -99.8411
| 17> H 	 -56.5054 	 16.1593 	 -99.423
| 18> H 	 -56.0307 	 14.5555 	 -99.5896
| 19> C 	 -56.9523 	 15.3424 	 -101.341
| 20> H 	 -57.7704 	 15.9597 	 -101.64
| 21> H 	 -56.1364 	 15.8903 	 -101.786
| 22> H 	 -57.1219 	 14.3662 	 -101.821
| 23> S 	 -60.3131 	 14.8832 	 -93.6356
| 24> C 	 -60.5132 	 16.2012 	 -92.5517
| 25> C 	 -59.4913 	 17.1564 	 -92.6608
| 26> C 	 -58.5875 	 16.8843 	 -93.7189
| 27> C 	 -58.7868 	 15.5894 	 -94.2066
| 28> H 	 -59.608 	 18.0662 	 -92.1145
| 29> C 	 -57.3418 	 17.7391 	 -93.958
| 30> H 	 -56.6551 	 17.0688 	 -94.5239
| 31> H 	 -56.8291 	 18.1366 	 -93.1236
| 32> C 	 -57.6005 	 18.8864 	 -94.9323
| 33> H 	 -58.2982 	 18.5861 	 -95.7498
| 34> H 	 -56.5926 	 18.9875 	 -95.4213
| 35> C 	 -58.0938 	 20.193 	 -94.2473
| 36> H 	 -57.3966 	 20.5605 	 -93.5789
| 37> H 	 -58.9542 	 20.0296 	 -93.6716
| 38> H 	 -58.2067 	 20.9705 	 -95.0245
| 39> H 	 -57.1494 	 12.513 	 -97.6957
| 40> H 	 -61.1404 	 16.234 	 -91.7454
| 41> *
| 42>
| 43>                          ****END OF INPUT****

CARTESIAN COORDINATES (ANGSTROEM)
---------------------------------
  S    -57.656300   13.148700  -95.384400
  C    -57.553200   13.320000  -97.131100
  C    -57.939400   14.493600  -97.680200
  C    -58.351100   15.382900  -96.645400
  C    -58.286200   14.825200  -95.376800
  H    -58.712000   16.377700  -96.825300
  C    -58.130200   14.708800  -99.212700
  H    -58.900000   15.422400  -99.423000
  H    -58.605400   13.830700  -99.599600
  C    -56.823900   15.206800  -99.841100
  H    -56.505400   16.159300  -99.423000
  H    -56.030700   14.555500  -99.589600
  C    -56.952300   15.342400  -101.341000
  H    -57.770400   15.959700  -101.640000
  H    -56.136400   15.890300  -101.786000
  H    -57.121900   14.366200  -101.821000
  S    -60.313100   14.883200  -93.635600
  C    -60.513200   16.201200  -92.551700
  C    -59.491300   17.156400  -92.660800
  C    -58.587500   16.884300  -93.718900
  C    -58.786800   15.589400  -94.206600
  H    -59.608000   18.066200  -92.114500
  C    -57.341800   17.739100  -93.958000
  H    -56.655100   17.068800  -94.523900
  H    -56.829100   18.136600  -93.123600
  C    -57.600500   18.886400  -94.932300
  H    -58.298200   18.586100  -95.749800
  H    -56.592600   18.987500  -95.421300
  C    -58.093800   20.193000  -94.247300
  H    -57.396600   20.560500  -93.578900
  H    -58.954200   20.029600  -93.671600
  H    -58.206700   20.970500  -95.024500
  H    -57.149400   12.513000  -97.695700
  H    -61.140400   16.234000  -91.745400

 Total Charge           Charge          ....    0
 Multiplicity           Mult            ....    1
 Number of Electrons    NEL             ....  134
 Basis Dimension        Dim             ....  322

ORBITAL ENERGIES
----------------

  NO   OCC          E(Eh)            E(eV)
   0   2.0000     -88.971012     -2421.0243
   1   2.0000     -88.962405     -2420.7901
   2   2.0000     -10.330671      -281.1118
   3   2.0000     -10.326599      -281.0011
   4   2.0000     -10.309111      -280.5252
   5   2.0000     -10.306291      -280.4484
   6   2.0000     -10.303921      -280.3839
   7   2.0000     -10.298107      -280.2258
   8   2.0000     -10.293487      -280.1000
   9   2.0000     -10.293162      -280.0912
  10   2.0000     -10.289807      -279.9999
  11   2.0000     -10.288922      -279.9758
  12   2.0000     -10.287817      -279.9457
  13   2.0000     -10.283236      -279.8211
  14   2.0000     -10.273960      -279.5687
  15   2.0000     -10.271003      -279.4882
  16   2.0000      -8.084912      -220.0017
  17   2.0000      -8.077492      -219.7997
  18   2.0000      -6.043362      -164.4483
  19   2.0000      -6.039835      -164.3523
  20   2.0000      -6.035796      -164.2423
  21   2.0000      -6.035494      -164.2341
  22   2.0000      -6.031940      -164.1374
  23   2.0000      -6.028451      -164.0425
  24   2.0000      -1.002089       -27.2682
  25   2.0000      -0.981462       -26.7069
  26   2.0000      -0.912805       -24.8387
  27   2.0000      -0.908427       -24.7196
  28   2.0000      -0.865726       -23.5576
  29   2.0000      -0.852158       -23.1884
  30   2.0000      -0.846977       -23.0474
  31   2.0000      -0.810617       -22.0580
  32   2.0000      -0.787748       -21.4357
  33   2.0000      -0.774971       -21.0880
  34   2.0000      -0.709390       -19.3035
  35   2.0000      -0.702656       -19.1202
  36   2.0000      -0.688426       -18.7330
  37   2.0000      -0.663700       -18.0602
  38   2.0000      -0.642879       -17.4936
  39   2.0000      -0.618455       -16.8290
  40   2.0000      -0.599338       -16.3088
  41   2.0000      -0.570932       -15.5358
  42   2.0000      -0.559045       -15.2124
  43   2.0000      -0.546119       -14.8607
  44   2.0000      -0.539175       -14.6717
  45   2.0000      -0.531604       -14.4657
  46   2.0000      -0.520390       -14.1605
  47   2.0000      -0.506527       -13.7833
  48   2.0000      -0.501067       -13.6347
  49   2.0000      -0.498596       -13.5675
  50   2.0000      -0.490107       -13.3365
  51   2.0000      -0.475777       -12.9466
  52   2.0000      -0.474924       -12.9233
  53   2.0000      -0.463335       -12.6080
  54   2.0000      -0.461258       -12.5515
  55   2.0000      -0.452942       -12.3252
  56   2.0000      -0.446711       -12.1556
  57   2.0000      -0.440663       -11.9911
  58   2.0000      -0.436475       -11.8771
  59   2.0000      -0.429766       -11.6945
  60   2.0000      -0.420180       -11.4337
  61   2.0000      -0.414605       -11.2820
  62   2.0000      -0.408024       -11.1029
  63   2.0000      -0.340464        -9.2645
  64   2.0000      -0.331088        -9.0094
  65   2.0000      -0.329380        -8.9629
  66   2.0000      -0.294372        -8.0103
  67   0.0000       0.033777         0.9191
  68   0.0000       0.064041         1.7426
  69   0.0000       0.109861         2.9895
  70   0.0000       0.119742         3.2583
  71   0.0000       0.123747         3.3673

MULLIKEN ATOMIC CHARGES
-----------------------
   0 S :    0.119163
   1 C :   -0.123324
   2 C :   -0.060741
   3 C :    0.038904
   4 C :   -0.156260
   5 H :    0.000770
   6 C :    0.075742
   7 H :    0.008872
   8 H :    0.025595
   9 C :   -0.047090
  10 H :    0.022852
  11 H :    0.018139
  12 C :   -0.018617
  13 H :    0.011377
  14 H :    0.027356
  15 H :    0.032784
  16 S :    0.105029
  17 C :   -0.046764
  18 C :   -0.050456
  19 C :   -0.011231
  20 C :   -0.172776
  21 H :    0.015131
  22 C :    0.057602
  23 H :    0.031462
  24 H :    0.023407
  25 C :   -0.117665
  26 H :    0.035742
  27 H :    0.031801
  28 C :    0.004505
  29 H :    0.006792
  30 H :    0.019107
  31 H :    0.038792
  32 H :    0.032668
  33 H :    0.021331
Sum of atomic charges:   -0.0000000

LOEWDIN ATOMIC CHARGES
----------------------
   0 S :    0.384925
   1 C :   -0.179793
   2 C :   -0.062643
   3 C :   -0.048606
   4 C :   -0.197878
   5 H :    0.027389
   6 C :   -0.020503
   7 H :    0.026520
   8 H :    0.029816
   9 C :   -0.035040
  10 H :    0.026844
  11 H :    0.018419
  12 C :   -0.066031
  13 H :    0.019836
  14 H :    0.025651
  15 H :    0.027831
  16 S :    0.414645
  17 C :   -0.183557
  18 C :   -0.070426
  19 C :   -0.054915
  20 C :   -0.185034
  21 H :    0.026036
  22 C :   -0.027229
  23 H :    0.037129
  24 H :    0.025225
  25 C :   -0.042013
  26 H :    0.023094
  27 H :    0.028127
  28 C :   -0.058148
  29 H :    0.014210
  30 H :    0.018109
  31 H :    0.032624
  32 H :    0.016796
  33 H :    0.008590

  Mayer bond orders larger than 0.100000
B(  0-S ,  1-C ) :   1.1330 B(  0-S ,  4-C ) :   1.1295 B(  1-C ,  2-C ) :   1.6502
B(  1-C , 32-H ) :   0.9625 B(  2-C ,  3-C ) :   1.2351 B(  2-C ,  6-C ) :   0.9984
B(  3-C ,  4-C ) :   1.5886 B(  3-C ,  5-H ) :   0.9956 B(  4-C , 20-C ) :   1.0045
B(  6-C ,  7-H ) :   0.9430 B(  6-C ,  8-H ) :   0.9524 B(  6-C ,  9-C ) :   1.0487
B(  9-C , 10-H ) :   0.9527 B(  9-C , 11-H ) :   0.9602 B(  9-C , 12-C ) :   1.0905
B( 12-C , 13-H ) :   0.9693 B( 12-C , 14-H ) :   0.9715 B( 12-C , 15-H ) :   0.9739
B( 16-S , 17-C ) :   1.1702 B( 16-S , 20-C ) :   1.1575 B( 17-C , 18-C ) :   1.6114
B( 17-C , 20-C ) :   0.1050 B( 17-C , 33-H ) :   0.9699 B( 18-C , 19-C ) :   1.2343
B( 18-C , 21-H ) :   0.9872 B( 19-C , 20-C ) :   1.5989 B( 19-C , 22-C ) :   1.0382
B( 22-C , 23-H ) :   0.9408 B( 22-C , 24-H ) :   0.9521 B( 22-C , 25-C ) :   1.0548
B( 25-C , 26-H ) :   0.9555 B( 25-C , 27-H ) :   0.9587 B( 25-C , 28-C ) :   1.0738
B( 28-C , 29-H ) :   0.9726 B( 28-C , 30-H ) :   0.9742 B( 28-C , 31-H ) :   0.9730

Dispersion correction           -0.014194865
FINAL SINGLE POINT ENERGY     -1339.860965541694

DIPOLE MOMENT
-------------
                                X             Y             Z
Electronic contribution:     -9.09037     -20.30550      19.32579
Nuclear contribution   :      9.22744      20.78552     -19.75211
                        -----------------------------------------
Total Dipole Moment    :      0.13708       0.48001      -0.42632
                        -----------------------------------------
Magnitude (a.u.)       :      0.65647
Magnitude (Debye)      :      1.66861

Rotational constants in cm-1:     0.017983     0.008352     0.006339
Rotational constants in MHz :   539.103770   250.379407   190.047993

                             ****ORCA TERMINATED NORMALLY****
TOTAL RUN TIME: 0 days 0 hours 0 minutes 21 seconds 406 msec
