                         Program Version 4.2.1 -  RELEASE  -
|  1> ! wB97X-D3 SP def2-SVP
|  2> %pal
|  3> nprocs 24
|  4> end
|  5>
|  6> * xyz 0 1
|  7> S 	 -15.9325 	 -25.748 	 -97.2315
|  8> C 	 -14.815 	 -27.0969 	 -97.1788
|  9> C 	 -15.4414 	 -28.3204 	 -96.9201
| 10> C 	 -16.8842 	 -28.142 	 -96.8705
| 11> C 	 -17.2732 	 -26.8003 	 -97.1092
| 12> H 	 -17.6557 	 -28.8772 	 -96.586
| 13> C 	 -14.8338 	 -29.6662 	 -96.6953
| 14> H 	 -15.3932 	 -30.1879 	 -95.9904
| 15> H 	 -14.0137 	 -29.3448 	 -96.008
| 16> C 	 -14.3726 	 -30.5365 	 -97.8903
| 17> H 	 -14.0473 	 -31.5142 	 -97.5643
| 18> H 	 -15.3103 	 -30.7556 	 -98.444
| 19> C 	 -13.5019 	 -29.7372 	 -98.8074
| 20> H 	 -14.0498 	 -28.8744 	 -99.2486
| 21> H 	 -12.6987 	 -29.4067 	 -98.1972
| 22> H 	 -13.2414 	 -30.3494 	 -99.686
| 23> S 	 -19.2582 	 -26.0208 	 -95.4108
| 24> C 	 -20.9331 	 -25.8504 	 -95.9057
| 25> C 	 -20.9973 	 -26.0745 	 -97.2826
| 26> C 	 -19.7622 	 -26.4132 	 -97.9309
| 27> C 	 -18.7041 	 -26.3983 	 -97.0135
| 28> H 	 -22.0011 	 -26.0933 	 -97.8457
| 29> C 	 -19.6789 	 -26.6641 	 -99.4266
| 30> H 	 -20.6807 	 -27.1403 	 -99.7394
| 31> H 	 -18.8961 	 -27.3426 	 -99.5874
| 32> C 	 -19.3197 	 -25.3955 	 -100.28
| 33> H 	 -19.9253 	 -24.4955 	 -100.103
| 34> H 	 -19.4285 	 -25.6154 	 -101.31
| 35> C 	 -17.8712 	 -25.0185 	 -100.207
| 36> H 	 -17.5654 	 -24.7289 	 -99.1671
| 37> H 	 -17.4887 	 -24.0702 	 -100.698
| 38> H 	 -17.1229 	 -25.7623 	 -100.61
| 39> H 	 -13.7617 	 -26.9392 	 -97.2755
| 40> H 	 -21.8394 	 -25.5852 	 -95.3638
| 41> *
| 42>
| 43>                          ****END OF INPUT****

CARTESIAN COORDINATES (ANGSTROEM)
---------------------------------
  S    -15.932500  -25.748000  -97.231500
  C    -14.815000  -27.096900  -97.178800
  C    -15.441400  -28.320400  -96.920100
  C    -16.884200  -28.142000  -96.870500
  C    -17.273200  -26.800300  -97.109200
  H    -17.655700  -28.877200  -96.586000
  C    -14.833800  -29.666200  -96.695300
  H    -15.393200  -30.187900  -95.990400
  H    -14.013700  -29.344800  -96.008000
  C    -14.372600  -30.536500  -97.890300
  H    -14.047300  -31.514200  -97.564300
  H    -15.310300  -30.755600  -98.444000
  C    -13.501900  -29.737200  -98.807400
  H    -14.049800  -28.874400  -99.248600
  H    -12.698700  -29.406700  -98.197200
  H    -13.241400  -30.349400  -99.686000
  S    -19.258200  -26.020800  -95.410800
  C    -20.933100  -25.850400  -95.905700
  C    -20.997300  -26.074500  -97.282600
  C    -19.762200  -26.413200  -97.930900
  C    -18.704100  -26.398300  -97.013500
  H    -22.001100  -26.093300  -97.845700
  C    -19.678900  -26.664100  -99.426600
  H    -20.680700  -27.140300  -99.739400
  H    -18.896100  -27.342600  -99.587400
  C    -19.319700  -25.395500  -100.280000
  H    -19.925300  -24.495500  -100.103000
  H    -19.428500  -25.615400  -101.310000
  C    -17.871200  -25.018500  -100.207000
  H    -17.565400  -24.728900  -99.167100
  H    -17.488700  -24.070200  -100.698000
  H    -17.122900  -25.762300  -100.610000
  H    -13.761700  -26.939200  -97.275500
  H    -21.839400  -25.585200  -95.363800

 Total Charge           Charge          ....    0
 Multiplicity           Mult            ....    1
 Number of Electrons    NEL             ....  134
 Basis Dimension        Dim             ....  322

ORBITAL ENERGIES
----------------

  NO   OCC          E(Eh)            E(eV)
   0   2.0000     -88.971470     -2421.0368
   1   2.0000     -88.965226     -2420.8669
   2   2.0000     -10.328685      -281.0578
   3   2.0000     -10.327298      -281.0201
   4   2.0000     -10.318240      -280.7736
   5   2.0000     -10.316130      -280.7162
   6   2.0000     -10.306074      -280.4425
   7   2.0000     -10.303335      -280.3680
   8   2.0000     -10.298432      -280.2346
   9   2.0000     -10.298082      -280.2251
  10   2.0000     -10.296819      -280.1907
  11   2.0000     -10.288299      -279.9588
  12   2.0000     -10.287541      -279.9382
  13   2.0000     -10.283781      -279.8359
  14   2.0000     -10.277395      -279.6621
  15   2.0000     -10.275397      -279.6078
  16   2.0000      -8.086079      -220.0334
  17   2.0000      -8.079730      -219.8606
  18   2.0000      -6.044493      -164.4790
  19   2.0000      -6.040505      -164.3705
  20   2.0000      -6.038337      -164.3115
  21   2.0000      -6.037059      -164.2767
  22   2.0000      -6.034058      -164.1951
  23   2.0000      -6.030599      -164.1009
  24   2.0000      -1.003583       -27.3089
  25   2.0000      -0.981658       -26.7123
  26   2.0000      -0.917033       -24.9537
  27   2.0000      -0.904832       -24.6217
  28   2.0000      -0.863851       -23.5066
  29   2.0000      -0.851341       -23.1662
  30   2.0000      -0.845172       -22.9983
  31   2.0000      -0.805820       -21.9275
  32   2.0000      -0.784797       -21.3554
  33   2.0000      -0.768965       -20.9246
  34   2.0000      -0.705291       -19.1919
  35   2.0000      -0.699202       -19.0263
  36   2.0000      -0.690570       -18.7914
  37   2.0000      -0.652505       -17.7556
  38   2.0000      -0.643769       -17.5178
  39   2.0000      -0.608463       -16.5571
  40   2.0000      -0.591407       -16.0930
  41   2.0000      -0.569903       -15.5079
  42   2.0000      -0.556314       -15.1381
  43   2.0000      -0.547461       -14.8972
  44   2.0000      -0.543225       -14.7819
  45   2.0000      -0.536984       -14.6121
  46   2.0000      -0.520008       -14.1501
  47   2.0000      -0.510577       -13.8935
  48   2.0000      -0.495554       -13.4847
  49   2.0000      -0.490631       -13.3507
  50   2.0000      -0.489692       -13.3252
  51   2.0000      -0.478712       -13.0264
  52   2.0000      -0.462924       -12.5968
  53   2.0000      -0.461574       -12.5601
  54   2.0000      -0.454298       -12.3621
  55   2.0000      -0.451102       -12.2751
  56   2.0000      -0.440443       -11.9851
  57   2.0000      -0.436458       -11.8766
  58   2.0000      -0.434245       -11.8164
  59   2.0000      -0.427201       -11.6247
  60   2.0000      -0.419324       -11.4104
  61   2.0000      -0.407250       -11.0818
  62   2.0000      -0.402769       -10.9599
  63   2.0000      -0.334718        -9.1081
  64   2.0000      -0.324831        -8.8391
  65   2.0000      -0.315818        -8.5938
  66   2.0000      -0.312472        -8.5028
  67   0.0000       0.045451         1.2368
  68   0.0000       0.052018         1.4155
  69   0.0000       0.109599         2.9823
  70   0.0000       0.122394         3.3305
  71   0.0000       0.128843         3.5060

MULLIKEN ATOMIC CHARGES
-----------------------
   0 S :    0.133293
   1 C :   -0.127548
   2 C :   -0.101823
   3 C :    0.028099
   4 C :   -0.173233
   5 H :    0.032015
   6 C :    0.063890
   7 H :    0.000840
   8 H :    0.023843
   9 C :   -0.031413
  10 H :    0.032144
  11 H :    0.021789
  12 C :   -0.045116
  13 H :    0.051356
  14 H :    0.024310
  15 H :    0.037310
  16 S :    0.120813
  17 C :   -0.093350
  18 C :   -0.078487
  19 C :   -0.030070
  20 C :   -0.197031
  21 H :    0.041864
  22 C :    0.087327
  23 H :    0.039358
  24 H :    0.014194
  25 C :   -0.004922
  26 H :    0.034047
  27 H :    0.021192
  28 C :   -0.120433
  29 H :    0.023424
  30 H :    0.031083
  31 H :    0.038688
  32 H :    0.041624
  33 H :    0.060924
Sum of atomic charges:    0.0000000

LOEWDIN ATOMIC CHARGES
----------------------
   0 S :    0.446199
   1 C :   -0.196659
   2 C :   -0.059647
   3 C :   -0.057687
   4 C :   -0.224308
   5 H :    0.037806
   6 C :   -0.039974
   7 H :    0.022128
   8 H :    0.037102
   9 C :   -0.036446
  10 H :    0.024110
  11 H :    0.026964
  12 C :   -0.064746
  13 H :    0.034814
  14 H :    0.017880
  15 H :    0.029985
  16 S :    0.419411
  17 C :   -0.201123
  18 C :   -0.082952
  19 C :   -0.061472
  20 C :   -0.208503
  21 H :    0.040569
  22 C :   -0.023117
  23 H :    0.040920
  24 H :    0.024673
  25 C :   -0.039206
  26 H :    0.029561
  27 H :    0.021792
  28 C :   -0.089035
  29 H :    0.012756
  30 H :    0.032131
  31 H :    0.027746
  32 H :    0.020907
  33 H :    0.037424

  Mayer bond orders larger than 0.100000
B(  0-S ,  1-C ) :   1.1567 B(  0-S ,  4-C ) :   1.1782 B(  1-C ,  2-C ) :   1.5802
B(  1-C , 32-H ) :   0.9746 B(  2-C ,  3-C ) :   1.2488 B(  2-C ,  6-C ) :   1.0088
B(  3-C ,  4-C ) :   1.5621 B(  3-C ,  5-H ) :   0.9888 B(  4-C , 20-C ) :   0.9923
B(  6-C ,  7-H ) :   0.9367 B(  6-C ,  8-H ) :   0.9366 B(  6-C ,  9-C ) :   1.0576
B(  9-C , 10-H ) :   0.9563 B(  9-C , 11-H ) :   0.9506 B(  9-C , 12-C ) :   1.0819
B( 12-C , 13-H ) :   0.9655 B( 12-C , 14-H ) :   0.9791 B( 12-C , 15-H ) :   0.9695
B( 16-S , 17-C ) :   1.1490 B( 16-S , 20-C ) :   1.1673 B( 17-C , 18-C ) :   1.6059
B( 17-C , 20-C ) :   0.1027 B( 17-C , 33-H ) :   0.9667 B( 18-C , 19-C ) :   1.2674
B( 18-C , 21-H ) :   0.9690 B( 19-C , 20-C ) :   1.5820 B( 19-C , 22-C ) :   1.0462
B( 22-C , 23-H ) :   0.9370 B( 22-C , 24-H ) :   0.9274 B( 22-C , 25-C ) :   1.0598
B( 25-C , 26-H ) :   0.9561 B( 25-C , 27-H ) :   0.9527 B( 25-C , 28-C ) :   1.0761
B( 28-C , 29-H ) :   0.9677 B( 28-C , 30-H ) :   0.9687 B( 28-C , 31-H ) :   0.9736

Dispersion correction           -0.015486703
FINAL SINGLE POINT ENERGY     -1339.866620742608

DIPOLE MOMENT
-------------
                                X             Y             Z
Electronic contribution:     -8.50996      10.77174      17.26830
Nuclear contribution   :      8.52286     -11.19820     -17.53851
                        -----------------------------------------
Total Dipole Moment    :      0.01289      -0.42646      -0.27021
                        -----------------------------------------
Magnitude (a.u.)       :      0.50502
Magnitude (Debye)      :      1.28366

Rotational constants in cm-1:     0.021236     0.008471     0.007465
Rotational constants in MHz :   636.635529   253.943099   223.786913

                             ****ORCA TERMINATED NORMALLY****
TOTAL RUN TIME: 0 days 0 hours 0 minutes 22 seconds 239 msec
