                         Program Version 4.2.1 -  RELEASE  -
|  1> ! wB97X-D3 SP def2-SVP
|  2> %pal
|  3> nprocs 24
|  4> end
|  5>
|  6> * xyz 0 1
|  7> S 	 -32.4291 	 -48.9272 	 -76.9198
|  8> C 	 -30.7945 	 -49.602 	 -76.9499
|  9> C 	 -29.9768 	 -48.9772 	 -76.0216
| 10> C 	 -30.6137 	 -47.9216 	 -75.3931
| 11> C 	 -31.8833 	 -47.6172 	 -75.8644
| 12> H 	 -30.0663 	 -47.2974 	 -74.6327
| 13> C 	 -28.4688 	 -49.2586 	 -75.8625
| 14> H 	 -28.4647 	 -50.302 	 -75.6132
| 15> H 	 -27.9698 	 -48.7886 	 -74.9925
| 16> C 	 -27.6033 	 -48.9396 	 -77.093
| 17> H 	 -26.5735 	 -49.2616 	 -76.8455
| 18> H 	 -28.0051 	 -49.5139 	 -77.8543
| 19> C 	 -27.534 	 -47.5173 	 -77.4908
| 20> H 	 -28.4722 	 -47.1622 	 -77.8569
| 21> H 	 -27.1139 	 -46.9894 	 -76.6282
| 22> H 	 -26.7976 	 -47.4287 	 -78.3125
| 23> S 	 -34.4891 	 -46.9442 	 -75.3043
| 24> C 	 -34.8547 	 -45.2954 	 -74.8817
| 25> C 	 -33.7003 	 -44.5111 	 -74.8939
| 26> C 	 -32.5343 	 -45.2262 	 -75.3013
| 27> C 	 -32.7909 	 -46.5128 	 -75.5451
| 28> H 	 -33.7032 	 -43.4633 	 -74.5725
| 29> C 	 -31.2443 	 -44.4895 	 -75.2919
| 30> H 	 -30.6867 	 -44.9336 	 -74.4672
| 31> H 	 -31.4721 	 -43.4431 	 -75.0391
| 32> C 	 -30.3835 	 -44.4532 	 -76.5979
| 33> H 	 -30.7062 	 -43.5774 	 -77.1371
| 34> H 	 -30.6712 	 -45.332 	 -77.1449
| 35> C 	 -28.9771 	 -44.3108 	 -76.2563
| 36> H 	 -28.3328 	 -44.2564 	 -77.1737
| 37> H 	 -28.7389 	 -45.2279 	 -75.6933
| 38> H 	 -28.7187 	 -43.5095 	 -75.614
| 39> H 	 -30.3624 	 -50.3696 	 -77.5912
| 40> H 	 -35.8552 	 -44.864 	 -74.7741
| 41> *
| 42>
| 43>                          ****END OF INPUT****

CARTESIAN COORDINATES (ANGSTROEM)
---------------------------------
  S    -32.429100  -48.927200  -76.919800
  C    -30.794500  -49.602000  -76.949900
  C    -29.976800  -48.977200  -76.021600
  C    -30.613700  -47.921600  -75.393100
  C    -31.883300  -47.617200  -75.864400
  H    -30.066300  -47.297400  -74.632700
  C    -28.468800  -49.258600  -75.862500
  H    -28.464700  -50.302000  -75.613200
  H    -27.969800  -48.788600  -74.992500
  C    -27.603300  -48.939600  -77.093000
  H    -26.573500  -49.261600  -76.845500
  H    -28.005100  -49.513900  -77.854300
  C    -27.534000  -47.517300  -77.490800
  H    -28.472200  -47.162200  -77.856900
  H    -27.113900  -46.989400  -76.628200
  H    -26.797600  -47.428700  -78.312500
  S    -34.489100  -46.944200  -75.304300
  C    -34.854700  -45.295400  -74.881700
  C    -33.700300  -44.511100  -74.893900
  C    -32.534300  -45.226200  -75.301300
  C    -32.790900  -46.512800  -75.545100
  H    -33.703200  -43.463300  -74.572500
  C    -31.244300  -44.489500  -75.291900
  H    -30.686700  -44.933600  -74.467200
  H    -31.472100  -43.443100  -75.039100
  C    -30.383500  -44.453200  -76.597900
  H    -30.706200  -43.577400  -77.137100
  H    -30.671200  -45.332000  -77.144900
  C    -28.977100  -44.310800  -76.256300
  H    -28.332800  -44.256400  -77.173700
  H    -28.738900  -45.227900  -75.693300
  H    -28.718700  -43.509500  -75.614000
  H    -30.362400  -50.369600  -77.591200
  H    -35.855200  -44.864000  -74.774100

 Total Charge           Charge          ....    0
 Multiplicity           Mult            ....    1
 Number of Electrons    NEL             ....  134
 Basis Dimension        Dim             ....  322

ORBITAL ENERGIES
----------------

  NO   OCC          E(Eh)            E(eV)
   0   2.0000     -88.970368     -2421.0068
   1   2.0000     -88.966077     -2420.8900
   2   2.0000     -10.333354      -281.1849
   3   2.0000     -10.323269      -280.9104
   4   2.0000     -10.318943      -280.7927
   5   2.0000     -10.315306      -280.6937
   6   2.0000     -10.297818      -280.2179
   7   2.0000     -10.295378      -280.1515
   8   2.0000     -10.294742      -280.1342
   9   2.0000     -10.293935      -280.1122
  10   2.0000     -10.292267      -280.0668
  11   2.0000     -10.288781      -279.9720
  12   2.0000     -10.279327      -279.7147
  13   2.0000     -10.276726      -279.6439
  14   2.0000     -10.273156      -279.5468
  15   2.0000     -10.272906      -279.5400
  16   2.0000      -8.084181      -219.9818
  17   2.0000      -8.080824      -219.8904
  18   2.0000      -6.042719      -164.4307
  19   2.0000      -6.039403      -164.3405
  20   2.0000      -6.038909      -164.3271
  21   2.0000      -6.035433      -164.2325
  22   2.0000      -6.034871      -164.2172
  23   2.0000      -6.031414      -164.1231
  24   2.0000      -1.009684       -27.4749
  25   2.0000      -0.986583       -26.8463
  26   2.0000      -0.917965       -24.9791
  27   2.0000      -0.916009       -24.9259
  28   2.0000      -0.869298       -23.6548
  29   2.0000      -0.863030       -23.4842
  30   2.0000      -0.846988       -23.0477
  31   2.0000      -0.813160       -22.1272
  32   2.0000      -0.782903       -21.3039
  33   2.0000      -0.774747       -21.0819
  34   2.0000      -0.709226       -19.2990
  35   2.0000      -0.697675       -18.9847
  36   2.0000      -0.691390       -18.8137
  37   2.0000      -0.668749       -18.1976
  38   2.0000      -0.631538       -17.1850
  39   2.0000      -0.616325       -16.7711
  40   2.0000      -0.595248       -16.1975
  41   2.0000      -0.584496       -15.9049
  42   2.0000      -0.573484       -15.6053
  43   2.0000      -0.552768       -15.0416
  44   2.0000      -0.545795       -14.8518
  45   2.0000      -0.525775       -14.3071
  46   2.0000      -0.518480       -14.1085
  47   2.0000      -0.511115       -13.9082
  48   2.0000      -0.503595       -13.7035
  49   2.0000      -0.497429       -13.5357
  50   2.0000      -0.494332       -13.4515
  51   2.0000      -0.481989       -13.1156
  52   2.0000      -0.473272       -12.8784
  53   2.0000      -0.467547       -12.7226
  54   2.0000      -0.463005       -12.5990
  55   2.0000      -0.453191       -12.3320
  56   2.0000      -0.443471       -12.0675
  57   2.0000      -0.440845       -11.9960
  58   2.0000      -0.432199       -11.7607
  59   2.0000      -0.421817       -11.4782
  60   2.0000      -0.421068       -11.4579
  61   2.0000      -0.412152       -11.2152
  62   2.0000      -0.406851       -11.0710
  63   2.0000      -0.349740        -9.5169
  64   2.0000      -0.336554        -9.1581
  65   2.0000      -0.331630        -9.0241
  66   2.0000      -0.286648        -7.8001
  67   0.0000       0.022239         0.6052
  68   0.0000       0.069962         1.9038
  69   0.0000       0.095493         2.5985
  70   0.0000       0.121400         3.3035
  71   0.0000       0.132441         3.6039

MULLIKEN ATOMIC CHARGES
-----------------------
   0 S :    0.110110
   1 C :   -0.123070
   2 C :   -0.100730
   3 C :    0.011072
   4 C :   -0.156371
   5 H :    0.023512
   6 C :    0.052434
   7 H :    0.028942
   8 H :    0.018314
   9 C :   -0.047371
  10 H :    0.028612
  11 H :    0.002056
  12 C :   -0.032615
  13 H :    0.041946
  14 H :    0.029365
  15 H :    0.032031
  16 S :    0.102134
  17 C :   -0.090053
  18 C :   -0.058075
  19 C :   -0.044416
  20 C :   -0.126403
  21 H :    0.025693
  22 C :    0.030085
  23 H :    0.034757
  24 H :    0.015672
  25 C :   -0.027008
  26 H :    0.022606
  27 H :    0.042734
  28 C :   -0.035592
  29 H :    0.041988
  30 H :    0.011629
  31 H :    0.023388
  32 H :    0.047594
  33 H :    0.065028
Sum of atomic charges:   -0.0000000

LOEWDIN ATOMIC CHARGES
----------------------
   0 S :    0.395822
   1 C :   -0.198352
   2 C :   -0.067704
   3 C :   -0.073881
   4 C :   -0.181858
   5 H :    0.036579
   6 C :   -0.030690
   7 H :    0.030623
   8 H :    0.028329
   9 C :   -0.035558
  10 H :    0.028296
  11 H :    0.009221
  12 C :   -0.058426
  13 H :    0.023241
  14 H :    0.025943
  15 H :    0.031365
  16 S :    0.396167
  17 C :   -0.189191
  18 C :   -0.070340
  19 C :   -0.064006
  20 C :   -0.192292
  21 H :    0.033388
  22 C :   -0.027750
  23 H :    0.030003
  24 H :    0.030613
  25 C :   -0.035225
  26 H :    0.022877
  27 H :    0.024726
  28 C :   -0.062228
  29 H :    0.032054
  30 H :    0.022868
  31 H :    0.019942
  32 H :    0.030817
  33 H :    0.034626

  Mayer bond orders larger than 0.100000
B(  0-S ,  1-C ) :   1.1349 B(  0-S ,  4-C ) :   1.1500 B(  1-C ,  2-C ) :   1.6008
B(  1-C ,  4-C ) :   0.1148 B(  1-C , 32-H ) :   0.9649 B(  2-C ,  3-C ) :   1.2835
B(  2-C ,  6-C ) :   1.0013 B(  3-C ,  4-C ) :   1.5418 B(  3-C ,  5-H ) :   0.9842
B(  4-C , 20-C ) :   1.0386 B(  6-C ,  7-H ) :   0.9337 B(  6-C ,  8-H ) :   0.9483
B(  6-C ,  9-C ) :   1.0810 B(  9-C , 10-H ) :   0.9519 B(  9-C , 11-H ) :   0.9513
B(  9-C , 12-C ) :   1.0923 B( 12-C , 13-H ) :   0.9722 B( 12-C , 14-H ) :   0.9688
B( 12-C , 15-H ) :   0.9676 B( 16-S , 17-C ) :   1.1510 B( 16-S , 20-C ) :   1.1167
B( 17-C , 18-C ) :   1.6161 B( 17-C , 33-H ) :   0.9642 B( 18-C , 19-C ) :   1.2394
B( 18-C , 21-H ) :   0.9827 B( 19-C , 20-C ) :   1.6430 B( 19-C , 22-C ) :   1.0375
B( 22-C , 23-H ) :   0.9397 B( 22-C , 24-H ) :   0.9254 B( 22-C , 25-C ) :   1.0449
B( 25-C , 26-H ) :   0.9474 B( 25-C , 27-H ) :   0.9652 B( 25-C , 28-C ) :   1.0891
B( 28-C , 29-H ) :   0.9668 B( 28-C , 30-H ) :   0.9713 B( 28-C , 31-H ) :   0.9682

Dispersion correction           -0.016438034
FINAL SINGLE POINT ENERGY     -1339.874908784380

DIPOLE MOMENT
-------------
                                X             Y             Z
Electronic contribution:    -29.96836      -9.93435       3.44499
Nuclear contribution   :     30.62049      10.31557      -3.39199
                        -----------------------------------------
Total Dipole Moment    :      0.65213       0.38122       0.05300
                        -----------------------------------------
Magnitude (a.u.)       :      0.75724
Magnitude (Debye)      :      1.92475

Rotational constants in cm-1:     0.020490     0.010327     0.007369
Rotational constants in MHz :   614.269508   309.587277   220.927490

                             ****ORCA TERMINATED NORMALLY****
TOTAL RUN TIME: 0 days 0 hours 0 minutes 22 seconds 570 msec
