                         Program Version 4.2.1 -  RELEASE  -
|  1> ! wB97X-D3 SP def2-SVP
|  2> %pal
|  3> nprocs 24
|  4> end
|  5>
|  6> * xyz 0 1
|  7> S 	 -54.9753 	 13.1884 	 -104.348
|  8> C 	 -54.7371 	 13.5419 	 -102.655
|  9> C 	 -55.9348 	 13.6028 	 -102.027
| 10> C 	 -57.0187 	 13.5378 	 -102.959
| 11> C 	 -56.6647 	 13.4673 	 -104.267
| 12> H 	 -58.0757 	 13.6518 	 -102.665
| 13> C 	 -56.0404 	 13.9859 	 -100.58
| 14> H 	 -55.0571 	 13.9352 	 -100.162
| 15> H 	 -56.6478 	 13.2392 	 -100.101
| 16> C 	 -56.6321 	 15.3848 	 -100.326
| 17> H 	 -56.3928 	 16.1283 	 -101.073
| 18> H 	 -57.655 	 15.2534 	 -100.444
| 19> C 	 -56.2261 	 15.9627 	 -98.8897
| 20> H 	 -56.6862 	 16.8885 	 -98.8356
| 21> H 	 -56.3636 	 15.3215 	 -98.0357
| 22> H 	 -55.1692 	 16.0818 	 -98.8201
| 23> S 	 -57.0787 	 11.8905 	 -106.396
| 24> C 	 -58.4788 	 12.08 	 -107.408
| 25> C 	 -59.3208 	 13.0541 	 -106.971
| 26> C 	 -58.8704 	 13.6759 	 -105.723
| 27> C 	 -57.5624 	 13.1537 	 -105.388
| 28> H 	 -60.1991 	 13.2492 	 -107.573
| 29> C 	 -59.57 	 14.8642 	 -104.982
| 30> H 	 -59.7673 	 14.5889 	 -103.915
| 31> H 	 -60.5016 	 14.9599 	 -105.552
| 32> C 	 -58.8111 	 16.1838 	 -104.919
| 33> H 	 -58.0602 	 16.0685 	 -104.138
| 34> H 	 -59.4783 	 16.9265 	 -104.641
| 35> C 	 -58.1228 	 16.64 	 -106.182
| 36> H 	 -58.8275 	 16.6431 	 -107.063
| 37> H 	 -57.3135 	 15.9491 	 -106.435
| 38> H 	 -57.6664 	 17.653 	 -106.024
| 39> H 	 -53.8797 	 13.6571 	 -102.084
| 40> H 	 -58.8142 	 11.5104 	 -108.281
| 41> *
| 42>
| 43>                          ****END OF INPUT****

CARTESIAN COORDINATES (ANGSTROEM)
---------------------------------
  S    -54.975300   13.188400  -104.348000
  C    -54.737100   13.541900  -102.655000
  C    -55.934800   13.602800  -102.027000
  C    -57.018700   13.537800  -102.959000
  C    -56.664700   13.467300  -104.267000
  H    -58.075700   13.651800  -102.665000
  C    -56.040400   13.985900  -100.580000
  H    -55.057100   13.935200  -100.162000
  H    -56.647800   13.239200  -100.101000
  C    -56.632100   15.384800  -100.326000
  H    -56.392800   16.128300  -101.073000
  H    -57.655000   15.253400  -100.444000
  C    -56.226100   15.962700  -98.889700
  H    -56.686200   16.888500  -98.835600
  H    -56.363600   15.321500  -98.035700
  H    -55.169200   16.081800  -98.820100
  S    -57.078700   11.890500  -106.396000
  C    -58.478800   12.080000  -107.408000
  C    -59.320800   13.054100  -106.971000
  C    -58.870400   13.675900  -105.723000
  C    -57.562400   13.153700  -105.388000
  H    -60.199100   13.249200  -107.573000
  C    -59.570000   14.864200  -104.982000
  H    -59.767300   14.588900  -103.915000
  H    -60.501600   14.959900  -105.552000
  C    -58.811100   16.183800  -104.919000
  H    -58.060200   16.068500  -104.138000
  H    -59.478300   16.926500  -104.641000
  C    -58.122800   16.640000  -106.182000
  H    -58.827500   16.643100  -107.063000
  H    -57.313500   15.949100  -106.435000
  H    -57.666400   17.653000  -106.024000
  H    -53.879700   13.657100  -102.084000
  H    -58.814200   11.510400  -108.281000

 Total Charge           Charge          ....    0
 Multiplicity           Mult            ....    1
 Number of Electrons    NEL             ....  134
 Basis Dimension        Dim             ....  322

ORBITAL ENERGIES
----------------

  NO   OCC          E(Eh)            E(eV)
   0   2.0000     -88.969649     -2420.9872
   1   2.0000     -88.965034     -2420.8617
   2   2.0000     -10.329032      -281.0673
   3   2.0000     -10.327220      -281.0180
   4   2.0000     -10.312980      -280.6305
   5   2.0000     -10.311182      -280.5815
   6   2.0000     -10.305888      -280.4375
   7   2.0000     -10.298062      -280.2245
   8   2.0000     -10.295481      -280.1543
   9   2.0000     -10.294611      -280.1306
  10   2.0000     -10.292285      -280.0673
  11   2.0000     -10.288050      -279.9521
  12   2.0000     -10.286156      -279.9005
  13   2.0000     -10.275655      -279.6148
  14   2.0000     -10.274632      -279.5870
  15   2.0000     -10.273962      -279.5687
  16   2.0000      -8.085322      -220.0128
  17   2.0000      -8.080566      -219.8834
  18   2.0000      -6.043724      -164.4581
  19   2.0000      -6.039624      -164.3465
  20   2.0000      -6.039149      -164.3336
  21   2.0000      -6.036198      -164.2533
  22   2.0000      -6.035026      -164.2214
  23   2.0000      -6.031111      -164.1149
  24   2.0000      -1.016777       -27.6679
  25   2.0000      -0.990197       -26.9446
  26   2.0000      -0.914903       -24.8958
  27   2.0000      -0.907631       -24.6979
  28   2.0000      -0.874332       -23.7918
  29   2.0000      -0.846789       -23.0423
  30   2.0000      -0.844109       -22.9694
  31   2.0000      -0.819036       -22.2871
  32   2.0000      -0.786179       -21.3930
  33   2.0000      -0.773326       -21.0433
  34   2.0000      -0.719522       -19.5792
  35   2.0000      -0.705409       -19.1951
  36   2.0000      -0.683646       -18.6029
  37   2.0000      -0.659938       -17.9578
  38   2.0000      -0.638075       -17.3629
  39   2.0000      -0.623445       -16.9648
  40   2.0000      -0.582411       -15.8482
  41   2.0000      -0.574913       -15.6442
  42   2.0000      -0.564612       -15.3639
  43   2.0000      -0.557014       -15.1571
  44   2.0000      -0.542618       -14.7654
  45   2.0000      -0.536418       -14.5967
  46   2.0000      -0.515156       -14.0181
  47   2.0000      -0.508464       -13.8360
  48   2.0000      -0.504805       -13.7365
  49   2.0000      -0.501121       -13.6362
  50   2.0000      -0.492413       -13.3992
  51   2.0000      -0.477858       -13.0032
  52   2.0000      -0.475334       -12.9345
  53   2.0000      -0.466838       -12.7033
  54   2.0000      -0.460988       -12.5441
  55   2.0000      -0.451538       -12.2870
  56   2.0000      -0.446276       -12.1438
  57   2.0000      -0.436622       -11.8811
  58   2.0000      -0.432888       -11.7795
  59   2.0000      -0.428407       -11.6575
  60   2.0000      -0.422064       -11.4849
  61   2.0000      -0.415016       -11.2932
  62   2.0000      -0.408215       -11.1081
  63   2.0000      -0.358678        -9.7601
  64   2.0000      -0.332375        -9.0444
  65   2.0000      -0.327927        -8.9234
  66   2.0000      -0.288289        -7.8447
  67   0.0000       0.028130         0.7655
  68   0.0000       0.079285         2.1575
  69   0.0000       0.110908         3.0180
  70   0.0000       0.121172         3.2973
  71   0.0000       0.135307         3.6819

MULLIKEN ATOMIC CHARGES
-----------------------
   0 S :    0.096350
   1 C :   -0.072667
   2 C :   -0.109709
   3 C :    0.008508
   4 C :   -0.115714
   5 H :    0.012732
   6 C :    0.097641
   7 H :    0.000441
   8 H :    0.030080
   9 C :   -0.068658
  10 H :    0.035612
  11 H :    0.013569
  12 C :   -0.020560
  13 H :    0.028456
  14 H :    0.027615
  15 H :    0.019346
  16 S :    0.127287
  17 C :   -0.092951
  18 C :   -0.046186
  19 C :   -0.071333
  20 C :   -0.155583
  21 H :    0.020669
  22 C :    0.057719
  23 H :    0.042199
  24 H :    0.019227
  25 C :   -0.037965
  26 H :    0.026972
  27 H :    0.016289
  28 C :   -0.067879
  29 H :    0.029692
  30 H :    0.041969
  31 H :    0.040680
  32 H :    0.011512
  33 H :    0.054639
Sum of atomic charges:   -0.0000000

LOEWDIN ATOMIC CHARGES
----------------------
   0 S :    0.412198
   1 C :   -0.184586
   2 C :   -0.063007
   3 C :   -0.068185
   4 C :   -0.205108
   5 H :    0.030613
   6 C :   -0.025010
   7 H :    0.022048
   8 H :    0.032024
   9 C :   -0.027934
  10 H :    0.025846
  11 H :    0.012931
  12 C :   -0.054926
  13 H :    0.019189
  14 H :    0.025252
  15 H :    0.022477
  16 S :    0.444675
  17 C :   -0.207044
  18 C :   -0.071991
  19 C :   -0.058792
  20 C :   -0.214306
  21 H :    0.033421
  22 C :   -0.031427
  23 H :    0.035137
  24 H :    0.029087
  25 C :   -0.043154
  26 H :    0.024268
  27 H :    0.016704
  28 C :   -0.069160
  29 H :    0.026149
  30 H :    0.026367
  31 H :    0.031408
  32 H :    0.018067
  33 H :    0.036770

  Mayer bond orders larger than 0.100000
B(  0-S ,  1-C ) :   1.1253 B(  0-S ,  4-C ) :   1.1487 B(  1-C ,  2-C ) :   1.6245
B(  1-C , 32-H ) :   0.9731 B(  2-C ,  3-C ) :   1.2383 B(  2-C ,  6-C ) :   1.0407
B(  3-C ,  4-C ) :   1.5636 B(  3-C ,  5-H ) :   0.9908 B(  4-C , 20-C ) :   1.0454
B(  6-C ,  7-H ) :   0.9442 B(  6-C ,  8-H ) :   0.9279 B(  6-C ,  9-C ) :   1.0511
B(  9-C , 10-H ) :   0.9624 B(  9-C , 11-H ) :   0.9543 B(  9-C , 12-C ) :   1.0763
B( 12-C , 13-H ) :   0.9772 B( 12-C , 14-H ) :   0.9772 B( 12-C , 15-H ) :   0.9757
B( 16-S , 17-C ) :   1.1415 B( 16-S , 20-C ) :   1.1832 B( 17-C , 18-C ) :   1.6421
B( 17-C , 33-H ) :   0.9604 B( 18-C , 19-C ) :   1.2491 B( 18-C , 21-H ) :   0.9847
B( 19-C , 20-C ) :   1.5382 B( 19-C , 22-C ) :   1.0364 B( 22-C , 23-H ) :   0.9366
B( 22-C , 24-H ) :   0.9323 B( 22-C , 25-C ) :   1.0769 B( 25-C , 26-H ) :   0.9446
B( 25-C , 27-H ) :   0.9518 B( 25-C , 28-C ) :   1.0946 B( 28-C , 29-H ) :   0.9759
B( 28-C , 30-H ) :   0.9679 B( 28-C , 31-H ) :   0.9716

Dispersion correction           -0.015174699
FINAL SINGLE POINT ENERGY     -1339.865833691540

DIPOLE MOMENT
-------------
                                X             Y             Z
Electronic contribution:      8.23637     -20.67980     -17.38548
Nuclear contribution   :     -8.60149      21.00009      17.85750
                        -----------------------------------------
Total Dipole Moment    :     -0.36513       0.32029       0.47202
                        -----------------------------------------
Magnitude (a.u.)       :      0.67728
Magnitude (Debye)      :      1.72150

Rotational constants in cm-1:     0.021287     0.008796     0.007073
Rotational constants in MHz :   638.159952   263.689622   212.049739

                             ****ORCA TERMINATED NORMALLY****
TOTAL RUN TIME: 0 days 0 hours 0 minutes 22 seconds 324 msec
