                         Program Version 4.2.1 -  RELEASE  -
|  1> ! wB97X-D3 SP def2-SVP
|  2> %pal
|  3> nprocs 24
|  4> end
|  5>
|  6> * xyz 0 1
|  7> S 	 39.0819 	 -24.8314 	 -119.55
|  8> C 	 37.2828 	 -24.7254 	 -119.383
|  9> C 	 36.7223 	 -25.1417 	 -120.522
| 10> C 	 37.6873 	 -25.6002 	 -121.507
| 11> C 	 39.03 	 -25.4274 	 -121.132
| 12> H 	 37.5877 	 -25.9207 	 -122.546
| 13> C 	 35.2313 	 -25.0089 	 -120.72
| 14> H 	 34.5917 	 -25.4958 	 -120.014
| 15> H 	 34.991 	 -25.5862 	 -121.544
| 16> C 	 34.7188 	 -23.5784 	 -121.166
| 17> H 	 35.031 	 -23.3459 	 -122.186
| 18> H 	 33.6947 	 -23.627 	 -120.989
| 19> C 	 35.1506 	 -22.3981 	 -120.303
| 20> H 	 34.8152 	 -21.4174 	 -120.622
| 21> H 	 34.7087 	 -22.5251 	 -119.279
| 22> H 	 36.2623 	 -22.3466 	 -120.132
| 23> S 	 41.3712 	 -24.9807 	 -122.45
| 24> C 	 42.3489 	 -26.2788 	 -122.927
| 25> C 	 41.7711 	 -27.5239 	 -122.582
| 26> C 	 40.5389 	 -27.3456 	 -121.862
| 27> C 	 40.1768 	 -25.988 	 -121.804
| 28> H 	 42.1796 	 -28.4503 	 -123.072
| 29> C 	 39.8264 	 -28.4873 	 -121.15
| 30> H 	 39.2416 	 -29.0837 	 -121.966
| 31> H 	 39.0197 	 -28.1763 	 -120.444
| 32> C 	 40.7615 	 -29.3841 	 -120.375
| 33> H 	 41.5664 	 -28.7649 	 -119.96
| 34> H 	 41.238 	 -30.1146 	 -121.089
| 35> C 	 40.1053 	 -29.898 	 -119.089
| 36> H 	 40.7985 	 -30.4059 	 -118.474
| 37> H 	 39.1837 	 -30.5812 	 -119.228
| 38> H 	 39.6386 	 -29.1951 	 -118.45
| 39> H 	 36.7949 	 -24.4765 	 -118.46
| 40> H 	 43.178 	 -26.2972 	 -123.536
| 41> *
| 42>
| 43>                          ****END OF INPUT****

CARTESIAN COORDINATES (ANGSTROEM)
---------------------------------
  S     39.081900  -24.831400  -119.550000
  C     37.282800  -24.725400  -119.383000
  C     36.722300  -25.141700  -120.522000
  C     37.687300  -25.600200  -121.507000
  C     39.030000  -25.427400  -121.132000
  H     37.587700  -25.920700  -122.546000
  C     35.231300  -25.008900  -120.720000
  H     34.591700  -25.495800  -120.014000
  H     34.991000  -25.586200  -121.544000
  C     34.718800  -23.578400  -121.166000
  H     35.031000  -23.345900  -122.186000
  H     33.694700  -23.627000  -120.989000
  C     35.150600  -22.398100  -120.303000
  H     34.815200  -21.417400  -120.622000
  H     34.708700  -22.525100  -119.279000
  H     36.262300  -22.346600  -120.132000
  S     41.371200  -24.980700  -122.450000
  C     42.348900  -26.278800  -122.927000
  C     41.771100  -27.523900  -122.582000
  C     40.538900  -27.345600  -121.862000
  C     40.176800  -25.988000  -121.804000
  H     42.179600  -28.450300  -123.072000
  C     39.826400  -28.487300  -121.150000
  H     39.241600  -29.083700  -121.966000
  H     39.019700  -28.176300  -120.444000
  C     40.761500  -29.384100  -120.375000
  H     41.566400  -28.764900  -119.960000
  H     41.238000  -30.114600  -121.089000
  C     40.105300  -29.898000  -119.089000
  H     40.798500  -30.405900  -118.474000
  H     39.183700  -30.581200  -119.228000
  H     39.638600  -29.195100  -118.450000
  H     36.794900  -24.476500  -118.460000
  H     43.178000  -26.297200  -123.536000

 Total Charge           Charge          ....    0
 Multiplicity           Mult            ....    1
 Number of Electrons    NEL             ....  134
 Basis Dimension        Dim             ....  322

ORBITAL ENERGIES
----------------

  NO   OCC          E(Eh)            E(eV)
   0   2.0000     -88.969846     -2420.9926
   1   2.0000     -88.960273     -2420.7321
   2   2.0000     -10.323863      -280.9266
   3   2.0000     -10.320710      -280.8408
   4   2.0000     -10.313020      -280.6316
   5   2.0000     -10.310620      -280.5662
   6   2.0000     -10.306790      -280.4620
   7   2.0000     -10.301660      -280.3224
   8   2.0000     -10.299787      -280.2715
   9   2.0000     -10.296750      -280.1888
  10   2.0000     -10.295242      -280.1478
  11   2.0000     -10.287791      -279.9450
  12   2.0000     -10.286342      -279.9056
  13   2.0000     -10.285323      -279.8779
  14   2.0000     -10.276594      -279.6403
  15   2.0000     -10.275662      -279.6150
  16   2.0000      -8.086144      -220.0352
  17   2.0000      -8.075481      -219.7450
  18   2.0000      -6.044420      -164.4770
  19   2.0000      -6.040235      -164.3632
  20   2.0000      -6.037259      -164.2822
  21   2.0000      -6.033942      -164.1919
  22   2.0000      -6.029781      -164.0787
  23   2.0000      -6.026372      -163.9859
  24   2.0000      -1.013865       -27.5887
  25   2.0000      -0.988242       -26.8914
  26   2.0000      -0.912720       -24.8364
  27   2.0000      -0.910407       -24.7734
  28   2.0000      -0.871006       -23.7013
  29   2.0000      -0.850061       -23.1313
  30   2.0000      -0.840544       -22.8724
  31   2.0000      -0.812189       -22.1008
  32   2.0000      -0.788042       -21.4437
  33   2.0000      -0.774991       -21.0886
  34   2.0000      -0.706991       -19.2382
  35   2.0000      -0.698383       -19.0040
  36   2.0000      -0.693858       -18.8808
  37   2.0000      -0.651244       -17.7212
  38   2.0000      -0.647209       -17.6114
  39   2.0000      -0.613097       -16.6832
  40   2.0000      -0.597536       -16.2598
  41   2.0000      -0.577526       -15.7153
  42   2.0000      -0.557890       -15.1810
  43   2.0000      -0.554623       -15.0921
  44   2.0000      -0.539751       -14.6874
  45   2.0000      -0.526862       -14.3366
  46   2.0000      -0.518280       -14.1031
  47   2.0000      -0.516014       -14.0414
  48   2.0000      -0.507041       -13.7973
  49   2.0000      -0.498521       -13.5655
  50   2.0000      -0.487601       -13.2683
  51   2.0000      -0.479526       -13.0486
  52   2.0000      -0.472078       -12.8459
  53   2.0000      -0.461289       -12.5523
  54   2.0000      -0.454841       -12.3768
  55   2.0000      -0.445843       -12.1320
  56   2.0000      -0.441146       -12.0042
  57   2.0000      -0.433303       -11.7908
  58   2.0000      -0.429004       -11.6738
  59   2.0000      -0.427496       -11.6328
  60   2.0000      -0.421919       -11.4810
  61   2.0000      -0.406005       -11.0480
  62   2.0000      -0.401628       -10.9289
  63   2.0000      -0.337928        -9.1955
  64   2.0000      -0.331788        -9.0284
  65   2.0000      -0.320884        -8.7317
  66   2.0000      -0.306452        -8.3390
  67   0.0000       0.044951         1.2232
  68   0.0000       0.058273         1.5857
  69   0.0000       0.115908         3.1540
  70   0.0000       0.126099         3.4313
  71   0.0000       0.127689         3.4746

MULLIKEN ATOMIC CHARGES
-----------------------
   0 S :    0.094723
   1 C :   -0.130818
   2 C :   -0.063813
   3 C :    0.022135
   4 C :   -0.158256
   5 H :    0.016221
   6 C :    0.097757
   7 H :    0.024123
   8 H :   -0.007367
   9 C :   -0.027689
  10 H :    0.038696
  11 H :    0.021347
  12 C :   -0.099579
  13 H :    0.034243
  14 H :    0.016802
  15 H :    0.053196
  16 S :    0.148445
  17 C :   -0.062561
  18 C :   -0.079590
  19 C :   -0.022123
  20 C :   -0.198013
  21 H :    0.047512
  22 C :    0.041301
  23 H :    0.046878
  24 H :    0.036670
  25 C :   -0.076233
  26 H :    0.042834
  27 H :    0.044558
  28 C :   -0.054711
  29 H :    0.024665
  30 H :    0.026523
  31 H :    0.026594
  32 H :    0.049848
  33 H :    0.025683
Sum of atomic charges:    0.0000000

LOEWDIN ATOMIC CHARGES
----------------------
   0 S :    0.401066
   1 C :   -0.167413
   2 C :   -0.066702
   3 C :   -0.068204
   4 C :   -0.217649
   5 H :    0.033680
   6 C :   -0.029704
   7 H :    0.030580
   8 H :    0.024541
   9 C :   -0.026189
  10 H :    0.027114
  11 H :    0.020466
  12 C :   -0.077893
  13 H :    0.023520
  14 H :    0.022646
  15 H :    0.028729
  16 S :    0.468530
  17 C :   -0.199414
  18 C :   -0.077752
  19 C :   -0.049334
  20 C :   -0.238220
  21 H :    0.041938
  22 C :   -0.042606
  23 H :    0.042150
  24 H :    0.034673
  25 C :   -0.048037
  26 H :    0.031748
  27 H :    0.031188
  28 C :   -0.069136
  29 H :    0.019793
  30 H :    0.029663
  31 H :    0.022739
  32 H :    0.028963
  33 H :    0.014527

  Mayer bond orders larger than 0.100000
B(  0-S ,  1-C ) :   1.1197 B(  0-S ,  4-C ) :   1.1705 B(  1-C ,  2-C ) :   1.6215
B(  1-C , 32-H ) :   0.9784 B(  2-C ,  3-C ) :   1.2107 B(  2-C ,  6-C ) :   1.0258
B(  3-C ,  4-C ) :   1.5793 B(  3-C ,  5-H ) :   0.9982 B(  4-C , 20-C ) :   1.0068
B(  6-C ,  7-H ) :   0.9425 B(  6-C ,  8-H ) :   0.9231 B(  6-C ,  9-C ) :   1.0669
B(  9-C , 10-H ) :   0.9587 B(  9-C , 11-H ) :   0.9537 B(  9-C , 12-C ) :   1.0891
B( 12-C , 13-H ) :   0.9737 B( 12-C , 14-H ) :   0.9743 B( 12-C , 15-H ) :   0.9679
B( 16-S , 17-C ) :   1.1903 B( 16-S , 20-C ) :   1.1696 B( 17-C , 18-C ) :   1.5839
B( 17-C , 33-H ) :   0.9738 B( 18-C , 19-C ) :   1.2679 B( 18-C , 21-H ) :   0.9762
B( 19-C , 20-C ) :   1.5639 B( 19-C , 22-C ) :   1.0429 B( 22-C , 23-H ) :   0.9262
B( 22-C , 24-H ) :   0.9440 B( 22-C , 25-C ) :   1.0508 B( 25-C , 26-H ) :   0.9598
B( 25-C , 27-H ) :   0.9480 B( 25-C , 28-C ) :   1.0831 B( 28-C , 29-H ) :   0.9755
B( 28-C , 30-H ) :   0.9716 B( 28-C , 31-H ) :   0.9708

Dispersion correction           -0.014674959
FINAL SINGLE POINT ENERGY     -1339.850600183002

DIPOLE MOMENT
-------------
                                X             Y             Z
Electronic contribution:     16.41871       8.95416      -5.75254
Nuclear contribution   :    -16.81863      -9.32710       5.65179
                        -----------------------------------------
Total Dipole Moment    :     -0.39992      -0.37295      -0.10074
                        -----------------------------------------
Magnitude (a.u.)       :      0.55604
Magnitude (Debye)      :      1.41333

Rotational constants in cm-1:     0.021321     0.008090     0.006741
Rotational constants in MHz :   639.182532   242.527572   202.090307

                             ****ORCA TERMINATED NORMALLY****
TOTAL RUN TIME: 0 days 0 hours 0 minutes 21 seconds 675 msec
