                         Program Version 4.2.1 -  RELEASE  -
|  1> ! wB97X-D3 SP def2-SVP
|  2> %pal
|  3> nprocs 24
|  4> end
|  5>
|  6> * xyz 0 1
|  7> S 	 -95.9247 	 -7.48663 	 -119.203
|  8> C 	 -96.6901 	 -7.47633 	 -120.75
|  9> C 	 -97.2424 	 -8.68188 	 -121.103
| 10> C 	 -97.0651 	 -9.63766 	 -120.045
| 11> C 	 -96.4005 	 -9.17592 	 -118.96
| 12> H 	 -97.5682 	 -10.6014 	 -120.032
| 13> C 	 -97.8613 	 -9.05204 	 -122.429
| 14> H 	 -97.4645 	 -10.0489 	 -122.772
| 15> H 	 -97.7623 	 -8.29092 	 -123.215
| 16> C 	 -99.3168 	 -9.37386 	 -122.232
| 17> H 	 -99.5386 	 -10.0517 	 -121.472
| 18> H 	 -99.8137 	 -8.41193 	 -121.981
| 19> C 	 -99.9263 	 -9.95269 	 -123.462
| 20> H 	 -99.8171 	 -9.28691 	 -124.259
| 21> H 	 -99.4238 	 -10.9573 	 -123.675
| 22> H 	 -101.002 	 -10.0577 	 -123.323
| 23> S 	 -95.7224 	 -8.80036 	 -116.291
| 24> C 	 -95.7951 	 -10.2197 	 -115.212
| 25> C 	 -96.2672 	 -11.3309 	 -115.877
| 26> C 	 -96.4827 	 -11.1578 	 -117.282
| 27> C 	 -96.2893 	 -9.83106 	 -117.659
| 28> H 	 -96.2007 	 -12.2039 	 -115.269
| 29> C 	 -96.8806 	 -12.3259 	 -118.096
| 30> H 	 -97.8209 	 -12.0442 	 -118.582
| 31> H 	 -97.1922 	 -13.1887 	 -117.461
| 32> C 	 -95.8028 	 -12.8155 	 -119.118
| 33> H 	 -95.4125 	 -12.0834 	 -119.848
| 34> H 	 -96.3052 	 -13.5446 	 -119.717
| 35> C 	 -94.6704 	 -13.6461 	 -118.553
| 36> H 	 -95.0491 	 -14.3879 	 -117.804
| 37> H 	 -93.8534 	 -13.1066 	 -118.063
| 38> H 	 -94.1961 	 -14.3447 	 -119.207
| 39> H 	 -96.7869 	 -6.51105 	 -121.241
| 40> H 	 -95.4678 	 -10.259 	 -114.163
| 41> *
| 42>
| 43>                          ****END OF INPUT****

CARTESIAN COORDINATES (ANGSTROEM)
---------------------------------
  S    -95.924700   -7.486630  -119.203000
  C    -96.690100   -7.476330  -120.750000
  C    -97.242400   -8.681880  -121.103000
  C    -97.065100   -9.637660  -120.045000
  C    -96.400500   -9.175920  -118.960000
  H    -97.568200  -10.601400  -120.032000
  C    -97.861300   -9.052040  -122.429000
  H    -97.464500  -10.048900  -122.772000
  H    -97.762300   -8.290920  -123.215000
  C    -99.316800   -9.373860  -122.232000
  H    -99.538600  -10.051700  -121.472000
  H    -99.813700   -8.411930  -121.981000
  C    -99.926300   -9.952690  -123.462000
  H    -99.817100   -9.286910  -124.259000
  H    -99.423800  -10.957300  -123.675000
  H    -101.002000  -10.057700  -123.323000
  S    -95.722400   -8.800360  -116.291000
  C    -95.795100  -10.219700  -115.212000
  C    -96.267200  -11.330900  -115.877000
  C    -96.482700  -11.157800  -117.282000
  C    -96.289300   -9.831060  -117.659000
  H    -96.200700  -12.203900  -115.269000
  C    -96.880600  -12.325900  -118.096000
  H    -97.820900  -12.044200  -118.582000
  H    -97.192200  -13.188700  -117.461000
  C    -95.802800  -12.815500  -119.118000
  H    -95.412500  -12.083400  -119.848000
  H    -96.305200  -13.544600  -119.717000
  C    -94.670400  -13.646100  -118.553000
  H    -95.049100  -14.387900  -117.804000
  H    -93.853400  -13.106600  -118.063000
  H    -94.196100  -14.344700  -119.207000
  H    -96.786900   -6.511050  -121.241000
  H    -95.467800  -10.259000  -114.163000

 Total Charge           Charge          ....    0
 Multiplicity           Mult            ....    1
 Number of Electrons    NEL             ....  134
 Basis Dimension        Dim             ....  322

ORBITAL ENERGIES
----------------

  NO   OCC          E(Eh)            E(eV)
   0   2.0000     -88.965560     -2420.8760
   1   2.0000     -88.962792     -2420.8007
   2   2.0000     -10.332802      -281.1698
   3   2.0000     -10.328351      -281.0487
   4   2.0000     -10.318790      -280.7885
   5   2.0000     -10.312066      -280.6056
   6   2.0000     -10.304501      -280.3997
   7   2.0000     -10.301321      -280.3132
   8   2.0000     -10.300342      -280.2866
   9   2.0000     -10.296191      -280.1736
  10   2.0000     -10.290540      -280.0198
  11   2.0000     -10.290392      -280.0158
  12   2.0000     -10.288890      -279.9749
  13   2.0000     -10.276008      -279.6244
  14   2.0000     -10.275437      -279.6088
  15   2.0000     -10.275358      -279.6067
  16   2.0000      -8.078944      -219.8392
  17   2.0000      -8.078093      -219.8161
  18   2.0000      -6.037664      -164.2932
  19   2.0000      -6.036671      -164.2662
  20   2.0000      -6.033768      -164.1872
  21   2.0000      -6.032679      -164.1575
  22   2.0000      -6.029452      -164.0697
  23   2.0000      -6.028598      -164.0465
  24   2.0000      -1.005810       -27.3695
  25   2.0000      -0.980388       -26.6777
  26   2.0000      -0.924122       -25.1466
  27   2.0000      -0.909262       -24.7423
  28   2.0000      -0.871475       -23.7141
  29   2.0000      -0.856227       -23.2991
  30   2.0000      -0.847366       -23.0580
  31   2.0000      -0.816407       -22.2156
  32   2.0000      -0.783741       -21.3267
  33   2.0000      -0.772129       -21.0107
  34   2.0000      -0.712146       -19.3785
  35   2.0000      -0.696611       -18.9558
  36   2.0000      -0.688852       -18.7446
  37   2.0000      -0.664854       -18.0916
  38   2.0000      -0.639471       -17.4009
  39   2.0000      -0.628636       -17.1061
  40   2.0000      -0.593435       -16.1482
  41   2.0000      -0.580342       -15.7919
  42   2.0000      -0.565234       -15.3808
  43   2.0000      -0.553160       -15.0523
  44   2.0000      -0.545859       -14.8536
  45   2.0000      -0.529711       -14.4142
  46   2.0000      -0.512104       -13.9351
  47   2.0000      -0.510098       -13.8805
  48   2.0000      -0.505471       -13.7546
  49   2.0000      -0.496529       -13.5112
  50   2.0000      -0.489015       -13.3068
  51   2.0000      -0.479423       -13.0458
  52   2.0000      -0.475966       -12.9517
  53   2.0000      -0.462575       -12.5873
  54   2.0000      -0.458431       -12.4745
  55   2.0000      -0.453199       -12.3322
  56   2.0000      -0.442845       -12.0504
  57   2.0000      -0.438059       -11.9202
  58   2.0000      -0.432018       -11.7558
  59   2.0000      -0.428195       -11.6518
  60   2.0000      -0.419721       -11.4212
  61   2.0000      -0.415764       -11.3135
  62   2.0000      -0.411251       -11.1907
  63   2.0000      -0.362851        -9.8737
  64   2.0000      -0.334807        -9.1106
  65   2.0000      -0.325072        -8.8456
  66   2.0000      -0.280335        -7.6283
  67   0.0000       0.019712         0.5364
  68   0.0000       0.082928         2.2566
  69   0.0000       0.092972         2.5299
  70   0.0000       0.117128         3.1872
  71   0.0000       0.130335         3.5466

MULLIKEN ATOMIC CHARGES
-----------------------
   0 S :    0.088102
   1 C :   -0.144151
   2 C :   -0.037220
   3 C :   -0.037019
   4 C :   -0.073725
   5 H :    0.002020
   6 C :    0.074393
   7 H :    0.027484
   8 H :    0.027714
   9 C :   -0.107360
  10 H :    0.020222
  11 H :    0.024385
  12 C :   -0.015630
  13 H :    0.011496
  14 H :    0.036621
  15 H :    0.032803
  16 S :    0.083568
  17 C :   -0.110867
  18 C :   -0.021417
  19 C :   -0.033061
  20 C :   -0.112042
  21 H :    0.010990
  22 C :    0.029373
  23 H :    0.039597
  24 H :    0.027041
  25 C :   -0.046757
  26 H :    0.051182
  27 H :    0.015128
  28 C :   -0.058935
  29 H :    0.011798
  30 H :    0.041774
  31 H :    0.023748
  32 H :    0.053338
  33 H :    0.065409
Sum of atomic charges:    0.0000000

LOEWDIN ATOMIC CHARGES
----------------------
   0 S :    0.390699
   1 C :   -0.197697
   2 C :   -0.060598
   3 C :   -0.067056
   4 C :   -0.178010
   5 H :    0.029087
   6 C :   -0.027836
   7 H :    0.035755
   8 H :    0.032208
   9 C :   -0.044969
  10 H :    0.013908
  11 H :    0.025872
  12 C :   -0.059982
  13 H :    0.013446
  14 H :    0.031655
  15 H :    0.028071
  16 S :    0.361073
  17 C :   -0.176528
  18 C :   -0.070884
  19 C :   -0.059002
  20 C :   -0.168151
  21 H :    0.029806
  22 C :   -0.032544
  23 H :    0.031960
  24 H :    0.038246
  25 C :   -0.041092
  26 H :    0.032027
  27 H :    0.023920
  28 C :   -0.072559
  29 H :    0.026560
  30 H :    0.025358
  31 H :    0.023684
  32 H :    0.027703
  33 H :    0.035868

  Mayer bond orders larger than 0.100000
B(  0-S ,  1-C ) :   1.1357 B(  0-S ,  4-C ) :   1.1223 B(  1-C ,  2-C ) :   1.6218
B(  1-C , 32-H ) :   0.9690 B(  2-C ,  3-C ) :   1.2259 B(  2-C ,  6-C ) :   1.0299
B(  3-C ,  4-C ) :   1.6022 B(  3-C ,  5-H ) :   0.9831 B(  4-C , 20-C ) :   1.0914
B(  6-C ,  7-H ) :   0.9390 B(  6-C ,  8-H ) :   0.9453 B(  6-C ,  9-C ) :   1.0547
B(  9-C , 10-H ) :   0.9602 B(  9-C , 11-H ) :   0.9461 B(  9-C , 12-C ) :   1.0987
B( 12-C , 13-H ) :   0.9693 B( 12-C , 14-H ) :   0.9694 B( 12-C , 15-H ) :   0.9703
B( 16-S , 17-C ) :   1.1294 B( 16-S , 20-C ) :   1.1146 B( 17-C , 18-C ) :   1.6547
B( 17-C , 33-H ) :   0.9613 B( 18-C , 19-C ) :   1.2152 B( 18-C , 21-H ) :   0.9881
B( 19-C , 20-C ) :   1.6033 B( 19-C , 22-C ) :   1.0404 B( 22-C , 23-H ) :   0.9300
B( 22-C , 24-H ) :   0.9333 B( 22-C , 25-C ) :   1.0684 B( 25-C , 26-H ) :   0.9565
B( 25-C , 27-H ) :   0.9506 B( 25-C , 28-C ) :   1.0791 B( 28-C , 29-H ) :   0.9681
B( 28-C , 30-H ) :   0.9764 B( 28-C , 31-H ) :   0.9746

Dispersion correction           -0.014170185
FINAL SINGLE POINT ENERGY     -1339.876456577045

DIPOLE MOMENT
-------------
                                X             Y             Z
Electronic contribution:      9.90555      20.58506      18.77467
Nuclear contribution   :    -10.26386     -21.20167     -19.09695
                        -----------------------------------------
Total Dipole Moment    :     -0.35831      -0.61661      -0.32228
                        -----------------------------------------
Magnitude (a.u.)       :      0.78260
Magnitude (Debye)      :      1.98920

Rotational constants in cm-1:     0.018483     0.009003     0.006818
Rotational constants in MHz :   554.118382   269.904665   204.395957

                             ****ORCA TERMINATED NORMALLY****
TOTAL RUN TIME: 0 days 0 hours 0 minutes 20 seconds 937 msec
