                         Program Version 4.2.1 -  RELEASE  -
|  1> ! wB97X-D3 SP def2-SVP
|  2> %pal
|  3> nprocs 24
|  4> end
|  5>
|  6> * xyz 0 1
|  7> S 	 -132.681 	 61.9333 	 -59.4442
|  8> C 	 -133.414 	 63.5045 	 -59.7106
|  9> C 	 -133.23 	 64.3781 	 -58.6251
| 10> C 	 -132.415 	 63.7446 	 -57.6193
| 11> C 	 -131.983 	 62.4812 	 -57.9537
| 12> H 	 -132.135 	 64.1696 	 -56.6963
| 13> C 	 -133.76 	 65.8009 	 -58.5164
| 14> H 	 -132.812 	 66.3553 	 -58.0374
| 15> H 	 -134.597 	 65.9239 	 -57.8948
| 16> C 	 -134.046 	 66.5097 	 -59.8655
| 17> H 	 -133.069 	 66.5725 	 -60.3361
| 18> H 	 -134.63 	 65.8351 	 -60.4697
| 19> C 	 -134.662 	 67.8555 	 -59.6881
| 20> H 	 -134.575 	 68.474 	 -60.5716
| 21> H 	 -135.724 	 67.769 	 -59.5017
| 22> H 	 -134.213 	 68.4178 	 -58.8469
| 23> S 	 -131.753 	 59.9845 	 -56.8565
| 24> C 	 -130.277 	 59.4581 	 -56.2029
| 25> C 	 -129.412 	 60.5417 	 -56.0069
| 26> C 	 -129.982 	 61.7893 	 -56.4538
| 27> C 	 -131.179 	 61.6091 	 -57.1184
| 28> H 	 -128.363 	 60.4245 	 -55.6746
| 29> C 	 -129.188 	 63.0647 	 -56.3262
| 30> H 	 -129.021 	 63.158 	 -55.2837
| 31> H 	 -129.843 	 63.8952 	 -56.6702
| 32> C 	 -127.825 	 63.0543 	 -57.1753
| 33> H 	 -127.925 	 62.5787 	 -58.1485
| 34> H 	 -127.241 	 62.4047 	 -56.5727
| 35> C 	 -127.013 	 64.2758 	 -57.1526
| 36> H 	 -126.685 	 64.4523 	 -56.1192
| 37> H 	 -127.485 	 65.1888 	 -57.6092
| 38> H 	 -126.032 	 64.2267 	 -57.7039
| 39> H 	 -134.019 	 63.8378 	 -60.5352
| 40> H 	 -130.174 	 58.515 	 -55.7432
| 41> *
| 42>
| 43>                          ****END OF INPUT****

CARTESIAN COORDINATES (ANGSTROEM)
---------------------------------
  S    -132.681000   61.933300  -59.444200
  C    -133.414000   63.504500  -59.710600
  C    -133.230000   64.378100  -58.625100
  C    -132.415000   63.744600  -57.619300
  C    -131.983000   62.481200  -57.953700
  H    -132.135000   64.169600  -56.696300
  C    -133.760000   65.800900  -58.516400
  H    -132.812000   66.355300  -58.037400
  H    -134.597000   65.923900  -57.894800
  C    -134.046000   66.509700  -59.865500
  H    -133.069000   66.572500  -60.336100
  H    -134.630000   65.835100  -60.469700
  C    -134.662000   67.855500  -59.688100
  H    -134.575000   68.474000  -60.571600
  H    -135.724000   67.769000  -59.501700
  H    -134.213000   68.417800  -58.846900
  S    -131.753000   59.984500  -56.856500
  C    -130.277000   59.458100  -56.202900
  C    -129.412000   60.541700  -56.006900
  C    -129.982000   61.789300  -56.453800
  C    -131.179000   61.609100  -57.118400
  H    -128.363000   60.424500  -55.674600
  C    -129.188000   63.064700  -56.326200
  H    -129.021000   63.158000  -55.283700
  H    -129.843000   63.895200  -56.670200
  C    -127.825000   63.054300  -57.175300
  H    -127.925000   62.578700  -58.148500
  H    -127.241000   62.404700  -56.572700
  C    -127.013000   64.275800  -57.152600
  H    -126.685000   64.452300  -56.119200
  H    -127.485000   65.188800  -57.609200
  H    -126.032000   64.226700  -57.703900
  H    -134.019000   63.837800  -60.535200
  H    -130.174000   58.515000  -55.743200

 Total Charge           Charge          ....    0
 Multiplicity           Mult            ....    1
 Number of Electrons    NEL             ....  134
 Basis Dimension        Dim             ....  322

ORBITAL ENERGIES
----------------

  NO   OCC          E(Eh)            E(eV)
   0   2.0000     -88.969410     -2420.9807
   1   2.0000     -88.961776     -2420.7730
   2   2.0000     -10.327052      -281.0134
   3   2.0000     -10.323589      -280.9191
   4   2.0000     -10.313548      -280.6459
   5   2.0000     -10.312234      -280.6101
   6   2.0000     -10.304421      -280.3976
   7   2.0000     -10.302029      -280.3325
   8   2.0000     -10.300624      -280.2942
   9   2.0000     -10.297028      -280.1964
  10   2.0000     -10.293279      -280.0944
  11   2.0000     -10.289924      -280.0031
  12   2.0000     -10.285142      -279.8729
  13   2.0000     -10.283197      -279.8200
  14   2.0000     -10.281626      -279.7773
  15   2.0000     -10.278458      -279.6911
  16   2.0000      -8.083940      -219.9752
  17   2.0000      -8.077872      -219.8101
  18   2.0000      -6.042503      -164.4249
  19   2.0000      -6.038475      -164.3153
  20   2.0000      -6.036206      -164.2535
  21   2.0000      -6.034641      -164.2109
  22   2.0000      -6.032115      -164.1422
  23   2.0000      -6.028812      -164.0523
  24   2.0000      -1.010189       -27.4886
  25   2.0000      -0.985191       -26.8084
  26   2.0000      -0.915342       -24.9077
  27   2.0000      -0.909602       -24.7515
  28   2.0000      -0.870088       -23.6763
  29   2.0000      -0.859100       -23.3773
  30   2.0000      -0.848980       -23.1019
  31   2.0000      -0.812311       -22.1041
  32   2.0000      -0.781541       -21.2668
  33   2.0000      -0.770580       -20.9686
  34   2.0000      -0.711438       -19.3592
  35   2.0000      -0.701037       -19.0762
  36   2.0000      -0.691544       -18.8179
  37   2.0000      -0.662436       -18.0258
  38   2.0000      -0.639029       -17.3889
  39   2.0000      -0.616247       -16.7689
  40   2.0000      -0.593917       -16.1613
  41   2.0000      -0.573394       -15.6028
  42   2.0000      -0.570425       -15.5220
  43   2.0000      -0.568735       -15.4761
  44   2.0000      -0.526610       -14.3298
  45   2.0000      -0.525044       -14.2872
  46   2.0000      -0.517109       -14.0712
  47   2.0000      -0.514373       -13.9968
  48   2.0000      -0.504895       -13.7389
  49   2.0000      -0.500065       -13.6075
  50   2.0000      -0.495619       -13.4865
  51   2.0000      -0.481679       -13.1071
  52   2.0000      -0.475449       -12.9376
  53   2.0000      -0.465967       -12.6796
  54   2.0000      -0.461623       -12.5614
  55   2.0000      -0.451010       -12.2726
  56   2.0000      -0.450660       -12.2631
  57   2.0000      -0.433694       -11.8014
  58   2.0000      -0.429952       -11.6996
  59   2.0000      -0.425201       -11.5703
  60   2.0000      -0.422082       -11.4854
  61   2.0000      -0.416502       -11.3336
  62   2.0000      -0.405544       -11.0354
  63   2.0000      -0.349159        -9.5011
  64   2.0000      -0.330615        -8.9965
  65   2.0000      -0.326181        -8.8758
  66   2.0000      -0.289056        -7.8656
  67   0.0000       0.031781         0.8648
  68   0.0000       0.072796         1.9809
  69   0.0000       0.111653         3.0382
  70   0.0000       0.119518         3.2522
  71   0.0000       0.131215         3.5705

MULLIKEN ATOMIC CHARGES
-----------------------
   0 S :    0.129736
   1 C :   -0.118380
   2 C :   -0.080766
   3 C :    0.037891
   4 C :   -0.142126
   5 H :   -0.002837
   6 C :    0.021516
   7 H :    0.046683
   8 H :    0.036262
   9 C :   -0.092612
  10 H :    0.031712
  11 H :    0.026669
  12 C :   -0.023056
  13 H :    0.032753
  14 H :    0.029599
  15 H :    0.032682
  16 S :    0.107329
  17 C :   -0.074614
  18 C :   -0.066138
  19 C :   -0.048694
  20 C :   -0.169944
  21 H :    0.036296
  22 C :    0.079048
  23 H :    0.026641
  24 H :    0.019875
  25 C :   -0.054042
  26 H :    0.044567
  27 H :    0.009505
  28 C :   -0.062797
  29 H :    0.024309
  30 H :    0.037412
  31 H :    0.036673
  32 H :    0.037037
  33 H :    0.051812
Sum of atomic charges:   -0.0000000

LOEWDIN ATOMIC CHARGES
----------------------
   0 S :    0.417160
   1 C :   -0.204803
   2 C :   -0.060830
   3 C :   -0.058500
   4 C :   -0.196909
   5 H :    0.022134
   6 C :   -0.030596
   7 H :    0.045400
   8 H :    0.021746
   9 C :   -0.043561
  10 H :    0.026511
  11 H :    0.017721
  12 C :   -0.064667
  13 H :    0.027924
  14 H :    0.025881
  15 H :    0.030101
  16 S :    0.426621
  17 C :   -0.197672
  18 C :   -0.075170
  19 C :   -0.057066
  20 C :   -0.202760
  21 H :    0.035126
  22 C :   -0.025118
  23 H :    0.028481
  24 H :    0.028494
  25 C :   -0.040930
  26 H :    0.028634
  27 H :    0.020134
  28 C :   -0.075070
  29 H :    0.026223
  30 H :    0.025579
  31 H :    0.034036
  32 H :    0.023768
  33 H :    0.021977

  Mayer bond orders larger than 0.100000
B(  0-S ,  1-C ) :   1.1300 B(  0-S ,  4-C ) :   1.1485 B(  1-C ,  2-C ) :   1.6177
B(  1-C , 32-H ) :   0.9646 B(  2-C ,  3-C ) :   1.2444 B(  2-C ,  6-C ) :   0.9983
B(  3-C ,  4-C ) :   1.5716 B(  3-C ,  5-H ) :   0.9972 B(  4-C , 20-C ) :   1.0437
B(  6-C ,  7-H ) :   0.9473 B(  6-C ,  8-H ) :   0.9434 B(  6-C ,  9-C ) :   1.0675
B(  9-C , 10-H ) :   0.9582 B(  9-C , 11-H ) :   0.9500 B(  9-C , 12-C ) :   1.0928
B( 12-C , 13-H ) :   0.9705 B( 12-C , 14-H ) :   0.9709 B( 12-C , 15-H ) :   0.9715
B( 16-S , 17-C ) :   1.1735 B( 16-S , 20-C ) :   1.1541 B( 17-C , 18-C ) :   1.5768
B( 17-C , 33-H ) :   0.9730 B( 18-C , 19-C ) :   1.2525 B( 18-C , 21-H ) :   0.9856
B( 19-C , 20-C ) :   1.5824 B( 19-C , 22-C ) :   1.0521 B( 22-C , 23-H ) :   0.9283
B( 22-C , 24-H ) :   0.9338 B( 22-C , 25-C ) :   1.0474 B( 25-C , 26-H ) :   0.9623
B( 25-C , 27-H ) :   0.9480 B( 25-C , 28-C ) :   1.0978 B( 28-C , 29-H ) :   0.9712
B( 28-C , 30-H ) :   0.9732 B( 28-C , 31-H ) :   0.9687

Dispersion correction           -0.013324151
FINAL SINGLE POINT ENERGY     -1339.873079534754

DIPOLE MOMENT
-------------
                                X             Y             Z
Electronic contribution:     -8.14918     -28.01045       1.04473
Nuclear contribution   :      8.38244      28.56124      -0.85765
                        -----------------------------------------
Total Dipole Moment    :      0.23325       0.55079       0.18708
                        -----------------------------------------
Magnitude (a.u.)       :      0.62671
Magnitude (Debye)      :      1.59298

Rotational constants in cm-1:     0.019199     0.007711     0.005986
Rotational constants in MHz :   575.576465   231.169783   179.466555

                             ****ORCA TERMINATED NORMALLY****
TOTAL RUN TIME: 0 days 0 hours 0 minutes 20 seconds 718 msec
