                         Program Version 4.2.1 -  RELEASE  -
|  1> ! wB97X-D3 SP def2-SVP
|  2> %pal
|  3> nprocs 24
|  4> end
|  5>
|  6> * xyz 0 1
|  7> S 	 -63.3228 	 7.98883 	 -66.491
|  8> C 	 -63.882 	 9.1906 	 -67.6601
|  9> C 	 -64.566 	 8.55429 	 -68.7078
| 10> C 	 -64.4348 	 7.13708 	 -68.605
| 11> C 	 -63.8365 	 6.67127 	 -67.4543
| 12> H 	 -64.8299 	 6.4949 	 -69.3509
| 13> C 	 -64.9799 	 9.35669 	 -69.9207
| 14> H 	 -64.656 	 8.83086 	 -70.8303
| 15> H 	 -64.4138 	 10.3331 	 -69.8863
| 16> C 	 -66.5024 	 9.66299 	 -69.9977
| 17> H 	 -66.9931 	 10.1246 	 -69.1492
| 18> H 	 -66.6446 	 10.3775 	 -70.7435
| 19> C 	 -67.2543 	 8.46929 	 -70.4083
| 20> H 	 -67.4305 	 7.71498 	 -69.6116
| 21> H 	 -68.1551 	 8.80743 	 -70.9454
| 22> H 	 -66.7574 	 7.80364 	 -71.1267
| 23> S 	 -63.6657 	 5.11508 	 -65.3171
| 24> C 	 -63.6291 	 3.42117 	 -65.4792
| 25> C 	 -63.705 	 3.05241 	 -66.771
| 26> C 	 -63.8512 	 4.10572 	 -67.7103
| 27> C 	 -63.725 	 5.30466 	 -67.0468
| 28> H 	 -63.7419 	 2.03915 	 -66.9242
| 29> C 	 -64.1685 	 3.79417 	 -69.1538
| 30> H 	 -63.588 	 2.88791 	 -69.3251
| 31> H 	 -63.7926 	 4.53612 	 -69.8996
| 32> C 	 -65.6103 	 3.3833 	 -69.5274
| 33> H 	 -66.2606 	 4.23623 	 -69.4704
| 34> H 	 -65.9993 	 2.72824 	 -68.8129
| 35> C 	 -65.8341 	 2.69469 	 -70.8617
| 36> H 	 -66.8864 	 2.36822 	 -71.0212
| 37> H 	 -65.2123 	 1.83197 	 -71.0125
| 38> H 	 -65.6831 	 3.33132 	 -71.662
| 39> H 	 -63.7332 	 10.2313 	 -67.4905
| 40> H 	 -63.5296 	 2.6784 	 -64.6505
| 41> *
| 42>
| 43>                          ****END OF INPUT****

CARTESIAN COORDINATES (ANGSTROEM)
---------------------------------
  S    -63.322800    7.988830  -66.491000
  C    -63.882000    9.190600  -67.660100
  C    -64.566000    8.554290  -68.707800
  C    -64.434800    7.137080  -68.605000
  C    -63.836500    6.671270  -67.454300
  H    -64.829900    6.494900  -69.350900
  C    -64.979900    9.356690  -69.920700
  H    -64.656000    8.830860  -70.830300
  H    -64.413800   10.333100  -69.886300
  C    -66.502400    9.662990  -69.997700
  H    -66.993100   10.124600  -69.149200
  H    -66.644600   10.377500  -70.743500
  C    -67.254300    8.469290  -70.408300
  H    -67.430500    7.714980  -69.611600
  H    -68.155100    8.807430  -70.945400
  H    -66.757400    7.803640  -71.126700
  S    -63.665700    5.115080  -65.317100
  C    -63.629100    3.421170  -65.479200
  C    -63.705000    3.052410  -66.771000
  C    -63.851200    4.105720  -67.710300
  C    -63.725000    5.304660  -67.046800
  H    -63.741900    2.039150  -66.924200
  C    -64.168500    3.794170  -69.153800
  H    -63.588000    2.887910  -69.325100
  H    -63.792600    4.536120  -69.899600
  C    -65.610300    3.383300  -69.527400
  H    -66.260600    4.236230  -69.470400
  H    -65.999300    2.728240  -68.812900
  C    -65.834100    2.694690  -70.861700
  H    -66.886400    2.368220  -71.021200
  H    -65.212300    1.831970  -71.012500
  H    -65.683100    3.331320  -71.662000
  H    -63.733200   10.231300  -67.490500
  H    -63.529600    2.678400  -64.650500

 Total Charge           Charge          ....    0
 Multiplicity           Mult            ....    1
 Number of Electrons    NEL             ....  134
 Basis Dimension        Dim             ....  322

ORBITAL ENERGIES
----------------

  NO   OCC          E(Eh)            E(eV)
   0   2.0000     -88.964524     -2420.8478
   1   2.0000     -88.963081     -2420.8085
   2   2.0000     -10.323963      -280.9293
   3   2.0000     -10.323709      -280.9224
   4   2.0000     -10.313272      -280.6384
   5   2.0000     -10.310384      -280.5598
   6   2.0000     -10.303511      -280.3728
   7   2.0000     -10.301529      -280.3189
   8   2.0000     -10.298383      -280.2332
   9   2.0000     -10.297677      -280.2140
  10   2.0000     -10.287778      -279.9447
  11   2.0000     -10.281722      -279.7799
  12   2.0000     -10.280874      -279.7568
  13   2.0000     -10.277091      -279.6539
  14   2.0000     -10.274432      -279.5815
  15   2.0000     -10.274402      -279.5807
  16   2.0000      -8.079707      -219.8600
  17   2.0000      -8.079284      -219.8485
  18   2.0000      -6.038222      -164.3084
  19   2.0000      -6.037732      -164.2950
  20   2.0000      -6.034048      -164.1948
  21   2.0000      -6.033675      -164.1846
  22   2.0000      -6.030540      -164.0993
  23   2.0000      -6.029928      -164.0827
  24   2.0000      -1.017575       -27.6896
  25   2.0000      -0.989091       -26.9145
  26   2.0000      -0.917371       -24.9629
  27   2.0000      -0.913099       -24.8467
  28   2.0000      -0.876797       -23.8589
  29   2.0000      -0.861447       -23.4412
  30   2.0000      -0.846344       -23.0302
  31   2.0000      -0.817848       -22.2548
  32   2.0000      -0.787778       -21.4365
  33   2.0000      -0.772063       -21.0089
  34   2.0000      -0.713205       -19.4073
  35   2.0000      -0.705627       -19.2011
  36   2.0000      -0.698064       -18.9953
  37   2.0000      -0.668446       -18.1894
  38   2.0000      -0.638453       -17.3732
  39   2.0000      -0.624023       -16.9805
  40   2.0000      -0.599809       -16.3216
  41   2.0000      -0.572847       -15.5879
  42   2.0000      -0.568621       -15.4730
  43   2.0000      -0.553295       -15.0559
  44   2.0000      -0.539815       -14.6891
  45   2.0000      -0.525818       -14.3082
  46   2.0000      -0.520741       -14.1701
  47   2.0000      -0.514519       -14.0008
  48   2.0000      -0.507833       -13.8188
  49   2.0000      -0.503970       -13.7137
  50   2.0000      -0.495924       -13.4948
  51   2.0000      -0.480166       -13.0660
  52   2.0000      -0.476846       -12.9756
  53   2.0000      -0.469427       -12.7738
  54   2.0000      -0.461801       -12.5662
  55   2.0000      -0.452060       -12.3012
  56   2.0000      -0.446588       -12.1523
  57   2.0000      -0.441525       -12.0145
  58   2.0000      -0.432986       -11.7821
  59   2.0000      -0.427602       -11.6356
  60   2.0000      -0.419988       -11.4284
  61   2.0000      -0.415058       -11.2943
  62   2.0000      -0.408526       -11.1165
  63   2.0000      -0.360623        -9.8131
  64   2.0000      -0.334678        -9.1070
  65   2.0000      -0.327877        -8.9220
  66   2.0000      -0.281361        -7.6562
  67   0.0000       0.023962         0.6520
  68   0.0000       0.084213         2.2916
  69   0.0000       0.105472         2.8700
  70   0.0000       0.116562         3.1718
  71   0.0000       0.128239         3.4896

MULLIKEN ATOMIC CHARGES
-----------------------
   0 S :    0.102531
   1 C :   -0.127995
   2 C :   -0.043846
   3 C :   -0.005753
   4 C :   -0.090378
   5 H :   -0.022858
   6 C :    0.003963
   7 H :    0.036781
   8 H :    0.033095
   9 C :   -0.000987
  10 H :    0.029961
  11 H :    0.005965
  12 C :   -0.080642
  13 H :    0.042626
  14 H :    0.036177
  15 H :    0.010936
  16 S :    0.097650
  17 C :   -0.091668
  18 C :   -0.014412
  19 C :   -0.026862
  20 C :   -0.117211
  21 H :   -0.023314
  22 C :    0.037659
  23 H :    0.014559
  24 H :    0.037751
  25 C :   -0.020876
  26 H :    0.016646
  27 H :    0.007477
  28 C :   -0.029325
  29 H :    0.034968
  30 H :    0.024853
  31 H :    0.009747
  32 H :    0.046197
  33 H :    0.066583
Sum of atomic charges:    0.0000000

LOEWDIN ATOMIC CHARGES
----------------------
   0 S :    0.411586
   1 C :   -0.186319
   2 C :   -0.059787
   3 C :   -0.069443
   4 C :   -0.203890
   5 H :    0.020226
   6 C :   -0.027042
   7 H :    0.032667
   8 H :    0.035725
   9 C :   -0.041745
  10 H :    0.029513
  11 H :    0.017029
  12 C :   -0.074589
  13 H :    0.028800
  14 H :    0.030789
  15 H :    0.019482
  16 S :    0.421141
  17 C :   -0.202723
  18 C :   -0.065855
  19 C :   -0.056582
  20 C :   -0.185117
  21 H :    0.017069
  22 C :   -0.034275
  23 H :    0.033049
  24 H :    0.032718
  25 C :   -0.035321
  26 H :    0.020539
  27 H :    0.018073
  28 C :   -0.058741
  29 H :    0.035822
  30 H :    0.022058
  31 H :    0.012937
  32 H :    0.021440
  33 H :    0.040765

  Mayer bond orders larger than 0.100000
B(  0-S ,  1-C ) :   1.1416 B(  0-S ,  4-C ) :   1.1549 B(  1-C ,  2-C ) :   1.5745
B(  1-C ,  4-C ) :   0.1017 B(  1-C , 32-H ) :   0.9762 B(  2-C ,  3-C ) :   1.2671
B(  2-C ,  6-C ) :   1.0159 B(  3-C ,  4-C ) :   1.5353 B(  3-C ,  5-H ) :   1.0006
B(  4-C , 20-C ) :   1.0845 B(  6-C ,  7-H ) :   0.9513 B(  6-C ,  8-H ) :   0.9487
B(  6-C ,  9-C ) :   1.0699 B(  9-C , 10-H ) :   0.9509 B(  9-C , 11-H ) :   0.9520
B(  9-C , 12-C ) :   1.0820 B( 12-C , 13-H ) :   0.9719 B( 12-C , 14-H ) :   0.9723
B( 12-C , 15-H ) :   0.9721 B( 16-S , 17-C ) :   1.1454 B( 16-S , 20-C ) :   1.1458
B( 17-C , 18-C ) :   1.6378 B( 17-C , 33-H ) :   0.9587 B( 18-C , 19-C ) :   1.2186
B( 18-C , 21-H ) :   1.0029 B( 19-C , 20-C ) :   1.5977 B( 19-C , 22-C ) :   1.0481
B( 22-C , 23-H ) :   0.9232 B( 22-C , 24-H ) :   0.9350 B( 22-C , 25-C ) :   1.0688
B( 25-C , 26-H ) :   0.9491 B( 25-C , 27-H ) :   0.9484 B( 25-C , 28-C ) :   1.0904
B( 28-C , 29-H ) :   0.9707 B( 28-C , 30-H ) :   0.9737 B( 28-C , 31-H ) :   0.9744

Dispersion correction           -0.014095865
FINAL SINGLE POINT ENERGY     -1339.871856517926

DIPOLE MOMENT
-------------
                                X             Y             Z
Electronic contribution:     16.70346       3.43416      26.95503
Nuclear contribution   :    -17.05241      -3.61551     -27.55356
                        -----------------------------------------
Total Dipole Moment    :     -0.34895      -0.18135      -0.59853
                        -----------------------------------------
Magnitude (a.u.)       :      0.71617
Magnitude (Debye)      :      1.82036

Rotational constants in cm-1:     0.016125     0.010349     0.006719
Rotational constants in MHz :   483.402494   310.250753   201.439080

                             ****ORCA TERMINATED NORMALLY****
TOTAL RUN TIME: 0 days 0 hours 0 minutes 20 seconds 881 msec
