                         Program Version 4.2.1 -  RELEASE  -
|  1> ! wB97X-D3 SP def2-SVP
|  2> %pal
|  3> nprocs 24
|  4> end
|  5>
|  6> * xyz 0 1
|  7> S 	 -67.6883 	 16.1339 	 -69.5294
|  8> C 	 -67.2502 	 16.0671 	 -67.8527
|  9> C 	 -68.0412 	 16.8657 	 -67.0457
| 10> C 	 -68.9017 	 17.6852 	 -67.837
| 11> C 	 -68.7574 	 17.4969 	 -69.2176
| 12> H 	 -69.5836 	 18.511 	 -67.5201
| 13> C 	 -67.8441 	 17.156 	 -65.5018
| 14> H 	 -68.4124 	 16.3091 	 -65.0187
| 15> H 	 -68.4977 	 17.9565 	 -65.2327
| 16> C 	 -66.3919 	 17.2571 	 -64.8992
| 17> H 	 -66.4905 	 17.3572 	 -63.8703
| 18> H 	 -65.8448 	 16.3675 	 -65.1756
| 19> C 	 -65.6096 	 18.4751 	 -65.4238
| 20> H 	 -65.8151 	 19.4245 	 -64.9624
| 21> H 	 -64.5702 	 18.2601 	 -65.2406
| 22> H 	 -65.7055 	 18.5923 	 -66.4975
| 23> S 	 -70.2796 	 17.2592 	 -71.4199
| 24> C 	 -70.3605 	 18.6695 	 -72.4029
| 25> C 	 -69.8908 	 19.851 	 -71.8465
| 26> C 	 -69.4028 	 19.594 	 -70.5285
| 27> C 	 -69.3582 	 18.2172 	 -70.296
| 28> H 	 -69.8451 	 20.7946 	 -72.3758
| 29> C 	 -68.7652 	 20.6894 	 -69.6494
| 30> H 	 -67.8382 	 21.0187 	 -70.1488
| 31> H 	 -68.3408 	 20.233 	 -68.7263
| 32> C 	 -69.6163 	 21.8136 	 -69.157
| 33> H 	 -69.108 	 22.2979 	 -68.3418
| 34> H 	 -70.4922 	 21.4709 	 -68.7745
| 35> C 	 -69.8784 	 22.8653 	 -70.2372
| 36> H 	 -70.4606 	 22.5323 	 -71.1005
| 37> H 	 -68.8794 	 23.1095 	 -70.5718
| 38> H 	 -70.3052 	 23.775 	 -69.772
| 39> H 	 -66.3801 	 15.5371 	 -67.5198
| 40> H 	 -70.7725 	 18.5859 	 -73.4711
| 41> *
| 42>
| 43>                          ****END OF INPUT****

CARTESIAN COORDINATES (ANGSTROEM)
---------------------------------
  S    -67.688300   16.133900  -69.529400
  C    -67.250200   16.067100  -67.852700
  C    -68.041200   16.865700  -67.045700
  C    -68.901700   17.685200  -67.837000
  C    -68.757400   17.496900  -69.217600
  H    -69.583600   18.511000  -67.520100
  C    -67.844100   17.156000  -65.501800
  H    -68.412400   16.309100  -65.018700
  H    -68.497700   17.956500  -65.232700
  C    -66.391900   17.257100  -64.899200
  H    -66.490500   17.357200  -63.870300
  H    -65.844800   16.367500  -65.175600
  C    -65.609600   18.475100  -65.423800
  H    -65.815100   19.424500  -64.962400
  H    -64.570200   18.260100  -65.240600
  H    -65.705500   18.592300  -66.497500
  S    -70.279600   17.259200  -71.419900
  C    -70.360500   18.669500  -72.402900
  C    -69.890800   19.851000  -71.846500
  C    -69.402800   19.594000  -70.528500
  C    -69.358200   18.217200  -70.296000
  H    -69.845100   20.794600  -72.375800
  C    -68.765200   20.689400  -69.649400
  H    -67.838200   21.018700  -70.148800
  H    -68.340800   20.233000  -68.726300
  C    -69.616300   21.813600  -69.157000
  H    -69.108000   22.297900  -68.341800
  H    -70.492200   21.470900  -68.774500
  C    -69.878400   22.865300  -70.237200
  H    -70.460600   22.532300  -71.100500
  H    -68.879400   23.109500  -70.571800
  H    -70.305200   23.775000  -69.772000
  H    -66.380100   15.537100  -67.519800
  H    -70.772500   18.585900  -73.471100

 Total Charge           Charge          ....    0
 Multiplicity           Mult            ....    1
 Number of Electrons    NEL             ....  134
 Basis Dimension        Dim             ....  322

ORBITAL ENERGIES
----------------

  NO   OCC          E(Eh)            E(eV)
   0   2.0000     -88.967830     -2420.9377
   1   2.0000     -88.964532     -2420.8480
   2   2.0000     -10.323743      -280.9233
   3   2.0000     -10.320995      -280.8486
   4   2.0000     -10.318867      -280.7906
   5   2.0000     -10.310563      -280.5647
   6   2.0000     -10.305525      -280.4276
   7   2.0000     -10.305349      -280.4228
   8   2.0000     -10.299256      -280.2570
   9   2.0000     -10.296745      -280.1887
  10   2.0000     -10.294935      -280.1394
  11   2.0000     -10.290948      -280.0309
  12   2.0000     -10.289352      -279.9875
  13   2.0000     -10.276598      -279.6405
  14   2.0000     -10.275047      -279.5982
  15   2.0000     -10.272199      -279.5207
  16   2.0000      -8.083510      -219.9635
  17   2.0000      -8.079481      -219.8539
  18   2.0000      -6.041746      -164.4043
  19   2.0000      -6.038154      -164.3065
  20   2.0000      -6.037843      -164.2981
  21   2.0000      -6.034225      -164.1996
  22   2.0000      -6.034030      -164.1943
  23   2.0000      -6.030312      -164.0931
  24   2.0000      -1.008830       -27.4517
  25   2.0000      -0.983128       -26.7523
  26   2.0000      -0.916053       -24.9271
  27   2.0000      -0.902726       -24.5644
  28   2.0000      -0.867675       -23.6106
  29   2.0000      -0.854894       -23.2629
  30   2.0000      -0.845960       -23.0197
  31   2.0000      -0.806083       -21.9346
  32   2.0000      -0.785878       -21.3848
  33   2.0000      -0.771107       -20.9829
  34   2.0000      -0.708142       -19.2695
  35   2.0000      -0.706933       -19.2366
  36   2.0000      -0.687548       -18.7091
  37   2.0000      -0.662112       -18.0170
  38   2.0000      -0.639040       -17.3892
  39   2.0000      -0.609075       -16.5738
  40   2.0000      -0.595088       -16.1932
  41   2.0000      -0.575008       -15.6467
  42   2.0000      -0.551832       -15.0161
  43   2.0000      -0.549091       -14.9415
  44   2.0000      -0.540624       -14.7111
  45   2.0000      -0.537787       -14.6339
  46   2.0000      -0.516923       -14.0662
  47   2.0000      -0.509944       -13.8763
  48   2.0000      -0.502758       -13.6807
  49   2.0000      -0.490071       -13.3355
  50   2.0000      -0.482973       -13.1424
  51   2.0000      -0.481348       -13.0982
  52   2.0000      -0.475586       -12.9414
  53   2.0000      -0.462474       -12.5846
  54   2.0000      -0.459942       -12.5157
  55   2.0000      -0.454692       -12.3728
  56   2.0000      -0.443736       -12.0747
  57   2.0000      -0.440634       -11.9903
  58   2.0000      -0.433042       -11.7837
  59   2.0000      -0.427430       -11.6310
  60   2.0000      -0.422522       -11.4974
  61   2.0000      -0.419492       -11.4150
  62   2.0000      -0.412619       -11.2279
  63   2.0000      -0.340811        -9.2740
  64   2.0000      -0.335197        -9.1212
  65   2.0000      -0.328468        -8.9381
  66   2.0000      -0.284459        -7.7405
  67   0.0000       0.030468         0.8291
  68   0.0000       0.064506         1.7553
  69   0.0000       0.108740         2.9590
  70   0.0000       0.121771         3.3135
  71   0.0000       0.128719         3.5026

MULLIKEN ATOMIC CHARGES
-----------------------
   0 S :    0.116213
   1 C :   -0.136436
   2 C :   -0.075766
   3 C :    0.022278
   4 C :   -0.188911
   5 H :    0.030582
   6 C :    0.044804
   7 H :    0.039979
   8 H :    0.008041
   9 C :   -0.020573
  10 H :    0.023755
  11 H :    0.029910
  12 C :   -0.053026
  13 H :    0.028239
  14 H :    0.025212
  15 H :    0.038298
  16 S :    0.130650
  17 C :   -0.117557
  18 C :   -0.037066
  19 C :   -0.005443
  20 C :   -0.178277
  21 H :    0.026891
  22 C :    0.014667
  23 H :    0.035662
  24 H :    0.018488
  25 C :    0.002458
  26 H :    0.021757
  27 H :    0.000589
  28 C :   -0.056713
  29 H :    0.042887
  30 H :    0.011616
  31 H :    0.036867
  32 H :    0.043859
  33 H :    0.076065
Sum of atomic charges:    0.0000000

LOEWDIN ATOMIC CHARGES
----------------------
   0 S :    0.406947
   1 C :   -0.202652
   2 C :   -0.064332
   3 C :   -0.069112
   4 C :   -0.197395
   5 H :    0.037972
   6 C :   -0.033010
   7 H :    0.039499
   8 H :    0.021901
   9 C :   -0.025973
  10 H :    0.020473
  11 H :    0.024465
  12 C :   -0.064499
  13 H :    0.021697
  14 H :    0.025180
  15 H :    0.026330
  16 S :    0.422125
  17 C :   -0.202295
  18 C :   -0.072699
  19 C :   -0.048212
  20 C :   -0.206115
  21 H :    0.033891
  22 C :   -0.036254
  23 H :    0.033508
  24 H :    0.033411
  25 C :   -0.031145
  26 H :    0.028040
  27 H :    0.010257
  28 C :   -0.064114
  29 H :    0.023292
  30 H :    0.020401
  31 H :    0.029018
  32 H :    0.021925
  33 H :    0.037475

  Mayer bond orders larger than 0.100000
B(  0-S ,  1-C ) :   1.1466 B(  0-S ,  4-C ) :   1.1498 B(  1-C ,  2-C ) :   1.6063
B(  1-C ,  4-C ) :   0.1037 B(  1-C , 32-H ) :   0.9723 B(  2-C ,  3-C ) :   1.2356
B(  2-C ,  6-C ) :   1.0034 B(  3-C ,  4-C ) :   1.5751 B(  3-C ,  5-H ) :   0.9841
B(  4-C , 20-C ) :   1.0577 B(  6-C ,  7-H ) :   0.9346 B(  6-C ,  8-H ) :   0.9496
B(  6-C ,  9-C ) :   1.0687 B(  9-C , 10-H ) :   0.9531 B(  9-C , 11-H ) :   0.9582
B(  9-C , 12-C ) :   1.0761 B( 12-C , 13-H ) :   0.9776 B( 12-C , 14-H ) :   0.9752
B( 12-C , 15-H ) :   0.9779 B( 16-S , 17-C ) :   1.1539 B( 16-S , 20-C ) :   1.1571
B( 17-C , 18-C ) :   1.6168 B( 17-C , 33-H ) :   0.9544 B( 18-C , 19-C ) :   1.2229
B( 18-C , 21-H ) :   0.9882 B( 19-C , 20-C ) :   1.5976 B( 19-C , 22-C ) :   1.0374
B( 22-C , 23-H ) :   0.9386 B( 22-C , 24-H ) :   0.9285 B( 22-C , 25-C ) :   1.0811
B( 25-C , 26-H ) :   0.9510 B( 25-C , 27-H ) :   0.9463 B( 25-C , 28-C ) :   1.0817
B( 28-C , 29-H ) :   0.9731 B( 28-C , 30-H ) :   0.9750 B( 28-C , 31-H ) :   0.9714

Dispersion correction           -0.014505224
FINAL SINGLE POINT ENERGY     -1339.866114329627

DIPOLE MOMENT
-------------
                                X             Y             Z
Electronic contribution:     -7.69424     -21.01580     -18.05888
Nuclear contribution   :      7.90077      21.54076      18.51561
                        -----------------------------------------
Total Dipole Moment    :      0.20653       0.52496       0.45673
                        -----------------------------------------
Magnitude (a.u.)       :      0.72583
Magnitude (Debye)      :      1.84493

Rotational constants in cm-1:     0.018812     0.008921     0.006507
Rotational constants in MHz :   563.967938   267.449247   195.078956

                             ****ORCA TERMINATED NORMALLY****
TOTAL RUN TIME: 0 days 0 hours 0 minutes 21 seconds 757 msec
