                         Program Version 4.2.1 -  RELEASE  -
|  1> ! wB97X-D3 SP def2-SVP
|  2> %pal
|  3> nprocs 24
|  4> end
|  5>
|  6> * xyz 0 1
|  7> S 	 -106.875 	 15.0166 	 -121.396
|  8> C 	 -107.685 	 14.1185 	 -120.119
|  9> C 	 -107.014 	 12.9598 	 -119.85
| 10> C 	 -106.106 	 12.6113 	 -120.884
| 11> C 	 -105.834 	 13.6463 	 -121.736
| 12> H 	 -105.544 	 11.6735 	 -120.995
| 13> C 	 -107.197 	 12.0737 	 -118.611
| 14> H 	 -107.708 	 11.1682 	 -118.889
| 15> H 	 -107.789 	 12.6229 	 -117.86
| 16> C 	 -105.951 	 11.6519 	 -117.829
| 17> H 	 -105.163 	 12.3925 	 -117.989
| 18> H 	 -106.014 	 11.7527 	 -116.709
| 19> C 	 -105.322 	 10.3496 	 -118.217
| 20> H 	 -106.051 	 9.48494 	 -118.041
| 21> H 	 -104.907 	 10.3154 	 -119.243
| 22> H 	 -104.435 	 10.1706 	 -117.59
| 23> S 	 -103.634 	 12.4364 	 -122.637
| 24> C 	 -102.988 	 12.6856 	 -124.255
| 25> C 	 -103.815 	 13.5188 	 -124.929
| 26> C 	 -104.86 	 14.1264 	 -124.165
| 27> C 	 -104.938 	 13.5208 	 -122.896
| 28> H 	 -103.6 	 13.8533 	 -125.909
| 29> C 	 -105.637 	 15.2757 	 -124.801
| 30> H 	 -104.838 	 15.983 	 -125.159
| 31> H 	 -106.282 	 15.713 	 -124.06
| 32> C 	 -106.546 	 14.8694 	 -125.957
| 33> H 	 -107.02 	 13.935 	 -125.633
| 34> H 	 -105.908 	 14.6343 	 -126.844
| 35> C 	 -107.671 	 15.9403 	 -126.327
| 36> H 	 -108.226 	 15.5813 	 -127.166
| 37> H 	 -107.295 	 16.9286 	 -126.602
| 38> H 	 -108.527 	 15.9451 	 -125.608
| 39> H 	 -108.352 	 14.5618 	 -119.441
| 40> H 	 -102.062 	 12.2342 	 -124.591
| 41> *
| 42>
| 43>                          ****END OF INPUT****

CARTESIAN COORDINATES (ANGSTROEM)
---------------------------------
  S    -106.875000   15.016600  -121.396000
  C    -107.685000   14.118500  -120.119000
  C    -107.014000   12.959800  -119.850000
  C    -106.106000   12.611300  -120.884000
  C    -105.834000   13.646300  -121.736000
  H    -105.544000   11.673500  -120.995000
  C    -107.197000   12.073700  -118.611000
  H    -107.708000   11.168200  -118.889000
  H    -107.789000   12.622900  -117.860000
  C    -105.951000   11.651900  -117.829000
  H    -105.163000   12.392500  -117.989000
  H    -106.014000   11.752700  -116.709000
  C    -105.322000   10.349600  -118.217000
  H    -106.051000    9.484940  -118.041000
  H    -104.907000   10.315400  -119.243000
  H    -104.435000   10.170600  -117.590000
  S    -103.634000   12.436400  -122.637000
  C    -102.988000   12.685600  -124.255000
  C    -103.815000   13.518800  -124.929000
  C    -104.860000   14.126400  -124.165000
  C    -104.938000   13.520800  -122.896000
  H    -103.600000   13.853300  -125.909000
  C    -105.637000   15.275700  -124.801000
  H    -104.838000   15.983000  -125.159000
  H    -106.282000   15.713000  -124.060000
  C    -106.546000   14.869400  -125.957000
  H    -107.020000   13.935000  -125.633000
  H    -105.908000   14.634300  -126.844000
  C    -107.671000   15.940300  -126.327000
  H    -108.226000   15.581300  -127.166000
  H    -107.295000   16.928600  -126.602000
  H    -108.527000   15.945100  -125.608000
  H    -108.352000   14.561800  -119.441000
  H    -102.062000   12.234200  -124.591000

 Total Charge           Charge          ....    0
 Multiplicity           Mult            ....    1
 Number of Electrons    NEL             ....  134
 Basis Dimension        Dim             ....  322

ORBITAL ENERGIES
----------------

  NO   OCC          E(Eh)            E(eV)
   0   2.0000     -88.967509     -2420.9290
   1   2.0000     -88.963602     -2420.8227
   2   2.0000     -10.330719      -281.1132
   3   2.0000     -10.329747      -281.0867
   4   2.0000     -10.316767      -280.7335
   5   2.0000     -10.309250      -280.5290
   6   2.0000     -10.304328      -280.3950
   7   2.0000     -10.301545      -280.3193
   8   2.0000     -10.293071      -280.0887
   9   2.0000     -10.292997      -280.0867
  10   2.0000     -10.292706      -280.0788
  11   2.0000     -10.290634      -280.0224
  12   2.0000     -10.288561      -279.9660
  13   2.0000     -10.286329      -279.9052
  14   2.0000     -10.283251      -279.8215
  15   2.0000     -10.282651      -279.8052
  16   2.0000      -8.081641      -219.9126
  17   2.0000      -8.078939      -219.8391
  18   2.0000      -6.040275      -164.3642
  19   2.0000      -6.037505      -164.2889
  20   2.0000      -6.036345      -164.2573
  21   2.0000      -6.033308      -164.1747
  22   2.0000      -6.032203      -164.1446
  23   2.0000      -6.029667      -164.0756
  24   2.0000      -1.011180       -27.5156
  25   2.0000      -0.988455       -26.8972
  26   2.0000      -0.911454       -24.8019
  27   2.0000      -0.905593       -24.6424
  28   2.0000      -0.875700       -23.8290
  29   2.0000      -0.850558       -23.1449
  30   2.0000      -0.839972       -22.8568
  31   2.0000      -0.816375       -22.2147
  32   2.0000      -0.784404       -21.3447
  33   2.0000      -0.773629       -21.0515
  34   2.0000      -0.705916       -19.2090
  35   2.0000      -0.695589       -18.9280
  36   2.0000      -0.690264       -18.7830
  37   2.0000      -0.671445       -18.2709
  38   2.0000      -0.635719       -17.2988
  39   2.0000      -0.618388       -16.8272
  40   2.0000      -0.600172       -16.3315
  41   2.0000      -0.571729       -15.5575
  42   2.0000      -0.565408       -15.3855
  43   2.0000      -0.548029       -14.9126
  44   2.0000      -0.537673       -14.6308
  45   2.0000      -0.521943       -14.2028
  46   2.0000      -0.517680       -14.0868
  47   2.0000      -0.509550       -13.8656
  48   2.0000      -0.507762       -13.8169
  49   2.0000      -0.499226       -13.5846
  50   2.0000      -0.490991       -13.3605
  51   2.0000      -0.485519       -13.2116
  52   2.0000      -0.475940       -12.9510
  53   2.0000      -0.464644       -12.6436
  54   2.0000      -0.458444       -12.4749
  55   2.0000      -0.447047       -12.1648
  56   2.0000      -0.438801       -11.9404
  57   2.0000      -0.437077       -11.8935
  58   2.0000      -0.432183       -11.7603
  59   2.0000      -0.427019       -11.6198
  60   2.0000      -0.416795       -11.3416
  61   2.0000      -0.414919       -11.2905
  62   2.0000      -0.404211       -10.9991
  63   2.0000      -0.361760        -9.8440
  64   2.0000      -0.330902        -9.0043
  65   2.0000      -0.328989        -8.9522
  66   2.0000      -0.286700        -7.8015
  67   0.0000       0.025193         0.6855
  68   0.0000       0.083465         2.2712
  69   0.0000       0.113964         3.1011
  70   0.0000       0.118413         3.2222
  71   0.0000       0.126223         3.4347

MULLIKEN ATOMIC CHARGES
-----------------------
   0 S :    0.094349
   1 C :   -0.099712
   2 C :   -0.076239
   3 C :   -0.040357
   4 C :   -0.077070
   5 H :    0.032599
   6 C :    0.102945
   7 H :    0.034776
   8 H :    0.020713
   9 C :   -0.104752
  10 H :    0.025337
  11 H :    0.038055
  12 C :   -0.081958
  13 H :    0.041375
  14 H :    0.040065
  15 H :    0.033182
  16 S :    0.076123
  17 C :   -0.080913
  18 C :   -0.009475
  19 C :   -0.080253
  20 C :   -0.149839
  21 H :    0.000634
  22 C :    0.088702
  23 H :    0.045714
  24 H :    0.009478
  25 C :   -0.106506
  26 H :    0.039758
  27 H :    0.035396
  28 C :   -0.046466
  29 H :    0.020791
  30 H :    0.041492
  31 H :    0.040060
  32 H :    0.031207
  33 H :    0.060783
Sum of atomic charges:    0.0000000

LOEWDIN ATOMIC CHARGES
----------------------
   0 S :    0.398275
   1 C :   -0.187612
   2 C :   -0.054978
   3 C :   -0.078403
   4 C :   -0.184109
   5 H :    0.026543
   6 C :   -0.028976
   7 H :    0.030654
   8 H :    0.034741
   9 C :   -0.058333
  10 H :    0.027334
  11 H :    0.033386
  12 C :   -0.074817
  13 H :    0.028491
  14 H :    0.025543
  15 H :    0.029466
  16 S :    0.419272
  17 C :   -0.179457
  18 C :   -0.065112
  19 C :   -0.061569
  20 C :   -0.198323
  21 H :    0.023015
  22 C :   -0.035283
  23 H :    0.039703
  24 H :    0.017111
  25 C :   -0.040298
  26 H :    0.029036
  27 H :    0.023817
  28 C :   -0.072411
  29 H :    0.024170
  30 H :    0.026257
  31 H :    0.033744
  32 H :    0.017529
  33 H :    0.031594

  Mayer bond orders larger than 0.100000
B(  0-S ,  1-C ) :   1.1224 B(  0-S ,  4-C ) :   1.1359 B(  1-C ,  2-C ) :   1.6455
B(  1-C , 32-H ) :   0.9659 B(  2-C ,  3-C ) :   1.2127 B(  2-C ,  6-C ) :   1.0341
B(  3-C ,  4-C ) :   1.5908 B(  3-C ,  5-H ) :   0.9756 B(  4-C , 20-C ) :   1.0473
B(  6-C ,  7-H ) :   0.9434 B(  6-C ,  8-H ) :   0.9384 B(  6-C ,  9-C ) :   1.0453
B(  9-C , 10-H ) :   0.9522 B(  9-C , 11-H ) :   0.9590 B(  9-C , 12-C ) :   1.0887
B( 12-C , 13-H ) :   0.9721 B( 12-C , 14-H ) :   0.9729 B( 12-C , 15-H ) :   0.9677
B( 16-S , 17-C ) :   1.1379 B( 16-S , 20-C ) :   1.1624 B( 17-C , 18-C ) :   1.6047
B( 17-C , 33-H ) :   0.9736 B( 18-C , 19-C ) :   1.2470 B( 18-C , 21-H ) :   0.9908
B( 19-C , 20-C ) :   1.5612 B( 19-C , 22-C ) :   1.0449 B( 22-C , 23-H ) :   0.9302
B( 22-C , 24-H ) :   0.9327 B( 22-C , 25-C ) :   1.0581 B( 25-C , 26-H ) :   0.9574
B( 25-C , 27-H ) :   0.9557 B( 25-C , 28-C ) :   1.0837 B( 28-C , 29-H ) :   0.9726
B( 28-C , 30-H ) :   0.9765 B( 28-C , 31-H ) :   0.9724

Dispersion correction           -0.013935433
FINAL SINGLE POINT ENERGY     -1339.877368874608

DIPOLE MOMENT
-------------
                                X             Y             Z
Electronic contribution:      6.74891       3.13600      -0.15686
Nuclear contribution   :     -6.71999      -3.18070       0.12415
                        -----------------------------------------
Total Dipole Moment    :      0.02892      -0.04470      -0.03271
                        -----------------------------------------
Magnitude (a.u.)       :      0.06248
Magnitude (Debye)      :      0.15881

Rotational constants in cm-1:     0.021176     0.008404     0.006335
Rotational constants in MHz :   634.834665   251.950850   189.911269

                             ****ORCA TERMINATED NORMALLY****
TOTAL RUN TIME: 0 days 0 hours 0 minutes 21 seconds 205 msec
