                         Program Version 4.2.1 -  RELEASE  -
|  1> ! wB97X-D3 SP def2-SVP
|  2> %pal
|  3> nprocs 24
|  4> end
|  5>
|  6> * xyz 0 1
|  7> S 	 -86.348 	 -3.86476 	 -63.4665
|  8> C 	 -87.044 	 -2.98756 	 -64.7795
|  9> C 	 -86.2548 	 -1.94773 	 -65.1991
| 10> C 	 -84.9593 	 -1.9794 	 -64.5437
| 11> C 	 -84.8313 	 -3.02084 	 -63.6373
| 12> H 	 -84.0753 	 -1.42692 	 -64.6888
| 13> C 	 -86.6049 	 -0.857581 	 -66.2444
| 14> H 	 -86.0438 	 -0.049501 	 -65.8009
| 15> H 	 -87.6879 	 -0.647708 	 -66.2336
| 16> C 	 -86.155 	 -1.2163 	 -67.66
| 17> H 	 -86.3596 	 -0.382795 	 -68.3158
| 18> H 	 -85.113 	 -1.41358 	 -67.6798
| 19> C 	 -86.9309 	 -2.52154 	 -68.1056
| 20> H 	 -86.5839 	 -2.80467 	 -69.0888
| 21> H 	 -86.8483 	 -3.38806 	 -67.4526
| 22> H 	 -87.9833 	 -2.14647 	 -68.1987
| 23> S 	 -84.0675 	 -3.68561 	 -60.9397
| 24> C 	 -82.4156 	 -3.49041 	 -60.4491
| 25> C 	 -81.6407 	 -3.23217 	 -61.5519
| 26> C 	 -82.3788 	 -2.93684 	 -62.7658
| 27> C 	 -83.6839 	 -3.30361 	 -62.6576
| 28> H 	 -80.5668 	 -3.24445 	 -61.4654
| 29> C 	 -81.6047 	 -2.60457 	 -64.0457
| 30> H 	 -82.3647 	 -2.81704 	 -64.8437
| 31> H 	 -80.853 	 -3.34039 	 -64.3231
| 32> C 	 -81.019 	 -1.28911 	 -64.1373
| 33> H 	 -80.3065 	 -1.1021 	 -63.3057
| 34> H 	 -81.8558 	 -0.586756 	 -63.9485
| 35> C 	 -80.4959 	 -0.989991 	 -65.5109
| 36> H 	 -79.6728 	 -1.64881 	 -65.9055
| 37> H 	 -80.3459 	 0.103896 	 -65.7249
| 38> H 	 -81.3165 	 -1.20074 	 -66.2265
| 39> H 	 -88.0114 	 -3.28091 	 -65.1957
| 40> H 	 -81.966 	 -3.77117 	 -59.4512
| 41> *
| 42>
| 43>                          ****END OF INPUT****

CARTESIAN COORDINATES (ANGSTROEM)
---------------------------------
  S    -86.348000   -3.864760  -63.466500
  C    -87.044000   -2.987560  -64.779500
  C    -86.254800   -1.947730  -65.199100
  C    -84.959300   -1.979400  -64.543700
  C    -84.831300   -3.020840  -63.637300
  H    -84.075300   -1.426920  -64.688800
  C    -86.604900   -0.857581  -66.244400
  H    -86.043800   -0.049501  -65.800900
  H    -87.687900   -0.647708  -66.233600
  C    -86.155000   -1.216300  -67.660000
  H    -86.359600   -0.382795  -68.315800
  H    -85.113000   -1.413580  -67.679800
  C    -86.930900   -2.521540  -68.105600
  H    -86.583900   -2.804670  -69.088800
  H    -86.848300   -3.388060  -67.452600
  H    -87.983300   -2.146470  -68.198700
  S    -84.067500   -3.685610  -60.939700
  C    -82.415600   -3.490410  -60.449100
  C    -81.640700   -3.232170  -61.551900
  C    -82.378800   -2.936840  -62.765800
  C    -83.683900   -3.303610  -62.657600
  H    -80.566800   -3.244450  -61.465400
  C    -81.604700   -2.604570  -64.045700
  H    -82.364700   -2.817040  -64.843700
  H    -80.853000   -3.340390  -64.323100
  C    -81.019000   -1.289110  -64.137300
  H    -80.306500   -1.102100  -63.305700
  H    -81.855800   -0.586756  -63.948500
  C    -80.495900   -0.989991  -65.510900
  H    -79.672800   -1.648810  -65.905500
  H    -80.345900    0.103896  -65.724900
  H    -81.316500   -1.200740  -66.226500
  H    -88.011400   -3.280910  -65.195700
  H    -81.966000   -3.771170  -59.451200

 Total Charge           Charge          ....    0
 Multiplicity           Mult            ....    1
 Number of Electrons    NEL             ....  134
 Basis Dimension        Dim             ....  322

ORBITAL ENERGIES
----------------

  NO   OCC          E(Eh)            E(eV)
   0   2.0000     -88.965578     -2420.8765
   1   2.0000     -88.964614     -2420.8502
   2   2.0000     -10.336929      -281.2821
   3   2.0000     -10.335430      -281.2414
   4   2.0000     -10.321736      -280.8687
   5   2.0000     -10.313677      -280.6494
   6   2.0000     -10.306304      -280.4488
   7   2.0000     -10.304144      -280.3900
   8   2.0000     -10.296028      -280.1692
   9   2.0000     -10.295057      -280.1428
  10   2.0000     -10.293584      -280.1026
  11   2.0000     -10.290361      -280.0150
  12   2.0000     -10.288145      -279.9547
  13   2.0000     -10.287129      -279.9270
  14   2.0000     -10.286795      -279.9179
  15   2.0000     -10.281092      -279.7627
  16   2.0000      -8.080110      -219.8710
  17   2.0000      -8.079917      -219.8657
  18   2.0000      -6.038752      -164.3228
  19   2.0000      -6.038554      -164.3174
  20   2.0000      -6.034545      -164.2083
  21   2.0000      -6.034494      -164.2069
  22   2.0000      -6.030872      -164.1084
  23   2.0000      -6.030325      -164.0935
  24   2.0000      -1.005686       -27.3661
  25   2.0000      -0.986769       -26.8514
  26   2.0000      -0.925818       -25.1928
  27   2.0000      -0.910797       -24.7840
  28   2.0000      -0.865984       -23.5646
  29   2.0000      -0.850639       -23.1471
  30   2.0000      -0.843231       -22.9455
  31   2.0000      -0.812779       -22.1168
  32   2.0000      -0.782593       -21.2954
  33   2.0000      -0.777072       -21.1452
  34   2.0000      -0.705503       -19.1977
  35   2.0000      -0.698456       -19.0060
  36   2.0000      -0.689891       -18.7729
  37   2.0000      -0.661757       -18.0073
  38   2.0000      -0.643918       -17.5219
  39   2.0000      -0.619454       -16.8562
  40   2.0000      -0.600044       -16.3280
  41   2.0000      -0.572930       -15.5902
  42   2.0000      -0.568868       -15.4797
  43   2.0000      -0.551920       -15.0185
  44   2.0000      -0.542137       -14.7523
  45   2.0000      -0.528491       -14.3810
  46   2.0000      -0.517572       -14.0838
  47   2.0000      -0.515637       -14.0312
  48   2.0000      -0.502869       -13.6838
  49   2.0000      -0.494576       -13.4581
  50   2.0000      -0.491531       -13.3752
  51   2.0000      -0.481719       -13.1082
  52   2.0000      -0.467996       -12.7348
  53   2.0000      -0.466713       -12.6999
  54   2.0000      -0.464926       -12.6513
  55   2.0000      -0.447873       -12.1873
  56   2.0000      -0.440515       -11.9870
  57   2.0000      -0.439090       -11.9483
  58   2.0000      -0.436076       -11.8662
  59   2.0000      -0.424698       -11.5566
  60   2.0000      -0.419058       -11.4031
  61   2.0000      -0.413218       -11.2442
  62   2.0000      -0.408831       -11.1249
  63   2.0000      -0.358568        -9.7571
  64   2.0000      -0.332573        -9.0498
  65   2.0000      -0.328748        -8.9457
  66   2.0000      -0.293980        -7.9996
  67   0.0000       0.028549         0.7769
  68   0.0000       0.074698         2.0326
  69   0.0000       0.110052         2.9947
  70   0.0000       0.116079         3.1587
  71   0.0000       0.124116         3.3774

MULLIKEN ATOMIC CHARGES
-----------------------
   0 S :    0.098612
   1 C :   -0.130557
   2 C :   -0.094713
   3 C :    0.042620
   4 C :   -0.161667
   5 H :   -0.022995
   6 C :    0.068681
   7 H :    0.028161
   8 H :    0.032230
   9 C :   -0.035827
  10 H :    0.035743
  11 H :    0.019351
  12 C :   -0.081943
  13 H :    0.030827
  14 H :    0.056097
  15 H :    0.031150
  16 S :    0.083694
  17 C :   -0.102335
  18 C :   -0.022627
  19 C :   -0.061541
  20 C :   -0.074011
  21 H :    0.017421
  22 C :   -0.002561
  23 H :    0.020160
  24 H :    0.027433
  25 C :   -0.046075
  26 H :    0.036637
  27 H :    0.024182
  28 C :   -0.058026
  29 H :    0.043104
  30 H :    0.045497
  31 H :    0.015538
  32 H :    0.055795
  33 H :    0.081944
Sum of atomic charges:    0.0000000

LOEWDIN ATOMIC CHARGES
----------------------
   0 S :    0.409906
   1 C :   -0.203803
   2 C :   -0.059183
   3 C :   -0.063916
   4 C :   -0.184973
   5 H :    0.021745
   6 C :   -0.027231
   7 H :    0.030528
   8 H :    0.031273
   9 C :   -0.031674
  10 H :    0.024508
  11 H :    0.016197
  12 C :   -0.064798
  13 H :    0.021934
  14 H :    0.026711
  15 H :    0.028448
  16 S :    0.382516
  17 C :   -0.197888
  18 C :   -0.069669
  19 C :   -0.060920
  20 C :   -0.174997
  21 H :    0.027707
  22 C :   -0.041467
  23 H :    0.031888
  24 H :    0.030716
  25 C :   -0.053835
  26 H :    0.028337
  27 H :    0.027839
  28 C :   -0.075337
  29 H :    0.030977
  30 H :    0.034509
  31 H :    0.026699
  32 H :    0.029864
  33 H :    0.047388

  Mayer bond orders larger than 0.100000
B(  0-S ,  1-C ) :   1.1466 B(  0-S ,  4-C ) :   1.1577 B(  1-C ,  2-C ) :   1.6165
B(  1-C , 32-H ) :   0.9685 B(  2-C ,  3-C ) :   1.2233 B(  2-C ,  6-C ) :   1.0002
B(  3-C ,  4-C ) :   1.5942 B(  3-C ,  5-H ) :   0.9926 B(  4-C , 20-C ) :   0.9963
B(  6-C ,  7-H ) :   0.9388 B(  6-C ,  8-H ) :   0.9475 B(  6-C ,  9-C ) :   1.0755
B(  9-C , 10-H ) :   0.9583 B(  9-C , 11-H ) :   0.9560 B(  9-C , 12-C ) :   1.0628
B( 12-C , 13-H ) :   0.9749 B( 12-C , 14-H ) :   0.9747 B( 12-C , 15-H ) :   0.9786
B( 16-S , 17-C ) :   1.1425 B( 16-S , 20-C ) :   1.1135 B( 17-C , 18-C ) :   1.6429
B( 17-C , 33-H ) :   0.9555 B( 18-C , 19-C ) :   1.2043 B( 18-C , 21-H ) :   0.9880
B( 19-C , 20-C ) :   1.6617 B( 19-C , 22-C ) :   1.0298 B( 22-C , 23-H ) :   0.9408
B( 22-C , 24-H ) :   0.9399 B( 22-C , 25-C ) :   1.0621 B( 25-C , 26-H ) :   0.9472
B( 25-C , 27-H ) :   0.9421 B( 25-C , 28-C ) :   1.0866 B( 28-C , 29-H ) :   0.9711
B( 28-C , 30-H ) :   0.9724 B( 28-C , 31-H ) :   0.9666

Dispersion correction           -0.014406517
FINAL SINGLE POINT ENERGY     -1339.871606155701

DIPOLE MOMENT
-------------
                                X             Y             Z
Electronic contribution:     -8.44790     -13.41834      25.57386
Nuclear contribution   :      8.81084      13.76830     -26.07883
                        -----------------------------------------
Total Dipole Moment    :      0.36294       0.34997      -0.50497
                        -----------------------------------------
Magnitude (a.u.)       :      0.71358
Magnitude (Debye)      :      1.81378

Rotational constants in cm-1:     0.018100     0.009352     0.006506
Rotational constants in MHz :   542.636316   280.359862   195.030507

                             ****ORCA TERMINATED NORMALLY****
TOTAL RUN TIME: 0 days 0 hours 0 minutes 21 seconds 882 msec
