                         Program Version 4.2.1 -  RELEASE  -
|  1> ! wB97X-D3 SP def2-SVP
|  2> %pal
|  3> nprocs 24
|  4> end
|  5>
|  6> * xyz 0 1
|  7> S 	 -60.7454 	 20.3078 	 19.3325
|  8> C 	 -61.9623 	 19.8822 	 20.4752
|  9> C 	 -61.568 	 19.0448 	 21.4815
| 10> C 	 -60.2071 	 18.6567 	 21.1845
| 11> C 	 -59.5532 	 19.2535 	 20.1226
| 12> H 	 -59.587 	 17.8758 	 21.6839
| 13> C 	 -62.3848 	 18.5884 	 22.6486
| 14> H 	 -61.8733 	 17.6738 	 22.9775
| 15> H 	 -63.3824 	 18.327 	 22.2584
| 16> C 	 -62.4363 	 19.4876 	 23.8814
| 17> H 	 -61.433 	 19.8449 	 24.1533
| 18> H 	 -62.9141 	 20.4345 	 23.6375
| 19> C 	 -63.2461 	 18.775 	 25.0113
| 20> H 	 -64.3562 	 18.7929 	 24.7381
| 21> H 	 -62.951 	 17.7554 	 25.2296
| 22> H 	 -63.0453 	 19.3005 	 25.9429
| 23> S 	 -58.4434 	 18.3344 	 17.8602
| 24> C 	 -56.7179 	 18.3657 	 17.5716
| 25> C 	 -56.0757 	 18.7862 	 18.7683
| 26> C 	 -56.928 	 19.1815 	 19.8592
| 27> C 	 -58.2807 	 18.8992 	 19.503
| 28> H 	 -55.0004 	 18.6894 	 18.6822
| 29> C 	 -56.3534 	 19.7395 	 21.114
| 30> H 	 -56.9074 	 20.5427 	 21.6221
| 31> H 	 -55.4664 	 20.2764 	 20.9346
| 32> C 	 -56.308 	 18.7539 	 22.293
| 33> H 	 -57.2272 	 18.8616 	 22.9293
| 34> H 	 -55.5798 	 19.1758 	 22.9441
| 35> C 	 -55.9839 	 17.3084 	 21.9387
| 36> H 	 -56.8026 	 16.8729 	 21.3951
| 37> H 	 -55.8582 	 16.6754 	 22.7821
| 38> H 	 -55.0984 	 17.2931 	 21.3391
| 39> H 	 -62.9714 	 20.2454 	 20.4357
| 40> H 	 -56.2436 	 18.071 	 16.6874
| 41> *
| 42>
| 43>                          ****END OF INPUT****

CARTESIAN COORDINATES (ANGSTROEM)
---------------------------------
  S    -60.745400   20.307800   19.332500
  C    -61.962300   19.882200   20.475200
  C    -61.568000   19.044800   21.481500
  C    -60.207100   18.656700   21.184500
  C    -59.553200   19.253500   20.122600
  H    -59.587000   17.875800   21.683900
  C    -62.384800   18.588400   22.648600
  H    -61.873300   17.673800   22.977500
  H    -63.382400   18.327000   22.258400
  C    -62.436300   19.487600   23.881400
  H    -61.433000   19.844900   24.153300
  H    -62.914100   20.434500   23.637500
  C    -63.246100   18.775000   25.011300
  H    -64.356200   18.792900   24.738100
  H    -62.951000   17.755400   25.229600
  H    -63.045300   19.300500   25.942900
  S    -58.443400   18.334400   17.860200
  C    -56.717900   18.365700   17.571600
  C    -56.075700   18.786200   18.768300
  C    -56.928000   19.181500   19.859200
  C    -58.280700   18.899200   19.503000
  H    -55.000400   18.689400   18.682200
  C    -56.353400   19.739500   21.114000
  H    -56.907400   20.542700   21.622100
  H    -55.466400   20.276400   20.934600
  C    -56.308000   18.753900   22.293000
  H    -57.227200   18.861600   22.929300
  H    -55.579800   19.175800   22.944100
  C    -55.983900   17.308400   21.938700
  H    -56.802600   16.872900   21.395100
  H    -55.858200   16.675400   22.782100
  H    -55.098400   17.293100   21.339100
  H    -62.971400   20.245400   20.435700
  H    -56.243600   18.071000   16.687400

 Total Charge           Charge          ....    0
 Multiplicity           Mult            ....    1
 Number of Electrons    NEL             ....  134
 Basis Dimension        Dim             ....  322

ORBITAL ENERGIES
----------------

  NO   OCC          E(Eh)            E(eV)
   0   2.0000     -88.966239     -2420.8944
   1   2.0000     -88.962314     -2420.7876
   2   2.0000     -10.330380      -281.1039
   3   2.0000     -10.326084      -280.9870
   4   2.0000     -10.317135      -280.7435
   5   2.0000     -10.312341      -280.6131
   6   2.0000     -10.309344      -280.5315
   7   2.0000     -10.298637      -280.2402
   8   2.0000     -10.297978      -280.2222
   9   2.0000     -10.296403      -280.1794
  10   2.0000     -10.294238      -280.1205
  11   2.0000     -10.290900      -280.0296
  12   2.0000     -10.287243      -279.9301
  13   2.0000     -10.286812      -279.9184
  14   2.0000     -10.283679      -279.8331
  15   2.0000     -10.266044      -279.3532
  16   2.0000      -8.080805      -219.8899
  17   2.0000      -8.077233      -219.7927
  18   2.0000      -6.039236      -164.3360
  19   2.0000      -6.035775      -164.2418
  20   2.0000      -6.035079      -164.2229
  21   2.0000      -6.031890      -164.1361
  22   2.0000      -6.031670      -164.1301
  23   2.0000      -6.027976      -164.0296
  24   2.0000      -1.003411       -27.3042
  25   2.0000      -0.980856       -26.6904
  26   2.0000      -0.913809       -24.8660
  27   2.0000      -0.911011       -24.7899
  28   2.0000      -0.867698       -23.6113
  29   2.0000      -0.846667       -23.0390
  30   2.0000      -0.843527       -22.9535
  31   2.0000      -0.811953       -22.0944
  32   2.0000      -0.788983       -21.4693
  33   2.0000      -0.773517       -21.0485
  34   2.0000      -0.709832       -19.3155
  35   2.0000      -0.705247       -19.1908
  36   2.0000      -0.689697       -18.7676
  37   2.0000      -0.661039       -17.9878
  38   2.0000      -0.642693       -17.4886
  39   2.0000      -0.612912       -16.6782
  40   2.0000      -0.594116       -16.1667
  41   2.0000      -0.570380       -15.5208
  42   2.0000      -0.561694       -15.2845
  43   2.0000      -0.556119       -15.1328
  44   2.0000      -0.545634       -14.8475
  45   2.0000      -0.521453       -14.1894
  46   2.0000      -0.520019       -14.1504
  47   2.0000      -0.509099       -13.8533
  48   2.0000      -0.501055       -13.6344
  49   2.0000      -0.496946       -13.5226
  50   2.0000      -0.487981       -13.2786
  51   2.0000      -0.481891       -13.1129
  52   2.0000      -0.471501       -12.8302
  53   2.0000      -0.464880       -12.6500
  54   2.0000      -0.459130       -12.4936
  55   2.0000      -0.444999       -12.1090
  56   2.0000      -0.441835       -12.0229
  57   2.0000      -0.436043       -11.8653
  58   2.0000      -0.432926       -11.7805
  59   2.0000      -0.428508       -11.6603
  60   2.0000      -0.422291       -11.4911
  61   2.0000      -0.416916       -11.3448
  62   2.0000      -0.401931       -10.9371
  63   2.0000      -0.338834        -9.2201
  64   2.0000      -0.331088        -9.0094
  65   2.0000      -0.322000        -8.7621
  66   2.0000      -0.296969        -8.0809
  67   0.0000       0.031492         0.8569
  68   0.0000       0.063270         1.7217
  69   0.0000       0.120645         3.2829
  70   0.0000       0.123938         3.3725
  71   0.0000       0.128151         3.4872

MULLIKEN ATOMIC CHARGES
-----------------------
   0 S :    0.113687
   1 C :   -0.118446
   2 C :   -0.074323
   3 C :    0.013697
   4 C :   -0.163786
   5 H :    0.019951
   6 C :    0.065835
   7 H :    0.019158
   8 H :    0.031800
   9 C :   -0.056754
  10 H :    0.027719
  11 H :    0.021512
  12 C :   -0.059266
  13 H :    0.049492
  14 H :    0.030631
  15 H :    0.036782
  16 S :    0.115306
  17 C :   -0.093787
  18 C :   -0.056470
  19 C :   -0.006549
  20 C :   -0.181469
  21 H :    0.022246
  22 C :    0.104638
  23 H :    0.025051
  24 H :    0.012764
  25 C :   -0.106425
  26 H :    0.030709
  27 H :    0.012787
  28 C :    0.010157
  29 H :    0.031668
  30 H :    0.022929
  31 H :    0.019468
  32 H :    0.037015
  33 H :    0.042274
Sum of atomic charges:    0.0000000

LOEWDIN ATOMIC CHARGES
----------------------
   0 S :    0.400685
   1 C :   -0.191661
   2 C :   -0.073763
   3 C :   -0.061542
   4 C :   -0.205473
   5 H :    0.033322
   6 C :   -0.033909
   7 H :    0.033127
   8 H :    0.034215
   9 C :   -0.040017
  10 H :    0.025810
  11 H :    0.022491
  12 C :   -0.067996
  13 H :    0.036804
  14 H :    0.021866
  15 H :    0.027477
  16 S :    0.424310
  17 C :   -0.184398
  18 C :   -0.070619
  19 C :   -0.044623
  20 C :   -0.205684
  21 H :    0.029434
  22 C :   -0.037875
  23 H :    0.043656
  24 H :    0.026369
  25 C :   -0.039847
  26 H :    0.025044
  27 H :    0.019776
  28 C :   -0.060338
  29 H :    0.025135
  30 H :    0.022111
  31 H :    0.023345
  32 H :    0.023915
  33 H :    0.018851

  Mayer bond orders larger than 0.100000
B(  0-S ,  1-C ) :   1.1595 B(  0-S ,  4-C ) :   1.1231 B(  1-C ,  2-C ) :   1.6141
B(  1-C , 32-H ) :   0.9633 B(  2-C ,  3-C ) :   1.2309 B(  2-C ,  6-C ) :   1.0206
B(  3-C ,  4-C ) :   1.6184 B(  3-C ,  5-H ) :   0.9782 B(  4-C , 20-C ) :   1.0363
B(  6-C ,  7-H ) :   0.9365 B(  6-C ,  8-H ) :   0.9386 B(  6-C ,  9-C ) :   1.0653
B(  9-C , 10-H ) :   0.9556 B(  9-C , 11-H ) :   0.9528 B(  9-C , 12-C ) :   1.0692
B( 12-C , 13-H ) :   0.9752 B( 12-C , 14-H ) :   0.9776 B( 12-C , 15-H ) :   0.9753
B( 16-S , 17-C ) :   1.1648 B( 16-S , 20-C ) :   1.1739 B( 17-C , 18-C ) :   1.5848
B( 17-C , 20-C ) :   0.1089 B( 17-C , 33-H ) :   0.9776 B( 18-C , 19-C ) :   1.2415
B( 18-C , 21-H ) :   0.9889 B( 19-C , 20-C ) :   1.5318 B( 19-C , 22-C ) :   1.0666
B( 22-C , 23-H ) :   0.9259 B( 22-C , 24-H ) :   0.9329 B( 22-C , 25-C ) :   1.0566
B( 25-C , 26-H ) :   0.9573 B( 25-C , 27-H ) :   0.9504 B( 25-C , 28-C ) :   1.0933
B( 28-C , 29-H ) :   0.9635 B( 28-C , 30-H ) :   0.9717 B( 28-C , 31-H ) :   0.9729

Dispersion correction           -0.014471116
FINAL SINGLE POINT ENERGY     -1339.870404906060

DIPOLE MOMENT
-------------
                                X             Y             Z
Electronic contribution:      0.01807       4.87173     -27.91245
Nuclear contribution   :      0.12550      -4.97705      28.47538
                        -----------------------------------------
Total Dipole Moment    :      0.14357      -0.10533       0.56293
                        -----------------------------------------
Magnitude (a.u.)       :      0.59042
Magnitude (Debye)      :      1.50073

Rotational constants in cm-1:     0.020699     0.008154     0.006402
Rotational constants in MHz :   620.528314   244.438634   191.936612

                             ****ORCA TERMINATED NORMALLY****
TOTAL RUN TIME: 0 days 0 hours 0 minutes 21 seconds 562 msec
