                         Program Version 4.2.1 -  RELEASE  -
|  1> ! wB97X-D3 SP def2-SVP
|  2> %pal
|  3> nprocs 24
|  4> end
|  5>
|  6> * xyz 0 1
|  7> S 	 -105.473 	 1.47838 	 -104.266
|  8> C 	 -106.635 	 1.52633 	 -102.914
|  9> C 	 -107.839 	 2.07857 	 -103.342
| 10> C 	 -107.906 	 2.14178 	 -104.763
| 11> C 	 -106.793 	 1.70402 	 -105.42
| 12> H 	 -108.782 	 2.46812 	 -105.37
| 13> C 	 -109.029 	 2.47953 	 -102.462
| 14> H 	 -108.994 	 3.56093 	 -102.471
| 15> H 	 -108.676 	 2.30676 	 -101.448
| 16> C 	 -110.409 	 1.91279 	 -102.62
| 17> H 	 -111.054 	 2.43207 	 -101.975
| 18> H 	 -110.716 	 1.97096 	 -103.681
| 19> C 	 -110.525 	 0.408882 	 -102.225
| 20> H 	 -111.526 	 0.112959 	 -102.591
| 21> H 	 -109.694 	 -0.141464 	 -102.654
| 22> H 	 -110.485 	 0.378027 	 -101.121
| 23> S 	 -105.016 	 2.97426 	 -107.157
| 24> C 	 -105.618 	 3.41053 	 -108.858
| 25> C 	 -106.935 	 2.86219 	 -109.022
| 26> C 	 -107.412 	 2.06703 	 -107.891
| 27> C 	 -106.488 	 2.056 	 -106.82
| 28> H 	 -107.414 	 3.13985 	 -109.968
| 29> C 	 -108.774 	 1.37625 	 -107.984
| 30> H 	 -109.348 	 1.73521 	 -108.861
| 31> H 	 -109.439 	 1.40657 	 -107.161
| 32> C 	 -108.415 	 -0.122747 	 -108.304
| 33> H 	 -107.936 	 -0.47842 	 -107.429
| 34> H 	 -107.721 	 -0.242066 	 -109.162
| 35> C 	 -109.745 	 -0.927525 	 -108.401
| 36> H 	 -110.285 	 -0.764609 	 -109.41
| 37> H 	 -110.493 	 -0.74402 	 -107.638
| 38> H 	 -109.45 	 -1.96088 	 -108.457
| 39> H 	 -106.385 	 1.4249 	 -101.861
| 40> H 	 -105.165 	 4.22342 	 -109.368
| 41> *
| 42>
| 43>                          ****END OF INPUT****

CARTESIAN COORDINATES (ANGSTROEM)
---------------------------------
  S    -105.473000    1.478380  -104.266000
  C    -106.635000    1.526330  -102.914000
  C    -107.839000    2.078570  -103.342000
  C    -107.906000    2.141780  -104.763000
  C    -106.793000    1.704020  -105.420000
  H    -108.782000    2.468120  -105.370000
  C    -109.029000    2.479530  -102.462000
  H    -108.994000    3.560930  -102.471000
  H    -108.676000    2.306760  -101.448000
  C    -110.409000    1.912790  -102.620000
  H    -111.054000    2.432070  -101.975000
  H    -110.716000    1.970960  -103.681000
  C    -110.525000    0.408882  -102.225000
  H    -111.526000    0.112959  -102.591000
  H    -109.694000   -0.141464  -102.654000
  H    -110.485000    0.378027  -101.121000
  S    -105.016000    2.974260  -107.157000
  C    -105.618000    3.410530  -108.858000
  C    -106.935000    2.862190  -109.022000
  C    -107.412000    2.067030  -107.891000
  C    -106.488000    2.056000  -106.820000
  H    -107.414000    3.139850  -109.968000
  C    -108.774000    1.376250  -107.984000
  H    -109.348000    1.735210  -108.861000
  H    -109.439000    1.406570  -107.161000
  C    -108.415000   -0.122747  -108.304000
  H    -107.936000   -0.478420  -107.429000
  H    -107.721000   -0.242066  -109.162000
  C    -109.745000   -0.927525  -108.401000
  H    -110.285000   -0.764609  -109.410000
  H    -110.493000   -0.744020  -107.638000
  H    -109.450000   -1.960880  -108.457000
  H    -106.385000    1.424900  -101.861000
  H    -105.165000    4.223420  -109.368000

 Total Charge           Charge          ....    0
 Multiplicity           Mult            ....    1
 Number of Electrons    NEL             ....  134
 Basis Dimension        Dim             ....  322

ORBITAL ENERGIES
----------------

  NO   OCC          E(Eh)            E(eV)
   0   2.0000     -88.966929     -2420.9132
   1   2.0000     -88.966364     -2420.8978
   2   2.0000     -10.335116      -281.2328
   3   2.0000     -10.331208      -281.1265
   4   2.0000     -10.326964      -281.0110
   5   2.0000     -10.320693      -280.8403
   6   2.0000     -10.313061      -280.6327
   7   2.0000     -10.309717      -280.5417
   8   2.0000     -10.306775      -280.4616
   9   2.0000     -10.296677      -280.1868
  10   2.0000     -10.295861      -280.1646
  11   2.0000     -10.292016      -280.0600
  12   2.0000     -10.286940      -279.9219
  13   2.0000     -10.286379      -279.9066
  14   2.0000     -10.281724      -279.7799
  15   2.0000     -10.280967      -279.7593
  16   2.0000      -8.080945      -219.8937
  17   2.0000      -8.079173      -219.8455
  18   2.0000      -6.039605      -164.3460
  19   2.0000      -6.037841      -164.2980
  20   2.0000      -6.035796      -164.2423
  21   2.0000      -6.033989      -164.1932
  22   2.0000      -6.031350      -164.1214
  23   2.0000      -6.029828      -164.0800
  24   2.0000      -1.002054       -27.2673
  25   2.0000      -0.969214       -26.3736
  26   2.0000      -0.914554       -24.8863
  27   2.0000      -0.903538       -24.5865
  28   2.0000      -0.865927       -23.5631
  29   2.0000      -0.847679       -23.0665
  30   2.0000      -0.838005       -22.8033
  31   2.0000      -0.811641       -22.0859
  32   2.0000      -0.782032       -21.2802
  33   2.0000      -0.768619       -20.9152
  34   2.0000      -0.706290       -19.2191
  35   2.0000      -0.698152       -18.9977
  36   2.0000      -0.693146       -18.8615
  37   2.0000      -0.660600       -17.9758
  38   2.0000      -0.637871       -17.3574
  39   2.0000      -0.621656       -16.9161
  40   2.0000      -0.595532       -16.2052
  41   2.0000      -0.568328       -15.4650
  42   2.0000      -0.561679       -15.2841
  43   2.0000      -0.553568       -15.0633
  44   2.0000      -0.542538       -14.7632
  45   2.0000      -0.523635       -14.2488
  46   2.0000      -0.517207       -14.0739
  47   2.0000      -0.514107       -13.9896
  48   2.0000      -0.498961       -13.5774
  49   2.0000      -0.493582       -13.4311
  50   2.0000      -0.486875       -13.2485
  51   2.0000      -0.482211       -13.1216
  52   2.0000      -0.464807       -12.6480
  53   2.0000      -0.463604       -12.6153
  54   2.0000      -0.457265       -12.4428
  55   2.0000      -0.451868       -12.2960
  56   2.0000      -0.444865       -12.1054
  57   2.0000      -0.440127       -11.9765
  58   2.0000      -0.430865       -11.7244
  59   2.0000      -0.422790       -11.5047
  60   2.0000      -0.416698       -11.3389
  61   2.0000      -0.413011       -11.2386
  62   2.0000      -0.411377       -11.1941
  63   2.0000      -0.353669        -9.6238
  64   2.0000      -0.333062        -9.0631
  65   2.0000      -0.324480        -8.8296
  66   2.0000      -0.283801        -7.7226
  67   0.0000       0.017470         0.4754
  68   0.0000       0.061572         1.6755
  69   0.0000       0.087661         2.3854
  70   0.0000       0.120959         3.2915
  71   0.0000       0.126478         3.4417

MULLIKEN ATOMIC CHARGES
-----------------------
   0 S :    0.079620
   1 C :   -0.107692
   2 C :   -0.113797
   3 C :   -0.005889
   4 C :   -0.114811
   5 H :    0.036410
   6 C :    0.076893
   7 H :    0.036709
   8 H :   -0.005728
   9 C :   -0.040896
  10 H :    0.023199
  11 H :    0.029864
  12 C :   -0.068605
  13 H :    0.042042
  14 H :    0.048854
  15 H :    0.031691
  16 S :    0.071170
  17 C :   -0.113506
  18 C :   -0.037056
  19 C :   -0.057871
  20 C :   -0.111107
  21 H :    0.039474
  22 C :    0.069150
  23 H :    0.025457
  24 H :    0.013705
  25 C :   -0.089901
  26 H :    0.032033
  27 H :    0.049000
  28 C :   -0.057487
  29 H :    0.031500
  30 H :    0.037383
  31 H :    0.033246
  32 H :    0.051291
  33 H :    0.065655
Sum of atomic charges:   -0.0000000

LOEWDIN ATOMIC CHARGES
----------------------
   0 S :    0.378235
   1 C :   -0.185006
   2 C :   -0.060728
   3 C :   -0.062104
   4 C :   -0.186444
   5 H :    0.037815
   6 C :   -0.038246
   7 H :    0.037054
   8 H :    0.026577
   9 C :   -0.037091
  10 H :    0.021745
  11 H :    0.023512
  12 C :   -0.060408
  13 H :    0.029669
  14 H :    0.026195
  15 H :    0.024998
  16 S :    0.355448
  17 C :   -0.164604
  18 C :   -0.058842
  19 C :   -0.058687
  20 C :   -0.188524
  21 H :    0.036766
  22 C :   -0.027254
  23 H :    0.032292
  24 H :    0.017664
  25 C :   -0.028911
  26 H :    0.020056
  27 H :    0.032761
  28 C :   -0.073883
  29 H :    0.029571
  30 H :    0.023399
  31 H :    0.024091
  32 H :    0.029713
  33 H :    0.023172

  Mayer bond orders larger than 0.100000
B(  0-S ,  1-C ) :   1.1283 B(  0-S ,  4-C ) :   1.1339 B(  1-C ,  2-C ) :   1.6144
B(  1-C , 32-H ) :   0.9654 B(  2-C ,  3-C ) :   1.2392 B(  2-C ,  6-C ) :   1.0182
B(  3-C ,  4-C ) :   1.5804 B(  3-C ,  5-H ) :   0.9786 B(  4-C , 20-C ) :   1.0445
B(  6-C ,  7-H ) :   0.9282 B(  6-C ,  8-H ) :   0.9315 B(  6-C ,  9-C ) :   1.0748
B(  9-C , 10-H ) :   0.9493 B(  9-C , 11-H ) :   0.9576 B(  9-C , 12-C ) :   1.0703
B( 12-C , 13-H ) :   0.9767 B( 12-C , 14-H ) :   0.9808 B( 12-C , 15-H ) :   0.9770
B( 16-S , 17-C ) :   1.1242 B( 16-S , 20-C ) :   1.1387 B( 17-C , 18-C ) :   1.6145
B( 17-C , 33-H ) :   0.9709 B( 18-C , 19-C ) :   1.2373 B( 18-C , 21-H ) :   0.9828
B( 19-C , 20-C ) :   1.5850 B( 19-C , 22-C ) :   1.0422 B( 22-C , 23-H ) :   0.9418
B( 22-C , 24-H ) :   0.9418 B( 22-C , 25-C ) :   1.0492 B( 25-C , 26-H ) :   0.9612
B( 25-C , 27-H ) :   0.9581 B( 25-C , 28-C ) :   1.0727 B( 28-C , 29-H ) :   0.9748
B( 28-C , 30-H ) :   0.9743 B( 28-C , 31-H ) :   0.9742

Dispersion correction           -0.014171968
FINAL SINGLE POINT ENERGY     -1339.849773073387

DIPOLE MOMENT
-------------
                                X             Y             Z
Electronic contribution:     27.80078      10.41037      -2.65282
Nuclear contribution   :    -28.63959     -10.13704       2.75808
                        -----------------------------------------
Total Dipole Moment    :     -0.83881       0.27334       0.10526
                        -----------------------------------------
Magnitude (a.u.)       :      0.88848
Magnitude (Debye)      :      2.25833

Rotational constants in cm-1:     0.016844     0.009575     0.007029
Rotational constants in MHz :   504.966268   287.053531   210.729818

                             ****ORCA TERMINATED NORMALLY****
TOTAL RUN TIME: 0 days 0 hours 0 minutes 20 seconds 765 msec
