                         Program Version 4.2.1 -  RELEASE  -
|  1> ! wB97X-D3 SP def2-SVP
|  2> %pal
|  3> nprocs 24
|  4> end
|  5>
|  6> * xyz 0 1
|  7> S 	 -133.957 	 7.47115 	 -10.3831
|  8> C 	 -133.005 	 7.4525 	 -11.8757
|  9> C 	 -131.712 	 7.89489 	 -11.5755
| 10> C 	 -131.638 	 8.4009 	 -10.2785
| 11> C 	 -132.776 	 8.32109 	 -9.46934
| 12> H 	 -130.706 	 8.73417 	 -9.87776
| 13> C 	 -130.617 	 7.98966 	 -12.5585
| 14> H 	 -130.917 	 7.47624 	 -13.4401
| 15> H 	 -129.791 	 7.45721 	 -12.111
| 16> C 	 -130.173 	 9.38266 	 -12.999
| 17> H 	 -129.704 	 9.28903 	 -13.9437
| 18> H 	 -131.046 	 9.99095 	 -13.0969
| 19> C 	 -129.15 	 10.0997 	 -12.0384
| 20> H 	 -128.995 	 11.1459 	 -12.4422
| 21> H 	 -129.549 	 10.2939 	 -11.0078
| 22> H 	 -128.127 	 9.76317 	 -12.0214
| 23> S 	 -133.332 	 7.36143 	 -6.92067
| 24> C 	 -133.29 	 8.54653 	 -5.62054
| 25> C 	 -132.629 	 9.67884 	 -5.93983
| 26> C 	 -132.323 	 9.7455 	 -7.31558
| 27> C 	 -132.765 	 8.60064 	 -8.02487
| 28> H 	 -132.544 	 10.3896 	 -5.18121
| 29> C 	 -131.945 	 11.0448 	 -8.01548
| 30> H 	 -131.048 	 10.9972 	 -8.6045
| 31> H 	 -131.846 	 11.7889 	 -7.26644
| 32> C 	 -133.027 	 11.5699 	 -8.96025
| 33> H 	 -134.015 	 11.0915 	 -8.66786
| 34> H 	 -132.887 	 11.2672 	 -10.0327
| 35> C 	 -133.176 	 13.0699 	 -8.93146
| 36> H 	 -132.333 	 13.5738 	 -9.36822
| 37> H 	 -133.455 	 13.6352 	 -8.06795
| 38> H 	 -133.919 	 13.2366 	 -9.60957
| 39> H 	 -133.381 	 7.02802 	 -12.8459
| 40> H 	 -133.706 	 8.36478 	 -4.59666
| 41> *
| 42>
| 43>                          ****END OF INPUT****

CARTESIAN COORDINATES (ANGSTROEM)
---------------------------------
  S    -133.957000    7.471150  -10.383100
  C    -133.005000    7.452500  -11.875700
  C    -131.712000    7.894890  -11.575500
  C    -131.638000    8.400900  -10.278500
  C    -132.776000    8.321090   -9.469340
  H    -130.706000    8.734170   -9.877760
  C    -130.617000    7.989660  -12.558500
  H    -130.917000    7.476240  -13.440100
  H    -129.791000    7.457210  -12.111000
  C    -130.173000    9.382660  -12.999000
  H    -129.704000    9.289030  -13.943700
  H    -131.046000    9.990950  -13.096900
  C    -129.150000   10.099700  -12.038400
  H    -128.995000   11.145900  -12.442200
  H    -129.549000   10.293900  -11.007800
  H    -128.127000    9.763170  -12.021400
  S    -133.332000    7.361430   -6.920670
  C    -133.290000    8.546530   -5.620540
  C    -132.629000    9.678840   -5.939830
  C    -132.323000    9.745500   -7.315580
  C    -132.765000    8.600640   -8.024870
  H    -132.544000   10.389600   -5.181210
  C    -131.945000   11.044800   -8.015480
  H    -131.048000   10.997200   -8.604500
  H    -131.846000   11.788900   -7.266440
  C    -133.027000   11.569900   -8.960250
  H    -134.015000   11.091500   -8.667860
  H    -132.887000   11.267200  -10.032700
  C    -133.176000   13.069900   -8.931460
  H    -132.333000   13.573800   -9.368220
  H    -133.455000   13.635200   -8.067950
  H    -133.919000   13.236600   -9.609570
  H    -133.381000    7.028020  -12.845900
  H    -133.706000    8.364780   -4.596660

 Total Charge           Charge          ....    0
 Multiplicity           Mult            ....    1
 Number of Electrons    NEL             ....  134
 Basis Dimension        Dim             ....  322

ORBITAL ENERGIES
----------------

  NO   OCC          E(Eh)            E(eV)
   0   2.0000     -88.967650     -2420.9328
   1   2.0000     -88.965153     -2420.8649
   2   2.0000     -10.329845      -281.0894
   3   2.0000     -10.328932      -281.0645
   4   2.0000     -10.321961      -280.8748
   5   2.0000     -10.314993      -280.6852
   6   2.0000     -10.303557      -280.3740
   7   2.0000     -10.296939      -280.1940
   8   2.0000     -10.287548      -279.9384
   9   2.0000     -10.287449      -279.9357
  10   2.0000     -10.286611      -279.9129
  11   2.0000     -10.286479      -279.9093
  12   2.0000     -10.284405      -279.8529
  13   2.0000     -10.284326      -279.8507
  14   2.0000     -10.282397      -279.7982
  15   2.0000     -10.260375      -279.1990
  16   2.0000      -8.082161      -219.9268
  17   2.0000      -8.079781      -219.8620
  18   2.0000      -6.040605      -164.3732
  19   2.0000      -6.038230      -164.3086
  20   2.0000      -6.036520      -164.2621
  21   2.0000      -6.034427      -164.2051
  22   2.0000      -6.033160      -164.1706
  23   2.0000      -6.030504      -164.0984
  24   2.0000      -1.007518       -27.4160
  25   2.0000      -0.987004       -26.8577
  26   2.0000      -0.916931       -24.9510
  27   2.0000      -0.908742       -24.7281
  28   2.0000      -0.868936       -23.6449
  29   2.0000      -0.851314       -23.1654
  30   2.0000      -0.844897       -22.9908
  31   2.0000      -0.816307       -22.2129
  32   2.0000      -0.787603       -21.4318
  33   2.0000      -0.772148       -21.0112
  34   2.0000      -0.709779       -19.3141
  35   2.0000      -0.705005       -19.1842
  36   2.0000      -0.685506       -18.6536
  37   2.0000      -0.658358       -17.9148
  38   2.0000      -0.636634       -17.3237
  39   2.0000      -0.625046       -17.0084
  40   2.0000      -0.596497       -16.2315
  41   2.0000      -0.577746       -15.7213
  42   2.0000      -0.564949       -15.3731
  43   2.0000      -0.544064       -14.8047
  44   2.0000      -0.542828       -14.7711
  45   2.0000      -0.523096       -14.2342
  46   2.0000      -0.517672       -14.0866
  47   2.0000      -0.515492       -14.0272
  48   2.0000      -0.500865       -13.6292
  49   2.0000      -0.499042       -13.5796
  50   2.0000      -0.492020       -13.3885
  51   2.0000      -0.483090       -13.1455
  52   2.0000      -0.476980       -12.9793
  53   2.0000      -0.468382       -12.7453
  54   2.0000      -0.461074       -12.5465
  55   2.0000      -0.447988       -12.1904
  56   2.0000      -0.441368       -12.0102
  57   2.0000      -0.434772       -11.8308
  58   2.0000      -0.427495       -11.6327
  59   2.0000      -0.424873       -11.5614
  60   2.0000      -0.421713       -11.4754
  61   2.0000      -0.415048       -11.2940
  62   2.0000      -0.408438       -11.1142
  63   2.0000      -0.346751        -9.4356
  64   2.0000      -0.331950        -9.0328
  65   2.0000      -0.330074        -8.9818
  66   2.0000      -0.286081        -7.7846
  67   0.0000       0.021990         0.5984
  68   0.0000       0.073766         2.0073
  69   0.0000       0.111236         3.0269
  70   0.0000       0.124430         3.3859
  71   0.0000       0.129122         3.5136

MULLIKEN ATOMIC CHARGES
-----------------------
   0 S :    0.109272
   1 C :   -0.159585
   2 C :   -0.086365
   3 C :    0.013378
   4 C :   -0.123617
   5 H :   -0.002419
   6 C :    0.102427
   7 H :    0.003629
   8 H :    0.029457
   9 C :   -0.025767
  10 H :    0.024583
  11 H :    0.028389
  12 C :   -0.102956
  13 H :    0.029158
  14 H :    0.042714
  15 H :    0.039052
  16 S :    0.111295
  17 C :   -0.115599
  18 C :   -0.009891
  19 C :   -0.032988
  20 C :   -0.168035
  21 H :   -0.002768
  22 C :    0.129589
  23 H :    0.024592
  24 H :    0.001942
  25 C :   -0.135408
  26 H :    0.043069
  27 H :    0.044285
  28 C :    0.005536
  29 H :    0.014985
  30 H :    0.027460
  31 H :    0.001380
  32 H :    0.072886
  33 H :    0.066322
Sum of atomic charges:    0.0000000

LOEWDIN ATOMIC CHARGES
----------------------
   0 S :    0.420053
   1 C :   -0.202538
   2 C :   -0.067159
   3 C :   -0.063657
   4 C :   -0.210172
   5 H :    0.022225
   6 C :   -0.030879
   7 H :    0.026649
   8 H :    0.034562
   9 C :   -0.026521
  10 H :    0.023067
  11 H :    0.024675
  12 C :   -0.079595
  13 H :    0.032975
  14 H :    0.026408
  15 H :    0.022927
  16 S :    0.396732
  17 C :   -0.182589
  18 C :   -0.068044
  19 C :   -0.053459
  20 C :   -0.191969
  21 H :    0.026550
  22 C :   -0.029286
  23 H :    0.027959
  24 H :    0.024085
  25 C :   -0.041319
  26 H :    0.030330
  27 H :    0.031647
  28 C :   -0.065022
  29 H :    0.022730
  30 H :    0.022061
  31 H :    0.018912
  32 H :    0.040807
  33 H :    0.036857

  Mayer bond orders larger than 0.100000
B(  0-S ,  1-C ) :   1.1572 B(  0-S ,  4-C ) :   1.1683 B(  1-C ,  2-C ) :   1.5320
B(  1-C ,  4-C ) :   0.1071 B(  1-C , 32-H ) :   0.9641 B(  2-C ,  3-C ) :   1.3095
B(  2-C ,  6-C ) :   1.0474 B(  3-C ,  4-C ) :   1.4977 B(  3-C ,  5-H ) :   0.9932
B(  4-C , 20-C ) :   1.0633 B(  6-C ,  7-H ) :   0.9320 B(  6-C ,  8-H ) :   0.9285
B(  6-C ,  9-C ) :   1.0682 B(  9-C , 10-H ) :   0.9552 B(  9-C , 11-H ) :   0.9565
B(  9-C , 12-C ) :   1.0775 B( 12-C , 13-H ) :   0.9701 B( 12-C , 14-H ) :   0.9732
B( 12-C , 15-H ) :   0.9758 B( 16-S , 17-C ) :   1.1436 B( 16-S , 20-C ) :   1.1478
B( 17-C , 18-C ) :   1.6346 B( 17-C , 33-H ) :   0.9579 B( 18-C , 19-C ) :   1.2339
B( 18-C , 21-H ) :   1.0025 B( 19-C , 20-C ) :   1.5699 B( 19-C , 22-C ) :   1.0600
B( 22-C , 23-H ) :   0.9199 B( 22-C , 24-H ) :   0.9392 B( 22-C , 25-C ) :   1.0503
B( 25-C , 26-H ) :   0.9632 B( 25-C , 27-H ) :   0.9479 B( 25-C , 28-C ) :   1.0942
B( 28-C , 29-H ) :   0.9687 B( 28-C , 30-H ) :   0.9719 B( 28-C , 31-H ) :   0.9645

Dispersion correction           -0.015312421
FINAL SINGLE POINT ENERGY     -1339.861607706279

DIPOLE MOMENT
-------------
                                X             Y             Z
Electronic contribution:    -13.97169     -22.26311      12.64218
Nuclear contribution   :     14.35452      22.71198     -12.95016
                        -----------------------------------------
Total Dipole Moment    :      0.38284       0.44887      -0.30798
                        -----------------------------------------
Magnitude (a.u.)       :      0.66550
Magnitude (Debye)      :      1.69158

Rotational constants in cm-1:     0.017528     0.009997     0.007703
Rotational constants in MHz :   525.489356   299.695817   230.941031

                             ****ORCA TERMINATED NORMALLY****
TOTAL RUN TIME: 0 days 0 hours 0 minutes 22 seconds 862 msec
