                         Program Version 4.2.1 -  RELEASE  -
|  1> ! wB97X-D3 SP def2-SVP
|  2> %pal
|  3> nprocs 24
|  4> end
|  5>
|  6> * xyz 0 1
|  7> S 	 -123.328 	 32.2191 	 -114.504
|  8> C 	 -121.58 	 32.5735 	 -114.743
|  9> C 	 -120.913 	 32.5329 	 -113.546
| 10> C 	 -121.802 	 32.303 	 -112.391
| 11> C 	 -123.169 	 32.2493 	 -112.73
| 12> H 	 -121.51 	 32.1868 	 -111.339
| 13> C 	 -119.44 	 32.5135 	 -113.382
| 14> H 	 -119.241 	 32.9115 	 -112.394
| 15> H 	 -118.949 	 33.2307 	 -114.025
| 16> C 	 -118.802 	 31.2135 	 -113.73
| 17> H 	 -119.137 	 31.011 	 -114.713
| 18> H 	 -117.687 	 31.2781 	 -113.814
| 19> C 	 -119.191 	 30.0301 	 -112.778
| 20> H 	 -118.9 	 30.1311 	 -111.747
| 21> H 	 -120.198 	 29.9912 	 -112.716
| 22> H 	 -118.827 	 29.0344 	 -113.083
| 23> S 	 -125.249 	 30.483 	 -112.191
| 24> C 	 -126.405 	 31.0093 	 -110.921
| 25> C 	 -125.92 	 32.1566 	 -110.244
| 26> C 	 -124.778 	 32.6987 	 -110.873
| 27> C 	 -124.258 	 31.9195 	 -111.846
| 28> H 	 -126.532 	 32.447 	 -109.457
| 29> C 	 -124.314 	 34.0966 	 -110.59
| 30> H 	 -125.13 	 34.6295 	 -110.226
| 31> H 	 -124.077 	 34.56 	 -111.533
| 32> C 	 -123.066 	 34.3875 	 -109.727
| 33> H 	 -122.93 	 35.4835 	 -109.565
| 34> H 	 -122.079 	 34.0756 	 -110.234
| 35> C 	 -123.021 	 33.6096 	 -108.384
| 36> H 	 -122.219 	 33.9956 	 -107.748
| 37> H 	 -122.871 	 32.5389 	 -108.547
| 38> H 	 -123.983 	 33.7098 	 -107.892
| 39> H 	 -121.126 	 32.5696 	 -115.663
| 40> H 	 -127.163 	 30.4064 	 -110.446
| 41> *
| 42>
| 43>                          ****END OF INPUT****

CARTESIAN COORDINATES (ANGSTROEM)
---------------------------------
  S    -123.328000   32.219100  -114.504000
  C    -121.580000   32.573500  -114.743000
  C    -120.913000   32.532900  -113.546000
  C    -121.802000   32.303000  -112.391000
  C    -123.169000   32.249300  -112.730000
  H    -121.510000   32.186800  -111.339000
  C    -119.440000   32.513500  -113.382000
  H    -119.241000   32.911500  -112.394000
  H    -118.949000   33.230700  -114.025000
  C    -118.802000   31.213500  -113.730000
  H    -119.137000   31.011000  -114.713000
  H    -117.687000   31.278100  -113.814000
  C    -119.191000   30.030100  -112.778000
  H    -118.900000   30.131100  -111.747000
  H    -120.198000   29.991200  -112.716000
  H    -118.827000   29.034400  -113.083000
  S    -125.249000   30.483000  -112.191000
  C    -126.405000   31.009300  -110.921000
  C    -125.920000   32.156600  -110.244000
  C    -124.778000   32.698700  -110.873000
  C    -124.258000   31.919500  -111.846000
  H    -126.532000   32.447000  -109.457000
  C    -124.314000   34.096600  -110.590000
  H    -125.130000   34.629500  -110.226000
  H    -124.077000   34.560000  -111.533000
  C    -123.066000   34.387500  -109.727000
  H    -122.930000   35.483500  -109.565000
  H    -122.079000   34.075600  -110.234000
  C    -123.021000   33.609600  -108.384000
  H    -122.219000   33.995600  -107.748000
  H    -122.871000   32.538900  -108.547000
  H    -123.983000   33.709800  -107.892000
  H    -121.126000   32.569600  -115.663000
  H    -127.163000   30.406400  -110.446000

 Total Charge           Charge          ....    0
 Multiplicity           Mult            ....    1
 Number of Electrons    NEL             ....  134
 Basis Dimension        Dim             ....  322

ORBITAL ENERGIES
----------------

  NO   OCC          E(Eh)            E(eV)
   0   2.0000     -88.969860     -2420.9930
   1   2.0000     -88.966579     -2420.9037
   2   2.0000     -10.334918      -281.2274
   3   2.0000     -10.325090      -280.9600
   4   2.0000     -10.323406      -280.9141
   5   2.0000     -10.314479      -280.6712
   6   2.0000     -10.305320      -280.4220
   7   2.0000     -10.304898      -280.4105
   8   2.0000     -10.301340      -280.3137
   9   2.0000     -10.294837      -280.1368
  10   2.0000     -10.293882      -280.1108
  11   2.0000     -10.287455      -279.9359
  12   2.0000     -10.286109      -279.8993
  13   2.0000     -10.283100      -279.8174
  14   2.0000     -10.275507      -279.6108
  15   2.0000     -10.266642      -279.3695
  16   2.0000      -8.083253      -219.9565
  17   2.0000      -8.079994      -219.8678
  18   2.0000      -6.041828      -164.4065
  19   2.0000      -6.038693      -164.3212
  20   2.0000      -6.038049      -164.3037
  21   2.0000      -6.034753      -164.2140
  22   2.0000      -6.033910      -164.1910
  23   2.0000      -6.030543      -164.0994
  24   2.0000      -1.003460       -27.3055
  25   2.0000      -0.977991       -26.6125
  26   2.0000      -0.918950       -25.0059
  27   2.0000      -0.904729       -24.6189
  28   2.0000      -0.869783       -23.6680
  29   2.0000      -0.848335       -23.0844
  30   2.0000      -0.838361       -22.8130
  31   2.0000      -0.816543       -22.2193
  32   2.0000      -0.788351       -21.4521
  33   2.0000      -0.779131       -21.2012
  34   2.0000      -0.714819       -19.4512
  35   2.0000      -0.707982       -19.2652
  36   2.0000      -0.688612       -18.7381
  37   2.0000      -0.668055       -18.1787
  38   2.0000      -0.646305       -17.5868
  39   2.0000      -0.611626       -16.6432
  40   2.0000      -0.587291       -15.9810
  41   2.0000      -0.579054       -15.7569
  42   2.0000      -0.554997       -15.1022
  43   2.0000      -0.549836       -14.9618
  44   2.0000      -0.546422       -14.8689
  45   2.0000      -0.540098       -14.6968
  46   2.0000      -0.523321       -14.2403
  47   2.0000      -0.511383       -13.9154
  48   2.0000      -0.503371       -13.6974
  49   2.0000      -0.498393       -13.5620
  50   2.0000      -0.483524       -13.1574
  51   2.0000      -0.480799       -13.0832
  52   2.0000      -0.474557       -12.9133
  53   2.0000      -0.466601       -12.6968
  54   2.0000      -0.459128       -12.4935
  55   2.0000      -0.448092       -12.1932
  56   2.0000      -0.439981       -11.9725
  57   2.0000      -0.436090       -11.8666
  58   2.0000      -0.433723       -11.8022
  59   2.0000      -0.426949       -11.6179
  60   2.0000      -0.417945       -11.3729
  61   2.0000      -0.416170       -11.3246
  62   2.0000      -0.406511       -11.0617
  63   2.0000      -0.343031        -9.3343
  64   2.0000      -0.336175        -9.1478
  65   2.0000      -0.326889        -8.8951
  66   2.0000      -0.298742        -8.1292
  67   0.0000       0.023098         0.6285
  68   0.0000       0.056556         1.5390
  69   0.0000       0.104126         2.8334
  70   0.0000       0.118608         3.2275
  71   0.0000       0.124974         3.4007

MULLIKEN ATOMIC CHARGES
-----------------------
   0 S :    0.094110
   1 C :   -0.085573
   2 C :   -0.102130
   3 C :    0.030606
   4 C :   -0.167513
   5 H :    0.031540
   6 C :    0.085377
   7 H :    0.015835
   8 H :    0.019344
   9 C :   -0.044287
  10 H :    0.009164
  11 H :    0.036393
  12 C :   -0.020122
  13 H :    0.015948
  14 H :    0.010772
  15 H :    0.032017
  16 S :    0.105934
  17 C :   -0.105782
  18 C :   -0.031789
  19 C :   -0.025066
  20 C :   -0.154053
  21 H :    0.001924
  22 C :    0.128252
  23 H :    0.007205
  24 H :    0.032545
  25 C :   -0.113120
  26 H :    0.038190
  27 H :    0.027664
  28 C :   -0.056608
  29 H :    0.038718
  30 H :    0.039219
  31 H :    0.022399
  32 H :    0.021409
  33 H :    0.061478
Sum of atomic charges:   -0.0000000

LOEWDIN ATOMIC CHARGES
----------------------
   0 S :    0.372358
   1 C :   -0.164592
   2 C :   -0.057668
   3 C :   -0.055532
   4 C :   -0.183313
   5 H :    0.033052
   6 C :   -0.037287
   7 H :    0.027336
   8 H :    0.034339
   9 C :   -0.030171
  10 H :    0.018434
  11 H :    0.027978
  12 C :   -0.060518
  13 H :    0.022866
  14 H :    0.010285
  15 H :    0.029552
  16 S :    0.378260
  17 C :   -0.170608
  18 C :   -0.056341
  19 C :   -0.055331
  20 C :   -0.190618
  21 H :    0.023297
  22 C :   -0.027215
  23 H :    0.023509
  24 H :    0.038554
  25 C :   -0.044887
  26 H :    0.028085
  27 H :    0.025522
  28 C :   -0.071469
  29 H :    0.027391
  30 H :    0.025196
  31 H :    0.019056
  32 H :    0.012058
  33 H :    0.028423

  Mayer bond orders larger than 0.100000
B(  0-S ,  1-C ) :   1.1169 B(  0-S ,  4-C ) :   1.1312 B(  1-C ,  2-C ) :   1.6314
B(  1-C , 32-H ) :   0.9792 B(  2-C ,  3-C ) :   1.2083 B(  2-C ,  6-C ) :   1.0367
B(  3-C ,  4-C ) :   1.5879 B(  3-C ,  5-H ) :   0.9773 B(  4-C , 20-C ) :   1.0583
B(  6-C ,  7-H ) :   0.9381 B(  6-C ,  8-H ) :   0.9294 B(  6-C ,  9-C ) :   1.0744
B(  9-C , 10-H ) :   0.9505 B(  9-C , 11-H ) :   0.9572 B(  9-C , 12-C ) :   1.0696
B( 12-C , 13-H ) :   0.9744 B( 12-C , 14-H ) :   0.9744 B( 12-C , 15-H ) :   0.9743
B( 16-S , 17-C ) :   1.1402 B( 16-S , 20-C ) :   1.1210 B( 17-C , 18-C ) :   1.6386
B( 17-C , 33-H ) :   0.9614 B( 18-C , 19-C ) :   1.2085 B( 18-C , 21-H ) :   1.0007
B( 19-C , 20-C ) :   1.6241 B( 19-C , 22-C ) :   1.0402 B( 22-C , 23-H ) :   0.9334
B( 22-C , 24-H ) :   0.9177 B( 22-C , 25-C ) :   1.0727 B( 25-C , 26-H ) :   0.9551
B( 25-C , 27-H ) :   0.9507 B( 25-C , 28-C ) :   1.0743 B( 28-C , 29-H ) :   0.9751
B( 28-C , 30-H ) :   0.9708 B( 28-C , 31-H ) :   0.9782

Dispersion correction           -0.015600685
FINAL SINGLE POINT ENERGY     -1339.862284593564

DIPOLE MOMENT
-------------
                                X             Y             Z
Electronic contribution:    -19.62750      -5.51190     -13.25344
Nuclear contribution   :     19.97871       5.69050      13.62858
                        -----------------------------------------
Total Dipole Moment    :      0.35120       0.17860       0.37514
                        -----------------------------------------
Magnitude (a.u.)       :      0.54403
Magnitude (Debye)      :      1.38281

Rotational constants in cm-1:     0.019033     0.009289     0.007720
Rotational constants in MHz :   570.585110   278.477816   231.450392

                             ****ORCA TERMINATED NORMALLY****
TOTAL RUN TIME: 0 days 0 hours 0 minutes 21 seconds 369 msec
