                         Program Version 4.2.1 -  RELEASE  -
|  1> ! wB97X-D3 SP def2-SVP
|  2> %pal
|  3> nprocs 24
|  4> end
|  5>
|  6> * xyz 0 1
|  7> S 	 -41.9819 	 18.1473 	 25.0157
|  8> C 	 -43.1222 	 17.9283 	 26.4152
|  9> C 	 -42.7758 	 16.782 	 27.0989
| 10> C 	 -41.6543 	 16.0625 	 26.5354
| 11> C 	 -41.1278 	 16.6442 	 25.3588
| 12> H 	 -41.1918 	 15.1113 	 26.8399
| 13> C 	 -43.4298 	 16.3021 	 28.3391
| 14> H 	 -43.1736 	 15.2876 	 28.4385
| 15> H 	 -44.4646 	 16.3153 	 28.2095
| 16> C 	 -42.9322 	 16.9394 	 29.6381
| 17> H 	 -41.8535 	 17.0669 	 29.544
| 18> H 	 -43.3693 	 17.9247 	 29.7088
| 19> C 	 -43.4398 	 16.0648 	 30.8574
| 20> H 	 -42.881 	 15.0623 	 30.8651
| 21> H 	 -43.1297 	 16.6738 	 31.7291
| 22> H 	 -44.5299 	 16.0136 	 30.7557
| 23> S 	 -40.678 	 15.253 	 23.0942
| 24> C 	 -39.1462 	 14.5346 	 22.9087
| 25> C 	 -38.257 	 14.8922 	 23.8646
| 26> C 	 -38.7397 	 15.8553 	 24.7599
| 27> C 	 -40.101 	 16.0783 	 24.4837
| 28> H 	 -37.2254 	 14.5159 	 23.7733
| 29> C 	 -37.9136 	 16.3981 	 25.8749
| 30> H 	 -37.0696 	 15.7428 	 25.9524
| 31> H 	 -38.4282 	 16.3898 	 26.833
| 32> C 	 -37.4092 	 17.8028 	 25.5877
| 33> H 	 -38.2053 	 18.454 	 25.1298
| 34> H 	 -36.7511 	 17.6304 	 24.6776
| 35> C 	 -36.5744 	 18.4147 	 26.7277
| 36> H 	 -35.871 	 17.6869 	 27.0381
| 37> H 	 -37.4643 	 18.69 	 27.3242
| 38> H 	 -36.0643 	 19.3358 	 26.4186
| 39> H 	 -43.9803 	 18.5066 	 26.754
| 40> H 	 -38.94 	 13.8668 	 22.0796
| 41> *
| 42>
| 43>                          ****END OF INPUT****

CARTESIAN COORDINATES (ANGSTROEM)
---------------------------------
  S    -41.981900   18.147300   25.015700
  C    -43.122200   17.928300   26.415200
  C    -42.775800   16.782000   27.098900
  C    -41.654300   16.062500   26.535400
  C    -41.127800   16.644200   25.358800
  H    -41.191800   15.111300   26.839900
  C    -43.429800   16.302100   28.339100
  H    -43.173600   15.287600   28.438500
  H    -44.464600   16.315300   28.209500
  C    -42.932200   16.939400   29.638100
  H    -41.853500   17.066900   29.544000
  H    -43.369300   17.924700   29.708800
  C    -43.439800   16.064800   30.857400
  H    -42.881000   15.062300   30.865100
  H    -43.129700   16.673800   31.729100
  H    -44.529900   16.013600   30.755700
  S    -40.678000   15.253000   23.094200
  C    -39.146200   14.534600   22.908700
  C    -38.257000   14.892200   23.864600
  C    -38.739700   15.855300   24.759900
  C    -40.101000   16.078300   24.483700
  H    -37.225400   14.515900   23.773300
  C    -37.913600   16.398100   25.874900
  H    -37.069600   15.742800   25.952400
  H    -38.428200   16.389800   26.833000
  C    -37.409200   17.802800   25.587700
  H    -38.205300   18.454000   25.129800
  H    -36.751100   17.630400   24.677600
  C    -36.574400   18.414700   26.727700
  H    -35.871000   17.686900   27.038100
  H    -37.464300   18.690000   27.324200
  H    -36.064300   19.335800   26.418600
  H    -43.980300   18.506600   26.754000
  H    -38.940000   13.866800   22.079600

 Total Charge           Charge          ....    0
 Multiplicity           Mult            ....    1
 Number of Electrons    NEL             ....  134
 Basis Dimension        Dim             ....  322

ORBITAL ENERGIES
----------------

  NO   OCC          E(Eh)            E(eV)
   0   2.0000     -88.967456     -2420.9276
   1   2.0000     -88.964982     -2420.8602
   2   2.0000     -10.330734      -281.1136
   3   2.0000     -10.322687      -280.8946
   4   2.0000     -10.316352      -280.7222
   5   2.0000     -10.310270      -280.5567
   6   2.0000     -10.302800      -280.3534
   7   2.0000     -10.298173      -280.2275
   8   2.0000     -10.296708      -280.1877
   9   2.0000     -10.291582      -280.0482
  10   2.0000     -10.289500      -279.9915
  11   2.0000     -10.286922      -279.9214
  12   2.0000     -10.286772      -279.9173
  13   2.0000     -10.286106      -279.8992
  14   2.0000     -10.278392      -279.6893
  15   2.0000     -10.275117      -279.6002
  16   2.0000      -8.083858      -219.9730
  17   2.0000      -8.078081      -219.8158
  18   2.0000      -6.041997      -164.4111
  19   2.0000      -6.038118      -164.3055
  20   2.0000      -6.036778      -164.2691
  21   2.0000      -6.034905      -164.2181
  22   2.0000      -6.032699      -164.1581
  23   2.0000      -6.028858      -164.0536
  24   2.0000      -1.012861       -27.5614
  25   2.0000      -0.978357       -26.6224
  26   2.0000      -0.916386       -24.9361
  27   2.0000      -0.913672       -24.8623
  28   2.0000      -0.867195       -23.5976
  29   2.0000      -0.856690       -23.3117
  30   2.0000      -0.838824       -22.8256
  31   2.0000      -0.810508       -22.0550
  32   2.0000      -0.783367       -21.3165
  33   2.0000      -0.770110       -20.9557
  34   2.0000      -0.702937       -19.1279
  35   2.0000      -0.701121       -19.0785
  36   2.0000      -0.686810       -18.6891
  37   2.0000      -0.661683       -18.0053
  38   2.0000      -0.636675       -17.3248
  39   2.0000      -0.614887       -16.7319
  40   2.0000      -0.601251       -16.3609
  41   2.0000      -0.571675       -15.5561
  42   2.0000      -0.568640       -15.4735
  43   2.0000      -0.562027       -15.2935
  44   2.0000      -0.525096       -14.2886
  45   2.0000      -0.522874       -14.2281
  46   2.0000      -0.521253       -14.1840
  47   2.0000      -0.516413       -14.0523
  48   2.0000      -0.501574       -13.6485
  49   2.0000      -0.495279       -13.4772
  50   2.0000      -0.488329       -13.2881
  51   2.0000      -0.486524       -13.2390
  52   2.0000      -0.468645       -12.7525
  53   2.0000      -0.460430       -12.5289
  54   2.0000      -0.459516       -12.5041
  55   2.0000      -0.451078       -12.2745
  56   2.0000      -0.443225       -12.0608
  57   2.0000      -0.438271       -11.9260
  58   2.0000      -0.436018       -11.8647
  59   2.0000      -0.428624       -11.6634
  60   2.0000      -0.422052       -11.4846
  61   2.0000      -0.410878       -11.1806
  62   2.0000      -0.397499       -10.8165
  63   2.0000      -0.341586        -9.2950
  64   2.0000      -0.325735        -8.8637
  65   2.0000      -0.322394        -8.7728
  66   2.0000      -0.303442        -8.2571
  67   0.0000       0.039064         1.0630
  68   0.0000       0.057730         1.5709
  69   0.0000       0.115586         3.1453
  70   0.0000       0.123568         3.3625
  71   0.0000       0.129222         3.5163

MULLIKEN ATOMIC CHARGES
-----------------------
   0 S :    0.095864
   1 C :   -0.113470
   2 C :   -0.114064
   3 C :    0.048016
   4 C :   -0.181496
   5 H :    0.020759
   6 C :    0.110387
   7 H :   -0.008538
   8 H :    0.011508
   9 C :   -0.078533
  10 H :    0.033857
  11 H :    0.021696
  12 C :   -0.074631
  13 H :    0.055557
  14 H :    0.045102
  15 H :    0.046442
  16 S :    0.143902
  17 C :   -0.096822
  18 C :   -0.048476
  19 C :   -0.021593
  20 C :   -0.192960
  21 H :    0.025491
  22 C :    0.130695
  23 H :    0.004820
  24 H :    0.020378
  25 C :   -0.160866
  26 H :    0.043896
  27 H :    0.014217
  28 C :   -0.004391
  29 H :    0.034522
  30 H :    0.048638
  31 H :    0.041383
  32 H :    0.045998
  33 H :    0.052712
Sum of atomic charges:   -0.0000000

LOEWDIN ATOMIC CHARGES
----------------------
   0 S :    0.373093
   1 C :   -0.189014
   2 C :   -0.061397
   3 C :   -0.066699
   4 C :   -0.196294
   5 H :    0.035000
   6 C :   -0.033499
   7 H :    0.022724
   8 H :    0.021867
   9 C :   -0.033119
  10 H :    0.024484
  11 H :    0.018604
  12 C :   -0.068467
  13 H :    0.035337
  14 H :    0.029951
  15 H :    0.028409
  16 S :    0.454881
  17 C :   -0.197363
  18 C :   -0.079319
  19 C :   -0.044589
  20 C :   -0.222143
  21 H :    0.037051
  22 C :   -0.029575
  23 H :    0.026664
  24 H :    0.027584
  25 C :   -0.050461
  26 H :    0.027628
  27 H :    0.018816
  28 C :   -0.063744
  29 H :    0.022323
  30 H :    0.039338
  31 H :    0.029951
  32 H :    0.034516
  33 H :    0.027461

  Mayer bond orders larger than 0.100000
B(  0-S ,  1-C ) :   1.1105 B(  0-S ,  4-C ) :   1.1472 B(  1-C ,  2-C ) :   1.6316
B(  1-C , 32-H ) :   0.9683 B(  2-C ,  3-C ) :   1.2176 B(  2-C ,  6-C ) :   1.0385
B(  3-C ,  4-C ) :   1.5934 B(  3-C ,  5-H ) :   0.9872 B(  4-C , 20-C ) :   1.0037
B(  6-C ,  7-H ) :   0.9323 B(  6-C ,  8-H ) :   0.9300 B(  6-C ,  9-C ) :   1.0562
B(  9-C , 10-H ) :   0.9578 B(  9-C , 11-H ) :   0.9552 B(  9-C , 12-C ) :   1.0696
B( 12-C , 13-H ) :   0.9753 B( 12-C , 14-H ) :   0.9763 B( 12-C , 15-H ) :   0.9741
B( 16-S , 17-C ) :   1.1794 B( 16-S , 20-C ) :   1.1813 B( 17-C , 18-C ) :   1.5945
B( 17-C , 33-H ) :   0.9657 B( 18-C , 19-C ) :   1.2775 B( 18-C , 21-H ) :   0.9837
B( 19-C , 20-C ) :   1.5493 B( 19-C , 22-C ) :   1.0470 B( 22-C , 23-H ) :   0.9222
B( 22-C , 24-H ) :   0.9255 B( 22-C , 25-C ) :   1.0539 B( 25-C , 26-H ) :   0.9650
B( 25-C , 27-H ) :   0.9492 B( 25-C , 28-C ) :   1.0536 B( 28-C , 29-H ) :   0.9710
B( 28-C , 30-H ) :   0.9795 B( 28-C , 31-H ) :   0.9746

Dispersion correction           -0.013971344
FINAL SINGLE POINT ENERGY     -1339.865238903423

DIPOLE MOMENT
-------------
                                X             Y             Z
Electronic contribution:     -6.93049      -2.53064     -25.41725
Nuclear contribution   :      7.15622       2.21889      25.85445
                        -----------------------------------------
Total Dipole Moment    :      0.22573      -0.31175       0.43720
                        -----------------------------------------
Magnitude (a.u.)       :      0.58249
Magnitude (Debye)      :      1.48057

Rotational constants in cm-1:     0.017538     0.008130     0.006891
Rotational constants in MHz :   525.776330   243.743586   206.573059

                             ****ORCA TERMINATED NORMALLY****
TOTAL RUN TIME: 0 days 0 hours 0 minutes 21 seconds 86 msec
