                         Program Version 4.2.1 -  RELEASE  -
|  1> ! wB97X-D3 SP def2-SVP
|  2> %pal
|  3> nprocs 24
|  4> end
|  5>
|  6> * xyz 0 1
|  7> S 	 50.0408 	 -36.1789 	 -120.463
|  8> C 	 50.3385 	 -35.0816 	 -121.779
|  9> C 	 49.9737 	 -33.7935 	 -121.572
| 10> C 	 49.5683 	 -33.5371 	 -120.202
| 11> C 	 49.5602 	 -34.7526 	 -119.465
| 12> H 	 49.306 	 -32.5868 	 -119.808
| 13> C 	 49.8814 	 -32.6754 	 -122.59
| 14> H 	 50.4034 	 -33.1442 	 -123.531
| 15> H 	 50.5439 	 -31.8634 	 -122.202
| 16> C 	 48.4782 	 -32.0512 	 -122.975
| 17> H 	 48.6319 	 -31.411 	 -123.852
| 18> H 	 47.8121 	 -32.8832 	 -123.256
| 19> C 	 47.7148 	 -31.2301 	 -121.925
| 20> H 	 46.8202 	 -30.8225 	 -122.448
| 21> H 	 47.4159 	 -31.8017 	 -121.074
| 22> H 	 48.3866 	 -30.4652 	 -121.555
| 23> S 	 50.5675 	 -35.7738 	 -117.216
| 24> C 	 49.8874 	 -35.3791 	 -115.659
| 25> C 	 48.7107 	 -34.642 	 -115.744
| 26> C 	 48.455 	 -34.3075 	 -117.138
| 27> C 	 49.3647 	 -34.8868 	 -118.017
| 28> H 	 48.1922 	 -34.415 	 -114.817
| 29> C 	 47.3791 	 -33.3063 	 -117.583
| 30> H 	 46.4176 	 -33.7151 	 -117.326
| 31> H 	 47.4281 	 -33.2869 	 -118.68
| 32> C 	 47.5824 	 -31.9357 	 -116.876
| 33> H 	 47.7737 	 -31.9891 	 -115.824
| 34> H 	 46.78 	 -31.3083 	 -117.025
| 35> C 	 48.7762 	 -31.2711 	 -117.515
| 36> H 	 49.6103 	 -31.9378 	 -117.487
| 37> H 	 49.0482 	 -30.3665 	 -116.873
| 38> H 	 48.6814 	 -31.017 	 -118.613
| 39> H 	 50.7354 	 -35.3852 	 -122.738
| 40> H 	 50.1995 	 -35.7914 	 -114.726
| 41> *
| 42>
| 43>                          ****END OF INPUT****

CARTESIAN COORDINATES (ANGSTROEM)
---------------------------------
  S     50.040800  -36.178900  -120.463000
  C     50.338500  -35.081600  -121.779000
  C     49.973700  -33.793500  -121.572000
  C     49.568300  -33.537100  -120.202000
  C     49.560200  -34.752600  -119.465000
  H     49.306000  -32.586800  -119.808000
  C     49.881400  -32.675400  -122.590000
  H     50.403400  -33.144200  -123.531000
  H     50.543900  -31.863400  -122.202000
  C     48.478200  -32.051200  -122.975000
  H     48.631900  -31.411000  -123.852000
  H     47.812100  -32.883200  -123.256000
  C     47.714800  -31.230100  -121.925000
  H     46.820200  -30.822500  -122.448000
  H     47.415900  -31.801700  -121.074000
  H     48.386600  -30.465200  -121.555000
  S     50.567500  -35.773800  -117.216000
  C     49.887400  -35.379100  -115.659000
  C     48.710700  -34.642000  -115.744000
  C     48.455000  -34.307500  -117.138000
  C     49.364700  -34.886800  -118.017000
  H     48.192200  -34.415000  -114.817000
  C     47.379100  -33.306300  -117.583000
  H     46.417600  -33.715100  -117.326000
  H     47.428100  -33.286900  -118.680000
  C     47.582400  -31.935700  -116.876000
  H     47.773700  -31.989100  -115.824000
  H     46.780000  -31.308300  -117.025000
  C     48.776200  -31.271100  -117.515000
  H     49.610300  -31.937800  -117.487000
  H     49.048200  -30.366500  -116.873000
  H     48.681400  -31.017000  -118.613000
  H     50.735400  -35.385200  -122.738000
  H     50.199500  -35.791400  -114.726000

 Total Charge           Charge          ....    0
 Multiplicity           Mult            ....    1
 Number of Electrons    NEL             ....  134
 Basis Dimension        Dim             ....  322

ORBITAL ENERGIES
----------------

  NO   OCC          E(Eh)            E(eV)
   0   2.0000     -88.971515     -2421.0380
   1   2.0000     -88.964686     -2420.8522
   2   2.0000     -10.338706      -281.3305
   3   2.0000     -10.321419      -280.8601
   4   2.0000     -10.314120      -280.6615
   5   2.0000     -10.310765      -280.5702
   6   2.0000     -10.306403      -280.4515
   7   2.0000     -10.305870      -280.4370
   8   2.0000     -10.299150      -280.2541
   9   2.0000     -10.299053      -280.2515
  10   2.0000     -10.298022      -280.2234
  11   2.0000     -10.295160      -280.1455
  12   2.0000     -10.290710      -280.0245
  13   2.0000     -10.282250      -279.7943
  14   2.0000     -10.279362      -279.7157
  15   2.0000     -10.279032      -279.7067
  16   2.0000      -8.085437      -220.0159
  17   2.0000      -8.080495      -219.8815
  18   2.0000      -6.044041      -164.4667
  19   2.0000      -6.040280      -164.3644
  20   2.0000      -6.038916      -164.3273
  21   2.0000      -6.035932      -164.2461
  22   2.0000      -6.034790      -164.2150
  23   2.0000      -6.031331      -164.1209
  24   2.0000      -1.007257       -27.4088
  25   2.0000      -0.981543       -26.7092
  26   2.0000      -0.913319       -24.8527
  27   2.0000      -0.903515       -24.5859
  28   2.0000      -0.870438       -23.6858
  29   2.0000      -0.851060       -23.1585
  30   2.0000      -0.845918       -23.0186
  31   2.0000      -0.815587       -22.1933
  32   2.0000      -0.779387       -21.2082
  33   2.0000      -0.768096       -20.9010
  34   2.0000      -0.709924       -19.3180
  35   2.0000      -0.698848       -19.0166
  36   2.0000      -0.697356       -18.9760
  37   2.0000      -0.659533       -17.9468
  38   2.0000      -0.639003       -17.3881
  39   2.0000      -0.614870       -16.7315
  40   2.0000      -0.592600       -16.1255
  41   2.0000      -0.571382       -15.5481
  42   2.0000      -0.554187       -15.0802
  43   2.0000      -0.549477       -14.9520
  44   2.0000      -0.543144       -14.7797
  45   2.0000      -0.535811       -14.5802
  46   2.0000      -0.521584       -14.1930
  47   2.0000      -0.518751       -14.1159
  48   2.0000      -0.497366       -13.5340
  49   2.0000      -0.496459       -13.5093
  50   2.0000      -0.490876       -13.3574
  51   2.0000      -0.483086       -13.1454
  52   2.0000      -0.468379       -12.7452
  53   2.0000      -0.461198       -12.5498
  54   2.0000      -0.456206       -12.4140
  55   2.0000      -0.450895       -12.2695
  56   2.0000      -0.447497       -12.1770
  57   2.0000      -0.436497       -11.8777
  58   2.0000      -0.432317       -11.7639
  59   2.0000      -0.424551       -11.5526
  60   2.0000      -0.423424       -11.5219
  61   2.0000      -0.420386       -11.4393
  62   2.0000      -0.416472       -11.3328
  63   2.0000      -0.350701        -9.5431
  64   2.0000      -0.330293        -8.9877
  65   2.0000      -0.327255        -8.9051
  66   2.0000      -0.289748        -7.8844
  67   0.0000       0.029482         0.8022
  68   0.0000       0.072707         1.9785
  69   0.0000       0.104262         2.8371
  70   0.0000       0.115548         3.1442
  71   0.0000       0.127553         3.4709

MULLIKEN ATOMIC CHARGES
-----------------------
   0 S :    0.114459
   1 C :   -0.120118
   2 C :   -0.069879
   3 C :    0.064190
   4 C :   -0.144628
   5 H :   -0.050955
   6 C :    0.006680
   7 H :    0.034133
   8 H :    0.041735
   9 C :   -0.070563
  10 H :    0.040357
  11 H :    0.035799
  12 C :   -0.055752
  13 H :    0.049337
  14 H :    0.034013
  15 H :    0.029717
  16 S :    0.115735
  17 C :   -0.088247
  18 C :   -0.042528
  19 C :   -0.080623
  20 C :   -0.138224
  21 H :    0.027930
  22 C :    0.077021
  23 H :    0.023118
  24 H :    0.022967
  25 C :   -0.006936
  26 H :    0.028374
  27 H :    0.013315
  28 C :   -0.098674
  29 H :    0.038481
  30 H :    0.039752
  31 H :    0.049259
  32 H :    0.036424
  33 H :    0.044332
Sum of atomic charges:    0.0000000

LOEWDIN ATOMIC CHARGES
----------------------
   0 S :    0.386101
   1 C :   -0.199898
   2 C :   -0.069672
   3 C :   -0.051650
   4 C :   -0.169176
   5 H :    0.018938
   6 C :   -0.043240
   7 H :    0.039856
   8 H :    0.033194
   9 C :   -0.039937
  10 H :    0.028820
  11 H :    0.027534
  12 C :   -0.065951
  13 H :    0.037706
  14 H :    0.017801
  15 H :    0.021672
  16 S :    0.431751
  17 C :   -0.184749
  18 C :   -0.069360
  19 C :   -0.055659
  20 C :   -0.225779
  21 H :    0.035746
  22 C :   -0.025922
  23 H :    0.026456
  24 H :    0.029719
  25 C :   -0.028929
  26 H :    0.024633
  27 H :    0.013671
  28 C :   -0.068335
  29 H :    0.019481
  30 H :    0.033134
  31 H :    0.024748
  32 H :    0.025398
  33 H :    0.021899

  Mayer bond orders larger than 0.100000
B(  0-S ,  1-C ) :   1.1155 B(  0-S ,  4-C ) :   1.1386 B(  1-C ,  2-C ) :   1.6658
B(  1-C , 32-H ) :   0.9542 B(  2-C ,  3-C ) :   1.2095 B(  2-C ,  6-C ) :   1.0213
B(  3-C ,  4-C ) :   1.5736 B(  3-C ,  5-H ) :   0.9839 B(  4-C , 20-C ) :   1.0330
B(  6-C ,  7-H ) :   0.9419 B(  6-C ,  8-H ) :   0.9380 B(  6-C ,  9-C ) :   1.0575
B(  9-C , 10-H ) :   0.9566 B(  9-C , 11-H ) :   0.9548 B(  9-C , 12-C ) :   1.0821
B( 12-C , 13-H ) :   0.9678 B( 12-C , 14-H ) :   0.9729 B( 12-C , 15-H ) :   0.9736
B( 16-S , 17-C ) :   1.1606 B( 16-S , 20-C ) :   1.1529 B( 17-C , 18-C ) :   1.6224
B( 17-C , 33-H ) :   0.9677 B( 18-C , 19-C ) :   1.2163 B( 18-C , 21-H ) :   0.9929
B( 19-C , 20-C ) :   1.5927 B( 19-C , 22-C ) :   1.0400 B( 22-C , 23-H ) :   0.9278
B( 22-C , 24-H ) :   0.9405 B( 22-C , 25-C ) :   1.0629 B( 25-C , 26-H ) :   0.9565
B( 25-C , 27-H ) :   0.9540 B( 25-C , 28-C ) :   1.0760 B( 28-C , 29-H ) :   0.9738
B( 28-C , 30-H ) :   0.9657 B( 28-C , 31-H ) :   0.9598

Dispersion correction           -0.016208232
FINAL SINGLE POINT ENERGY     -1339.876560306453

DIPOLE MOMENT
-------------
                                X             Y             Z
Electronic contribution:     11.89943     -26.50651       6.81874
Nuclear contribution   :    -12.23064      27.06591      -6.80776
                        -----------------------------------------
Total Dipole Moment    :     -0.33121       0.55940       0.01098
                        -----------------------------------------
Magnitude (a.u.)       :      0.65020
Magnitude (Debye)      :      1.65267

Rotational constants in cm-1:     0.018658     0.010803     0.007374
Rotational constants in MHz :   559.349383   323.877511   221.081053

                             ****ORCA TERMINATED NORMALLY****
TOTAL RUN TIME: 0 days 0 hours 0 minutes 23 seconds 620 msec
