                         Program Version 4.2.1 -  RELEASE  -
|  1> ! wB97X-D3 SP def2-SVP
|  2> %pal
|  3> nprocs 24
|  4> end
|  5>
|  6> * xyz 0 1
|  7> S 	 -89.2997 	 -47.687 	 -83.1633
|  8> C 	 -90.7858 	 -47.4478 	 -82.2683
|  9> C 	 -90.5156 	 -47.7953 	 -80.9484
| 10> C 	 -89.1523 	 -48.2902 	 -80.7167
| 11> C 	 -88.3295 	 -48.2807 	 -81.8049
| 12> H 	 -88.8458 	 -48.6018 	 -79.7047
| 13> C 	 -91.5192 	 -47.7429 	 -79.908
| 14> H 	 -92.3906 	 -47.224 	 -80.2505
| 15> H 	 -91.0188 	 -47.0568 	 -79.2309
| 16> C 	 -91.8456 	 -49.0749 	 -79.2576
| 17> H 	 -92.1238 	 -49.7815 	 -80.0272
| 18> H 	 -91.0292 	 -49.4703 	 -78.6969
| 19> C 	 -92.9189 	 -48.9496 	 -78.1852
| 20> H 	 -93.1196 	 -49.8975 	 -77.7919
| 21> H 	 -92.642 	 -48.212 	 -77.4823
| 22> H 	 -93.8956 	 -48.5822 	 -78.5356
| 23> S 	 -85.8675 	 -47.4069 	 -82.7164
| 24> C 	 -84.378 	 -48.1668 	 -81.9287
| 25> C 	 -84.7668 	 -49.2599 	 -81.2591
| 26> C 	 -86.1409 	 -49.4979 	 -81.2065
| 27> C 	 -86.918 	 -48.6019 	 -81.9062
| 28> H 	 -84.0443 	 -49.7866 	 -80.6515
| 29> C 	 -86.6168 	 -50.6382 	 -80.2699
| 30> H 	 -87.1406 	 -50.3216 	 -79.3452
| 31> H 	 -85.7339 	 -51.0013 	 -79.7135
| 32> C 	 -87.5228 	 -51.6734 	 -80.9743
| 33> H 	 -86.9069 	 -52.3013 	 -81.6306
| 34> H 	 -88.1423 	 -51.0772 	 -81.5947
| 35> C 	 -88.4147 	 -52.4473 	 -79.9831
| 36> H 	 -88.0944 	 -53.2134 	 -79.3217
| 37> H 	 -89.0906 	 -52.8959 	 -80.6553
| 38> H 	 -88.999 	 -51.7572 	 -79.3549
| 39> H 	 -91.7335 	 -46.9428 	 -82.5617
| 40> H 	 -83.3872 	 -47.7994 	 -82.0832
| 41> *
| 42>
| 43>                          ****END OF INPUT****

CARTESIAN COORDINATES (ANGSTROEM)
---------------------------------
  S    -89.299700  -47.687000  -83.163300
  C    -90.785800  -47.447800  -82.268300
  C    -90.515600  -47.795300  -80.948400
  C    -89.152300  -48.290200  -80.716700
  C    -88.329500  -48.280700  -81.804900
  H    -88.845800  -48.601800  -79.704700
  C    -91.519200  -47.742900  -79.908000
  H    -92.390600  -47.224000  -80.250500
  H    -91.018800  -47.056800  -79.230900
  C    -91.845600  -49.074900  -79.257600
  H    -92.123800  -49.781500  -80.027200
  H    -91.029200  -49.470300  -78.696900
  C    -92.918900  -48.949600  -78.185200
  H    -93.119600  -49.897500  -77.791900
  H    -92.642000  -48.212000  -77.482300
  H    -93.895600  -48.582200  -78.535600
  S    -85.867500  -47.406900  -82.716400
  C    -84.378000  -48.166800  -81.928700
  C    -84.766800  -49.259900  -81.259100
  C    -86.140900  -49.497900  -81.206500
  C    -86.918000  -48.601900  -81.906200
  H    -84.044300  -49.786600  -80.651500
  C    -86.616800  -50.638200  -80.269900
  H    -87.140600  -50.321600  -79.345200
  H    -85.733900  -51.001300  -79.713500
  C    -87.522800  -51.673400  -80.974300
  H    -86.906900  -52.301300  -81.630600
  H    -88.142300  -51.077200  -81.594700
  C    -88.414700  -52.447300  -79.983100
  H    -88.094400  -53.213400  -79.321700
  H    -89.090600  -52.895900  -80.655300
  H    -88.999000  -51.757200  -79.354900
  H    -91.733500  -46.942800  -82.561700
  H    -83.387200  -47.799400  -82.083200

 Total Charge           Charge          ....    0
 Multiplicity           Mult            ....    1
 Number of Electrons    NEL             ....  134
 Basis Dimension        Dim             ....  322

ORBITAL ENERGIES
----------------

  NO   OCC          E(Eh)            E(eV)
   0   2.0000     -88.963948     -2420.8321
   1   2.0000     -88.960698     -2420.7437
   2   2.0000     -10.335099      -281.2323
   3   2.0000     -10.333490      -281.1886
   4   2.0000     -10.323389      -280.9137
   5   2.0000     -10.317078      -280.7420
   6   2.0000     -10.304254      -280.3930
   7   2.0000     -10.298707      -280.2421
   8   2.0000     -10.298118      -280.2261
   9   2.0000     -10.294169      -280.1186
  10   2.0000     -10.291171      -280.0370
  11   2.0000     -10.285694      -279.8880
  12   2.0000     -10.283475      -279.8276
  13   2.0000     -10.282845      -279.8104
  14   2.0000     -10.272591      -279.5314
  15   2.0000     -10.270766      -279.4818
  16   2.0000      -8.077152      -219.7905
  17   2.0000      -8.075126      -219.7353
  18   2.0000      -6.035943      -164.2463
  19   2.0000      -6.033924      -164.1914
  20   2.0000      -6.031925      -164.1370
  21   2.0000      -6.029542      -164.0722
  22   2.0000      -6.027613      -164.0197
  23   2.0000      -6.025693      -163.9675
  24   2.0000      -1.004694       -27.3391
  25   2.0000      -0.983080       -26.7510
  26   2.0000      -0.922656       -25.1067
  27   2.0000      -0.903708       -24.5912
  28   2.0000      -0.877514       -23.8784
  29   2.0000      -0.849235       -23.1088
  30   2.0000      -0.846715       -23.0403
  31   2.0000      -0.822184       -22.3728
  32   2.0000      -0.779800       -21.2194
  33   2.0000      -0.771644       -20.9975
  34   2.0000      -0.719203       -19.5705
  35   2.0000      -0.706901       -19.2358
  36   2.0000      -0.695639       -18.9293
  37   2.0000      -0.665250       -18.1024
  38   2.0000      -0.638773       -17.3819
  39   2.0000      -0.622651       -16.9432
  40   2.0000      -0.600760       -16.3475
  41   2.0000      -0.574099       -15.6220
  42   2.0000      -0.567340       -15.4381
  43   2.0000      -0.557557       -15.1719
  44   2.0000      -0.538752       -14.6602
  45   2.0000      -0.530593       -14.4382
  46   2.0000      -0.519458       -14.1352
  47   2.0000      -0.514357       -13.9964
  48   2.0000      -0.509602       -13.8670
  49   2.0000      -0.507431       -13.8079
  50   2.0000      -0.494059       -13.4440
  51   2.0000      -0.482487       -13.1291
  52   2.0000      -0.470139       -12.7931
  53   2.0000      -0.461078       -12.5466
  54   2.0000      -0.458797       -12.4845
  55   2.0000      -0.450012       -12.2454
  56   2.0000      -0.445776       -12.1302
  57   2.0000      -0.440164       -11.9775
  58   2.0000      -0.434117       -11.8129
  59   2.0000      -0.424143       -11.5415
  60   2.0000      -0.413215       -11.2441
  61   2.0000      -0.412598       -11.2274
  62   2.0000      -0.403075       -10.9682
  63   2.0000      -0.358135        -9.7454
  64   2.0000      -0.332660        -9.0521
  65   2.0000      -0.319844        -8.7034
  66   2.0000      -0.294442        -8.0122
  67   0.0000       0.020978         0.5709
  68   0.0000       0.073459         1.9989
  69   0.0000       0.101812         2.7704
  70   0.0000       0.120408         3.2765
  71   0.0000       0.124328         3.3831

MULLIKEN ATOMIC CHARGES
-----------------------
   0 S :    0.084155
   1 C :   -0.116267
   2 C :   -0.137035
   3 C :    0.015454
   4 C :   -0.117712
   5 H :    0.011285
   6 C :    0.083383
   7 H :    0.002118
   8 H :    0.027215
   9 C :   -0.066867
  10 H :    0.032855
  11 H :    0.024274
  12 C :   -0.003837
  13 H :    0.023173
  14 H :    0.017278
  15 H :    0.014869
  16 S :    0.073032
  17 C :   -0.091632
  18 C :   -0.010015
  19 C :   -0.031346
  20 C :   -0.115629
  21 H :    0.021540
  22 C :    0.040694
  23 H :    0.017957
  24 H :    0.007769
  25 C :   -0.044045
  26 H :    0.035464
  27 H :    0.033605
  28 C :   -0.028297
  29 H :    0.032889
  30 H :    0.020269
  31 H :    0.020341
  32 H :    0.068471
  33 H :    0.054590
Sum of atomic charges:    0.0000000

LOEWDIN ATOMIC CHARGES
----------------------
   0 S :    0.385542
   1 C :   -0.211370
   2 C :   -0.063020
   3 C :   -0.067606
   4 C :   -0.183851
   5 H :    0.030554
   6 C :   -0.038148
   7 H :    0.025965
   8 H :    0.036998
   9 C :   -0.031249
  10 H :    0.025984
  11 H :    0.021651
  12 C :   -0.055292
  13 H :    0.019713
  14 H :    0.020573
  15 H :    0.022800
  16 S :    0.351299
  17 C :   -0.137173
  18 C :   -0.071529
  19 C :   -0.055407
  20 C :   -0.181808
  21 H :    0.034957
  22 C :   -0.039362
  23 H :    0.027459
  24 H :    0.027116
  25 C :   -0.027631
  26 H :    0.027893
  27 H :    0.025259
  28 C :   -0.064615
  29 H :    0.020890
  30 H :    0.025733
  31 H :    0.025395
  32 H :    0.044694
  33 H :    0.027584

  Mayer bond orders larger than 0.100000
B(  0-S ,  1-C ) :   1.1149 B(  0-S ,  4-C ) :   1.1336 B(  1-C ,  2-C ) :   1.6122
B(  1-C , 32-H ) :   0.9630 B(  2-C ,  3-C ) :   1.2218 B(  2-C ,  6-C ) :   1.0501
B(  3-C ,  4-C ) :   1.5782 B(  3-C ,  5-H ) :   0.9904 B(  4-C , 20-C ) :   1.0438
B(  6-C ,  7-H ) :   0.9398 B(  6-C ,  8-H ) :   0.9185 B(  6-C ,  9-C ) :   1.0691
B(  9-C , 10-H ) :   0.9575 B(  9-C , 11-H ) :   0.9471 B(  9-C , 12-C ) :   1.0922
B( 12-C , 13-H ) :   0.9736 B( 12-C , 14-H ) :   0.9718 B( 12-C , 15-H ) :   0.9727
B( 16-S , 17-C ) :   1.1252 B( 16-S , 20-C ) :   1.1205 B( 17-C , 18-C ) :   1.6291
B( 17-C , 20-C ) :   0.1004 B( 17-C , 33-H ) :   0.9726 B( 18-C , 19-C ) :   1.2476
B( 18-C , 21-H ) :   0.9853 B( 19-C , 20-C ) :   1.6095 B( 19-C , 22-C ) :   1.0262
B( 22-C , 23-H ) :   0.9385 B( 22-C , 24-H ) :   0.9321 B( 22-C , 25-C ) :   1.0434
B( 25-C , 26-H ) :   0.9551 B( 25-C , 27-H ) :   0.9595 B( 25-C , 28-C ) :   1.0758
B( 28-C , 29-H ) :   0.9789 B( 28-C , 30-H ) :   0.9723 B( 28-C , 31-H ) :   0.9709

Dispersion correction           -0.014624245
FINAL SINGLE POINT ENERGY     -1339.859195982515

DIPOLE MOMENT
-------------
                                X             Y             Z
Electronic contribution:     16.55706      16.65176     -21.75798
Nuclear contribution   :    -16.68693     -16.95757      22.59893
                        -----------------------------------------
Total Dipole Moment    :     -0.12987      -0.30581       0.84095
                        -----------------------------------------
Magnitude (a.u.)       :      0.90420
Magnitude (Debye)      :      2.29830

Rotational constants in cm-1:     0.018766     0.009154     0.006921
Rotational constants in MHz :   562.592428   274.435601   207.480104

                             ****ORCA TERMINATED NORMALLY****
TOTAL RUN TIME: 0 days 0 hours 0 minutes 22 seconds 336 msec
