                         Program Version 4.2.1 -  RELEASE  -
|  1> ! wB97X-D3 SP def2-SVP
|  2> %pal
|  3> nprocs 24
|  4> end
|  5>
|  6> * xyz 0 1
|  7> S 	 -94.9071 	 50.2786 	 -100.521
|  8> C 	 -95.2145 	 49.573 	 -98.8806
|  9> C 	 -95.1425 	 50.5463 	 -97.9026
| 10> C 	 -95.062 	 51.8396 	 -98.4558
| 11> C 	 -94.8408 	 51.8742 	 -99.8119
| 12> H 	 -94.9515 	 52.786 	 -97.9206
| 13> C 	 -95.223 	 50.4008 	 -96.3731
| 14> H 	 -95.7491 	 49.4701 	 -96.1655
| 15> H 	 -95.9212 	 51.0678 	 -95.8725
| 16> C 	 -93.8963 	 50.4795 	 -95.6026
| 17> H 	 -93.0768 	 49.8951 	 -96.0636
| 18> H 	 -93.5987 	 51.4874 	 -95.6008
| 19> C 	 -93.8899 	 50.0291 	 -94.1197
| 20> H 	 -92.9314 	 50.1798 	 -93.7224
| 21> H 	 -94.6505 	 50.5475 	 -93.537
| 22> H 	 -94.0016 	 48.91 	 -94.1822
| 23> S 	 -93.421 	 53.0101 	 -101.922
| 24> C 	 -93.5541 	 54.7119 	 -102.297
| 25> C 	 -94.559 	 55.3028 	 -101.516
| 26> C 	 -95.1565 	 54.3947 	 -100.51
| 27> C 	 -94.6462 	 53.0829 	 -100.66
| 28> H 	 -94.8954 	 56.3134 	 -101.765
| 29> C 	 -96.1497 	 54.8491 	 -99.4777
| 30> H 	 -96.4983 	 54.0029 	 -98.9497
| 31> H 	 -96.9925 	 55.2439 	 -100.027
| 32> C 	 -95.6397 	 56.0161 	 -98.577
| 33> H 	 -95.5225 	 57.0124 	 -99.1045
| 34> H 	 -94.5349 	 55.8943 	 -98.2193
| 35> C 	 -96.6699 	 56.2904 	 -97.3915
| 36> H 	 -96.0585 	 56.5553 	 -96.5134
| 37> H 	 -97.1868 	 55.3913 	 -97.0429
| 38> H 	 -97.3646 	 57.0889 	 -97.5937
| 39> H 	 -95.4713 	 48.5354 	 -98.6956
| 40> H 	 -93.1037 	 55.0947 	 -103.167
| 41> *
| 42>
| 43>                          ****END OF INPUT****

CARTESIAN COORDINATES (ANGSTROEM)
---------------------------------
  S    -94.907100   50.278600  -100.521000
  C    -95.214500   49.573000  -98.880600
  C    -95.142500   50.546300  -97.902600
  C    -95.062000   51.839600  -98.455800
  C    -94.840800   51.874200  -99.811900
  H    -94.951500   52.786000  -97.920600
  C    -95.223000   50.400800  -96.373100
  H    -95.749100   49.470100  -96.165500
  H    -95.921200   51.067800  -95.872500
  C    -93.896300   50.479500  -95.602600
  H    -93.076800   49.895100  -96.063600
  H    -93.598700   51.487400  -95.600800
  C    -93.889900   50.029100  -94.119700
  H    -92.931400   50.179800  -93.722400
  H    -94.650500   50.547500  -93.537000
  H    -94.001600   48.910000  -94.182200
  S    -93.421000   53.010100  -101.922000
  C    -93.554100   54.711900  -102.297000
  C    -94.559000   55.302800  -101.516000
  C    -95.156500   54.394700  -100.510000
  C    -94.646200   53.082900  -100.660000
  H    -94.895400   56.313400  -101.765000
  C    -96.149700   54.849100  -99.477700
  H    -96.498300   54.002900  -98.949700
  H    -96.992500   55.243900  -100.027000
  C    -95.639700   56.016100  -98.577000
  H    -95.522500   57.012400  -99.104500
  H    -94.534900   55.894300  -98.219300
  C    -96.669900   56.290400  -97.391500
  H    -96.058500   56.555300  -96.513400
  H    -97.186800   55.391300  -97.042900
  H    -97.364600   57.088900  -97.593700
  H    -95.471300   48.535400  -98.695600
  H    -93.103700   55.094700  -103.167000

 Total Charge           Charge          ....    0
 Multiplicity           Mult            ....    1
 Number of Electrons    NEL             ....  134
 Basis Dimension        Dim             ....  322

ORBITAL ENERGIES
----------------

  NO   OCC          E(Eh)            E(eV)
   0   2.0000     -88.969029     -2420.9704
   1   2.0000     -88.963508     -2420.8201
   2   2.0000     -10.332936      -281.1735
   3   2.0000     -10.332241      -281.1546
   4   2.0000     -10.321122      -280.8520
   5   2.0000     -10.318340      -280.7763
   6   2.0000     -10.311508      -280.5904
   7   2.0000     -10.306022      -280.4411
   8   2.0000     -10.305877      -280.4372
   9   2.0000     -10.303709      -280.3782
  10   2.0000     -10.295346      -280.1506
  11   2.0000     -10.291400      -280.0432
  12   2.0000     -10.290550      -280.0201
  13   2.0000     -10.283767      -279.8355
  14   2.0000     -10.283524      -279.8289
  15   2.0000     -10.280247      -279.7398
  16   2.0000      -8.082872      -219.9461
  17   2.0000      -8.078275      -219.8210
  18   2.0000      -6.041520      -164.3981
  19   2.0000      -6.037597      -164.2914
  20   2.0000      -6.036861      -164.2713
  21   2.0000      -6.033440      -164.1783
  22   2.0000      -6.032667      -164.1572
  23   2.0000      -6.029080      -164.0596
  24   2.0000      -1.001390       -27.2492
  25   2.0000      -0.977832       -26.6082
  26   2.0000      -0.908446       -24.7201
  27   2.0000      -0.903751       -24.5923
  28   2.0000      -0.866278       -23.5726
  29   2.0000      -0.849155       -23.1067
  30   2.0000      -0.839828       -22.8529
  31   2.0000      -0.812601       -22.1120
  32   2.0000      -0.784829       -21.3563
  33   2.0000      -0.773825       -21.0568
  34   2.0000      -0.703693       -19.1484
  35   2.0000      -0.698388       -19.0041
  36   2.0000      -0.695641       -18.9293
  37   2.0000      -0.658125       -17.9085
  38   2.0000      -0.641704       -17.4616
  39   2.0000      -0.620435       -16.8829
  40   2.0000      -0.595517       -16.2048
  41   2.0000      -0.573591       -15.6082
  42   2.0000      -0.559852       -15.2343
  43   2.0000      -0.554346       -15.0845
  44   2.0000      -0.528353       -14.3772
  45   2.0000      -0.523335       -14.2407
  46   2.0000      -0.516345       -14.0505
  47   2.0000      -0.511991       -13.9320
  48   2.0000      -0.505782       -13.7630
  49   2.0000      -0.502235       -13.6665
  50   2.0000      -0.493424       -13.4268
  51   2.0000      -0.479072       -13.0362
  52   2.0000      -0.469092       -12.7647
  53   2.0000      -0.460167       -12.5218
  54   2.0000      -0.456283       -12.4161
  55   2.0000      -0.448576       -12.2064
  56   2.0000      -0.443543       -12.0694
  57   2.0000      -0.442069       -12.0293
  58   2.0000      -0.435998       -11.8641
  59   2.0000      -0.424366       -11.5476
  60   2.0000      -0.417869       -11.3708
  61   2.0000      -0.413923       -11.2634
  62   2.0000      -0.411843       -11.2068
  63   2.0000      -0.352341        -9.5877
  64   2.0000      -0.336376        -9.1532
  65   2.0000      -0.324712        -8.8358
  66   2.0000      -0.288382        -7.8473
  67   0.0000       0.025961         0.7064
  68   0.0000       0.071914         1.9569
  69   0.0000       0.103947         2.8285
  70   0.0000       0.115447         3.1415
  71   0.0000       0.126530         3.4431

MULLIKEN ATOMIC CHARGES
-----------------------
   0 S :    0.102304
   1 C :   -0.133453
   2 C :   -0.049411
   3 C :   -0.004981
   4 C :   -0.128051
   5 H :    0.023636
   6 C :    0.074615
   7 H :    0.002885
   8 H :    0.020453
   9 C :   -0.078637
  10 H :    0.034208
  11 H :    0.015800
  12 C :   -0.043299
  13 H :    0.027899
  14 H :    0.037127
  15 H :    0.036576
  16 S :    0.088748
  17 C :   -0.082790
  18 C :   -0.036462
  19 C :   -0.071371
  20 C :   -0.126337
  21 H :    0.029110
  22 C :    0.114104
  23 H :    0.012005
  24 H :    0.031552
  25 C :   -0.154307
  26 H :    0.041299
  27 H :    0.052635
  28 C :   -0.048838
  29 H :    0.032744
  30 H :    0.031350
  31 H :    0.045951
  32 H :    0.050069
  33 H :    0.052866
Sum of atomic charges:   -0.0000000

LOEWDIN ATOMIC CHARGES
----------------------
   0 S :    0.383701
   1 C :   -0.177610
   2 C :   -0.056389
   3 C :   -0.073136
   4 C :   -0.184527
   5 H :    0.035000
   6 C :   -0.034038
   7 H :    0.025250
   8 H :    0.031092
   9 C :   -0.039153
  10 H :    0.028811
  11 H :    0.013847
  12 C :   -0.058826
  13 H :    0.020580
  14 H :    0.023232
  15 H :    0.031644
  16 S :    0.396631
  17 C :   -0.180673
  18 C :   -0.067691
  19 C :   -0.051679
  20 C :   -0.197391
  21 H :    0.032390
  22 C :   -0.033216
  23 H :    0.023334
  24 H :    0.037632
  25 C :   -0.050925
  26 H :    0.030056
  27 H :    0.032343
  28 C :   -0.070948
  29 H :    0.031392
  30 H :    0.024445
  31 H :    0.024990
  32 H :    0.029328
  33 H :    0.020502

  Mayer bond orders larger than 0.100000
B(  0-S ,  1-C ) :   1.1195 B(  0-S ,  4-C ) :   1.1462 B(  1-C ,  2-C ) :   1.6275
B(  1-C ,  4-C ) :   0.1009 B(  1-C , 32-H ) :   0.9688 B(  2-C ,  3-C ) :   1.2316
B(  2-C ,  6-C ) :   1.0225 B(  3-C ,  4-C ) :   1.5993 B(  3-C ,  5-H ) :   0.9837
B(  4-C , 20-C ) :   1.0162 B(  6-C ,  7-H ) :   0.9399 B(  6-C ,  8-H ) :   0.9407
B(  6-C ,  9-C ) :   1.0533 B(  9-C , 10-H ) :   0.9589 B(  9-C , 11-H ) :   0.9554
B(  9-C , 12-C ) :   1.0892 B( 12-C , 13-H ) :   0.9739 B( 12-C , 14-H ) :   0.9754
B( 12-C , 15-H ) :   0.9777 B( 16-S , 17-C ) :   1.1541 B( 16-S , 20-C ) :   1.1388
B( 17-C , 18-C ) :   1.6082 B( 17-C , 33-H ) :   0.9738 B( 18-C , 19-C ) :   1.2170
B( 18-C , 21-H ) :   0.9865 B( 19-C , 20-C ) :   1.5962 B( 19-C , 22-C ) :   1.0588
B( 22-C , 23-H ) :   0.9380 B( 22-C , 24-H ) :   0.9204 B( 22-C , 25-C ) :   1.0401
B( 25-C , 26-H ) :   0.9544 B( 25-C , 27-H ) :   0.9677 B( 25-C , 28-C ) :   1.0556
B( 28-C , 29-H ) :   0.9773 B( 28-C , 30-H ) :   0.9796 B( 28-C , 31-H ) :   0.9802

Dispersion correction           -0.013615535
FINAL SINGLE POINT ENERGY     -1339.871783570535

DIPOLE MOMENT
-------------
                                X             Y             Z
Electronic contribution:      5.89258      -8.90244     -29.80323
Nuclear contribution   :     -6.12211       9.31161      30.37794
                        -----------------------------------------
Total Dipole Moment    :     -0.22953       0.40917       0.57471
                        -----------------------------------------
Magnitude (a.u.)       :      0.74189
Magnitude (Debye)      :      1.88573

Rotational constants in cm-1:     0.016162     0.008793     0.006375
Rotational constants in MHz :   484.511860   263.607698   191.129892

                             ****ORCA TERMINATED NORMALLY****
TOTAL RUN TIME: 0 days 0 hours 0 minutes 21 seconds 142 msec
