                         Program Version 4.2.1 -  RELEASE  -
|  1> ! wB97X-D3 SP def2-SVP
|  2> %pal
|  3> nprocs 24
|  4> end
|  5>
|  6> * xyz 0 1
|  7> S 	 -50.3453 	 -48.3317 	 -77.4599
|  8> C 	 -51.7801 	 -48.0607 	 -76.5864
|  9> C 	 -52.7862 	 -48.9312 	 -77.0028
| 10> C 	 -52.3169 	 -49.9182 	 -77.9439
| 11> C 	 -50.9533 	 -49.7503 	 -78.2324
| 12> H 	 -52.8655 	 -50.7126 	 -78.4171
| 13> C 	 -54.2052 	 -48.8898 	 -76.4836
| 14> H 	 -54.2311 	 -47.9624 	 -75.9719
| 15> H 	 -54.3214 	 -49.7287 	 -75.8137
| 16> C 	 -55.2808 	 -48.8351 	 -77.574
| 17> H 	 -54.8941 	 -48.0232 	 -78.1958
| 18> H 	 -55.3044 	 -49.7653 	 -78.0624
| 19> C 	 -56.7135 	 -48.5599 	 -77.0746
| 20> H 	 -56.8702 	 -49.1172 	 -76.1804
| 21> H 	 -56.829 	 -47.4886 	 -76.8843
| 22> H 	 -57.4368 	 -48.7863 	 -77.8179
| 23> S 	 -48.9738 	 -51.6187 	 -78.7743
| 24> C 	 -48.7182 	 -52.2193 	 -80.3772
| 25> C 	 -49.467 	 -51.5519 	 -81.3064
| 26> C 	 -50.2422 	 -50.4531 	 -80.6954
| 27> C 	 -50.2165 	 -50.4701 	 -79.2644
| 28> H 	 -49.3366 	 -51.7643 	 -82.2768
| 29> C 	 -51.081 	 -49.5646 	 -81.5777
| 30> H 	 -50.3798 	 -49.2846 	 -82.3998
| 31> H 	 -51.4441 	 -48.7019 	 -81.0463
| 32> C 	 -52.3392 	 -50.1883 	 -82.1379
| 33> H 	 -53.1207 	 -50.2694 	 -81.3826
| 34> H 	 -52.1794 	 -51.1519 	 -82.5982
| 35> C 	 -53.027 	 -49.372 	 -83.3195
| 36> H 	 -52.3312 	 -49.2714 	 -84.13
| 37> H 	 -53.3616 	 -48.3698 	 -83.111
| 38> H 	 -53.9365 	 -49.8334 	 -83.7328
| 39> H 	 -51.8103 	 -47.1758 	 -75.9347
| 40> H 	 -48.1685 	 -53.1134 	 -80.6029
| 41> *
| 42>
| 43>                          ****END OF INPUT****

CARTESIAN COORDINATES (ANGSTROEM)
---------------------------------
  S    -50.345300  -48.331700  -77.459900
  C    -51.780100  -48.060700  -76.586400
  C    -52.786200  -48.931200  -77.002800
  C    -52.316900  -49.918200  -77.943900
  C    -50.953300  -49.750300  -78.232400
  H    -52.865500  -50.712600  -78.417100
  C    -54.205200  -48.889800  -76.483600
  H    -54.231100  -47.962400  -75.971900
  H    -54.321400  -49.728700  -75.813700
  C    -55.280800  -48.835100  -77.574000
  H    -54.894100  -48.023200  -78.195800
  H    -55.304400  -49.765300  -78.062400
  C    -56.713500  -48.559900  -77.074600
  H    -56.870200  -49.117200  -76.180400
  H    -56.829000  -47.488600  -76.884300
  H    -57.436800  -48.786300  -77.817900
  S    -48.973800  -51.618700  -78.774300
  C    -48.718200  -52.219300  -80.377200
  C    -49.467000  -51.551900  -81.306400
  C    -50.242200  -50.453100  -80.695400
  C    -50.216500  -50.470100  -79.264400
  H    -49.336600  -51.764300  -82.276800
  C    -51.081000  -49.564600  -81.577700
  H    -50.379800  -49.284600  -82.399800
  H    -51.444100  -48.701900  -81.046300
  C    -52.339200  -50.188300  -82.137900
  H    -53.120700  -50.269400  -81.382600
  H    -52.179400  -51.151900  -82.598200
  C    -53.027000  -49.372000  -83.319500
  H    -52.331200  -49.271400  -84.130000
  H    -53.361600  -48.369800  -83.111000
  H    -53.936500  -49.833400  -83.732800
  H    -51.810300  -47.175800  -75.934700
  H    -48.168500  -53.113400  -80.602900

 Total Charge           Charge          ....    0
 Multiplicity           Mult            ....    1
 Number of Electrons    NEL             ....  134
 Basis Dimension        Dim             ....  322

ORBITAL ENERGIES
----------------

  NO   OCC          E(Eh)            E(eV)
   0   2.0000     -88.964854     -2420.8568
   1   2.0000     -88.960139     -2420.7285
   2   2.0000     -10.329773      -281.0874
   3   2.0000     -10.328665      -281.0573
   4   2.0000     -10.315527      -280.6998
   5   2.0000     -10.314129      -280.6617
   6   2.0000     -10.312386      -280.6143
   7   2.0000     -10.303676      -280.3773
   8   2.0000     -10.297867      -280.2192
   9   2.0000     -10.289935      -280.0034
  10   2.0000     -10.287842      -279.9464
  11   2.0000     -10.287440      -279.9355
  12   2.0000     -10.284615      -279.8586
  13   2.0000     -10.282153      -279.7916
  14   2.0000     -10.275965      -279.6232
  15   2.0000     -10.274680      -279.5882
  16   2.0000      -8.080996      -219.8951
  17   2.0000      -8.075275      -219.7394
  18   2.0000      -6.039291      -164.3375
  19   2.0000      -6.035115      -164.2238
  20   2.0000      -6.033726      -164.1860
  21   2.0000      -6.032081      -164.1413
  22   2.0000      -6.029624      -164.0744
  23   2.0000      -6.026168      -163.9804
  24   2.0000      -1.006416       -27.3860
  25   2.0000      -0.983329       -26.7577
  26   2.0000      -0.915181       -24.9033
  27   2.0000      -0.906645       -24.6711
  28   2.0000      -0.871814       -23.7233
  29   2.0000      -0.850723       -23.1493
  30   2.0000      -0.842147       -22.9160
  31   2.0000      -0.818503       -22.2726
  32   2.0000      -0.783897       -21.3309
  33   2.0000      -0.769037       -20.9265
  34   2.0000      -0.711439       -19.3593
  35   2.0000      -0.699032       -19.0216
  36   2.0000      -0.687297       -18.7023
  37   2.0000      -0.661122       -17.9901
  38   2.0000      -0.649588       -17.6762
  39   2.0000      -0.619774       -16.8649
  40   2.0000      -0.596097       -16.2206
  41   2.0000      -0.582416       -15.8483
  42   2.0000      -0.571794       -15.5593
  43   2.0000      -0.560905       -15.2630
  44   2.0000      -0.527597       -14.3566
  45   2.0000      -0.520564       -14.1653
  46   2.0000      -0.518175       -14.1003
  47   2.0000      -0.515095       -14.0165
  48   2.0000      -0.507248       -13.8029
  49   2.0000      -0.499108       -13.5814
  50   2.0000      -0.496862       -13.5203
  51   2.0000      -0.477461       -12.9924
  52   2.0000      -0.469003       -12.7622
  53   2.0000      -0.467629       -12.7248
  54   2.0000      -0.463532       -12.6134
  55   2.0000      -0.453027       -12.3275
  56   2.0000      -0.444848       -12.1049
  57   2.0000      -0.433720       -11.8021
  58   2.0000      -0.432133       -11.7589
  59   2.0000      -0.424066       -11.5394
  60   2.0000      -0.423228       -11.5166
  61   2.0000      -0.418586       -11.3903
  62   2.0000      -0.409615       -11.1462
  63   2.0000      -0.335871        -9.1395
  64   2.0000      -0.328749        -8.9457
  65   2.0000      -0.320709        -8.7269
  66   2.0000      -0.306278        -8.3342
  67   0.0000       0.043047         1.1714
  68   0.0000       0.056005         1.5240
  69   0.0000       0.115151         3.1334
  70   0.0000       0.120693         3.2842
  71   0.0000       0.133507         3.6329

MULLIKEN ATOMIC CHARGES
-----------------------
   0 S :    0.128316
   1 C :   -0.137414
   2 C :   -0.115255
   3 C :    0.048232
   4 C :   -0.162917
   5 H :    0.015778
   6 C :    0.112562
   7 H :   -0.001618
   8 H :    0.037803
   9 C :   -0.109219
  10 H :    0.036489
  11 H :    0.023162
  12 C :   -0.008238
  13 H :    0.026422
  14 H :    0.027866
  15 H :    0.029753
  16 S :    0.099852
  17 C :   -0.079156
  18 C :    0.005871
  19 C :   -0.031109
  20 C :   -0.184231
  21 H :   -0.023663
  22 C :    0.083740
  23 H :    0.032894
  24 H :    0.025064
  25 C :   -0.069362
  26 H :    0.030784
  27 H :    0.025741
  28 C :   -0.060730
  29 H :    0.019057
  30 H :    0.021149
  31 H :    0.031906
  32 H :    0.063315
  33 H :    0.057154
Sum of atomic charges:    0.0000000

LOEWDIN ATOMIC CHARGES
----------------------
   0 S :    0.443623
   1 C :   -0.216587
   2 C :   -0.064484
   3 C :   -0.051789
   4 C :   -0.215379
   5 H :    0.031667
   6 C :   -0.027539
   7 H :    0.022958
   8 H :    0.029280
   9 C :   -0.036714
  10 H :    0.028268
  11 H :    0.014353
  12 C :   -0.056399
  13 H :    0.022442
  14 H :    0.027000
  15 H :    0.023582
  16 S :    0.406032
  17 C :   -0.180542
  18 C :   -0.061348
  19 C :   -0.040756
  20 C :   -0.210078
  21 H :    0.010511
  22 C :   -0.036772
  23 H :    0.038341
  24 H :    0.031681
  25 C :   -0.033281
  26 H :    0.023768
  27 H :    0.020788
  28 C :   -0.069026
  29 H :    0.017704
  30 H :    0.018607
  31 H :    0.028148
  32 H :    0.032654
  33 H :    0.029288

  Mayer bond orders larger than 0.100000
B(  0-S ,  1-C ) :   1.1687 B(  0-S ,  4-C ) :   1.1845 B(  1-C ,  2-C ) :   1.5678
B(  1-C , 32-H ) :   0.9689 B(  2-C ,  3-C ) :   1.2473 B(  2-C ,  6-C ) :   1.0273
B(  3-C ,  4-C ) :   1.5491 B(  3-C ,  5-H ) :   1.0016 B(  4-C , 20-C ) :   1.0222
B(  6-C ,  7-H ) :   0.9382 B(  6-C ,  8-H ) :   0.9316 B(  6-C ,  9-C ) :   1.0661
B(  9-C , 10-H ) :   0.9620 B(  9-C , 11-H ) :   0.9546 B(  9-C , 12-C ) :   1.0893
B( 12-C , 13-H ) :   0.9736 B( 12-C , 14-H ) :   0.9752 B( 12-C , 15-H ) :   0.9752
B( 16-S , 17-C ) :   1.1668 B( 16-S , 20-C ) :   1.1363 B( 17-C , 18-C ) :   1.6195
B( 17-C , 33-H ) :   0.9661 B( 18-C , 19-C ) :   1.2124 B( 18-C , 21-H ) :   1.0072
B( 19-C , 20-C ) :   1.5859 B( 19-C , 22-C ) :   1.0635 B( 22-C , 23-H ) :   0.9304
B( 22-C , 24-H ) :   0.9309 B( 22-C , 25-C ) :   1.0710 B( 25-C , 26-H ) :   0.9557
B( 25-C , 27-H ) :   0.9586 B( 25-C , 28-C ) :   1.0703 B( 28-C , 29-H ) :   0.9776
B( 28-C , 30-H ) :   0.9774 B( 28-C , 31-H ) :   0.9765

Dispersion correction           -0.013951847
FINAL SINGLE POINT ENERGY     -1339.875386316726

DIPOLE MOMENT
-------------
                                X             Y             Z
Electronic contribution:     28.57184      -5.46396      11.55966
Nuclear contribution   :    -29.17546       5.53155     -11.90042
                        -----------------------------------------
Total Dipole Moment    :     -0.60362       0.06759      -0.34076
                        -----------------------------------------
Magnitude (a.u.)       :      0.69645
Magnitude (Debye)      :      1.77023

Rotational constants in cm-1:     0.016617     0.008814     0.006595
Rotational constants in MHz :   498.169888   264.244001   197.698519

                             ****ORCA TERMINATED NORMALLY****
TOTAL RUN TIME: 0 days 0 hours 0 minutes 21 seconds 216 msec
