                         Program Version 4.2.1 -  RELEASE  -
|  1> ! wB97X-D3 SP def2-SVP
|  2> %pal
|  3> nprocs 24
|  4> end
|  5>
|  6> * xyz 0 1
|  7> S 	 -54.6779 	 -48.8202 	 -84.0276
|  8> C 	 -55.2205 	 -49.3412 	 -85.6593
|  9> C 	 -56.117 	 -48.393 	 -86.1354
| 10> C 	 -56.3473 	 -47.2811 	 -85.2621
| 11> C 	 -55.576 	 -47.2733 	 -84.1647
| 12> H 	 -57.049 	 -46.4242 	 -85.3851
| 13> C 	 -56.8498 	 -48.61 	 -87.5132
| 14> H 	 -56.3569 	 -49.4338 	 -87.9594
| 15> H 	 -56.6981 	 -47.7448 	 -88.1124
| 16> C 	 -58.3749 	 -48.8029 	 -87.4295
| 17> H 	 -58.6913 	 -47.9884 	 -86.6896
| 18> H 	 -58.8525 	 -48.4992 	 -88.4252
| 19> C 	 -58.851 	 -50.2621 	 -86.9371
| 20> H 	 -59.9586 	 -50.3158 	 -86.9216
| 21> H 	 -58.4076 	 -51.0507 	 -87.5293
| 22> H 	 -58.4515 	 -50.4622 	 -85.9932
| 23> S 	 -54.1411 	 -45.934 	 -82.2219
| 24> C 	 -54.8776 	 -44.8199 	 -81.0599
| 25> C 	 -56.1976 	 -44.7049 	 -81.4409
| 26> C 	 -56.5904 	 -45.5308 	 -82.5084
| 27> C 	 -55.5917 	 -46.2925 	 -83.0923
| 28> H 	 -56.9242 	 -44.0628 	 -80.9191
| 29> C 	 -58.0508 	 -45.5049 	 -82.8933
| 30> H 	 -58.0956 	 -45.0754 	 -83.8978
| 31> H 	 -58.494 	 -44.7486 	 -82.187
| 32> C 	 -58.8347 	 -46.7628 	 -82.7777
| 33> H 	 -58.7913 	 -47.1109 	 -81.7386
| 34> H 	 -58.3404 	 -47.5709 	 -83.3961
| 35> C 	 -60.3402 	 -46.6632 	 -83.1221
| 36> H 	 -60.7894 	 -47.6361 	 -82.865
| 37> H 	 -60.4393 	 -46.5061 	 -84.1939
| 38> H 	 -60.8467 	 -45.8667 	 -82.6048
| 39> H 	 -55.0837 	 -50.2593 	 -86.2176
| 40> H 	 -54.4713 	 -44.299 	 -80.1918
| 41> *
| 42>
| 43>                          ****END OF INPUT****

CARTESIAN COORDINATES (ANGSTROEM)
---------------------------------
  S    -54.677900  -48.820200  -84.027600
  C    -55.220500  -49.341200  -85.659300
  C    -56.117000  -48.393000  -86.135400
  C    -56.347300  -47.281100  -85.262100
  C    -55.576000  -47.273300  -84.164700
  H    -57.049000  -46.424200  -85.385100
  C    -56.849800  -48.610000  -87.513200
  H    -56.356900  -49.433800  -87.959400
  H    -56.698100  -47.744800  -88.112400
  C    -58.374900  -48.802900  -87.429500
  H    -58.691300  -47.988400  -86.689600
  H    -58.852500  -48.499200  -88.425200
  C    -58.851000  -50.262100  -86.937100
  H    -59.958600  -50.315800  -86.921600
  H    -58.407600  -51.050700  -87.529300
  H    -58.451500  -50.462200  -85.993200
  S    -54.141100  -45.934000  -82.221900
  C    -54.877600  -44.819900  -81.059900
  C    -56.197600  -44.704900  -81.440900
  C    -56.590400  -45.530800  -82.508400
  C    -55.591700  -46.292500  -83.092300
  H    -56.924200  -44.062800  -80.919100
  C    -58.050800  -45.504900  -82.893300
  H    -58.095600  -45.075400  -83.897800
  H    -58.494000  -44.748600  -82.187000
  C    -58.834700  -46.762800  -82.777700
  H    -58.791300  -47.110900  -81.738600
  H    -58.340400  -47.570900  -83.396100
  C    -60.340200  -46.663200  -83.122100
  H    -60.789400  -47.636100  -82.865000
  H    -60.439300  -46.506100  -84.193900
  H    -60.846700  -45.866700  -82.604800
  H    -55.083700  -50.259300  -86.217600
  H    -54.471300  -44.299000  -80.191800

 Total Charge           Charge          ....    0
 Multiplicity           Mult            ....    1
 Number of Electrons    NEL             ....  134
 Basis Dimension        Dim             ....  322

ORBITAL ENERGIES
----------------

  NO   OCC          E(Eh)            E(eV)
   0   2.0000     -88.969272     -2420.9770
   1   2.0000     -88.966907     -2420.9126
   2   2.0000     -10.335878      -281.2535
   3   2.0000     -10.329451      -281.0786
   4   2.0000     -10.323035      -280.9041
   5   2.0000     -10.321771      -280.8697
   6   2.0000     -10.308069      -280.4968
   7   2.0000     -10.304805      -280.4080
   8   2.0000     -10.299700      -280.2691
   9   2.0000     -10.298909      -280.2476
  10   2.0000     -10.294082      -280.1162
  11   2.0000     -10.291942      -280.0580
  12   2.0000     -10.290925      -280.0303
  13   2.0000     -10.284802      -279.8637
  14   2.0000     -10.281096      -279.7629
  15   2.0000     -10.278505      -279.6924
  16   2.0000      -8.082389      -219.9330
  17   2.0000      -8.081423      -219.9067
  18   2.0000      -6.041215      -164.3898
  19   2.0000      -6.040056      -164.3583
  20   2.0000      -6.037222      -164.2812
  21   2.0000      -6.035661      -164.2387
  22   2.0000      -6.032756      -164.1596
  23   2.0000      -6.032327      -164.1480
  24   2.0000      -1.011142       -27.5146
  25   2.0000      -0.985360       -26.8130
  26   2.0000      -0.912034       -24.8177
  27   2.0000      -0.904145       -24.6030
  28   2.0000      -0.871868       -23.7247
  29   2.0000      -0.851206       -23.1625
  30   2.0000      -0.838248       -22.8099
  31   2.0000      -0.821382       -22.3509
  32   2.0000      -0.784079       -21.3359
  33   2.0000      -0.774511       -21.0755
  34   2.0000      -0.715649       -19.4738
  35   2.0000      -0.695180       -18.9168
  36   2.0000      -0.688578       -18.7372
  37   2.0000      -0.666469       -18.1356
  38   2.0000      -0.642932       -17.4951
  39   2.0000      -0.619198       -16.8492
  40   2.0000      -0.593569       -16.1518
  41   2.0000      -0.568609       -15.4726
  42   2.0000      -0.565256       -15.3814
  43   2.0000      -0.546712       -14.8768
  44   2.0000      -0.534070       -14.5328
  45   2.0000      -0.526735       -14.3332
  46   2.0000      -0.520114       -14.1530
  47   2.0000      -0.518798       -14.1172
  48   2.0000      -0.509643       -13.8681
  49   2.0000      -0.497772       -13.5451
  50   2.0000      -0.494200       -13.4479
  51   2.0000      -0.486820       -13.2470
  52   2.0000      -0.475735       -12.9454
  53   2.0000      -0.468726       -12.7547
  54   2.0000      -0.461996       -12.5716
  55   2.0000      -0.444913       -12.1067
  56   2.0000      -0.442812       -12.0495
  57   2.0000      -0.438027       -11.9193
  58   2.0000      -0.430849       -11.7240
  59   2.0000      -0.429529       -11.6881
  60   2.0000      -0.413511       -11.2522
  61   2.0000      -0.410416       -11.1680
  62   2.0000      -0.405794       -11.0422
  63   2.0000      -0.358291        -9.7496
  64   2.0000      -0.333612        -9.0780
  65   2.0000      -0.331483        -9.0201
  66   2.0000      -0.294046        -8.0014
  67   0.0000       0.020243         0.5508
  68   0.0000       0.074864         2.0372
  69   0.0000       0.106792         2.9060
  70   0.0000       0.116180         3.1614
  71   0.0000       0.125098         3.4041

MULLIKEN ATOMIC CHARGES
-----------------------
   0 S :    0.100198
   1 C :   -0.107253
   2 C :   -0.111940
   3 C :   -0.015708
   4 C :   -0.098405
   5 H :    0.026263
   6 C :    0.115774
   7 H :    0.001295
   8 H :    0.026985
   9 C :   -0.132556
  10 H :    0.036836
  11 H :    0.045081
  12 C :   -0.029128
  13 H :    0.049264
  14 H :    0.025068
  15 H :    0.022108
  16 S :    0.099890
  17 C :   -0.086615
  18 C :   -0.046248
  19 C :   -0.056571
  20 C :   -0.140054
  21 H :    0.027282
  22 C :    0.045432
  23 H :    0.033811
  24 H :    0.011138
  25 C :   -0.098132
  26 H :    0.025931
  27 H :    0.048432
  28 C :   -0.028466
  29 H :    0.040827
  30 H :    0.025547
  31 H :    0.028606
  32 H :    0.049391
  33 H :    0.065916
Sum of atomic charges:   -0.0000000

LOEWDIN ATOMIC CHARGES
----------------------
   0 S :    0.368441
   1 C :   -0.188284
   2 C :   -0.057881
   3 C :   -0.073089
   4 C :   -0.169386
   5 H :    0.040062
   6 C :   -0.024030
   7 H :    0.018757
   8 H :    0.029167
   9 C :   -0.047262
  10 H :    0.028187
  11 H :    0.029760
  12 C :   -0.063038
  13 H :    0.032673
  14 H :    0.023637
  15 H :    0.018110
  16 S :    0.417111
  17 C :   -0.184455
  18 C :   -0.077805
  19 C :   -0.064649
  20 C :   -0.205902
  21 H :    0.034192
  22 C :   -0.039668
  23 H :    0.026376
  24 H :    0.032337
  25 C :   -0.049998
  26 H :    0.025629
  27 H :    0.031030
  28 C :   -0.060370
  29 H :    0.032006
  30 H :    0.021719
  31 H :    0.021089
  32 H :    0.034653
  33 H :    0.040879

  Mayer bond orders larger than 0.100000
B(  0-S ,  1-C ) :   1.1078 B(  0-S ,  4-C ) :   1.1198 B(  1-C ,  2-C ) :   1.6483
B(  1-C , 32-H ) :   0.9643 B(  2-C ,  3-C ) :   1.1976 B(  2-C ,  6-C ) :   1.0207
B(  3-C ,  4-C ) :   1.6191 B(  3-C ,  5-H ) :   0.9878 B(  4-C , 20-C ) :   1.0601
B(  6-C ,  7-H ) :   0.9429 B(  6-C ,  8-H ) :   0.9386 B(  6-C ,  9-C ) :   1.0613
B(  9-C , 10-H ) :   0.9574 B(  9-C , 11-H ) :   0.9589 B(  9-C , 12-C ) :   1.0556
B( 12-C , 13-H ) :   0.9777 B( 12-C , 14-H ) :   0.9766 B( 12-C , 15-H ) :   0.9776
B( 16-S , 17-C ) :   1.1613 B( 16-S , 20-C ) :   1.1409 B( 17-C , 18-C ) :   1.5647
B( 17-C , 20-C ) :   0.1059 B( 17-C , 33-H ) :   0.9683 B( 18-C , 19-C ) :   1.3152
B( 18-C , 21-H ) :   0.9771 B( 19-C , 20-C ) :   1.5440 B( 19-C , 22-C ) :   1.0335
B( 22-C , 23-H ) :   0.9270 B( 22-C , 24-H ) :   0.9272 B( 22-C , 25-C ) :   1.0757
B( 25-C , 26-H ) :   0.9498 B( 25-C , 27-H ) :   0.9493 B( 25-C , 28-C ) :   1.0845
B( 28-C , 29-H ) :   0.9748 B( 28-C , 30-H ) :   0.9746 B( 28-C , 31-H ) :   0.9744

Dispersion correction           -0.015069827
FINAL SINGLE POINT ENERGY     -1339.876767760382

DIPOLE MOMENT
-------------
                                X             Y             Z
Electronic contribution:     28.80797       4.54541      11.94414
Nuclear contribution   :    -29.51261      -4.42465     -12.11047
                        -----------------------------------------
Total Dipole Moment    :     -0.70463       0.12076      -0.16632
                        -----------------------------------------
Magnitude (a.u.)       :      0.73400
Magnitude (Debye)      :      1.86567

Rotational constants in cm-1:     0.019266     0.009586     0.006997
Rotational constants in MHz :   577.586154   287.394534   209.770005

                             ****ORCA TERMINATED NORMALLY****
TOTAL RUN TIME: 0 days 0 hours 0 minutes 21 seconds 297 msec
