                         Program Version 4.2.1 -  RELEASE  -
|  1> ! wB97X-D3 SP def2-SVP
|  2> %pal
|  3> nprocs 24
|  4> end
|  5>
|  6> * xyz 0 1
|  7> S 	 -102.655 	 15.1845 	 -121.616
|  8> C 	 -103.434 	 16.3602 	 -122.717
|  9> C 	 -103.116 	 15.99 	 -124.037
| 10> C 	 -102.337 	 14.7761 	 -124.162
| 11> C 	 -101.916 	 14.2721 	 -122.946
| 12> H 	 -102.101 	 14.3268 	 -125.049
| 13> C 	 -103.473 	 16.8326 	 -125.274
| 14> H 	 -104.432 	 17.2812 	 -125.019
| 15> H 	 -103.63 	 16.1756 	 -126.108
| 16> C 	 -102.443 	 17.9053 	 -125.518
| 17> H 	 -101.554 	 17.3774 	 -125.612
| 18> H 	 -102.566 	 18.2399 	 -126.593
| 19> C 	 -102.296 	 19.1447 	 -124.502
| 20> H 	 -102.197 	 18.7476 	 -123.475
| 21> H 	 -101.402 	 19.7426 	 -124.708
| 22> H 	 -103.206 	 19.7621 	 -124.475
| 23> S 	 -101.539 	 12.0176 	 -121.561
| 24> C 	 -100.028 	 11.289 	 -121.542
| 25> C 	 -99.1442 	 11.8268 	 -122.442
| 26> C 	 -99.6597 	 12.9747 	 -123.053
| 27> C 	 -100.945 	 13.205 	 -122.608
| 28> H 	 -98.1652 	 11.4363 	 -122.677
| 29> C 	 -98.8517 	 13.6865 	 -124.134
| 30> H 	 -99.5037 	 14.1118 	 -124.894
| 31> H 	 -98.2221 	 12.9409 	 -124.61
| 32> C 	 -97.9612 	 14.6798 	 -123.413
| 33> H 	 -97.2197 	 15.0168 	 -124.19
| 34> H 	 -97.3928 	 14.2258 	 -122.517
| 35> C 	 -98.6111 	 16.0451 	 -123.081
| 36> H 	 -99.4598 	 15.783 	 -122.411
| 37> H 	 -98.9235 	 16.5655 	 -123.967
| 38> H 	 -97.7972 	 16.7342 	 -122.65
| 39> H 	 -103.926 	 17.2969 	 -122.371
| 40> H 	 -99.7552 	 10.4233 	 -121.012
| 41> *
| 42>
| 43>                          ****END OF INPUT****

CARTESIAN COORDINATES (ANGSTROEM)
---------------------------------
  S    -102.655000   15.184500  -121.616000
  C    -103.434000   16.360200  -122.717000
  C    -103.116000   15.990000  -124.037000
  C    -102.337000   14.776100  -124.162000
  C    -101.916000   14.272100  -122.946000
  H    -102.101000   14.326800  -125.049000
  C    -103.473000   16.832600  -125.274000
  H    -104.432000   17.281200  -125.019000
  H    -103.630000   16.175600  -126.108000
  C    -102.443000   17.905300  -125.518000
  H    -101.554000   17.377400  -125.612000
  H    -102.566000   18.239900  -126.593000
  C    -102.296000   19.144700  -124.502000
  H    -102.197000   18.747600  -123.475000
  H    -101.402000   19.742600  -124.708000
  H    -103.206000   19.762100  -124.475000
  S    -101.539000   12.017600  -121.561000
  C    -100.028000   11.289000  -121.542000
  C    -99.144200   11.826800  -122.442000
  C    -99.659700   12.974700  -123.053000
  C    -100.945000   13.205000  -122.608000
  H    -98.165200   11.436300  -122.677000
  C    -98.851700   13.686500  -124.134000
  H    -99.503700   14.111800  -124.894000
  H    -98.222100   12.940900  -124.610000
  C    -97.961200   14.679800  -123.413000
  H    -97.219700   15.016800  -124.190000
  H    -97.392800   14.225800  -122.517000
  C    -98.611100   16.045100  -123.081000
  H    -99.459800   15.783000  -122.411000
  H    -98.923500   16.565500  -123.967000
  H    -97.797200   16.734200  -122.650000
  H    -103.926000   17.296900  -122.371000
  H    -99.755200   10.423300  -121.012000

 Total Charge           Charge          ....    0
 Multiplicity           Mult            ....    1
 Number of Electrons    NEL             ....  134
 Basis Dimension        Dim             ....  322

ORBITAL ENERGIES
----------------

  NO   OCC          E(Eh)            E(eV)
   0   2.0000     -88.968239     -2420.9489
   1   2.0000     -88.963152     -2420.8104
   2   2.0000     -10.333240      -281.1818
   3   2.0000     -10.321480      -280.8617
   4   2.0000     -10.319813      -280.8164
   5   2.0000     -10.305736      -280.4333
   6   2.0000     -10.305467      -280.4260
   7   2.0000     -10.297415      -280.2069
   8   2.0000     -10.292901      -280.0841
   9   2.0000     -10.291393      -280.0431
  10   2.0000     -10.290581      -280.0209
  11   2.0000     -10.290104      -280.0080
  12   2.0000     -10.287982      -279.9502
  13   2.0000     -10.287557      -279.9386
  14   2.0000     -10.286666      -279.9144
  15   2.0000     -10.278333      -279.6876
  16   2.0000      -8.085396      -220.0148
  17   2.0000      -8.076776      -219.7802
  18   2.0000      -6.043523      -164.4526
  19   2.0000      -6.039682      -164.3481
  20   2.0000      -6.036282      -164.2556
  21   2.0000      -6.035380      -164.2310
  22   2.0000      -6.031301      -164.1201
  23   2.0000      -6.027616      -164.0198
  24   2.0000      -1.019407       -27.7395
  25   2.0000      -0.980970       -26.6936
  26   2.0000      -0.914573       -24.8868
  27   2.0000      -0.908360       -24.7177
  28   2.0000      -0.864228       -23.5168
  29   2.0000      -0.851039       -23.1579
  30   2.0000      -0.837854       -22.7992
  31   2.0000      -0.811147       -22.0724
  32   2.0000      -0.785231       -21.3672
  33   2.0000      -0.775600       -21.1052
  34   2.0000      -0.706115       -19.2144
  35   2.0000      -0.693642       -18.8750
  36   2.0000      -0.684287       -18.6204
  37   2.0000      -0.665158       -18.0999
  38   2.0000      -0.642857       -17.4930
  39   2.0000      -0.623358       -16.9624
  40   2.0000      -0.604103       -16.4385
  41   2.0000      -0.565230       -15.3807
  42   2.0000      -0.552260       -15.0278
  43   2.0000      -0.548687       -14.9305
  44   2.0000      -0.539834       -14.6896
  45   2.0000      -0.528656       -14.3855
  46   2.0000      -0.519786       -14.1441
  47   2.0000      -0.509058       -13.8522
  48   2.0000      -0.502571       -13.6757
  49   2.0000      -0.497416       -13.5354
  50   2.0000      -0.490452       -13.3459
  51   2.0000      -0.481593       -13.1048
  52   2.0000      -0.470043       -12.7905
  53   2.0000      -0.467543       -12.7225
  54   2.0000      -0.463685       -12.6175
  55   2.0000      -0.452709       -12.3188
  56   2.0000      -0.443223       -12.0607
  57   2.0000      -0.436888       -11.8883
  58   2.0000      -0.432928       -11.7806
  59   2.0000      -0.427560       -11.6345
  60   2.0000      -0.424688       -11.5564
  61   2.0000      -0.402750       -10.9594
  62   2.0000      -0.397774       -10.8240
  63   2.0000      -0.342942        -9.3319
  64   2.0000      -0.334627        -9.1057
  65   2.0000      -0.327682        -8.9167
  66   2.0000      -0.293516        -7.9870
  67   0.0000       0.033892         0.9222
  68   0.0000       0.068953         1.8763
  69   0.0000       0.109088         2.9684
  70   0.0000       0.118047         3.2122
  71   0.0000       0.130769         3.5584

MULLIKEN ATOMIC CHARGES
-----------------------
   0 S :    0.088638
   1 C :   -0.138626
   2 C :   -0.136631
   3 C :    0.085378
   4 C :   -0.144703
   5 H :   -0.024576
   6 C :    0.083061
   7 H :    0.019618
   8 H :    0.022418
   9 C :   -0.044609
  10 H :   -0.001391
  11 H :    0.026705
  12 C :   -0.060971
  13 H :    0.038919
  14 H :    0.047424
  15 H :    0.036902
  16 S :    0.150753
  17 C :   -0.052614
  18 C :   -0.048883
  19 C :   -0.049587
  20 C :   -0.196301
  21 H :    0.009071
  22 C :    0.131211
  23 H :    0.018427
  24 H :    0.022314
  25 C :   -0.132990
  26 H :    0.024848
  27 H :    0.053674
  28 C :   -0.056676
  29 H :    0.050813
  30 H :    0.027499
  31 H :    0.046172
  32 H :    0.073601
  33 H :    0.031113
Sum of atomic charges:    0.0000000

LOEWDIN ATOMIC CHARGES
----------------------
   0 S :    0.376366
   1 C :   -0.202960
   2 C :   -0.053943
   3 C :   -0.061695
   4 C :   -0.177257
   5 H :    0.014671
   6 C :   -0.029077
   7 H :    0.027599
   8 H :    0.029540
   9 C :   -0.040832
  10 H :    0.012000
  11 H :    0.028562
  12 C :   -0.066414
  13 H :    0.027894
  14 H :    0.031571
  15 H :    0.025532
  16 S :    0.472242
  17 C :   -0.201244
  18 C :   -0.068927
  19 C :   -0.054305
  20 C :   -0.231409
  21 H :    0.029461
  22 C :   -0.024822
  23 H :    0.028901
  24 H :    0.032630
  25 C :   -0.051811
  26 H :    0.022506
  27 H :    0.034917
  28 C :   -0.070075
  29 H :    0.028088
  30 H :    0.018473
  31 H :    0.036149
  32 H :    0.038383
  33 H :    0.019287

  Mayer bond orders larger than 0.100000
B(  0-S ,  1-C ) :   1.1175 B(  0-S ,  4-C ) :   1.1553 B(  1-C ,  2-C ) :   1.6130
B(  1-C ,  4-C ) :   0.1014 B(  1-C , 32-H ) :   0.9645 B(  2-C ,  3-C ) :   1.2210
B(  2-C ,  6-C ) :   1.0217 B(  3-C ,  4-C ) :   1.5821 B(  3-C ,  5-H ) :   1.0121
B(  4-C , 20-C ) :   0.9880 B(  6-C ,  7-H ) :   0.9423 B(  6-C ,  8-H ) :   0.9397
B(  6-C ,  9-C ) :   1.0690 B(  9-C , 10-H ) :   0.9517 B(  9-C , 11-H ) :   0.9538
B(  9-C , 12-C ) :   1.0606 B( 12-C , 13-H ) :   0.9725 B( 12-C , 14-H ) :   0.9756
B( 12-C , 15-H ) :   0.9780 B( 16-S , 17-C ) :   1.1788 B( 16-S , 20-C ) :   1.1862
B( 17-C , 18-C ) :   1.5750 B( 17-C , 33-H ) :   0.9714 B( 18-C , 19-C ) :   1.2877
B( 18-C , 21-H ) :   0.9880 B( 19-C , 20-C ) :   1.5741 B( 19-C , 22-C ) :   1.0270
B( 22-C , 23-H ) :   0.9355 B( 22-C , 24-H ) :   0.9321 B( 22-C , 25-C ) :   1.0645
B( 25-C , 26-H ) :   0.9542 B( 25-C , 27-H ) :   0.9559 B( 25-C , 28-C ) :   1.0742
B( 28-C , 29-H ) :   0.9723 B( 28-C , 30-H ) :   0.9749 B( 28-C , 31-H ) :   0.9725

Dispersion correction           -0.016063779
FINAL SINGLE POINT ENERGY     -1339.869678312843

DIPOLE MOMENT
-------------
                                X             Y             Z
Electronic contribution:    -10.30032     -20.91032      15.54426
Nuclear contribution   :     10.66350      21.01660     -16.12947
                        -----------------------------------------
Total Dipole Moment    :      0.36318       0.10628      -0.58521
                        -----------------------------------------
Magnitude (a.u.)       :      0.69690
Magnitude (Debye)      :      1.77138

Rotational constants in cm-1:     0.022040     0.009427     0.007613
Rotational constants in MHz :   660.751392   282.628691   228.230613

                             ****ORCA TERMINATED NORMALLY****
TOTAL RUN TIME: 0 days 0 hours 0 minutes 22 seconds 997 msec
