                         Program Version 4.2.1 -  RELEASE  -
|  1> ! wB97X-D3 SP def2-SVP
|  2> %pal
|  3> nprocs 24
|  4> end
|  5>
|  6> * xyz 0 1
|  7> S 	 -45.8093 	 17.5404 	 29.7438
|  8> C 	 -45.7208 	 17.2312 	 28.0024
|  9> C 	 -46.9029 	 17.5899 	 27.3465
| 10> C 	 -47.7363 	 18.2954 	 28.2159
| 11> C 	 -47.3207 	 18.4277 	 29.525
| 12> H 	 -48.7273 	 18.6592 	 27.9117
| 13> C 	 -47.304 	 17.0463 	 25.9804
| 14> H 	 -48.3363 	 16.7708 	 26.0313
| 15> H 	 -46.6992 	 16.0948 	 25.9977
| 16> C 	 -46.9556 	 17.8444 	 24.7646
| 17> H 	 -47.3255 	 18.8783 	 24.8353
| 18> H 	 -45.8638 	 17.8223 	 24.682
| 19> C 	 -47.5909 	 17.1279 	 23.5352
| 20> H 	 -48.7009 	 17.0225 	 23.4231
| 21> H 	 -47.2199 	 17.6966 	 22.7572
| 22> H 	 -47.2863 	 16.1274 	 23.3758
| 23> S 	 -49.0833 	 18.6467 	 31.5833
| 24> C 	 -49.1048 	 20.0471 	 32.5689
| 25> C 	 -48.1537 	 20.9601 	 32.1032
| 26> C 	 -47.3273 	 20.5739 	 31.0102
| 27> C 	 -47.7679 	 19.3435 	 30.5845
| 28> H 	 -48.1255 	 21.9455 	 32.6021
| 29> C 	 -46.1065 	 21.3381 	 30.5789
| 30> H 	 -46.2964 	 22.3565 	 30.7371
| 31> H 	 -46.0997 	 21.3546 	 29.4835
| 32> C 	 -44.7764 	 20.9106 	 31.1292
| 33> H 	 -44.0577 	 21.6646 	 30.948
| 34> H 	 -44.4585 	 20.0705 	 30.5763
| 35> C 	 -44.8241 	 20.6992 	 32.6788
| 36> H 	 -45.5975 	 19.9823 	 32.9541
| 37> H 	 -45.0782 	 21.6884 	 33.1585
| 38> H 	 -43.9036 	 20.3834 	 33.1282
| 39> H 	 -44.9169 	 16.6205 	 27.649
| 40> H 	 -49.8575 	 20.2543 	 33.2914
| 41> *
| 42>
| 43>                          ****END OF INPUT****

CARTESIAN COORDINATES (ANGSTROEM)
---------------------------------
  S    -45.809300   17.540400   29.743800
  C    -45.720800   17.231200   28.002400
  C    -46.902900   17.589900   27.346500
  C    -47.736300   18.295400   28.215900
  C    -47.320700   18.427700   29.525000
  H    -48.727300   18.659200   27.911700
  C    -47.304000   17.046300   25.980400
  H    -48.336300   16.770800   26.031300
  H    -46.699200   16.094800   25.997700
  C    -46.955600   17.844400   24.764600
  H    -47.325500   18.878300   24.835300
  H    -45.863800   17.822300   24.682000
  C    -47.590900   17.127900   23.535200
  H    -48.700900   17.022500   23.423100
  H    -47.219900   17.696600   22.757200
  H    -47.286300   16.127400   23.375800
  S    -49.083300   18.646700   31.583300
  C    -49.104800   20.047100   32.568900
  C    -48.153700   20.960100   32.103200
  C    -47.327300   20.573900   31.010200
  C    -47.767900   19.343500   30.584500
  H    -48.125500   21.945500   32.602100
  C    -46.106500   21.338100   30.578900
  H    -46.296400   22.356500   30.737100
  H    -46.099700   21.354600   29.483500
  C    -44.776400   20.910600   31.129200
  H    -44.057700   21.664600   30.948000
  H    -44.458500   20.070500   30.576300
  C    -44.824100   20.699200   32.678800
  H    -45.597500   19.982300   32.954100
  H    -45.078200   21.688400   33.158500
  H    -43.903600   20.383400   33.128200
  H    -44.916900   16.620500   27.649000
  H    -49.857500   20.254300   33.291400

 Total Charge           Charge          ....    0
 Multiplicity           Mult            ....    1
 Number of Electrons    NEL             ....  134
 Basis Dimension        Dim             ....  322

ORBITAL ENERGIES
----------------

  NO   OCC          E(Eh)            E(eV)
   0   2.0000     -88.964297     -2420.8416
   1   2.0000     -88.961879     -2420.7758
   2   2.0000     -10.326176      -280.9895
   3   2.0000     -10.325909      -280.9823
   4   2.0000     -10.315496      -280.6989
   5   2.0000     -10.312058      -280.6054
   6   2.0000     -10.302634      -280.3489
   7   2.0000     -10.299020      -280.2506
   8   2.0000     -10.292749      -280.0799
   9   2.0000     -10.292455      -280.0719
  10   2.0000     -10.291540      -280.0470
  11   2.0000     -10.290841      -280.0280
  12   2.0000     -10.283528      -279.8290
  13   2.0000     -10.274914      -279.5946
  14   2.0000     -10.273520      -279.5567
  15   2.0000     -10.273417      -279.5539
  16   2.0000      -8.078277      -219.8211
  17   2.0000      -8.076817      -219.7814
  18   2.0000      -6.036602      -164.2643
  19   2.0000      -6.035189      -164.2258
  20   2.0000      -6.032896      -164.1634
  21   2.0000      -6.031217      -164.1178
  22   2.0000      -6.029267      -164.0647
  23   2.0000      -6.027793      -164.0246
  24   2.0000      -1.003282       -27.3007
  25   2.0000      -0.982609       -26.7381
  26   2.0000      -0.915086       -24.9008
  27   2.0000      -0.912117       -24.8200
  28   2.0000      -0.864865       -23.5342
  29   2.0000      -0.847246       -23.0547
  30   2.0000      -0.844717       -22.9859
  31   2.0000      -0.808883       -22.0108
  32   2.0000      -0.786550       -21.4031
  33   2.0000      -0.773166       -21.0389
  34   2.0000      -0.709636       -19.3102
  35   2.0000      -0.703712       -19.1490
  36   2.0000      -0.691263       -18.8102
  37   2.0000      -0.661165       -17.9912
  38   2.0000      -0.642255       -17.4766
  39   2.0000      -0.617286       -16.7972
  40   2.0000      -0.592104       -16.1120
  41   2.0000      -0.572427       -15.5765
  42   2.0000      -0.559902       -15.2357
  43   2.0000      -0.556053       -15.1310
  44   2.0000      -0.548470       -14.9246
  45   2.0000      -0.532666       -14.4946
  46   2.0000      -0.513082       -13.9617
  47   2.0000      -0.508003       -13.8235
  48   2.0000      -0.498178       -13.5561
  49   2.0000      -0.492990       -13.4149
  50   2.0000      -0.487133       -13.2556
  51   2.0000      -0.470358       -12.7991
  52   2.0000      -0.469135       -12.7658
  53   2.0000      -0.463918       -12.6239
  54   2.0000      -0.457643       -12.4531
  55   2.0000      -0.446485       -12.1495
  56   2.0000      -0.443903       -12.0792
  57   2.0000      -0.440118       -11.9762
  58   2.0000      -0.433194       -11.7878
  59   2.0000      -0.424702       -11.5567
  60   2.0000      -0.420180       -11.4337
  61   2.0000      -0.413753       -11.2588
  62   2.0000      -0.412253       -11.2180
  63   2.0000      -0.337818        -9.1925
  64   2.0000      -0.328970        -8.9517
  65   2.0000      -0.314786        -8.5658
  66   2.0000      -0.307318        -8.3625
  67   0.0000       0.038682         1.0526
  68   0.0000       0.054376         1.4797
  69   0.0000       0.103919         2.8278
  70   0.0000       0.122021         3.3204
  71   0.0000       0.126093         3.4312

MULLIKEN ATOMIC CHARGES
-----------------------
   0 S :    0.104690
   1 C :   -0.138502
   2 C :   -0.068593
   3 C :    0.047769
   4 C :   -0.162046
   5 H :    0.011858
   6 C :    0.039261
   7 H :    0.023901
   8 H :    0.030148
   9 C :   -0.053252
  10 H :    0.040474
  11 H :    0.032968
  12 C :   -0.023216
  13 H :    0.037790
  14 H :    0.016232
  15 H :    0.014181
  16 S :    0.104023
  17 C :   -0.075912
  18 C :   -0.078186
  19 C :   -0.017504
  20 C :   -0.209680
  21 H :    0.023207
  22 C :    0.120153
  23 H :   -0.005543
  24 H :    0.024090
  25 C :   -0.004479
  26 H :    0.016792
  27 H :    0.018139
  28 C :   -0.072181
  29 H :    0.051858
  30 H :    0.026667
  31 H :    0.029751
  32 H :    0.044986
  33 H :    0.050157
Sum of atomic charges:    0.0000000

LOEWDIN ATOMIC CHARGES
----------------------
   0 S :    0.401693
   1 C :   -0.182955
   2 C :   -0.069576
   3 C :   -0.059159
   4 C :   -0.204016
   5 H :    0.033967
   6 C :   -0.033322
   7 H :    0.027146
   8 H :    0.039425
   9 C :   -0.032490
  10 H :    0.028566
  11 H :    0.029704
  12 C :   -0.063517
  13 H :    0.032285
  14 H :    0.017120
  15 H :    0.019490
  16 S :    0.405757
  17 C :   -0.198549
  18 C :   -0.074893
  19 C :   -0.051931
  20 C :   -0.186338
  21 H :    0.030840
  22 C :   -0.028853
  23 H :    0.023012
  24 H :    0.038919
  25 C :   -0.029114
  26 H :    0.022099
  27 H :    0.010610
  28 C :   -0.064075
  29 H :    0.027129
  30 H :    0.028080
  31 H :    0.020524
  32 H :    0.017964
  33 H :    0.024457

  Mayer bond orders larger than 0.100000
B(  0-S ,  1-C ) :   1.1652 B(  0-S ,  4-C ) :   1.1511 B(  1-C ,  2-C ) :   1.5724
B(  1-C ,  4-C ) :   0.1116 B(  1-C , 32-H ) :   0.9706 B(  2-C ,  3-C ) :   1.2766
B(  2-C ,  6-C ) :   0.9904 B(  3-C ,  4-C ) :   1.5835 B(  3-C ,  5-H ) :   0.9908
B(  4-C , 20-C ) :   0.9745 B(  6-C ,  7-H ) :   0.9497 B(  6-C ,  8-H ) :   0.9435
B(  6-C ,  9-C ) :   1.0740 B(  9-C , 10-H ) :   0.9571 B(  9-C , 11-H ) :   0.9504
B(  9-C , 12-C ) :   1.0747 B( 12-C , 13-H ) :   0.9764 B( 12-C , 14-H ) :   0.9744
B( 12-C , 15-H ) :   0.9725 B( 16-S , 17-C ) :   1.1550 B( 16-S , 20-C ) :   1.1640
B( 17-C , 18-C ) :   1.6070 B( 17-C , 20-C ) :   0.1030 B( 17-C , 33-H ) :   0.9719
B( 18-C , 19-C ) :   1.2251 B( 18-C , 21-H ) :   0.9813 B( 19-C , 20-C ) :   1.6024
B( 19-C , 22-C ) :   1.0472 B( 22-C , 23-H ) :   0.9174 B( 22-C , 24-H ) :   0.9191
B( 22-C , 25-C ) :   1.0768 B( 25-C , 26-H ) :   0.9501 B( 25-C , 27-H ) :   0.9489
B( 25-C , 28-C ) :   1.0743 B( 28-C , 29-H ) :   0.9727 B( 28-C , 30-H ) :   0.9753
B( 28-C , 31-H ) :   0.9761

Dispersion correction           -0.014949931
FINAL SINGLE POINT ENERGY     -1339.868597038569

DIPOLE MOMENT
-------------
                                X             Y             Z
Electronic contribution:     -8.02501      -5.56421      15.77152
Nuclear contribution   :      8.10373       5.75291     -16.26023
                        -----------------------------------------
Total Dipole Moment    :      0.07872       0.18870      -0.48870
                        -----------------------------------------
Magnitude (a.u.)       :      0.52975
Magnitude (Debye)      :      1.34651

Rotational constants in cm-1:     0.023788     0.007330     0.006561
Rotational constants in MHz :   713.138180   219.748532   196.705462

                             ****ORCA TERMINATED NORMALLY****
TOTAL RUN TIME: 0 days 0 hours 0 minutes 21 seconds 579 msec
