                         Program Version 4.2.1 -  RELEASE  -
|  1> ! wB97X-D3 SP def2-SVP
|  2> %pal
|  3> nprocs 24
|  4> end
|  5>
|  6> * xyz 0 1
|  7> S 	 -83.1242 	 -38.5041 	 -74.6189
|  8> C 	 -84.1142 	 -38.0687 	 -76.0653
|  9> C 	 -84.85 	 -39.1279 	 -76.5171
| 10> C 	 -84.599 	 -40.2993 	 -75.7781
| 11> C 	 -83.7593 	 -40.0993 	 -74.6899
| 12> H 	 -85.0335 	 -41.2815 	 -75.9497
| 13> C 	 -85.7421 	 -39.0724 	 -77.7405
| 14> H 	 -86.0797 	 -40.0882 	 -77.8656
| 15> H 	 -85.1527 	 -38.928 	 -78.6115
| 16> C 	 -86.9364 	 -38.0763 	 -77.8171
| 17> H 	 -87.5748 	 -38.458 	 -78.6803
| 18> H 	 -87.5728 	 -38.1345 	 -76.9848
| 19> C 	 -86.4711 	 -36.6012 	 -78.207
| 20> H 	 -85.837 	 -36.696 	 -79.0833
| 21> H 	 -87.3223 	 -35.9669 	 -78.5312
| 22> H 	 -85.9546 	 -36.0687 	 -77.4515
| 23> S 	 -82.0188 	 -40.7356 	 -72.5705
| 24> C 	 -82.3129 	 -42.1571 	 -71.6336
| 25> C 	 -83.3576 	 -42.874 	 -72.1182
| 26> C 	 -84.0468 	 -42.1946 	 -73.1706
| 27> C 	 -83.3764 	 -41.0658 	 -73.6646
| 28> H 	 -83.5894 	 -43.8279 	 -71.6773
| 29> C 	 -85.4052 	 -42.6473 	 -73.6745
| 30> H 	 -85.9307 	 -41.8904 	 -74.2073
| 31> H 	 -86.0624 	 -42.8089 	 -72.7316
| 32> C 	 -85.3538 	 -43.9304 	 -74.4829
| 33> H 	 -86.2799 	 -44.3445 	 -74.7565
| 34> H 	 -84.8684 	 -44.6976 	 -73.7805
| 35> C 	 -84.3728 	 -43.9828 	 -75.7593
| 36> H 	 -84.6994 	 -44.7923 	 -76.4056
| 37> H 	 -83.2704 	 -44.0114 	 -75.551
| 38> H 	 -84.5664 	 -43.1624 	 -76.4414
| 39> H 	 -84.1477 	 -37.0827 	 -76.412
| 40> H 	 -81.6806 	 -42.4371 	 -70.7638
| 41> *
| 42>
| 43>                          ****END OF INPUT****

CARTESIAN COORDINATES (ANGSTROEM)
---------------------------------
  S    -83.124200  -38.504100  -74.618900
  C    -84.114200  -38.068700  -76.065300
  C    -84.850000  -39.127900  -76.517100
  C    -84.599000  -40.299300  -75.778100
  C    -83.759300  -40.099300  -74.689900
  H    -85.033500  -41.281500  -75.949700
  C    -85.742100  -39.072400  -77.740500
  H    -86.079700  -40.088200  -77.865600
  H    -85.152700  -38.928000  -78.611500
  C    -86.936400  -38.076300  -77.817100
  H    -87.574800  -38.458000  -78.680300
  H    -87.572800  -38.134500  -76.984800
  C    -86.471100  -36.601200  -78.207000
  H    -85.837000  -36.696000  -79.083300
  H    -87.322300  -35.966900  -78.531200
  H    -85.954600  -36.068700  -77.451500
  S    -82.018800  -40.735600  -72.570500
  C    -82.312900  -42.157100  -71.633600
  C    -83.357600  -42.874000  -72.118200
  C    -84.046800  -42.194600  -73.170600
  C    -83.376400  -41.065800  -73.664600
  H    -83.589400  -43.827900  -71.677300
  C    -85.405200  -42.647300  -73.674500
  H    -85.930700  -41.890400  -74.207300
  H    -86.062400  -42.808900  -72.731600
  C    -85.353800  -43.930400  -74.482900
  H    -86.279900  -44.344500  -74.756500
  H    -84.868400  -44.697600  -73.780500
  C    -84.372800  -43.982800  -75.759300
  H    -84.699400  -44.792300  -76.405600
  H    -83.270400  -44.011400  -75.551000
  H    -84.566400  -43.162400  -76.441400
  H    -84.147700  -37.082700  -76.412000
  H    -81.680600  -42.437100  -70.763800

 Total Charge           Charge          ....    0
 Multiplicity           Mult            ....    1
 Number of Electrons    NEL             ....  134
 Basis Dimension        Dim             ....  322

ORBITAL ENERGIES
----------------

  NO   OCC          E(Eh)            E(eV)
   0   2.0000     -88.965625     -2420.8777
   1   2.0000     -88.963520     -2420.8205
   2   2.0000     -10.329714      -281.0858
   3   2.0000     -10.329557      -281.0815
   4   2.0000     -10.318913      -280.7919
   5   2.0000     -10.309477      -280.5351
   6   2.0000     -10.305687      -280.4320
   7   2.0000     -10.298912      -280.2476
   8   2.0000     -10.296549      -280.1834
   9   2.0000     -10.295089      -280.1436
  10   2.0000     -10.293667      -280.1049
  11   2.0000     -10.292884      -280.0836
  12   2.0000     -10.290785      -280.0265
  13   2.0000     -10.289848      -280.0010
  14   2.0000     -10.283767      -279.8355
  15   2.0000     -10.282823      -279.8098
  16   2.0000      -8.080310      -219.8764
  17   2.0000      -8.078511      -219.8275
  18   2.0000      -6.038787      -164.3237
  19   2.0000      -6.037040      -164.2762
  20   2.0000      -6.034929      -164.2188
  21   2.0000      -6.033011      -164.1666
  22   2.0000      -6.031017      -164.1123
  23   2.0000      -6.029215      -164.0633
  24   2.0000      -1.008154       -27.4333
  25   2.0000      -0.985461       -26.8158
  26   2.0000      -0.909331       -24.7442
  27   2.0000      -0.905805       -24.6482
  28   2.0000      -0.867295       -23.6003
  29   2.0000      -0.847661       -23.0660
  30   2.0000      -0.839801       -22.8522
  31   2.0000      -0.812845       -22.1186
  32   2.0000      -0.787967       -21.4417
  33   2.0000      -0.777840       -21.1661
  34   2.0000      -0.711955       -19.3733
  35   2.0000      -0.706257       -19.2182
  36   2.0000      -0.695279       -18.9195
  37   2.0000      -0.657367       -17.8879
  38   2.0000      -0.639712       -17.4075
  39   2.0000      -0.623823       -16.9751
  40   2.0000      -0.598904       -16.2970
  41   2.0000      -0.573293       -15.6001
  42   2.0000      -0.550603       -14.9827
  43   2.0000      -0.547472       -14.8975
  44   2.0000      -0.541673       -14.7397
  45   2.0000      -0.528585       -14.3835
  46   2.0000      -0.514322       -13.9954
  47   2.0000      -0.511032       -13.9059
  48   2.0000      -0.499085       -13.5808
  49   2.0000      -0.493498       -13.4288
  50   2.0000      -0.490657       -13.3515
  51   2.0000      -0.481772       -13.1097
  52   2.0000      -0.477602       -12.9962
  53   2.0000      -0.465869       -12.6769
  54   2.0000      -0.464203       -12.6316
  55   2.0000      -0.454182       -12.3589
  56   2.0000      -0.447332       -12.1725
  57   2.0000      -0.443160       -12.0590
  58   2.0000      -0.433932       -11.8079
  59   2.0000      -0.430110       -11.7039
  60   2.0000      -0.417794       -11.3687
  61   2.0000      -0.412346       -11.2205
  62   2.0000      -0.401443       -10.9238
  63   2.0000      -0.359471        -9.7817
  64   2.0000      -0.336740        -9.1632
  65   2.0000      -0.328499        -8.9389
  66   2.0000      -0.281912        -7.6712
  67   0.0000       0.020190         0.5494
  68   0.0000       0.085844         2.3359
  69   0.0000       0.094843         2.5808
  70   0.0000       0.119435         3.2500
  71   0.0000       0.138571         3.7707

MULLIKEN ATOMIC CHARGES
-----------------------
   0 S :    0.094524
   1 C :   -0.121722
   2 C :   -0.046500
   3 C :   -0.002987
   4 C :   -0.115505
   5 H :   -0.008716
   6 C :    0.091132
   7 H :    0.002951
   8 H :    0.025816
   9 C :   -0.064501
  10 H :    0.036500
  11 H :    0.026805
  12 C :   -0.062150
  13 H :    0.026022
  14 H :    0.040139
  15 H :    0.037668
  16 S :    0.084894
  17 C :   -0.099317
  18 C :   -0.017267
  19 C :   -0.076702
  20 C :   -0.103903
  21 H :    0.018639
  22 C :    0.047207
  23 H :    0.024452
  24 H :    0.045168
  25 C :   -0.071686
  26 H :    0.023658
  27 H :    0.030936
  28 C :   -0.074790
  29 H :    0.027661
  30 H :    0.067082
  31 H :    0.018195
  32 H :    0.022174
  33 H :    0.074126
Sum of atomic charges:   -0.0000000

LOEWDIN ATOMIC CHARGES
----------------------
   0 S :    0.393869
   1 C :   -0.169655
   2 C :   -0.059054
   3 C :   -0.072352
   4 C :   -0.186325
   5 H :    0.026259
   6 C :   -0.029042
   7 H :    0.027192
   8 H :    0.029963
   9 C :   -0.029542
  10 H :    0.034847
  11 H :    0.015174
  12 C :   -0.066133
  13 H :    0.024692
  14 H :    0.031926
  15 H :    0.016355
  16 S :    0.391552
  17 C :   -0.186390
  18 C :   -0.075134
  19 C :   -0.053129
  20 C :   -0.190372
  21 H :    0.032168
  22 C :   -0.038361
  23 H :    0.021060
  24 H :    0.044803
  25 C :   -0.039166
  26 H :    0.015682
  27 H :    0.030719
  28 C :   -0.075830
  29 H :    0.027941
  30 H :    0.037535
  31 H :    0.017190
  32 H :    0.011649
  33 H :    0.039908

  Mayer bond orders larger than 0.100000
B(  0-S ,  1-C ) :   1.1176 B(  0-S ,  4-C ) :   1.1603 B(  1-C ,  2-C ) :   1.6088
B(  1-C , 32-H ) :   0.9794 B(  2-C ,  3-C ) :   1.2498 B(  2-C ,  6-C ) :   1.0096
B(  3-C ,  4-C ) :   1.5515 B(  3-C ,  5-H ) :   0.9814 B(  4-C , 20-C ) :   1.0860
B(  6-C ,  7-H ) :   0.9346 B(  6-C ,  8-H ) :   0.9360 B(  6-C ,  9-C ) :   1.0703
B(  9-C , 10-H ) :   0.9558 B(  9-C , 11-H ) :   0.9641 B(  9-C , 12-C ) :   1.0620
B( 12-C , 13-H ) :   0.9767 B( 12-C , 14-H ) :   0.9738 B( 12-C , 15-H ) :   0.9781
B( 16-S , 17-C ) :   1.1606 B( 16-S , 20-C ) :   1.1214 B( 17-C , 18-C ) :   1.6167
B( 17-C , 33-H ) :   0.9609 B( 18-C , 19-C ) :   1.2331 B( 18-C , 21-H ) :   0.9938
B( 19-C , 20-C ) :   1.5802 B( 19-C , 22-C ) :   1.0421 B( 22-C , 23-H ) :   0.9346
B( 22-C , 24-H ) :   0.9343 B( 22-C , 25-C ) :   1.0694 B( 25-C , 26-H ) :   0.9615
B( 25-C , 27-H ) :   0.9565 B( 25-C , 28-C ) :   1.0630 B( 28-C , 29-H ) :   0.9688
B( 28-C , 30-H ) :   0.9751 B( 28-C , 31-H ) :   0.9710

Dispersion correction           -0.014885541
FINAL SINGLE POINT ENERGY     -1339.876661073712

DIPOLE MOMENT
-------------
                                X             Y             Z
Electronic contribution:     19.19830       5.86805      18.62616
Nuclear contribution   :    -19.77969      -6.20444     -18.89935
                        -----------------------------------------
Total Dipole Moment    :     -0.58139      -0.33639      -0.27319
                        -----------------------------------------
Magnitude (a.u.)       :      0.72513
Magnitude (Debye)      :      1.84312

Rotational constants in cm-1:     0.022297     0.008412     0.006491
Rotational constants in MHz :   668.446673   252.179735   194.589321

                             ****ORCA TERMINATED NORMALLY****
TOTAL RUN TIME: 0 days 0 hours 0 minutes 22 seconds 225 msec
