                         Program Version 4.2.1 -  RELEASE  -
|  1> ! wB97X-D3 SP def2-SVP
|  2> %pal
|  3> nprocs 24
|  4> end
|  5>
|  6> * xyz 0 1
|  7> S 	 21.9769 	 1.50066 	 -114.888
|  8> C 	 20.612 	 2.51932 	 -115.042
|  9> C 	 20.6544 	 3.63984 	 -114.194
| 10> C 	 21.9626 	 3.70197 	 -113.646
| 11> C 	 22.8758 	 2.7007 	 -113.867
| 12> H 	 22.3179 	 4.48564 	 -113.027
| 13> C 	 19.633 	 4.81398 	 -114.021
| 14> H 	 19.234 	 4.76728 	 -112.998
| 15> H 	 18.8311 	 4.71519 	 -114.791
| 16> C 	 20.2537 	 6.27444 	 -114.164
| 17> H 	 20.7091 	 6.42423 	 -113.187
| 18> H 	 21.0433 	 6.20784 	 -114.844
| 19> C 	 19.2224 	 7.41208 	 -114.404
| 20> H 	 18.6965 	 7.22026 	 -115.332
| 21> H 	 18.439 	 7.57888 	 -113.645
| 22> H 	 19.7311 	 8.37913 	 -114.486
| 23> S 	 25.4077 	 2.51212 	 -114.761
| 24> C 	 26.7041 	 2.05828 	 -113.6
| 25> C 	 26.2961 	 2.31673 	 -112.296
| 26> C 	 24.9006 	 2.66085 	 -112.238
| 27> C 	 24.2474 	 2.58063 	 -113.453
| 28> H 	 27.0047 	 2.269 	 -111.523
| 29> C 	 24.1592 	 2.86706 	 -110.869
| 30> H 	 23.5987 	 3.78443 	 -111.043
| 31> H 	 24.8914 	 3.09039 	 -110.127
| 32> C 	 23.3143 	 1.72678 	 -110.337
| 33> H 	 24.0876 	 0.879805 	 -110.288
| 34> H 	 22.4998 	 1.46452 	 -110.955
| 35> C 	 22.6631 	 2.07918 	 -109.033
| 36> H 	 22.0668 	 1.26684 	 -108.641
| 37> H 	 22.0119 	 2.87928 	 -109.057
| 38> H 	 23.441 	 2.19464 	 -108.233
| 39> H 	 19.7888 	 2.39653 	 -115.659
| 40> H 	 27.7582 	 1.77733 	 -113.922
| 41> *
| 42>
| 43>                          ****END OF INPUT****

CARTESIAN COORDINATES (ANGSTROEM)
---------------------------------
  S     21.976900    1.500660  -114.888000
  C     20.612000    2.519320  -115.042000
  C     20.654400    3.639840  -114.194000
  C     21.962600    3.701970  -113.646000
  C     22.875800    2.700700  -113.867000
  H     22.317900    4.485640  -113.027000
  C     19.633000    4.813980  -114.021000
  H     19.234000    4.767280  -112.998000
  H     18.831100    4.715190  -114.791000
  C     20.253700    6.274440  -114.164000
  H     20.709100    6.424230  -113.187000
  H     21.043300    6.207840  -114.844000
  C     19.222400    7.412080  -114.404000
  H     18.696500    7.220260  -115.332000
  H     18.439000    7.578880  -113.645000
  H     19.731100    8.379130  -114.486000
  S     25.407700    2.512120  -114.761000
  C     26.704100    2.058280  -113.600000
  C     26.296100    2.316730  -112.296000
  C     24.900600    2.660850  -112.238000
  C     24.247400    2.580630  -113.453000
  H     27.004700    2.269000  -111.523000
  C     24.159200    2.867060  -110.869000
  H     23.598700    3.784430  -111.043000
  H     24.891400    3.090390  -110.127000
  C     23.314300    1.726780  -110.337000
  H     24.087600    0.879805  -110.288000
  H     22.499800    1.464520  -110.955000
  C     22.663100    2.079180  -109.033000
  H     22.066800    1.266840  -108.641000
  H     22.011900    2.879280  -109.057000
  H     23.441000    2.194640  -108.233000
  H     19.788800    2.396530  -115.659000
  H     27.758200    1.777330  -113.922000

 Total Charge           Charge          ....    0
 Multiplicity           Mult            ....    1
 Number of Electrons    NEL             ....  134
 Basis Dimension        Dim             ....  322

ORBITAL ENERGIES
----------------

  NO   OCC          E(Eh)            E(eV)
   0   2.0000     -88.965659     -2420.8786
   1   2.0000     -88.962631     -2420.7963
   2   2.0000     -10.329376      -281.0766
   3   2.0000     -10.327633      -281.0292
   4   2.0000     -10.325797      -280.9792
   5   2.0000     -10.313307      -280.6393
   6   2.0000     -10.308381      -280.5053
   7   2.0000     -10.305125      -280.4167
   8   2.0000     -10.304902      -280.4106
   9   2.0000     -10.296868      -280.1920
  10   2.0000     -10.289456      -279.9903
  11   2.0000     -10.289068      -279.9798
  12   2.0000     -10.288609      -279.9673
  13   2.0000     -10.285509      -279.8829
  14   2.0000     -10.283030      -279.8155
  15   2.0000     -10.270897      -279.4853
  16   2.0000      -8.079954      -219.8667
  17   2.0000      -8.076983      -219.7859
  18   2.0000      -6.038466      -164.3150
  19   2.0000      -6.035581      -164.2365
  20   2.0000      -6.034435      -164.2053
  21   2.0000      -6.031653      -164.1296
  22   2.0000      -6.030794      -164.1062
  23   2.0000      -6.027535      -164.0176
  24   2.0000      -1.003472       -27.3059
  25   2.0000      -0.980966       -26.6934
  26   2.0000      -0.909799       -24.7569
  27   2.0000      -0.901131       -24.5210
  28   2.0000      -0.872943       -23.7540
  29   2.0000      -0.849212       -23.1082
  30   2.0000      -0.843672       -22.9575
  31   2.0000      -0.815546       -22.1921
  32   2.0000      -0.780926       -21.2501
  33   2.0000      -0.771716       -20.9995
  34   2.0000      -0.712061       -19.3762
  35   2.0000      -0.699550       -19.0357
  36   2.0000      -0.690915       -18.8007
  37   2.0000      -0.664507       -18.0821
  38   2.0000      -0.645084       -17.5536
  39   2.0000      -0.619191       -16.8491
  40   2.0000      -0.587838       -15.9959
  41   2.0000      -0.576872       -15.6975
  42   2.0000      -0.570876       -15.5343
  43   2.0000      -0.561274       -15.2730
  44   2.0000      -0.525044       -14.2872
  45   2.0000      -0.520832       -14.1725
  46   2.0000      -0.512515       -13.9462
  47   2.0000      -0.508827       -13.8459
  48   2.0000      -0.503591       -13.7034
  49   2.0000      -0.502111       -13.6631
  50   2.0000      -0.497798       -13.5458
  51   2.0000      -0.480134       -13.0651
  52   2.0000      -0.476979       -12.9793
  53   2.0000      -0.471128       -12.8200
  54   2.0000      -0.457298       -12.4437
  55   2.0000      -0.446877       -12.1601
  56   2.0000      -0.443015       -12.0551
  57   2.0000      -0.429505       -11.6874
  58   2.0000      -0.426744       -11.6123
  59   2.0000      -0.422191       -11.4884
  60   2.0000      -0.419925       -11.4267
  61   2.0000      -0.418029       -11.3751
  62   2.0000      -0.414942       -11.2912
  63   2.0000      -0.343229        -9.3397
  64   2.0000      -0.329562        -8.9678
  65   2.0000      -0.326296        -8.8790
  66   2.0000      -0.295603        -8.0438
  67   0.0000       0.022361         0.6085
  68   0.0000       0.067242         1.8298
  69   0.0000       0.101673         2.7667
  70   0.0000       0.117195         3.1890
  71   0.0000       0.140841         3.8325

MULLIKEN ATOMIC CHARGES
-----------------------
   0 S :    0.120698
   1 C :   -0.086687
   2 C :   -0.087758
   3 C :    0.030210
   4 C :   -0.159591
   5 H :   -0.008438
   6 C :    0.044080
   7 H :    0.046024
   8 H :    0.028115
   9 C :   -0.079626
  10 H :    0.030093
  11 H :    0.030330
  12 C :   -0.047983
  13 H :    0.031068
  14 H :    0.036144
  15 H :    0.039673
  16 S :    0.100166
  17 C :   -0.118766
  18 C :   -0.017009
  19 C :   -0.021842
  20 C :   -0.172424
  21 H :    0.003904
  22 C :    0.080319
  23 H :    0.014244
  24 H :    0.003030
  25 C :   -0.051005
  26 H :    0.038060
  27 H :    0.030129
  28 C :   -0.023171
  29 H :    0.024553
  30 H :    0.018158
  31 H :    0.023239
  32 H :    0.020384
  33 H :    0.081678
Sum of atomic charges:   -0.0000000

LOEWDIN ATOMIC CHARGES
----------------------
   0 S :    0.400790
   1 C :   -0.188862
   2 C :   -0.070617
   3 C :   -0.056894
   4 C :   -0.191346
   5 H :    0.020663
   6 C :   -0.027771
   7 H :    0.034888
   8 H :    0.027868
   9 C :   -0.035676
  10 H :    0.022736
  11 H :    0.017009
  12 C :   -0.067006
  13 H :    0.023579
  14 H :    0.029068
  15 H :    0.031289
  16 S :    0.388506
  17 C :   -0.174048
  18 C :   -0.067067
  19 C :   -0.047580
  20 C :   -0.200666
  21 H :    0.025316
  22 C :   -0.027569
  23 H :    0.024766
  24 H :    0.022996
  25 C :   -0.038745
  26 H :    0.035315
  27 H :    0.021316
  28 C :   -0.060353
  29 H :    0.027533
  30 H :    0.015234
  31 H :    0.027391
  32 H :    0.016010
  33 H :    0.041929

  Mayer bond orders larger than 0.100000
B(  0-S ,  1-C ) :   1.1771 B(  0-S ,  4-C ) :   1.1058 B(  1-C ,  2-C ) :   1.5836
B(  1-C ,  4-C ) :   0.1004 B(  1-C , 32-H ) :   0.9692 B(  2-C ,  3-C ) :   1.2492
B(  2-C ,  6-C ) :   1.0206 B(  3-C ,  4-C ) :   1.5940 B(  3-C ,  5-H ) :   0.9935
B(  4-C , 20-C ) :   1.0708 B(  6-C ,  7-H ) :   0.9390 B(  6-C ,  8-H ) :   0.9534
B(  6-C ,  9-C ) :   1.0522 B(  9-C , 10-H ) :   0.9509 B(  9-C , 11-H ) :   0.9667
B(  9-C , 12-C ) :   1.0800 B( 12-C , 13-H ) :   0.9758 B( 12-C , 14-H ) :   0.9762
B( 12-C , 15-H ) :   0.9741 B( 16-S , 17-C ) :   1.1439 B( 16-S , 20-C ) :   1.1412
B( 17-C , 18-C ) :   1.6100 B( 17-C , 20-C ) :   0.1030 B( 17-C , 33-H ) :   0.9599
B( 18-C , 19-C ) :   1.2216 B( 18-C , 21-H ) :   1.0018 B( 19-C , 20-C ) :   1.5936
B( 19-C , 22-C ) :   1.0349 B( 22-C , 23-H ) :   0.9291 B( 22-C , 24-H ) :   0.9355
B( 22-C , 25-C ) :   1.0690 B( 25-C , 26-H ) :   0.9527 B( 25-C , 27-H ) :   0.9522
B( 25-C , 28-C ) :   1.0907 B( 28-C , 29-H ) :   0.9701 B( 28-C , 30-H ) :   0.9733
B( 28-C , 31-H ) :   0.9719

Dispersion correction           -0.013970826
FINAL SINGLE POINT ENERGY     -1339.855779794363

DIPOLE MOMENT
-------------
                                X             Y             Z
Electronic contribution:     14.75107     -15.02207     -17.46199
Nuclear contribution   :    -14.92635      15.49655      17.94875
                        -----------------------------------------
Total Dipole Moment    :     -0.17528       0.47448       0.48676
                        -----------------------------------------
Magnitude (a.u.)       :      0.70199
Magnitude (Debye)      :      1.78432

Rotational constants in cm-1:     0.016669     0.008306     0.007081
Rotational constants in MHz :   499.733818   249.007866   212.277556

                             ****ORCA TERMINATED NORMALLY****
TOTAL RUN TIME: 0 days 0 hours 0 minutes 21 seconds 252 msec
