                         Program Version 4.2.1 -  RELEASE  -
|  1> ! wB97X-D3 SP def2-SVP
|  2> %pal
|  3> nprocs 24
|  4> end
|  5>
|  6> * xyz 0 1
|  7> S 	 31.1063 	 -28.2355 	 -112.102
|  8> C 	 30.0961 	 -28.3973 	 -110.613
|  9> C 	 30.9269 	 -28.3583 	 -109.544
| 10> C 	 32.3493 	 -28.1734 	 -109.869
| 11> C 	 32.6443 	 -28.043 	 -111.257
| 12> H 	 33.1342 	 -28.4494 	 -109.104
| 13> C 	 30.5334 	 -28.3485 	 -108.082
| 14> H 	 29.5504 	 -27.9169 	 -108.101
| 15> H 	 31.0537 	 -27.4865 	 -107.608
| 16> C 	 30.7085 	 -29.603 	 -107.318
| 17> H 	 31.7431 	 -29.9085 	 -107.229
| 18> H 	 30.5209 	 -29.3255 	 -106.305
| 19> C 	 29.7125 	 -30.6578 	 -107.562
| 20> H 	 28.7484 	 -30.2859 	 -107.313
| 21> H 	 29.6548 	 -30.878 	 -108.669
| 22> H 	 29.7761 	 -31.5801 	 -106.939
| 23> S 	 34.0571 	 -28.7019 	 -113.533
| 24> C 	 35.8156 	 -28.4875 	 -113.578
| 25> C 	 36.2834 	 -28.0083 	 -112.406
| 26> C 	 35.1861 	 -27.638 	 -111.5
| 27> C 	 33.9592 	 -28.098 	 -111.883
| 28> H 	 37.4215 	 -27.919 	 -112.299
| 29> C 	 35.4675 	 -27.0305 	 -110.111
| 30> H 	 35.7858 	 -27.834 	 -109.402
| 31> H 	 34.4814 	 -26.8235 	 -109.619
| 32> C 	 36.3941 	 -25.8663 	 -110.023
| 33> H 	 35.9686 	 -24.9512 	 -110.613
| 34> H 	 37.3205 	 -26.1252 	 -110.607
| 35> C 	 36.7973 	 -25.5043 	 -108.586
| 36> H 	 35.968 	 -25.3753 	 -107.899
| 37> H 	 37.3109 	 -24.5983 	 -108.68
| 38> H 	 37.4659 	 -26.2771 	 -108.223
| 39> H 	 29.0241 	 -28.4738 	 -110.62
| 40> H 	 36.4072 	 -28.8133 	 -114.406
| 41> *
| 42>
| 43>                          ****END OF INPUT****

CARTESIAN COORDINATES (ANGSTROEM)
---------------------------------
  S     31.106300  -28.235500  -112.102000
  C     30.096100  -28.397300  -110.613000
  C     30.926900  -28.358300  -109.544000
  C     32.349300  -28.173400  -109.869000
  C     32.644300  -28.043000  -111.257000
  H     33.134200  -28.449400  -109.104000
  C     30.533400  -28.348500  -108.082000
  H     29.550400  -27.916900  -108.101000
  H     31.053700  -27.486500  -107.608000
  C     30.708500  -29.603000  -107.318000
  H     31.743100  -29.908500  -107.229000
  H     30.520900  -29.325500  -106.305000
  C     29.712500  -30.657800  -107.562000
  H     28.748400  -30.285900  -107.313000
  H     29.654800  -30.878000  -108.669000
  H     29.776100  -31.580100  -106.939000
  S     34.057100  -28.701900  -113.533000
  C     35.815600  -28.487500  -113.578000
  C     36.283400  -28.008300  -112.406000
  C     35.186100  -27.638000  -111.500000
  C     33.959200  -28.098000  -111.883000
  H     37.421500  -27.919000  -112.299000
  C     35.467500  -27.030500  -110.111000
  H     35.785800  -27.834000  -109.402000
  H     34.481400  -26.823500  -109.619000
  C     36.394100  -25.866300  -110.023000
  H     35.968600  -24.951200  -110.613000
  H     37.320500  -26.125200  -110.607000
  C     36.797300  -25.504300  -108.586000
  H     35.968000  -25.375300  -107.899000
  H     37.310900  -24.598300  -108.680000
  H     37.465900  -26.277100  -108.223000
  H     29.024100  -28.473800  -110.620000
  H     36.407200  -28.813300  -114.406000

 Total Charge           Charge          ....    0
 Multiplicity           Mult            ....    1
 Number of Electrons    NEL             ....  134
 Basis Dimension        Dim             ....  322

ORBITAL ENERGIES
----------------

  NO   OCC          E(Eh)            E(eV)
   0   2.0000     -88.965090     -2420.8632
   1   2.0000     -88.961151     -2420.7560
   2   2.0000     -10.342279      -281.4277
   3   2.0000     -10.331381      -281.1312
   4   2.0000     -10.320844      -280.8444
   5   2.0000     -10.317808      -280.7618
   6   2.0000     -10.309577      -280.5379
   7   2.0000     -10.304101      -280.3888
   8   2.0000     -10.303956      -280.3849
   9   2.0000     -10.302994      -280.3587
  10   2.0000     -10.293486      -280.1000
  11   2.0000     -10.292405      -280.0706
  12   2.0000     -10.290251      -280.0120
  13   2.0000     -10.279048      -279.7071
  14   2.0000     -10.277092      -279.6539
  15   2.0000     -10.274820      -279.5921
  16   2.0000      -8.078761      -219.8343
  17   2.0000      -8.076016      -219.7596
  18   2.0000      -6.037673      -164.2934
  19   2.0000      -6.034729      -164.2133
  20   2.0000      -6.033355      -164.1759
  21   2.0000      -6.030645      -164.1022
  22   2.0000      -6.029176      -164.0622
  23   2.0000      -6.026392      -163.9865
  24   2.0000      -1.003899       -27.3175
  25   2.0000      -0.979863       -26.6634
  26   2.0000      -0.924214       -25.1492
  27   2.0000      -0.908397       -24.7187
  28   2.0000      -0.877543       -23.8792
  29   2.0000      -0.850081       -23.1319
  30   2.0000      -0.839885       -22.8544
  31   2.0000      -0.815745       -22.1976
  32   2.0000      -0.783614       -21.3232
  33   2.0000      -0.777814       -21.1654
  34   2.0000      -0.712552       -19.3895
  35   2.0000      -0.701903       -19.0998
  36   2.0000      -0.694332       -18.8937
  37   2.0000      -0.652946       -17.7676
  38   2.0000      -0.635424       -17.2908
  39   2.0000      -0.619839       -16.8667
  40   2.0000      -0.597993       -16.2722
  41   2.0000      -0.574882       -15.6433
  42   2.0000      -0.559439       -15.2231
  43   2.0000      -0.558729       -15.2038
  44   2.0000      -0.536990       -14.6122
  45   2.0000      -0.532085       -14.4788
  46   2.0000      -0.522787       -14.2258
  47   2.0000      -0.514779       -14.0078
  48   2.0000      -0.512929       -13.9575
  49   2.0000      -0.497327       -13.5330
  50   2.0000      -0.492106       -13.3909
  51   2.0000      -0.486056       -13.2263
  52   2.0000      -0.467575       -12.7234
  53   2.0000      -0.465982       -12.6800
  54   2.0000      -0.456981       -12.4351
  55   2.0000      -0.448254       -12.1976
  56   2.0000      -0.444382       -12.0922
  57   2.0000      -0.438503       -11.9323
  58   2.0000      -0.428400       -11.6574
  59   2.0000      -0.426794       -11.6137
  60   2.0000      -0.409937       -11.1549
  61   2.0000      -0.405164       -11.0251
  62   2.0000      -0.397400       -10.8138
  63   2.0000      -0.366353        -9.9690
  64   2.0000      -0.328220        -8.9313
  65   2.0000      -0.325276        -8.8512
  66   2.0000      -0.291548        -7.9334
  67   0.0000       0.018602         0.5062
  68   0.0000       0.086912         2.3650
  69   0.0000       0.098314         2.6753
  70   0.0000       0.110178         2.9981
  71   0.0000       0.135340         3.6828

MULLIKEN ATOMIC CHARGES
-----------------------
   0 S :    0.074229
   1 C :   -0.111835
   2 C :   -0.092589
   3 C :   -0.032951
   4 C :   -0.098786
   5 H :    0.050178
   6 C :    0.031752
   7 H :    0.004992
   8 H :    0.032967
   9 C :    0.005369
  10 H :    0.021282
  11 H :    0.008067
  12 C :   -0.041527
  13 H :    0.005754
  14 H :    0.037278
  15 H :    0.042426
  16 S :    0.077306
  17 C :   -0.084665
  18 C :   -0.043307
  19 C :   -0.043069
  20 C :   -0.109096
  21 H :    0.058708
  22 C :    0.010132
  23 H :    0.034629
  24 H :    0.024268
  25 C :   -0.126535
  26 H :    0.046203
  27 H :    0.028102
  28 C :   -0.002318
  29 H :    0.032903
  30 H :    0.025099
  31 H :    0.031871
  32 H :    0.049449
  33 H :    0.053713
Sum of atomic charges:   -0.0000000

LOEWDIN ATOMIC CHARGES
----------------------
   0 S :    0.370840
   1 C :   -0.174055
   2 C :   -0.065885
   3 C :   -0.080060
   4 C :   -0.179451
   5 H :    0.039105
   6 C :   -0.034635
   7 H :    0.027948
   8 H :    0.040216
   9 C :   -0.048486
  10 H :    0.024834
  11 H :    0.026594
  12 C :   -0.066033
  13 H :    0.018495
  14 H :    0.029708
  15 H :    0.033404
  16 S :    0.376650
  17 C :   -0.165910
  18 C :   -0.079497
  19 C :   -0.053594
  20 C :   -0.186647
  21 H :    0.049970
  22 C :   -0.051535
  23 H :    0.033341
  24 H :    0.031835
  25 C :   -0.052150
  26 H :    0.033949
  27 H :    0.024405
  28 C :   -0.055696
  29 H :    0.024970
  30 H :    0.022570
  31 H :    0.026939
  32 H :    0.030945
  33 H :    0.026918

  Mayer bond orders larger than 0.100000
B(  0-S ,  1-C ) :   1.0997 B(  0-S ,  4-C ) :   1.1397 B(  1-C ,  2-C ) :   1.6359
B(  1-C , 32-H ) :   0.9753 B(  2-C ,  3-C ) :   1.2358 B(  2-C ,  6-C ) :   1.0122
B(  3-C ,  4-C ) :   1.5531 B(  3-C ,  5-H ) :   0.9671 B(  4-C , 20-C ) :   1.0907
B(  6-C ,  7-H ) :   0.9395 B(  6-C ,  8-H ) :   0.9408 B(  6-C ,  9-C ) :   1.0806
B(  9-C , 10-H ) :   0.9492 B(  9-C , 11-H ) :   0.9374 B(  9-C , 12-C ) :   1.0803
B( 12-C , 13-H ) :   0.9684 B( 12-C , 14-H ) :   0.9759 B( 12-C , 15-H ) :   0.9710
B( 16-S , 17-C ) :   1.1344 B( 16-S , 20-C ) :   1.1026 B( 17-C , 18-C ) :   1.6708
B( 17-C , 33-H ) :   0.9684 B( 18-C , 19-C ) :   1.1730 B( 18-C , 21-H ) :   0.9735
B( 19-C , 20-C ) :   1.6390 B( 19-C , 22-C ) :   1.0418 B( 22-C , 23-H ) :   0.9380
B( 22-C , 24-H ) :   0.9226 B( 22-C , 25-C ) :   1.0610 B( 25-C , 26-H ) :   0.9531
B( 25-C , 27-H ) :   0.9527 B( 25-C , 28-C ) :   1.0777 B( 28-C , 29-H ) :   0.9762
B( 28-C , 30-H ) :   0.9722 B( 28-C , 31-H ) :   0.9727

Dispersion correction           -0.013539988
FINAL SINGLE POINT ENERGY     -1339.862543859415

DIPOLE MOMENT
-------------
                                X             Y             Z
Electronic contribution:     -4.00865      -3.06083     -27.62715
Nuclear contribution   :      4.27738       3.07147      28.43037
                        -----------------------------------------
Total Dipole Moment    :      0.26873       0.01064       0.80323
                        -----------------------------------------
Magnitude (a.u.)       :      0.84705
Magnitude (Debye)      :      2.15304

Rotational constants in cm-1:     0.017408     0.008463     0.006294
Rotational constants in MHz :   521.884561   253.725935   188.685069

                             ****ORCA TERMINATED NORMALLY****
TOTAL RUN TIME: 0 days 0 hours 0 minutes 21 seconds 156 msec
