                         Program Version 4.2.1 -  RELEASE  -
|  1> ! wB97X-D3 SP def2-SVP
|  2> %pal
|  3> nprocs 24
|  4> end
|  5>
|  6> * xyz 0 1
|  7> S 	 -137.865 	 23.524 	 -17.5334
|  8> C 	 -139.362 	 22.6233 	 -17.4819
|  9> C 	 -139.144 	 21.2632 	 -17.5533
| 10> C 	 -137.765 	 20.987 	 -17.5231
| 11> C 	 -136.926 	 22.0702 	 -17.4808
| 12> H 	 -137.444 	 19.9611 	 -17.6574
| 13> C 	 -140.275 	 20.1917 	 -17.5797
| 14> H 	 -140.33 	 19.8818 	 -18.643
| 15> H 	 -141.219 	 20.7633 	 -17.3636
| 16> C 	 -140.188 	 19.0044 	 -16.687
| 17> H 	 -140.838 	 18.1941 	 -16.9152
| 18> H 	 -139.239 	 18.5405 	 -16.8788
| 19> C 	 -140.373 	 19.3819 	 -15.2236
| 20> H 	 -140.095 	 18.5771 	 -14.6196
| 21> H 	 -139.705 	 20.1186 	 -14.9545
| 22> H 	 -141.361 	 19.8086 	 -15.0037
| 23> S 	 -134.657 	 22.0063 	 -16.1078
| 24> C 	 -133.048 	 22.1955 	 -16.8895
| 25> C 	 -133.261 	 22.2891 	 -18.2288
| 26> C 	 -134.578 	 22.1534 	 -18.6946
| 27> C 	 -135.491 	 22.0256 	 -17.6326
| 28> H 	 -132.464 	 22.5724 	 -18.847
| 29> C 	 -134.961 	 22.3054 	 -20.1854
| 30> H 	 -135.837 	 21.6546 	 -20.3439
| 31> H 	 -134.196 	 21.8495 	 -20.8018
| 32> C 	 -135.25 	 23.7286 	 -20.6944
| 33> H 	 -134.528 	 24.4938 	 -20.382
| 34> H 	 -136.068 	 24.0312 	 -20.1049
| 35> C 	 -135.728 	 23.7875 	 -22.1656
| 36> H 	 -136.393 	 23.0271 	 -22.471
| 37> H 	 -134.867 	 23.6209 	 -22.8866
| 38> H 	 -136.228 	 24.6359 	 -22.4414
| 39> H 	 -140.315 	 23.0604 	 -17.5998
| 40> H 	 -132.059 	 22.4222 	 -16.422
| 41> *
| 42>
| 43>                          ****END OF INPUT****

CARTESIAN COORDINATES (ANGSTROEM)
---------------------------------
  S    -137.865000   23.524000  -17.533400
  C    -139.362000   22.623300  -17.481900
  C    -139.144000   21.263200  -17.553300
  C    -137.765000   20.987000  -17.523100
  C    -136.926000   22.070200  -17.480800
  H    -137.444000   19.961100  -17.657400
  C    -140.275000   20.191700  -17.579700
  H    -140.330000   19.881800  -18.643000
  H    -141.219000   20.763300  -17.363600
  C    -140.188000   19.004400  -16.687000
  H    -140.838000   18.194100  -16.915200
  H    -139.239000   18.540500  -16.878800
  C    -140.373000   19.381900  -15.223600
  H    -140.095000   18.577100  -14.619600
  H    -139.705000   20.118600  -14.954500
  H    -141.361000   19.808600  -15.003700
  S    -134.657000   22.006300  -16.107800
  C    -133.048000   22.195500  -16.889500
  C    -133.261000   22.289100  -18.228800
  C    -134.578000   22.153400  -18.694600
  C    -135.491000   22.025600  -17.632600
  H    -132.464000   22.572400  -18.847000
  C    -134.961000   22.305400  -20.185400
  H    -135.837000   21.654600  -20.343900
  H    -134.196000   21.849500  -20.801800
  C    -135.250000   23.728600  -20.694400
  H    -134.528000   24.493800  -20.382000
  H    -136.068000   24.031200  -20.104900
  C    -135.728000   23.787500  -22.165600
  H    -136.393000   23.027100  -22.471000
  H    -134.867000   23.620900  -22.886600
  H    -136.228000   24.635900  -22.441400
  H    -140.315000   23.060400  -17.599800
  H    -132.059000   22.422200  -16.422000

 Total Charge           Charge          ....    0
 Multiplicity           Mult            ....    1
 Number of Electrons    NEL             ....  134
 Basis Dimension        Dim             ....  322

ORBITAL ENERGIES
----------------

  NO   OCC          E(Eh)            E(eV)
   0   2.0000     -88.969533     -2420.9841
   1   2.0000     -88.962371     -2420.7892
   2   2.0000     -10.326813      -281.0069
   3   2.0000     -10.326425      -280.9963
   4   2.0000     -10.319453      -280.8066
   5   2.0000     -10.312316      -280.6124
   6   2.0000     -10.304648      -280.4037
   7   2.0000     -10.300631      -280.2944
   8   2.0000     -10.299132      -280.2536
   9   2.0000     -10.292420      -280.0710
  10   2.0000     -10.291204      -280.0379
  11   2.0000     -10.284865      -279.8654
  12   2.0000     -10.282310      -279.7959
  13   2.0000     -10.280320      -279.7417
  14   2.0000     -10.272155      -279.5195
  15   2.0000     -10.263636      -279.2877
  16   2.0000      -8.084196      -219.9821
  17   2.0000      -8.076680      -219.7776
  18   2.0000      -6.042660      -164.4291
  19   2.0000      -6.038684      -164.3209
  20   2.0000      -6.035315      -164.2293
  21   2.0000      -6.035010      -164.2210
  22   2.0000      -6.031081      -164.1141
  23   2.0000      -6.027463      -164.0156
  24   2.0000      -1.010601       -27.4999
  25   2.0000      -0.985546       -26.8181
  26   2.0000      -0.917811       -24.9749
  27   2.0000      -0.902006       -24.5448
  28   2.0000      -0.875763       -23.8307
  29   2.0000      -0.850017       -23.1301
  30   2.0000      -0.844608       -22.9829
  31   2.0000      -0.817034       -22.2326
  32   2.0000      -0.786987       -21.4150
  33   2.0000      -0.773892       -21.0587
  34   2.0000      -0.716899       -19.5078
  35   2.0000      -0.704483       -19.1699
  36   2.0000      -0.697044       -18.9675
  37   2.0000      -0.662111       -18.0170
  38   2.0000      -0.640684       -17.4339
  39   2.0000      -0.626571       -17.0499
  40   2.0000      -0.592847       -16.1322
  41   2.0000      -0.568318       -15.4647
  42   2.0000      -0.560984       -15.2652
  43   2.0000      -0.553097       -15.0505
  44   2.0000      -0.547184       -14.8896
  45   2.0000      -0.524553       -14.2738
  46   2.0000      -0.517586       -14.0842
  47   2.0000      -0.511372       -13.9151
  48   2.0000      -0.504470       -13.7273
  49   2.0000      -0.502653       -13.6779
  50   2.0000      -0.482758       -13.1365
  51   2.0000      -0.482091       -13.1184
  52   2.0000      -0.477077       -12.9819
  53   2.0000      -0.464378       -12.6364
  54   2.0000      -0.460182       -12.5222
  55   2.0000      -0.448561       -12.2060
  56   2.0000      -0.443439       -12.0666
  57   2.0000      -0.440822       -11.9954
  58   2.0000      -0.436193       -11.8694
  59   2.0000      -0.430341       -11.7102
  60   2.0000      -0.421375       -11.4662
  61   2.0000      -0.411829       -11.2064
  62   2.0000      -0.406324       -11.0566
  63   2.0000      -0.338445        -9.2095
  64   2.0000      -0.333638        -9.0788
  65   2.0000      -0.318571        -8.6688
  66   2.0000      -0.312606        -8.5064
  67   0.0000       0.045249         1.2313
  68   0.0000       0.046724         1.2714
  69   0.0000       0.117115         3.1869
  70   0.0000       0.123009         3.3472
  71   0.0000       0.135200         3.6790

MULLIKEN ATOMIC CHARGES
-----------------------
   0 S :    0.129606
   1 C :   -0.115791
   2 C :   -0.106825
   3 C :    0.042162
   4 C :   -0.143006
   5 H :    0.009674
   6 C :    0.058310
   7 H :    0.043360
   8 H :    0.018170
   9 C :   -0.038265
  10 H :    0.020009
  11 H :    0.011025
  12 C :    0.000083
  13 H :    0.018774
  14 H :    0.012821
  15 H :    0.029650
  16 S :    0.097133
  17 C :   -0.100702
  18 C :   -0.030271
  19 C :   -0.013900
  20 C :   -0.199859
  21 H :    0.000255
  22 C :    0.068567
  23 H :    0.026336
  24 H :    0.015174
  25 C :   -0.030603
  26 H :    0.028040
  27 H :   -0.001510
  28 C :   -0.010764
  29 H :    0.011282
  30 H :    0.028387
  31 H :    0.015656
  32 H :    0.033139
  33 H :    0.073882
Sum of atomic charges:    0.0000000

LOEWDIN ATOMIC CHARGES
----------------------
   0 S :    0.426741
   1 C :   -0.190132
   2 C :   -0.066025
   3 C :   -0.058513
   4 C :   -0.217313
   5 H :    0.030669
   6 C :   -0.029870
   7 H :    0.036823
   8 H :    0.030869
   9 C :   -0.043159
  10 H :    0.024397
  11 H :    0.021516
  12 C :   -0.052236
  13 H :    0.021310
  14 H :    0.017833
  15 H :    0.028980
  16 S :    0.401351
  17 C :   -0.184256
  18 C :   -0.070242
  19 C :   -0.056225
  20 C :   -0.199269
  21 H :    0.024072
  22 C :   -0.028305
  23 H :    0.034515
  24 H :    0.024237
  25 C :   -0.041423
  26 H :    0.028119
  27 H :    0.013513
  28 C :   -0.059476
  29 H :    0.022077
  30 H :    0.030625
  31 H :    0.015381
  32 H :    0.019268
  33 H :    0.044149

  Mayer bond orders larger than 0.100000
B(  0-S ,  1-C ) :   1.1563 B(  0-S ,  4-C ) :   1.1544 B(  1-C ,  2-C ) :   1.6011
B(  1-C , 32-H ) :   0.9672 B(  2-C ,  3-C ) :   1.2755 B(  2-C ,  6-C ) :   1.0014
B(  3-C ,  4-C ) :   1.5643 B(  3-C ,  5-H ) :   0.9944 B(  4-C , 20-C ) :   1.0061
B(  6-C ,  7-H ) :   0.9324 B(  6-C ,  8-H ) :   0.9453 B(  6-C ,  9-C ) :   1.0860
B(  9-C , 10-H ) :   0.9484 B(  9-C , 11-H ) :   0.9448 B(  9-C , 12-C ) :   1.0800
B( 12-C , 13-H ) :   0.9695 B( 12-C , 14-H ) :   0.9739 B( 12-C , 15-H ) :   0.9729
B( 16-S , 17-C ) :   1.1354 B( 16-S , 20-C ) :   1.1719 B( 17-C , 18-C ) :   1.6159
B( 17-C , 20-C ) :   0.1075 B( 17-C , 33-H ) :   0.9617 B( 18-C , 19-C ) :   1.2575
B( 18-C , 21-H ) :   0.9905 B( 19-C , 20-C ) :   1.5786 B( 19-C , 22-C ) :   1.0429
B( 22-C , 23-H ) :   0.9322 B( 22-C , 24-H ) :   0.9360 B( 22-C , 25-C ) :   1.0597
B( 25-C , 26-H ) :   0.9567 B( 25-C , 27-H ) :   0.9440 B( 25-C , 28-C ) :   1.0772
B( 28-C , 29-H ) :   0.9712 B( 28-C , 30-H ) :   0.9751 B( 28-C , 31-H ) :   0.9745

Dispersion correction           -0.014502674
FINAL SINGLE POINT ENERGY     -1339.867413195310

DIPOLE MOMENT
-------------
                                X             Y             Z
Electronic contribution:     10.58856       7.58192      12.07705
Nuclear contribution   :    -10.81407      -7.76658     -12.51672
                        -----------------------------------------
Total Dipole Moment    :     -0.22552      -0.18466      -0.43967
                        -----------------------------------------
Magnitude (a.u.)       :      0.52751
Magnitude (Debye)      :      1.34082

Rotational constants in cm-1:     0.019036     0.008531     0.006900
Rotational constants in MHz :   570.679847   255.757946   206.842549

                             ****ORCA TERMINATED NORMALLY****
TOTAL RUN TIME: 0 days 0 hours 0 minutes 21 seconds 333 msec
