                         Program Version 4.2.1 -  RELEASE  -
|  1> ! wB97X-D3 SP def2-SVP
|  2> %pal
|  3> nprocs 24
|  4> end
|  5>
|  6> * xyz 0 1
|  7> S 	 -70.1537 	 12.3352 	 -75.1742
|  8> C 	 -69.9505 	 14.055 	 -75.629
|  9> C 	 -69.5564 	 14.768 	 -74.4688
| 10> C 	 -69.5165 	 13.9548 	 -73.3166
| 11> C 	 -69.8872 	 12.6898 	 -73.5369
| 12> H 	 -69.3091 	 14.2017 	 -72.3016
| 13> C 	 -69.2459 	 16.2288 	 -74.3185
| 14> H 	 -69.4039 	 16.8114 	 -75.2712
| 15> H 	 -68.1362 	 16.2924 	 -74.3209
| 16> C 	 -69.7887 	 16.8931 	 -72.9968
| 17> H 	 -69.4858 	 16.5075 	 -71.9955
| 18> H 	 -69.2289 	 17.8833 	 -72.9126
| 19> C 	 -71.3595 	 17.0368 	 -73.0637
| 20> H 	 -71.7977 	 16.0471 	 -73.1679
| 21> H 	 -71.7485 	 17.4542 	 -72.1785
| 22> H 	 -71.5257 	 17.7399 	 -73.8816
| 23> S 	 -69.3406 	 10.0806 	 -72.8511
| 24> C 	 -69.7927 	 9.50709 	 -71.2826
| 25> C 	 -70.7375 	 10.4324 	 -70.7413
| 26> C 	 -70.8846 	 11.6676 	 -71.4348
| 27> C 	 -70.0433 	 11.6717 	 -72.5323
| 28> H 	 -71.2769 	 10.2696 	 -69.834
| 29> C 	 -71.8143 	 12.8254 	 -71.1105
| 30> H 	 -72.7488 	 12.3674 	 -71.3361
| 31> H 	 -71.7334 	 13.7497 	 -71.688
| 32> C 	 -71.7893 	 13.313 	 -69.636
| 33> H 	 -70.8281 	 13.7682 	 -69.4141
| 34> H 	 -71.9428 	 12.4745 	 -69.0466
| 35> C 	 -72.9059 	 14.3452 	 -69.3596
| 36> H 	 -73.2008 	 14.0277 	 -68.3614
| 37> H 	 -73.6706 	 14.4058 	 -70.1174
| 38> H 	 -72.5162 	 15.3943 	 -69.1388
| 39> H 	 -70.1102 	 14.4477 	 -76.6034
| 40> H 	 -69.5329 	 8.56105 	 -70.8989
| 41> *
| 42>
| 43>                          ****END OF INPUT****

CARTESIAN COORDINATES (ANGSTROEM)
---------------------------------
  S    -70.153700   12.335200  -75.174200
  C    -69.950500   14.055000  -75.629000
  C    -69.556400   14.768000  -74.468800
  C    -69.516500   13.954800  -73.316600
  C    -69.887200   12.689800  -73.536900
  H    -69.309100   14.201700  -72.301600
  C    -69.245900   16.228800  -74.318500
  H    -69.403900   16.811400  -75.271200
  H    -68.136200   16.292400  -74.320900
  C    -69.788700   16.893100  -72.996800
  H    -69.485800   16.507500  -71.995500
  H    -69.228900   17.883300  -72.912600
  C    -71.359500   17.036800  -73.063700
  H    -71.797700   16.047100  -73.167900
  H    -71.748500   17.454200  -72.178500
  H    -71.525700   17.739900  -73.881600
  S    -69.340600   10.080600  -72.851100
  C    -69.792700    9.507090  -71.282600
  C    -70.737500   10.432400  -70.741300
  C    -70.884600   11.667600  -71.434800
  C    -70.043300   11.671700  -72.532300
  H    -71.276900   10.269600  -69.834000
  C    -71.814300   12.825400  -71.110500
  H    -72.748800   12.367400  -71.336100
  H    -71.733400   13.749700  -71.688000
  C    -71.789300   13.313000  -69.636000
  H    -70.828100   13.768200  -69.414100
  H    -71.942800   12.474500  -69.046600
  C    -72.905900   14.345200  -69.359600
  H    -73.200800   14.027700  -68.361400
  H    -73.670600   14.405800  -70.117400
  H    -72.516200   15.394300  -69.138800
  H    -70.110200   14.447700  -76.603400
  H    -69.532900    8.561050  -70.898900

 Total Charge           Charge          ....    0
 Multiplicity           Mult            ....    1
 Number of Electrons    NEL             ....  134
 Basis Dimension        Dim             ....  322

ORBITAL ENERGIES
----------------

  NO   OCC          E(Eh)            E(eV)
   0   2.0000     -88.964893     -2420.8578
   1   2.0000     -88.961650     -2420.7696
   2   2.0000     -10.321225      -280.8548
   3   2.0000     -10.320703      -280.8406
   4   2.0000     -10.314976      -280.6848
   5   2.0000     -10.314816      -280.6804
   6   2.0000     -10.303763      -280.3796
   7   2.0000     -10.303341      -280.3682
   8   2.0000     -10.302179      -280.3366
   9   2.0000     -10.301581      -280.3203
  10   2.0000     -10.298795      -280.2445
  11   2.0000     -10.292114      -280.0627
  12   2.0000     -10.283519      -279.8288
  13   2.0000     -10.283427      -279.8263
  14   2.0000     -10.278987      -279.7055
  15   2.0000     -10.277402      -279.6623
  16   2.0000      -8.079726      -219.8605
  17   2.0000      -8.076965      -219.7854
  18   2.0000      -6.038175      -164.3071
  19   2.0000      -6.035480      -164.2338
  20   2.0000      -6.034253      -164.2004
  21   2.0000      -6.031412      -164.1231
  22   2.0000      -6.030532      -164.0991
  23   2.0000      -6.027668      -164.0212
  24   2.0000      -1.011635       -27.5280
  25   2.0000      -0.983467       -26.7615
  26   2.0000      -0.912266       -24.8240
  27   2.0000      -0.906228       -24.6597
  28   2.0000      -0.866491       -23.5784
  29   2.0000      -0.854269       -23.2458
  30   2.0000      -0.842580       -22.9278
  31   2.0000      -0.811189       -22.0736
  32   2.0000      -0.784657       -21.3516
  33   2.0000      -0.772423       -21.0187
  34   2.0000      -0.707095       -19.2410
  35   2.0000      -0.703824       -19.1520
  36   2.0000      -0.697671       -18.9846
  37   2.0000      -0.659337       -17.9415
  38   2.0000      -0.644203       -17.5296
  39   2.0000      -0.622580       -16.9413
  40   2.0000      -0.605502       -16.4765
  41   2.0000      -0.570158       -15.5148
  42   2.0000      -0.556803       -15.1514
  43   2.0000      -0.552768       -15.0416
  44   2.0000      -0.536494       -14.5987
  45   2.0000      -0.530550       -14.4370
  46   2.0000      -0.521594       -14.1933
  47   2.0000      -0.513926       -13.9847
  48   2.0000      -0.508026       -13.8241
  49   2.0000      -0.496292       -13.5048
  50   2.0000      -0.490668       -13.3518
  51   2.0000      -0.483546       -13.1580
  52   2.0000      -0.474855       -12.9215
  53   2.0000      -0.458599       -12.4791
  54   2.0000      -0.454535       -12.3685
  55   2.0000      -0.450407       -12.2562
  56   2.0000      -0.445803       -12.1309
  57   2.0000      -0.442867       -12.0510
  58   2.0000      -0.437572       -11.9069
  59   2.0000      -0.429425       -11.6852
  60   2.0000      -0.419663       -11.4196
  61   2.0000      -0.409419       -11.1409
  62   2.0000      -0.405636       -11.0379
  63   2.0000      -0.342367        -9.3163
  64   2.0000      -0.329555        -8.9677
  65   2.0000      -0.327623        -8.9151
  66   2.0000      -0.287380        -7.8200
  67   0.0000       0.033228         0.9042
  68   0.0000       0.064785         1.7629
  69   0.0000       0.106518         2.8985
  70   0.0000       0.119054         3.2396
  71   0.0000       0.128167         3.4876

MULLIKEN ATOMIC CHARGES
-----------------------
   0 S :    0.101968
   1 C :   -0.126095
   2 C :   -0.058451
   3 C :    0.013839
   4 C :   -0.125583
   5 H :   -0.005563
   6 C :    0.045807
   7 H :    0.027042
   8 H :    0.043394
   9 C :   -0.125196
  10 H :    0.035534
  11 H :    0.030653
  12 C :   -0.022741
  13 H :    0.053819
  14 H :    0.022008
  15 H :    0.036713
  16 S :    0.105212
  17 C :   -0.069359
  18 C :   -0.039090
  19 C :   -0.005529
  20 C :   -0.188651
  21 H :    0.005511
  22 C :    0.060767
  23 H :    0.029854
  24 H :    0.037381
  25 C :   -0.065349
  26 H :    0.033477
  27 H :    0.012318
  28 C :   -0.055570
  29 H :    0.029553
  30 H :    0.042072
  31 H :    0.037440
  32 H :    0.035139
  33 H :    0.047676
Sum of atomic charges:   -0.0000000

LOEWDIN ATOMIC CHARGES
----------------------
   0 S :    0.406474
   1 C :   -0.193817
   2 C :   -0.056071
   3 C :   -0.071501
   4 C :   -0.200895
   5 H :    0.028338
   6 C :   -0.043536
   7 H :    0.036850
   8 H :    0.041109
   9 C :   -0.049756
  10 H :    0.024513
  11 H :    0.029665
  12 C :   -0.059119
  13 H :    0.028039
  14 H :    0.017207
  15 H :    0.029427
  16 S :    0.406134
  17 C :   -0.183641
  18 C :   -0.065863
  19 C :   -0.052327
  20 C :   -0.192751
  21 H :    0.021372
  22 C :   -0.027312
  23 H :    0.032644
  24 H :    0.032221
  25 C :   -0.030626
  26 H :    0.025956
  27 H :    0.008382
  28 C :   -0.070621
  29 H :    0.031084
  30 H :    0.022989
  31 H :    0.033130
  32 H :    0.020847
  33 H :    0.021457

  Mayer bond orders larger than 0.100000
B(  0-S ,  1-C ) :   1.1199 B(  0-S ,  4-C ) :   1.1595 B(  1-C ,  2-C ) :   1.5860
B(  1-C , 32-H ) :   0.9820 B(  2-C ,  3-C ) :   1.2131 B(  2-C ,  6-C ) :   1.0296
B(  3-C ,  4-C ) :   1.5948 B(  3-C ,  5-H ) :   1.0045 B(  4-C , 20-C ) :   1.0303
B(  6-C ,  7-H ) :   0.9444 B(  6-C ,  8-H ) :   0.9283 B(  6-C ,  9-C ) :   1.0601
B(  9-C , 10-H ) :   0.9548 B(  9-C , 11-H ) :   0.9544 B(  9-C , 12-C ) :   1.0597
B( 12-C , 13-H ) :   0.9738 B( 12-C , 14-H ) :   0.9762 B( 12-C , 15-H ) :   0.9769
B( 16-S , 17-C ) :   1.1659 B( 16-S , 20-C ) :   1.1460 B( 17-C , 18-C ) :   1.5531
B( 17-C , 20-C ) :   0.1130 B( 17-C , 33-H ) :   0.9819 B( 18-C , 19-C ) :   1.2665
B( 18-C , 21-H ) :   0.9885 B( 19-C , 20-C ) :   1.5712 B( 19-C , 22-C ) :   1.0258
B( 22-C , 23-H ) :   0.9241 B( 22-C , 24-H ) :   0.9396 B( 22-C , 25-C ) :   1.0710
B( 25-C , 26-H ) :   0.9570 B( 25-C , 27-H ) :   0.9669 B( 25-C , 28-C ) :   1.0639
B( 28-C , 29-H ) :   0.9777 B( 28-C , 30-H ) :   0.9783 B( 28-C , 31-H ) :   0.9779

Dispersion correction           -0.015237557
FINAL SINGLE POINT ENERGY     -1339.854706254292

DIPOLE MOMENT
-------------
                                X             Y             Z
Electronic contribution:     10.83998     -26.05538     -15.72516
Nuclear contribution   :    -11.07289      26.58543      16.24429
                        -----------------------------------------
Total Dipole Moment    :     -0.23292       0.53005       0.51913
                        -----------------------------------------
Magnitude (a.u.)       :      0.77762
Magnitude (Debye)      :      1.97656

Rotational constants in cm-1:     0.016102     0.011326     0.007249
Rotational constants in MHz :   482.721649   339.548207   217.306628

                             ****ORCA TERMINATED NORMALLY****
TOTAL RUN TIME: 0 days 0 hours 0 minutes 22 seconds 837 msec
