                         Program Version 4.2.1 -  RELEASE  -
|  1> ! wB97X-D3 SP def2-SVP
|  2> %pal
|  3> nprocs 24
|  4> end
|  5>
|  6> * xyz 0 1
|  7> S 	 -56.7742 	 23.4909 	 25.1076
|  8> C 	 -55.9606 	 22.0747 	 25.8192
|  9> C 	 -56.6117 	 20.8848 	 25.4778
| 10> C 	 -57.7626 	 21.1428 	 24.6439
| 11> C 	 -58.0224 	 22.49 	 24.3425
| 12> H 	 -58.3535 	 20.3513 	 24.2064
| 13> C 	 -56.1995 	 19.4892 	 25.9195
| 14> H 	 -56.0313 	 19.5625 	 26.9699
| 15> H 	 -55.2599 	 19.2338 	 25.4962
| 16> C 	 -57.3735 	 18.4352 	 25.6027
| 17> H 	 -58.355 	 18.7443 	 25.8045
| 18> H 	 -57.3017 	 18.2394 	 24.5129
| 19> C 	 -57.1948 	 17.0654 	 26.2971
| 20> H 	 -56.8902 	 17.178 	 27.3408
| 21> H 	 -58.2049 	 16.5603 	 26.3042
| 22> H 	 -56.482 	 16.5206 	 25.7614
| 23> S 	 -60.6967 	 22.861 	 23.531
| 24> C 	 -60.9139 	 23.4601 	 21.9652
| 25> C 	 -59.7899 	 23.7856 	 21.3021
| 26> C 	 -58.6233 	 23.5554 	 22.0859
| 27> C 	 -58.9261 	 22.9939 	 23.3376
| 28> H 	 -59.8513 	 24.1365 	 20.285
| 29> C 	 -57.2871 	 23.4793 	 21.4399
| 30> H 	 -56.5707 	 23.9383 	 22.0823
| 31> H 	 -57.4153 	 23.9982 	 20.4659
| 32> C 	 -56.7537 	 22.0714 	 21.1002
| 33> H 	 -57.5633 	 21.4096 	 20.7056
| 34> H 	 -56.3915 	 21.5722 	 22.0271
| 35> C 	 -55.5502 	 21.9897 	 20.1319
| 36> H 	 -54.6623 	 22.2849 	 20.6554
| 37> H 	 -55.6715 	 22.6174 	 19.2224
| 38> H 	 -55.2987 	 20.9372 	 19.8642
| 39> H 	 -55.1024 	 22.1392 	 26.4301
| 40> H 	 -61.8692 	 23.6267 	 21.4592
| 41> *
| 42>
| 43>                          ****END OF INPUT****

CARTESIAN COORDINATES (ANGSTROEM)
---------------------------------
  S    -56.774200   23.490900   25.107600
  C    -55.960600   22.074700   25.819200
  C    -56.611700   20.884800   25.477800
  C    -57.762600   21.142800   24.643900
  C    -58.022400   22.490000   24.342500
  H    -58.353500   20.351300   24.206400
  C    -56.199500   19.489200   25.919500
  H    -56.031300   19.562500   26.969900
  H    -55.259900   19.233800   25.496200
  C    -57.373500   18.435200   25.602700
  H    -58.355000   18.744300   25.804500
  H    -57.301700   18.239400   24.512900
  C    -57.194800   17.065400   26.297100
  H    -56.890200   17.178000   27.340800
  H    -58.204900   16.560300   26.304200
  H    -56.482000   16.520600   25.761400
  S    -60.696700   22.861000   23.531000
  C    -60.913900   23.460100   21.965200
  C    -59.789900   23.785600   21.302100
  C    -58.623300   23.555400   22.085900
  C    -58.926100   22.993900   23.337600
  H    -59.851300   24.136500   20.285000
  C    -57.287100   23.479300   21.439900
  H    -56.570700   23.938300   22.082300
  H    -57.415300   23.998200   20.465900
  C    -56.753700   22.071400   21.100200
  H    -57.563300   21.409600   20.705600
  H    -56.391500   21.572200   22.027100
  C    -55.550200   21.989700   20.131900
  H    -54.662300   22.284900   20.655400
  H    -55.671500   22.617400   19.222400
  H    -55.298700   20.937200   19.864200
  H    -55.102400   22.139200   26.430100
  H    -61.869200   23.626700   21.459200

 Total Charge           Charge          ....    0
 Multiplicity           Mult            ....    1
 Number of Electrons    NEL             ....  134
 Basis Dimension        Dim             ....  322

ORBITAL ENERGIES
----------------

  NO   OCC          E(Eh)            E(eV)
   0   2.0000     -88.967317     -2420.9238
   1   2.0000     -88.966955     -2420.9139
   2   2.0000     -10.330955      -281.1196
   3   2.0000     -10.325796      -280.9792
   4   2.0000     -10.316019      -280.7131
   5   2.0000     -10.308895      -280.5193
   6   2.0000     -10.305564      -280.4287
   7   2.0000     -10.299774      -280.2711
   8   2.0000     -10.296229      -280.1746
   9   2.0000     -10.295791      -280.1627
  10   2.0000     -10.291583      -280.0482
  11   2.0000     -10.285314      -279.8776
  12   2.0000     -10.285235      -279.8755
  13   2.0000     -10.285189      -279.8742
  14   2.0000     -10.279228      -279.7120
  15   2.0000     -10.277540      -279.6661
  16   2.0000      -8.082142      -219.9263
  17   2.0000      -8.080673      -219.8863
  18   2.0000      -6.040485      -164.3700
  19   2.0000      -6.039263      -164.3367
  20   2.0000      -6.036637      -164.2653
  21   2.0000      -6.035226      -164.2268
  22   2.0000      -6.032999      -164.1662
  23   2.0000      -6.031574      -164.1275
  24   2.0000      -1.004627       -27.3373
  25   2.0000      -0.979619       -26.6568
  26   2.0000      -0.908248       -24.7147
  27   2.0000      -0.903954       -24.5978
  28   2.0000      -0.869453       -23.6590
  29   2.0000      -0.850370       -23.1398
  30   2.0000      -0.843498       -22.9528
  31   2.0000      -0.814077       -22.1522
  32   2.0000      -0.783730       -21.3264
  33   2.0000      -0.768140       -20.9022
  34   2.0000      -0.715804       -19.4780
  35   2.0000      -0.697268       -18.9736
  36   2.0000      -0.683331       -18.5944
  37   2.0000      -0.660399       -17.9704
  38   2.0000      -0.636669       -17.3246
  39   2.0000      -0.616738       -16.7823
  40   2.0000      -0.593520       -16.1505
  41   2.0000      -0.575371       -15.6566
  42   2.0000      -0.564901       -15.3717
  43   2.0000      -0.560000       -15.2384
  44   2.0000      -0.529539       -14.4095
  45   2.0000      -0.515338       -14.0231
  46   2.0000      -0.511862       -13.9285
  47   2.0000      -0.511485       -13.9182
  48   2.0000      -0.509190       -13.8558
  49   2.0000      -0.500888       -13.6298
  50   2.0000      -0.484426       -13.1819
  51   2.0000      -0.476874       -12.9764
  52   2.0000      -0.475579       -12.9412
  53   2.0000      -0.462397       -12.5825
  54   2.0000      -0.458588       -12.4788
  55   2.0000      -0.451131       -12.2759
  56   2.0000      -0.446730       -12.1561
  57   2.0000      -0.442016       -12.0279
  58   2.0000      -0.434451       -11.8220
  59   2.0000      -0.424670       -11.5559
  60   2.0000      -0.414232       -11.2718
  61   2.0000      -0.412550       -11.2261
  62   2.0000      -0.410651       -11.1744
  63   2.0000      -0.337879        -9.1942
  64   2.0000      -0.333309        -9.0698
  65   2.0000      -0.327406        -8.9092
  66   2.0000      -0.293866        -7.9965
  67   0.0000       0.030236         0.8228
  68   0.0000       0.064968         1.7679
  69   0.0000       0.114988         3.1290
  70   0.0000       0.117440         3.1957
  71   0.0000       0.133770         3.6401

MULLIKEN ATOMIC CHARGES
-----------------------
   0 S :    0.106515
   1 C :   -0.121141
   2 C :   -0.110918
   3 C :    0.026761
   4 C :   -0.150722
   5 H :    0.013301
   6 C :    0.115419
   7 H :    0.023884
   8 H :    0.033573
   9 C :   -0.136142
  10 H :    0.036525
  11 H :    0.042610
  12 C :   -0.024443
  13 H :    0.032260
  14 H :    0.042143
  15 H :    0.025081
  16 S :    0.126971
  17 C :   -0.076774
  18 C :   -0.053126
  19 C :   -0.014565
  20 C :   -0.185103
  21 H :    0.015328
  22 C :    0.100753
  23 H :    0.017801
  24 H :    0.018327
  25 C :   -0.101090
  26 H :    0.031528
  27 H :    0.040051
  28 C :   -0.051585
  29 H :    0.022384
  30 H :    0.035890
  31 H :    0.034334
  32 H :    0.031604
  33 H :    0.052566
Sum of atomic charges:    0.0000000

LOEWDIN ATOMIC CHARGES
----------------------
   0 S :    0.393553
   1 C :   -0.185106
   2 C :   -0.061025
   3 C :   -0.058456
   4 C :   -0.194662
   5 H :    0.029136
   6 C :   -0.021420
   7 H :    0.028705
   8 H :    0.030090
   9 C :   -0.037201
  10 H :    0.016985
  11 H :    0.029080
  12 C :   -0.061083
  13 H :    0.023872
  14 H :    0.035755
  15 H :    0.015682
  16 S :    0.419805
  17 C :   -0.200451
  18 C :   -0.078256
  19 C :   -0.049824
  20 C :   -0.197895
  21 H :    0.032775
  22 C :   -0.032928
  23 H :    0.023527
  24 H :    0.031733
  25 C :   -0.044751
  26 H :    0.023958
  27 H :    0.029588
  28 C :   -0.070321
  29 H :    0.020571
  30 H :    0.024344
  31 H :    0.031746
  32 H :    0.018653
  33 H :    0.033819

  Mayer bond orders larger than 0.100000
B(  0-S ,  1-C ) :   1.1421 B(  0-S ,  4-C ) :   1.1429 B(  1-C ,  2-C ) :   1.6007
B(  1-C ,  4-C ) :   0.1009 B(  1-C , 32-H ) :   0.9794 B(  2-C ,  3-C ) :   1.2703
B(  2-C ,  6-C ) :   0.9986 B(  3-C ,  4-C ) :   1.5452 B(  3-C ,  5-H ) :   0.9851
B(  4-C , 20-C ) :   1.0526 B(  6-C ,  7-H ) :   0.9399 B(  6-C ,  8-H ) :   0.9352
B(  6-C ,  9-C ) :   1.0711 B(  9-C , 10-H ) :   0.9642 B(  9-C , 11-H ) :   0.9529
B(  9-C , 12-C ) :   1.0768 B( 12-C , 13-H ) :   0.9767 B( 12-C , 14-H ) :   0.9764
B( 12-C , 15-H ) :   0.9781 B( 16-S , 17-C ) :   1.1659 B( 16-S , 20-C ) :   1.1336
B( 17-C , 18-C ) :   1.6306 B( 17-C , 33-H ) :   0.9556 B( 18-C , 19-C ) :   1.2438
B( 18-C , 21-H ) :   0.9899 B( 19-C , 20-C ) :   1.5645 B( 19-C , 22-C ) :   1.0731
B( 22-C , 23-H ) :   0.9124 B( 22-C , 24-H ) :   0.9350 B( 22-C , 25-C ) :   1.0621
B( 25-C , 26-H ) :   0.9606 B( 25-C , 27-H ) :   0.9485 B( 25-C , 28-C ) :   1.0848
B( 28-C , 29-H ) :   0.9754 B( 28-C , 30-H ) :   0.9757 B( 28-C , 31-H ) :   0.9728

Dispersion correction           -0.014827434
FINAL SINGLE POINT ENERGY     -1339.878772492403

DIPOLE MOMENT
-------------
                                X             Y             Z
Electronic contribution:    -13.44010      20.41760       6.68985
Nuclear contribution   :     13.70927     -21.00899      -6.91882
                        -----------------------------------------
Total Dipole Moment    :      0.26917      -0.59140      -0.22897
                        -----------------------------------------
Magnitude (a.u.)       :      0.68893
Magnitude (Debye)      :      1.75113

Rotational constants in cm-1:     0.017033     0.008550     0.007740
Rotational constants in MHz :   510.631723   256.320836   232.050948

                             ****ORCA TERMINATED NORMALLY****
TOTAL RUN TIME: 0 days 0 hours 0 minutes 21 seconds 895 msec
