                         Program Version 4.2.1 -  RELEASE  -
|  1> ! wB97X-D3 SP def2-SVP
|  2> %pal
|  3> nprocs 24
|  4> end
|  5>
|  6> * xyz 0 1
|  7> S 	 -134.115 	 2.48455 	 4.46516
|  8> C 	 -133.258 	 1.15153 	 3.6636
|  9> C 	 -132.498 	 0.471081 	 4.61459
| 10> C 	 -132.629 	 1.03952 	 5.87763
| 11> C 	 -133.496 	 2.06395 	 6.00551
| 12> H 	 -132.001 	 0.69292 	 6.68083
| 13> C 	 -131.623 	 -0.738835 	 4.34029
| 14> H 	 -131.486 	 -0.84434 	 3.24576
| 15> H 	 -132.164 	 -1.68992 	 4.69317
| 16> C 	 -130.246 	 -0.902668 	 4.98642
| 17> H 	 -129.72 	 0.0475068 	 4.85933
| 18> H 	 -130.506 	 -1.09653 	 6.05822
| 19> C 	 -129.326 	 -1.96804 	 4.59911
| 20> H 	 -129.109 	 -2.06398 	 3.55623
| 21> H 	 -128.332 	 -1.8434 	 5.04635
| 22> H 	 -129.666 	 -2.94042 	 4.98158
| 23> S 	 -133.635 	 4.61089 	 6.98235
| 24> C 	 -134.296 	 4.85874 	 8.6061
| 25> C 	 -134.198 	 3.69091 	 9.33775
| 26> C 	 -133.833 	 2.5261 	 8.51355
| 27> C 	 -133.761 	 2.86311 	 7.17074
| 28> H 	 -134.533 	 3.59033 	 10.3404
| 29> C 	 -133.947 	 1.14369 	 9.07336
| 30> H 	 -133.756 	 0.317515 	 8.41826
| 31> H 	 -135.069 	 1.0379 	 9.32821
| 32> C 	 -133.254 	 0.878249 	 10.4641
| 33> H 	 -133.482 	 -0.111448 	 10.8014
| 34> H 	 -133.643 	 1.4898 	 11.2983
| 35> C 	 -131.728 	 1.12441 	 10.3024
| 36> H 	 -131.228 	 0.972412 	 11.2254
| 37> H 	 -131.581 	 2.15363 	 10.004
| 38> H 	 -131.375 	 0.472714 	 9.53773
| 39> H 	 -133.473 	 0.746471 	 2.71459
| 40> H 	 -134.485 	 5.84018 	 9.02505
| 41> *
| 42>
| 43>                          ****END OF INPUT****

CARTESIAN COORDINATES (ANGSTROEM)
---------------------------------
  S    -134.115000    2.484550    4.465160
  C    -133.258000    1.151530    3.663600
  C    -132.498000    0.471081    4.614590
  C    -132.629000    1.039520    5.877630
  C    -133.496000    2.063950    6.005510
  H    -132.001000    0.692920    6.680830
  C    -131.623000   -0.738835    4.340290
  H    -131.486000   -0.844340    3.245760
  H    -132.164000   -1.689920    4.693170
  C    -130.246000   -0.902668    4.986420
  H    -129.720000    0.047507    4.859330
  H    -130.506000   -1.096530    6.058220
  C    -129.326000   -1.968040    4.599110
  H    -129.109000   -2.063980    3.556230
  H    -128.332000   -1.843400    5.046350
  H    -129.666000   -2.940420    4.981580
  S    -133.635000    4.610890    6.982350
  C    -134.296000    4.858740    8.606100
  C    -134.198000    3.690910    9.337750
  C    -133.833000    2.526100    8.513550
  C    -133.761000    2.863110    7.170740
  H    -134.533000    3.590330   10.340400
  C    -133.947000    1.143690    9.073360
  H    -133.756000    0.317515    8.418260
  H    -135.069000    1.037900    9.328210
  C    -133.254000    0.878249   10.464100
  H    -133.482000   -0.111448   10.801400
  H    -133.643000    1.489800   11.298300
  C    -131.728000    1.124410   10.302400
  H    -131.228000    0.972412   11.225400
  H    -131.581000    2.153630   10.004000
  H    -131.375000    0.472714    9.537730
  H    -133.473000    0.746471    2.714590
  H    -134.485000    5.840180    9.025050

 Total Charge           Charge          ....    0
 Multiplicity           Mult            ....    1
 Number of Electrons    NEL             ....  134
 Basis Dimension        Dim             ....  322

ORBITAL ENERGIES
----------------

  NO   OCC          E(Eh)            E(eV)
   0   2.0000     -88.967271     -2420.9225
   1   2.0000     -88.961865     -2420.7754
   2   2.0000     -10.326442      -280.9968
   3   2.0000     -10.323799      -280.9248
   4   2.0000     -10.320266      -280.8287
   5   2.0000     -10.313668      -280.6492
   6   2.0000     -10.307914      -280.4926
   7   2.0000     -10.300877      -280.3011
   8   2.0000     -10.299726      -280.2698
   9   2.0000     -10.297627      -280.2127
  10   2.0000     -10.297534      -280.2102
  11   2.0000     -10.290513      -280.0191
  12   2.0000     -10.287268      -279.9308
  13   2.0000     -10.284027      -279.8426
  14   2.0000     -10.277351      -279.6609
  15   2.0000     -10.269991      -279.4607
  16   2.0000      -8.082092      -219.9249
  17   2.0000      -8.076470      -219.7719
  18   2.0000      -6.040610      -164.3734
  19   2.0000      -6.036436      -164.2598
  20   2.0000      -6.035137      -164.2244
  21   2.0000      -6.032964      -164.1653
  22   2.0000      -6.031231      -164.1182
  23   2.0000      -6.026817      -163.9980
  24   2.0000      -1.013103       -27.5679
  25   2.0000      -0.983935       -26.7742
  26   2.0000      -0.917712       -24.9722
  27   2.0000      -0.905932       -24.6517
  28   2.0000      -0.876953       -23.8631
  29   2.0000      -0.854373       -23.2487
  30   2.0000      -0.842989       -22.9389
  31   2.0000      -0.817616       -22.2485
  32   2.0000      -0.785575       -21.3766
  33   2.0000      -0.774333       -21.0707
  34   2.0000      -0.712987       -19.4014
  35   2.0000      -0.698583       -19.0094
  36   2.0000      -0.691469       -18.8158
  37   2.0000      -0.659171       -17.9370
  38   2.0000      -0.641112       -17.4455
  39   2.0000      -0.627768       -17.0824
  40   2.0000      -0.600816       -16.3490
  41   2.0000      -0.580709       -15.8019
  42   2.0000      -0.565537       -15.3890
  43   2.0000      -0.550786       -14.9876
  44   2.0000      -0.540845       -14.7171
  45   2.0000      -0.526321       -14.3219
  46   2.0000      -0.517796       -14.0899
  47   2.0000      -0.512374       -13.9424
  48   2.0000      -0.508515       -13.8374
  49   2.0000      -0.503021       -13.6879
  50   2.0000      -0.492390       -13.3986
  51   2.0000      -0.482199       -13.1213
  52   2.0000      -0.475717       -12.9449
  53   2.0000      -0.469984       -12.7889
  54   2.0000      -0.460235       -12.5236
  55   2.0000      -0.458392       -12.4735
  56   2.0000      -0.445267       -12.1163
  57   2.0000      -0.434124       -11.8131
  58   2.0000      -0.428030       -11.6473
  59   2.0000      -0.424420       -11.5490
  60   2.0000      -0.417024       -11.3478
  61   2.0000      -0.415037       -11.2937
  62   2.0000      -0.407398       -11.0859
  63   2.0000      -0.352499        -9.5920
  64   2.0000      -0.333150        -9.0655
  65   2.0000      -0.323028        -8.7901
  66   2.0000      -0.289010        -7.8644
  67   0.0000       0.022662         0.6167
  68   0.0000       0.072694         1.9781
  69   0.0000       0.097771         2.6605
  70   0.0000       0.116801         3.1783
  71   0.0000       0.123671         3.3653

MULLIKEN ATOMIC CHARGES
-----------------------
   0 S :    0.110405
   1 C :   -0.107050
   2 C :   -0.070306
   3 C :    0.009189
   4 C :   -0.128755
   5 H :   -0.000436
   6 C :    0.039132
   7 H :    0.017378
   8 H :    0.042428
   9 C :   -0.107052
  10 H :    0.035067
  11 H :    0.034011
  12 C :   -0.019573
  13 H :    0.023801
  14 H :    0.034548
  15 H :    0.021649
  16 S :    0.089248
  17 C :   -0.081391
  18 C :   -0.019984
  19 C :   -0.013034
  20 C :   -0.130350
  21 H :    0.015328
  22 C :   -0.006892
  23 H :    0.026117
  24 H :    0.053797
  25 C :   -0.082305
  26 H :    0.020820
  27 H :    0.025859
  28 C :   -0.022255
  29 H :    0.027609
  30 H :    0.042096
  31 H :    0.023777
  32 H :    0.036057
  33 H :    0.061067
Sum of atomic charges:   -0.0000000

LOEWDIN ATOMIC CHARGES
----------------------
   0 S :    0.420853
   1 C :   -0.185760
   2 C :   -0.061135
   3 C :   -0.068670
   4 C :   -0.203904
   5 H :    0.027569
   6 C :   -0.039795
   7 H :    0.026736
   8 H :    0.039224
   9 C :   -0.053915
  10 H :    0.025626
  11 H :    0.028353
  12 C :   -0.064151
  13 H :    0.021020
  14 H :    0.035376
  15 H :    0.025241
  16 S :    0.379635
  17 C :   -0.172216
  18 C :   -0.059763
  19 C :   -0.057153
  20 C :   -0.187294
  21 H :    0.025424
  22 C :   -0.038265
  23 H :    0.024914
  24 H :    0.047091
  25 C :   -0.036605
  26 H :    0.019165
  27 H :    0.021011
  28 C :   -0.057059
  29 H :    0.020097
  30 H :    0.027861
  31 H :    0.019373
  32 H :    0.021415
  33 H :    0.029699

  Mayer bond orders larger than 0.100000
B(  0-S ,  1-C ) :   1.1403 B(  0-S ,  4-C ) :   1.1627 B(  1-C ,  2-C ) :   1.5840
B(  1-C ,  4-C ) :   0.1026 B(  1-C , 32-H ) :   0.9712 B(  2-C ,  3-C ) :   1.2855
B(  2-C ,  6-C ) :   1.0257 B(  3-C ,  4-C ) :   1.5421 B(  3-C ,  5-H ) :   0.9958
B(  4-C , 20-C ) :   1.0510 B(  6-C ,  7-H ) :   0.9423 B(  6-C ,  8-H ) :   0.9344
B(  6-C ,  9-C ) :   1.0616 B(  9-C , 10-H ) :   0.9573 B(  9-C , 11-H ) :   0.9445
B(  9-C , 12-C ) :   1.1118 B( 12-C , 13-H ) :   0.9692 B( 12-C , 14-H ) :   0.9663
B( 12-C , 15-H ) :   0.9697 B( 16-S , 17-C ) :   1.1258 B( 16-S , 20-C ) :   1.1310
B( 17-C , 18-C ) :   1.6426 B( 17-C , 33-H ) :   0.9704 B( 18-C , 19-C ) :   1.1854
B( 18-C , 21-H ) :   0.9915 B( 19-C , 20-C ) :   1.6128 B( 19-C , 22-C ) :   1.0485
B( 22-C , 23-H ) :   0.9480 B( 22-C , 24-H ) :   0.9362 B( 22-C , 25-C ) :   1.0671
B( 25-C , 26-H ) :   0.9571 B( 25-C , 27-H ) :   0.9552 B( 25-C , 28-C ) :   1.0704
B( 28-C , 29-H ) :   0.9746 B( 28-C , 30-H ) :   0.9735 B( 28-C , 31-H ) :   0.9762

Dispersion correction           -0.014174068
FINAL SINGLE POINT ENERGY     -1339.869026698731

DIPOLE MOMENT
-------------
                                X             Y             Z
Electronic contribution:    -16.41321      23.66241     -10.55324
Nuclear contribution   :     16.67562     -24.29150      10.99394
                        -----------------------------------------
Total Dipole Moment    :      0.26241      -0.62909       0.44070
                        -----------------------------------------
Magnitude (a.u.)       :      0.81168
Magnitude (Debye)      :      2.06313

Rotational constants in cm-1:     0.017598     0.009159     0.006624
Rotational constants in MHz :   527.573237   274.592297   198.578392

                             ****ORCA TERMINATED NORMALLY****
TOTAL RUN TIME: 0 days 0 hours 0 minutes 20 seconds 760 msec
