                         Program Version 4.2.1 -  RELEASE  -
|  1> ! wB97X-D3 SP def2-SVP
|  2> %pal
|  3> nprocs 24
|  4> end
|  5>
|  6> * xyz 0 1
|  7> S 	 -38.4873 	 -47.6176 	 -74.1551
|  8> C 	 -40.2728 	 -47.4155 	 -74.333
|  9> C 	 -40.7944 	 -48.2202 	 -75.3205
| 10> C 	 -39.7323 	 -49.0543 	 -75.8984
| 11> C 	 -38.4419 	 -48.8053 	 -75.436
| 12> H 	 -39.7913 	 -49.7357 	 -76.7214
| 13> C 	 -42.0633 	 -47.9758 	 -76.0575
| 14> H 	 -42.7828 	 -47.7832 	 -75.2691
| 15> H 	 -42.3027 	 -48.9133 	 -76.5055
| 16> C 	 -41.9948 	 -46.9021 	 -77.1243
| 17> H 	 -41.205 	 -46.9833 	 -77.8387
| 18> H 	 -42.8999 	 -46.8934 	 -77.7325
| 19> C 	 -41.7479 	 -45.5309 	 -76.553
| 20> H 	 -41.1477 	 -45.4569 	 -75.6238
| 21> H 	 -41.3561 	 -44.9555 	 -77.4173
| 22> H 	 -42.7533 	 -45.0569 	 -76.4039
| 23> S 	 -37.1807 	 -51.1469 	 -76.1737
| 24> C 	 -35.576 	 -51.0965 	 -76.7488
| 25> C 	 -35.1827 	 -49.7953 	 -76.9279
| 26> C 	 -36.0961 	 -48.8403 	 -76.4358
| 27> C 	 -37.2182 	 -49.4012 	 -75.8972
| 28> H 	 -34.2299 	 -49.6358 	 -77.4746
| 29> C 	 -35.7932 	 -47.3707 	 -76.4979
| 30> H 	 -34.9405 	 -47.0208 	 -75.8695
| 31> H 	 -36.604 	 -46.8402 	 -76.0424
| 32> C 	 -35.6378 	 -46.8773 	 -77.9167
| 33> H 	 -34.8059 	 -47.33 	 -78.3822
| 34> H 	 -35.2112 	 -45.8878 	 -77.7721
| 35> C 	 -36.8739 	 -46.9392 	 -78.856
| 36> H 	 -36.6982 	 -46.546 	 -79.8591
| 37> H 	 -37.6382 	 -46.2518 	 -78.4963
| 38> H 	 -37.2148 	 -47.945 	 -79.0579
| 39> H 	 -40.8511 	 -46.8208 	 -73.6336
| 40> H 	 -35.0092 	 -51.9272 	 -77.1775
| 41> *
| 42>
| 43>                          ****END OF INPUT****

CARTESIAN COORDINATES (ANGSTROEM)
---------------------------------
  S    -38.487300  -47.617600  -74.155100
  C    -40.272800  -47.415500  -74.333000
  C    -40.794400  -48.220200  -75.320500
  C    -39.732300  -49.054300  -75.898400
  C    -38.441900  -48.805300  -75.436000
  H    -39.791300  -49.735700  -76.721400
  C    -42.063300  -47.975800  -76.057500
  H    -42.782800  -47.783200  -75.269100
  H    -42.302700  -48.913300  -76.505500
  C    -41.994800  -46.902100  -77.124300
  H    -41.205000  -46.983300  -77.838700
  H    -42.899900  -46.893400  -77.732500
  C    -41.747900  -45.530900  -76.553000
  H    -41.147700  -45.456900  -75.623800
  H    -41.356100  -44.955500  -77.417300
  H    -42.753300  -45.056900  -76.403900
  S    -37.180700  -51.146900  -76.173700
  C    -35.576000  -51.096500  -76.748800
  C    -35.182700  -49.795300  -76.927900
  C    -36.096100  -48.840300  -76.435800
  C    -37.218200  -49.401200  -75.897200
  H    -34.229900  -49.635800  -77.474600
  C    -35.793200  -47.370700  -76.497900
  H    -34.940500  -47.020800  -75.869500
  H    -36.604000  -46.840200  -76.042400
  C    -35.637800  -46.877300  -77.916700
  H    -34.805900  -47.330000  -78.382200
  H    -35.211200  -45.887800  -77.772100
  C    -36.873900  -46.939200  -78.856000
  H    -36.698200  -46.546000  -79.859100
  H    -37.638200  -46.251800  -78.496300
  H    -37.214800  -47.945000  -79.057900
  H    -40.851100  -46.820800  -73.633600
  H    -35.009200  -51.927200  -77.177500

 Total Charge           Charge          ....    0
 Multiplicity           Mult            ....    1
 Number of Electrons    NEL             ....  134
 Basis Dimension        Dim             ....  322

ORBITAL ENERGIES
----------------

  NO   OCC          E(Eh)            E(eV)
   0   2.0000     -88.965925     -2420.8859
   1   2.0000     -88.964351     -2420.8431
   2   2.0000     -10.330270      -281.1009
   3   2.0000     -10.324053      -280.9318
   4   2.0000     -10.318969      -280.7934
   5   2.0000     -10.313913      -280.6558
   6   2.0000     -10.303786      -280.3803
   7   2.0000     -10.298047      -280.2241
   8   2.0000     -10.294600      -280.1303
   9   2.0000     -10.290948      -280.0309
  10   2.0000     -10.288608      -279.9672
  11   2.0000     -10.285622      -279.8860
  12   2.0000     -10.281771      -279.7812
  13   2.0000     -10.280054      -279.7345
  14   2.0000     -10.276395      -279.6349
  15   2.0000     -10.276300      -279.6323
  16   2.0000      -8.079648      -219.8584
  17   2.0000      -8.079611      -219.8574
  18   2.0000      -6.038252      -164.3092
  19   2.0000      -6.038130      -164.3059
  20   2.0000      -6.034218      -164.1994
  21   2.0000      -6.034125      -164.1969
  22   2.0000      -6.030342      -164.0939
  23   2.0000      -6.030340      -164.0939
  24   2.0000      -1.010834       -27.5062
  25   2.0000      -0.983123       -26.7521
  26   2.0000      -0.920831       -25.0571
  27   2.0000      -0.911996       -24.8167
  28   2.0000      -0.872366       -23.7383
  29   2.0000      -0.848057       -23.0768
  30   2.0000      -0.844222       -22.9724
  31   2.0000      -0.810917       -22.0662
  32   2.0000      -0.787639       -21.4328
  33   2.0000      -0.779953       -21.2236
  34   2.0000      -0.711607       -19.3638
  35   2.0000      -0.702647       -19.1200
  36   2.0000      -0.691984       -18.8298
  37   2.0000      -0.660344       -17.9689
  38   2.0000      -0.637343       -17.3430
  39   2.0000      -0.615439       -16.7469
  40   2.0000      -0.601923       -16.3791
  41   2.0000      -0.570893       -15.5348
  42   2.0000      -0.558431       -15.1957
  43   2.0000      -0.550565       -14.9816
  44   2.0000      -0.543800       -14.7975
  45   2.0000      -0.535405       -14.5691
  46   2.0000      -0.527330       -14.3494
  47   2.0000      -0.517855       -14.0916
  48   2.0000      -0.504301       -13.7227
  49   2.0000      -0.495142       -13.4735
  50   2.0000      -0.484852       -13.1935
  51   2.0000      -0.478012       -13.0074
  52   2.0000      -0.472776       -12.8649
  53   2.0000      -0.465661       -12.6713
  54   2.0000      -0.453668       -12.3449
  55   2.0000      -0.447400       -12.1744
  56   2.0000      -0.445395       -12.1198
  57   2.0000      -0.439402       -11.9567
  58   2.0000      -0.432970       -11.7817
  59   2.0000      -0.423501       -11.5240
  60   2.0000      -0.414943       -11.2912
  61   2.0000      -0.409491       -11.1428
  62   2.0000      -0.406830       -11.0704
  63   2.0000      -0.350922        -9.5491
  64   2.0000      -0.331266        -9.0142
  65   2.0000      -0.326737        -8.8910
  66   2.0000      -0.292414        -7.9570
  67   0.0000       0.029724         0.8088
  68   0.0000       0.071411         1.9432
  69   0.0000       0.102146         2.7795
  70   0.0000       0.116215         3.1624
  71   0.0000       0.130426         3.5491

MULLIKEN ATOMIC CHARGES
-----------------------
   0 S :    0.098402
   1 C :   -0.144775
   2 C :   -0.081600
   3 C :    0.016482
   4 C :   -0.163329
   5 H :    0.003430
   6 C :    0.094282
   7 H :    0.024770
   8 H :    0.014979
   9 C :   -0.026184
  10 H :    0.019267
  11 H :    0.029537
  12 C :   -0.095905
  13 H :    0.057908
  14 H :    0.030879
  15 H :    0.026284
  16 S :    0.105532
  17 C :   -0.089232
  18 C :   -0.064843
  19 C :   -0.019376
  20 C :   -0.142474
  21 H :    0.031025
  22 C :    0.089614
  23 H :    0.042477
  24 H :   -0.002623
  25 C :   -0.066152
  26 H :    0.008039
  27 H :    0.013674
  28 C :   -0.030903
  29 H :    0.022533
  30 H :    0.033778
  31 H :    0.041722
  32 H :    0.059847
  33 H :    0.062936
Sum of atomic charges:   -0.0000000

LOEWDIN ATOMIC CHARGES
----------------------
   0 S :    0.387324
   1 C :   -0.180771
   2 C :   -0.060438
   3 C :   -0.062997
   4 C :   -0.188128
   5 H :    0.022145
   6 C :   -0.027585
   7 H :    0.032476
   8 H :    0.027748
   9 C :   -0.038595
  10 H :    0.022542
  11 H :    0.029004
  12 C :   -0.074315
  13 H :    0.029373
  14 H :    0.030091
  15 H :    0.025589
  16 S :    0.418533
  17 C :   -0.199768
  18 C :   -0.078531
  19 C :   -0.057654
  20 C :   -0.195542
  21 H :    0.037088
  22 C :   -0.034133
  23 H :    0.040306
  24 H :    0.015009
  25 C :   -0.040291
  26 H :    0.013591
  27 H :    0.026075
  28 C :   -0.064106
  29 H :    0.027752
  30 H :    0.027552
  31 H :    0.027345
  32 H :    0.027225
  33 H :    0.036085

  Mayer bond orders larger than 0.100000
B(  0-S ,  1-C ) :   1.1213 B(  0-S ,  4-C ) :   1.1306 B(  1-C ,  2-C ) :   1.6287
B(  1-C , 32-H ) :   0.9616 B(  2-C ,  3-C ) :   1.2028 B(  2-C ,  6-C ) :   1.0440
B(  3-C ,  4-C ) :   1.6131 B(  3-C ,  5-H ) :   0.9894 B(  4-C , 20-C ) :   1.0438
B(  6-C ,  7-H ) :   0.9375 B(  6-C ,  8-H ) :   0.9312 B(  6-C ,  9-C ) :   1.0645
B(  9-C , 10-H ) :   0.9624 B(  9-C , 11-H ) :   0.9523 B(  9-C , 12-C ) :   1.0697
B( 12-C , 13-H ) :   0.9677 B( 12-C , 14-H ) :   0.9765 B( 12-C , 15-H ) :   0.9763
B( 16-S , 17-C ) :   1.1661 B( 16-S , 20-C ) :   1.1328 B( 17-C , 18-C ) :   1.6099
B( 17-C , 33-H ) :   0.9623 B( 18-C , 19-C ) :   1.2414 B( 18-C , 21-H ) :   0.9872
B( 19-C , 20-C ) :   1.5762 B( 19-C , 22-C ) :   1.0451 B( 22-C , 23-H ) :   0.9355
B( 22-C , 24-H ) :   0.9187 B( 22-C , 25-C ) :   1.0796 B( 25-C , 26-H ) :   0.9554
B( 25-C , 27-H ) :   0.9494 B( 25-C , 28-C ) :   1.0684 B( 28-C , 29-H ) :   0.9718
B( 28-C , 30-H ) :   0.9755 B( 28-C , 31-H ) :   0.9747

Dispersion correction           -0.015497585
FINAL SINGLE POINT ENERGY     -1339.873021482667

DIPOLE MOMENT
-------------
                                X             Y             Z
Electronic contribution:      7.96578     -17.99326      14.97334
Nuclear contribution   :     -8.04585      18.29155     -15.58323
                        -----------------------------------------
Total Dipole Moment    :     -0.08007       0.29829      -0.60989
                        -----------------------------------------
Magnitude (a.u.)       :      0.68363
Magnitude (Debye)      :      1.73766

Rotational constants in cm-1:     0.020513     0.009225     0.008037
Rotational constants in MHz :   614.969729   276.563987   240.957475

                             ****ORCA TERMINATED NORMALLY****
TOTAL RUN TIME: 0 days 0 hours 0 minutes 24 seconds 953 msec
