                         Program Version 4.2.1 -  RELEASE  -
|  1> ! wB97X-D3 SP def2-SVP
|  2> %pal
|  3> nprocs 24
|  4> end
|  5>
|  6> * xyz 0 1
|  7> S 	 -53.5523 	 8.04065 	 -17.3559
|  8> C 	 -52.4073 	 6.67652 	 -17.3246
|  9> C 	 -51.2992 	 6.82204 	 -18.1345
| 10> C 	 -51.3851 	 8.00382 	 -18.9036
| 11> C 	 -52.5607 	 8.79052 	 -18.6565
| 12> H 	 -50.7529 	 8.35072 	 -19.6685
| 13> C 	 -50.1804 	 5.88357 	 -18.3089
| 14> H 	 -49.6542 	 5.83245 	 -17.3358
| 15> H 	 -49.431 	 6.36043 	 -18.9192
| 16> C 	 -50.5133 	 4.48735 	 -18.8735
| 17> H 	 -50.8944 	 3.80424 	 -18.1134
| 18> H 	 -51.3103 	 4.60789 	 -19.6513
| 19> C 	 -49.2907 	 3.86495 	 -19.5353
| 20> H 	 -48.797 	 4.60287 	 -20.2098
| 21> H 	 -48.6205 	 3.62135 	 -18.6273
| 22> H 	 -49.447 	 2.92828 	 -20.0831
| 23> S 	 -52.4591 	 10.0674 	 -21.1077
| 24> C 	 -53.1727 	 11.6149 	 -21.2703
| 25> C 	 -53.9289 	 11.9748 	 -20.1587
| 26> C 	 -53.6934 	 11.0831 	 -19.0703
| 27> C 	 -52.9381 	 9.98217 	 -19.4335
| 28> H 	 -54.5267 	 12.846 	 -20.2131
| 29> C 	 -54.4693 	 11.2649 	 -17.682
| 30> H 	 -54.4571 	 12.2563 	 -17.304
| 31> H 	 -54.0085 	 10.5829 	 -17.0196
| 32> C 	 -55.9792 	 10.8646 	 -17.7531
| 33> H 	 -56.1366 	 9.89545 	 -18.1657
| 34> H 	 -56.5927 	 11.5187 	 -18.3739
| 35> C 	 -56.6201 	 10.8576 	 -16.3375
| 36> H 	 -57.732 	 10.6176 	 -16.3879
| 37> H 	 -56.531 	 11.8196 	 -15.7669
| 38> H 	 -56.2241 	 10.0491 	 -15.829
| 39> H 	 -52.5547 	 5.78431 	 -16.7493
| 40> H 	 -53.027 	 12.3088 	 -22.145
| 41> *
| 42>
| 43>                          ****END OF INPUT****

CARTESIAN COORDINATES (ANGSTROEM)
---------------------------------
  S    -53.552300    8.040650  -17.355900
  C    -52.407300    6.676520  -17.324600
  C    -51.299200    6.822040  -18.134500
  C    -51.385100    8.003820  -18.903600
  C    -52.560700    8.790520  -18.656500
  H    -50.752900    8.350720  -19.668500
  C    -50.180400    5.883570  -18.308900
  H    -49.654200    5.832450  -17.335800
  H    -49.431000    6.360430  -18.919200
  C    -50.513300    4.487350  -18.873500
  H    -50.894400    3.804240  -18.113400
  H    -51.310300    4.607890  -19.651300
  C    -49.290700    3.864950  -19.535300
  H    -48.797000    4.602870  -20.209800
  H    -48.620500    3.621350  -18.627300
  H    -49.447000    2.928280  -20.083100
  S    -52.459100   10.067400  -21.107700
  C    -53.172700   11.614900  -21.270300
  C    -53.928900   11.974800  -20.158700
  C    -53.693400   11.083100  -19.070300
  C    -52.938100    9.982170  -19.433500
  H    -54.526700   12.846000  -20.213100
  C    -54.469300   11.264900  -17.682000
  H    -54.457100   12.256300  -17.304000
  H    -54.008500   10.582900  -17.019600
  C    -55.979200   10.864600  -17.753100
  H    -56.136600    9.895450  -18.165700
  H    -56.592700   11.518700  -18.373900
  C    -56.620100   10.857600  -16.337500
  H    -57.732000   10.617600  -16.387900
  H    -56.531000   11.819600  -15.766900
  H    -56.224100   10.049100  -15.829000
  H    -52.554700    5.784310  -16.749300
  H    -53.027000   12.308800  -22.145000

 Total Charge           Charge          ....    0
 Multiplicity           Mult            ....    1
 Number of Electrons    NEL             ....  134
 Basis Dimension        Dim             ....  322

ORBITAL ENERGIES
----------------

  NO   OCC          E(Eh)            E(eV)
   0   2.0000     -88.974966     -2421.1319
   1   2.0000     -88.968543     -2420.9571
   2   2.0000     -10.338302      -281.3195
   3   2.0000     -10.327300      -281.0201
   4   2.0000     -10.318258      -280.7741
   5   2.0000     -10.314276      -280.6657
   6   2.0000     -10.305658      -280.4312
   7   2.0000     -10.299378      -280.2603
   8   2.0000     -10.293993      -280.1138
   9   2.0000     -10.292422      -280.0710
  10   2.0000     -10.292024      -280.0602
  11   2.0000     -10.291515      -280.0464
  12   2.0000     -10.291460      -280.0449
  13   2.0000     -10.288443      -279.9628
  14   2.0000     -10.282966      -279.8137
  15   2.0000     -10.277289      -279.6593
  16   2.0000      -8.087345      -220.0678
  17   2.0000      -8.083829      -219.9722
  18   2.0000      -6.045951      -164.5187
  19   2.0000      -6.042270      -164.4185
  20   2.0000      -6.042234      -164.4176
  21   2.0000      -6.038351      -164.3119
  22   2.0000      -6.038128      -164.3058
  23   2.0000      -6.034544      -164.2083
  24   2.0000      -1.004881       -27.3442
  25   2.0000      -0.981021       -26.6949
  26   2.0000      -0.914879       -24.8951
  27   2.0000      -0.900635       -24.5075
  28   2.0000      -0.866657       -23.5829
  29   2.0000      -0.854502       -23.2522
  30   2.0000      -0.845768       -23.0145
  31   2.0000      -0.808333       -21.9959
  32   2.0000      -0.780104       -21.2277
  33   2.0000      -0.770233       -20.9591
  34   2.0000      -0.706685       -19.2299
  35   2.0000      -0.697745       -18.9866
  36   2.0000      -0.692742       -18.8505
  37   2.0000      -0.665500       -18.1092
  38   2.0000      -0.636465       -17.3191
  39   2.0000      -0.613923       -16.7057
  40   2.0000      -0.593713       -16.1558
  41   2.0000      -0.573087       -15.5945
  42   2.0000      -0.569641       -15.5007
  43   2.0000      -0.564440       -15.3592
  44   2.0000      -0.523457       -14.2440
  45   2.0000      -0.519711       -14.1421
  46   2.0000      -0.516239       -14.0476
  47   2.0000      -0.509651       -13.8683
  48   2.0000      -0.503932       -13.7127
  49   2.0000      -0.497137       -13.5278
  50   2.0000      -0.484244       -13.1769
  51   2.0000      -0.479836       -13.0570
  52   2.0000      -0.474648       -12.9158
  53   2.0000      -0.464017       -12.6265
  54   2.0000      -0.457821       -12.4580
  55   2.0000      -0.451138       -12.2761
  56   2.0000      -0.442619       -12.0443
  57   2.0000      -0.438974       -11.9451
  58   2.0000      -0.431311       -11.7366
  59   2.0000      -0.430213       -11.7067
  60   2.0000      -0.422726       -11.5030
  61   2.0000      -0.415419       -11.3041
  62   2.0000      -0.414728       -11.2853
  63   2.0000      -0.351048        -9.5525
  64   2.0000      -0.335589        -9.1318
  65   2.0000      -0.333470        -9.0742
  66   2.0000      -0.280418        -7.6306
  67   0.0000       0.018330         0.4988
  68   0.0000       0.077465         2.1079
  69   0.0000       0.098570         2.6822
  70   0.0000       0.112820         3.0700
  71   0.0000       0.132610         3.6085

MULLIKEN ATOMIC CHARGES
-----------------------
   0 S :    0.102228
   1 C :   -0.119729
   2 C :   -0.055759
   3 C :   -0.003748
   4 C :   -0.127953
   5 H :   -0.002930
   6 C :    0.078333
   7 H :    0.039232
   8 H :    0.005470
   9 C :   -0.070747
  10 H :    0.035933
  11 H :    0.041306
  12 C :   -0.090826
  13 H :    0.043084
  14 H :    0.037958
  15 H :    0.045910
  16 S :    0.115879
  17 C :   -0.122579
  18 C :   -0.018300
  19 C :   -0.054809
  20 C :   -0.132919
  21 H :    0.008396
  22 C :    0.095476
  23 H :    0.022710
  24 H :    0.008830
  25 C :   -0.069598
  26 H :    0.021344
  27 H :    0.024113
  28 C :   -0.066956
  29 H :    0.037278
  30 H :    0.041924
  31 H :    0.018415
  32 H :    0.035963
  33 H :    0.077072
Sum of atomic charges:    0.0000000

LOEWDIN ATOMIC CHARGES
----------------------
   0 S :    0.390654
   1 C :   -0.185535
   2 C :   -0.061832
   3 C :   -0.059375
   4 C :   -0.169977
   5 H :    0.017038
   6 C :   -0.035574
   7 H :    0.040224
   8 H :    0.028159
   9 C :   -0.042941
  10 H :    0.024134
  11 H :    0.028094
  12 C :   -0.073543
  13 H :    0.027071
  14 H :    0.034097
  15 H :    0.026467
  16 S :    0.429062
  17 C :   -0.205740
  18 C :   -0.066937
  19 C :   -0.055519
  20 C :   -0.202676
  21 H :    0.026543
  22 C :   -0.017448
  23 H :    0.026554
  24 H :    0.008500
  25 C :   -0.037008
  26 H :    0.017717
  27 H :    0.019649
  28 C :   -0.067499
  29 H :    0.033687
  30 H :    0.028254
  31 H :    0.011713
  32 H :    0.022621
  33 H :    0.041366

  Mayer bond orders larger than 0.100000
B(  0-S ,  1-C ) :   1.1299 B(  0-S ,  4-C ) :   1.1360 B(  1-C ,  2-C ) :   1.6038
B(  1-C , 32-H ) :   0.9686 B(  2-C ,  3-C ) :   1.2460 B(  2-C ,  6-C ) :   1.0361
B(  3-C ,  4-C ) :   1.5435 B(  3-C ,  5-H ) :   0.9946 B(  4-C , 20-C ) :   1.0777
B(  6-C ,  7-H ) :   0.9184 B(  6-C ,  8-H ) :   0.9417 B(  6-C ,  9-C ) :   1.0465
B(  9-C , 10-H ) :   0.9524 B(  9-C , 11-H ) :   0.9619 B(  9-C , 12-C ) :   1.0808
B( 12-C , 13-H ) :   0.9763 B( 12-C , 14-H ) :   0.9744 B( 12-C , 15-H ) :   0.9749
B( 16-S , 17-C ) :   1.1653 B( 16-S , 20-C ) :   1.1407 B( 17-C , 18-C ) :   1.5968
B( 17-C , 33-H ) :   0.9595 B( 18-C , 19-C ) :   1.2427 B( 18-C , 21-H ) :   0.9988
B( 19-C , 20-C ) :   1.5727 B( 19-C , 22-C ) :   1.0389 B( 22-C , 23-H ) :   0.9389
B( 22-C , 24-H ) :   0.9336 B( 22-C , 25-C ) :   1.0588 B( 25-C , 26-H ) :   0.9552
B( 25-C , 27-H ) :   0.9586 B( 25-C , 28-C ) :   1.0796 B( 28-C , 29-H ) :   0.9731
B( 28-C , 30-H ) :   0.9755 B( 28-C , 31-H ) :   0.9771

Dispersion correction           -0.013873552
FINAL SINGLE POINT ENERGY     -1339.874690266307

DIPOLE MOMENT
-------------
                                X             Y             Z
Electronic contribution:      0.04725       9.38863      -7.30520
Nuclear contribution   :      0.02442      -9.51654       7.28866
                        -----------------------------------------
Total Dipole Moment    :      0.07167      -0.12791      -0.01654
                        -----------------------------------------
Magnitude (a.u.)       :      0.14755
Magnitude (Debye)      :      0.37504

Rotational constants in cm-1:     0.021806     0.007729     0.005911
Rotational constants in MHz :   653.718192   231.701454   177.221644

                             ****ORCA TERMINATED NORMALLY****
TOTAL RUN TIME: 0 days 0 hours 0 minutes 20 seconds 828 msec
