                         Program Version 4.2.1 -  RELEASE  -
|  1> ! wB97X-D3 SP def2-SVP
|  2> %pal
|  3> nprocs 24
|  4> end
|  5>
|  6> * xyz 0 1
|  7> S 	 -116.057 	 34.3209 	 -14.0391
|  8> C 	 -115.106 	 32.8838 	 -13.767
|  9> C 	 -115.871 	 31.8253 	 -13.4569
| 10> C 	 -117.233 	 32.2001 	 -13.3741
| 11> C 	 -117.505 	 33.4717 	 -13.7248
| 12> H 	 -118.017 	 31.5183 	 -13.1044
| 13> C 	 -115.448 	 30.3688 	 -13.3573
| 14> H 	 -114.362 	 30.3887 	 -13.3844
| 15> H 	 -115.658 	 29.7305 	 -14.2332
| 16> C 	 -115.936 	 29.6496 	 -12.126
| 17> H 	 -115.41 	 30.0982 	 -11.2324
| 18> H 	 -117.002 	 29.8311 	 -11.995
| 19> C 	 -115.769 	 28.1284 	 -12.0552
| 20> H 	 -114.724 	 27.7747 	 -12.1551
| 21> H 	 -116.219 	 27.8854 	 -11.1211
| 22> H 	 -116.476 	 27.704 	 -12.803
| 23> S 	 -119.241 	 35.3557 	 -12.4653
| 24> C 	 -120.716 	 35.7218 	 -13.2211
| 25> C 	 -120.979 	 34.8729 	 -14.2798
| 26> C 	 -119.875 	 33.9844 	 -14.5717
| 27> C 	 -118.836 	 34.1101 	 -13.6474
| 28> H 	 -122.014 	 34.947 	 -14.644
| 29> C 	 -119.844 	 32.9713 	 -15.715
| 30> H 	 -120.845 	 32.582 	 -15.9806
| 31> H 	 -119.469 	 32.1062 	 -15.2256
| 32> C 	 -119.2 	 33.4255 	 -17.0425
| 33> H 	 -119.144 	 32.5927 	 -17.7208
| 34> H 	 -118.198 	 33.9303 	 -16.8798
| 35> C 	 -119.962 	 34.5901 	 -17.7892
| 36> H 	 -120.979 	 34.3848 	 -18.1169
| 37> H 	 -119.505 	 34.8459 	 -18.7904
| 38> H 	 -120.02 	 35.3984 	 -17.0559
| 39> H 	 -114.072 	 32.7515 	 -14.0284
| 40> H 	 -121.431 	 36.4803 	 -12.8736
| 41> *
| 42>
| 43>                          ****END OF INPUT****

CARTESIAN COORDINATES (ANGSTROEM)
---------------------------------
  S    -116.057000   34.320900  -14.039100
  C    -115.106000   32.883800  -13.767000
  C    -115.871000   31.825300  -13.456900
  C    -117.233000   32.200100  -13.374100
  C    -117.505000   33.471700  -13.724800
  H    -118.017000   31.518300  -13.104400
  C    -115.448000   30.368800  -13.357300
  H    -114.362000   30.388700  -13.384400
  H    -115.658000   29.730500  -14.233200
  C    -115.936000   29.649600  -12.126000
  H    -115.410000   30.098200  -11.232400
  H    -117.002000   29.831100  -11.995000
  C    -115.769000   28.128400  -12.055200
  H    -114.724000   27.774700  -12.155100
  H    -116.219000   27.885400  -11.121100
  H    -116.476000   27.704000  -12.803000
  S    -119.241000   35.355700  -12.465300
  C    -120.716000   35.721800  -13.221100
  C    -120.979000   34.872900  -14.279800
  C    -119.875000   33.984400  -14.571700
  C    -118.836000   34.110100  -13.647400
  H    -122.014000   34.947000  -14.644000
  C    -119.844000   32.971300  -15.715000
  H    -120.845000   32.582000  -15.980600
  H    -119.469000   32.106200  -15.225600
  C    -119.200000   33.425500  -17.042500
  H    -119.144000   32.592700  -17.720800
  H    -118.198000   33.930300  -16.879800
  C    -119.962000   34.590100  -17.789200
  H    -120.979000   34.384800  -18.116900
  H    -119.505000   34.845900  -18.790400
  H    -120.020000   35.398400  -17.055900
  H    -114.072000   32.751500  -14.028400
  H    -121.431000   36.480300  -12.873600

 Total Charge           Charge          ....    0
 Multiplicity           Mult            ....    1
 Number of Electrons    NEL             ....  134
 Basis Dimension        Dim             ....  322

ORBITAL ENERGIES
----------------

  NO   OCC          E(Eh)            E(eV)
   0   2.0000     -88.966146     -2420.8919
   1   2.0000     -88.966067     -2420.8897
   2   2.0000     -10.327203      -281.0175
   3   2.0000     -10.323397      -280.9139
   4   2.0000     -10.315447      -280.6976
   5   2.0000     -10.309221      -280.5282
   6   2.0000     -10.307966      -280.4940
   7   2.0000     -10.294929      -280.1393
   8   2.0000     -10.294618      -280.1308
   9   2.0000     -10.291816      -280.0546
  10   2.0000     -10.290595      -280.0213
  11   2.0000     -10.290154      -280.0093
  12   2.0000     -10.287364      -279.9334
  13   2.0000     -10.284913      -279.8667
  14   2.0000     -10.281974      -279.7867
  15   2.0000     -10.277923      -279.6765
  16   2.0000      -8.081711      -219.9145
  17   2.0000      -8.081418      -219.9066
  18   2.0000      -6.040219      -164.3627
  19   2.0000      -6.039797      -164.3512
  20   2.0000      -6.036115      -164.2510
  21   2.0000      -6.035731      -164.2406
  22   2.0000      -6.032390      -164.1497
  23   2.0000      -6.032381      -164.1494
  24   2.0000      -1.014773       -27.6134
  25   2.0000      -0.991325       -26.9753
  26   2.0000      -0.915676       -24.9168
  27   2.0000      -0.902061       -24.5463
  28   2.0000      -0.872031       -23.7292
  29   2.0000      -0.850880       -23.1536
  30   2.0000      -0.841200       -22.8902
  31   2.0000      -0.817873       -22.2555
  32   2.0000      -0.787269       -21.4227
  33   2.0000      -0.775085       -21.0911
  34   2.0000      -0.708258       -19.2727
  35   2.0000      -0.691224       -18.8092
  36   2.0000      -0.686267       -18.6743
  37   2.0000      -0.652565       -17.7572
  38   2.0000      -0.644691       -17.5429
  39   2.0000      -0.627648       -17.0792
  40   2.0000      -0.593879       -16.1603
  41   2.0000      -0.575487       -15.6598
  42   2.0000      -0.565463       -15.3870
  43   2.0000      -0.549320       -14.9478
  44   2.0000      -0.542361       -14.7584
  45   2.0000      -0.527954       -14.3664
  46   2.0000      -0.516416       -14.0524
  47   2.0000      -0.506599       -13.7853
  48   2.0000      -0.503421       -13.6988
  49   2.0000      -0.498013       -13.5516
  50   2.0000      -0.489865       -13.3299
  51   2.0000      -0.473555       -12.8861
  52   2.0000      -0.470219       -12.7953
  53   2.0000      -0.468494       -12.7484
  54   2.0000      -0.460528       -12.5316
  55   2.0000      -0.452004       -12.2996
  56   2.0000      -0.447901       -12.1880
  57   2.0000      -0.433714       -11.8019
  58   2.0000      -0.428872       -11.6702
  59   2.0000      -0.423100       -11.5131
  60   2.0000      -0.417940       -11.3727
  61   2.0000      -0.414437       -11.2774
  62   2.0000      -0.401795       -10.9334
  63   2.0000      -0.338452        -9.2098
  64   2.0000      -0.335222        -9.1219
  65   2.0000      -0.327389        -8.9087
  66   2.0000      -0.308274        -8.3886
  67   0.0000       0.043163         1.1745
  68   0.0000       0.063444         1.7264
  69   0.0000       0.120234         3.2717
  70   0.0000       0.121545         3.3074
  71   0.0000       0.136911         3.7255

MULLIKEN ATOMIC CHARGES
-----------------------
   0 S :    0.124400
   1 C :   -0.124323
   2 C :   -0.059338
   3 C :    0.026707
   4 C :   -0.153797
   5 H :    0.006866
   6 C :    0.103665
   7 H :    0.000825
   8 H :    0.033887
   9 C :   -0.144783
  10 H :    0.036072
  11 H :    0.027386
  12 C :   -0.023395
  13 H :    0.048051
  14 H :    0.027708
  15 H :    0.030408
  16 S :    0.125049
  17 C :   -0.117223
  18 C :   -0.043989
  19 C :   -0.060131
  20 C :   -0.174816
  21 H :    0.030212
  22 C :    0.120632
  23 H :    0.014002
  24 H :    0.007391
  25 C :   -0.061466
  26 H :    0.031526
  27 H :    0.046706
  28 C :   -0.087434
  29 H :    0.015528
  30 H :    0.043373
  31 H :    0.044420
  32 H :    0.038395
  33 H :    0.067486
Sum of atomic charges:    0.0000000

LOEWDIN ATOMIC CHARGES
----------------------
   0 S :    0.426028
   1 C :   -0.190559
   2 C :   -0.065872
   3 C :   -0.058508
   4 C :   -0.205913
   5 H :    0.026211
   6 C :   -0.035928
   7 H :    0.026058
   8 H :    0.033371
   9 C :   -0.048461
  10 H :    0.029277
  11 H :    0.021274
  12 C :   -0.063282
  13 H :    0.028769
  14 H :    0.025956
  15 H :    0.028376
  16 S :    0.423710
  17 C :   -0.204048
  18 C :   -0.085775
  19 C :   -0.049968
  20 C :   -0.204937
  21 H :    0.037954
  22 C :   -0.035970
  23 H :    0.032949
  24 H :    0.027273
  25 C :   -0.035225
  26 H :    0.020626
  27 H :    0.033147
  28 C :   -0.075433
  29 H :    0.015529
  30 H :    0.033494
  31 H :    0.026025
  32 H :    0.027521
  33 H :    0.036333

  Mayer bond orders larger than 0.100000
B(  0-S ,  1-C ) :   1.1366 B(  0-S ,  4-C ) :   1.1487 B(  1-C ,  2-C ) :   1.6492
B(  1-C , 32-H ) :   0.9594 B(  2-C ,  3-C ) :   1.2317 B(  2-C ,  6-C ) :   1.0196
B(  3-C ,  4-C ) :   1.6155 B(  3-C ,  5-H ) :   0.9885 B(  4-C , 20-C ) :   1.0064
B(  6-C ,  7-H ) :   0.9283 B(  6-C ,  8-H ) :   0.9402 B(  6-C ,  9-C ) :   1.0574
B(  9-C , 10-H ) :   0.9532 B(  9-C , 11-H ) :   0.9590 B(  9-C , 12-C ) :   1.0891
B( 12-C , 13-H ) :   0.9752 B( 12-C , 14-H ) :   0.9714 B( 12-C , 15-H ) :   0.9709
B( 16-S , 17-C ) :   1.1795 B( 16-S , 20-C ) :   1.1462 B( 17-C , 18-C ) :   1.6054
B( 17-C , 33-H ) :   0.9609 B( 18-C , 19-C ) :   1.2338 B( 18-C , 21-H ) :   0.9903
B( 19-C , 20-C ) :   1.6009 B( 19-C , 22-C ) :   1.0271 B( 22-C , 23-H ) :   0.9355
B( 22-C , 24-H ) :   0.9269 B( 22-C , 25-C ) :   1.0584 B( 25-C , 26-H ) :   0.9578
B( 25-C , 27-H ) :   0.9594 B( 25-C , 28-C ) :   1.0643 B( 28-C , 29-H ) :   0.9753
B( 28-C , 30-H ) :   0.9751 B( 28-C , 31-H ) :   0.9773

Dispersion correction           -0.014422584
FINAL SINGLE POINT ENERGY     -1339.879458177725

DIPOLE MOMENT
-------------
                                X             Y             Z
Electronic contribution:      0.71838      20.96960       9.51956
Nuclear contribution   :     -0.91078     -21.54547      -9.68184
                        -----------------------------------------
Total Dipole Moment    :     -0.19240      -0.57587      -0.16228
                        -----------------------------------------
Magnitude (a.u.)       :      0.62847
Magnitude (Debye)      :      1.59744

Rotational constants in cm-1:     0.019722     0.007722     0.007167
Rotational constants in MHz :   591.236626   231.510742   214.858122

                             ****ORCA TERMINATED NORMALLY****
TOTAL RUN TIME: 0 days 0 hours 0 minutes 21 seconds 594 msec
