                         Program Version 4.2.1 -  RELEASE  -
|  1> ! wB97X-D3 SP def2-SVP
|  2> %pal
|  3> nprocs 24
|  4> end
|  5>
|  6> * xyz 0 1
|  7> S 	 -77.6498 	 -2.14921 	 -57.8871
|  8> C 	 -79.0537 	 -1.21324 	 -58.2414
|  9> C 	 -80.1721 	 -1.9275 	 -58.58
| 10> C 	 -79.9 	 -3.34739 	 -58.6462
| 11> C 	 -78.57 	 -3.61141 	 -58.2641
| 12> H 	 -80.5014 	 -4.18189 	 -58.8777
| 13> C 	 -81.6147 	 -1.42103 	 -58.528
| 14> H 	 -81.8116 	 -0.597309 	 -59.3014
| 15> H 	 -81.6791 	 -0.94106 	 -57.5032
| 16> C 	 -82.8231 	 -2.38929 	 -58.5391
| 17> H 	 -82.9134 	 -2.92078 	 -59.4675
| 18> H 	 -82.7324 	 -3.08448 	 -57.7592
| 19> C 	 -84.2069 	 -1.58133 	 -58.3068
| 20> H 	 -84.9291 	 -2.1579 	 -58.9606
| 21> H 	 -84.5202 	 -1.68901 	 -57.2974
| 22> H 	 -84.0652 	 -0.562538 	 -58.5226
| 23> S 	 -76.5661 	 -5.46471 	 -58.6915
| 24> C 	 -76.426 	 -6.72236 	 -57.4405
| 25> C 	 -77.6736 	 -6.97918 	 -56.9924
| 26> C 	 -78.5879 	 -5.93976 	 -57.2204
| 27> C 	 -78.0187 	 -4.91912 	 -57.9611
| 28> H 	 -77.8242 	 -7.78912 	 -56.3251
| 29> C 	 -79.9191 	 -5.94988 	 -56.5777
| 30> H 	 -80.5071 	 -6.7531 	 -57.0432
| 31> H 	 -80.3477 	 -5.0186 	 -56.8551
| 32> C 	 -79.9947 	 -6.08638 	 -55.0635
| 33> H 	 -79.7334 	 -7.08588 	 -54.6708
| 34> H 	 -81.1049 	 -6.06348 	 -54.8281
| 35> C 	 -79.2476 	 -4.96529 	 -54.3208
| 36> H 	 -79.8923 	 -4.26244 	 -53.8881
| 37> H 	 -78.4885 	 -4.50294 	 -54.9496
| 38> H 	 -78.6372 	 -5.35591 	 -53.4523
| 39> H 	 -79.0708 	 -0.106796 	 -57.8795
| 40> H 	 -75.5168 	 -7.30501 	 -57.2784
| 41> *
| 42>
| 43>                          ****END OF INPUT****

CARTESIAN COORDINATES (ANGSTROEM)
---------------------------------
  S    -77.649800   -2.149210  -57.887100
  C    -79.053700   -1.213240  -58.241400
  C    -80.172100   -1.927500  -58.580000
  C    -79.900000   -3.347390  -58.646200
  C    -78.570000   -3.611410  -58.264100
  H    -80.501400   -4.181890  -58.877700
  C    -81.614700   -1.421030  -58.528000
  H    -81.811600   -0.597309  -59.301400
  H    -81.679100   -0.941060  -57.503200
  C    -82.823100   -2.389290  -58.539100
  H    -82.913400   -2.920780  -59.467500
  H    -82.732400   -3.084480  -57.759200
  C    -84.206900   -1.581330  -58.306800
  H    -84.929100   -2.157900  -58.960600
  H    -84.520200   -1.689010  -57.297400
  H    -84.065200   -0.562538  -58.522600
  S    -76.566100   -5.464710  -58.691500
  C    -76.426000   -6.722360  -57.440500
  C    -77.673600   -6.979180  -56.992400
  C    -78.587900   -5.939760  -57.220400
  C    -78.018700   -4.919120  -57.961100
  H    -77.824200   -7.789120  -56.325100
  C    -79.919100   -5.949880  -56.577700
  H    -80.507100   -6.753100  -57.043200
  H    -80.347700   -5.018600  -56.855100
  C    -79.994700   -6.086380  -55.063500
  H    -79.733400   -7.085880  -54.670800
  H    -81.104900   -6.063480  -54.828100
  C    -79.247600   -4.965290  -54.320800
  H    -79.892300   -4.262440  -53.888100
  H    -78.488500   -4.502940  -54.949600
  H    -78.637200   -5.355910  -53.452300
  H    -79.070800   -0.106796  -57.879500
  H    -75.516800   -7.305010  -57.278400

 Total Charge           Charge          ....    0
 Multiplicity           Mult            ....    1
 Number of Electrons    NEL             ....  134
 Basis Dimension        Dim             ....  322

ORBITAL ENERGIES
----------------

  NO   OCC          E(Eh)            E(eV)
   0   2.0000     -88.969469     -2420.9823
   1   2.0000     -88.956401     -2420.6267
   2   2.0000     -10.329017      -281.0668
   3   2.0000     -10.318442      -280.7791
   4   2.0000     -10.317651      -280.7575
   5   2.0000     -10.313921      -280.6560
   6   2.0000     -10.306586      -280.4565
   7   2.0000     -10.305023      -280.4139
   8   2.0000     -10.297830      -280.2182
   9   2.0000     -10.292797      -280.0813
  10   2.0000     -10.290092      -280.0076
  11   2.0000     -10.289105      -279.9808
  12   2.0000     -10.283983      -279.8414
  13   2.0000     -10.283611      -279.8313
  14   2.0000     -10.283118      -279.8179
  15   2.0000     -10.271373      -279.4983
  16   2.0000      -8.084236      -219.9833
  17   2.0000      -8.072077      -219.6524
  18   2.0000      -6.042605      -164.4276
  19   2.0000      -6.038830      -164.3249
  20   2.0000      -6.035044      -164.2219
  21   2.0000      -6.030467      -164.0974
  22   2.0000      -6.026904      -164.0004
  23   2.0000      -6.022449      -163.8792
  24   2.0000      -1.011012       -27.5110
  25   2.0000      -0.986988       -26.8573
  26   2.0000      -0.910937       -24.7879
  27   2.0000      -0.904815       -24.6213
  28   2.0000      -0.871272       -23.7085
  29   2.0000      -0.850846       -23.1527
  30   2.0000      -0.843118       -22.9424
  31   2.0000      -0.813153       -22.1270
  32   2.0000      -0.781020       -21.2526
  33   2.0000      -0.770077       -20.9549
  34   2.0000      -0.713726       -19.4215
  35   2.0000      -0.698555       -19.0087
  36   2.0000      -0.688842       -18.7443
  37   2.0000      -0.658616       -17.9219
  38   2.0000      -0.641527       -17.4568
  39   2.0000      -0.616853       -16.7854
  40   2.0000      -0.594899       -16.1880
  41   2.0000      -0.571321       -15.5464
  42   2.0000      -0.563519       -15.3341
  43   2.0000      -0.558199       -15.1894
  44   2.0000      -0.538965       -14.6660
  45   2.0000      -0.524747       -14.2791
  46   2.0000      -0.516943       -14.0667
  47   2.0000      -0.512532       -13.9467
  48   2.0000      -0.503349       -13.6968
  49   2.0000      -0.490360       -13.3434
  50   2.0000      -0.486624       -13.2417
  51   2.0000      -0.483346       -13.1525
  52   2.0000      -0.465551       -12.6683
  53   2.0000      -0.462246       -12.5783
  54   2.0000      -0.459404       -12.5010
  55   2.0000      -0.450758       -12.2657
  56   2.0000      -0.443581       -12.0704
  57   2.0000      -0.439050       -11.9472
  58   2.0000      -0.433657       -11.8004
  59   2.0000      -0.426512       -11.6060
  60   2.0000      -0.423021       -11.5110
  61   2.0000      -0.417310       -11.3556
  62   2.0000      -0.406379       -11.0581
  63   2.0000      -0.342423        -9.3178
  64   2.0000      -0.330837        -9.0025
  65   2.0000      -0.324948        -8.8423
  66   2.0000      -0.288806        -7.8588
  67   0.0000       0.024355         0.6627
  68   0.0000       0.067025         1.8239
  69   0.0000       0.103186         2.8078
  70   0.0000       0.113037         3.0759
  71   0.0000       0.133635         3.6364

MULLIKEN ATOMIC CHARGES
-----------------------
   0 S :    0.129712
   1 C :   -0.156226
   2 C :   -0.034328
   3 C :    0.036157
   4 C :   -0.177995
   5 H :    0.011558
   6 C :   -0.040207
   7 H :    0.053503
   8 H :    0.046927
   9 C :   -0.065175
  10 H :    0.034340
  11 H :    0.019053
  12 C :   -0.042468
  13 H :    0.044866
  14 H :    0.032098
  15 H :    0.032507
  16 S :    0.091578
  17 C :   -0.109567
  18 C :    0.002746
  19 C :   -0.051311
  20 C :   -0.164273
  21 H :    0.005145
  22 C :    0.096481
  23 H :    0.035314
  24 H :    0.001173
  25 C :   -0.089078
  26 H :    0.026885
  27 H :    0.030314
  28 C :   -0.040293
  29 H :    0.026127
  30 H :    0.042962
  31 H :    0.029037
  32 H :    0.081718
  33 H :    0.060722
Sum of atomic charges:   -0.0000000

LOEWDIN ATOMIC CHARGES
----------------------
   0 S :    0.418223
   1 C :   -0.220246
   2 C :   -0.069690
   3 C :   -0.051263
   4 C :   -0.188070
   5 H :    0.027189
   6 C :   -0.045913
   7 H :    0.037747
   8 H :    0.041251
   9 C :   -0.034743
  10 H :    0.018059
  11 H :    0.014531
  12 C :   -0.052781
  13 H :    0.038020
  14 H :    0.021006
  15 H :    0.017455
  16 S :    0.387518
  17 C :   -0.164575
  18 C :   -0.064156
  19 C :   -0.062854
  20 C :   -0.212930
  21 H :    0.025927
  22 C :   -0.035770
  23 H :    0.038371
  24 H :    0.023409
  25 C :   -0.046150
  26 H :    0.019938
  27 H :    0.031066
  28 C :   -0.068084
  29 H :    0.018827
  30 H :    0.028717
  31 H :    0.034024
  32 H :    0.045704
  33 H :    0.030244

  Mayer bond orders larger than 0.100000
B(  0-S ,  1-C ) :   1.1448 B(  0-S ,  4-C ) :   1.1597 B(  1-C ,  2-C ) :   1.6376
B(  1-C , 32-H ) :   0.9533 B(  2-C ,  3-C ) :   1.2240 B(  2-C ,  6-C ) :   0.9988
B(  3-C ,  4-C ) :   1.5596 B(  3-C ,  5-H ) :   0.9964 B(  4-C , 20-C ) :   1.0489
B(  6-C ,  7-H ) :   0.9386 B(  6-C ,  8-H ) :   0.9494 B(  6-C ,  9-C ) :   1.0899
B(  9-C , 10-H ) :   0.9610 B(  9-C , 11-H ) :   0.9530 B(  9-C , 12-C ) :   1.0596
B( 12-C , 13-H ) :   0.9795 B( 12-C , 14-H ) :   0.9805 B( 12-C , 15-H ) :   0.9816
B( 16-S , 17-C ) :   1.1283 B( 16-S , 20-C ) :   1.1513 B( 17-C , 18-C ) :   1.6146
B( 17-C , 33-H ) :   0.9745 B( 18-C , 19-C ) :   1.2183 B( 18-C , 21-H ) :   0.9985
B( 19-C , 20-C ) :   1.5700 B( 19-C , 22-C ) :   1.0594 B( 22-C , 23-H ) :   0.9206
B( 22-C , 24-H ) :   0.9208 B( 22-C , 25-C ) :   1.0858 B( 25-C , 26-H ) :   0.9595
B( 25-C , 27-H ) :   0.9571 B( 25-C , 28-C ) :   1.0501 B( 28-C , 29-H ) :   0.9776
B( 28-C , 30-H ) :   0.9802 B( 28-C , 31-H ) :   0.9758

Dispersion correction           -0.015028509
FINAL SINGLE POINT ENERGY     -1339.848051144219

DIPOLE MOMENT
-------------
                                X             Y             Z
Electronic contribution:     27.40755      -1.54890     -11.54247
Nuclear contribution   :    -28.11629       1.41872      12.01661
                        -----------------------------------------
Total Dipole Moment    :     -0.70874      -0.13018       0.47414
                        -----------------------------------------
Magnitude (a.u.)       :      0.86260
Magnitude (Debye)      :      2.19255

Rotational constants in cm-1:     0.019272     0.008982     0.007275
Rotational constants in MHz :   577.757871   269.273052   218.113740

                             ****ORCA TERMINATED NORMALLY****
TOTAL RUN TIME: 0 days 0 hours 0 minutes 22 seconds 510 msec
