                         Program Version 4.2.1 -  RELEASE  -
|  1> ! wB97X-D3 SP def2-SVP
|  2> %pal
|  3> nprocs 24
|  4> end
|  5>
|  6> * xyz 0 1
|  7> S 	 -116.847 	 60.1074 	 -40.0122
|  8> C 	 -116.055 	 58.5066 	 -39.8645
|  9> C 	 -116.81 	 57.5082 	 -39.3321
| 10> C 	 -118.13 	 58.0602 	 -38.8966
| 11> C 	 -118.253 	 59.4559 	 -39.0815
| 12> H 	 -118.919 	 57.547 	 -38.5416
| 13> C 	 -116.461 	 56.0236 	 -39.1666
| 14> H 	 -115.435 	 55.9083 	 -39.2995
| 15> H 	 -117.042 	 55.4144 	 -39.8606
| 16> C 	 -116.743 	 55.6738 	 -37.7144
| 17> H 	 -116.41 	 56.4258 	 -37.0761
| 18> H 	 -117.85 	 55.6872 	 -37.5125
| 19> C 	 -116.137 	 54.3044 	 -37.3671
| 20> H 	 -116.644 	 53.5146 	 -37.8815
| 21> H 	 -115.036 	 54.3092 	 -37.4772
| 22> H 	 -116.424 	 54.0282 	 -36.3786
| 23> S 	 -119.14 	 61.4938 	 -37.4934
| 24> C 	 -120.719 	 62.134 	 -37.7556
| 25> C 	 -121.518 	 61.2224 	 -38.4423
| 26> C 	 -120.719 	 60.257 	 -39.059
| 27> C 	 -119.377 	 60.2481 	 -38.7015
| 28> H 	 -122.613 	 61.4294 	 -38.5013
| 29> C 	 -121.308 	 59.1225 	 -39.9397
| 30> H 	 -120.471 	 58.5777 	 -40.3417
| 31> H 	 -121.89 	 59.6479 	 -40.7453
| 32> C 	 -122.187 	 58 	 -39.3121
| 33> H 	 -123.124 	 58.5435 	 -39.0271
| 34> H 	 -121.713 	 57.6311 	 -38.3829
| 35> C 	 -122.36 	 56.7171 	 -40.2394
| 36> H 	 -122.453 	 57.0532 	 -41.2495
| 37> H 	 -123.363 	 56.283 	 -39.9473
| 38> H 	 -121.643 	 55.921 	 -40.0737
| 39> H 	 -115.057 	 58.2568 	 -40.1986
| 40> H 	 -121.074 	 62.9431 	 -37.1688
| 41> *
| 42>
| 43>                          ****END OF INPUT****

CARTESIAN COORDINATES (ANGSTROEM)
---------------------------------
  S    -116.847000   60.107400  -40.012200
  C    -116.055000   58.506600  -39.864500
  C    -116.810000   57.508200  -39.332100
  C    -118.130000   58.060200  -38.896600
  C    -118.253000   59.455900  -39.081500
  H    -118.919000   57.547000  -38.541600
  C    -116.461000   56.023600  -39.166600
  H    -115.435000   55.908300  -39.299500
  H    -117.042000   55.414400  -39.860600
  C    -116.743000   55.673800  -37.714400
  H    -116.410000   56.425800  -37.076100
  H    -117.850000   55.687200  -37.512500
  C    -116.137000   54.304400  -37.367100
  H    -116.644000   53.514600  -37.881500
  H    -115.036000   54.309200  -37.477200
  H    -116.424000   54.028200  -36.378600
  S    -119.140000   61.493800  -37.493400
  C    -120.719000   62.134000  -37.755600
  C    -121.518000   61.222400  -38.442300
  C    -120.719000   60.257000  -39.059000
  C    -119.377000   60.248100  -38.701500
  H    -122.613000   61.429400  -38.501300
  C    -121.308000   59.122500  -39.939700
  H    -120.471000   58.577700  -40.341700
  H    -121.890000   59.647900  -40.745300
  C    -122.187000   58.000000  -39.312100
  H    -123.124000   58.543500  -39.027100
  H    -121.713000   57.631100  -38.382900
  C    -122.360000   56.717100  -40.239400
  H    -122.453000   57.053200  -41.249500
  H    -123.363000   56.283000  -39.947300
  H    -121.643000   55.921000  -40.073700
  H    -115.057000   58.256800  -40.198600
  H    -121.074000   62.943100  -37.168800

 Total Charge           Charge          ....    0
 Multiplicity           Mult            ....    1
 Number of Electrons    NEL             ....  134
 Basis Dimension        Dim             ....  322

ORBITAL ENERGIES
----------------

  NO   OCC          E(Eh)            E(eV)
   0   2.0000     -88.966695     -2420.9068
   1   2.0000     -88.961797     -2420.7736
   2   2.0000     -10.333710      -281.1945
   3   2.0000     -10.321160      -280.8530
   4   2.0000     -10.314705      -280.6774
   5   2.0000     -10.314235      -280.6646
   6   2.0000     -10.305183      -280.4183
   7   2.0000     -10.302994      -280.3587
   8   2.0000     -10.296579      -280.1842
   9   2.0000     -10.296526      -280.1827
  10   2.0000     -10.295259      -280.1482
  11   2.0000     -10.292070      -280.0615
  12   2.0000     -10.289271      -279.9853
  13   2.0000     -10.286431      -279.9080
  14   2.0000     -10.284078      -279.8440
  15   2.0000     -10.276858      -279.6475
  16   2.0000      -8.079803      -219.8626
  17   2.0000      -8.077381      -219.7967
  18   2.0000      -6.038559      -164.3176
  19   2.0000      -6.035654      -164.2385
  20   2.0000      -6.034821      -164.2158
  21   2.0000      -6.031782      -164.1331
  22   2.0000      -6.030101      -164.0874
  23   2.0000      -6.028312      -164.0387
  24   2.0000      -1.005383       -27.3579
  25   2.0000      -0.974987       -26.5307
  26   2.0000      -0.917077       -24.9549
  27   2.0000      -0.897244       -24.4152
  28   2.0000      -0.871976       -23.7277
  29   2.0000      -0.846801       -23.0426
  30   2.0000      -0.841407       -22.8959
  31   2.0000      -0.812192       -22.1009
  32   2.0000      -0.783363       -21.3164
  33   2.0000      -0.771996       -21.0071
  34   2.0000      -0.713731       -19.4216
  35   2.0000      -0.696893       -18.9634
  36   2.0000      -0.692644       -18.8478
  37   2.0000      -0.658991       -17.9321
  38   2.0000      -0.642928       -17.4950
  39   2.0000      -0.618828       -16.8392
  40   2.0000      -0.592070       -16.1110
  41   2.0000      -0.577317       -15.7096
  42   2.0000      -0.567952       -15.4547
  43   2.0000      -0.559910       -15.2359
  44   2.0000      -0.527490       -14.3537
  45   2.0000      -0.517731       -14.0882
  46   2.0000      -0.514454       -13.9990
  47   2.0000      -0.512924       -13.9574
  48   2.0000      -0.509712       -13.8700
  49   2.0000      -0.500324       -13.6145
  50   2.0000      -0.487184       -13.2569
  51   2.0000      -0.481790       -13.1102
  52   2.0000      -0.472462       -12.8563
  53   2.0000      -0.464496       -12.6396
  54   2.0000      -0.453333       -12.3358
  55   2.0000      -0.451382       -12.2827
  56   2.0000      -0.443692       -12.0735
  57   2.0000      -0.438212       -11.9243
  58   2.0000      -0.435213       -11.8428
  59   2.0000      -0.427250       -11.6261
  60   2.0000      -0.420967       -11.4551
  61   2.0000      -0.415881       -11.3167
  62   2.0000      -0.405540       -11.0353
  63   2.0000      -0.335170        -9.1204
  64   2.0000      -0.329649        -8.9702
  65   2.0000      -0.324526        -8.8308
  66   2.0000      -0.300362        -8.1733
  67   0.0000       0.028979         0.7886
  68   0.0000       0.061509         1.6737
  69   0.0000       0.103704         2.8219
  70   0.0000       0.115986         3.1561
  71   0.0000       0.128313         3.4916

MULLIKEN ATOMIC CHARGES
-----------------------
   0 S :    0.112533
   1 C :   -0.113516
   2 C :   -0.110633
   3 C :    0.078715
   4 C :   -0.154198
   5 H :   -0.040120
   6 C :    0.158342
   7 H :   -0.005044
   8 H :    0.043828
   9 C :   -0.135570
  10 H :    0.026070
  11 H :    0.032017
  12 C :   -0.000557
  13 H :    0.017561
  14 H :    0.045166
  15 H :    0.014459
  16 S :    0.112084
  17 C :   -0.088997
  18 C :   -0.058535
  19 C :   -0.007473
  20 C :   -0.183602
  21 H :    0.042179
  22 C :    0.036427
  23 H :    0.019933
  24 H :    0.036389
  25 C :   -0.096177
  26 H :    0.035102
  27 H :    0.032637
  28 C :   -0.054961
  29 H :    0.037166
  30 H :    0.038414
  31 H :    0.045560
  32 H :    0.035441
  33 H :    0.049359
Sum of atomic charges:   -0.0000000

LOEWDIN ATOMIC CHARGES
----------------------
   0 S :    0.363228
   1 C :   -0.182986
   2 C :   -0.055621
   3 C :   -0.032874
   4 C :   -0.178632
   5 H :    0.005505
   6 C :   -0.016571
   7 H :    0.019874
   8 H :    0.035973
   9 C :   -0.039276
  10 H :    0.017811
  11 H :    0.026922
  12 C :   -0.063299
  13 H :    0.023880
  14 H :    0.030074
  15 H :    0.023037
  16 S :    0.422680
  17 C :   -0.180666
  18 C :   -0.080022
  19 C :   -0.054475
  20 C :   -0.212460
  21 H :    0.042745
  22 C :   -0.038270
  23 H :    0.022812
  24 H :    0.032512
  25 C :   -0.044162
  26 H :    0.024279
  27 H :    0.022348
  28 C :   -0.065447
  29 H :    0.022216
  30 H :    0.036458
  31 H :    0.026575
  32 H :    0.026143
  33 H :    0.019687

  Mayer bond orders larger than 0.100000
B(  0-S ,  1-C ) :   1.1069 B(  0-S ,  4-C ) :   1.1098 B(  1-C ,  2-C ) :   1.7021
B(  1-C , 32-H ) :   0.9568 B(  2-C ,  3-C ) :   1.1609 B(  2-C ,  6-C ) :   1.0244
B(  3-C ,  4-C ) :   1.6114 B(  3-C ,  5-H ) :   1.0068 B(  4-C , 20-C ) :   1.0753
B(  6-C ,  7-H ) :   0.9358 B(  6-C ,  8-H ) :   0.9331 B(  6-C ,  9-C ) :   1.0607
B(  9-C , 10-H ) :   0.9606 B(  9-C , 11-H ) :   0.9489 B(  9-C , 12-C ) :   1.0943
B( 12-C , 13-H ) :   0.9676 B( 12-C , 14-H ) :   0.9748 B( 12-C , 15-H ) :   0.9680
B( 16-S , 17-C ) :   1.1931 B( 16-S , 20-C ) :   1.1460 B( 17-C , 18-C ) :   1.5632
B( 17-C , 20-C ) :   0.1101 B( 17-C , 33-H ) :   0.9699 B( 18-C , 19-C ) :   1.2601
B( 18-C , 21-H ) :   0.9890 B( 19-C , 20-C ) :   1.5655 B( 19-C , 22-C ) :   1.0459
B( 22-C , 23-H ) :   0.9369 B( 22-C , 24-H ) :   0.9330 B( 22-C , 25-C ) :   1.0574
B( 25-C , 26-H ) :   0.9592 B( 25-C , 27-H ) :   0.9583 B( 25-C , 28-C ) :   1.0623
B( 28-C , 29-H ) :   0.9792 B( 28-C , 30-H ) :   0.9754 B( 28-C , 31-H ) :   0.9777

Dispersion correction           -0.014126468
FINAL SINGLE POINT ENERGY     -1339.854116534221

DIPOLE MOMENT
-------------
                                X             Y             Z
Electronic contribution:      7.91806      28.71221       0.07133
Nuclear contribution   :     -8.26057     -29.40595       0.04377
                        -----------------------------------------
Total Dipole Moment    :     -0.34251      -0.69374       0.11510
                        -----------------------------------------
Magnitude (a.u.)       :      0.78220
Magnitude (Debye)      :      1.98820

Rotational constants in cm-1:     0.016372     0.008909     0.006939
Rotational constants in MHz :   490.829548   267.081688   208.023800

                             ****ORCA TERMINATED NORMALLY****
TOTAL RUN TIME: 0 days 0 hours 0 minutes 21 seconds 579 msec
