                         Program Version 4.2.1 -  RELEASE  -
|  1> ! wB97X-D3 SP def2-SVP
|  2> %pal
|  3> nprocs 24
|  4> end
|  5>
|  6> * xyz 0 1
|  7> S 	 -100.124 	 12.499 	 -121.244
|  8> C 	 -99.4601 	 13.9103 	 -120.426
|  9> C 	 -98.2919 	 14.3938 	 -120.963
| 10> C 	 -97.9287 	 13.6202 	 -122.094
| 11> C 	 -98.7138 	 12.5031 	 -122.312
| 12> H 	 -97.18 	 13.8352 	 -122.772
| 13> C 	 -97.5997 	 15.6252 	 -120.488
| 14> H 	 -98.1658 	 16.1643 	 -119.66
| 15> H 	 -97.8037 	 16.3487 	 -121.283
| 16> C 	 -96.1119 	 15.5769 	 -120.271
| 17> H 	 -95.446 	 15.3281 	 -121.161
| 18> H 	 -95.7433 	 16.5478 	 -119.936
| 19> C 	 -95.6937 	 14.6721 	 -119.11
| 20> H 	 -94.7306 	 14.841 	 -118.699
| 21> H 	 -96.3635 	 14.7449 	 -118.25
| 22> H 	 -95.8268 	 13.6164 	 -119.404
| 23> S 	 -98.714 	 12.3941 	 -125.183
| 24> C 	 -98.0381 	 10.8554 	 -125.819
| 25> C 	 -98.322 	 9.82717 	 -124.9
| 26> C 	 -98.5472 	 10.2964 	 -123.585
| 27> C 	 -98.5667 	 11.6891 	 -123.493
| 28> H 	 -98.313 	 8.78008 	 -125.225
| 29> C 	 -98.8551 	 9.26829 	 -122.557
| 30> H 	 -99.5246 	 8.55484 	 -122.915
| 31> H 	 -99.2505 	 9.619 	 -121.617
| 32> C 	 -97.5672 	 8.6484 	 -121.983
| 33> H 	 -97.279 	 8.00054 	 -122.68
| 34> H 	 -97.8101 	 7.97018 	 -121.175
| 35> C 	 -96.474 	 9.56451 	 -121.576
| 36> H 	 -96.6781 	 10.2278 	 -120.747
| 37> H 	 -96.4002 	 10.1385 	 -122.473
| 38> H 	 -95.5778 	 8.96311 	 -121.319
| 39> H 	 -99.9271 	 14.5186 	 -119.699
| 40> H 	 -97.5877 	 10.7346 	 -126.73
| 41> *
| 42>
| 43>                          ****END OF INPUT****

CARTESIAN COORDINATES (ANGSTROEM)
---------------------------------
  S    -100.124000   12.499000  -121.244000
  C    -99.460100   13.910300  -120.426000
  C    -98.291900   14.393800  -120.963000
  C    -97.928700   13.620200  -122.094000
  C    -98.713800   12.503100  -122.312000
  H    -97.180000   13.835200  -122.772000
  C    -97.599700   15.625200  -120.488000
  H    -98.165800   16.164300  -119.660000
  H    -97.803700   16.348700  -121.283000
  C    -96.111900   15.576900  -120.271000
  H    -95.446000   15.328100  -121.161000
  H    -95.743300   16.547800  -119.936000
  C    -95.693700   14.672100  -119.110000
  H    -94.730600   14.841000  -118.699000
  H    -96.363500   14.744900  -118.250000
  H    -95.826800   13.616400  -119.404000
  S    -98.714000   12.394100  -125.183000
  C    -98.038100   10.855400  -125.819000
  C    -98.322000    9.827170  -124.900000
  C    -98.547200   10.296400  -123.585000
  C    -98.566700   11.689100  -123.493000
  H    -98.313000    8.780080  -125.225000
  C    -98.855100    9.268290  -122.557000
  H    -99.524600    8.554840  -122.915000
  H    -99.250500    9.619000  -121.617000
  C    -97.567200    8.648400  -121.983000
  H    -97.279000    8.000540  -122.680000
  H    -97.810100    7.970180  -121.175000
  C    -96.474000    9.564510  -121.576000
  H    -96.678100   10.227800  -120.747000
  H    -96.400200   10.138500  -122.473000
  H    -95.577800    8.963110  -121.319000
  H    -99.927100   14.518600  -119.699000
  H    -97.587700   10.734600  -126.730000

 Total Charge           Charge          ....    0
 Multiplicity           Mult            ....    1
 Number of Electrons    NEL             ....  134
 Basis Dimension        Dim             ....  322

ORBITAL ENERGIES
----------------

  NO   OCC          E(Eh)            E(eV)
   0   2.0000     -88.970203     -2421.0023
   1   2.0000     -88.965297     -2420.8688
   2   2.0000     -10.329091      -281.0688
   3   2.0000     -10.325894      -280.9819
   4   2.0000     -10.318474      -280.7799
   5   2.0000     -10.310532      -280.5638
   6   2.0000     -10.301166      -280.3090
   7   2.0000     -10.299125      -280.2534
   8   2.0000     -10.298940      -280.2484
   9   2.0000     -10.297036      -280.1966
  10   2.0000     -10.292392      -280.0702
  11   2.0000     -10.289320      -279.9866
  12   2.0000     -10.279306      -279.7141
  13   2.0000     -10.270453      -279.4732
  14   2.0000     -10.263730      -279.2903
  15   2.0000     -10.263167      -279.2750
  16   2.0000      -8.083945      -219.9753
  17   2.0000      -8.078030      -219.8144
  18   2.0000      -6.042466      -164.4239
  19   2.0000      -6.038696      -164.3213
  20   2.0000      -6.036741      -164.2681
  21   2.0000      -6.034632      -164.2107
  22   2.0000      -6.033342      -164.1756
  23   2.0000      -6.028168      -164.0348
  24   2.0000      -1.002272       -27.2732
  25   2.0000      -0.978907       -26.6374
  26   2.0000      -0.916388       -24.9362
  27   2.0000      -0.915220       -24.9044
  28   2.0000      -0.868635       -23.6368
  29   2.0000      -0.851005       -23.1570
  30   2.0000      -0.845664       -23.0117
  31   2.0000      -0.811124       -22.0718
  32   2.0000      -0.787574       -21.4310
  33   2.0000      -0.776656       -21.1339
  34   2.0000      -0.713191       -19.4069
  35   2.0000      -0.697484       -18.9795
  36   2.0000      -0.692468       -18.8430
  37   2.0000      -0.665998       -18.1227
  38   2.0000      -0.639901       -17.4126
  39   2.0000      -0.617552       -16.8044
  40   2.0000      -0.603615       -16.4252
  41   2.0000      -0.566147       -15.4057
  42   2.0000      -0.563674       -15.3384
  43   2.0000      -0.557188       -15.1618
  44   2.0000      -0.546673       -14.8757
  45   2.0000      -0.540101       -14.6969
  46   2.0000      -0.519105       -14.1256
  47   2.0000      -0.507050       -13.7975
  48   2.0000      -0.501934       -13.6583
  49   2.0000      -0.495737       -13.4897
  50   2.0000      -0.487835       -13.2747
  51   2.0000      -0.476181       -12.9575
  52   2.0000      -0.467789       -12.7292
  53   2.0000      -0.466643       -12.6980
  54   2.0000      -0.461860       -12.5679
  55   2.0000      -0.451307       -12.2807
  56   2.0000      -0.443077       -12.0567
  57   2.0000      -0.439157       -11.9501
  58   2.0000      -0.435243       -11.8436
  59   2.0000      -0.422061       -11.4849
  60   2.0000      -0.414640       -11.2829
  61   2.0000      -0.412632       -11.2283
  62   2.0000      -0.401201       -10.9172
  63   2.0000      -0.334454        -9.1009
  64   2.0000      -0.328861        -8.9488
  65   2.0000      -0.324902        -8.8410
  66   2.0000      -0.290312        -7.8998
  67   0.0000       0.017031         0.4634
  68   0.0000       0.055549         1.5116
  69   0.0000       0.084474         2.2987
  70   0.0000       0.118852         3.2341
  71   0.0000       0.125129         3.4049

MULLIKEN ATOMIC CHARGES
-----------------------
   0 S :    0.121694
   1 C :   -0.100460
   2 C :   -0.063405
   3 C :    0.031563
   4 C :   -0.149990
   5 H :   -0.015255
   6 C :    0.058380
   7 H :    0.028108
   8 H :    0.037678
   9 C :   -0.076764
  10 H :    0.047797
  11 H :    0.023438
  12 C :   -0.053532
  13 H :    0.029717
  14 H :    0.014845
  15 H :    0.038084
  16 S :    0.095965
  17 C :   -0.079371
  18 C :   -0.032060
  19 C :   -0.043557
  20 C :   -0.155482
  21 H :    0.031853
  22 C :    0.108936
  23 H :    0.020274
  24 H :    0.007862
  25 C :   -0.051681
  26 H :   -0.020796
  27 H :    0.009453
  28 C :   -0.026303
  29 H :    0.034762
  30 H :    0.035065
  31 H :    0.038709
  32 H :    0.023149
  33 H :    0.031325
Sum of atomic charges:    0.0000000

LOEWDIN ATOMIC CHARGES
----------------------
   0 S :    0.399482
   1 C :   -0.184373
   2 C :   -0.063249
   3 C :   -0.037180
   4 C :   -0.194319
   5 H :    0.018681
   6 C :   -0.041120
   7 H :    0.040460
   8 H :    0.040432
   9 C :   -0.048498
  10 H :    0.034379
  11 H :    0.026636
  12 C :   -0.069437
  13 H :    0.020119
  14 H :    0.023099
  15 H :    0.027846
  16 S :    0.349003
  17 C :   -0.149501
  18 C :   -0.062552
  19 C :   -0.056665
  20 C :   -0.172403
  21 H :    0.034751
  22 C :   -0.025621
  23 H :    0.027393
  24 H :    0.023024
  25 C :   -0.032314
  26 H :    0.000083
  27 H :    0.018648
  28 C :   -0.059625
  29 H :    0.024308
  30 H :    0.025875
  31 H :    0.033723
  32 H :    0.019324
  33 H :    0.009590

  Mayer bond orders larger than 0.100000
B(  0-S ,  1-C ) :   1.1369 B(  0-S ,  4-C ) :   1.1190 B(  1-C ,  2-C ) :   1.6242
B(  1-C , 32-H ) :   0.9631 B(  2-C ,  3-C ) :   1.2130 B(  2-C ,  6-C ) :   1.0220
B(  3-C ,  4-C ) :   1.5599 B(  3-C ,  5-H ) :   1.0157 B(  4-C , 20-C ) :   1.1134
B(  6-C ,  7-H ) :   0.9374 B(  6-C ,  8-H ) :   0.9264 B(  6-C ,  9-C ) :   1.0844
B(  9-C , 10-H ) :   0.9541 B(  9-C , 11-H ) :   0.9512 B(  9-C , 12-C ) :   1.0709
B( 12-C , 13-H ) :   0.9771 B( 12-C , 14-H ) :   0.9721 B( 12-C , 15-H ) :   0.9744
B( 16-S , 17-C ) :   1.1404 B( 16-S , 20-C ) :   1.1013 B( 17-C , 18-C ) :   1.5935
B( 17-C , 20-C ) :   0.1107 B( 17-C , 33-H ) :   0.9849 B( 18-C , 19-C ) :   1.2200
B( 18-C , 21-H ) :   0.9882 B( 19-C , 20-C ) :   1.5594 B( 19-C , 22-C ) :   1.0569
B( 22-C , 23-H ) :   0.9411 B( 22-C , 24-H ) :   0.9316 B( 22-C , 25-C ) :   1.0563
B( 25-C , 26-H ) :   0.9500 B( 25-C , 27-H ) :   0.9506 B( 25-C , 28-C ) :   1.0820
B( 28-C , 29-H ) :   0.9738 B( 28-C , 30-H ) :   0.9671 B( 28-C , 31-H ) :   0.9680

Dispersion correction           -0.015475304
FINAL SINGLE POINT ENERGY     -1339.828047008301

DIPOLE MOMENT
-------------
                                X             Y             Z
Electronic contribution:    -17.00396       1.43622     -15.36926
Nuclear contribution   :     17.24724      -1.37490      15.49868
                        -----------------------------------------
Total Dipole Moment    :      0.24328       0.06132       0.12943
                        -----------------------------------------
Magnitude (a.u.)       :      0.28230
Magnitude (Debye)      :      0.71756

Rotational constants in cm-1:     0.019731     0.008711     0.007944
Rotational constants in MHz :   591.508638   261.137633   238.165118

                             ****ORCA TERMINATED NORMALLY****
TOTAL RUN TIME: 0 days 0 hours 0 minutes 21 seconds 283 msec
