                         Program Version 4.2.1 -  RELEASE  -
|  1> ! wB97X-D3 SP def2-SVP
|  2> %pal
|  3> nprocs 24
|  4> end
|  5>
|  6> * xyz 0 1
|  7> S 	 26.0825 	 -3.88266 	 -112.903
|  8> C 	 26.2917 	 -4.81525 	 -114.38
|  9> C 	 25.0827 	 -5.09655 	 -114.995
| 10> C 	 23.9993 	 -4.51745 	 -114.267
| 11> C 	 24.3044 	 -4.01327 	 -113.039
| 12> H 	 22.9414 	 -4.58908 	 -114.472
| 13> C 	 24.7372 	 -5.65011 	 -116.392
| 14> H 	 25.6515 	 -6.15511 	 -116.741
| 15> H 	 24.579 	 -4.81304 	 -117.04
| 16> C 	 23.5003 	 -6.63164 	 -116.461
| 17> H 	 22.6143 	 -6.178 	 -115.972
| 18> H 	 23.2045 	 -6.90808 	 -117.478
| 19> C 	 23.6718 	 -7.94642 	 -115.668
| 20> H 	 24.5882 	 -8.51877 	 -115.829
| 21> H 	 23.84 	 -7.65275 	 -114.561
| 22> H 	 22.7853 	 -8.54369 	 -115.756
| 23> S 	 23.6981 	 -2.16007 	 -110.932
| 24> C 	 22.1329 	 -2.20974 	 -110.191
| 25> C 	 21.3948 	 -3.30164 	 -110.648
| 26> C 	 22.1835 	 -4.1898 	 -111.528
| 27> C 	 23.4035 	 -3.5813 	 -111.952
| 28> H 	 20.4283 	 -3.60721 	 -110.296
| 29> C 	 21.5539 	 -5.39799 	 -112.042
| 30> H 	 21.561 	 -5.44623 	 -113.124
| 31> H 	 20.5419 	 -5.43476 	 -111.77
| 32> C 	 22.2936 	 -6.68455 	 -111.607
| 33> H 	 22.1736 	 -6.91689 	 -110.593
| 34> H 	 23.3361 	 -6.62852 	 -111.959
| 35> C 	 21.5737 	 -7.88796 	 -112.262
| 36> H 	 21.9726 	 -8.856 	 -111.887
| 37> H 	 21.6708 	 -7.81062 	 -113.361
| 38> H 	 20.4993 	 -7.93856 	 -112.098
| 39> H 	 27.1643 	 -5.0778 	 -114.842
| 40> H 	 21.6127 	 -1.51576 	 -109.509
| 41> *
| 42>
| 43>                          ****END OF INPUT****

CARTESIAN COORDINATES (ANGSTROEM)
---------------------------------
  S     26.082500   -3.882660  -112.903000
  C     26.291700   -4.815250  -114.380000
  C     25.082700   -5.096550  -114.995000
  C     23.999300   -4.517450  -114.267000
  C     24.304400   -4.013270  -113.039000
  H     22.941400   -4.589080  -114.472000
  C     24.737200   -5.650110  -116.392000
  H     25.651500   -6.155110  -116.741000
  H     24.579000   -4.813040  -117.040000
  C     23.500300   -6.631640  -116.461000
  H     22.614300   -6.178000  -115.972000
  H     23.204500   -6.908080  -117.478000
  C     23.671800   -7.946420  -115.668000
  H     24.588200   -8.518770  -115.829000
  H     23.840000   -7.652750  -114.561000
  H     22.785300   -8.543690  -115.756000
  S     23.698100   -2.160070  -110.932000
  C     22.132900   -2.209740  -110.191000
  C     21.394800   -3.301640  -110.648000
  C     22.183500   -4.189800  -111.528000
  C     23.403500   -3.581300  -111.952000
  H     20.428300   -3.607210  -110.296000
  C     21.553900   -5.397990  -112.042000
  H     21.561000   -5.446230  -113.124000
  H     20.541900   -5.434760  -111.770000
  C     22.293600   -6.684550  -111.607000
  H     22.173600   -6.916890  -110.593000
  H     23.336100   -6.628520  -111.959000
  C     21.573700   -7.887960  -112.262000
  H     21.972600   -8.856000  -111.887000
  H     21.670800   -7.810620  -113.361000
  H     20.499300   -7.938560  -112.098000
  H     27.164300   -5.077800  -114.842000
  H     21.612700   -1.515760  -109.509000

 Total Charge           Charge          ....    0
 Multiplicity           Mult            ....    1
 Number of Electrons    NEL             ....  134
 Basis Dimension        Dim             ....  322

ORBITAL ENERGIES
----------------

  NO   OCC          E(Eh)            E(eV)
   0   2.0000     -88.970963     -2421.0230
   1   2.0000     -88.966755     -2420.9085
   2   2.0000     -10.335391      -281.2403
   3   2.0000     -10.335187      -281.2347
   4   2.0000     -10.323923      -280.9282
   5   2.0000     -10.314042      -280.6594
   6   2.0000     -10.307485      -280.4809
   7   2.0000     -10.305643      -280.4308
   8   2.0000     -10.301766      -280.3253
   9   2.0000     -10.297934      -280.2210
  10   2.0000     -10.297799      -280.2174
  11   2.0000     -10.291187      -280.0374
  12   2.0000     -10.283632      -279.8319
  13   2.0000     -10.282464      -279.8001
  14   2.0000     -10.282075      -279.7895
  15   2.0000     -10.278185      -279.6836
  16   2.0000      -8.085102      -220.0068
  17   2.0000      -8.080875      -219.8918
  18   2.0000      -6.043772      -164.4594
  19   2.0000      -6.039614      -164.3463
  20   2.0000      -6.039554      -164.3446
  21   2.0000      -6.035793      -164.2423
  22   2.0000      -6.035566      -164.2361
  23   2.0000      -6.031389      -164.1224
  24   2.0000      -1.002313       -27.2743
  25   2.0000      -0.981619       -26.7112
  26   2.0000      -0.916023       -24.9263
  27   2.0000      -0.905231       -24.6326
  28   2.0000      -0.868354       -23.6291
  29   2.0000      -0.851237       -23.1633
  30   2.0000      -0.843315       -22.9478
  31   2.0000      -0.817162       -22.2361
  32   2.0000      -0.781801       -21.2739
  33   2.0000      -0.770510       -20.9666
  34   2.0000      -0.709849       -19.3160
  35   2.0000      -0.699845       -19.0437
  36   2.0000      -0.693290       -18.8654
  37   2.0000      -0.661774       -18.0078
  38   2.0000      -0.644596       -17.5404
  39   2.0000      -0.625205       -17.0127
  40   2.0000      -0.597330       -16.2542
  41   2.0000      -0.574742       -15.6395
  42   2.0000      -0.564893       -15.3715
  43   2.0000      -0.554617       -15.0919
  44   2.0000      -0.533991       -14.5306
  45   2.0000      -0.523089       -14.2340
  46   2.0000      -0.520189       -14.1551
  47   2.0000      -0.512344       -13.9416
  48   2.0000      -0.507318       -13.8048
  49   2.0000      -0.498377       -13.5615
  50   2.0000      -0.494778       -13.4636
  51   2.0000      -0.489127       -13.3098
  52   2.0000      -0.470361       -12.7992
  53   2.0000      -0.458017       -12.4633
  54   2.0000      -0.451883       -12.2964
  55   2.0000      -0.449541       -12.2326
  56   2.0000      -0.445161       -12.1135
  57   2.0000      -0.435152       -11.8411
  58   2.0000      -0.433648       -11.8002
  59   2.0000      -0.432223       -11.7614
  60   2.0000      -0.421408       -11.4671
  61   2.0000      -0.415803       -11.3146
  62   2.0000      -0.410765       -11.1775
  63   2.0000      -0.353405        -9.6166
  64   2.0000      -0.333060        -9.0630
  65   2.0000      -0.325887        -8.8678
  66   2.0000      -0.288275        -7.8444
  67   0.0000       0.020202         0.5497
  68   0.0000       0.071520         1.9462
  69   0.0000       0.102395         2.7863
  70   0.0000       0.112647         3.0653
  71   0.0000       0.122926         3.3450

MULLIKEN ATOMIC CHARGES
-----------------------
   0 S :    0.099094
   1 C :   -0.063290
   2 C :   -0.105412
   3 C :    0.004625
   4 C :   -0.141447
   5 H :    0.009548
   6 C :    0.089982
   7 H :    0.021359
   8 H :    0.047826
   9 C :   -0.090363
  10 H :    0.028747
  11 H :    0.037731
  12 C :   -0.083836
  13 H :    0.032751
  14 H :    0.040766
  15 H :    0.045523
  16 S :    0.117600
  17 C :   -0.080118
  18 C :   -0.035790
  19 C :   -0.047200
  20 C :   -0.126261
  21 H :    0.016540
  22 C :    0.069320
  23 H :    0.006634
  24 H :   -0.003923
  25 C :   -0.062324
  26 H :    0.023894
  27 H :    0.058160
  28 C :   -0.063673
  29 H :    0.038611
  30 H :    0.017589
  31 H :    0.021188
  32 H :    0.005483
  33 H :    0.070666
Sum of atomic charges:    0.0000000

LOEWDIN ATOMIC CHARGES
----------------------
   0 S :    0.379525
   1 C :   -0.175669
   2 C :   -0.063437
   3 C :   -0.067067
   4 C :   -0.171654
   5 H :    0.027829
   6 C :   -0.024424
   7 H :    0.029601
   8 H :    0.034587
   9 C :   -0.041323
  10 H :    0.024341
  11 H :    0.025404
  12 C :   -0.073709
  13 H :    0.023318
  14 H :    0.033855
  15 H :    0.023218
  16 S :    0.409174
  17 C :   -0.197815
  18 C :   -0.069867
  19 C :   -0.044411
  20 C :   -0.201941
  21 H :    0.026104
  22 C :   -0.033440
  23 H :    0.026811
  24 H :    0.022344
  25 C :   -0.024017
  26 H :    0.018041
  27 H :    0.031832
  28 C :   -0.070135
  29 H :    0.027858
  30 H :    0.020302
  31 H :    0.020647
  32 H :    0.010605
  33 H :    0.043512

  Mayer bond orders larger than 0.100000
B(  0-S ,  1-C ) :   1.1302 B(  0-S ,  4-C ) :   1.1158 B(  1-C ,  2-C ) :   1.6405
B(  1-C , 32-H ) :   0.9748 B(  2-C ,  3-C ) :   1.1993 B(  2-C ,  6-C ) :   1.0096
B(  3-C ,  4-C ) :   1.6261 B(  3-C ,  5-H ) :   0.9882 B(  4-C , 20-C ) :   1.0642
B(  6-C ,  7-H ) :   0.9430 B(  6-C ,  8-H ) :   0.9460 B(  6-C ,  9-C ) :   1.0584
B(  9-C , 10-H ) :   0.9560 B(  9-C , 11-H ) :   0.9591 B(  9-C , 12-C ) :   1.0731
B( 12-C , 13-H ) :   0.9729 B( 12-C , 14-H ) :   0.9675 B( 12-C , 15-H ) :   0.9715
B( 16-S , 17-C ) :   1.1576 B( 16-S , 20-C ) :   1.1236 B( 17-C , 18-C ) :   1.6015
B( 17-C , 33-H ) :   0.9617 B( 18-C , 19-C ) :   1.2590 B( 18-C , 21-H ) :   0.9833
B( 19-C , 20-C ) :   1.5458 B( 19-C , 22-C ) :   1.0731 B( 22-C , 23-H ) :   0.9345
B( 22-C , 24-H ) :   0.9261 B( 22-C , 25-C ) :   1.0547 B( 25-C , 26-H ) :   0.9557
B( 25-C , 27-H ) :   0.9567 B( 25-C , 28-C ) :   1.0802 B( 28-C , 29-H ) :   0.9749
B( 28-C , 30-H ) :   0.9707 B( 28-C , 31-H ) :   0.9702

Dispersion correction           -0.016182789
FINAL SINGLE POINT ENERGY     -1339.865473021115

DIPOLE MOMENT
-------------
                                X             Y             Z
Electronic contribution:     13.47127      26.31379      13.18509
Nuclear contribution   :    -14.05123     -26.75191     -13.52338
                        -----------------------------------------
Total Dipole Moment    :     -0.57996      -0.43813      -0.33829
                        -----------------------------------------
Magnitude (a.u.)       :      0.80172
Magnitude (Debye)      :      2.03781

Rotational constants in cm-1:     0.018148     0.010526     0.007457
Rotational constants in MHz :   544.070335   315.555399   223.540305

                             ****ORCA TERMINATED NORMALLY****
TOTAL RUN TIME: 0 days 0 hours 0 minutes 23 seconds 500 msec
