                         Program Version 4.2.1 -  RELEASE  -
|  1> ! wB97X-D3 SP def2-SVP
|  2> %pal
|  3> nprocs 24
|  4> end
|  5>
|  6> * xyz 0 1
|  7> S 	 26.6736 	 -10.3 	 -114.47
|  8> C 	 28.4501 	 -10.4477 	 -114.378
|  9> C 	 28.9308 	 -10.0893 	 -113.136
| 10> C 	 27.9215 	 -9.73892 	 -112.229
| 11> C 	 26.662 	 -9.73412 	 -112.813
| 12> H 	 28.1866 	 -9.39887 	 -111.237
| 13> C 	 30.4012 	 -10.2308 	 -112.739
| 14> H 	 30.494 	 -10.0894 	 -111.71
| 15> H 	 30.9527 	 -9.36396 	 -113.253
| 16> C 	 31.2803 	 -11.5507 	 -113.098
| 17> H 	 31.9759 	 -11.6022 	 -112.192
| 18> H 	 30.6179 	 -12.415 	 -113.068
| 19> C 	 31.9882 	 -11.4704 	 -114.488
| 20> H 	 32.5318 	 -12.433 	 -114.729
| 21> H 	 31.1379 	 -11.3472 	 -115.258
| 22> H 	 32.6977 	 -10.6782 	 -114.713
| 23> S 	 24.2106 	 -10.7708 	 -112.086
| 24> C 	 23.1582 	 -9.80424 	 -111.085
| 25> C 	 23.72 	 -8.61958 	 -110.768
| 26> C 	 25.0089 	 -8.40348 	 -111.288
| 27> C 	 25.4177 	 -9.48231 	 -112.086
| 28> H 	 23.1124 	 -7.83766 	 -110.351
| 29> C 	 25.6849 	 -7.09531 	 -111.03
| 30> H 	 26.7698 	 -7.32176 	 -111.072
| 31> H 	 25.4471 	 -6.77056 	 -109.998
| 32> C 	 25.5268 	 -6.06935 	 -112.2
| 33> H 	 24.447 	 -5.76775 	 -112.267
| 34> H 	 25.6491 	 -6.55133 	 -113.185
| 35> C 	 26.4425 	 -4.81753 	 -112.1
| 36> H 	 26.1206 	 -4.07268 	 -112.769
| 37> H 	 27.4548 	 -5.13541 	 -112.241
| 38> H 	 26.4124 	 -4.44172 	 -111.103
| 39> H 	 29.1587 	 -10.7452 	 -115.151
| 40> H 	 22.1987 	 -10.0396 	 -110.669
| 41> *
| 42>
| 43>                          ****END OF INPUT****

CARTESIAN COORDINATES (ANGSTROEM)
---------------------------------
  S     26.673600  -10.300000  -114.470000
  C     28.450100  -10.447700  -114.378000
  C     28.930800  -10.089300  -113.136000
  C     27.921500   -9.738920  -112.229000
  C     26.662000   -9.734120  -112.813000
  H     28.186600   -9.398870  -111.237000
  C     30.401200  -10.230800  -112.739000
  H     30.494000  -10.089400  -111.710000
  H     30.952700   -9.363960  -113.253000
  C     31.280300  -11.550700  -113.098000
  H     31.975900  -11.602200  -112.192000
  H     30.617900  -12.415000  -113.068000
  C     31.988200  -11.470400  -114.488000
  H     32.531800  -12.433000  -114.729000
  H     31.137900  -11.347200  -115.258000
  H     32.697700  -10.678200  -114.713000
  S     24.210600  -10.770800  -112.086000
  C     23.158200   -9.804240  -111.085000
  C     23.720000   -8.619580  -110.768000
  C     25.008900   -8.403480  -111.288000
  C     25.417700   -9.482310  -112.086000
  H     23.112400   -7.837660  -110.351000
  C     25.684900   -7.095310  -111.030000
  H     26.769800   -7.321760  -111.072000
  H     25.447100   -6.770560  -109.998000
  C     25.526800   -6.069350  -112.200000
  H     24.447000   -5.767750  -112.267000
  H     25.649100   -6.551330  -113.185000
  C     26.442500   -4.817530  -112.100000
  H     26.120600   -4.072680  -112.769000
  H     27.454800   -5.135410  -112.241000
  H     26.412400   -4.441720  -111.103000
  H     29.158700  -10.745200  -115.151000
  H     22.198700  -10.039600  -110.669000

 Total Charge           Charge          ....    0
 Multiplicity           Mult            ....    1
 Number of Electrons    NEL             ....  134
 Basis Dimension        Dim             ....  322

ORBITAL ENERGIES
----------------

  NO   OCC          E(Eh)            E(eV)
   0   2.0000     -88.972662     -2421.0692
   1   2.0000     -88.965438     -2420.8726
   2   2.0000     -10.331343      -281.1301
   3   2.0000     -10.326814      -281.0069
   4   2.0000     -10.313146      -280.6350
   5   2.0000     -10.309617      -280.5389
   6   2.0000     -10.304971      -280.4125
   7   2.0000     -10.298423      -280.2343
   8   2.0000     -10.297898      -280.2201
   9   2.0000     -10.297021      -280.1962
  10   2.0000     -10.296514      -280.1824
  11   2.0000     -10.294972      -280.1404
  12   2.0000     -10.292565      -280.0749
  13   2.0000     -10.290397      -280.0159
  14   2.0000     -10.281846      -279.7833
  15   2.0000     -10.270170      -279.4655
  16   2.0000      -8.086354      -220.0409
  17   2.0000      -8.079940      -219.8663
  18   2.0000      -6.044903      -164.4902
  19   2.0000      -6.041072      -164.3859
  20   2.0000      -6.038497      -164.3159
  21   2.0000      -6.037076      -164.2772
  22   2.0000      -6.034418      -164.2049
  23   2.0000      -6.030741      -164.1048
  24   2.0000      -1.005802       -27.3693
  25   2.0000      -0.984059       -26.7776
  26   2.0000      -0.904043       -24.6003
  27   2.0000      -0.900291       -24.4982
  28   2.0000      -0.864259       -23.5177
  29   2.0000      -0.852042       -23.1852
  30   2.0000      -0.848021       -23.0758
  31   2.0000      -0.811456       -22.0808
  32   2.0000      -0.782270       -21.2867
  33   2.0000      -0.771249       -20.9867
  34   2.0000      -0.708884       -19.2897
  35   2.0000      -0.701420       -19.0866
  36   2.0000      -0.693225       -18.8636
  37   2.0000      -0.660547       -17.9744
  38   2.0000      -0.632243       -17.2042
  39   2.0000      -0.618569       -16.8321
  40   2.0000      -0.593474       -16.1492
  41   2.0000      -0.571474       -15.5506
  42   2.0000      -0.555955       -15.1283
  43   2.0000      -0.539491       -14.6803
  44   2.0000      -0.530920       -14.4471
  45   2.0000      -0.528881       -14.3916
  46   2.0000      -0.514497       -14.0002
  47   2.0000      -0.510788       -13.8993
  48   2.0000      -0.503452       -13.6996
  49   2.0000      -0.494221       -13.4484
  50   2.0000      -0.489674       -13.3247
  51   2.0000      -0.479322       -13.0430
  52   2.0000      -0.476785       -12.9740
  53   2.0000      -0.468014       -12.7353
  54   2.0000      -0.457952       -12.4615
  55   2.0000      -0.446794       -12.1579
  56   2.0000      -0.443246       -12.0613
  57   2.0000      -0.438152       -11.9227
  58   2.0000      -0.436539       -11.8788
  59   2.0000      -0.423765       -11.5312
  60   2.0000      -0.421998       -11.4831
  61   2.0000      -0.418289       -11.3822
  62   2.0000      -0.409630       -11.1466
  63   2.0000      -0.344956        -9.3867
  64   2.0000      -0.333827        -9.0839
  65   2.0000      -0.329547        -8.9674
  66   2.0000      -0.288656        -7.8547
  67   0.0000       0.029402         0.8001
  68   0.0000       0.068013         1.8507
  69   0.0000       0.107184         2.9166
  70   0.0000       0.123371         3.3571
  71   0.0000       0.135838         3.6963

MULLIKEN ATOMIC CHARGES
-----------------------
   0 S :    0.123557
   1 C :   -0.133278
   2 C :   -0.070882
   3 C :    0.035618
   4 C :   -0.159549
   5 H :    0.015805
   6 C :    0.038201
   7 H :    0.003542
   8 H :    0.049551
   9 C :   -0.077650
  10 H :    0.046346
  11 H :    0.044815
  12 C :   -0.092414
  13 H :    0.049954
  14 H :    0.030577
  15 H :    0.044092
  16 S :    0.109632
  17 C :   -0.069796
  18 C :   -0.043978
  19 C :   -0.035577
  20 C :   -0.165756
  21 H :    0.015865
  22 C :    0.069147
  23 H :    0.011310
  24 H :    0.036884
  25 C :   -0.105495
  26 H :    0.021166
  27 H :    0.038531
  28 C :    0.008908
  29 H :    0.033450
  30 H :    0.028249
  31 H :    0.016797
  32 H :    0.038985
  33 H :    0.043389
Sum of atomic charges:   -0.0000000

LOEWDIN ATOMIC CHARGES
----------------------
   0 S :    0.401491
   1 C :   -0.197167
   2 C :   -0.066651
   3 C :   -0.060258
   4 C :   -0.193614
   5 H :    0.031957
   6 C :   -0.034460
   7 H :    0.016785
   8 H :    0.043616
   9 C :   -0.039192
  10 H :    0.033151
  11 H :    0.026471
  12 C :   -0.079737
  13 H :    0.034394
  14 H :    0.030243
  15 H :    0.024095
  16 S :    0.402491
  17 C :   -0.185034
  18 C :   -0.075784
  19 C :   -0.056744
  20 C :   -0.195089
  21 H :    0.030696
  22 C :   -0.037074
  23 H :    0.031486
  24 H :    0.034422
  25 C :   -0.040202
  26 H :    0.021271
  27 H :    0.029215
  28 C :   -0.054930
  29 H :    0.023585
  30 H :    0.023745
  31 H :    0.021386
  32 H :    0.026113
  33 H :    0.029323

  Mayer bond orders larger than 0.100000
B(  0-S ,  1-C ) :   1.1215 B(  0-S ,  4-C ) :   1.1594 B(  1-C ,  2-C ) :   1.6110
B(  1-C , 32-H ) :   0.9643 B(  2-C ,  3-C ) :   1.2785 B(  2-C ,  6-C ) :   1.0197
B(  3-C ,  4-C ) :   1.5488 B(  3-C ,  5-H ) :   0.9853 B(  4-C , 20-C ) :   1.0302
B(  6-C ,  7-H ) :   0.9475 B(  6-C ,  8-H ) :   0.9368 B(  6-C ,  9-C ) :   1.0429
B(  9-C , 10-H ) :   0.9626 B(  9-C , 11-H ) :   0.9633 B(  9-C , 12-C ) :   1.0597
B( 12-C , 13-H ) :   0.9728 B( 12-C , 14-H ) :   0.9751 B( 12-C , 15-H ) :   0.9759
B( 16-S , 17-C ) :   1.1428 B( 16-S , 20-C ) :   1.1445 B( 17-C , 18-C ) :   1.6325
B( 17-C , 33-H ) :   0.9626 B( 18-C , 19-C ) :   1.2595 B( 18-C , 21-H ) :   0.9828
B( 19-C , 20-C ) :   1.5858 B( 19-C , 22-C ) :   1.0510 B( 22-C , 23-H ) :   0.9249
B( 22-C , 24-H ) :   0.9347 B( 22-C , 25-C ) :   1.0511 B( 25-C , 26-H ) :   0.9567
B( 25-C , 27-H ) :   0.9577 B( 25-C , 28-C ) :   1.0756 B( 28-C , 29-H ) :   0.9741
B( 28-C , 30-H ) :   0.9755 B( 28-C , 31-H ) :   0.9739

Dispersion correction           -0.014064258
FINAL SINGLE POINT ENERGY     -1339.871732565716

DIPOLE MOMENT
-------------
                                X             Y             Z
Electronic contribution:    -21.13260     -12.81949      -1.88181
Nuclear contribution   :     21.56635      13.17196       2.16633
                        -----------------------------------------
Total Dipole Moment    :      0.43375       0.35248       0.28452
                        -----------------------------------------
Magnitude (a.u.)       :      0.62716
Magnitude (Debye)      :      1.59412

Rotational constants in cm-1:     0.020069     0.007723     0.006361
Rotational constants in MHz :   601.665110   231.514778   190.706386

                             ****ORCA TERMINATED NORMALLY****
TOTAL RUN TIME: 0 days 0 hours 0 minutes 21 seconds 216 msec
