                         Program Version 4.2.1 -  RELEASE  -
|  1> ! wB97X-D3 SP def2-SVP
|  2> %pal
|  3> nprocs 24
|  4> end
|  5>
|  6> * xyz 0 1
|  7> S 	 -63.439 	 7.89795 	 -74.1708
|  8> C 	 -63.9036 	 6.7834 	 -72.8582
|  9> C 	 -64.8862 	 5.88051 	 -73.2647
| 10> C 	 -65.2338 	 6.208 	 -74.6461
| 11> C 	 -64.4399 	 7.12178 	 -75.2913
| 12> H 	 -65.9985 	 5.71219 	 -75.2046
| 13> C 	 -65.371 	 4.6615 	 -72.5207
| 14> H 	 -64.5813 	 3.98341 	 -72.3735
| 15> H 	 -66.0704 	 4.29139 	 -73.1959
| 16> C 	 -66.0249 	 4.86836 	 -71.1501
| 17> H 	 -66.2853 	 3.89823 	 -70.7346
| 18> H 	 -65.3013 	 5.28801 	 -70.4331
| 19> C 	 -67.2401 	 5.82783 	 -71.2698
| 20> H 	 -67.9172 	 5.77567 	 -70.4005
| 21> H 	 -66.9202 	 6.84103 	 -71.5251
| 22> H 	 -67.808 	 5.6084 	 -72.1689
| 23> S 	 -62.8963 	 8.04247 	 -77.3906
| 24> C 	 -63.5091 	 7.97164 	 -79.0457
| 25> C 	 -64.8651 	 7.71319 	 -79.0111
| 26> C 	 -65.3669 	 7.37686 	 -77.7176
| 27> C 	 -64.3958 	 7.4856 	 -76.6958
| 28> H 	 -65.5166 	 7.7388 	 -79.9025
| 29> C 	 -66.9055 	 7.1015 	 -77.4869
| 30> H 	 -67.0443 	 7.12446 	 -76.4199
| 31> H 	 -67.1092 	 6.09548 	 -77.8585
| 32> C 	 -67.8424 	 8.11871 	 -78.1583
| 33> H 	 -67.6429 	 8.38265 	 -79.1844
| 34> H 	 -67.625 	 9.0641 	 -77.6504
| 35> C 	 -69.3621 	 7.78663 	 -77.8997
| 36> H 	 -69.9597 	 8.43061 	 -78.5004
| 37> H 	 -69.705 	 7.81748 	 -76.7949
| 38> H 	 -69.5232 	 6.79977 	 -78.2863
| 39> H 	 -63.6065 	 6.74563 	 -71.7794
| 40> H 	 -62.9473 	 8.44609 	 -79.8315
| 41> *
| 42>
| 43>                          ****END OF INPUT****

CARTESIAN COORDINATES (ANGSTROEM)
---------------------------------
  S    -63.439000    7.897950  -74.170800
  C    -63.903600    6.783400  -72.858200
  C    -64.886200    5.880510  -73.264700
  C    -65.233800    6.208000  -74.646100
  C    -64.439900    7.121780  -75.291300
  H    -65.998500    5.712190  -75.204600
  C    -65.371000    4.661500  -72.520700
  H    -64.581300    3.983410  -72.373500
  H    -66.070400    4.291390  -73.195900
  C    -66.024900    4.868360  -71.150100
  H    -66.285300    3.898230  -70.734600
  H    -65.301300    5.288010  -70.433100
  C    -67.240100    5.827830  -71.269800
  H    -67.917200    5.775670  -70.400500
  H    -66.920200    6.841030  -71.525100
  H    -67.808000    5.608400  -72.168900
  S    -62.896300    8.042470  -77.390600
  C    -63.509100    7.971640  -79.045700
  C    -64.865100    7.713190  -79.011100
  C    -65.366900    7.376860  -77.717600
  C    -64.395800    7.485600  -76.695800
  H    -65.516600    7.738800  -79.902500
  C    -66.905500    7.101500  -77.486900
  H    -67.044300    7.124460  -76.419900
  H    -67.109200    6.095480  -77.858500
  C    -67.842400    8.118710  -78.158300
  H    -67.642900    8.382650  -79.184400
  H    -67.625000    9.064100  -77.650400
  C    -69.362100    7.786630  -77.899700
  H    -69.959700    8.430610  -78.500400
  H    -69.705000    7.817480  -76.794900
  H    -69.523200    6.799770  -78.286300
  H    -63.606500    6.745630  -71.779400
  H    -62.947300    8.446090  -79.831500

 Total Charge           Charge          ....    0
 Multiplicity           Mult            ....    1
 Number of Electrons    NEL             ....  134
 Basis Dimension        Dim             ....  322

ORBITAL ENERGIES
----------------

  NO   OCC          E(Eh)            E(eV)
   0   2.0000     -88.968180     -2420.9473
   1   2.0000     -88.965406     -2420.8718
   2   2.0000     -10.333008      -281.1754
   3   2.0000     -10.327895      -281.0363
   4   2.0000     -10.320123      -280.8248
   5   2.0000     -10.318790      -280.7885
   6   2.0000     -10.308330      -280.5039
   7   2.0000     -10.305453      -280.4256
   8   2.0000     -10.299964      -280.2763
   9   2.0000     -10.297045      -280.1968
  10   2.0000     -10.293003      -280.0868
  11   2.0000     -10.291671      -280.0506
  12   2.0000     -10.290111      -280.0082
  13   2.0000     -10.286913      -279.9211
  14   2.0000     -10.285060      -279.8707
  15   2.0000     -10.278465      -279.6913
  16   2.0000      -8.083300      -219.9578
  17   2.0000      -8.080162      -219.8724
  18   2.0000      -6.042013      -164.4115
  19   2.0000      -6.038768      -164.3232
  20   2.0000      -6.037670      -164.2934
  21   2.0000      -6.034580      -164.2093
  22   2.0000      -6.033892      -164.1905
  23   2.0000      -6.030901      -164.1092
  24   2.0000      -1.010454       -27.4958
  25   2.0000      -0.983714       -26.7682
  26   2.0000      -0.919189       -25.0124
  27   2.0000      -0.903582       -24.5877
  28   2.0000      -0.869089       -23.6491
  29   2.0000      -0.848677       -23.0937
  30   2.0000      -0.840255       -22.8645
  31   2.0000      -0.812331       -22.1046
  32   2.0000      -0.786899       -21.4126
  33   2.0000      -0.774632       -21.0788
  34   2.0000      -0.713243       -19.4083
  35   2.0000      -0.706285       -19.2190
  36   2.0000      -0.698835       -19.0163
  37   2.0000      -0.659624       -17.9493
  38   2.0000      -0.631538       -17.1850
  39   2.0000      -0.616489       -16.7755
  40   2.0000      -0.597109       -16.2482
  41   2.0000      -0.573867       -15.6157
  42   2.0000      -0.562836       -15.3156
  43   2.0000      -0.559089       -15.2136
  44   2.0000      -0.542667       -14.7667
  45   2.0000      -0.528008       -14.3678
  46   2.0000      -0.516823       -14.0635
  47   2.0000      -0.511548       -13.9199
  48   2.0000      -0.504618       -13.7313
  49   2.0000      -0.498014       -13.5516
  50   2.0000      -0.487952       -13.2778
  51   2.0000      -0.478948       -13.0328
  52   2.0000      -0.473788       -12.8924
  53   2.0000      -0.464264       -12.6333
  54   2.0000      -0.459381       -12.5004
  55   2.0000      -0.451284       -12.2801
  56   2.0000      -0.444124       -12.0852
  57   2.0000      -0.441549       -12.0151
  58   2.0000      -0.436093       -11.8667
  59   2.0000      -0.431615       -11.7448
  60   2.0000      -0.420345       -11.4382
  61   2.0000      -0.417913       -11.3720
  62   2.0000      -0.410297       -11.1647
  63   2.0000      -0.358904        -9.7663
  64   2.0000      -0.332593        -9.0503
  65   2.0000      -0.328065        -8.9271
  66   2.0000      -0.285488        -7.7685
  67   0.0000       0.019672         0.5353
  68   0.0000       0.076079         2.0702
  69   0.0000       0.104095         2.8326
  70   0.0000       0.118668         3.2291
  71   0.0000       0.133899         3.6436

MULLIKEN ATOMIC CHARGES
-----------------------
   0 S :    0.109560
   1 C :   -0.126508
   2 C :   -0.135558
   3 C :    0.002503
   4 C :   -0.115817
   5 H :   -0.004451
   6 C :    0.126282
   7 H :    0.036238
   8 H :    0.003014
   9 C :   -0.079298
  10 H :    0.029869
  11 H :    0.030346
  12 C :   -0.056057
  13 H :    0.046009
  14 H :    0.041018
  15 H :    0.014029
  16 S :    0.089206
  17 C :   -0.090807
  18 C :   -0.034119
  19 C :   -0.078301
  20 C :   -0.123518
  21 H :    0.031350
  22 C :    0.075418
  23 H :    0.026264
  24 H :    0.033509
  25 C :   -0.094396
  26 H :    0.028225
  27 H :    0.031212
  28 C :   -0.045846
  29 H :    0.028432
  30 H :    0.053767
  31 H :    0.021471
  32 H :    0.059536
  33 H :    0.067419
Sum of atomic charges:   -0.0000000

LOEWDIN ATOMIC CHARGES
----------------------
   0 S :    0.417814
   1 C :   -0.201245
   2 C :   -0.057238
   3 C :   -0.071910
   4 C :   -0.207415
   5 H :    0.020562
   6 C :   -0.021156
   7 H :    0.033039
   8 H :    0.023469
   9 C :   -0.036553
  10 H :    0.024075
  11 H :    0.022625
  12 C :   -0.070226
  13 H :    0.028758
  14 H :    0.029605
  15 H :    0.021726
  16 S :    0.401304
  17 C :   -0.182493
  18 C :   -0.070404
  19 C :   -0.058002
  20 C :   -0.199296
  21 H :    0.035817
  22 C :   -0.026642
  23 H :    0.027313
  24 H :    0.027684
  25 C :   -0.042792
  26 H :    0.019824
  27 H :    0.028239
  28 C :   -0.063906
  29 H :    0.021662
  30 H :    0.038406
  31 H :    0.019030
  32 H :    0.039368
  33 H :    0.028955

  Mayer bond orders larger than 0.100000
B(  0-S ,  1-C ) :   1.1281 B(  0-S ,  4-C ) :   1.1479 B(  1-C ,  2-C ) :   1.6205
B(  1-C , 32-H ) :   0.9609 B(  2-C ,  3-C ) :   1.2421 B(  2-C ,  6-C ) :   1.0067
B(  3-C ,  4-C ) :   1.5791 B(  3-C ,  5-H ) :   0.9856 B(  4-C , 20-C ) :   1.0573
B(  6-C ,  7-H ) :   0.9368 B(  6-C ,  8-H ) :   0.9342 B(  6-C ,  9-C ) :   1.0831
B(  9-C , 10-H ) :   0.9569 B(  9-C , 11-H ) :   0.9563 B(  9-C , 12-C ) :   1.0660
B( 12-C , 13-H ) :   0.9766 B( 12-C , 14-H ) :   0.9693 B( 12-C , 15-H ) :   0.9763
B( 16-S , 17-C ) :   1.1544 B( 16-S , 20-C ) :   1.1487 B( 17-C , 18-C ) :   1.5746
B( 17-C , 20-C ) :   0.1072 B( 17-C , 33-H ) :   0.9688 B( 18-C , 19-C ) :   1.2836
B( 18-C , 21-H ) :   0.9821 B( 19-C , 20-C ) :   1.5640 B( 19-C , 22-C ) :   1.0211
B( 22-C , 23-H ) :   0.9394 B( 22-C , 24-H ) :   0.9345 B( 22-C , 25-C ) :   1.0603
B( 25-C , 26-H ) :   0.9580 B( 25-C , 27-H ) :   0.9539 B( 25-C , 28-C ) :   1.0765
B( 28-C , 29-H ) :   0.9748 B( 28-C , 30-H ) :   0.9761 B( 28-C , 31-H ) :   0.9766

Dispersion correction           -0.013766964
FINAL SINGLE POINT ENERGY     -1339.873589197462

DIPOLE MOMENT
-------------
                                X             Y             Z
Electronic contribution:     27.29606       8.39245      -7.14156
Nuclear contribution   :    -27.93017      -8.66481       7.11905
                        -----------------------------------------
Total Dipole Moment    :     -0.63411      -0.27236      -0.02251
                        -----------------------------------------
Magnitude (a.u.)       :      0.69050
Magnitude (Debye)      :      1.75511

Rotational constants in cm-1:     0.017746     0.008614     0.006223
Rotational constants in MHz :   532.018605   258.247508   186.570814

                             ****ORCA TERMINATED NORMALLY****
TOTAL RUN TIME: 0 days 0 hours 0 minutes 21 seconds 211 msec
