                         Program Version 4.2.1 -  RELEASE  -
|  1> ! wB97X-D3 SP def2-SVP
|  2> %pal
|  3> nprocs 24
|  4> end
|  5>
|  6> * xyz 0 1
|  7> S 	 -59.6596 	 9.00176 	 -14.7016
|  8> C 	 -58.7596 	 7.52168 	 -15.0297
|  9> C 	 -59.3427 	 6.3388 	 -14.6755
| 10> C 	 -60.6557 	 6.72197 	 -14.1211
| 11> C 	 -60.9538 	 8.06353 	 -14.0878
| 12> H 	 -61.3629 	 6.04227 	 -13.5601
| 13> C 	 -58.9768 	 4.92827 	 -14.9867
| 14> H 	 -59.0063 	 4.49073 	 -14.0008
| 15> H 	 -57.9248 	 4.7404 	 -15.346
| 16> C 	 -60.0853 	 4.22193 	 -15.8277
| 17> H 	 -60.9713 	 4.25893 	 -15.1733
| 18> H 	 -60.335 	 4.81847 	 -16.7034
| 19> C 	 -59.8042 	 2.77862 	 -16.176
| 20> H 	 -59.9494 	 2.10791 	 -15.3459
| 21> H 	 -60.5108 	 2.38159 	 -16.9375
| 22> H 	 -58.7289 	 2.74583 	 -16.4956
| 23> S 	 -61.9564 	 9.96958 	 -12.3125
| 24> C 	 -63.7159 	 10.0952 	 -12.0973
| 25> C 	 -64.3705 	 9.23697 	 -12.9811
| 26> C 	 -63.5254 	 8.40101 	 -13.7499
| 27> C 	 -62.1842 	 8.68413 	 -13.5139
| 28> H 	 -65.4276 	 9.33756 	 -13.0866
| 29> C 	 -64.0101 	 7.52643 	 -14.8396
| 30> H 	 -63.1791 	 6.89503 	 -15.2124
| 31> H 	 -64.157 	 8.18388 	 -15.7218
| 32> C 	 -65.2968 	 6.75684 	 -14.5979
| 33> H 	 -65.6466 	 6.25046 	 -15.576
| 34> H 	 -66.1307 	 7.41707 	 -14.4571
| 35> C 	 -65.2394 	 5.77991 	 -13.4405
| 36> H 	 -64.5219 	 4.95434 	 -13.6171
| 37> H 	 -66.2285 	 5.36648 	 -13.1996
| 38> H 	 -64.9166 	 6.29682 	 -12.567
| 39> H 	 -57.7019 	 7.55476 	 -15.4738
| 40> H 	 -64.1444 	 10.7342 	 -11.4145
| 41> *
| 42>
| 43>                          ****END OF INPUT****

CARTESIAN COORDINATES (ANGSTROEM)
---------------------------------
  S    -59.659600    9.001760  -14.701600
  C    -58.759600    7.521680  -15.029700
  C    -59.342700    6.338800  -14.675500
  C    -60.655700    6.721970  -14.121100
  C    -60.953800    8.063530  -14.087800
  H    -61.362900    6.042270  -13.560100
  C    -58.976800    4.928270  -14.986700
  H    -59.006300    4.490730  -14.000800
  H    -57.924800    4.740400  -15.346000
  C    -60.085300    4.221930  -15.827700
  H    -60.971300    4.258930  -15.173300
  H    -60.335000    4.818470  -16.703400
  C    -59.804200    2.778620  -16.176000
  H    -59.949400    2.107910  -15.345900
  H    -60.510800    2.381590  -16.937500
  H    -58.728900    2.745830  -16.495600
  S    -61.956400    9.969580  -12.312500
  C    -63.715900   10.095200  -12.097300
  C    -64.370500    9.236970  -12.981100
  C    -63.525400    8.401010  -13.749900
  C    -62.184200    8.684130  -13.513900
  H    -65.427600    9.337560  -13.086600
  C    -64.010100    7.526430  -14.839600
  H    -63.179100    6.895030  -15.212400
  H    -64.157000    8.183880  -15.721800
  C    -65.296800    6.756840  -14.597900
  H    -65.646600    6.250460  -15.576000
  H    -66.130700    7.417070  -14.457100
  C    -65.239400    5.779910  -13.440500
  H    -64.521900    4.954340  -13.617100
  H    -66.228500    5.366480  -13.199600
  H    -64.916600    6.296820  -12.567000
  H    -57.701900    7.554760  -15.473800
  H    -64.144400   10.734200  -11.414500

 Total Charge           Charge          ....    0
 Multiplicity           Mult            ....    1
 Number of Electrons    NEL             ....  134
 Basis Dimension        Dim             ....  322

ORBITAL ENERGIES
----------------

  NO   OCC          E(Eh)            E(eV)
   0   2.0000     -88.965902     -2420.8853
   1   2.0000     -88.965846     -2420.8838
   2   2.0000     -10.329576      -281.0820
   3   2.0000     -10.326540      -280.9994
   4   2.0000     -10.317490      -280.7532
   5   2.0000     -10.317322      -280.7486
   6   2.0000     -10.305916      -280.4382
   7   2.0000     -10.302044      -280.3329
   8   2.0000     -10.300243      -280.2839
   9   2.0000     -10.297858      -280.2190
  10   2.0000     -10.294333      -280.1230
  11   2.0000     -10.289934      -280.0033
  12   2.0000     -10.289897      -280.0023
  13   2.0000     -10.289619      -279.9948
  14   2.0000     -10.283744      -279.8349
  15   2.0000     -10.274886      -279.5939
  16   2.0000      -8.081206      -219.9008
  17   2.0000      -8.079895      -219.8651
  18   2.0000      -6.039723      -164.3492
  19   2.0000      -6.038352      -164.3119
  20   2.0000      -6.035808      -164.2427
  21   2.0000      -6.034523      -164.2077
  22   2.0000      -6.031740      -164.1320
  23   2.0000      -6.030740      -164.1048
  24   2.0000      -1.005101       -27.3502
  25   2.0000      -0.982839       -26.7444
  26   2.0000      -0.916797       -24.9473
  27   2.0000      -0.911985       -24.8164
  28   2.0000      -0.867608       -23.6088
  29   2.0000      -0.851755       -23.1774
  30   2.0000      -0.844291       -22.9743
  31   2.0000      -0.811138       -22.0722
  32   2.0000      -0.785882       -21.3849
  33   2.0000      -0.776112       -21.1191
  34   2.0000      -0.706187       -19.2163
  35   2.0000      -0.700752       -19.0684
  36   2.0000      -0.691354       -18.8127
  37   2.0000      -0.657171       -17.8825
  38   2.0000      -0.637885       -17.3577
  39   2.0000      -0.615969       -16.7614
  40   2.0000      -0.601222       -16.3601
  41   2.0000      -0.566715       -15.4211
  42   2.0000      -0.561948       -15.2914
  43   2.0000      -0.555648       -15.1199
  44   2.0000      -0.537245       -14.6192
  45   2.0000      -0.526812       -14.3353
  46   2.0000      -0.523304       -14.2398
  47   2.0000      -0.511893       -13.9293
  48   2.0000      -0.501056       -13.6344
  49   2.0000      -0.492942       -13.4136
  50   2.0000      -0.485850       -13.2207
  51   2.0000      -0.483734       -13.1631
  52   2.0000      -0.471641       -12.8340
  53   2.0000      -0.459957       -12.5161
  54   2.0000      -0.455685       -12.3998
  55   2.0000      -0.450089       -12.2475
  56   2.0000      -0.443331       -12.0636
  57   2.0000      -0.437624       -11.9084
  58   2.0000      -0.434936       -11.8352
  59   2.0000      -0.431495       -11.7416
  60   2.0000      -0.423686       -11.5291
  61   2.0000      -0.417916       -11.3721
  62   2.0000      -0.412009       -11.2113
  63   2.0000      -0.344602        -9.3771
  64   2.0000      -0.330625        -8.9968
  65   2.0000      -0.327818        -8.9204
  66   2.0000      -0.292313        -7.9543
  67   0.0000       0.033952         0.9239
  68   0.0000       0.072558         1.9744
  69   0.0000       0.108355         2.9485
  70   0.0000       0.118934         3.2363
  71   0.0000       0.123998         3.3741

MULLIKEN ATOMIC CHARGES
-----------------------
   0 S :    0.114385
   1 C :   -0.162070
   2 C :   -0.059302
   3 C :   -0.026440
   4 C :   -0.159253
   5 H :    0.037599
   6 C :    0.068636
   7 H :    0.028080
   8 H :    0.032571
   9 C :   -0.102099
  10 H :    0.028769
  11 H :    0.042080
  12 C :   -0.035604
  13 H :    0.027134
  14 H :    0.043138
  15 H :    0.036632
  16 S :    0.097943
  17 C :   -0.069536
  18 C :   -0.030428
  19 C :   -0.020803
  20 C :   -0.157995
  21 H :    0.014472
  22 C :    0.062798
  23 H :    0.025645
  24 H :    0.044475
  25 C :   -0.087680
  26 H :    0.032510
  27 H :    0.017033
  28 C :   -0.034214
  29 H :    0.031607
  30 H :    0.032928
  31 H :    0.029942
  32 H :    0.066297
  33 H :    0.030750
Sum of atomic charges:   -0.0000000

LOEWDIN ATOMIC CHARGES
----------------------
   0 S :    0.406641
   1 C :   -0.201878
   2 C :   -0.062808
   3 C :   -0.073487
   4 C :   -0.210473
   5 H :    0.036394
   6 C :   -0.034885
   7 H :    0.035325
   8 H :    0.033798
   9 C :   -0.041084
  10 H :    0.025053
  11 H :    0.025756
  12 C :   -0.069005
  13 H :    0.022537
  14 H :    0.033839
  15 H :    0.030365
  16 S :    0.385232
  17 C :   -0.159373
  18 C :   -0.064714
  19 C :   -0.060312
  20 C :   -0.187926
  21 H :    0.028038
  22 C :   -0.040244
  23 H :    0.034755
  24 H :    0.044245
  25 C :   -0.049099
  26 H :    0.033414
  27 H :    0.017526
  28 C :   -0.065199
  29 H :    0.026647
  30 H :    0.028343
  31 H :    0.022036
  32 H :    0.038596
  33 H :    0.011946

  Mayer bond orders larger than 0.100000
B(  0-S ,  1-C ) :   1.1272 B(  0-S ,  4-C ) :   1.1408 B(  1-C ,  2-C ) :   1.6692
B(  1-C , 32-H ) :   0.9495 B(  2-C ,  3-C ) :   1.1863 B(  2-C ,  6-C ) :   1.0310
B(  3-C ,  4-C ) :   1.6383 B(  3-C ,  5-H ) :   0.9724 B(  4-C , 20-C ) :   1.0048
B(  6-C ,  7-H ) :   0.9247 B(  6-C ,  8-H ) :   0.9453 B(  6-C ,  9-C ) :   1.0532
B(  9-C , 10-H ) :   0.9472 B(  9-C , 11-H ) :   0.9630 B(  9-C , 12-C ) :   1.0865
B( 12-C , 13-H ) :   0.9741 B( 12-C , 14-H ) :   0.9724 B( 12-C , 15-H ) :   0.9738
B( 16-S , 17-C ) :   1.1501 B( 16-S , 20-C ) :   1.1455 B( 17-C , 18-C ) :   1.5984
B( 17-C , 20-C ) :   0.1062 B( 17-C , 33-H ) :   0.9813 B( 18-C , 19-C ) :   1.2292
B( 18-C , 21-H ) :   0.9933 B( 19-C , 20-C ) :   1.5903 B( 19-C , 22-C ) :   1.0496
B( 22-C , 23-H ) :   0.9294 B( 22-C , 24-H ) :   0.9246 B( 22-C , 25-C ) :   1.0752
B( 25-C , 26-H ) :   0.9508 B( 25-C , 27-H ) :   0.9483 B( 25-C , 28-C ) :   1.0807
B( 28-C , 29-H ) :   0.9743 B( 28-C , 30-H ) :   0.9726 B( 28-C , 31-H ) :   0.9711

Dispersion correction           -0.014452570
FINAL SINGLE POINT ENERGY     -1339.884089238621

DIPOLE MOMENT
-------------
                                X             Y             Z
Electronic contribution:      9.94394      28.18982       8.99190
Nuclear contribution   :    -10.29311     -28.74006      -9.17146
                        -----------------------------------------
Total Dipole Moment    :     -0.34918      -0.55024      -0.17956
                        -----------------------------------------
Magnitude (a.u.)       :      0.67597
Magnitude (Debye)      :      1.71817

Rotational constants in cm-1:     0.017560     0.009451     0.006601
Rotational constants in MHz :   526.449352   283.335171   197.895590

                             ****ORCA TERMINATED NORMALLY****
TOTAL RUN TIME: 0 days 0 hours 0 minutes 22 seconds 34 msec
