                         Program Version 4.2.1 -  RELEASE  -
|  1> ! wB97X-D3 SP def2-SVP
|  2> %pal
|  3> nprocs 24
|  4> end
|  5>
|  6> * xyz 0 1
|  7> S 	 -38.5383 	 -45.7174 	 -80.7024
|  8> C 	 -37.9038 	 -47.0824 	 -81.6984
|  9> C 	 -38.9178 	 -48.0024 	 -81.8963
| 10> C 	 -40.0878 	 -47.6468 	 -81.1452
| 11> C 	 -39.9998 	 -46.5654 	 -80.3363
| 12> H 	 -40.9802 	 -48.1376 	 -81.1632
| 13> C 	 -38.789 	 -49.1748 	 -82.8932
| 14> H 	 -39.3058 	 -50.0701 	 -82.4711
| 15> H 	 -37.7358 	 -49.3491 	 -82.8853
| 16> C 	 -39.3671 	 -48.8916 	 -84.2852
| 17> H 	 -40.4356 	 -49.0038 	 -84.3178
| 18> H 	 -39.0763 	 -47.9329 	 -84.6871
| 19> C 	 -38.7909 	 -49.8674 	 -85.3089
| 20> H 	 -39.195 	 -49.6299 	 -86.2564
| 21> H 	 -37.7384 	 -49.9937 	 -85.2958
| 22> H 	 -39.2163 	 -50.8133 	 -85.0126
| 23> S 	 -41.0845 	 -44.3182 	 -79.3026
| 24> C 	 -42.2845 	 -44.4062 	 -78.0982
| 25> C 	 -42.7402 	 -45.6755 	 -77.7817
| 26> C 	 -42.0956 	 -46.6421 	 -78.6539
| 27> C 	 -41.1125 	 -46.0825 	 -79.4765
| 28> H 	 -43.5024 	 -45.8007 	 -77.0402
| 29> C 	 -42.3562 	 -48.0879 	 -78.5178
| 30> H 	 -42.4094 	 -48.3004 	 -77.4524
| 31> H 	 -41.4021 	 -48.6768 	 -78.7646
| 32> C 	 -43.588 	 -48.6208 	 -79.2943
| 33> H 	 -43.5648 	 -49.7775 	 -79.2454
| 34> H 	 -43.3173 	 -48.3481 	 -80.3009
| 35> C 	 -44.9389 	 -47.8412 	 -78.9301
| 36> H 	 -45.7941 	 -48.1248 	 -79.5845
| 37> H 	 -44.9925 	 -46.8265 	 -78.9964
| 38> H 	 -45.1961 	 -48.1804 	 -77.8903
| 39> H 	 -36.9211 	 -47.1555 	 -82.1356
| 40> H 	 -42.9357 	 -43.6133 	 -77.8117
| 41> *
| 42>
| 43>                          ****END OF INPUT****

CARTESIAN COORDINATES (ANGSTROEM)
---------------------------------
  S    -38.538300  -45.717400  -80.702400
  C    -37.903800  -47.082400  -81.698400
  C    -38.917800  -48.002400  -81.896300
  C    -40.087800  -47.646800  -81.145200
  C    -39.999800  -46.565400  -80.336300
  H    -40.980200  -48.137600  -81.163200
  C    -38.789000  -49.174800  -82.893200
  H    -39.305800  -50.070100  -82.471100
  H    -37.735800  -49.349100  -82.885300
  C    -39.367100  -48.891600  -84.285200
  H    -40.435600  -49.003800  -84.317800
  H    -39.076300  -47.932900  -84.687100
  C    -38.790900  -49.867400  -85.308900
  H    -39.195000  -49.629900  -86.256400
  H    -37.738400  -49.993700  -85.295800
  H    -39.216300  -50.813300  -85.012600
  S    -41.084500  -44.318200  -79.302600
  C    -42.284500  -44.406200  -78.098200
  C    -42.740200  -45.675500  -77.781700
  C    -42.095600  -46.642100  -78.653900
  C    -41.112500  -46.082500  -79.476500
  H    -43.502400  -45.800700  -77.040200
  C    -42.356200  -48.087900  -78.517800
  H    -42.409400  -48.300400  -77.452400
  H    -41.402100  -48.676800  -78.764600
  C    -43.588000  -48.620800  -79.294300
  H    -43.564800  -49.777500  -79.245400
  H    -43.317300  -48.348100  -80.300900
  C    -44.938900  -47.841200  -78.930100
  H    -45.794100  -48.124800  -79.584500
  H    -44.992500  -46.826500  -78.996400
  H    -45.196100  -48.180400  -77.890300
  H    -36.921100  -47.155500  -82.135600
  H    -42.935700  -43.613300  -77.811700

 Total Charge           Charge          ....    0
 Multiplicity           Mult            ....    1
 Number of Electrons    NEL             ....  134
 Basis Dimension        Dim             ....  322

ORBITAL ENERGIES
----------------

  NO   OCC          E(Eh)            E(eV)
   0   2.0000     -88.965283     -2420.8684
   1   2.0000     -88.965113     -2420.8638
   2   2.0000     -10.333550      -281.1902
   3   2.0000     -10.328786      -281.0606
   4   2.0000     -10.316938      -280.7382
   5   2.0000     -10.311240      -280.5831
   6   2.0000     -10.308407      -280.5060
   7   2.0000     -10.303005      -280.3590
   8   2.0000     -10.302468      -280.3444
   9   2.0000     -10.296938      -280.1939
  10   2.0000     -10.296252      -280.1752
  11   2.0000     -10.292393      -280.0702
  12   2.0000     -10.284154      -279.8461
  13   2.0000     -10.283729      -279.8345
  14   2.0000     -10.280571      -279.7486
  15   2.0000     -10.269051      -279.4351
  16   2.0000      -8.080773      -219.8890
  17   2.0000      -8.079274      -219.8482
  18   2.0000      -6.039171      -164.3342
  19   2.0000      -6.038019      -164.3028
  20   2.0000      -6.035191      -164.2259
  21   2.0000      -6.034000      -164.1935
  22   2.0000      -6.031609      -164.1284
  23   2.0000      -6.029660      -164.0754
  24   2.0000      -1.007678       -27.4203
  25   2.0000      -0.984529       -26.7904
  26   2.0000      -0.914491       -24.8846
  27   2.0000      -0.908233       -24.7143
  28   2.0000      -0.871427       -23.7127
  29   2.0000      -0.848015       -23.0757
  30   2.0000      -0.841812       -22.9069
  31   2.0000      -0.819520       -22.3003
  32   2.0000      -0.785494       -21.3744
  33   2.0000      -0.774285       -21.0694
  34   2.0000      -0.712755       -19.3950
  35   2.0000      -0.701191       -19.0804
  36   2.0000      -0.690887       -18.8000
  37   2.0000      -0.665835       -18.1183
  38   2.0000      -0.642524       -17.4840
  39   2.0000      -0.621570       -16.9138
  40   2.0000      -0.592629       -16.1263
  41   2.0000      -0.578420       -15.7396
  42   2.0000      -0.564987       -15.3741
  43   2.0000      -0.548196       -14.9172
  44   2.0000      -0.540262       -14.7013
  45   2.0000      -0.530627       -14.4391
  46   2.0000      -0.514016       -13.9871
  47   2.0000      -0.511739       -13.9251
  48   2.0000      -0.506729       -13.7888
  49   2.0000      -0.503827       -13.7098
  50   2.0000      -0.493573       -13.4308
  51   2.0000      -0.482023       -13.1165
  52   2.0000      -0.469016       -12.7626
  53   2.0000      -0.465652       -12.6710
  54   2.0000      -0.459024       -12.4907
  55   2.0000      -0.452017       -12.3000
  56   2.0000      -0.447106       -12.1664
  57   2.0000      -0.437721       -11.9110
  58   2.0000      -0.432338       -11.7645
  59   2.0000      -0.428111       -11.6495
  60   2.0000      -0.422704       -11.5024
  61   2.0000      -0.409328       -11.1384
  62   2.0000      -0.407283       -11.0827
  63   2.0000      -0.356544        -9.7020
  64   2.0000      -0.333149        -9.0654
  65   2.0000      -0.326790        -8.8924
  66   2.0000      -0.286896        -7.8068
  67   0.0000       0.025333         0.6894
  68   0.0000       0.073342         1.9957
  69   0.0000       0.101196         2.7537
  70   0.0000       0.116537         3.1711
  71   0.0000       0.133727         3.6389

MULLIKEN ATOMIC CHARGES
-----------------------
   0 S :    0.091479
   1 C :   -0.128858
   2 C :   -0.071254
   3 C :    0.025073
   4 C :   -0.070035
   5 H :   -0.048101
   6 C :    0.073875
   7 H :    0.032528
   8 H :    0.012183
   9 C :   -0.053794
  10 H :    0.030941
  11 H :    0.026313
  12 C :   -0.017543
  13 H :    0.026361
  14 H :    0.027411
  15 H :    0.008627
  16 S :    0.096357
  17 C :   -0.063710
  18 C :   -0.043786
  19 C :   -0.054818
  20 C :   -0.145124
  21 H :    0.019948
  22 C :   -0.002571
  23 H :    0.023844
  24 H :    0.039023
  25 C :   -0.057699
  26 H :    0.056026
  27 H :    0.025031
  28 C :   -0.054501
  29 H :    0.036226
  30 H :    0.028633
  31 H :    0.035075
  32 H :    0.046496
  33 H :    0.050343
Sum of atomic charges:    0.0000000

LOEWDIN ATOMIC CHARGES
----------------------
   0 S :    0.382213
   1 C :   -0.182507
   2 C :   -0.054654
   3 C :   -0.066710
   4 C :   -0.192933
   5 H :    0.009842
   6 C :   -0.025555
   7 H :    0.034732
   8 H :    0.025974
   9 C :   -0.032720
  10 H :    0.024809
  11 H :    0.021690
  12 C :   -0.053883
  13 H :    0.021390
  14 H :    0.018626
  15 H :    0.020799
  16 S :    0.410920
  17 C :   -0.196077
  18 C :   -0.063703
  19 C :   -0.055599
  20 C :   -0.176289
  21 H :    0.031499
  22 C :   -0.050058
  23 H :    0.026692
  24 H :    0.039329
  25 C :   -0.037475
  26 H :    0.039004
  27 H :    0.016623
  28 C :   -0.065449
  29 H :    0.033283
  30 H :    0.012168
  31 H :    0.029907
  32 H :    0.028385
  33 H :    0.025727

  Mayer bond orders larger than 0.100000
B(  0-S ,  1-C ) :   1.1130 B(  0-S ,  4-C ) :   1.1349 B(  1-C ,  2-C ) :   1.6181
B(  1-C , 32-H ) :   0.9714 B(  2-C ,  3-C ) :   1.2195 B(  2-C ,  6-C ) :   1.0227
B(  3-C ,  4-C ) :   1.5727 B(  3-C ,  5-H ) :   1.0201 B(  4-C , 20-C ) :   1.0478
B(  6-C ,  7-H ) :   0.9367 B(  6-C ,  8-H ) :   0.9420 B(  6-C ,  9-C ) :   1.0650
B(  9-C , 10-H ) :   0.9544 B(  9-C , 11-H ) :   0.9614 B(  9-C , 12-C ) :   1.0838
B( 12-C , 13-H ) :   0.9741 B( 12-C , 14-H ) :   0.9788 B( 12-C , 15-H ) :   0.9729
B( 16-S , 17-C ) :   1.1707 B( 16-S , 20-C ) :   1.1268 B( 17-C , 18-C ) :   1.6181
B( 17-C , 33-H ) :   0.9586 B( 18-C , 19-C ) :   1.2299 B( 18-C , 21-H ) :   0.9927
B( 19-C , 20-C ) :   1.6007 B( 19-C , 22-C ) :   1.0439 B( 22-C , 23-H ) :   0.9383
B( 22-C , 24-H ) :   0.9369 B( 22-C , 25-C ) :   1.0495 B( 25-C , 26-H ) :   0.9594
B( 25-C , 27-H ) :   0.9534 B( 25-C , 28-C ) :   1.0613 B( 28-C , 29-H ) :   0.9740
B( 28-C , 30-H ) :   0.9727 B( 28-C , 31-H ) :   0.9792

Dispersion correction           -0.014102385
FINAL SINGLE POINT ENERGY     -1339.850702266811

DIPOLE MOMENT
-------------
                                X             Y             Z
Electronic contribution:     10.56816      23.43223      11.59961
Nuclear contribution   :    -10.99834     -23.99863     -11.82652
                        -----------------------------------------
Total Dipole Moment    :     -0.43017      -0.56640      -0.22691
                        -----------------------------------------
Magnitude (a.u.)       :      0.74656
Magnitude (Debye)      :      1.89760

Rotational constants in cm-1:     0.019989     0.008080     0.006173
Rotational constants in MHz :   599.257584   242.219108   185.072622

                             ****ORCA TERMINATED NORMALLY****
TOTAL RUN TIME: 0 days 0 hours 0 minutes 21 seconds 445 msec
