                         Program Version 4.2.1 -  RELEASE  -
|  1> ! wB97X-D3 SP def2-SVP
|  2> %pal
|  3> nprocs 24
|  4> end
|  5>
|  6> * xyz 0 1
|  7> S 	 -50.9715 	 -42.2096 	 -78.8553
|  8> C 	 -52.475 	 -41.932 	 -77.9136
|  9> C 	 -53.36 	 -42.9886 	 -78.1316
| 10> C 	 -52.8479 	 -44.0634 	 -78.9827
| 11> C 	 -51.5808 	 -43.7856 	 -79.4102
| 12> H 	 -53.3051 	 -44.9685 	 -79.2721
| 13> C 	 -54.8858 	 -42.921 	 -77.8188
| 14> H 	 -55.4419 	 -42.1502 	 -78.295
| 15> H 	 -55.1477 	 -42.7317 	 -76.8153
| 16> C 	 -55.7741 	 -44.2313 	 -78.1351
| 17> H 	 -55.7663 	 -44.3378 	 -79.2502
| 18> H 	 -55.21 	 -45.0497 	 -77.8009
| 19> C 	 -57.231 	 -44.0987 	 -77.5248
| 20> H 	 -57.8589 	 -44.9454 	 -77.5635
| 21> H 	 -56.9932 	 -44.0178 	 -76.4239
| 22> H 	 -57.8751 	 -43.2093 	 -77.8734
| 23> S 	 -50.4544 	 -46.1489 	 -79.4201
| 24> C 	 -49.5806 	 -46.7331 	 -80.8209
| 25> C 	 -49.6179 	 -45.8526 	 -81.839
| 26> C 	 -50.3209 	 -44.6702 	 -81.5099
| 27> C 	 -50.7838 	 -44.679 	 -80.2141
| 28> H 	 -49.1872 	 -46.0133 	 -82.8034
| 29> C 	 -50.472 	 -43.5834 	 -82.5828
| 30> H 	 -51.4761 	 -43.0918 	 -82.573
| 31> H 	 -50.406 	 -44.1108 	 -83.5597
| 32> C 	 -49.3983 	 -42.4638 	 -82.5043
| 33> H 	 -49.5637 	 -41.8859 	 -81.5507
| 34> H 	 -49.3893 	 -41.8245 	 -83.4131
| 35> C 	 -48.0207 	 -42.9564 	 -82.3453
| 36> H 	 -47.6422 	 -43.5713 	 -83.1342
| 37> H 	 -47.8111 	 -43.4041 	 -81.3267
| 38> H 	 -47.212 	 -42.1918 	 -82.2611
| 39> H 	 -52.6785 	 -40.9439 	 -77.4706
| 40> H 	 -49.0865 	 -47.7191 	 -80.9178
| 41> *
| 42>
| 43>                          ****END OF INPUT****

CARTESIAN COORDINATES (ANGSTROEM)
---------------------------------
  S    -50.971500  -42.209600  -78.855300
  C    -52.475000  -41.932000  -77.913600
  C    -53.360000  -42.988600  -78.131600
  C    -52.847900  -44.063400  -78.982700
  C    -51.580800  -43.785600  -79.410200
  H    -53.305100  -44.968500  -79.272100
  C    -54.885800  -42.921000  -77.818800
  H    -55.441900  -42.150200  -78.295000
  H    -55.147700  -42.731700  -76.815300
  C    -55.774100  -44.231300  -78.135100
  H    -55.766300  -44.337800  -79.250200
  H    -55.210000  -45.049700  -77.800900
  C    -57.231000  -44.098700  -77.524800
  H    -57.858900  -44.945400  -77.563500
  H    -56.993200  -44.017800  -76.423900
  H    -57.875100  -43.209300  -77.873400
  S    -50.454400  -46.148900  -79.420100
  C    -49.580600  -46.733100  -80.820900
  C    -49.617900  -45.852600  -81.839000
  C    -50.320900  -44.670200  -81.509900
  C    -50.783800  -44.679000  -80.214100
  H    -49.187200  -46.013300  -82.803400
  C    -50.472000  -43.583400  -82.582800
  H    -51.476100  -43.091800  -82.573000
  H    -50.406000  -44.110800  -83.559700
  C    -49.398300  -42.463800  -82.504300
  H    -49.563700  -41.885900  -81.550700
  H    -49.389300  -41.824500  -83.413100
  C    -48.020700  -42.956400  -82.345300
  H    -47.642200  -43.571300  -83.134200
  H    -47.811100  -43.404100  -81.326700
  H    -47.212000  -42.191800  -82.261100
  H    -52.678500  -40.943900  -77.470600
  H    -49.086500  -47.719100  -80.917800

 Total Charge           Charge          ....    0
 Multiplicity           Mult            ....    1
 Number of Electrons    NEL             ....  134
 Basis Dimension        Dim             ....  322

ORBITAL ENERGIES
----------------

  NO   OCC          E(Eh)            E(eV)
   0   2.0000     -88.967810     -2420.9372
   1   2.0000     -88.965627     -2420.8778
   2   2.0000     -10.330353      -281.1032
   3   2.0000     -10.323447      -280.9153
   4   2.0000     -10.318966      -280.7933
   5   2.0000     -10.315073      -280.6874
   6   2.0000     -10.313840      -280.6539
   7   2.0000     -10.299375      -280.2602
   8   2.0000     -10.296955      -280.1944
   9   2.0000     -10.296146      -280.1724
  10   2.0000     -10.294348      -280.1234
  11   2.0000     -10.292846      -280.0826
  12   2.0000     -10.289800      -279.9997
  13   2.0000     -10.287223      -279.9296
  14   2.0000     -10.286284      -279.9040
  15   2.0000     -10.270665      -279.4790
  16   2.0000      -8.081230      -219.9015
  17   2.0000      -8.081156      -219.8994
  18   2.0000      -6.039785      -164.3509
  19   2.0000      -6.039689      -164.3483
  20   2.0000      -6.035898      -164.2451
  21   2.0000      -6.035586      -164.2367
  22   2.0000      -6.032007      -164.1393
  23   2.0000      -6.031834      -164.1346
  24   2.0000      -1.013423       -27.5766
  25   2.0000      -0.980422       -26.6786
  26   2.0000      -0.908739       -24.7281
  27   2.0000      -0.898570       -24.4513
  28   2.0000      -0.874740       -23.8029
  29   2.0000      -0.848422       -23.0867
  30   2.0000      -0.840654       -22.8753
  31   2.0000      -0.815478       -22.1903
  32   2.0000      -0.780543       -21.2397
  33   2.0000      -0.769318       -20.9342
  34   2.0000      -0.712705       -19.3937
  35   2.0000      -0.694889       -18.9089
  36   2.0000      -0.683849       -18.6085
  37   2.0000      -0.667972       -18.1764
  38   2.0000      -0.646184       -17.5836
  39   2.0000      -0.619604       -16.8603
  40   2.0000      -0.594031       -16.1644
  41   2.0000      -0.563788       -15.3414
  42   2.0000      -0.559586       -15.2271
  43   2.0000      -0.558282       -15.1916
  44   2.0000      -0.539769       -14.6879
  45   2.0000      -0.520985       -14.1767
  46   2.0000      -0.514086       -13.9890
  47   2.0000      -0.513412       -13.9706
  48   2.0000      -0.499481       -13.5916
  49   2.0000      -0.491416       -13.3721
  50   2.0000      -0.483036       -13.1441
  51   2.0000      -0.478996       -13.0342
  52   2.0000      -0.476857       -12.9759
  53   2.0000      -0.465549       -12.6682
  54   2.0000      -0.459546       -12.5049
  55   2.0000      -0.449652       -12.2356
  56   2.0000      -0.443575       -12.0703
  57   2.0000      -0.434915       -11.8346
  58   2.0000      -0.429951       -11.6996
  59   2.0000      -0.423064       -11.5122
  60   2.0000      -0.413809       -11.2603
  61   2.0000      -0.410281       -11.1643
  62   2.0000      -0.404870       -11.0171
  63   2.0000      -0.341991        -9.3060
  64   2.0000      -0.338260        -9.2045
  65   2.0000      -0.325966        -8.8700
  66   2.0000      -0.301961        -8.2168
  67   0.0000       0.035916         0.9773
  68   0.0000       0.065350         1.7783
  69   0.0000       0.097634         2.6568
  70   0.0000       0.115734         3.1493
  71   0.0000       0.133055         3.6206

MULLIKEN ATOMIC CHARGES
-----------------------
   0 S :    0.097795
   1 C :   -0.140209
   2 C :   -0.018343
   3 C :    0.025609
   4 C :   -0.132561
   5 H :    0.009153
   6 C :    0.040403
   7 H :    0.027507
   8 H :    0.005918
   9 C :   -0.107439
  10 H :    0.038464
  11 H :    0.030018
  12 C :   -0.070764
  13 H :    0.032391
  14 H :    0.038429
  15 H :    0.056047
  16 S :    0.121388
  17 C :   -0.094796
  18 C :   -0.016801
  19 C :   -0.032881
  20 C :   -0.202106
  21 H :    0.007162
  22 C :    0.067506
  23 H :    0.043605
  24 H :    0.022523
  25 C :   -0.055101
  26 H :    0.036430
  27 H :    0.040999
  28 C :   -0.086123
  29 H :    0.019588
  30 H :    0.041540
  31 H :    0.023430
  32 H :    0.068887
  33 H :    0.062334
Sum of atomic charges:   -0.0000000

LOEWDIN ATOMIC CHARGES
----------------------
   0 S :    0.377157
   1 C :   -0.186552
   2 C :   -0.051494
   3 C :   -0.059971
   4 C :   -0.181937
   5 H :    0.027550
   6 C :   -0.031229
   7 H :    0.027161
   8 H :    0.019778
   9 C :   -0.038396
  10 H :    0.022476
  11 H :    0.013560
  12 C :   -0.074067
  13 H :    0.019791
  14 H :    0.033918
  15 H :    0.038383
  16 S :    0.435884
  17 C :   -0.190011
  18 C :   -0.066076
  19 C :   -0.058048
  20 C :   -0.216820
  21 H :    0.028876
  22 C :   -0.032179
  23 H :    0.037006
  24 H :    0.030655
  25 C :   -0.048864
  26 H :    0.027812
  27 H :    0.030026
  28 C :   -0.084455
  29 H :    0.014731
  30 H :    0.033601
  31 H :    0.029376
  32 H :    0.035773
  33 H :    0.036586

  Mayer bond orders larger than 0.100000
B(  0-S ,  1-C ) :   1.1152 B(  0-S ,  4-C ) :   1.1373 B(  1-C ,  2-C ) :   1.6422
B(  1-C , 32-H ) :   0.9718 B(  2-C ,  3-C ) :   1.1973 B(  2-C ,  6-C ) :   0.9986
B(  3-C ,  4-C ) :   1.6068 B(  3-C ,  5-H ) :   0.9967 B(  4-C , 20-C ) :   1.0122
B(  6-C ,  7-H ) :   0.9494 B(  6-C ,  8-H ) :   0.9458 B(  6-C ,  9-C ) :   1.0643
B(  9-C , 10-H ) :   0.9553 B(  9-C , 11-H ) :   0.9597 B(  9-C , 12-C ) :   1.0585
B( 12-C , 13-H ) :   0.9765 B( 12-C , 14-H ) :   0.9739 B( 12-C , 15-H ) :   0.9766
B( 16-S , 17-C ) :   1.1473 B( 16-S , 20-C ) :   1.1612 B( 17-C , 18-C ) :   1.6148
B( 17-C , 33-H ) :   0.9620 B( 18-C , 19-C ) :   1.2515 B( 18-C , 21-H ) :   0.9909
B( 19-C , 20-C ) :   1.5980 B( 19-C , 22-C ) :   1.0301 B( 22-C , 23-H ) :   0.9399
B( 22-C , 24-H ) :   0.9366 B( 22-C , 25-C ) :   1.0691 B( 25-C , 26-H ) :   0.9481
B( 25-C , 27-H ) :   0.9562 B( 25-C , 28-C ) :   1.0945 B( 28-C , 29-H ) :   0.9733
B( 28-C , 30-H ) :   0.9611 B( 28-C , 31-H ) :   0.9671

Dispersion correction           -0.014659612
FINAL SINGLE POINT ENERGY     -1339.861400210773

DIPOLE MOMENT
-------------
                                X             Y             Z
Electronic contribution:     11.87883      -5.02698       5.68122
Nuclear contribution   :    -12.22030       5.01991      -5.98716
                        -----------------------------------------
Total Dipole Moment    :     -0.34147      -0.00707      -0.30594
                        -----------------------------------------
Magnitude (a.u.)       :      0.45853
Magnitude (Debye)      :      1.16550

Rotational constants in cm-1:     0.022580     0.007707     0.006678
Rotational constants in MHz :   676.942186   231.064554   200.187436

                             ****ORCA TERMINATED NORMALLY****
TOTAL RUN TIME: 0 days 0 hours 0 minutes 20 seconds 302 msec
