                         Program Version 4.2.1 -  RELEASE  -
|  1> ! wB97X-D3 SP def2-SVP
|  2> %pal
|  3> nprocs 24
|  4> end
|  5>
|  6> * xyz 0 1
|  7> S 	 -33.0851 	 12.9017 	 -1.71934
|  8> C 	 -33.3946 	 11.2932 	 -2.38084
|  9> C 	 -33.904 	 10.4232 	 -1.44093
| 10> C 	 -34.0634 	 11.0493 	 -0.198422
| 11> C 	 -33.6928 	 12.3882 	 -0.231863
| 12> H 	 -34.4275 	 10.6818 	 0.730406
| 13> C 	 -34.1964 	 9.01071 	 -1.66956
| 14> H 	 -33.3595 	 8.31925 	 -1.50656
| 15> H 	 -34.403 	 8.89829 	 -2.72845
| 16> C 	 -35.3679 	 8.51273 	 -0.772208
| 17> H 	 -35.1512 	 8.658 	 0.3053
| 18> H 	 -36.2998 	 9.03032 	 -0.848951
| 19> C 	 -35.6561 	 6.99734 	 -0.833569
| 20> H 	 -36.365 	 6.55561 	 -0.135771
| 21> H 	 -36.0007 	 6.70711 	 -1.79165
| 22> H 	 -34.6422 	 6.5619 	 -0.606318
| 23> S 	 -32.3259 	 14.2856 	 1.33892
| 24> C 	 -32.9073 	 14.7521 	 2.88532
| 25> C 	 -34.2003 	 14.3963 	 3.07979
| 26> C 	 -34.6583 	 13.5684 	 1.9718
| 27> C 	 -33.7262 	 13.3223 	 0.965292
| 28> H 	 -34.7464 	 14.6765 	 3.96969
| 29> C 	 -36.1511 	 13.0457 	 1.98563
| 30> H 	 -36.3078 	 12.5697 	 2.97533
| 31> H 	 -36.1188 	 12.261 	 1.25064
| 32> C 	 -37.2263 	 14.0955 	 1.54726
| 33> H 	 -37.0851 	 15.0894 	 1.97395
| 34> H 	 -38.145 	 13.865 	 2.05995
| 35> C 	 -37.4436 	 14.1759 	 0.0374091
| 36> H 	 -37.7508 	 13.2165 	 -0.388423
| 37> H 	 -36.4987 	 14.4153 	 -0.533443
| 38> H 	 -38.3386 	 14.8341 	 -0.15697
| 39> H 	 -32.9558 	 10.8844 	 -3.32499
| 40> H 	 -32.2588 	 15.262 	 3.62897
| 41> *
| 42>
| 43>                          ****END OF INPUT****

CARTESIAN COORDINATES (ANGSTROEM)
---------------------------------
  S    -33.085100   12.901700   -1.719340
  C    -33.394600   11.293200   -2.380840
  C    -33.904000   10.423200   -1.440930
  C    -34.063400   11.049300   -0.198422
  C    -33.692800   12.388200   -0.231863
  H    -34.427500   10.681800    0.730406
  C    -34.196400    9.010710   -1.669560
  H    -33.359500    8.319250   -1.506560
  H    -34.403000    8.898290   -2.728450
  C    -35.367900    8.512730   -0.772208
  H    -35.151200    8.658000    0.305300
  H    -36.299800    9.030320   -0.848951
  C    -35.656100    6.997340   -0.833569
  H    -36.365000    6.555610   -0.135771
  H    -36.000700    6.707110   -1.791650
  H    -34.642200    6.561900   -0.606318
  S    -32.325900   14.285600    1.338920
  C    -32.907300   14.752100    2.885320
  C    -34.200300   14.396300    3.079790
  C    -34.658300   13.568400    1.971800
  C    -33.726200   13.322300    0.965292
  H    -34.746400   14.676500    3.969690
  C    -36.151100   13.045700    1.985630
  H    -36.307800   12.569700    2.975330
  H    -36.118800   12.261000    1.250640
  C    -37.226300   14.095500    1.547260
  H    -37.085100   15.089400    1.973950
  H    -38.145000   13.865000    2.059950
  C    -37.443600   14.175900    0.037409
  H    -37.750800   13.216500   -0.388423
  H    -36.498700   14.415300   -0.533443
  H    -38.338600   14.834100   -0.156970
  H    -32.955800   10.884400   -3.324990
  H    -32.258800   15.262000    3.628970

 Total Charge           Charge          ....    0
 Multiplicity           Mult            ....    1
 Number of Electrons    NEL             ....  134
 Basis Dimension        Dim             ....  322

ORBITAL ENERGIES
----------------

  NO   OCC          E(Eh)            E(eV)
   0   2.0000     -88.972054     -2421.0527
   1   2.0000     -88.960549     -2420.7396
   2   2.0000     -10.332578      -281.1637
   3   2.0000     -10.330084      -281.0959
   4   2.0000     -10.316633      -280.7298
   5   2.0000     -10.314105      -280.6611
   6   2.0000     -10.307392      -280.4784
   7   2.0000     -10.298293      -280.2308
   8   2.0000     -10.295242      -280.1478
   9   2.0000     -10.294062      -280.1157
  10   2.0000     -10.293190      -280.0919
  11   2.0000     -10.288717      -279.9702
  12   2.0000     -10.288695      -279.9696
  13   2.0000     -10.284965      -279.8681
  14   2.0000     -10.280599      -279.7493
  15   2.0000     -10.279143      -279.7097
  16   2.0000      -8.087382      -220.0689
  17   2.0000      -8.076484      -219.7723
  18   2.0000      -6.045746      -164.5131
  19   2.0000      -6.041799      -164.4057
  20   2.0000      -6.038285      -164.3101
  21   2.0000      -6.034958      -164.2196
  22   2.0000      -6.030783      -164.1059
  23   2.0000      -6.027254      -164.0099
  24   2.0000      -1.012282       -27.5456
  25   2.0000      -0.991495       -26.9799
  26   2.0000      -0.918487       -24.9933
  27   2.0000      -0.897393       -24.4193
  28   2.0000      -0.868087       -23.6218
  29   2.0000      -0.852336       -23.1932
  30   2.0000      -0.841564       -22.9001
  31   2.0000      -0.818200       -22.2644
  32   2.0000      -0.783036       -21.3075
  33   2.0000      -0.768088       -20.9007
  34   2.0000      -0.712139       -19.3783
  35   2.0000      -0.698845       -19.0165
  36   2.0000      -0.686104       -18.6698
  37   2.0000      -0.656731       -17.8706
  38   2.0000      -0.641901       -17.4670
  39   2.0000      -0.624790       -17.0014
  40   2.0000      -0.590308       -16.0631
  41   2.0000      -0.578179       -15.7331
  42   2.0000      -0.564349       -15.3567
  43   2.0000      -0.550702       -14.9854
  44   2.0000      -0.529320       -14.4035
  45   2.0000      -0.519701       -14.1418
  46   2.0000      -0.514719       -14.0062
  47   2.0000      -0.508534       -13.8379
  48   2.0000      -0.505868       -13.7654
  49   2.0000      -0.496747       -13.5172
  50   2.0000      -0.491859       -13.3842
  51   2.0000      -0.481904       -13.1133
  52   2.0000      -0.473047       -12.8723
  53   2.0000      -0.467412       -12.7189
  54   2.0000      -0.455562       -12.3965
  55   2.0000      -0.454603       -12.3704
  56   2.0000      -0.443421       -12.0661
  57   2.0000      -0.435528       -11.8513
  58   2.0000      -0.430365       -11.7108
  59   2.0000      -0.427768       -11.6402
  60   2.0000      -0.422961       -11.5093
  61   2.0000      -0.418801       -11.3961
  62   2.0000      -0.398758       -10.8508
  63   2.0000      -0.348578        -9.4853
  64   2.0000      -0.337421        -9.1817
  65   2.0000      -0.326245        -8.8776
  66   2.0000      -0.293751        -7.9934
  67   0.0000       0.033388         0.9085
  68   0.0000       0.072719         1.9788
  69   0.0000       0.110226         2.9994
  70   0.0000       0.120899         3.2898
  71   0.0000       0.134456         3.6587

MULLIKEN ATOMIC CHARGES
-----------------------
   0 S :    0.125600
   1 C :   -0.135866
   2 C :   -0.074208
   3 C :    0.029320
   4 C :   -0.148126
   5 H :    0.003769
   6 C :    0.116151
   7 H :    0.038998
   8 H :    0.019832
   9 C :   -0.128132
  10 H :    0.035467
  11 H :    0.026592
  12 C :   -0.041254
  13 H :    0.036722
  14 H :    0.021981
  15 H :    0.027585
  16 S :    0.091327
  17 C :   -0.104166
  18 C :   -0.011581
  19 C :   -0.102450
  20 C :   -0.135463
  21 H :    0.021230
  22 C :    0.071877
  23 H :    0.035125
  24 H :    0.001232
  25 C :   -0.038791
  26 H :    0.022790
  27 H :    0.014139
  28 C :   -0.073089
  29 H :    0.024467
  30 H :    0.055678
  31 H :    0.042431
  32 H :    0.058108
  33 H :    0.072704
Sum of atomic charges:   -0.0000000

LOEWDIN ATOMIC CHARGES
----------------------
   0 S :    0.433109
   1 C :   -0.209845
   2 C :   -0.062124
   3 C :   -0.064208
   4 C :   -0.201111
   5 H :    0.026597
   6 C :   -0.028280
   7 H :    0.037853
   8 H :    0.033076
   9 C :   -0.043035
  10 H :    0.027081
  11 H :    0.018998
  12 C :   -0.065088
  13 H :    0.027205
  14 H :    0.014932
  15 H :    0.029056
  16 S :    0.409619
  17 C :   -0.191308
  18 C :   -0.076998
  19 C :   -0.056782
  20 C :   -0.211518
  21 H :    0.034050
  22 C :   -0.028687
  23 H :    0.032063
  24 H :    0.021135
  25 C :   -0.045146
  26 H :    0.023773
  27 H :    0.022281
  28 C :   -0.072458
  29 H :    0.021827
  30 H :    0.035401
  31 H :    0.034019
  32 H :    0.036598
  33 H :    0.037913

  Mayer bond orders larger than 0.100000
B(  0-S ,  1-C ) :   1.1286 B(  0-S ,  4-C ) :   1.1895 B(  1-C ,  2-C ) :   1.6135
B(  1-C , 32-H ) :   0.9585 B(  2-C ,  3-C ) :   1.2462 B(  2-C ,  6-C ) :   1.0340
B(  3-C ,  4-C ) :   1.5582 B(  3-C ,  5-H ) :   0.9955 B(  4-C , 20-C ) :   0.9872
B(  6-C ,  7-H ) :   0.9239 B(  6-C ,  8-H ) :   0.9331 B(  6-C ,  9-C ) :   1.0535
B(  9-C , 10-H ) :   0.9492 B(  9-C , 11-H ) :   0.9624 B(  9-C , 12-C ) :   1.0802
B( 12-C , 13-H ) :   0.9758 B( 12-C , 14-H ) :   0.9767 B( 12-C , 15-H ) :   0.9751
B( 16-S , 17-C ) :   1.1726 B( 16-S , 20-C ) :   1.1316 B( 17-C , 18-C ) :   1.6019
B( 17-C , 33-H ) :   0.9619 B( 18-C , 19-C ) :   1.2321 B( 18-C , 21-H ) :   0.9985
B( 19-C , 20-C ) :   1.6201 B( 19-C , 22-C ) :   1.0249 B( 22-C , 23-H ) :   0.9437
B( 22-C , 24-H ) :   0.9392 B( 22-C , 25-C ) :   1.0514 B( 25-C , 26-H ) :   0.9589
B( 25-C , 27-H ) :   0.9514 B( 25-C , 28-C ) :   1.0810 B( 28-C , 29-H ) :   0.9724
B( 28-C , 30-H ) :   0.9751 B( 28-C , 31-H ) :   0.9716

Dispersion correction           -0.014385308
FINAL SINGLE POINT ENERGY     -1339.873763385201

DIPOLE MOMENT
-------------
                                X             Y             Z
Electronic contribution:     21.85240      17.49438      -0.76289
Nuclear contribution   :    -22.22245     -17.94019       1.08036
                        -----------------------------------------
Total Dipole Moment    :     -0.37004      -0.44582       0.31747
                        -----------------------------------------
Magnitude (a.u.)       :      0.66066
Magnitude (Debye)      :      1.67927

Rotational constants in cm-1:     0.018123     0.008658     0.007301
Rotational constants in MHz :   543.315633   259.570371   218.882705

                             ****ORCA TERMINATED NORMALLY****
TOTAL RUN TIME: 0 days 0 hours 0 minutes 21 seconds 912 msec
