                         Program Version 4.2.1 -  RELEASE  -
|  1> ! wB97X-D3 SP def2-SVP
|  2> %pal
|  3> nprocs 24
|  4> end
|  5>
|  6> * xyz 0 1
|  7> S 	 -51.3428 	 3.59653 	 -23.5598
|  8> C 	 -51.1147 	 4.68781 	 -22.2234
|  9> C 	 -52.2943 	 5.06436 	 -21.5915
| 10> C 	 -53.3893 	 4.27518 	 -22.1597
| 11> C 	 -53.0097 	 3.38823 	 -23.1762
| 12> H 	 -54.4014 	 4.18557 	 -21.6838
| 13> C 	 -52.4174 	 6.20073 	 -20.5752
| 14> H 	 -51.4111 	 6.60237 	 -20.3182
| 15> H 	 -52.83 	 5.74538 	 -19.6214
| 16> C 	 -53.4231 	 7.31553 	 -21.1709
| 17> H 	 -53.0018 	 7.76313 	 -22.0835
| 18> H 	 -54.4685 	 6.81868 	 -21.4185
| 19> C 	 -53.8041 	 8.38435 	 -20.1738
| 20> H 	 -52.9237 	 8.93918 	 -19.7369
| 21> H 	 -54.3973 	 9.15564 	 -20.7003
| 22> H 	 -54.4332 	 8.01751 	 -19.3273
| 23> S 	 -55.6744 	 2.81278 	 -23.895
| 24> C 	 -56.0065 	 1.17161 	 -24.5538
| 25> C 	 -54.8094 	 0.58692 	 -24.8572
| 26> C 	 -53.6826 	 1.21509 	 -24.3532
| 27> C 	 -53.9471 	 2.41467 	 -23.7743
| 28> H 	 -54.8149 	 -0.332586 	 -25.3896
| 29> C 	 -52.3074 	 0.519909 	 -24.4417
| 30> H 	 -52.361 	 -0.467339 	 -24.0721
| 31> H 	 -51.7087 	 0.996767 	 -23.6841
| 32> C 	 -51.6561 	 0.666906 	 -25.814
| 33> H 	 -50.6295 	 0.175008 	 -25.9831
| 34> H 	 -51.4858 	 1.71353 	 -25.8651
| 35> C 	 -52.4551 	 0.0479306 	 -26.9632
| 36> H 	 -52.3707 	 -1.06969 	 -26.8512
| 37> H 	 -52.0196 	 0.220779 	 -27.9179
| 38> H 	 -53.5146 	 0.445218 	 -27.0604
| 39> H 	 -50.2301 	 5.26948 	 -22.0976
| 40> H 	 -56.8831 	 0.717768 	 -24.929
| 41> *
| 42>
| 43>                          ****END OF INPUT****

CARTESIAN COORDINATES (ANGSTROEM)
---------------------------------
  S    -51.342800    3.596530  -23.559800
  C    -51.114700    4.687810  -22.223400
  C    -52.294300    5.064360  -21.591500
  C    -53.389300    4.275180  -22.159700
  C    -53.009700    3.388230  -23.176200
  H    -54.401400    4.185570  -21.683800
  C    -52.417400    6.200730  -20.575200
  H    -51.411100    6.602370  -20.318200
  H    -52.830000    5.745380  -19.621400
  C    -53.423100    7.315530  -21.170900
  H    -53.001800    7.763130  -22.083500
  H    -54.468500    6.818680  -21.418500
  C    -53.804100    8.384350  -20.173800
  H    -52.923700    8.939180  -19.736900
  H    -54.397300    9.155640  -20.700300
  H    -54.433200    8.017510  -19.327300
  S    -55.674400    2.812780  -23.895000
  C    -56.006500    1.171610  -24.553800
  C    -54.809400    0.586920  -24.857200
  C    -53.682600    1.215090  -24.353200
  C    -53.947100    2.414670  -23.774300
  H    -54.814900   -0.332586  -25.389600
  C    -52.307400    0.519909  -24.441700
  H    -52.361000   -0.467339  -24.072100
  H    -51.708700    0.996767  -23.684100
  C    -51.656100    0.666906  -25.814000
  H    -50.629500    0.175008  -25.983100
  H    -51.485800    1.713530  -25.865100
  C    -52.455100    0.047931  -26.963200
  H    -52.370700   -1.069690  -26.851200
  H    -52.019600    0.220779  -27.917900
  H    -53.514600    0.445218  -27.060400
  H    -50.230100    5.269480  -22.097600
  H    -56.883100    0.717768  -24.929000

 Total Charge           Charge          ....    0
 Multiplicity           Mult            ....    1
 Number of Electrons    NEL             ....  134
 Basis Dimension        Dim             ....  322

ORBITAL ENERGIES
----------------

  NO   OCC          E(Eh)            E(eV)
   0   2.0000     -88.971978     -2421.0506
   1   2.0000     -88.968218     -2420.9483
   2   2.0000     -10.333308      -281.1836
   3   2.0000     -10.329863      -281.0899
   4   2.0000     -10.314575      -280.6738
   5   2.0000     -10.311112      -280.5796
   6   2.0000     -10.310003      -280.5494
   7   2.0000     -10.307759      -280.4884
   8   2.0000     -10.304007      -280.3863
   9   2.0000     -10.300165      -280.2817
  10   2.0000     -10.294338      -280.1232
  11   2.0000     -10.286961      -279.9224
  12   2.0000     -10.285231      -279.8754
  13   2.0000     -10.283792      -279.8362
  14   2.0000     -10.283716      -279.8341
  15   2.0000     -10.279677      -279.7242
  16   2.0000      -8.086371      -220.0413
  17   2.0000      -8.081344      -219.9046
  18   2.0000      -6.044910      -164.4904
  19   2.0000      -6.040930      -164.3821
  20   2.0000      -6.040091      -164.3592
  21   2.0000      -6.037130      -164.2787
  22   2.0000      -6.036276      -164.2554
  23   2.0000      -6.031735      -164.1318
  24   2.0000      -1.007289       -27.4097
  25   2.0000      -0.985262       -26.8104
  26   2.0000      -0.907458       -24.6932
  27   2.0000      -0.902903       -24.5692
  28   2.0000      -0.869824       -23.6691
  29   2.0000      -0.850001       -23.1297
  30   2.0000      -0.841815       -22.9069
  31   2.0000      -0.814084       -22.1523
  32   2.0000      -0.783172       -21.3112
  33   2.0000      -0.773047       -21.0357
  34   2.0000      -0.707785       -19.2598
  35   2.0000      -0.691035       -18.8040
  36   2.0000      -0.686817       -18.6892
  37   2.0000      -0.669701       -18.2235
  38   2.0000      -0.632358       -17.2073
  39   2.0000      -0.612014       -16.6537
  40   2.0000      -0.595199       -16.1962
  41   2.0000      -0.566742       -15.4218
  42   2.0000      -0.558764       -15.2047
  43   2.0000      -0.555304       -15.1106
  44   2.0000      -0.541814       -14.7435
  45   2.0000      -0.520863       -14.1734
  46   2.0000      -0.516712       -14.0605
  47   2.0000      -0.510447       -13.8900
  48   2.0000      -0.501081       -13.6351
  49   2.0000      -0.494253       -13.4493
  50   2.0000      -0.488456       -13.2916
  51   2.0000      -0.481506       -13.1024
  52   2.0000      -0.474329       -12.9072
  53   2.0000      -0.463514       -12.6129
  54   2.0000      -0.454552       -12.3690
  55   2.0000      -0.452049       -12.3009
  56   2.0000      -0.438761       -11.9393
  57   2.0000      -0.437652       -11.9091
  58   2.0000      -0.427997       -11.6464
  59   2.0000      -0.421022       -11.4566
  60   2.0000      -0.419437       -11.4134
  61   2.0000      -0.417108       -11.3501
  62   2.0000      -0.406993       -11.0748
  63   2.0000      -0.357683        -9.7330
  64   2.0000      -0.334320        -9.0973
  65   2.0000      -0.327615        -8.9149
  66   2.0000      -0.288012        -7.8372
  67   0.0000       0.022283         0.6064
  68   0.0000       0.082562         2.2466
  69   0.0000       0.107325         2.9205
  70   0.0000       0.115863         3.1528
  71   0.0000       0.123416         3.3583

MULLIKEN ATOMIC CHARGES
-----------------------
   0 S :    0.107855
   1 C :   -0.103387
   2 C :   -0.092528
   3 C :   -0.034728
   4 C :   -0.130026
   5 H :    0.041242
   6 C :    0.056697
   7 H :    0.030768
   8 H :    0.046533
   9 C :   -0.127154
  10 H :    0.048170
  11 H :    0.055714
  12 C :   -0.065118
  13 H :    0.034322
  14 H :    0.038470
  15 H :    0.041903
  16 S :    0.094615
  17 C :   -0.059321
  18 C :   -0.042836
  19 C :   -0.088172
  20 C :   -0.112324
  21 H :    0.012602
  22 C :    0.106862
  23 H :    0.015531
  24 H :    0.012404
  25 C :   -0.049721
  26 H :    0.040222
  27 H :    0.013517
  28 C :   -0.082167
  29 H :    0.035616
  30 H :    0.023673
  31 H :    0.054563
  32 H :    0.038179
  33 H :    0.038025
Sum of atomic charges:   -0.0000000

LOEWDIN ATOMIC CHARGES
----------------------
   0 S :    0.435831
   1 C :   -0.205127
   2 C :   -0.058551
   3 C :   -0.077229
   4 C :   -0.197303
   5 H :    0.033557
   6 C :   -0.033292
   7 H :    0.031802
   8 H :    0.039161
   9 C :   -0.045372
  10 H :    0.028732
  11 H :    0.041008
  12 C :   -0.081120
  13 H :    0.025917
  14 H :    0.029711
  15 H :    0.028523
  16 S :    0.378287
  17 C :   -0.167635
  18 C :   -0.063644
  19 C :   -0.065867
  20 C :   -0.174209
  21 H :    0.027240
  22 C :   -0.028366
  23 H :    0.022533
  24 H :    0.017004
  25 C :   -0.042628
  26 H :    0.035758
  27 H :    0.010741
  28 C :   -0.076218
  29 H :    0.031277
  30 H :    0.019866
  31 H :    0.032809
  32 H :    0.020854
  33 H :    0.025950

  Mayer bond orders larger than 0.100000
B(  0-S ,  1-C ) :   1.1351 B(  0-S ,  4-C ) :   1.1506 B(  1-C ,  2-C ) :   1.6284
B(  1-C , 32-H ) :   0.9627 B(  2-C ,  3-C ) :   1.2390 B(  2-C ,  6-C ) :   1.0305
B(  3-C ,  4-C ) :   1.5573 B(  3-C ,  5-H ) :   0.9744 B(  4-C , 20-C ) :   1.0605
B(  6-C ,  7-H ) :   0.9449 B(  6-C ,  8-H ) :   0.9396 B(  6-C ,  9-C ) :   1.0363
B(  9-C , 10-H ) :   0.9591 B(  9-C , 11-H ) :   0.9550 B(  9-C , 12-C ) :   1.0857
B( 12-C , 13-H ) :   0.9709 B( 12-C , 14-H ) :   0.9724 B( 12-C , 15-H ) :   0.9743
B( 16-S , 17-C ) :   1.1180 B( 16-S , 20-C ) :   1.1264 B( 17-C , 18-C ) :   1.6383
B( 17-C , 33-H ) :   0.9664 B( 18-C , 19-C ) :   1.2453 B( 18-C , 21-H ) :   0.9830
B( 19-C , 20-C ) :   1.6159 B( 19-C , 22-C ) :   1.0194 B( 22-C , 23-H ) :   0.9385
B( 22-C , 24-H ) :   0.9241 B( 22-C , 25-C ) :   1.0612 B( 25-C , 26-H ) :   0.9561
B( 25-C , 27-H ) :   0.9504 B( 25-C , 28-C ) :   1.0856 B( 28-C , 29-H ) :   0.9728
B( 28-C , 30-H ) :   0.9715 B( 28-C , 31-H ) :   0.9648

Dispersion correction           -0.014317586
FINAL SINGLE POINT ENERGY     -1339.869647394492

DIPOLE MOMENT
-------------
                                X             Y             Z
Electronic contribution:     -4.08145      -5.32963      -2.07158
Nuclear contribution   :      4.19130       5.41112       2.14077
                        -----------------------------------------
Total Dipole Moment    :      0.10985       0.08149       0.06919
                        -----------------------------------------
Magnitude (a.u.)       :      0.15328
Magnitude (Debye)      :      0.38962

Rotational constants in cm-1:     0.025319     0.007568     0.006091
Rotational constants in MHz :   759.037269   226.888533   182.596910

                             ****ORCA TERMINATED NORMALLY****
TOTAL RUN TIME: 0 days 0 hours 0 minutes 20 seconds 159 msec
