                         Program Version 4.2.1 -  RELEASE  -
|  1> ! wB97X-D3 SP def2-SVP
|  2> %pal
|  3> nprocs 24
|  4> end
|  5>
|  6> * xyz 0 1
|  7> S 	 -43.0637 	 19.1254 	 21.0168
|  8> C 	 -42.6642 	 18.1637 	 19.6283
|  9> C 	 -42.5903 	 16.8276 	 19.9193
| 10> C 	 -43.0417 	 16.5923 	 21.2988
| 11> C 	 -43.2892 	 17.7017 	 22.0539
| 12> H 	 -43.2061 	 15.6285 	 21.7652
| 13> C 	 -42.1062 	 15.6761 	 19.0643
| 14> H 	 -42.0828 	 15.9484 	 18.0009
| 15> H 	 -42.8135 	 14.8385 	 19.2009
| 16> C 	 -40.7049 	 15.211 	 19.4998
| 17> H 	 -40.45 	 15.1072 	 20.5417
| 18> H 	 -40.3894 	 14.2018 	 19.1464
| 19> C 	 -39.5658 	 16.1458 	 19.0364
| 20> H 	 -38.5695 	 15.8599 	 19.3521
| 21> H 	 -39.6249 	 16.3236 	 17.9029
| 22> H 	 -39.7603 	 17.1349 	 19.492
| 23> S 	 -45.0414 	 17.0101 	 23.9604
| 24> C 	 -44.9371 	 17.7225 	 25.5675
| 25> C 	 -43.8324 	 18.4803 	 25.708
| 26> C 	 -43.0595 	 18.6268 	 24.4845
| 27> C 	 -43.5876 	 17.8116 	 23.4684
| 28> H 	 -43.6022 	 18.9047 	 26.6696
| 29> C 	 -41.7794 	 19.3328 	 24.4368
| 30> H 	 -41.8095 	 20.0488 	 25.1815
| 31> H 	 -41.6597 	 19.6891 	 23.441
| 32> C 	 -40.4546 	 18.5667 	 24.8138
| 33> H 	 -40.5765 	 18.3148 	 25.8583
| 34> H 	 -39.7055 	 19.3644 	 24.8373
| 35> C 	 -40.055 	 17.4045 	 23.8493
| 36> H 	 -39.0278 	 17.0667 	 24.0807
| 37> H 	 -40.0842 	 17.789 	 22.7965
| 38> H 	 -40.6594 	 16.54 	 23.994
| 39> H 	 -42.3871 	 18.6182 	 18.7254
| 40> H 	 -45.6917 	 17.6587 	 26.3036
| 41> *
| 42>
| 43>                          ****END OF INPUT****

CARTESIAN COORDINATES (ANGSTROEM)
---------------------------------
  S    -43.063700   19.125400   21.016800
  C    -42.664200   18.163700   19.628300
  C    -42.590300   16.827600   19.919300
  C    -43.041700   16.592300   21.298800
  C    -43.289200   17.701700   22.053900
  H    -43.206100   15.628500   21.765200
  C    -42.106200   15.676100   19.064300
  H    -42.082800   15.948400   18.000900
  H    -42.813500   14.838500   19.200900
  C    -40.704900   15.211000   19.499800
  H    -40.450000   15.107200   20.541700
  H    -40.389400   14.201800   19.146400
  C    -39.565800   16.145800   19.036400
  H    -38.569500   15.859900   19.352100
  H    -39.624900   16.323600   17.902900
  H    -39.760300   17.134900   19.492000
  S    -45.041400   17.010100   23.960400
  C    -44.937100   17.722500   25.567500
  C    -43.832400   18.480300   25.708000
  C    -43.059500   18.626800   24.484500
  C    -43.587600   17.811600   23.468400
  H    -43.602200   18.904700   26.669600
  C    -41.779400   19.332800   24.436800
  H    -41.809500   20.048800   25.181500
  H    -41.659700   19.689100   23.441000
  C    -40.454600   18.566700   24.813800
  H    -40.576500   18.314800   25.858300
  H    -39.705500   19.364400   24.837300
  C    -40.055000   17.404500   23.849300
  H    -39.027800   17.066700   24.080700
  H    -40.084200   17.789000   22.796500
  H    -40.659400   16.540000   23.994000
  H    -42.387100   18.618200   18.725400
  H    -45.691700   17.658700   26.303600

 Total Charge           Charge          ....    0
 Multiplicity           Mult            ....    1
 Number of Electrons    NEL             ....  134
 Basis Dimension        Dim             ....  322

ORBITAL ENERGIES
----------------

  NO   OCC          E(Eh)            E(eV)
   0   2.0000     -88.964629     -2420.8506
   1   2.0000     -88.962648     -2420.7967
   2   2.0000     -10.329750      -281.0868
   3   2.0000     -10.326401      -280.9957
   4   2.0000     -10.312464      -280.6164
   5   2.0000     -10.311969      -280.6029
   6   2.0000     -10.306786      -280.4619
   7   2.0000     -10.303263      -280.3660
   8   2.0000     -10.302676      -280.3501
   9   2.0000     -10.295000      -280.1412
  10   2.0000     -10.292505      -280.0733
  11   2.0000     -10.288310      -279.9591
  12   2.0000     -10.287957      -279.9495
  13   2.0000     -10.280782      -279.7543
  14   2.0000     -10.278418      -279.6900
  15   2.0000     -10.277588      -279.6674
  16   2.0000      -8.079697      -219.8597
  17   2.0000      -8.077273      -219.7938
  18   2.0000      -6.038221      -164.3083
  19   2.0000      -6.035964      -164.2469
  20   2.0000      -6.034146      -164.1975
  21   2.0000      -6.031778      -164.1330
  22   2.0000      -6.030431      -164.0964
  23   2.0000      -6.027855      -164.0263
  24   2.0000      -1.007584       -27.4177
  25   2.0000      -0.984759       -26.7966
  26   2.0000      -0.911280       -24.7972
  27   2.0000      -0.908065       -24.7097
  28   2.0000      -0.875398       -23.8208
  29   2.0000      -0.845816       -23.0158
  30   2.0000      -0.840437       -22.8695
  31   2.0000      -0.819292       -22.2941
  32   2.0000      -0.783875       -21.3303
  33   2.0000      -0.773163       -21.0388
  34   2.0000      -0.711005       -19.3474
  35   2.0000      -0.698017       -18.9940
  36   2.0000      -0.690873       -18.7996
  37   2.0000      -0.667800       -18.1718
  38   2.0000      -0.644050       -17.5255
  39   2.0000      -0.619129       -16.8474
  40   2.0000      -0.593311       -16.1448
  41   2.0000      -0.570300       -15.5187
  42   2.0000      -0.558933       -15.2093
  43   2.0000      -0.552784       -15.0420
  44   2.0000      -0.540375       -14.7044
  45   2.0000      -0.534659       -14.5488
  46   2.0000      -0.519537       -14.1373
  47   2.0000      -0.510963       -13.9040
  48   2.0000      -0.502528       -13.6745
  49   2.0000      -0.502119       -13.6634
  50   2.0000      -0.487527       -13.2663
  51   2.0000      -0.476266       -12.9599
  52   2.0000      -0.473591       -12.8871
  53   2.0000      -0.466718       -12.7000
  54   2.0000      -0.454305       -12.3623
  55   2.0000      -0.450499       -12.2587
  56   2.0000      -0.445163       -12.1135
  57   2.0000      -0.434656       -11.8276
  58   2.0000      -0.429041       -11.6748
  59   2.0000      -0.425301       -11.5730
  60   2.0000      -0.422423       -11.4947
  61   2.0000      -0.416054       -11.3214
  62   2.0000      -0.408373       -11.1124
  63   2.0000      -0.353826        -9.6281
  64   2.0000      -0.328565        -8.9407
  65   2.0000      -0.324888        -8.8407
  66   2.0000      -0.293756        -7.9935
  67   0.0000       0.033774         0.9190
  68   0.0000       0.071413         1.9433
  69   0.0000       0.108434         2.9506
  70   0.0000       0.115744         3.1496
  71   0.0000       0.130971         3.5639

MULLIKEN ATOMIC CHARGES
-----------------------
   0 S :    0.095167
   1 C :   -0.103994
   2 C :   -0.085368
   3 C :    0.015635
   4 C :   -0.130354
   5 H :    0.009417
   6 C :    0.096751
   7 H :    0.030530
   8 H :    0.041340
   9 C :   -0.074861
  10 H :    0.028366
  11 H :    0.026847
  12 C :   -0.095708
  13 H :    0.038177
  14 H :    0.031326
  15 H :    0.033175
  16 S :    0.105070
  17 C :   -0.071326
  18 C :   -0.028606
  19 C :   -0.054074
  20 C :   -0.154031
  21 H :    0.013924
  22 C :    0.109662
  23 H :   -0.003758
  24 H :    0.009759
  25 C :   -0.070434
  26 H :    0.013961
  27 H :    0.028033
  28 C :   -0.044981
  29 H :    0.031683
  30 H :    0.048946
  31 H :    0.038319
  32 H :    0.030562
  33 H :    0.040847
Sum of atomic charges:    0.0000000

LOEWDIN ATOMIC CHARGES
----------------------
   0 S :    0.395119
   1 C :   -0.188300
   2 C :   -0.060389
   3 C :   -0.061890
   4 C :   -0.187311
   5 H :    0.028087
   6 C :   -0.026156
   7 H :    0.034054
   8 H :    0.038966
   9 C :   -0.049200
  10 H :    0.025431
  11 H :    0.025067
  12 C :   -0.072517
  13 H :    0.023292
  14 H :    0.025156
  15 H :    0.023118
  16 S :    0.411528
  17 C :   -0.173351
  18 C :   -0.065959
  19 C :   -0.052934
  20 C :   -0.204273
  21 H :    0.030786
  22 C :   -0.030228
  23 H :    0.022378
  24 H :    0.018476
  25 C :   -0.028953
  26 H :    0.017485
  27 H :    0.023979
  28 C :   -0.066415
  29 H :    0.028197
  30 H :    0.034123
  31 H :    0.022352
  32 H :    0.017614
  33 H :    0.022668

  Mayer bond orders larger than 0.100000
B(  0-S ,  1-C ) :   1.1336 B(  0-S ,  4-C ) :   1.1158 B(  1-C ,  2-C ) :   1.6338
B(  1-C , 32-H ) :   0.9762 B(  2-C ,  3-C ) :   1.1952 B(  2-C ,  6-C ) :   1.0329
B(  3-C ,  4-C ) :   1.6248 B(  3-C ,  5-H ) :   0.9910 B(  4-C , 20-C ) :   1.0347
B(  6-C ,  7-H ) :   0.9461 B(  6-C ,  8-H ) :   0.9365 B(  6-C ,  9-C ) :   1.0495
B(  9-C , 10-H ) :   0.9602 B(  9-C , 11-H ) :   0.9581 B(  9-C , 12-C ) :   1.0689
B( 12-C , 13-H ) :   0.9750 B( 12-C , 14-H ) :   0.9748 B( 12-C , 15-H ) :   0.9767
B( 16-S , 17-C ) :   1.1409 B( 16-S , 20-C ) :   1.1465 B( 17-C , 18-C ) :   1.6393
B( 17-C , 33-H ) :   0.9705 B( 18-C , 19-C ) :   1.2102 B( 18-C , 21-H ) :   0.9905
B( 19-C , 20-C ) :   1.5714 B( 19-C , 22-C ) :   1.0832 B( 22-C , 23-H ) :   0.9161
B( 22-C , 24-H ) :   0.9198 B( 22-C , 25-C ) :   1.0773 B( 25-C , 26-H ) :   0.9547
B( 25-C , 27-H ) :   0.9568 B( 25-C , 28-C ) :   1.0678 B( 28-C , 29-H ) :   0.9733
B( 28-C , 30-H ) :   0.9742 B( 28-C , 31-H ) :   0.9764

Dispersion correction           -0.016119277
FINAL SINGLE POINT ENERGY     -1339.884226360994

DIPOLE MOMENT
-------------
                                X             Y             Z
Electronic contribution:    -23.61664       6.90179       5.08033
Nuclear contribution   :     24.02328      -7.07505      -4.90892
                        -----------------------------------------
Total Dipole Moment    :      0.40664      -0.17326       0.17141
                        -----------------------------------------
Magnitude (a.u.)       :      0.47408
Magnitude (Debye)      :      1.20502

Rotational constants in cm-1:     0.021214     0.009092     0.007958
Rotational constants in MHz :   635.979002   272.580773   238.576664

                             ****ORCA TERMINATED NORMALLY****
TOTAL RUN TIME: 0 days 0 hours 0 minutes 24 seconds 165 msec
