                         Program Version 4.2.1 -  RELEASE  -
|  1> ! wB97X-D3 SP def2-SVP
|  2> %pal
|  3> nprocs 24
|  4> end
|  5>
|  6> * xyz 0 1
|  7> S 	 39.4249 	 -18.1376 	 -109.482
|  8> C 	 38.0808 	 -17.8715 	 -110.544
|  9> C 	 37.1232 	 -18.8354 	 -110.367
| 10> C 	 37.4449 	 -19.7941 	 -109.337
| 11> C 	 38.6091 	 -19.4717 	 -108.663
| 12> H 	 36.877 	 -20.6759 	 -109.07
| 13> C 	 35.939 	 -19.0475 	 -111.363
| 14> H 	 35.2739 	 -18.1962 	 -111.281
| 15> H 	 35.4839 	 -19.9952 	 -111.099
| 16> C 	 36.3773 	 -19.1682 	 -112.92
| 17> H 	 36.972 	 -18.3079 	 -113.298
| 18> H 	 36.9904 	 -20.0299 	 -113.037
| 19> C 	 35.0815 	 -19.2683 	 -113.764
| 20> H 	 34.4693 	 -18.3154 	 -113.6
| 21> H 	 35.4618 	 -19.2768 	 -114.838
| 22> H 	 34.5641 	 -20.1815 	 -113.562
| 23> S 	 40.1324 	 -18.9856 	 -106.395
| 24> C 	 40.2696 	 -20.2875 	 -105.284
| 25> C 	 39.7575 	 -21.4667 	 -105.759
| 26> C 	 39.1271 	 -21.3007 	 -107.028
| 27> C 	 39.2437 	 -20.001 	 -107.521
| 28> H 	 39.942 	 -22.3311 	 -105.191
| 29> C 	 38.5493 	 -22.4639 	 -107.909
| 30> H 	 38.8774 	 -22.3048 	 -108.92
| 31> H 	 37.5167 	 -22.3778 	 -107.785
| 32> C 	 39.0445 	 -23.8852 	 -107.474
| 33> H 	 38.5719 	 -24.2313 	 -106.553
| 34> H 	 40.0709 	 -23.9125 	 -107.304
| 35> C 	 38.6126 	 -24.8879 	 -108.576
| 36> H 	 37.5151 	 -24.9821 	 -108.655
| 37> H 	 38.9528 	 -25.8134 	 -108.334
| 38> H 	 39.0036 	 -24.5179 	 -109.497
| 39> H 	 37.938 	 -17.0333 	 -111.151
| 40> H 	 40.8488 	 -20.2076 	 -104.33
| 41> *
| 42>
| 43>                          ****END OF INPUT****

CARTESIAN COORDINATES (ANGSTROEM)
---------------------------------
  S     39.424900  -18.137600  -109.482000
  C     38.080800  -17.871500  -110.544000
  C     37.123200  -18.835400  -110.367000
  C     37.444900  -19.794100  -109.337000
  C     38.609100  -19.471700  -108.663000
  H     36.877000  -20.675900  -109.070000
  C     35.939000  -19.047500  -111.363000
  H     35.273900  -18.196200  -111.281000
  H     35.483900  -19.995200  -111.099000
  C     36.377300  -19.168200  -112.920000
  H     36.972000  -18.307900  -113.298000
  H     36.990400  -20.029900  -113.037000
  C     35.081500  -19.268300  -113.764000
  H     34.469300  -18.315400  -113.600000
  H     35.461800  -19.276800  -114.838000
  H     34.564100  -20.181500  -113.562000
  S     40.132400  -18.985600  -106.395000
  C     40.269600  -20.287500  -105.284000
  C     39.757500  -21.466700  -105.759000
  C     39.127100  -21.300700  -107.028000
  C     39.243700  -20.001000  -107.521000
  H     39.942000  -22.331100  -105.191000
  C     38.549300  -22.463900  -107.909000
  H     38.877400  -22.304800  -108.920000
  H     37.516700  -22.377800  -107.785000
  C     39.044500  -23.885200  -107.474000
  H     38.571900  -24.231300  -106.553000
  H     40.070900  -23.912500  -107.304000
  C     38.612600  -24.887900  -108.576000
  H     37.515100  -24.982100  -108.655000
  H     38.952800  -25.813400  -108.334000
  H     39.003600  -24.517900  -109.497000
  H     37.938000  -17.033300  -111.151000
  H     40.848800  -20.207600  -104.330000

 Total Charge           Charge          ....    0
 Multiplicity           Mult            ....    1
 Number of Electrons    NEL             ....  134
 Basis Dimension        Dim             ....  322

ORBITAL ENERGIES
----------------

  NO   OCC          E(Eh)            E(eV)
   0   2.0000     -88.966539     -2420.9026
   1   2.0000     -88.960487     -2420.7379
   2   2.0000     -10.326204      -280.9903
   3   2.0000     -10.320601      -280.8378
   4   2.0000     -10.316733      -280.7326
   5   2.0000     -10.304554      -280.4012
   6   2.0000     -10.303798      -280.3806
   7   2.0000     -10.299191      -280.2552
   8   2.0000     -10.296930      -280.1937
   9   2.0000     -10.293940      -280.1124
  10   2.0000     -10.292337      -280.0687
  11   2.0000     -10.290397      -280.0159
  12   2.0000     -10.289939      -280.0035
  13   2.0000     -10.287467      -279.9362
  14   2.0000     -10.284710      -279.8612
  15   2.0000     -10.271087      -279.4905
  16   2.0000      -8.081672      -219.9135
  17   2.0000      -8.075579      -219.7477
  18   2.0000      -6.040125      -164.3602
  19   2.0000      -6.036087      -164.2503
  20   2.0000      -6.034114      -164.1966
  21   2.0000      -6.032507      -164.1529
  22   2.0000      -6.030057      -164.0862
  23   2.0000      -6.026292      -163.9837
  24   2.0000      -1.009354       -27.4659
  25   2.0000      -0.983275       -26.7563
  26   2.0000      -0.908503       -24.7216
  27   2.0000      -0.899931       -24.4884
  28   2.0000      -0.872861       -23.7518
  29   2.0000      -0.854337       -23.2477
  30   2.0000      -0.841091       -22.8872
  31   2.0000      -0.813911       -22.1477
  32   2.0000      -0.783011       -21.3068
  33   2.0000      -0.764874       -20.8133
  34   2.0000      -0.711664       -19.3654
  35   2.0000      -0.703471       -19.1424
  36   2.0000      -0.695622       -18.9288
  37   2.0000      -0.656784       -17.8720
  38   2.0000      -0.638170       -17.3655
  39   2.0000      -0.616610       -16.7788
  40   2.0000      -0.595046       -16.1920
  41   2.0000      -0.579652       -15.7731
  42   2.0000      -0.568274       -15.4635
  43   2.0000      -0.560936       -15.2638
  44   2.0000      -0.531593       -14.4654
  45   2.0000      -0.521086       -14.1795
  46   2.0000      -0.515860       -14.0373
  47   2.0000      -0.514233       -13.9930
  48   2.0000      -0.506571       -13.7845
  49   2.0000      -0.498066       -13.5531
  50   2.0000      -0.484876       -13.1941
  51   2.0000      -0.480156       -13.0657
  52   2.0000      -0.476976       -12.9792
  53   2.0000      -0.467242       -12.7143
  54   2.0000      -0.457259       -12.4427
  55   2.0000      -0.454830       -12.3766
  56   2.0000      -0.445129       -12.1126
  57   2.0000      -0.436125       -11.8676
  58   2.0000      -0.435291       -11.8449
  59   2.0000      -0.432339       -11.7646
  60   2.0000      -0.423827       -11.5329
  61   2.0000      -0.411303       -11.1921
  62   2.0000      -0.410123       -11.1600
  63   2.0000      -0.356429        -9.6989
  64   2.0000      -0.334132        -9.0922
  65   2.0000      -0.326532        -8.8854
  66   2.0000      -0.280293        -7.6272
  67   0.0000       0.021430         0.5831
  68   0.0000       0.080687         2.1956
  69   0.0000       0.106597         2.9007
  70   0.0000       0.133584         3.6350
  71   0.0000       0.136442         3.7128

MULLIKEN ATOMIC CHARGES
-----------------------
   0 S :    0.086399
   1 C :   -0.094212
   2 C :   -0.077788
   3 C :    0.005577
   4 C :   -0.148513
   5 H :    0.004684
   6 C :    0.057431
   7 H :    0.034576
   8 H :    0.021717
   9 C :   -0.097166
  10 H :    0.036273
  11 H :    0.030128
  12 C :   -0.076509
  13 H :    0.048135
  14 H :    0.044225
  15 H :    0.038114
  16 S :    0.123189
  17 C :   -0.107050
  18 C :   -0.025272
  19 C :   -0.060774
  20 C :   -0.120851
  21 H :    0.000702
  22 C :    0.055835
  23 H :    0.042921
  24 H :    0.037221
  25 C :   -0.077933
  26 H :    0.025214
  27 H :    0.024030
  28 C :    0.011690
  29 H :    0.027240
  30 H :    0.008226
  31 H :    0.022292
  32 H :    0.028496
  33 H :    0.071753
Sum of atomic charges:    0.0000000

LOEWDIN ATOMIC CHARGES
----------------------
   0 S :    0.396372
   1 C :   -0.195517
   2 C :   -0.062637
   3 C :   -0.070908
   4 C :   -0.175832
   5 H :    0.029582
   6 C :   -0.024303
   7 H :    0.028022
   8 H :    0.026414
   9 C :   -0.037378
  10 H :    0.024080
  11 H :    0.018204
  12 C :   -0.071756
  13 H :    0.033708
  14 H :    0.034059
  15 H :    0.019376
  16 S :    0.417918
  17 C :   -0.196327
  18 C :   -0.074426
  19 C :   -0.045290
  20 C :   -0.213231
  21 H :    0.025744
  22 C :   -0.018006
  23 H :    0.031683
  24 H :    0.023528
  25 C :   -0.029721
  26 H :    0.022768
  27 H :    0.014592
  28 C :   -0.047381
  29 H :    0.028725
  30 H :    0.010563
  31 H :    0.020481
  32 H :    0.017848
  33 H :    0.039045

  Mayer bond orders larger than 0.100000
B(  0-S ,  1-C ) :   1.1283 B(  0-S ,  4-C ) :   1.1420 B(  1-C ,  2-C ) :   1.6219
B(  1-C , 32-H ) :   0.9759 B(  2-C ,  3-C ) :   1.2379 B(  2-C ,  6-C ) :   1.0142
B(  3-C ,  4-C ) :   1.5611 B(  3-C ,  5-H ) :   0.9887 B(  4-C , 20-C ) :   1.1038
B(  6-C ,  7-H ) :   0.9425 B(  6-C ,  8-H ) :   0.9512 B(  6-C ,  9-C ) :   1.0535
B(  9-C , 10-H ) :   0.9596 B(  9-C , 11-H ) :   0.9604 B(  9-C , 12-C ) :   1.0750
B( 12-C , 13-H ) :   0.9750 B( 12-C , 14-H ) :   0.9743 B( 12-C , 15-H ) :   0.9769
B( 16-S , 17-C ) :   1.1698 B( 16-S , 20-C ) :   1.1268 B( 17-C , 18-C ) :   1.5909
B( 17-C , 33-H ) :   0.9558 B( 18-C , 19-C ) :   1.2539 B( 18-C , 21-H ) :   1.0032
B( 19-C , 20-C ) :   1.5819 B( 19-C , 22-C ) :   1.0066 B( 22-C , 23-H ) :   0.9504
B( 22-C , 24-H ) :   0.9203 B( 22-C , 25-C ) :   1.0852 B( 25-C , 26-H ) :   0.9468
B( 25-C , 27-H ) :   0.9584 B( 25-C , 28-C ) :   1.0883 B( 28-C , 29-H ) :   0.9746
B( 28-C , 30-H ) :   0.9711 B( 28-C , 31-H ) :   0.9770

Dispersion correction           -0.013346042
FINAL SINGLE POINT ENERGY     -1339.871358997496

DIPOLE MOMENT
-------------
                                X             Y             Z
Electronic contribution:     16.06136      19.14455      17.58999
Nuclear contribution   :    -16.33164     -19.77681     -17.72086
                        -----------------------------------------
Total Dipole Moment    :     -0.27028      -0.63226      -0.13086
                        -----------------------------------------
Magnitude (a.u.)       :      0.69995
Magnitude (Debye)      :      1.77913

Rotational constants in cm-1:     0.018350     0.008080     0.005887
Rotational constants in MHz :   550.126667   242.222448   176.482083

                             ****ORCA TERMINATED NORMALLY****
TOTAL RUN TIME: 0 days 0 hours 0 minutes 19 seconds 978 msec
