                         Program Version 4.2.1 -  RELEASE  -
|  1> ! wB97X-D3 SP def2-SVP
|  2> %pal
|  3> nprocs 24
|  4> end
|  5>
|  6> * xyz 0 1
|  7> S 	 -39.0493 	 -42.2069 	 -78.6439
|  8> C 	 -39.4904 	 -40.5863 	 -78.1822
|  9> C 	 -38.4753 	 -39.6672 	 -78.3379
| 10> C 	 -37.2927 	 -40.2391 	 -78.8563
| 11> C 	 -37.4241 	 -41.6199 	 -79.1648
| 12> H 	 -36.3921 	 -39.7619 	 -79.0883
| 13> C 	 -38.478 	 -38.162 	 -78.1261
| 14> H 	 -37.51 	 -37.7272 	 -77.8498
| 15> H 	 -39.0747 	 -38.0017 	 -77.2508
| 16> C 	 -39.0933 	 -37.4414 	 -79.2182
| 17> H 	 -38.5421 	 -37.5907 	 -80.1918
| 18> H 	 -40.1191 	 -37.7982 	 -79.2943
| 19> C 	 -39.1806 	 -35.9302 	 -78.9579
| 20> H 	 -38.2516 	 -35.509 	 -79.3832
| 21> H 	 -39.9023 	 -35.508 	 -79.5687
| 22> H 	 -39.3533 	 -35.6179 	 -77.945
| 23> S 	 -36.1309 	 -43.9136 	 -78.6616
| 24> C 	 -34.6039 	 -44.3921 	 -79.4628
| 25> C 	 -34.3329 	 -43.3879 	 -80.3405
| 26> C 	 -35.291 	 -42.3688 	 -80.5247
| 27> C 	 -36.394 	 -42.5025 	 -79.6647
| 28> H 	 -33.4107 	 -43.4141 	 -80.9494
| 29> C 	 -35.0679 	 -41.2253 	 -81.4983
| 30> H 	 -33.9971 	 -41.0856 	 -81.482
| 31> H 	 -35.6523 	 -40.3444 	 -81.1466
| 32> C 	 -35.5872 	 -41.7291 	 -82.8174
| 33> H 	 -36.717 	 -41.7019 	 -82.9045
| 34> H 	 -35.2852 	 -42.6876 	 -83.0314
| 35> C 	 -34.9391 	 -40.7828 	 -83.9001
| 36> H 	 -35.2989 	 -40.9884 	 -84.8817
| 37> H 	 -33.9133 	 -41.0495 	 -84.1361
| 38> H 	 -35.1033 	 -39.6901 	 -83.8874
| 39> H 	 -40.4765 	 -40.3522 	 -77.7789
| 40> H 	 -34.0167 	 -45.2833 	 -79.2401
| 41> *
| 42>
| 43>                          ****END OF INPUT****

CARTESIAN COORDINATES (ANGSTROEM)
---------------------------------
  S    -39.049300  -42.206900  -78.643900
  C    -39.490400  -40.586300  -78.182200
  C    -38.475300  -39.667200  -78.337900
  C    -37.292700  -40.239100  -78.856300
  C    -37.424100  -41.619900  -79.164800
  H    -36.392100  -39.761900  -79.088300
  C    -38.478000  -38.162000  -78.126100
  H    -37.510000  -37.727200  -77.849800
  H    -39.074700  -38.001700  -77.250800
  C    -39.093300  -37.441400  -79.218200
  H    -38.542100  -37.590700  -80.191800
  H    -40.119100  -37.798200  -79.294300
  C    -39.180600  -35.930200  -78.957900
  H    -38.251600  -35.509000  -79.383200
  H    -39.902300  -35.508000  -79.568700
  H    -39.353300  -35.617900  -77.945000
  S    -36.130900  -43.913600  -78.661600
  C    -34.603900  -44.392100  -79.462800
  C    -34.332900  -43.387900  -80.340500
  C    -35.291000  -42.368800  -80.524700
  C    -36.394000  -42.502500  -79.664700
  H    -33.410700  -43.414100  -80.949400
  C    -35.067900  -41.225300  -81.498300
  H    -33.997100  -41.085600  -81.482000
  H    -35.652300  -40.344400  -81.146600
  C    -35.587200  -41.729100  -82.817400
  H    -36.717000  -41.701900  -82.904500
  H    -35.285200  -42.687600  -83.031400
  C    -34.939100  -40.782800  -83.900100
  H    -35.298900  -40.988400  -84.881700
  H    -33.913300  -41.049500  -84.136100
  H    -35.103300  -39.690100  -83.887400
  H    -40.476500  -40.352200  -77.778900
  H    -34.016700  -45.283300  -79.240100

 Total Charge           Charge          ....    0
 Multiplicity           Mult            ....    1
 Number of Electrons    NEL             ....  134
 Basis Dimension        Dim             ....  322

ORBITAL ENERGIES
----------------

  NO   OCC          E(Eh)            E(eV)
   0   2.0000     -88.970142     -2421.0007
   1   2.0000     -88.957716     -2420.6625
   2   2.0000     -10.335921      -281.2547
   3   2.0000     -10.326058      -280.9863
   4   2.0000     -10.320478      -280.8345
   5   2.0000     -10.316502      -280.7263
   6   2.0000     -10.300711      -280.2966
   7   2.0000     -10.299792      -280.2716
   8   2.0000     -10.293105      -280.0896
   9   2.0000     -10.292792      -280.0811
  10   2.0000     -10.291731      -280.0522
  11   2.0000     -10.287250      -279.9303
  12   2.0000     -10.284985      -279.8687
  13   2.0000     -10.283280      -279.8223
  14   2.0000     -10.273896      -279.5669
  15   2.0000     -10.271360      -279.4979
  16   2.0000      -8.083888      -219.9738
  17   2.0000      -8.072248      -219.6570
  18   2.0000      -6.042396      -164.4220
  19   2.0000      -6.038546      -164.3172
  20   2.0000      -6.034700      -164.2125
  21   2.0000      -6.030863      -164.1081
  22   2.0000      -6.026629      -163.9929
  23   2.0000      -6.023014      -163.8946
  24   2.0000      -1.003358       -27.3028
  25   2.0000      -0.982050       -26.7229
  26   2.0000      -0.923977       -25.1427
  27   2.0000      -0.913753       -24.8645
  28   2.0000      -0.872130       -23.7319
  29   2.0000      -0.852885       -23.2082
  30   2.0000      -0.840859       -22.8809
  31   2.0000      -0.812875       -22.1195
  32   2.0000      -0.782970       -21.3057
  33   2.0000      -0.771384       -20.9904
  34   2.0000      -0.709645       -19.3104
  35   2.0000      -0.700567       -19.0634
  36   2.0000      -0.695928       -18.9372
  37   2.0000      -0.665865       -18.1191
  38   2.0000      -0.643879       -17.5209
  39   2.0000      -0.621367       -16.9083
  40   2.0000      -0.598167       -16.2770
  41   2.0000      -0.580023       -15.7832
  42   2.0000      -0.564741       -15.3674
  43   2.0000      -0.559602       -15.2275
  44   2.0000      -0.528985       -14.3944
  45   2.0000      -0.526263       -14.3204
  46   2.0000      -0.518477       -14.1085
  47   2.0000      -0.513741       -13.9796
  48   2.0000      -0.509717       -13.8701
  49   2.0000      -0.498807       -13.5732
  50   2.0000      -0.489969       -13.3327
  51   2.0000      -0.484460       -13.1828
  52   2.0000      -0.477390       -12.9905
  53   2.0000      -0.467839       -12.7305
  54   2.0000      -0.457870       -12.4593
  55   2.0000      -0.445360       -12.1189
  56   2.0000      -0.442307       -12.0358
  57   2.0000      -0.439602       -11.9622
  58   2.0000      -0.431688       -11.7468
  59   2.0000      -0.426140       -11.5959
  60   2.0000      -0.418458       -11.3868
  61   2.0000      -0.413213       -11.2441
  62   2.0000      -0.401111       -10.9148
  63   2.0000      -0.351626        -9.5682
  64   2.0000      -0.334375        -9.0988
  65   2.0000      -0.322855        -8.7853
  66   2.0000      -0.286069        -7.7843
  67   0.0000       0.022191         0.6038
  68   0.0000       0.071444         1.9441
  69   0.0000       0.105663         2.8752
  70   0.0000       0.122970         3.3462
  71   0.0000       0.136520         3.7149

MULLIKEN ATOMIC CHARGES
-----------------------
   0 S :    0.116223
   1 C :   -0.130733
   2 C :   -0.061386
   3 C :    0.048014
   4 C :   -0.164895
   5 H :   -0.004361
   6 C :    0.088051
   7 H :    0.020488
   8 H :    0.006013
   9 C :   -0.092232
  10 H :    0.034303
  11 H :    0.022309
  12 C :   -0.002652
  13 H :    0.025339
  14 H :    0.012988
  15 H :    0.029557
  16 S :    0.070227
  17 C :   -0.093119
  18 C :   -0.037641
  19 C :   -0.090806
  20 C :   -0.123904
  21 H :    0.021871
  22 C :    0.100551
  23 H :    0.026357
  24 H :    0.030750
  25 C :   -0.038748
  26 H :    0.051813
  27 H :    0.011963
  28 C :   -0.056033
  29 H :    0.000017
  30 H :    0.024008
  31 H :    0.038626
  32 H :    0.049499
  33 H :    0.067545
Sum of atomic charges:    0.0000000

LOEWDIN ATOMIC CHARGES
----------------------
   0 S :    0.394854
   1 C :   -0.198998
   2 C :   -0.059114
   3 C :   -0.048025
   4 C :   -0.180615
   5 H :    0.020926
   6 C :   -0.033944
   7 H :    0.029706
   8 H :    0.026736
   9 C :   -0.041945
  10 H :    0.029832
  11 H :    0.022506
  12 C :   -0.059297
  13 H :    0.029816
  14 H :    0.017493
  15 H :    0.022282
  16 S :    0.387317
  17 C :   -0.174664
  18 C :   -0.081305
  19 C :   -0.061827
  20 C :   -0.201866
  21 H :    0.032397
  22 C :   -0.025202
  23 H :    0.030939
  24 H :    0.035354
  25 C :   -0.023457
  26 H :    0.038289
  27 H :    0.014001
  28 C :   -0.081545
  29 H :    0.018365
  30 H :    0.025217
  31 H :    0.029204
  32 H :    0.028927
  33 H :    0.037642

  Mayer bond orders larger than 0.100000
B(  0-S ,  1-C ) :   1.1393 B(  0-S ,  4-C ) :   1.1493 B(  1-C ,  2-C ) :   1.6057
B(  1-C ,  4-C ) :   0.1041 B(  1-C , 32-H ) :   0.9656 B(  2-C ,  3-C ) :   1.2579
B(  2-C ,  6-C ) :   1.0155 B(  3-C ,  4-C ) :   1.5438 B(  3-C ,  5-H ) :   0.9968
B(  4-C , 20-C ) :   1.0553 B(  6-C ,  7-H ) :   0.9423 B(  6-C ,  8-H ) :   0.9232
B(  6-C ,  9-C ) :   1.0882 B(  9-C , 10-H ) :   0.9534 B(  9-C , 11-H ) :   0.9529
B(  9-C , 12-C ) :   1.0810 B( 12-C , 13-H ) :   0.9736 B( 12-C , 14-H ) :   0.9718
B( 12-C , 15-H ) :   0.9749 B( 16-S , 17-C ) :   1.1423 B( 16-S , 20-C ) :   1.1470
B( 17-C , 18-C ) :   1.5812 B( 17-C , 20-C ) :   0.1062 B( 17-C , 33-H ) :   0.9731
B( 18-C , 19-C ) :   1.2791 B( 18-C , 21-H ) :   0.9785 B( 19-C , 20-C ) :   1.5631
B( 19-C , 22-C ) :   1.0288 B( 22-C , 23-H ) :   0.9392 B( 22-C , 24-H ) :   0.9290
B( 22-C , 25-C ) :   1.0708 B( 25-C , 26-H ) :   0.9542 B( 25-C , 27-H ) :   0.9578
B( 25-C , 28-C ) :   1.0744 B( 28-C , 29-H ) :   0.9665 B( 28-C , 30-H ) :   0.9743
B( 28-C , 31-H ) :   0.9752

Dispersion correction           -0.013566284
FINAL SINGLE POINT ENERGY     -1339.856565214219

DIPOLE MOMENT
-------------
                                X             Y             Z
Electronic contribution:     -3.00430     -25.99770      15.04146
Nuclear contribution   :      3.27762      26.58958     -15.36188
                        -----------------------------------------
Total Dipole Moment    :      0.27332       0.59188      -0.32042
                        -----------------------------------------
Magnitude (a.u.)       :      0.72643
Magnitude (Debye)      :      1.84644

Rotational constants in cm-1:     0.017637     0.008513     0.006346
Rotational constants in MHz :   528.732101   255.217349   190.248493

                             ****ORCA TERMINATED NORMALLY****
TOTAL RUN TIME: 0 days 0 hours 0 minutes 21 seconds 274 msec
