                         Program Version 4.2.1 -  RELEASE  -
|  1> ! wB97X-D3 SP def2-SVP
|  2> %pal
|  3> nprocs 24
|  4> end
|  5>
|  6> * xyz 0 1
|  7> S 	 -105.101 	 55.7209 	 -80.6655
|  8> C 	 -104.381 	 56.1558 	 -82.1522
|  9> C 	 -104.813 	 55.3534 	 -83.1993
| 10> C 	 -105.559 	 54.2382 	 -82.7992
| 11> C 	 -105.669 	 54.2572 	 -81.4092
| 12> H 	 -105.873 	 53.3859 	 -83.377
| 13> C 	 -104.402 	 55.6209 	 -84.6445
| 14> H 	 -103.511 	 56.1857 	 -84.5883
| 15> H 	 -105.159 	 56.3321 	 -85.0269
| 16> C 	 -104.142 	 54.4068 	 -85.5823
| 17> H 	 -103.394 	 53.7564 	 -85.1296
| 18> H 	 -105.023 	 53.706 	 -85.5601
| 19> C 	 -103.847 	 54.7164 	 -87.0848
| 20> H 	 -103.15 	 53.8858 	 -87.3044
| 21> H 	 -104.766 	 54.4558 	 -87.6735
| 22> H 	 -103.332 	 55.5791 	 -87.362
| 23> S 	 -107.507 	 53.5955 	 -79.4748
| 24> C 	 -107.807 	 51.9805 	 -78.9711
| 25> C 	 -107.101 	 51.1084 	 -79.7103
| 26> C 	 -106.351 	 51.7331 	 -80.8017
| 27> C 	 -106.366 	 53.142 	 -80.678
| 28> H 	 -107.283 	 50.0521 	 -79.5607
| 29> C 	 -105.573 	 50.9532 	 -81.7608
| 30> H 	 -104.895 	 50.1268 	 -81.2915
| 31> H 	 -104.795 	 51.573 	 -82.1518
| 32> C 	 -106.235 	 50.5271 	 -83.0122
| 33> H 	 -105.421 	 50.0735 	 -83.6862
| 34> H 	 -106.512 	 51.3968 	 -83.6525
| 35> C 	 -107.516 	 49.6831 	 -82.845
| 36> H 	 -107.8 	 49.2816 	 -83.7685
| 37> H 	 -108.298 	 50.3527 	 -82.531
| 38> H 	 -107.31 	 48.9291 	 -82.0644
| 39> H 	 -103.86 	 57.0561 	 -82.3294
| 40> H 	 -108.496 	 51.6964 	 -78.1238
| 41> *
| 42>
| 43>                          ****END OF INPUT****

CARTESIAN COORDINATES (ANGSTROEM)
---------------------------------
  S    -105.101000   55.720900  -80.665500
  C    -104.381000   56.155800  -82.152200
  C    -104.813000   55.353400  -83.199300
  C    -105.559000   54.238200  -82.799200
  C    -105.669000   54.257200  -81.409200
  H    -105.873000   53.385900  -83.377000
  C    -104.402000   55.620900  -84.644500
  H    -103.511000   56.185700  -84.588300
  H    -105.159000   56.332100  -85.026900
  C    -104.142000   54.406800  -85.582300
  H    -103.394000   53.756400  -85.129600
  H    -105.023000   53.706000  -85.560100
  C    -103.847000   54.716400  -87.084800
  H    -103.150000   53.885800  -87.304400
  H    -104.766000   54.455800  -87.673500
  H    -103.332000   55.579100  -87.362000
  S    -107.507000   53.595500  -79.474800
  C    -107.807000   51.980500  -78.971100
  C    -107.101000   51.108400  -79.710300
  C    -106.351000   51.733100  -80.801700
  C    -106.366000   53.142000  -80.678000
  H    -107.283000   50.052100  -79.560700
  C    -105.573000   50.953200  -81.760800
  H    -104.895000   50.126800  -81.291500
  H    -104.795000   51.573000  -82.151800
  C    -106.235000   50.527100  -83.012200
  H    -105.421000   50.073500  -83.686200
  H    -106.512000   51.396800  -83.652500
  C    -107.516000   49.683100  -82.845000
  H    -107.800000   49.281600  -83.768500
  H    -108.298000   50.352700  -82.531000
  H    -107.310000   48.929100  -82.064400
  H    -103.860000   57.056100  -82.329400
  H    -108.496000   51.696400  -78.123800

 Total Charge           Charge          ....    0
 Multiplicity           Mult            ....    1
 Number of Electrons    NEL             ....  134
 Basis Dimension        Dim             ....  322

ORBITAL ENERGIES
----------------

  NO   OCC          E(Eh)            E(eV)
   0   2.0000     -88.973428     -2421.0901
   1   2.0000     -88.959434     -2420.7093
   2   2.0000     -10.332882      -281.1720
   3   2.0000     -10.329182      -281.0713
   4   2.0000     -10.312716      -280.6233
   5   2.0000     -10.306228      -280.4467
   6   2.0000     -10.303841      -280.3818
   7   2.0000     -10.298595      -280.2390
   8   2.0000     -10.296431      -280.1801
   9   2.0000     -10.292378      -280.0698
  10   2.0000     -10.291377      -280.0426
  11   2.0000     -10.290185      -280.0102
  12   2.0000     -10.289628      -279.9950
  13   2.0000     -10.286301      -279.9045
  14   2.0000     -10.283543      -279.8294
  15   2.0000     -10.271723      -279.5078
  16   2.0000      -8.088642      -220.1031
  17   2.0000      -8.075693      -219.7508
  18   2.0000      -6.046926      -164.5452
  19   2.0000      -6.043225      -164.4445
  20   2.0000      -6.039480      -164.3426
  21   2.0000      -6.034097      -164.1961
  22   2.0000      -6.029937      -164.0829
  23   2.0000      -6.026527      -163.9901
  24   2.0000      -1.012010       -27.5382
  25   2.0000      -0.991768       -26.9874
  26   2.0000      -0.918302       -24.9883
  27   2.0000      -0.905874       -24.6501
  28   2.0000      -0.868342       -23.6288
  29   2.0000      -0.856276       -23.3004
  30   2.0000      -0.843951       -22.9651
  31   2.0000      -0.820591       -22.3294
  32   2.0000      -0.786635       -21.4054
  33   2.0000      -0.774038       -21.0627
  34   2.0000      -0.711608       -19.3638
  35   2.0000      -0.696806       -18.9611
  36   2.0000      -0.682621       -18.5751
  37   2.0000      -0.658665       -17.9232
  38   2.0000      -0.639156       -17.3923
  39   2.0000      -0.622041       -16.9266
  40   2.0000      -0.595811       -16.2128
  41   2.0000      -0.566902       -15.4262
  42   2.0000      -0.561987       -15.2924
  43   2.0000      -0.555700       -15.1214
  44   2.0000      -0.547406       -14.8957
  45   2.0000      -0.528408       -14.3787
  46   2.0000      -0.514463       -13.9993
  47   2.0000      -0.506427       -13.7806
  48   2.0000      -0.501349       -13.6424
  49   2.0000      -0.499386       -13.5890
  50   2.0000      -0.493630       -13.4324
  51   2.0000      -0.490744       -13.3538
  52   2.0000      -0.475839       -12.9482
  53   2.0000      -0.472388       -12.8543
  54   2.0000      -0.464981       -12.6528
  55   2.0000      -0.452011       -12.2999
  56   2.0000      -0.447570       -12.1790
  57   2.0000      -0.435876       -11.8608
  58   2.0000      -0.430834       -11.7236
  59   2.0000      -0.420239       -11.4353
  60   2.0000      -0.417975       -11.3737
  61   2.0000      -0.413577       -11.2540
  62   2.0000      -0.398268       -10.8374
  63   2.0000      -0.352590        -9.5945
  64   2.0000      -0.335509        -9.1297
  65   2.0000      -0.324971        -8.8429
  66   2.0000      -0.288300        -7.8450
  67   0.0000       0.029177         0.7939
  68   0.0000       0.078169         2.1271
  69   0.0000       0.115057         3.1309
  70   0.0000       0.119837         3.2609
  71   0.0000       0.128172         3.4877

MULLIKEN ATOMIC CHARGES
-----------------------
   0 S :    0.141298
   1 C :   -0.100212
   2 C :   -0.096590
   3 C :    0.029813
   4 C :   -0.127139
   5 H :   -0.015812
   6 C :    0.106823
   7 H :    0.006863
   8 H :    0.043606
   9 C :   -0.131334
  10 H :    0.032464
  11 H :    0.029325
  12 C :   -0.029558
  13 H :    0.027657
  14 H :    0.048829
  15 H :    0.033959
  16 S :    0.092724
  17 C :   -0.109724
  18 C :   -0.024845
  19 C :   -0.044597
  20 C :   -0.148637
  21 H :    0.019058
  22 C :    0.038359
  23 H :    0.047924
  24 H :    0.007616
  25 C :   -0.138195
  26 H :    0.034759
  27 H :    0.031194
  28 C :   -0.004949
  29 H :    0.022850
  30 H :    0.040338
  31 H :    0.031933
  32 H :    0.027878
  33 H :    0.076323
Sum of atomic charges:    0.0000000

LOEWDIN ATOMIC CHARGES
----------------------
   0 S :    0.438557
   1 C :   -0.212986
   2 C :   -0.058239
   3 C :   -0.060485
   4 C :   -0.190625
   5 H :    0.028187
   6 C :   -0.034480
   7 H :    0.022733
   8 H :    0.037630
   9 C :   -0.046686
  10 H :    0.022496
  11 H :    0.025198
  12 C :   -0.067207
  13 H :    0.035939
  14 H :    0.037085
  15 H :    0.016788
  16 S :    0.417666
  17 C :   -0.205572
  18 C :   -0.074532
  19 C :   -0.063588
  20 C :   -0.197356
  21 H :    0.031777
  22 C :   -0.057082
  23 H :    0.044836
  24 H :    0.030768
  25 C :   -0.048404
  26 H :    0.030383
  27 H :    0.019233
  28 C :   -0.058460
  29 H :    0.018691
  30 H :    0.028510
  31 H :    0.025989
  32 H :    0.019004
  33 H :    0.044231

  Mayer bond orders larger than 0.100000
B(  0-S ,  1-C ) :   1.1412 B(  0-S ,  4-C ) :   1.1829 B(  1-C ,  2-C ) :   1.5954
B(  1-C , 32-H ) :   0.9700 B(  2-C ,  3-C ) :   1.2665 B(  2-C ,  6-C ) :   1.0124
B(  3-C ,  4-C ) :   1.5204 B(  3-C ,  5-H ) :   0.9965 B(  4-C , 20-C ) :   1.0240
B(  6-C ,  7-H ) :   0.9386 B(  6-C ,  8-H ) :   0.9315 B(  6-C ,  9-C ) :   1.0597
B(  9-C , 10-H ) :   0.9689 B(  9-C , 11-H ) :   0.9529 B(  9-C , 12-C ) :   1.0608
B( 12-C , 13-H ) :   0.9747 B( 12-C , 14-H ) :   0.9796 B( 12-C , 15-H ) :   0.9818
B( 16-S , 17-C ) :   1.1483 B( 16-S , 20-C ) :   1.1623 B( 17-C , 18-C ) :   1.6295
B( 17-C , 33-H ) :   0.9590 B( 18-C , 19-C ) :   1.2231 B( 18-C , 21-H ) :   0.9909
B( 19-C , 20-C ) :   1.5811 B( 19-C , 22-C ) :   1.0617 B( 22-C , 23-H ) :   0.9337
B( 22-C , 24-H ) :   0.9143 B( 22-C , 25-C ) :   1.0884 B( 25-C , 26-H ) :   0.9504
B( 25-C , 27-H ) :   0.9422 B( 25-C , 28-C ) :   1.0734 B( 28-C , 29-H ) :   0.9714
B( 28-C , 30-H ) :   0.9695 B( 28-C , 31-H ) :   0.9772

Dispersion correction           -0.014684244
FINAL SINGLE POINT ENERGY     -1339.860964757779

DIPOLE MOMENT
-------------
                                X             Y             Z
Electronic contribution:     -5.68566      13.87051      27.87232
Nuclear contribution   :      5.84679     -14.13087     -28.46010
                        -----------------------------------------
Total Dipole Moment    :      0.16113      -0.26036      -0.58778
                        -----------------------------------------
Magnitude (a.u.)       :      0.66275
Magnitude (Debye)      :      1.68458

Rotational constants in cm-1:     0.018087     0.009427     0.006517
Rotational constants in MHz :   542.228772   282.603537   195.375632

                             ****ORCA TERMINATED NORMALLY****
TOTAL RUN TIME: 0 days 0 hours 0 minutes 22 seconds 85 msec
