                         Program Version 4.2.1 -  RELEASE  -
|  1> ! wB97X-D3 SP def2-SVP
|  2> %pal
|  3> nprocs 24
|  4> end
|  5>
|  6> * xyz 0 1
|  7> S 	 -16.0699 	 -28.1677 	 -96.8339
|  8> C 	 -14.9888 	 -28.7434 	 -97.982
|  9> C 	 -15.6672 	 -29.4511 	 -98.9773
| 10> C 	 -17.0987 	 -29.3941 	 -98.7932
| 11> C 	 -17.4747 	 -28.7581 	 -97.6225
| 12> H 	 -17.818 	 -29.8688 	 -99.4171
| 13> C 	 -15.0424 	 -30.1384 	 -100.117
| 14> H 	 -15.7225 	 -30.9913 	 -100.303
| 15> H 	 -14.0286 	 -30.4715 	 -99.8655
| 16> C 	 -14.88 	 -29.3561 	 -101.435
| 17> H 	 -14.6222 	 -30.0076 	 -102.308
| 18> H 	 -15.7835 	 -28.8095 	 -101.704
| 19> C 	 -13.7724 	 -28.2349 	 -101.358
| 20> H 	 -14.2087 	 -27.3772 	 -100.817
| 21> H 	 -12.8733 	 -28.6049 	 -100.75
| 22> H 	 -13.4869 	 -27.7386 	 -102.318
| 23> S 	 -19.0346 	 -29.5785 	 -95.6371
| 24> C 	 -20.7258 	 -29.1128 	 -95.6026
| 25> C 	 -21.0764 	 -28.4662 	 -96.7565
| 26> C 	 -19.9746 	 -28.2207 	 -97.6711
| 27> C 	 -18.8127 	 -28.7092 	 -97.1148
| 28> H 	 -22.1059 	 -28.2194 	 -97.0416
| 29> C 	 -20.1686 	 -27.4386 	 -98.9602
| 30> H 	 -21.0612 	 -27.8462 	 -99.4378
| 31> H 	 -19.3803 	 -27.6595 	 -99.6406
| 32> C 	 -20.2462 	 -25.9238 	 -98.6752
| 33> H 	 -21.1763 	 -25.5653 	 -98.2737
| 34> H 	 -20.2855 	 -25.4989 	 -99.6692
| 35> C 	 -19.2043 	 -25.2338 	 -97.8339
| 36> H 	 -19.0709 	 -25.7468 	 -96.8548
| 37> H 	 -19.4811 	 -24.1463 	 -97.6995
| 38> H 	 -18.2621 	 -25.2049 	 -98.4219
| 39> H 	 -13.9551 	 -28.621 	 -97.8351
| 40> H 	 -21.4254 	 -29.4881 	 -94.8753
| 41> *
| 42>
| 43>                          ****END OF INPUT****

CARTESIAN COORDINATES (ANGSTROEM)
---------------------------------
  S    -16.069900  -28.167700  -96.833900
  C    -14.988800  -28.743400  -97.982000
  C    -15.667200  -29.451100  -98.977300
  C    -17.098700  -29.394100  -98.793200
  C    -17.474700  -28.758100  -97.622500
  H    -17.818000  -29.868800  -99.417100
  C    -15.042400  -30.138400  -100.117000
  H    -15.722500  -30.991300  -100.303000
  H    -14.028600  -30.471500  -99.865500
  C    -14.880000  -29.356100  -101.435000
  H    -14.622200  -30.007600  -102.308000
  H    -15.783500  -28.809500  -101.704000
  C    -13.772400  -28.234900  -101.358000
  H    -14.208700  -27.377200  -100.817000
  H    -12.873300  -28.604900  -100.750000
  H    -13.486900  -27.738600  -102.318000
  S    -19.034600  -29.578500  -95.637100
  C    -20.725800  -29.112800  -95.602600
  C    -21.076400  -28.466200  -96.756500
  C    -19.974600  -28.220700  -97.671100
  C    -18.812700  -28.709200  -97.114800
  H    -22.105900  -28.219400  -97.041600
  C    -20.168600  -27.438600  -98.960200
  H    -21.061200  -27.846200  -99.437800
  H    -19.380300  -27.659500  -99.640600
  C    -20.246200  -25.923800  -98.675200
  H    -21.176300  -25.565300  -98.273700
  H    -20.285500  -25.498900  -99.669200
  C    -19.204300  -25.233800  -97.833900
  H    -19.070900  -25.746800  -96.854800
  H    -19.481100  -24.146300  -97.699500
  H    -18.262100  -25.204900  -98.421900
  H    -13.955100  -28.621000  -97.835100
  H    -21.425400  -29.488100  -94.875300

 Total Charge           Charge          ....    0
 Multiplicity           Mult            ....    1
 Number of Electrons    NEL             ....  134
 Basis Dimension        Dim             ....  322

ORBITAL ENERGIES
----------------

  NO   OCC          E(Eh)            E(eV)
   0   2.0000     -88.963811     -2420.8284
   1   2.0000     -88.963261     -2420.8134
   2   2.0000     -10.321493      -280.8621
   3   2.0000     -10.320519      -280.8356
   4   2.0000     -10.314925      -280.6834
   5   2.0000     -10.307598      -280.4840
   6   2.0000     -10.301396      -280.3152
   7   2.0000     -10.299890      -280.2742
   8   2.0000     -10.294669      -280.1322
   9   2.0000     -10.293593      -280.1029
  10   2.0000     -10.292154      -280.0637
  11   2.0000     -10.292008      -280.0598
  12   2.0000     -10.291003      -280.0324
  13   2.0000     -10.286254      -279.9032
  14   2.0000     -10.279770      -279.7268
  15   2.0000     -10.278424      -279.6901
  16   2.0000      -8.080474      -219.8809
  17   2.0000      -8.078605      -219.8300
  18   2.0000      -6.038759      -164.3230
  19   2.0000      -6.037133      -164.2787
  20   2.0000      -6.034460      -164.2060
  21   2.0000      -6.033104      -164.1691
  22   2.0000      -6.031599      -164.1281
  23   2.0000      -6.029224      -164.0635
  24   2.0000      -1.014855       -27.6156
  25   2.0000      -0.989173       -26.9168
  26   2.0000      -0.911584       -24.8055
  27   2.0000      -0.909272       -24.7426
  28   2.0000      -0.873538       -23.7702
  29   2.0000      -0.849339       -23.1117
  30   2.0000      -0.843934       -22.9646
  31   2.0000      -0.812799       -22.1174
  32   2.0000      -0.783773       -21.3276
  33   2.0000      -0.771731       -20.9999
  34   2.0000      -0.705208       -19.1897
  35   2.0000      -0.694852       -18.9079
  36   2.0000      -0.690889       -18.8000
  37   2.0000      -0.661700       -18.0058
  38   2.0000      -0.650225       -17.6935
  39   2.0000      -0.620222       -16.8771
  40   2.0000      -0.598501       -16.2861
  41   2.0000      -0.565718       -15.3940
  42   2.0000      -0.552913       -15.0455
  43   2.0000      -0.549150       -14.9431
  44   2.0000      -0.545538       -14.8448
  45   2.0000      -0.534998       -14.5580
  46   2.0000      -0.518088       -14.0979
  47   2.0000      -0.512912       -13.9570
  48   2.0000      -0.502861       -13.6835
  49   2.0000      -0.497982       -13.5508
  50   2.0000      -0.488342       -13.2885
  51   2.0000      -0.476848       -12.9757
  52   2.0000      -0.471729       -12.8364
  53   2.0000      -0.460684       -12.5358
  54   2.0000      -0.459467       -12.5027
  55   2.0000      -0.449516       -12.2320
  56   2.0000      -0.441895       -12.0246
  57   2.0000      -0.440526       -11.9873
  58   2.0000      -0.435303       -11.8452
  59   2.0000      -0.422593       -11.4993
  60   2.0000      -0.417631       -11.3643
  61   2.0000      -0.410018       -11.1572
  62   2.0000      -0.407713       -11.0944
  63   2.0000      -0.345902        -9.4125
  64   2.0000      -0.329242        -8.9591
  65   2.0000      -0.324872        -8.8402
  66   2.0000      -0.297387        -8.0923
  67   0.0000       0.039751         1.0817
  68   0.0000       0.071375         1.9422
  69   0.0000       0.109920         2.9911
  70   0.0000       0.119247         3.2449
  71   0.0000       0.137100         3.7307

MULLIKEN ATOMIC CHARGES
-----------------------
   0 S :    0.129750
   1 C :   -0.105921
   2 C :   -0.093126
   3 C :    0.048097
   4 C :   -0.169405
   5 H :    0.001904
   6 C :    0.068706
   7 H :    0.032767
   8 H :    0.023836
   9 C :   -0.064497
  10 H :    0.042308
  11 H :    0.024159
  12 C :   -0.110254
  13 H :    0.037537
  14 H :    0.037323
  15 H :    0.044174
  16 S :    0.111419
  17 C :   -0.080270
  18 C :   -0.035167
  19 C :   -0.070948
  20 C :   -0.183167
  21 H :    0.019768
  22 C :    0.136455
  23 H :    0.025735
  24 H :    0.009135
  25 C :   -0.069975
  26 H :    0.015541
  27 H :    0.017187
  28 C :   -0.070615
  29 H :    0.060378
  30 H :    0.041350
  31 H :    0.034418
  32 H :    0.035586
  33 H :    0.055812
Sum of atomic charges:   -0.0000000

LOEWDIN ATOMIC CHARGES
----------------------
   0 S :    0.455763
   1 C :   -0.212007
   2 C :   -0.066486
   3 C :   -0.057202
   4 C :   -0.218999
   5 H :    0.025523
   6 C :   -0.036542
   7 H :    0.038041
   8 H :    0.031218
   9 C :   -0.041613
  10 H :    0.027717
  11 H :    0.021844
  12 C :   -0.083610
  13 H :    0.025735
  14 H :    0.026690
  15 H :    0.030172
  16 S :    0.411841
  17 C :   -0.184978
  18 C :   -0.068167
  19 C :   -0.055719
  20 C :   -0.206792
  21 H :    0.031700
  22 C :   -0.023517
  23 H :    0.036432
  24 H :    0.025205
  25 C :   -0.046394
  26 H :    0.019572
  27 H :    0.023510
  28 C :   -0.069754
  29 H :    0.032149
  30 H :    0.034842
  31 H :    0.026331
  32 H :    0.019602
  33 H :    0.027895

  Mayer bond orders larger than 0.100000
B(  0-S ,  1-C ) :   1.1729 B(  0-S ,  4-C ) :   1.1789 B(  1-C ,  2-C ) :   1.5433
B(  1-C , 32-H ) :   0.9830 B(  2-C ,  3-C ) :   1.2698 B(  2-C ,  6-C ) :   1.0440
B(  3-C ,  4-C ) :   1.5415 B(  3-C ,  5-H ) :   0.9984 B(  4-C , 20-C ) :   1.0272
B(  6-C ,  7-H ) :   0.9325 B(  6-C ,  8-H ) :   0.9407 B(  6-C ,  9-C ) :   1.0678
B(  9-C , 10-H ) :   0.9603 B(  9-C , 11-H ) :   0.9570 B(  9-C , 12-C ) :   1.0600
B( 12-C , 13-H ) :   0.9768 B( 12-C , 14-H ) :   0.9762 B( 12-C , 15-H ) :   0.9750
B( 16-S , 17-C ) :   1.1346 B( 16-S , 20-C ) :   1.1593 B( 17-C , 18-C ) :   1.6257
B( 17-C , 33-H ) :   0.9705 B( 18-C , 19-C ) :   1.2178 B( 18-C , 21-H ) :   0.9841
B( 19-C , 20-C ) :   1.6105 B( 19-C , 22-C ) :   1.0510 B( 22-C , 23-H ) :   0.9270
B( 22-C , 24-H ) :   0.9275 B( 22-C , 25-C ) :   1.0627 B( 25-C , 26-H ) :   0.9569
B( 25-C , 27-H ) :   0.9517 B( 25-C , 28-C ) :   1.0846 B( 28-C , 29-H ) :   0.9688
B( 28-C , 30-H ) :   0.9705 B( 28-C , 31-H ) :   0.9753

Dispersion correction           -0.015312724
FINAL SINGLE POINT ENERGY     -1339.890827363962

DIPOLE MOMENT
-------------
                                X             Y             Z
Electronic contribution:     -4.00591      -9.83689      21.79049
Nuclear contribution   :      3.78394       9.85281     -22.35861
                        -----------------------------------------
Total Dipole Moment    :     -0.22197       0.01592      -0.56812
                        -----------------------------------------
Magnitude (a.u.)       :      0.61015
Magnitude (Debye)      :      1.55087

Rotational constants in cm-1:     0.021707     0.008523     0.007398
Rotational constants in MHz :   650.766553   255.514693   221.783618

                             ****ORCA TERMINATED NORMALLY****
TOTAL RUN TIME: 0 days 0 hours 0 minutes 22 seconds 303 msec
