                         Program Version 4.2.1 -  RELEASE  -
|  1> ! wB97X-D3 SP def2-SVP
|  2> %pal
|  3> nprocs 24
|  4> end
|  5>
|  6> * xyz 0 1
|  7> S 	 -50.8276 	 15.1571 	 29.348
|  8> C 	 -51.9359 	 14.8212 	 28.0299
|  9> C 	 -51.4414 	 13.9039 	 27.1256
| 10> C 	 -50.2179 	 13.3472 	 27.5547
| 11> C 	 -49.7258 	 13.8872 	 28.7375
| 12> H 	 -49.6832 	 12.573 	 27.0213
| 13> C 	 -52.113 	 13.6148 	 25.8331
| 14> H 	 -51.4834 	 12.9096 	 25.2813
| 15> H 	 -52.1412 	 14.5469 	 25.2827
| 16> C 	 -53.5245 	 13.0709 	 26.011
| 17> H 	 -53.3845 	 12.0316 	 26.126
| 18> H 	 -54.1267 	 13.4895 	 26.7696
| 19> C 	 -54.3251 	 13.2026 	 24.7003
| 20> H 	 -53.8648 	 12.6243 	 23.8799
| 21> H 	 -55.3332 	 12.9185 	 24.7239
| 22> H 	 -54.4438 	 14.2523 	 24.412
| 23> S 	 -48.4847 	 12.6035 	 30.8335
| 24> C 	 -46.7742 	 12.6932 	 30.9789
| 25> C 	 -46.1937 	 13.6004 	 30.0465
| 26> C 	 -47.2161 	 14.1717 	 29.1337
| 27> C 	 -48.4781 	 13.6938 	 29.4387
| 28> H 	 -45.1679 	 13.8353 	 29.9528
| 29> C 	 -46.8159 	 15.0877 	 28.0247
| 30> H 	 -47.5426 	 15.0509 	 27.2209
| 31> H 	 -45.8617 	 14.5616 	 27.6929
| 32> C 	 -46.578 	 16.5741 	 28.3861
| 33> H 	 -47.4917 	 16.9877 	 28.8871
| 34> H 	 -46.428 	 17.1014 	 27.4582
| 35> C 	 -45.3726 	 16.723 	 29.3949
| 36> H 	 -44.8523 	 17.6356 	 29.2272
| 37> H 	 -44.633 	 16.02 	 29.1701
| 38> H 	 -45.6808 	 16.5421 	 30.4056
| 39> H 	 -52.8826 	 15.3004 	 27.8728
| 40> H 	 -46.2219 	 12.0391 	 31.6921
| 41> *
| 42>
| 43>                          ****END OF INPUT****

CARTESIAN COORDINATES (ANGSTROEM)
---------------------------------
  S    -50.827600   15.157100   29.348000
  C    -51.935900   14.821200   28.029900
  C    -51.441400   13.903900   27.125600
  C    -50.217900   13.347200   27.554700
  C    -49.725800   13.887200   28.737500
  H    -49.683200   12.573000   27.021300
  C    -52.113000   13.614800   25.833100
  H    -51.483400   12.909600   25.281300
  H    -52.141200   14.546900   25.282700
  C    -53.524500   13.070900   26.011000
  H    -53.384500   12.031600   26.126000
  H    -54.126700   13.489500   26.769600
  C    -54.325100   13.202600   24.700300
  H    -53.864800   12.624300   23.879900
  H    -55.333200   12.918500   24.723900
  H    -54.443800   14.252300   24.412000
  S    -48.484700   12.603500   30.833500
  C    -46.774200   12.693200   30.978900
  C    -46.193700   13.600400   30.046500
  C    -47.216100   14.171700   29.133700
  C    -48.478100   13.693800   29.438700
  H    -45.167900   13.835300   29.952800
  C    -46.815900   15.087700   28.024700
  H    -47.542600   15.050900   27.220900
  H    -45.861700   14.561600   27.692900
  C    -46.578000   16.574100   28.386100
  H    -47.491700   16.987700   28.887100
  H    -46.428000   17.101400   27.458200
  C    -45.372600   16.723000   29.394900
  H    -44.852300   17.635600   29.227200
  H    -44.633000   16.020000   29.170100
  H    -45.680800   16.542100   30.405600
  H    -52.882600   15.300400   27.872800
  H    -46.221900   12.039100   31.692100

 Total Charge           Charge          ....    0
 Multiplicity           Mult            ....    1
 Number of Electrons    NEL             ....  134
 Basis Dimension        Dim             ....  322

ORBITAL ENERGIES
----------------

  NO   OCC          E(Eh)            E(eV)
   0   2.0000     -88.964357     -2420.8432
   1   2.0000     -88.963860     -2420.8297
   2   2.0000     -10.327570      -281.0275
   3   2.0000     -10.324974      -280.9568
   4   2.0000     -10.321337      -280.8579
   5   2.0000     -10.308776      -280.5161
   6   2.0000     -10.305286      -280.4211
   7   2.0000     -10.298707      -280.2421
   8   2.0000     -10.294559      -280.1292
   9   2.0000     -10.293320      -280.0955
  10   2.0000     -10.293000      -280.0868
  11   2.0000     -10.290547      -280.0200
  12   2.0000     -10.289144      -279.9819
  13   2.0000     -10.280143      -279.7369
  14   2.0000     -10.273414      -279.5538
  15   2.0000     -10.268842      -279.4294
  16   2.0000      -8.078979      -219.8402
  17   2.0000      -8.078356      -219.8232
  18   2.0000      -6.037432      -164.2869
  19   2.0000      -6.036759      -164.2686
  20   2.0000      -6.033363      -164.1762
  21   2.0000      -6.032996      -164.1662
  22   2.0000      -6.029848      -164.0805
  23   2.0000      -6.029258      -164.0644
  24   2.0000      -1.000379       -27.2217
  25   2.0000      -0.978586       -26.6287
  26   2.0000      -0.916873       -24.9494
  27   2.0000      -0.906456       -24.6659
  28   2.0000      -0.865664       -23.5559
  29   2.0000      -0.848968       -23.1016
  30   2.0000      -0.842868       -22.9356
  31   2.0000      -0.810511       -22.0551
  32   2.0000      -0.785647       -21.3785
  33   2.0000      -0.768298       -20.9065
  34   2.0000      -0.709116       -19.2960
  35   2.0000      -0.708639       -19.2831
  36   2.0000      -0.688534       -18.7360
  37   2.0000      -0.664686       -18.0870
  38   2.0000      -0.639616       -17.4048
  39   2.0000      -0.615269       -16.7423
  40   2.0000      -0.590110       -16.0577
  41   2.0000      -0.581972       -15.8363
  42   2.0000      -0.557464       -15.1694
  43   2.0000      -0.550427       -14.9779
  44   2.0000      -0.541291       -14.7293
  45   2.0000      -0.521901       -14.2016
  46   2.0000      -0.519670       -14.1409
  47   2.0000      -0.513101       -13.9622
  48   2.0000      -0.508744       -13.8436
  49   2.0000      -0.493283       -13.4229
  50   2.0000      -0.488322       -13.2879
  51   2.0000      -0.478101       -13.0098
  52   2.0000      -0.469768       -12.7830
  53   2.0000      -0.459055       -12.4915
  54   2.0000      -0.457413       -12.4468
  55   2.0000      -0.446843       -12.1592
  56   2.0000      -0.443444       -12.0667
  57   2.0000      -0.438839       -11.9414
  58   2.0000      -0.434391       -11.8204
  59   2.0000      -0.425666       -11.5830
  60   2.0000      -0.425275       -11.5723
  61   2.0000      -0.422228       -11.4894
  62   2.0000      -0.414442       -11.2775
  63   2.0000      -0.335628        -9.1329
  64   2.0000      -0.324277        -8.8240
  65   2.0000      -0.317982        -8.6527
  66   2.0000      -0.304414        -8.2835
  67   0.0000       0.044414         1.2086
  68   0.0000       0.051301         1.3960
  69   0.0000       0.111434         3.0323
  70   0.0000       0.116947         3.1823
  71   0.0000       0.124165         3.3787

MULLIKEN ATOMIC CHARGES
-----------------------
   0 S :    0.110177
   1 C :   -0.116675
   2 C :   -0.101457
   3 C :    0.064121
   4 C :   -0.187066
   5 H :    0.007444
   6 C :    0.083949
   7 H :    0.017705
   8 H :    0.033871
   9 C :   -0.043634
  10 H :    0.024277
  11 H :    0.031129
  12 C :   -0.054245
  13 H :    0.030849
  14 H :    0.016360
  15 H :    0.020574
  16 S :    0.122218
  17 C :   -0.105550
  18 C :   -0.026999
  19 C :   -0.012416
  20 C :   -0.196441
  21 H :    0.004742
  22 C :    0.032263
  23 H :    0.025866
  24 H :    0.038332
  25 C :   -0.061834
  26 H :    0.042376
  27 H :    0.033206
  28 C :   -0.019967
  29 H :    0.026140
  30 H :   -0.001711
  31 H :    0.048608
  32 H :    0.036207
  33 H :    0.077580
Sum of atomic charges:   -0.0000000

LOEWDIN ATOMIC CHARGES
----------------------
   0 S :    0.392509
   1 C :   -0.191862
   2 C :   -0.068698
   3 C :   -0.054898
   4 C :   -0.186672
   5 H :    0.032523
   6 C :   -0.026413
   7 H :    0.031198
   8 H :    0.032210
   9 C :   -0.028113
  10 H :    0.024568
  11 H :    0.019625
  12 C :   -0.066565
  13 H :    0.026650
  14 H :    0.016841
  15 H :    0.022390
  16 S :    0.413766
  17 C :   -0.196991
  18 C :   -0.070542
  19 C :   -0.044207
  20 C :   -0.216446
  21 H :    0.020412
  22 C :   -0.037496
  23 H :    0.028981
  24 H :    0.039129
  25 C :   -0.030177
  26 H :    0.032105
  27 H :    0.022438
  28 C :   -0.060083
  29 H :    0.025088
  30 H :    0.011744
  31 H :    0.028432
  32 H :    0.021610
  33 H :    0.036944

  Mayer bond orders larger than 0.100000
B(  0-S ,  1-C ) :   1.1449 B(  0-S ,  4-C ) :   1.1519 B(  1-C ,  2-C ) :   1.6065
B(  1-C ,  4-C ) :   0.1061 B(  1-C , 32-H ) :   0.9673 B(  2-C ,  3-C ) :   1.2567
B(  2-C ,  6-C ) :   1.0135 B(  3-C ,  4-C ) :   1.5795 B(  3-C ,  5-H ) :   0.9985
B(  4-C , 20-C ) :   1.0106 B(  6-C ,  7-H ) :   0.9380 B(  6-C ,  8-H ) :   0.9417
B(  6-C ,  9-C ) :   1.0561 B(  9-C , 10-H ) :   0.9535 B(  9-C , 11-H ) :   0.9658
B(  9-C , 12-C ) :   1.0864 B( 12-C , 13-H ) :   0.9737 B( 12-C , 14-H ) :   0.9732
B( 12-C , 15-H ) :   0.9749 B( 16-S , 17-C ) :   1.1754 B( 16-S , 20-C ) :   1.1352
B( 17-C , 18-C ) :   1.5848 B( 17-C , 33-H ) :   0.9632 B( 18-C , 19-C ) :   1.2261
B( 18-C , 21-H ) :   0.9911 B( 19-C , 20-C ) :   1.6197 B( 19-C , 22-C ) :   1.0375
B( 22-C , 23-H ) :   0.9292 B( 22-C , 24-H ) :   0.9389 B( 22-C , 25-C ) :   1.0763
B( 25-C , 26-H ) :   0.9550 B( 25-C , 27-H ) :   0.9598 B( 25-C , 28-C ) :   1.0694
B( 28-C , 29-H ) :   0.9708 B( 28-C , 30-H ) :   0.9739 B( 28-C , 31-H ) :   0.9741

Dispersion correction           -0.014333023
FINAL SINGLE POINT ENERGY     -1339.878573208033

DIPOLE MOMENT
-------------
                                X             Y             Z
Electronic contribution:      1.50949      -5.91021      19.17638
Nuclear contribution   :     -1.35915       5.92105     -19.76524
                        -----------------------------------------
Total Dipole Moment    :      0.15033       0.01084      -0.58886
                        -----------------------------------------
Magnitude (a.u.)       :      0.60784
Magnitude (Debye)      :      1.54501

Rotational constants in cm-1:     0.024622     0.006917     0.006198
Rotational constants in MHz :   738.162224   207.359785   185.796607

                             ****ORCA TERMINATED NORMALLY****
TOTAL RUN TIME: 0 days 0 hours 0 minutes 21 seconds 299 msec
