                         Program Version 4.2.1 -  RELEASE  -
|  1> ! wB97X-D3 SP def2-SVP
|  2> %pal
|  3> nprocs 24
|  4> end
|  5>
|  6> * xyz 0 1
|  7> S 	 -87.9371 	 2.48728 	 -111.211
|  8> C 	 -88.0746 	 4.26801 	 -111.279
|  9> C 	 -88.3074 	 4.76182 	 -112.599
| 10> C 	 -88.4945 	 3.63773 	 -113.458
| 11> C 	 -88.4252 	 2.43213 	 -112.88
| 12> H 	 -88.5792 	 3.61167 	 -114.519
| 13> C 	 -88.4698 	 6.18609 	 -113.122
| 14> H 	 -88.9533 	 6.79264 	 -112.38
| 15> H 	 -89.1629 	 6.1594 	 -113.958
| 16> C 	 -87.1441 	 6.91262 	 -113.64
| 17> H 	 -87.3022 	 8.03386 	 -113.837
| 18> H 	 -86.5454 	 7.01722 	 -112.804
| 19> C 	 -86.4044 	 6.06217 	 -114.751
| 20> H 	 -86.9917 	 6.0776 	 -115.658
| 21> H 	 -85.4964 	 6.486 	 -115.158
| 22> H 	 -86.1368 	 5.00087 	 -114.529
| 23> S 	 -90.0567 	 0.361748 	 -112.926
| 24> C 	 -89.8327 	 -0.963039 	 -113.963
| 25> C 	 -88.8153 	 -0.652222 	 -114.861
| 26> C 	 -88.1461 	 0.602093 	 -114.64
| 27> C 	 -88.6179 	 1.18327 	 -113.504
| 28> H 	 -88.8436 	 -1.25798 	 -115.759
| 29> C 	 -87.0783 	 1.17298 	 -115.642
| 30> H 	 -86.5974 	 1.91793 	 -115
| 31> H 	 -87.7093 	 1.63846 	 -116.478
| 32> C 	 -86.0546 	 0.169767 	 -116.202
| 33> H 	 -85.4012 	 0.749993 	 -116.848
| 34> H 	 -86.6154 	 -0.533625 	 -116.828
| 35> C 	 -85.129 	 -0.401589 	 -115.163
| 36> H 	 -84.5256 	 0.300725 	 -114.643
| 37> H 	 -84.5175 	 -1.13361 	 -115.617
| 38> H 	 -85.8742 	 -0.852316 	 -114.472
| 39> H 	 -87.8237 	 4.84817 	 -110.403
| 40> H 	 -90.4976 	 -1.83012 	 -114.1
| 41> *
| 42>
| 43>                          ****END OF INPUT****

CARTESIAN COORDINATES (ANGSTROEM)
---------------------------------
  S    -87.937100    2.487280  -111.211000
  C    -88.074600    4.268010  -111.279000
  C    -88.307400    4.761820  -112.599000
  C    -88.494500    3.637730  -113.458000
  C    -88.425200    2.432130  -112.880000
  H    -88.579200    3.611670  -114.519000
  C    -88.469800    6.186090  -113.122000
  H    -88.953300    6.792640  -112.380000
  H    -89.162900    6.159400  -113.958000
  C    -87.144100    6.912620  -113.640000
  H    -87.302200    8.033860  -113.837000
  H    -86.545400    7.017220  -112.804000
  C    -86.404400    6.062170  -114.751000
  H    -86.991700    6.077600  -115.658000
  H    -85.496400    6.486000  -115.158000
  H    -86.136800    5.000870  -114.529000
  S    -90.056700    0.361748  -112.926000
  C    -89.832700   -0.963039  -113.963000
  C    -88.815300   -0.652222  -114.861000
  C    -88.146100    0.602093  -114.640000
  C    -88.617900    1.183270  -113.504000
  H    -88.843600   -1.257980  -115.759000
  C    -87.078300    1.172980  -115.642000
  H    -86.597400    1.917930  -115.000000
  H    -87.709300    1.638460  -116.478000
  C    -86.054600    0.169767  -116.202000
  H    -85.401200    0.749993  -116.848000
  H    -86.615400   -0.533625  -116.828000
  C    -85.129000   -0.401589  -115.163000
  H    -84.525600    0.300725  -114.643000
  H    -84.517500   -1.133610  -115.617000
  H    -85.874200   -0.852316  -114.472000
  H    -87.823700    4.848170  -110.403000
  H    -90.497600   -1.830120  -114.100000

 Total Charge           Charge          ....    0
 Multiplicity           Mult            ....    1
 Number of Electrons    NEL             ....  134
 Basis Dimension        Dim             ....  322

ORBITAL ENERGIES
----------------

  NO   OCC          E(Eh)            E(eV)
   0   2.0000     -88.965855     -2420.8840
   1   2.0000     -88.959345     -2420.7068
   2   2.0000     -10.321985      -280.8755
   3   2.0000     -10.316294      -280.7206
   4   2.0000     -10.315648      -280.7031
   5   2.0000     -10.314304      -280.6665
   6   2.0000     -10.310466      -280.5620
   7   2.0000     -10.304114      -280.3892
   8   2.0000     -10.302546      -280.3465
   9   2.0000     -10.298045      -280.2241
  10   2.0000     -10.298002      -280.2229
  11   2.0000     -10.289466      -279.9906
  12   2.0000     -10.285490      -279.8824
  13   2.0000     -10.285468      -279.8818
  14   2.0000     -10.283251      -279.8215
  15   2.0000     -10.268891      -279.4307
  16   2.0000      -8.080419      -219.8794
  17   2.0000      -8.075331      -219.7409
  18   2.0000      -6.038795      -164.3240
  19   2.0000      -6.035162      -164.2251
  20   2.0000      -6.033816      -164.1885
  21   2.0000      -6.031113      -164.1149
  22   2.0000      -6.029619      -164.0743
  23   2.0000      -6.026049      -163.9771
  24   2.0000      -1.013170       -27.5698
  25   2.0000      -0.983053       -26.7502
  26   2.0000      -0.910502       -24.7760
  27   2.0000      -0.903409       -24.5830
  28   2.0000      -0.869939       -23.6722
  29   2.0000      -0.850338       -23.1389
  30   2.0000      -0.843098       -22.9419
  31   2.0000      -0.810819       -22.0635
  32   2.0000      -0.785049       -21.3623
  33   2.0000      -0.774904       -21.0862
  34   2.0000      -0.714406       -19.4400
  35   2.0000      -0.703060       -19.1312
  36   2.0000      -0.692634       -18.8475
  37   2.0000      -0.656006       -17.8508
  38   2.0000      -0.645918       -17.5763
  39   2.0000      -0.615336       -16.7441
  40   2.0000      -0.590739       -16.0748
  41   2.0000      -0.564662       -15.3652
  42   2.0000      -0.557419       -15.1682
  43   2.0000      -0.546911       -14.8822
  44   2.0000      -0.543656       -14.7936
  45   2.0000      -0.533822       -14.5260
  46   2.0000      -0.523455       -14.2439
  47   2.0000      -0.506006       -13.7691
  48   2.0000      -0.502667       -13.6783
  49   2.0000      -0.496162       -13.5012
  50   2.0000      -0.491250       -13.3676
  51   2.0000      -0.473834       -12.8937
  52   2.0000      -0.468428       -12.7466
  53   2.0000      -0.464456       -12.6385
  54   2.0000      -0.454027       -12.3547
  55   2.0000      -0.448141       -12.1945
  56   2.0000      -0.443535       -12.0692
  57   2.0000      -0.441253       -12.0071
  58   2.0000      -0.430919       -11.7259
  59   2.0000      -0.430206       -11.7065
  60   2.0000      -0.426294       -11.6001
  61   2.0000      -0.418771       -11.3953
  62   2.0000      -0.401060       -10.9134
  63   2.0000      -0.339031        -9.2255
  64   2.0000      -0.333891        -9.0856
  65   2.0000      -0.322082        -8.7643
  66   2.0000      -0.297754        -8.1023
  67   0.0000       0.035921         0.9775
  68   0.0000       0.064110         1.7445
  69   0.0000       0.108150         2.9429
  70   0.0000       0.113673         3.0932
  71   0.0000       0.125109         3.4044

MULLIKEN ATOMIC CHARGES
-----------------------
   0 S :    0.119586
   1 C :   -0.129422
   2 C :   -0.068443
   3 C :    0.039182
   4 C :   -0.181206
   5 H :   -0.003109
   6 C :    0.066905
   7 H :    0.024704
   8 H :    0.028790
   9 C :   -0.048682
  10 H :    0.041793
  11 H :    0.011022
  12 C :   -0.073264
  13 H :    0.022341
  14 H :    0.024700
  15 H :    0.058494
  16 S :    0.110987
  17 C :   -0.092200
  18 C :   -0.072570
  19 C :   -0.037050
  20 C :   -0.178093
  21 H :    0.019881
  22 C :    0.036860
  23 H :    0.029906
  24 H :    0.061242
  25 C :   -0.061764
  26 H :    0.021408
  27 H :    0.033315
  28 C :   -0.021903
  29 H :    0.029825
  30 H :    0.029165
  31 H :    0.040904
  32 H :    0.049106
  33 H :    0.067591
Sum of atomic charges:   -0.0000000

LOEWDIN ATOMIC CHARGES
----------------------
   0 S :    0.399227
   1 C :   -0.180931
   2 C :   -0.054632
   3 C :   -0.057227
   4 C :   -0.209550
   5 H :    0.028166
   6 C :   -0.026359
   7 H :    0.029812
   8 H :    0.029743
   9 C :   -0.036564
  10 H :    0.037481
  11 H :    0.010282
  12 C :   -0.076826
  13 H :    0.022784
  14 H :    0.025672
  15 H :    0.035077
  16 S :    0.428308
  17 C :   -0.205064
  18 C :   -0.088446
  19 C :   -0.060266
  20 C :   -0.205822
  21 H :    0.027732
  22 C :   -0.030770
  23 H :    0.028517
  24 H :    0.043973
  25 C :   -0.042860
  26 H :    0.023018
  27 H :    0.024317
  28 C :   -0.057205
  29 H :    0.023002
  30 H :    0.022445
  31 H :    0.033737
  32 H :    0.021607
  33 H :    0.037620

  Mayer bond orders larger than 0.100000
B(  0-S ,  1-C ) :   1.1442 B(  0-S ,  4-C ) :   1.1407 B(  1-C ,  2-C ) :   1.5988
B(  1-C ,  4-C ) :   0.1001 B(  1-C , 32-H ) :   0.9721 B(  2-C ,  3-C ) :   1.2109
B(  2-C ,  6-C ) :   1.0175 B(  3-C ,  4-C ) :   1.6262 B(  3-C ,  5-H ) :   0.9984
B(  4-C , 20-C ) :   1.0178 B(  6-C ,  7-H ) :   0.9418 B(  6-C ,  8-H ) :   0.9503
B(  6-C ,  9-C ) :   1.0577 B(  9-C , 10-H ) :   0.9584 B(  9-C , 11-H ) :   0.9588
B(  9-C , 12-C ) :   1.0572 B( 12-C , 13-H ) :   0.9770 B( 12-C , 14-H ) :   0.9736
B( 12-C , 15-H ) :   0.9740 B( 16-S , 17-C ) :   1.1670 B( 16-S , 20-C ) :   1.1567
B( 17-C , 18-C ) :   1.6111 B( 17-C , 20-C ) :   0.1008 B( 17-C , 33-H ) :   0.9635
B( 18-C , 19-C ) :   1.2177 B( 18-C , 21-H ) :   0.9836 B( 19-C , 20-C ) :   1.6165
B( 19-C , 22-C ) :   1.0100 B( 22-C , 23-H ) :   0.9355 B( 22-C , 24-H ) :   0.9360
B( 22-C , 25-C ) :   1.0797 B( 25-C , 26-H ) :   0.9503 B( 25-C , 27-H ) :   0.9514
B( 25-C , 28-C ) :   1.0759 B( 28-C , 29-H ) :   0.9727 B( 28-C , 30-H ) :   0.9718
B( 28-C , 31-H ) :   0.9754

Dispersion correction           -0.014961333
FINAL SINGLE POINT ENERGY     -1339.853942678854

DIPOLE MOMENT
-------------
                                X             Y             Z
Electronic contribution:    -16.01841     -11.01375      17.60973
Nuclear contribution   :     16.22529      11.38345     -18.24086
                        -----------------------------------------
Total Dipole Moment    :      0.20688       0.36970      -0.63113
                        -----------------------------------------
Magnitude (a.u.)       :      0.76013
Magnitude (Debye)      :      1.93210

Rotational constants in cm-1:     0.018280     0.009328     0.007263
Rotational constants in MHz :   548.031427   279.638435   217.746598

                             ****ORCA TERMINATED NORMALLY****
TOTAL RUN TIME: 0 days 0 hours 0 minutes 22 seconds 187 msec
