                         Program Version 4.2.1 -  RELEASE  -
|  1> ! wB97X-D3 SP def2-SVP
|  2> %pal
|  3> nprocs 24
|  4> end
|  5>
|  6> * xyz 0 1
|  7> S 	 -41.1906 	 -41.4661 	 -75.8313
|  8> C 	 -42.0892 	 -39.9343 	 -75.8795
|  9> C 	 -41.2764 	 -38.8191 	 -75.7849
| 10> C 	 -39.8816 	 -39.1982 	 -75.541
| 11> C 	 -39.6789 	 -40.5649 	 -75.5365
| 12> H 	 -39.0271 	 -38.5929 	 -75.4385
| 13> C 	 -41.6852 	 -37.4113 	 -75.7697
| 14> H 	 -42.5271 	 -37.0772 	 -76.4278
| 15> H 	 -40.8572 	 -36.8292 	 -76.1682
| 16> C 	 -41.9967 	 -36.9284 	 -74.3653
| 17> H 	 -42.6668 	 -37.7192 	 -73.972
| 18> H 	 -41.0493 	 -36.9305 	 -73.8061
| 19> C 	 -42.7004 	 -35.5747 	 -74.2554
| 20> H 	 -41.9703 	 -34.759 	 -74.3918
| 21> H 	 -43.4719 	 -35.5303 	 -75.0627
| 22> H 	 -43.1422 	 -35.4142 	 -73.2854
| 23> S 	 -38.5314 	 -42.5906 	 -73.9988
| 24> C 	 -36.814 	 -42.9374 	 -74.3217
| 25> C 	 -36.216 	 -41.9422 	 -75.0323
| 26> C 	 -37.1647 	 -40.9897 	 -75.534
| 27> C 	 -38.5013 	 -41.3247 	 -75.2506
| 28> H 	 -35.1298 	 -41.9789 	 -75.0265
| 29> C 	 -36.6772 	 -39.7765 	 -76.2612
| 30> H 	 -36.1423 	 -39.1214 	 -75.5973
| 31> H 	 -37.5629 	 -39.2697 	 -76.7022
| 32> C 	 -35.8963 	 -40.0518 	 -77.566
| 33> H 	 -36.5261 	 -40.3412 	 -78.3776
| 34> H 	 -35.2827 	 -40.8903 	 -77.4564
| 35> C 	 -35.0077 	 -38.8083 	 -77.9939
| 36> H 	 -34.3674 	 -38.3917 	 -77.2276
| 37> H 	 -35.6964 	 -38.0323 	 -78.2713
| 38> H 	 -34.5636 	 -38.972 	 -79.0088
| 39> H 	 -43.1351 	 -40.0059 	 -76.1798
| 40> H 	 -36.1968 	 -43.7224 	 -73.871
| 41> *
| 42>
| 43>                          ****END OF INPUT****

CARTESIAN COORDINATES (ANGSTROEM)
---------------------------------
  S    -41.190600  -41.466100  -75.831300
  C    -42.089200  -39.934300  -75.879500
  C    -41.276400  -38.819100  -75.784900
  C    -39.881600  -39.198200  -75.541000
  C    -39.678900  -40.564900  -75.536500
  H    -39.027100  -38.592900  -75.438500
  C    -41.685200  -37.411300  -75.769700
  H    -42.527100  -37.077200  -76.427800
  H    -40.857200  -36.829200  -76.168200
  C    -41.996700  -36.928400  -74.365300
  H    -42.666800  -37.719200  -73.972000
  H    -41.049300  -36.930500  -73.806100
  C    -42.700400  -35.574700  -74.255400
  H    -41.970300  -34.759000  -74.391800
  H    -43.471900  -35.530300  -75.062700
  H    -43.142200  -35.414200  -73.285400
  S    -38.531400  -42.590600  -73.998800
  C    -36.814000  -42.937400  -74.321700
  C    -36.216000  -41.942200  -75.032300
  C    -37.164700  -40.989700  -75.534000
  C    -38.501300  -41.324700  -75.250600
  H    -35.129800  -41.978900  -75.026500
  C    -36.677200  -39.776500  -76.261200
  H    -36.142300  -39.121400  -75.597300
  H    -37.562900  -39.269700  -76.702200
  C    -35.896300  -40.051800  -77.566000
  H    -36.526100  -40.341200  -78.377600
  H    -35.282700  -40.890300  -77.456400
  C    -35.007700  -38.808300  -77.993900
  H    -34.367400  -38.391700  -77.227600
  H    -35.696400  -38.032300  -78.271300
  H    -34.563600  -38.972000  -79.008800
  H    -43.135100  -40.005900  -76.179800
  H    -36.196800  -43.722400  -73.871000

 Total Charge           Charge          ....    0
 Multiplicity           Mult            ....    1
 Number of Electrons    NEL             ....  134
 Basis Dimension        Dim             ....  322

ORBITAL ENERGIES
----------------

  NO   OCC          E(Eh)            E(eV)
   0   2.0000     -88.966026     -2420.8886
   1   2.0000     -88.962986     -2420.8059
   2   2.0000     -10.330269      -281.1009
   3   2.0000     -10.328303      -281.0474
   4   2.0000     -10.318312      -280.7756
   5   2.0000     -10.317904      -280.7644
   6   2.0000     -10.307598      -280.4840
   7   2.0000     -10.305945      -280.4390
   8   2.0000     -10.296904      -280.1930
   9   2.0000     -10.293099      -280.0895
  10   2.0000     -10.291054      -280.0338
  11   2.0000     -10.289925      -280.0031
  12   2.0000     -10.285142      -279.8729
  13   2.0000     -10.282256      -279.7944
  14   2.0000     -10.281542      -279.7750
  15   2.0000     -10.281457      -279.7727
  16   2.0000      -8.079780      -219.8620
  17   2.0000      -8.077248      -219.7931
  18   2.0000      -6.038452      -164.3146
  19   2.0000      -6.035803      -164.2425
  20   2.0000      -6.034704      -164.2126
  21   2.0000      -6.031919      -164.1369
  22   2.0000      -6.030121      -164.0879
  23   2.0000      -6.027891      -164.0273
  24   2.0000      -1.002389       -27.2764
  25   2.0000      -0.978322       -26.6215
  26   2.0000      -0.917828       -24.9754
  27   2.0000      -0.906602       -24.6699
  28   2.0000      -0.871994       -23.7282
  29   2.0000      -0.849890       -23.1267
  30   2.0000      -0.842371       -22.9221
  31   2.0000      -0.816346       -22.2139
  32   2.0000      -0.782907       -21.3040
  33   2.0000      -0.768922       -20.9234
  34   2.0000      -0.711906       -19.3719
  35   2.0000      -0.698724       -19.0132
  36   2.0000      -0.695212       -18.9177
  37   2.0000      -0.661004       -17.9868
  38   2.0000      -0.643695       -17.5158
  39   2.0000      -0.622398       -16.9363
  40   2.0000      -0.594928       -16.1888
  41   2.0000      -0.572884       -15.5890
  42   2.0000      -0.568564       -15.4714
  43   2.0000      -0.559638       -15.2285
  44   2.0000      -0.527154       -14.3446
  45   2.0000      -0.524874       -14.2825
  46   2.0000      -0.517209       -14.0740
  47   2.0000      -0.514959       -14.0128
  48   2.0000      -0.504698       -13.7335
  49   2.0000      -0.498403       -13.5622
  50   2.0000      -0.492670       -13.4062
  51   2.0000      -0.477045       -12.9810
  52   2.0000      -0.467523       -12.7220
  53   2.0000      -0.456404       -12.4194
  54   2.0000      -0.453989       -12.3537
  55   2.0000      -0.450842       -12.2680
  56   2.0000      -0.446667       -12.1544
  57   2.0000      -0.445029       -12.1099
  58   2.0000      -0.431967       -11.7544
  59   2.0000      -0.428292       -11.6544
  60   2.0000      -0.422024       -11.4839
  61   2.0000      -0.413171       -11.2430
  62   2.0000      -0.407836       -11.0978
  63   2.0000      -0.352540        -9.5931
  64   2.0000      -0.329559        -8.9678
  65   2.0000      -0.327206        -8.9037
  66   2.0000      -0.288131        -7.8405
  67   0.0000       0.021486         0.5847
  68   0.0000       0.070395         1.9155
  69   0.0000       0.098587         2.6827
  70   0.0000       0.106419         2.8958
  71   0.0000       0.131350         3.5742

MULLIKEN ATOMIC CHARGES
-----------------------
   0 S :    0.089912
   1 C :   -0.129477
   2 C :   -0.057558
   3 C :    0.047044
   4 C :   -0.186417
   5 H :   -0.001867
   6 C :    0.049810
   7 H :    0.024520
   8 H :    0.015654
   9 C :   -0.097907
  10 H :    0.032407
  11 H :    0.031196
  12 C :   -0.026888
  13 H :    0.030681
  14 H :    0.030552
  15 H :    0.038900
  16 S :    0.100819
  17 C :   -0.095914
  18 C :   -0.035550
  19 C :   -0.045524
  20 C :   -0.098099
  21 H :    0.027224
  22 C :    0.038592
  23 H :    0.039579
  24 H :    0.037568
  25 C :   -0.046005
  26 H :    0.024416
  27 H :    0.009279
  28 C :   -0.061250
  29 H :    0.042840
  30 H :    0.013747
  31 H :    0.039041
  32 H :    0.060367
  33 H :    0.058308
Sum of atomic charges:   -0.0000000

LOEWDIN ATOMIC CHARGES
----------------------
   0 S :    0.375157
   1 C :   -0.182710
   2 C :   -0.056216
   3 C :   -0.051601
   4 C :   -0.176568
   5 H :    0.023522
   6 C :   -0.043887
   7 H :    0.031998
   8 H :    0.028375
   9 C :   -0.043061
  10 H :    0.026857
  11 H :    0.025208
  12 C :   -0.065452
  13 H :    0.026309
  14 H :    0.027073
  15 H :    0.026722
  16 S :    0.378589
  17 C :   -0.173378
  18 C :   -0.073271
  19 C :   -0.050873
  20 C :   -0.196177
  21 H :    0.037299
  22 C :   -0.037672
  23 H :    0.030681
  24 H :    0.038199
  25 C :   -0.028469
  26 H :    0.024789
  27 H :    0.008299
  28 C :   -0.070821
  29 H :    0.024024
  30 H :    0.020829
  31 H :    0.034273
  32 H :    0.028288
  33 H :    0.033664

  Mayer bond orders larger than 0.100000
B(  0-S ,  1-C ) :   1.1262 B(  0-S ,  4-C ) :   1.1350 B(  1-C ,  2-C ) :   1.6221
B(  1-C , 32-H ) :   0.9692 B(  2-C ,  3-C ) :   1.1905 B(  2-C ,  6-C ) :   1.0512
B(  3-C ,  4-C ) :   1.6045 B(  3-C ,  5-H ) :   0.9908 B(  4-C , 20-C ) :   1.0674
B(  6-C ,  7-H ) :   0.9390 B(  6-C ,  8-H ) :   0.9274 B(  6-C ,  9-C ) :   1.0580
B(  9-C , 10-H ) :   0.9582 B(  9-C , 11-H ) :   0.9530 B(  9-C , 12-C ) :   1.0826
B( 12-C , 13-H ) :   0.9738 B( 12-C , 14-H ) :   0.9729 B( 12-C , 15-H ) :   0.9743
B( 16-S , 17-C ) :   1.1312 B( 16-S , 20-C ) :   1.1206 B( 17-C , 18-C ) :   1.6547
B( 17-C , 33-H ) :   0.9620 B( 18-C , 19-C ) :   1.2041 B( 18-C , 21-H ) :   0.9891
B( 19-C , 20-C ) :   1.5923 B( 19-C , 22-C ) :   1.0586 B( 22-C , 23-H ) :   0.9406
B( 22-C , 24-H ) :   0.9274 B( 22-C , 25-C ) :   1.0455 B( 25-C , 26-H ) :   0.9561
B( 25-C , 27-H ) :   0.9642 B( 25-C , 28-C ) :   1.0717 B( 28-C , 29-H ) :   0.9793
B( 28-C , 30-H ) :   0.9736 B( 28-C , 31-H ) :   0.9723

Dispersion correction           -0.013456716
FINAL SINGLE POINT ENERGY     -1339.867989920690

DIPOLE MOMENT
-------------
                                X             Y             Z
Electronic contribution:     -5.42292     -26.56983       7.11179
Nuclear contribution   :      5.76266      27.22419      -7.19479
                        -----------------------------------------
Total Dipole Moment    :      0.33974       0.65436      -0.08299
                        -----------------------------------------
Magnitude (a.u.)       :      0.74196
Magnitude (Debye)      :      1.88591

Rotational constants in cm-1:     0.017331     0.008084     0.006335
Rotational constants in MHz :   519.566415   242.345632   189.912893

                             ****ORCA TERMINATED NORMALLY****
TOTAL RUN TIME: 0 days 0 hours 0 minutes 21 seconds 172 msec
