                         Program Version 4.2.1 -  RELEASE  -
|  1> ! wB97X-D3 SP def2-SVP
|  2> %pal
|  3> nprocs 24
|  4> end
|  5>
|  6> * xyz 0 1
|  7> S 	 -108.694 	 15.9592 	 -10.5442
|  8> C 	 -108.36 	 15.8345 	 -8.86264
|  9> C 	 -109.134 	 14.8309 	 -8.28629
| 10> C 	 -109.905 	 14.0791 	 -9.23498
| 11> C 	 -109.89 	 14.5837 	 -10.4976
| 12> H 	 -110.514 	 13.1803 	 -9.02024
| 13> C 	 -109.074 	 14.5682 	 -6.80275
| 14> H 	 -110.11 	 14.4637 	 -6.34382
| 15> H 	 -108.759 	 15.4823 	 -6.45186
| 16> C 	 -108.179 	 13.4111 	 -6.38737
| 17> H 	 -107.183 	 13.6695 	 -6.66207
| 18> H 	 -108.184 	 13.4567 	 -5.25252
| 19> C 	 -108.576 	 12.0318 	 -6.92329
| 20> H 	 -108.231 	 11.7543 	 -7.88247
| 21> H 	 -108.159 	 11.3351 	 -6.33316
| 22> H 	 -109.679 	 11.8284 	 -6.92119
| 23> S 	 -109.289 	 13.4401 	 -12.9207
| 24> C 	 -110.415 	 12.4985 	 -13.7724
| 25> C 	 -111.67 	 12.6814 	 -13.2713
| 26> C 	 -111.722 	 13.4768 	 -12.0964
| 27> C 	 -110.449 	 13.9493 	 -11.6926
| 28> H 	 -112.626 	 12.2872 	 -13.7511
| 29> C 	 -112.93 	 13.8084 	 -11.2817
| 30> H 	 -113.423 	 14.5888 	 -11.8566
| 31> H 	 -112.58 	 14.1275 	 -10.2811
| 32> C 	 -114.129 	 12.7709 	 -11.2114
| 33> H 	 -113.796 	 11.821 	 -10.9627
| 34> H 	 -114.565 	 12.6851 	 -12.1472
| 35> C 	 -115.223 	 13.2828 	 -10.3197
| 36> H 	 -116.072 	 12.6404 	 -10.2984
| 37> H 	 -115.639 	 14.2445 	 -10.4955
| 38> H 	 -114.84 	 13.3358 	 -9.32487
| 39> H 	 -107.689 	 16.4364 	 -8.30437
| 40> H 	 -110.187 	 12.0528 	 -14.7187
| 41> *
| 42>
| 43>                          ****END OF INPUT****

CARTESIAN COORDINATES (ANGSTROEM)
---------------------------------
  S    -108.694000   15.959200  -10.544200
  C    -108.360000   15.834500   -8.862640
  C    -109.134000   14.830900   -8.286290
  C    -109.905000   14.079100   -9.234980
  C    -109.890000   14.583700  -10.497600
  H    -110.514000   13.180300   -9.020240
  C    -109.074000   14.568200   -6.802750
  H    -110.110000   14.463700   -6.343820
  H    -108.759000   15.482300   -6.451860
  C    -108.179000   13.411100   -6.387370
  H    -107.183000   13.669500   -6.662070
  H    -108.184000   13.456700   -5.252520
  C    -108.576000   12.031800   -6.923290
  H    -108.231000   11.754300   -7.882470
  H    -108.159000   11.335100   -6.333160
  H    -109.679000   11.828400   -6.921190
  S    -109.289000   13.440100  -12.920700
  C    -110.415000   12.498500  -13.772400
  C    -111.670000   12.681400  -13.271300
  C    -111.722000   13.476800  -12.096400
  C    -110.449000   13.949300  -11.692600
  H    -112.626000   12.287200  -13.751100
  C    -112.930000   13.808400  -11.281700
  H    -113.423000   14.588800  -11.856600
  H    -112.580000   14.127500  -10.281100
  C    -114.129000   12.770900  -11.211400
  H    -113.796000   11.821000  -10.962700
  H    -114.565000   12.685100  -12.147200
  C    -115.223000   13.282800  -10.319700
  H    -116.072000   12.640400  -10.298400
  H    -115.639000   14.244500  -10.495500
  H    -114.840000   13.335800   -9.324870
  H    -107.689000   16.436400   -8.304370
  H    -110.187000   12.052800  -14.718700

 Total Charge           Charge          ....    0
 Multiplicity           Mult            ....    1
 Number of Electrons    NEL             ....  134
 Basis Dimension        Dim             ....  322

ORBITAL ENERGIES
----------------

  NO   OCC          E(Eh)            E(eV)
   0   2.0000     -88.963977     -2420.8329
   1   2.0000     -88.960038     -2420.7257
   2   2.0000     -10.333124      -281.1786
   3   2.0000     -10.326937      -281.0102
   4   2.0000     -10.312783      -280.6251
   5   2.0000     -10.312608      -280.6203
   6   2.0000     -10.304606      -280.4026
   7   2.0000     -10.298291      -280.2308
   8   2.0000     -10.296210      -280.1741
   9   2.0000     -10.295663      -280.1592
  10   2.0000     -10.291568      -280.0478
  11   2.0000     -10.288801      -279.9725
  12   2.0000     -10.285215      -279.8749
  13   2.0000     -10.277742      -279.6716
  14   2.0000     -10.268839      -279.4293
  15   2.0000     -10.267899      -279.4037
  16   2.0000      -8.078181      -219.8185
  17   2.0000      -8.075849      -219.7550
  18   2.0000      -6.036802      -164.2697
  19   2.0000      -6.034178      -164.1983
  20   2.0000      -6.032715      -164.1585
  21   2.0000      -6.030068      -164.0865
  22   2.0000      -6.028889      -164.0544
  23   2.0000      -6.026838      -163.9986
  24   2.0000      -1.005854       -27.3707
  25   2.0000      -0.985566       -26.8186
  26   2.0000      -0.911886       -24.8137
  27   2.0000      -0.911794       -24.8112
  28   2.0000      -0.873166       -23.7600
  29   2.0000      -0.856271       -23.3003
  30   2.0000      -0.844032       -22.9673
  31   2.0000      -0.821084       -22.3428
  32   2.0000      -0.784351       -21.3433
  33   2.0000      -0.771439       -20.9919
  34   2.0000      -0.715076       -19.4582
  35   2.0000      -0.703997       -19.1567
  36   2.0000      -0.699627       -19.0378
  37   2.0000      -0.652237       -17.7483
  38   2.0000      -0.642426       -17.4813
  39   2.0000      -0.616247       -16.7689
  40   2.0000      -0.597731       -16.2651
  41   2.0000      -0.576091       -15.6762
  42   2.0000      -0.571376       -15.5479
  43   2.0000      -0.550162       -14.9707
  44   2.0000      -0.537687       -14.6312
  45   2.0000      -0.528849       -14.3907
  46   2.0000      -0.517596       -14.0845
  47   2.0000      -0.511356       -13.9147
  48   2.0000      -0.506508       -13.7828
  49   2.0000      -0.501571       -13.6484
  50   2.0000      -0.491268       -13.3681
  51   2.0000      -0.483523       -13.1573
  52   2.0000      -0.476945       -12.9783
  53   2.0000      -0.466797       -12.7022
  54   2.0000      -0.462395       -12.5824
  55   2.0000      -0.452317       -12.3082
  56   2.0000      -0.441751       -12.0206
  57   2.0000      -0.435588       -11.8530
  58   2.0000      -0.429106       -11.6766
  59   2.0000      -0.427298       -11.6274
  60   2.0000      -0.425401       -11.5758
  61   2.0000      -0.416415       -11.3312
  62   2.0000      -0.408875       -11.1260
  63   2.0000      -0.350873        -9.5477
  64   2.0000      -0.327137        -8.9018
  65   2.0000      -0.322233        -8.7684
  66   2.0000      -0.292838        -7.9685
  67   0.0000       0.032359         0.8805
  68   0.0000       0.066076         1.7980
  69   0.0000       0.116835         3.1792
  70   0.0000       0.122965         3.3460
  71   0.0000       0.130113         3.5406

MULLIKEN ATOMIC CHARGES
-----------------------
   0 S :    0.100500
   1 C :   -0.097006
   2 C :   -0.124222
   3 C :    0.041421
   4 C :   -0.157644
   5 H :    0.029817
   6 C :    0.080429
   7 H :    0.034425
   8 H :   -0.013868
   9 C :   -0.052231
  10 H :    0.014632
  11 H :    0.035990
  12 C :    0.002482
  13 H :    0.029090
  14 H :    0.002258
  15 H :    0.026642
  16 S :    0.104964
  17 C :   -0.073312
  18 C :   -0.057088
  19 C :   -0.029861
  20 C :   -0.169871
  21 H :    0.039849
  22 C :    0.033550
  23 H :    0.037285
  24 H :    0.034096
  25 C :   -0.024620
  26 H :    0.012794
  27 H :    0.006728
  28 C :   -0.014166
  29 H :    0.021506
  30 H :    0.017114
  31 H :    0.013619
  32 H :    0.038898
  33 H :    0.055802
Sum of atomic charges:    0.0000000

LOEWDIN ATOMIC CHARGES
----------------------
   0 S :    0.383664
   1 C :   -0.196883
   2 C :   -0.064821
   3 C :   -0.059294
   4 C :   -0.179202
   5 H :    0.039380
   6 C :   -0.034684
   7 H :    0.035365
   8 H :    0.016566
   9 C :   -0.033695
  10 H :    0.019994
  11 H :    0.031163
  12 C :   -0.058985
  13 H :    0.025275
  14 H :    0.013738
  15 H :    0.030044
  16 S :    0.426358
  17 C :   -0.195302
  18 C :   -0.089238
  19 C :   -0.055301
  20 C :   -0.202875
  21 H :    0.042221
  22 C :   -0.030892
  23 H :    0.040239
  24 H :    0.032591
  25 C :   -0.026060
  26 H :    0.013631
  27 H :    0.013680
  28 C :   -0.057124
  29 H :    0.023714
  30 H :    0.022248
  31 H :    0.021657
  32 H :    0.024437
  33 H :    0.028390

  Mayer bond orders larger than 0.100000
B(  0-S ,  1-C ) :   1.1415 B(  0-S ,  4-C ) :   1.1230 B(  1-C ,  2-C ) :   1.6134
B(  1-C , 32-H ) :   0.9687 B(  2-C ,  3-C ) :   1.2300 B(  2-C ,  6-C ) :   1.0228
B(  3-C ,  4-C ) :   1.5970 B(  3-C ,  5-H ) :   0.9836 B(  4-C , 20-C ) :   1.0351
B(  6-C ,  7-H ) :   0.9412 B(  6-C ,  8-H ) :   0.9284 B(  6-C ,  9-C ) :   1.0808
B(  9-C , 10-H ) :   0.9489 B(  9-C , 11-H ) :   0.9563 B(  9-C , 12-C ) :   1.0760
B( 12-C , 13-H ) :   0.9689 B( 12-C , 14-H ) :   0.9654 B( 12-C , 15-H ) :   0.9737
B( 16-S , 17-C ) :   1.1877 B( 16-S , 20-C ) :   1.1498 B( 17-C , 18-C ) :   1.5593
B( 17-C , 20-C ) :   0.1021 B( 17-C , 33-H ) :   0.9674 B( 18-C , 19-C ) :   1.2860
B( 18-C , 21-H ) :   0.9780 B( 19-C , 20-C ) :   1.5499 B( 19-C , 22-C ) :   1.0462
B( 22-C , 23-H ) :   0.9225 B( 22-C , 24-H ) :   0.9438 B( 22-C , 25-C ) :   1.0660
B( 25-C , 26-H ) :   0.9583 B( 25-C , 27-H ) :   0.9438 B( 25-C , 28-C ) :   1.0972
B( 28-C , 29-H ) :   0.9706 B( 28-C , 30-H ) :   0.9712 B( 28-C , 31-H ) :   0.9731

Dispersion correction           -0.013940652
FINAL SINGLE POINT ENERGY     -1339.862372750513

DIPOLE MOMENT
-------------
                                X             Y             Z
Electronic contribution:     15.57663      10.30747     -19.00565
Nuclear contribution   :    -15.96487     -10.64751      19.39146
                        -----------------------------------------
Total Dipole Moment    :     -0.38824      -0.34004       0.38581
                        -----------------------------------------
Magnitude (a.u.)       :      0.64436
Magnitude (Debye)      :      1.63785

Rotational constants in cm-1:     0.016413     0.008793     0.007053
Rotational constants in MHz :   492.061663   263.617630   211.447178

                             ****ORCA TERMINATED NORMALLY****
TOTAL RUN TIME: 0 days 0 hours 0 minutes 21 seconds 443 msec
