                         Program Version 4.2.1 -  RELEASE  -
|  1> ! wB97X-D3 SP def2-SVP
|  2> %pal
|  3> nprocs 24
|  4> end
|  5>
|  6> * xyz 0 1
|  7> S 	 -124.722 	 63.9554 	 -50.1802
|  8> C 	 -124.468 	 65.4535 	 -49.4475
|  9> C 	 -125.45 	 66.3712 	 -49.8235
| 10> C 	 -126.47 	 65.7719 	 -50.6049
| 11> C 	 -126.341 	 64.3626 	 -50.6187
| 12> H 	 -127.309 	 66.2875 	 -51.0855
| 13> C 	 -125.344 	 67.831 	 -49.6213
| 14> H 	 -124.997 	 68.0527 	 -48.6432
| 15> H 	 -126.304 	 68.3137 	 -49.7134
| 16> C 	 -124.539 	 68.5758 	 -50.6678
| 17> H 	 -123.528 	 68.1692 	 -50.5725
| 18> H 	 -124.814 	 68.3081 	 -51.6932
| 19> C 	 -124.503 	 70.1574 	 -50.6509
| 20> H 	 -124.385 	 70.4879 	 -51.6389
| 21> H 	 -125.43 	 70.5178 	 -50.234
| 22> H 	 -123.651 	 70.6049 	 -50.1824
| 23> S 	 -126.606 	 62.0013 	 -52.0798
| 24> C 	 -128.17 	 61.3111 	 -52.3267
| 25> C 	 -129.163 	 62.0914 	 -51.8767
| 26> C 	 -128.672 	 63.3214 	 -51.3131
| 27> C 	 -127.283 	 63.3829 	 -51.1827
| 28> H 	 -130.212 	 61.7881 	 -52.0499
| 29> C 	 -129.661 	 64.3221 	 -50.7163
| 30> H 	 -130.694 	 64.0251 	 -50.9694
| 31> H 	 -129.565 	 65.2443 	 -51.2784
| 32> C 	 -129.673 	 64.602 	 -49.2141
| 33> H 	 -128.77 	 65.0619 	 -48.7996
| 34> H 	 -129.691 	 63.6849 	 -48.6594
| 35> C 	 -130.76 	 65.5267 	 -48.7847
| 36> H 	 -131.752 	 65.2243 	 -49.3308
| 37> H 	 -130.533 	 66.5069 	 -49.107
| 38> H 	 -130.975 	 65.4975 	 -47.6487
| 39> H 	 -123.551 	 65.6787 	 -48.9949
| 40> H 	 -128.395 	 60.4227 	 -52.9184
| 41> *
| 42>
| 43>                          ****END OF INPUT****

CARTESIAN COORDINATES (ANGSTROEM)
---------------------------------
  S    -124.722000   63.955400  -50.180200
  C    -124.468000   65.453500  -49.447500
  C    -125.450000   66.371200  -49.823500
  C    -126.470000   65.771900  -50.604900
  C    -126.341000   64.362600  -50.618700
  H    -127.309000   66.287500  -51.085500
  C    -125.344000   67.831000  -49.621300
  H    -124.997000   68.052700  -48.643200
  H    -126.304000   68.313700  -49.713400
  C    -124.539000   68.575800  -50.667800
  H    -123.528000   68.169200  -50.572500
  H    -124.814000   68.308100  -51.693200
  C    -124.503000   70.157400  -50.650900
  H    -124.385000   70.487900  -51.638900
  H    -125.430000   70.517800  -50.234000
  H    -123.651000   70.604900  -50.182400
  S    -126.606000   62.001300  -52.079800
  C    -128.170000   61.311100  -52.326700
  C    -129.163000   62.091400  -51.876700
  C    -128.672000   63.321400  -51.313100
  C    -127.283000   63.382900  -51.182700
  H    -130.212000   61.788100  -52.049900
  C    -129.661000   64.322100  -50.716300
  H    -130.694000   64.025100  -50.969400
  H    -129.565000   65.244300  -51.278400
  C    -129.673000   64.602000  -49.214100
  H    -128.770000   65.061900  -48.799600
  H    -129.691000   63.684900  -48.659400
  C    -130.760000   65.526700  -48.784700
  H    -131.752000   65.224300  -49.330800
  H    -130.533000   66.506900  -49.107000
  H    -130.975000   65.497500  -47.648700
  H    -123.551000   65.678700  -48.994900
  H    -128.395000   60.422700  -52.918400

 Total Charge           Charge          ....    0
 Multiplicity           Mult            ....    1
 Number of Electrons    NEL             ....  134
 Basis Dimension        Dim             ....  322

ORBITAL ENERGIES
----------------

  NO   OCC          E(Eh)            E(eV)
   0   2.0000     -88.968322     -2420.9511
   1   2.0000     -88.963558     -2420.8215
   2   2.0000     -10.333914      -281.2001
   3   2.0000     -10.332903      -281.1726
   4   2.0000     -10.312468      -280.6165
   5   2.0000     -10.307933      -280.4931
   6   2.0000     -10.307513      -280.4817
   7   2.0000     -10.300526      -280.2916
   8   2.0000     -10.298764      -280.2436
   9   2.0000     -10.292650      -280.0772
  10   2.0000     -10.292331      -280.0686
  11   2.0000     -10.285834      -279.8918
  12   2.0000     -10.284246      -279.8486
  13   2.0000     -10.283896      -279.8390
  14   2.0000     -10.276440      -279.6361
  15   2.0000     -10.274719      -279.5893
  16   2.0000      -8.084539      -219.9915
  17   2.0000      -8.078494      -219.8270
  18   2.0000      -6.042817      -164.4334
  19   2.0000      -6.038946      -164.3281
  20   2.0000      -6.037085      -164.2774
  21   2.0000      -6.035356      -164.2304
  22   2.0000      -6.033025      -164.1670
  23   2.0000      -6.029116      -164.0606
  24   2.0000      -1.013020       -27.5657
  25   2.0000      -0.991221       -26.9725
  26   2.0000      -0.915656       -24.9163
  27   2.0000      -0.909904       -24.7598
  28   2.0000      -0.870579       -23.6897
  29   2.0000      -0.854598       -23.2548
  30   2.0000      -0.848102       -23.0780
  31   2.0000      -0.818514       -22.2729
  32   2.0000      -0.785715       -21.3804
  33   2.0000      -0.770219       -20.9587
  34   2.0000      -0.706709       -19.2305
  35   2.0000      -0.702909       -19.1271
  36   2.0000      -0.690502       -18.7895
  37   2.0000      -0.662878       -18.0378
  38   2.0000      -0.642736       -17.4897
  39   2.0000      -0.624209       -16.9856
  40   2.0000      -0.596572       -16.2335
  41   2.0000      -0.576584       -15.6897
  42   2.0000      -0.564916       -15.3722
  43   2.0000      -0.556636       -15.1468
  44   2.0000      -0.527411       -14.3516
  45   2.0000      -0.523243       -14.2382
  46   2.0000      -0.519752       -14.1432
  47   2.0000      -0.511853       -13.9282
  48   2.0000      -0.509812       -13.8727
  49   2.0000      -0.505640       -13.7592
  50   2.0000      -0.494250       -13.4492
  51   2.0000      -0.480404       -13.0725
  52   2.0000      -0.477816       -13.0020
  53   2.0000      -0.465025       -12.6540
  54   2.0000      -0.459074       -12.4920
  55   2.0000      -0.453041       -12.3279
  56   2.0000      -0.444431       -12.0936
  57   2.0000      -0.438154       -11.9228
  58   2.0000      -0.433463       -11.7951
  59   2.0000      -0.425624       -11.5818
  60   2.0000      -0.417768       -11.3680
  61   2.0000      -0.410873       -11.1804
  62   2.0000      -0.406684       -11.0664
  63   2.0000      -0.358644        -9.7592
  64   2.0000      -0.333256        -9.0683
  65   2.0000      -0.327141        -8.9020
  66   2.0000      -0.283614        -7.7175
  67   0.0000       0.017639         0.4800
  68   0.0000       0.075807         2.0628
  69   0.0000       0.103189         2.8079
  70   0.0000       0.126070         3.4306
  71   0.0000       0.132576         3.6076

MULLIKEN ATOMIC CHARGES
-----------------------
   0 S :    0.123610
   1 C :   -0.086760
   2 C :   -0.097332
   3 C :    0.011672
   4 C :   -0.144535
   5 H :    0.022907
   6 C :    0.114634
   7 H :    0.018317
   8 H :    0.000005
   9 C :   -0.105453
  10 H :    0.013520
  11 H :    0.024514
  12 C :   -0.001696
  13 H :    0.018314
  14 H :    0.026229
  15 H :    0.029109
  16 S :    0.085008
  17 C :   -0.076032
  18 C :   -0.043712
  19 C :   -0.045306
  20 C :   -0.121345
  21 H :    0.031033
  22 C :    0.047522
  23 H :    0.005328
  24 H :    0.020246
  25 C :   -0.026393
  26 H :    0.028850
  27 H :    0.020034
  28 C :   -0.087119
  29 H :    0.027394
  30 H :    0.024380
  31 H :    0.054777
  32 H :    0.030775
  33 H :    0.057505
Sum of atomic charges:   -0.0000000

LOEWDIN ATOMIC CHARGES
----------------------
   0 S :    0.449916
   1 C :   -0.206677
   2 C :   -0.061350
   3 C :   -0.058504
   4 C :   -0.199926
   5 H :    0.034294
   6 C :   -0.033996
   7 H :    0.027666
   8 H :    0.024471
   9 C :   -0.039975
  10 H :    0.019142
  11 H :    0.023993
  12 C :   -0.058731
  13 H :    0.022855
  14 H :    0.023056
  15 H :    0.024465
  16 S :    0.390251
  17 C :   -0.188434
  18 C :   -0.079127
  19 C :   -0.056095
  20 C :   -0.183346
  21 H :    0.040087
  22 C :   -0.034409
  23 H :    0.029577
  24 H :    0.026597
  25 C :   -0.049550
  26 H :    0.027149
  27 H :    0.022543
  28 C :   -0.068960
  29 H :    0.026962
  30 H :    0.015271
  31 H :    0.039107
  32 H :    0.016502
  33 H :    0.035177

  Mayer bond orders larger than 0.100000
B(  0-S ,  1-C ) :   1.1699 B(  0-S ,  4-C ) :   1.1900 B(  1-C ,  2-C ) :   1.5359
B(  1-C ,  4-C ) :   0.1069 B(  1-C , 32-H ) :   0.9807 B(  2-C ,  3-C ) :   1.2925
B(  2-C ,  6-C ) :   1.0559 B(  3-C ,  4-C ) :   1.4826 B(  3-C ,  5-H ) :   0.9943
B(  4-C , 20-C ) :   1.0803 B(  6-C ,  7-H ) :   0.9334 B(  6-C ,  8-H ) :   0.9256
B(  6-C ,  9-C ) :   1.0623 B(  9-C , 10-H ) :   0.9562 B(  9-C , 11-H ) :   0.9624
B(  9-C , 12-C ) :   1.0641 B( 12-C , 13-H ) :   0.9767 B( 12-C , 14-H ) :   0.9770
B( 12-C , 15-H ) :   0.9773 B( 16-S , 17-C ) :   1.1487 B( 16-S , 20-C ) :   1.1215
B( 17-C , 18-C ) :   1.6414 B( 17-C , 33-H ) :   0.9597 B( 18-C , 19-C ) :   1.2329
B( 18-C , 21-H ) :   0.9853 B( 19-C , 20-C ) :   1.5991 B( 19-C , 22-C ) :   1.0442
B( 22-C , 23-H ) :   0.9336 B( 22-C , 24-H ) :   0.9272 B( 22-C , 25-C ) :   1.0638
B( 25-C , 26-H ) :   0.9441 B( 25-C , 27-H ) :   0.9522 B( 25-C , 28-C ) :   1.0828
B( 28-C , 29-H ) :   0.9724 B( 28-C , 30-H ) :   0.9756 B( 28-C , 31-H ) :   0.9716

Dispersion correction           -0.013974191
FINAL SINGLE POINT ENERGY     -1339.866772335903

DIPOLE MOMENT
-------------
                                X             Y             Z
Electronic contribution:     10.99758     -26.61975      -7.46100
Nuclear contribution   :    -11.26627      27.12437       7.39961
                        -----------------------------------------
Total Dipole Moment    :     -0.26869       0.50462      -0.06139
                        -----------------------------------------
Magnitude (a.u.)       :      0.57498
Magnitude (Debye)      :      1.46148

Rotational constants in cm-1:     0.018510     0.008411     0.006490
Rotational constants in MHz :   554.903819   252.156466   194.576062

                             ****ORCA TERMINATED NORMALLY****
TOTAL RUN TIME: 0 days 0 hours 0 minutes 21 seconds 519 msec
