                         Program Version 4.2.1 -  RELEASE  -
|  1> ! wB97X-D3 SP def2-SVP
|  2> %pal
|  3> nprocs 24
|  4> end
|  5>
|  6> * xyz 0 1
|  7> S 	 -48.1236 	 13.1103 	 -96.5161
|  8> C 	 -48.7106 	 11.6499 	 -95.9435
|  9> C 	 -49.342 	 10.8545 	 -96.8697
| 10> C 	 -49.4542 	 11.5535 	 -98.1284
| 11> C 	 -48.8887 	 12.8269 	 -98.0921
| 12> H 	 -49.8729 	 11.3249 	 -99.0515
| 13> C 	 -49.7616 	 9.36796 	 -96.7502
| 14> H 	 -50.2078 	 9.19275 	 -95.7547
| 15> H 	 -48.8767 	 8.73366 	 -96.6933
| 16> C 	 -50.6212 	 8.72899 	 -97.8659
| 17> H 	 -50.1231 	 8.87934 	 -98.8313
| 18> H 	 -50.61 	 7.6214 	 -97.732
| 19> C 	 -52.0695 	 9.16296 	 -97.9649
| 20> H 	 -52.1422 	 10.17 	 -98.3857
| 21> H 	 -52.5822 	 8.35393 	 -98.4699
| 22> H 	 -52.4256 	 9.19311 	 -96.9585
| 23> S 	 -49.5199 	 15.5012 	 -98.5936
| 24> C 	 -49.4699 	 16.0325 	 -100.282
| 25> C 	 -49.0203 	 15.0669 	 -101.136
| 26> C 	 -48.6829 	 13.8107 	 -100.467
| 27> C 	 -48.952 	 13.8635 	 -99.1011
| 28> H 	 -48.9772 	 15.3144 	 -102.234
| 29> C 	 -48.1949 	 12.602 	 -101.266
| 30> H 	 -47.7938 	 11.8338 	 -100.613
| 31> H 	 -47.5131 	 12.8914 	 -102.025
| 32> C 	 -49.3078 	 11.96 	 -102.143
| 33> H 	 -49.5683 	 12.6419 	 -102.954
| 34> H 	 -50.1756 	 11.6835 	 -101.543
| 35> C 	 -48.8585 	 10.6561 	 -102.708
| 36> H 	 -49.557 	 10.1289 	 -103.363
| 37> H 	 -48.5022 	 9.88949 	 -101.978
| 38> H 	 -47.899 	 10.7559 	 -103.207
| 39> H 	 -48.544 	 11.3001 	 -94.9401
| 40> H 	 -49.6729 	 17.0434 	 -100.523
| 41> *
| 42>
| 43>                          ****END OF INPUT****

CARTESIAN COORDINATES (ANGSTROEM)
---------------------------------
  S    -48.123600   13.110300  -96.516100
  C    -48.710600   11.649900  -95.943500
  C    -49.342000   10.854500  -96.869700
  C    -49.454200   11.553500  -98.128400
  C    -48.888700   12.826900  -98.092100
  H    -49.872900   11.324900  -99.051500
  C    -49.761600    9.367960  -96.750200
  H    -50.207800    9.192750  -95.754700
  H    -48.876700    8.733660  -96.693300
  C    -50.621200    8.728990  -97.865900
  H    -50.123100    8.879340  -98.831300
  H    -50.610000    7.621400  -97.732000
  C    -52.069500    9.162960  -97.964900
  H    -52.142200   10.170000  -98.385700
  H    -52.582200    8.353930  -98.469900
  H    -52.425600    9.193110  -96.958500
  S    -49.519900   15.501200  -98.593600
  C    -49.469900   16.032500  -100.282000
  C    -49.020300   15.066900  -101.136000
  C    -48.682900   13.810700  -100.467000
  C    -48.952000   13.863500  -99.101100
  H    -48.977200   15.314400  -102.234000
  C    -48.194900   12.602000  -101.266000
  H    -47.793800   11.833800  -100.613000
  H    -47.513100   12.891400  -102.025000
  C    -49.307800   11.960000  -102.143000
  H    -49.568300   12.641900  -102.954000
  H    -50.175600   11.683500  -101.543000
  C    -48.858500   10.656100  -102.708000
  H    -49.557000   10.128900  -103.363000
  H    -48.502200    9.889490  -101.978000
  H    -47.899000   10.755900  -103.207000
  H    -48.544000   11.300100  -94.940100
  H    -49.672900   17.043400  -100.523000

 Total Charge           Charge          ....    0
 Multiplicity           Mult            ....    1
 Number of Electrons    NEL             ....  134
 Basis Dimension        Dim             ....  322

ORBITAL ENERGIES
----------------

  NO   OCC          E(Eh)            E(eV)
   0   2.0000     -88.966213     -2420.8937
   1   2.0000     -88.963029     -2420.8071
   2   2.0000     -10.330586      -281.1095
   3   2.0000     -10.327239      -281.0185
   4   2.0000     -10.316620      -280.7295
   5   2.0000     -10.310746      -280.5696
   6   2.0000     -10.308674      -280.5133
   7   2.0000     -10.305383      -280.4237
   8   2.0000     -10.301240      -280.3110
   9   2.0000     -10.297133      -280.1992
  10   2.0000     -10.292936      -280.0850
  11   2.0000     -10.292876      -280.0834
  12   2.0000     -10.289507      -279.9917
  13   2.0000     -10.287498      -279.9371
  14   2.0000     -10.278037      -279.6796
  15   2.0000     -10.272348      -279.5248
  16   2.0000      -8.082053      -219.9238
  17   2.0000      -8.076954      -219.7851
  18   2.0000      -6.040361      -164.3666
  19   2.0000      -6.036417      -164.2593
  20   2.0000      -6.035607      -164.2372
  21   2.0000      -6.032956      -164.1651
  22   2.0000      -6.031721      -164.1315
  23   2.0000      -6.027460      -164.0155
  24   2.0000      -1.005254       -27.3544
  25   2.0000      -0.979781       -26.6612
  26   2.0000      -0.914360       -24.8810
  27   2.0000      -0.908201       -24.7134
  28   2.0000      -0.873110       -23.7585
  29   2.0000      -0.852954       -23.2101
  30   2.0000      -0.846617       -23.0376
  31   2.0000      -0.815494       -22.1907
  32   2.0000      -0.784686       -21.3524
  33   2.0000      -0.772930       -21.0325
  34   2.0000      -0.706766       -19.2321
  35   2.0000      -0.697789       -18.9878
  36   2.0000      -0.689250       -18.7554
  37   2.0000      -0.661443       -17.9988
  38   2.0000      -0.646774       -17.5996
  39   2.0000      -0.620761       -16.8918
  40   2.0000      -0.598321       -16.2811
  41   2.0000      -0.577538       -15.7156
  42   2.0000      -0.561313       -15.2741
  43   2.0000      -0.548949       -14.9377
  44   2.0000      -0.541538       -14.7360
  45   2.0000      -0.525401       -14.2969
  46   2.0000      -0.516802       -14.0629
  47   2.0000      -0.512655       -13.9500
  48   2.0000      -0.508019       -13.8239
  49   2.0000      -0.499814       -13.6006
  50   2.0000      -0.491483       -13.3739
  51   2.0000      -0.480703       -13.0806
  52   2.0000      -0.475944       -12.9511
  53   2.0000      -0.461579       -12.5602
  54   2.0000      -0.458385       -12.4733
  55   2.0000      -0.451983       -12.2991
  56   2.0000      -0.441612       -12.0169
  57   2.0000      -0.432620       -11.7722
  58   2.0000      -0.430332       -11.7099
  59   2.0000      -0.429335       -11.6828
  60   2.0000      -0.425140       -11.5686
  61   2.0000      -0.418861       -11.3978
  62   2.0000      -0.415650       -11.3104
  63   2.0000      -0.350364        -9.5339
  64   2.0000      -0.329010        -8.9528
  65   2.0000      -0.328587        -8.9413
  66   2.0000      -0.291054        -7.9200
  67   0.0000       0.029458         0.8016
  68   0.0000       0.071128         1.9355
  69   0.0000       0.109608         2.9826
  70   0.0000       0.117046         3.1850
  71   0.0000       0.123582         3.3628

MULLIKEN ATOMIC CHARGES
-----------------------
   0 S :    0.128546
   1 C :   -0.111206
   2 C :   -0.050294
   3 C :    0.048305
   4 C :   -0.185365
   5 H :   -0.031790
   6 C :    0.060002
   7 H :    0.022370
   8 H :    0.038229
   9 C :   -0.124406
  10 H :    0.028398
  11 H :    0.029813
  12 C :   -0.007505
  13 H :    0.043002
  14 H :    0.036679
  15 H :    0.016431
  16 S :    0.089901
  17 C :   -0.083512
  18 C :   -0.043479
  19 C :   -0.016132
  20 C :   -0.151755
  21 H :    0.041811
  22 C :    0.071971
  23 H :    0.029705
  24 H :    0.017877
  25 C :   -0.070903
  26 H :    0.035153
  27 H :    0.034856
  28 C :   -0.055494
  29 H :    0.042663
  30 H :    0.021124
  31 H :    0.009305
  32 H :    0.038200
  33 H :    0.047500
Sum of atomic charges:   -0.0000000

LOEWDIN ATOMIC CHARGES
----------------------
   0 S :    0.427721
   1 C :   -0.213315
   2 C :   -0.063976
   3 C :   -0.052376
   4 C :   -0.189288
   5 H :    0.018501
   6 C :   -0.036163
   7 H :    0.029856
   8 H :    0.036080
   9 C :   -0.048904
  10 H :    0.020851
  11 H :    0.030082
  12 C :   -0.061553
  13 H :    0.028008
  14 H :    0.029441
  15 H :    0.021843
  16 S :    0.365135
  17 C :   -0.166020
  18 C :   -0.076996
  19 C :   -0.047549
  20 C :   -0.184771
  21 H :    0.042459
  22 C :   -0.023541
  23 H :    0.029706
  24 H :    0.028797
  25 C :   -0.038198
  26 H :    0.025798
  27 H :    0.022130
  28 C :   -0.076965
  29 H :    0.027756
  30 H :    0.027929
  31 H :    0.020618
  32 H :    0.025797
  33 H :    0.021106

  Mayer bond orders larger than 0.100000
B(  0-S ,  1-C ) :   1.1609 B(  0-S ,  4-C ) :   1.1471 B(  1-C ,  2-C ) :   1.6182
B(  1-C , 32-H ) :   0.9672 B(  2-C ,  3-C ) :   1.2214 B(  2-C ,  6-C ) :   0.9997
B(  3-C ,  4-C ) :   1.5799 B(  3-C ,  5-H ) :   1.0013 B(  4-C , 20-C ) :   1.0598
B(  6-C ,  7-H ) :   0.9381 B(  6-C ,  8-H ) :   0.9378 B(  6-C ,  9-C ) :   1.0938
B(  9-C , 10-H ) :   0.9441 B(  9-C , 11-H ) :   0.9539 B(  9-C , 12-C ) :   1.0796
B( 12-C , 13-H ) :   0.9743 B( 12-C , 14-H ) :   0.9744 B( 12-C , 15-H ) :   0.9725
B( 16-S , 17-C ) :   1.1339 B( 16-S , 20-C ) :   1.1113 B( 17-C , 18-C ) :   1.6578
B( 17-C , 33-H ) :   0.9709 B( 18-C , 19-C ) :   1.1830 B( 18-C , 21-H ) :   0.9802
B( 19-C , 20-C ) :   1.6269 B( 19-C , 22-C ) :   1.0650 B( 22-C , 23-H ) :   0.9379
B( 22-C , 24-H ) :   0.9266 B( 22-C , 25-C ) :   1.0586 B( 25-C , 26-H ) :   0.9511
B( 25-C , 27-H ) :   0.9541 B( 25-C , 28-C ) :   1.0918 B( 28-C , 29-H ) :   0.9732
B( 28-C , 30-H ) :   0.9682 B( 28-C , 31-H ) :   0.9643

Dispersion correction           -0.014517992
FINAL SINGLE POINT ENERGY     -1339.883130746492

DIPOLE MOMENT
-------------
                                X             Y             Z
Electronic contribution:      7.78749      26.19511      15.22363
Nuclear contribution   :     -7.82636     -26.75961     -15.65661
                        -----------------------------------------
Total Dipole Moment    :     -0.03886      -0.56449      -0.43299
                        -----------------------------------------
Magnitude (a.u.)       :      0.71249
Magnitude (Debye)      :      1.81100

Rotational constants in cm-1:     0.015698     0.010354     0.007214
Rotational constants in MHz :   470.625543   310.406836   216.265212

                             ****ORCA TERMINATED NORMALLY****
TOTAL RUN TIME: 0 days 0 hours 0 minutes 22 seconds 152 msec
