                         Program Version 4.2.1 -  RELEASE  -
|  1> ! wB97X-D3 SP def2-SVP
|  2> %pal
|  3> nprocs 24
|  4> end
|  5>
|  6> * xyz 0 1
|  7> S 	 -48.1882 	 25.3403 	 31.546
|  8> C 	 -48.4298 	 26.5547 	 32.7346
|  9> C 	 -47.2838 	 26.7458 	 33.507
| 10> C 	 -46.1634 	 25.9727 	 33.0424
| 11> C 	 -46.482 	 25.0853 	 32.0312
| 12> H 	 -45.1326 	 25.899 	 33.3369
| 13> C 	 -47.1446 	 27.7138 	 34.6813
| 14> H 	 -47.6724 	 28.6033 	 34.4832
| 15> H 	 -46.1171 	 28.0693 	 34.8059
| 16> C 	 -47.7098 	 27.3234 	 36.0258
| 17> H 	 -47.6052 	 28.1312 	 36.7301
| 18> H 	 -48.7906 	 27.1533 	 35.9345
| 19> C 	 -47.1512 	 25.9749 	 36.621
| 20> H 	 -47.0944 	 25.1234 	 35.8669
| 21> H 	 -46.0862 	 26.1215 	 36.8476
| 22> H 	 -47.7655 	 25.6426 	 37.4575
| 23> S 	 -45.9254 	 24.052 	 29.5482
| 24> C 	 -44.5921 	 22.9477 	 29.4469
| 25> C 	 -43.9238 	 22.7219 	 30.6319
| 26> C 	 -44.4539 	 23.4485 	 31.6959
| 27> C 	 -45.6172 	 24.1485 	 31.3228
| 28> H 	 -43.0121 	 22.0682 	 30.6248
| 29> C 	 -43.7635 	 23.596 	 33.0329
| 30> H 	 -43.4098 	 24.585 	 33.2506
| 31> H 	 -42.8922 	 22.9421 	 33.0855
| 32> C 	 -44.4334 	 23.0165 	 34.2971
| 33> H 	 -44.518 	 21.929 	 34.3168
| 34> H 	 -45.4521 	 23.372 	 34.3531
| 35> C 	 -43.8729 	 23.5406 	 35.6589
| 36> H 	 -42.8892 	 23.1919 	 35.9138
| 37> H 	 -44.4837 	 23.1416 	 36.4685
| 38> H 	 -43.9335 	 24.6513 	 35.7266
| 39> H 	 -49.3224 	 27.2131 	 32.7515
| 40> H 	 -44.2265 	 22.5182 	 28.4741
| 41> *
| 42>
| 43>                          ****END OF INPUT****

CARTESIAN COORDINATES (ANGSTROEM)
---------------------------------
  S    -48.188200   25.340300   31.546000
  C    -48.429800   26.554700   32.734600
  C    -47.283800   26.745800   33.507000
  C    -46.163400   25.972700   33.042400
  C    -46.482000   25.085300   32.031200
  H    -45.132600   25.899000   33.336900
  C    -47.144600   27.713800   34.681300
  H    -47.672400   28.603300   34.483200
  H    -46.117100   28.069300   34.805900
  C    -47.709800   27.323400   36.025800
  H    -47.605200   28.131200   36.730100
  H    -48.790600   27.153300   35.934500
  C    -47.151200   25.974900   36.621000
  H    -47.094400   25.123400   35.866900
  H    -46.086200   26.121500   36.847600
  H    -47.765500   25.642600   37.457500
  S    -45.925400   24.052000   29.548200
  C    -44.592100   22.947700   29.446900
  C    -43.923800   22.721900   30.631900
  C    -44.453900   23.448500   31.695900
  C    -45.617200   24.148500   31.322800
  H    -43.012100   22.068200   30.624800
  C    -43.763500   23.596000   33.032900
  H    -43.409800   24.585000   33.250600
  H    -42.892200   22.942100   33.085500
  C    -44.433400   23.016500   34.297100
  H    -44.518000   21.929000   34.316800
  H    -45.452100   23.372000   34.353100
  C    -43.872900   23.540600   35.658900
  H    -42.889200   23.191900   35.913800
  H    -44.483700   23.141600   36.468500
  H    -43.933500   24.651300   35.726600
  H    -49.322400   27.213100   32.751500
  H    -44.226500   22.518200   28.474100

 Total Charge           Charge          ....    0
 Multiplicity           Mult            ....    1
 Number of Electrons    NEL             ....  134
 Basis Dimension        Dim             ....  322

ORBITAL ENERGIES
----------------

  NO   OCC          E(Eh)            E(eV)
   0   2.0000     -88.971976     -2421.0505
   1   2.0000     -88.965371     -2420.8708
   2   2.0000     -10.333845      -281.1982
   3   2.0000     -10.331574      -281.1364
   4   2.0000     -10.321005      -280.8488
   5   2.0000     -10.317476      -280.7528
   6   2.0000     -10.309546      -280.5370
   7   2.0000     -10.307501      -280.4814
   8   2.0000     -10.297583      -280.2115
   9   2.0000     -10.294513      -280.1279
  10   2.0000     -10.294125      -280.1174
  11   2.0000     -10.286796      -279.9179
  12   2.0000     -10.285769      -279.8900
  13   2.0000     -10.285495      -279.8826
  14   2.0000     -10.281331      -279.7692
  15   2.0000     -10.279930      -279.7311
  16   2.0000      -8.086061      -220.0329
  17   2.0000      -8.080080      -219.8702
  18   2.0000      -6.044391      -164.4762
  19   2.0000      -6.040811      -164.3788
  20   2.0000      -6.038578      -164.3181
  21   2.0000      -6.036892      -164.2722
  22   2.0000      -6.034547      -164.2084
  23   2.0000      -6.030904      -164.1092
  24   2.0000      -1.005488       -27.3607
  25   2.0000      -0.983843       -26.7717
  26   2.0000      -0.909640       -24.7526
  27   2.0000      -0.908096       -24.7106
  28   2.0000      -0.868418       -23.6308
  29   2.0000      -0.856242       -23.2995
  30   2.0000      -0.842054       -22.9135
  31   2.0000      -0.811566       -22.0838
  32   2.0000      -0.786278       -21.3957
  33   2.0000      -0.772300       -21.0154
  34   2.0000      -0.706214       -19.2171
  35   2.0000      -0.698132       -18.9971
  36   2.0000      -0.688861       -18.7449
  37   2.0000      -0.664277       -18.0759
  38   2.0000      -0.641374       -17.4527
  39   2.0000      -0.614960       -16.7339
  40   2.0000      -0.598431       -16.2841
  41   2.0000      -0.570748       -15.5309
  42   2.0000      -0.568574       -15.4717
  43   2.0000      -0.545578       -14.8459
  44   2.0000      -0.537709       -14.6318
  45   2.0000      -0.521360       -14.1869
  46   2.0000      -0.512696       -13.9512
  47   2.0000      -0.507504       -13.8099
  48   2.0000      -0.504274       -13.7220
  49   2.0000      -0.500285       -13.6134
  50   2.0000      -0.490697       -13.3525
  51   2.0000      -0.479795       -13.0559
  52   2.0000      -0.476115       -12.9557
  53   2.0000      -0.465687       -12.6720
  54   2.0000      -0.455775       -12.4023
  55   2.0000      -0.450608       -12.2617
  56   2.0000      -0.442771       -12.0484
  57   2.0000      -0.439622       -11.9627
  58   2.0000      -0.434485       -11.8229
  59   2.0000      -0.429399       -11.6845
  60   2.0000      -0.422824       -11.5056
  61   2.0000      -0.407410       -11.0862
  62   2.0000      -0.403841       -10.9891
  63   2.0000      -0.355133        -9.6637
  64   2.0000      -0.340629        -9.2690
  65   2.0000      -0.329491        -8.9659
  66   2.0000      -0.282491        -7.6870
  67   0.0000       0.017518         0.4767
  68   0.0000       0.071492         1.9454
  69   0.0000       0.099417         2.7053
  70   0.0000       0.119283         3.2458
  71   0.0000       0.125764         3.4222

MULLIKEN ATOMIC CHARGES
-----------------------
   0 S :    0.099150
   1 C :   -0.125962
   2 C :   -0.076303
   3 C :    0.028194
   4 C :   -0.145863
   5 H :   -0.012711
   6 C :    0.093877
   7 H :    0.007269
   8 H :    0.021057
   9 C :   -0.069056
  10 H :    0.029846
  11 H :    0.022279
  12 C :   -0.089314
  13 H :    0.048953
  14 H :    0.026545
  15 H :    0.042795
  16 S :    0.111909
  17 C :   -0.105319
  18 C :   -0.053608
  19 C :    0.005474
  20 C :   -0.141682
  21 H :    0.037036
  22 C :    0.046851
  23 H :    0.038631
  24 H :    0.016268
  25 C :   -0.091950
  26 H :    0.033276
  27 H :    0.028913
  28 C :   -0.057702
  29 H :    0.024421
  30 H :    0.032885
  31 H :    0.034506
  32 H :    0.069060
  33 H :    0.070277
Sum of atomic charges:   -0.0000000

LOEWDIN ATOMIC CHARGES
----------------------
   0 S :    0.396233
   1 C :   -0.211443
   2 C :   -0.060117
   3 C :   -0.066903
   4 C :   -0.179853
   5 H :    0.029476
   6 C :   -0.033968
   7 H :    0.027052
   8 H :    0.030373
   9 C :   -0.037977
  10 H :    0.023009
  11 H :    0.022390
  12 C :   -0.075544
  13 H :    0.032130
  14 H :    0.020487
  15 H :    0.026045
  16 S :    0.400020
  17 C :   -0.193947
  18 C :   -0.078443
  19 C :   -0.052802
  20 C :   -0.176534
  21 H :    0.044095
  22 C :   -0.035362
  23 H :    0.026825
  24 H :    0.035787
  25 C :   -0.039996
  26 H :    0.025067
  27 H :    0.019194
  28 C :   -0.064499
  29 H :    0.016535
  30 H :    0.029896
  31 H :    0.025819
  32 H :    0.039323
  33 H :    0.037634

  Mayer bond orders larger than 0.100000
B(  0-S ,  1-C ) :   1.1470 B(  0-S ,  4-C ) :   1.1387 B(  1-C ,  2-C ) :   1.5998
B(  1-C , 32-H ) :   0.9632 B(  2-C ,  3-C ) :   1.2196 B(  2-C ,  6-C ) :   1.0230
B(  3-C ,  4-C ) :   1.5764 B(  3-C ,  5-H ) :   0.9954 B(  4-C , 20-C ) :   1.0728
B(  6-C ,  7-H ) :   0.9304 B(  6-C ,  8-H ) :   0.9438 B(  6-C ,  9-C ) :   1.0838
B(  9-C , 10-H ) :   0.9547 B(  9-C , 11-H ) :   0.9551 B(  9-C , 12-C ) :   1.0681
B( 12-C , 13-H ) :   0.9752 B( 12-C , 14-H ) :   0.9753 B( 12-C , 15-H ) :   0.9750
B( 16-S , 17-C ) :   1.1630 B( 16-S , 20-C ) :   1.1402 B( 17-C , 18-C ) :   1.6059
B( 17-C , 20-C ) :   0.1053 B( 17-C , 33-H ) :   0.9562 B( 18-C , 19-C ) :   1.2695
B( 18-C , 21-H ) :   0.9816 B( 19-C , 20-C ) :   1.5593 B( 19-C , 22-C ) :   1.0389
B( 22-C , 23-H ) :   0.9403 B( 22-C , 24-H ) :   0.9301 B( 22-C , 25-C ) :   1.0459
B( 25-C , 26-H ) :   0.9558 B( 25-C , 27-H ) :   0.9590 B( 25-C , 28-C ) :   1.0817
B( 28-C , 29-H ) :   0.9755 B( 28-C , 30-H ) :   0.9724 B( 28-C , 31-H ) :   0.9737

Dispersion correction           -0.015655212
FINAL SINGLE POINT ENERGY     -1339.877889655160

DIPOLE MOMENT
-------------
                                X             Y             Z
Electronic contribution:     -8.39341      -2.48777     -31.12108
Nuclear contribution   :      8.82305       2.61327      31.51232
                        -----------------------------------------
Total Dipole Moment    :      0.42964       0.12550       0.39124
                        -----------------------------------------
Magnitude (a.u.)       :      0.59448
Magnitude (Debye)      :      1.51105

Rotational constants in cm-1:     0.018751     0.010214     0.007022
Rotational constants in MHz :   562.144328   306.212555   210.509072

                             ****ORCA TERMINATED NORMALLY****
TOTAL RUN TIME: 0 days 0 hours 0 minutes 21 seconds 521 msec
