                         Program Version 4.2.1 -  RELEASE  -
|  1> ! wB97X-D3 SP def2-SVP
|  2> %pal
|  3> nprocs 24
|  4> end
|  5>
|  6> * xyz 0 1
|  7> S 	 -69.219 	 -43.3276 	 -95.11
|  8> C 	 -68.792 	 -41.6375 	 -95.1533
|  9> C 	 -69.3689 	 -41.0693 	 -96.2761
| 10> C 	 -70.1301 	 -41.9734 	 -97.0282
| 11> C 	 -70.1288 	 -43.2865 	 -96.5463
| 12> H 	 -70.7231 	 -41.7861 	 -97.9403
| 13> C 	 -69.1264 	 -39.6896 	 -96.7322
| 14> H 	 -69.0589 	 -38.9991 	 -95.9377
| 15> H 	 -70.0583 	 -39.3956 	 -97.2005
| 16> C 	 -67.9921 	 -39.5263 	 -97.775
| 17> H 	 -67.637 	 -38.5283 	 -97.8636
| 18> H 	 -67.106 	 -40.0376 	 -97.3106
| 19> C 	 -68.1854 	 -40.217 	 -99.1851
| 20> H 	 -67.2414 	 -40.2652 	 -99.7447
| 21> H 	 -68.7581 	 -41.0991 	 -99.0685
| 22> H 	 -68.8873 	 -39.626 	 -99.8071
| 23> S 	 -69.7747 	 -46.0301 	 -96.8626
| 24> C 	 -70.8268 	 -46.9006 	 -97.989
| 25> C 	 -71.9932 	 -46.2157 	 -98.1581
| 26> C 	 -71.8888 	 -44.8193 	 -97.7767
| 27> C 	 -70.7008 	 -44.5467 	 -97.1122
| 28> H 	 -72.8897 	 -46.7158 	 -98.4594
| 29> C 	 -73.007 	 -43.8845 	 -98.0996
| 30> H 	 -73.6777 	 -44.4366 	 -98.7569
| 31> H 	 -72.6387 	 -43.1483 	 -98.8211
| 32> C 	 -73.6177 	 -43.1489 	 -96.8926
| 33> H 	 -74.3706 	 -42.4511 	 -97.3272
| 34> H 	 -72.8589 	 -42.5959 	 -96.2902
| 35> C 	 -74.395 	 -44.0446 	 -95.8842
| 36> H 	 -73.7351 	 -44.7239 	 -95.4662
| 37> H 	 -75.2762 	 -44.616 	 -96.278
| 38> H 	 -74.7497 	 -43.5099 	 -95.0268
| 39> H 	 -68.1378 	 -41.2016 	 -94.4114
| 40> H 	 -70.7388 	 -47.9854 	 -98.0422
| 41> *
| 42>
| 43>                          ****END OF INPUT****

CARTESIAN COORDINATES (ANGSTROEM)
---------------------------------
  S    -69.219000  -43.327600  -95.110000
  C    -68.792000  -41.637500  -95.153300
  C    -69.368900  -41.069300  -96.276100
  C    -70.130100  -41.973400  -97.028200
  C    -70.128800  -43.286500  -96.546300
  H    -70.723100  -41.786100  -97.940300
  C    -69.126400  -39.689600  -96.732200
  H    -69.058900  -38.999100  -95.937700
  H    -70.058300  -39.395600  -97.200500
  C    -67.992100  -39.526300  -97.775000
  H    -67.637000  -38.528300  -97.863600
  H    -67.106000  -40.037600  -97.310600
  C    -68.185400  -40.217000  -99.185100
  H    -67.241400  -40.265200  -99.744700
  H    -68.758100  -41.099100  -99.068500
  H    -68.887300  -39.626000  -99.807100
  S    -69.774700  -46.030100  -96.862600
  C    -70.826800  -46.900600  -97.989000
  C    -71.993200  -46.215700  -98.158100
  C    -71.888800  -44.819300  -97.776700
  C    -70.700800  -44.546700  -97.112200
  H    -72.889700  -46.715800  -98.459400
  C    -73.007000  -43.884500  -98.099600
  H    -73.677700  -44.436600  -98.756900
  H    -72.638700  -43.148300  -98.821100
  C    -73.617700  -43.148900  -96.892600
  H    -74.370600  -42.451100  -97.327200
  H    -72.858900  -42.595900  -96.290200
  C    -74.395000  -44.044600  -95.884200
  H    -73.735100  -44.723900  -95.466200
  H    -75.276200  -44.616000  -96.278000
  H    -74.749700  -43.509900  -95.026800
  H    -68.137800  -41.201600  -94.411400
  H    -70.738800  -47.985400  -98.042200

 Total Charge           Charge          ....    0
 Multiplicity           Mult            ....    1
 Number of Electrons    NEL             ....  134
 Basis Dimension        Dim             ....  322

ORBITAL ENERGIES
----------------

  NO   OCC          E(Eh)            E(eV)
   0   2.0000     -88.965388     -2420.8713
   1   2.0000     -88.963650     -2420.8240
   2   2.0000     -10.334224      -281.2085
   3   2.0000     -10.332842      -281.1709
   4   2.0000     -10.317829      -280.7624
   5   2.0000     -10.314493      -280.6716
   6   2.0000     -10.305437      -280.4252
   7   2.0000     -10.299434      -280.2618
   8   2.0000     -10.296369      -280.1784
   9   2.0000     -10.295357      -280.1509
  10   2.0000     -10.293439      -280.0987
  11   2.0000     -10.293063      -280.0885
  12   2.0000     -10.288705      -279.9699
  13   2.0000     -10.285521      -279.8832
  14   2.0000     -10.277849      -279.6745
  15   2.0000     -10.269016      -279.4341
  16   2.0000      -8.081191      -219.9004
  17   2.0000      -8.078177      -219.8184
  18   2.0000      -6.039510      -164.3434
  19   2.0000      -6.036830      -164.2705
  20   2.0000      -6.035354      -164.2303
  21   2.0000      -6.032977      -164.1657
  22   2.0000      -6.032287      -164.1469
  23   2.0000      -6.028520      -164.0444
  24   2.0000      -1.011859       -27.5341
  25   2.0000      -0.988490       -26.8982
  26   2.0000      -0.913510       -24.8579
  27   2.0000      -0.907016       -24.6812
  28   2.0000      -0.866050       -23.5664
  29   2.0000      -0.846902       -23.0454
  30   2.0000      -0.842039       -22.9130
  31   2.0000      -0.818627       -22.2760
  32   2.0000      -0.786879       -21.4121
  33   2.0000      -0.777157       -21.1475
  34   2.0000      -0.709330       -19.3018
  35   2.0000      -0.706809       -19.2332
  36   2.0000      -0.686926       -18.6922
  37   2.0000      -0.666231       -18.1291
  38   2.0000      -0.645335       -17.5605
  39   2.0000      -0.618370       -16.8267
  40   2.0000      -0.595644       -16.2083
  41   2.0000      -0.571804       -15.5596
  42   2.0000      -0.552423       -15.0322
  43   2.0000      -0.547709       -14.9039
  44   2.0000      -0.543058       -14.7774
  45   2.0000      -0.536785       -14.6067
  46   2.0000      -0.516807       -14.0630
  47   2.0000      -0.511597       -13.9213
  48   2.0000      -0.505332       -13.7508
  49   2.0000      -0.498407       -13.5623
  50   2.0000      -0.487419       -13.2633
  51   2.0000      -0.477749       -13.0002
  52   2.0000      -0.473393       -12.8817
  53   2.0000      -0.471748       -12.8369
  54   2.0000      -0.457570       -12.4511
  55   2.0000      -0.451493       -12.2858
  56   2.0000      -0.445283       -12.1168
  57   2.0000      -0.438925       -11.9437
  58   2.0000      -0.430646       -11.7185
  59   2.0000      -0.427315       -11.6278
  60   2.0000      -0.417651       -11.3649
  61   2.0000      -0.412662       -11.2291
  62   2.0000      -0.404223       -10.9995
  63   2.0000      -0.354767        -9.6537
  64   2.0000      -0.334151        -9.0927
  65   2.0000      -0.325327        -8.8526
  66   2.0000      -0.290365        -7.9012
  67   0.0000       0.021383         0.5819
  68   0.0000       0.067545         1.8380
  69   0.0000       0.104653         2.8477
  70   0.0000       0.124195         3.3795
  71   0.0000       0.135381         3.6839

MULLIKEN ATOMIC CHARGES
-----------------------
   0 S :    0.099341
   1 C :   -0.126924
   2 C :   -0.083282
   3 C :    0.008115
   4 C :   -0.153638
   5 H :    0.019368
   6 C :    0.102774
   7 H :    0.008853
   8 H :    0.010575
   9 C :   -0.065108
  10 H :    0.023223
  11 H :    0.023228
  12 C :   -0.046033
  13 H :    0.050577
  14 H :    0.027452
  15 H :    0.017597
  16 S :    0.084497
  17 C :   -0.083711
  18 C :   -0.030617
  19 C :   -0.069250
  20 C :   -0.124576
  21 H :    0.023141
  22 C :    0.080087
  23 H :    0.008260
  24 H :    0.033179
  25 C :   -0.086454
  26 H :    0.034851
  27 H :    0.060543
  28 C :   -0.037548
  29 H :    0.018204
  30 H :    0.030851
  31 H :    0.024616
  32 H :    0.052479
  33 H :    0.065330
Sum of atomic charges:    0.0000000

LOEWDIN ATOMIC CHARGES
----------------------
   0 S :    0.431563
   1 C :   -0.198776
   2 C :   -0.065302
   3 C :   -0.078548
   4 C :   -0.204256
   5 H :    0.033708
   6 C :   -0.031461
   7 H :    0.026375
   8 H :    0.029005
   9 C :   -0.035817
  10 H :    0.017699
  11 H :    0.026724
  12 C :   -0.065639
  13 H :    0.033191
  14 H :    0.019990
  15 H :    0.023617
  16 S :    0.382576
  17 C :   -0.177873
  18 C :   -0.062625
  19 C :   -0.057661
  20 C :   -0.188193
  21 H :    0.030782
  22 C :   -0.039431
  23 H :    0.031011
  24 H :    0.036000
  25 C :   -0.038399
  26 H :    0.027400
  27 H :    0.035235
  28 C :   -0.067319
  29 H :    0.014870
  30 H :    0.027538
  31 H :    0.024752
  32 H :    0.030145
  33 H :    0.029118

  Mayer bond orders larger than 0.100000
B(  0-S ,  1-C ) :   1.1498 B(  0-S ,  4-C ) :   1.1942 B(  1-C ,  2-C ) :   1.5521
B(  1-C ,  4-C ) :   0.1073 B(  1-C , 32-H ) :   0.9807 B(  2-C ,  3-C ) :   1.2822
B(  2-C ,  6-C ) :   1.0355 B(  3-C ,  4-C ) :   1.5238 B(  3-C ,  5-H ) :   0.9850
B(  4-C , 20-C ) :   1.0308 B(  6-C ,  7-H ) :   0.9340 B(  6-C ,  8-H ) :   0.9356
B(  6-C ,  9-C ) :   1.0609 B(  9-C , 10-H ) :   0.9600 B(  9-C , 11-H ) :   0.9570
B(  9-C , 12-C ) :   1.0667 B( 12-C , 13-H ) :   0.9749 B( 12-C , 14-H ) :   0.9729
B( 12-C , 15-H ) :   0.9734 B( 16-S , 17-C ) :   1.1387 B( 16-S , 20-C ) :   1.1339
B( 17-C , 18-C ) :   1.6323 B( 17-C , 33-H ) :   0.9616 B( 18-C , 19-C ) :   1.2258
B( 18-C , 21-H ) :   0.9863 B( 19-C , 20-C ) :   1.5966 B( 19-C , 22-C ) :   1.0447
B( 22-C , 23-H ) :   0.9300 B( 22-C , 24-H ) :   0.9254 B( 22-C , 25-C ) :   1.0610
B( 25-C , 26-H ) :   0.9565 B( 25-C , 27-H ) :   0.9532 B( 25-C , 28-C ) :   1.0743
B( 28-C , 29-H ) :   0.9749 B( 28-C , 30-H ) :   0.9763 B( 28-C , 31-H ) :   0.9731

Dispersion correction           -0.015241062
FINAL SINGLE POINT ENERGY     -1339.873527828990

DIPOLE MOMENT
-------------
                                X             Y             Z
Electronic contribution:      9.76384     -17.37288       8.88541
Nuclear contribution   :    -10.14255      17.70197      -9.06920
                        -----------------------------------------
Total Dipole Moment    :     -0.37871       0.32909      -0.18379
                        -----------------------------------------
Magnitude (a.u.)       :      0.53432
Magnitude (Debye)      :      1.35814

Rotational constants in cm-1:     0.019523     0.008826     0.008006
Rotational constants in MHz :   585.271687   264.589739   240.010229

                             ****ORCA TERMINATED NORMALLY****
TOTAL RUN TIME: 0 days 0 hours 0 minutes 22 seconds 388 msec
