                         Program Version 4.2.1 -  RELEASE  -
|  1> ! wB97X-D3 SP def2-SVP
|  2> %pal
|  3> nprocs 24
|  4> end
|  5>
|  6> * xyz 0 1
|  7> S 	 -80.5179 	 -2.13433 	 -58.915
|  8> C 	 -78.8519 	 -1.60642 	 -58.9674
|  9> C 	 -78.0942 	 -2.5903 	 -59.6106
| 10> C 	 -78.8277 	 -3.7657 	 -59.9767
| 11> C 	 -80.1408 	 -3.68473 	 -59.7111
| 12> H 	 -78.475 	 -4.63476 	 -60.429
| 13> C 	 -76.6064 	 -2.36637 	 -59.9531
| 14> H 	 -76.4193 	 -1.25023 	 -60.1075
| 15> H 	 -76.3084 	 -2.81359 	 -60.8977
| 16> C 	 -75.7 	 -2.85835 	 -58.797
| 17> H 	 -75.9832 	 -2.3499 	 -57.902
| 18> H 	 -75.7897 	 -3.94669 	 -58.5718
| 19> C 	 -74.2677 	 -2.45124 	 -58.9883
| 20> H 	 -73.6287 	 -2.73462 	 -58.1242
| 21> H 	 -73.778 	 -2.94413 	 -59.8708
| 22> H 	 -74.2744 	 -1.36197 	 -59.0815
| 23> S 	 -81.8457 	 -5.24017 	 -58.2862
| 24> C 	 -82.5725 	 -6.59524 	 -58.9977
| 25> C 	 -82.2511 	 -6.72063 	 -60.3105
| 26> C 	 -81.4937 	 -5.61899 	 -60.8125
| 27> C 	 -81.1571 	 -4.74244 	 -59.8238
| 28> H 	 -82.6794 	 -7.50487 	 -60.7509
| 29> C 	 -81.1222 	 -5.52155 	 -62.2513
| 30> H 	 -80.2711 	 -6.26105 	 -62.5245
| 31> H 	 -80.698 	 -4.49582 	 -62.4676
| 32> C 	 -82.2326 	 -5.89743 	 -63.2373
| 33> H 	 -82.5032 	 -6.98748 	 -63.3218
| 34> H 	 -81.7917 	 -5.59957 	 -64.0929
| 35> C 	 -83.4627 	 -5.10798 	 -62.9361
| 36> H 	 -83.9218 	 -5.25824 	 -61.9387
| 37> H 	 -84.2297 	 -5.31199 	 -63.6265
| 38> H 	 -83.2742 	 -4.06422 	 -63.108
| 39> H 	 -78.3096 	 -0.636484 	 -58.7616
| 40> H 	 -83.3199 	 -7.24757 	 -58.5126
| 41> *
| 42>
| 43>                          ****END OF INPUT****

CARTESIAN COORDINATES (ANGSTROEM)
---------------------------------
  S    -80.517900   -2.134330  -58.915000
  C    -78.851900   -1.606420  -58.967400
  C    -78.094200   -2.590300  -59.610600
  C    -78.827700   -3.765700  -59.976700
  C    -80.140800   -3.684730  -59.711100
  H    -78.475000   -4.634760  -60.429000
  C    -76.606400   -2.366370  -59.953100
  H    -76.419300   -1.250230  -60.107500
  H    -76.308400   -2.813590  -60.897700
  C    -75.700000   -2.858350  -58.797000
  H    -75.983200   -2.349900  -57.902000
  H    -75.789700   -3.946690  -58.571800
  C    -74.267700   -2.451240  -58.988300
  H    -73.628700   -2.734620  -58.124200
  H    -73.778000   -2.944130  -59.870800
  H    -74.274400   -1.361970  -59.081500
  S    -81.845700   -5.240170  -58.286200
  C    -82.572500   -6.595240  -58.997700
  C    -82.251100   -6.720630  -60.310500
  C    -81.493700   -5.618990  -60.812500
  C    -81.157100   -4.742440  -59.823800
  H    -82.679400   -7.504870  -60.750900
  C    -81.122200   -5.521550  -62.251300
  H    -80.271100   -6.261050  -62.524500
  H    -80.698000   -4.495820  -62.467600
  C    -82.232600   -5.897430  -63.237300
  H    -82.503200   -6.987480  -63.321800
  H    -81.791700   -5.599570  -64.092900
  C    -83.462700   -5.107980  -62.936100
  H    -83.921800   -5.258240  -61.938700
  H    -84.229700   -5.311990  -63.626500
  H    -83.274200   -4.064220  -63.108000
  H    -78.309600   -0.636484  -58.761600
  H    -83.319900   -7.247570  -58.512600

 Total Charge           Charge          ....    0
 Multiplicity           Mult            ....    1
 Number of Electrons    NEL             ....  134
 Basis Dimension        Dim             ....  322

ORBITAL ENERGIES
----------------

  NO   OCC          E(Eh)            E(eV)
   0   2.0000     -88.965782     -2420.8820
   1   2.0000     -88.959511     -2420.7113
   2   2.0000     -10.328790      -281.0607
   3   2.0000     -10.323334      -280.9122
   4   2.0000     -10.319169      -280.7989
   5   2.0000     -10.311666      -280.5947
   6   2.0000     -10.302546      -280.3465
   7   2.0000     -10.301074      -280.3065
   8   2.0000     -10.299015      -280.2504
   9   2.0000     -10.298772      -280.2438
  10   2.0000     -10.288076      -279.9528
  11   2.0000     -10.282656      -279.8053
  12   2.0000     -10.280003      -279.7331
  13   2.0000     -10.279876      -279.7296
  14   2.0000     -10.279047      -279.7071
  15   2.0000     -10.264212      -279.3034
  16   2.0000      -8.079766      -219.8616
  17   2.0000      -8.075725      -219.7517
  18   2.0000      -6.038484      -164.3155
  19   2.0000      -6.034317      -164.2021
  20   2.0000      -6.034097      -164.1961
  21   2.0000      -6.030391      -164.0953
  22   2.0000      -6.030000      -164.0847
  23   2.0000      -6.026540      -163.9905
  24   2.0000      -1.011910       -27.5355
  25   2.0000      -0.987194       -26.8629
  26   2.0000      -0.918737       -25.0001
  27   2.0000      -0.909512       -24.7491
  28   2.0000      -0.873184       -23.7605
  29   2.0000      -0.853278       -23.2189
  30   2.0000      -0.845374       -23.0038
  31   2.0000      -0.821780       -22.3618
  32   2.0000      -0.783089       -21.3089
  33   2.0000      -0.766957       -20.8700
  34   2.0000      -0.709563       -19.3082
  35   2.0000      -0.693225       -18.8636
  36   2.0000      -0.691750       -18.8235
  37   2.0000      -0.662112       -18.0170
  38   2.0000      -0.641912       -17.4673
  39   2.0000      -0.622286       -16.9333
  40   2.0000      -0.599701       -16.3187
  41   2.0000      -0.573536       -15.6067
  42   2.0000      -0.563384       -15.3305
  43   2.0000      -0.554191       -15.0803
  44   2.0000      -0.543761       -14.7965
  45   2.0000      -0.526508       -14.3270
  46   2.0000      -0.514794       -14.0082
  47   2.0000      -0.512999       -13.9594
  48   2.0000      -0.506927       -13.7942
  49   2.0000      -0.498611       -13.5679
  50   2.0000      -0.494206       -13.4480
  51   2.0000      -0.479280       -13.0419
  52   2.0000      -0.466325       -12.6893
  53   2.0000      -0.460514       -12.5312
  54   2.0000      -0.459412       -12.5012
  55   2.0000      -0.449440       -12.2299
  56   2.0000      -0.443264       -12.0618
  57   2.0000      -0.432907       -11.7800
  58   2.0000      -0.429611       -11.6903
  59   2.0000      -0.425162       -11.5692
  60   2.0000      -0.419645       -11.4191
  61   2.0000      -0.415784       -11.3141
  62   2.0000      -0.414112       -11.2685
  63   2.0000      -0.349435        -9.5086
  64   2.0000      -0.328038        -8.9264
  65   2.0000      -0.326225        -8.8770
  66   2.0000      -0.298828        -8.1315
  67   0.0000       0.036731         0.9995
  68   0.0000       0.071502         1.9457
  69   0.0000       0.115263         3.1365
  70   0.0000       0.121923         3.3177
  71   0.0000       0.136418         3.7121

MULLIKEN ATOMIC CHARGES
-----------------------
   0 S :    0.104585
   1 C :   -0.109810
   2 C :   -0.108241
   3 C :    0.081151
   4 C :   -0.159576
   5 H :   -0.013727
   6 C :    0.025678
   7 H :    0.027449
   8 H :    0.025246
   9 C :   -0.062841
  10 H :    0.016211
  11 H :    0.037303
  12 C :   -0.059070
  13 H :    0.039668
  14 H :    0.034094
  15 H :    0.027189
  16 S :    0.107909
  17 C :   -0.095093
  18 C :    0.001773
  19 C :   -0.016028
  20 C :   -0.143058
  21 H :   -0.040292
  22 C :    0.004030
  23 H :    0.047831
  24 H :    0.039779
  25 C :   -0.029336
  26 H :    0.039179
  27 H :   -0.000344
  28 C :   -0.033756
  29 H :    0.050138
  30 H :    0.010890
  31 H :    0.018720
  32 H :    0.067744
  33 H :    0.064604
Sum of atomic charges:    0.0000000

LOEWDIN ATOMIC CHARGES
----------------------
   0 S :    0.390060
   1 C :   -0.214169
   2 C :   -0.062237
   3 C :   -0.054067
   4 C :   -0.180841
   5 H :    0.025302
   6 C :   -0.031966
   7 H :    0.033593
   8 H :    0.025909
   9 C :   -0.046010
  10 H :    0.020869
  11 H :    0.027685
  12 C :   -0.071344
  13 H :    0.029336
  14 H :    0.025421
  15 H :    0.023230
  16 S :    0.420979
  17 C :   -0.193266
  18 C :   -0.062919
  19 C :   -0.057914
  20 C :   -0.197147
  21 H :    0.008933
  22 C :   -0.038134
  23 H :    0.041557
  24 H :    0.036553
  25 C :   -0.037524
  26 H :    0.029562
  27 H :    0.013427
  28 C :   -0.065646
  29 H :    0.032344
  30 H :    0.017610
  31 H :    0.025293
  32 H :    0.048575
  33 H :    0.036946

  Mayer bond orders larger than 0.100000
B(  0-S ,  1-C ) :   1.1256 B(  0-S ,  4-C ) :   1.1340 B(  1-C ,  2-C ) :   1.6334
B(  1-C , 32-H ) :   0.9553 B(  2-C ,  3-C ) :   1.2153 B(  2-C ,  6-C ) :   1.0199
B(  3-C ,  4-C ) :   1.6114 B(  3-C ,  5-H ) :   1.0073 B(  4-C , 20-C ) :   0.9932
B(  6-C ,  7-H ) :   0.9470 B(  6-C ,  8-H ) :   0.9486 B(  6-C ,  9-C ) :   1.0537
B(  9-C , 10-H ) :   0.9541 B(  9-C , 11-H ) :   0.9552 B(  9-C , 12-C ) :   1.0874
B( 12-C , 13-H ) :   0.9729 B( 12-C , 14-H ) :   0.9736 B( 12-C , 15-H ) :   0.9733
B( 16-S , 17-C ) :   1.1661 B( 16-S , 20-C ) :   1.1408 B( 17-C , 18-C ) :   1.6239
B( 17-C , 33-H ) :   0.9599 B( 18-C , 19-C ) :   1.1966 B( 18-C , 21-H ) :   1.0157
B( 19-C , 20-C ) :   1.6259 B( 19-C , 22-C ) :   1.0574 B( 22-C , 23-H ) :   0.9284
B( 22-C , 24-H ) :   0.9378 B( 22-C , 25-C ) :   1.0692 B( 25-C , 26-H ) :   0.9478
B( 25-C , 27-H ) :   0.9461 B( 25-C , 28-C ) :   1.0980 B( 28-C , 29-H ) :   0.9675
B( 28-C , 30-H ) :   0.9688 B( 28-C , 31-H ) :   0.9700

Dispersion correction           -0.014053619
FINAL SINGLE POINT ENERGY     -1339.865171060270

DIPOLE MOMENT
-------------
                                X             Y             Z
Electronic contribution:    -14.74589       1.17706      14.34430
Nuclear contribution   :     15.04843      -1.48077     -14.84515
                        -----------------------------------------
Total Dipole Moment    :      0.30253      -0.30370      -0.50085
                        -----------------------------------------
Magnitude (a.u.)       :      0.65925
Magnitude (Debye)      :      1.67568

Rotational constants in cm-1:     0.023139     0.007014     0.006457
Rotational constants in MHz :   693.700729   210.261441   193.587461

                             ****ORCA TERMINATED NORMALLY****
TOTAL RUN TIME: 0 days 0 hours 0 minutes 21 seconds 432 msec
