                         Program Version 4.2.1 -  RELEASE  -
|  1> ! wB97X-D3 SP def2-SVP
|  2> %pal
|  3> nprocs 24
|  4> end
|  5>
|  6> * xyz 0 1
|  7> S 	 -1.67115 	 -26.3392 	 -115.483
|  8> C 	 -1.69489 	 -25.1269 	 -116.711
|  9> C 	 -2.21227 	 -23.9746 	 -116.248
| 10> C 	 -2.8102 	 -24.0948 	 -114.938
| 11> C 	 -2.52478 	 -25.4104 	 -114.394
| 12> H 	 -3.32061 	 -23.3124 	 -114.35
| 13> C 	 -2.41064 	 -22.7014 	 -117.092
| 14> H 	 -1.44567 	 -22.4404 	 -117.596
| 15> H 	 -2.4659 	 -21.8363 	 -116.443
| 16> C 	 -3.48605 	 -22.7226 	 -118.189
| 17> H 	 -3.34604 	 -21.739 	 -118.705
| 18> H 	 -3.36837 	 -23.5351 	 -118.905
| 19> C 	 -4.92472 	 -22.6799 	 -117.679
| 20> H 	 -5.15968 	 -21.7168 	 -117.287
| 21> H 	 -5.63802 	 -22.6399 	 -118.615
| 22> H 	 -5.17005 	 -23.517 	 -117.045
| 23> S 	 -1.78649 	 -26.5247 	 -112.072
| 24> C 	 -2.9272 	 -27.0243 	 -110.889
| 25> C 	 -4.22982 	 -26.7361 	 -111.338
| 26> C 	 -4.21988 	 -26.0436 	 -112.592
| 27> C 	 -2.994 	 -25.8851 	 -113.133
| 28> H 	 -5.10368 	 -26.9824 	 -110.743
| 29> C 	 -5.53837 	 -25.5595 	 -113.27
| 30> H 	 -5.24897 	 -24.7514 	 -113.881
| 31> H 	 -6.1579 	 -25.1209 	 -112.472
| 32> C 	 -6.41779 	 -26.59 	 -113.989
| 33> H 	 -7.35708 	 -26.0515 	 -114.381
| 34> H 	 -6.88392 	 -27.2244 	 -113.188
| 35> C 	 -5.77984 	 -27.2676 	 -115.188
| 36> H 	 -5.01983 	 -27.9768 	 -114.818
| 37> H 	 -5.14087 	 -26.5666 	 -115.689
| 38> H 	 -6.62856 	 -27.6327 	 -115.815
| 39> H 	 -1.07238 	 -25.1836 	 -117.609
| 40> H 	 -2.65907 	 -27.5527 	 -109.934
| 41> *
| 42>
| 43>                          ****END OF INPUT****

CARTESIAN COORDINATES (ANGSTROEM)
---------------------------------
  S     -1.671150  -26.339200  -115.483000
  C     -1.694890  -25.126900  -116.711000
  C     -2.212270  -23.974600  -116.248000
  C     -2.810200  -24.094800  -114.938000
  C     -2.524780  -25.410400  -114.394000
  H     -3.320610  -23.312400  -114.350000
  C     -2.410640  -22.701400  -117.092000
  H     -1.445670  -22.440400  -117.596000
  H     -2.465900  -21.836300  -116.443000
  C     -3.486050  -22.722600  -118.189000
  H     -3.346040  -21.739000  -118.705000
  H     -3.368370  -23.535100  -118.905000
  C     -4.924720  -22.679900  -117.679000
  H     -5.159680  -21.716800  -117.287000
  H     -5.638020  -22.639900  -118.615000
  H     -5.170050  -23.517000  -117.045000
  S     -1.786490  -26.524700  -112.072000
  C     -2.927200  -27.024300  -110.889000
  C     -4.229820  -26.736100  -111.338000
  C     -4.219880  -26.043600  -112.592000
  C     -2.994000  -25.885100  -113.133000
  H     -5.103680  -26.982400  -110.743000
  C     -5.538370  -25.559500  -113.270000
  H     -5.248970  -24.751400  -113.881000
  H     -6.157900  -25.120900  -112.472000
  C     -6.417790  -26.590000  -113.989000
  H     -7.357080  -26.051500  -114.381000
  H     -6.883920  -27.224400  -113.188000
  C     -5.779840  -27.267600  -115.188000
  H     -5.019830  -27.976800  -114.818000
  H     -5.140870  -26.566600  -115.689000
  H     -6.628560  -27.632700  -115.815000
  H     -1.072380  -25.183600  -117.609000
  H     -2.659070  -27.552700  -109.934000

 Total Charge           Charge          ....    0
 Multiplicity           Mult            ....    1
 Number of Electrons    NEL             ....  134
 Basis Dimension        Dim             ....  322

ORBITAL ENERGIES
----------------

  NO   OCC          E(Eh)            E(eV)
   0   2.0000     -88.970527     -2421.0111
   1   2.0000     -88.962873     -2420.8029
   2   2.0000     -10.329179      -281.0712
   3   2.0000     -10.322716      -280.8954
   4   2.0000     -10.318703      -280.7862
   5   2.0000     -10.309073      -280.5241
   6   2.0000     -10.302134      -280.3353
   7   2.0000     -10.301367      -280.3144
   8   2.0000     -10.300950      -280.3031
   9   2.0000     -10.296914      -280.1933
  10   2.0000     -10.294942      -280.1396
  11   2.0000     -10.290976      -280.0317
  12   2.0000     -10.289940      -280.0035
  13   2.0000     -10.286446      -279.9084
  14   2.0000     -10.280146      -279.7370
  15   2.0000     -10.273287      -279.5504
  16   2.0000      -8.086906      -220.0559
  17   2.0000      -8.078850      -219.8367
  18   2.0000      -6.045221      -164.4988
  19   2.0000      -6.040877      -164.3806
  20   2.0000      -6.038076      -164.3044
  21   2.0000      -6.037279      -164.2827
  22   2.0000      -6.033016      -164.1667
  23   2.0000      -6.029773      -164.0785
  24   2.0000      -1.018773       -27.7222
  25   2.0000      -0.992660       -27.0117
  26   2.0000      -0.911502       -24.8032
  27   2.0000      -0.903839       -24.5947
  28   2.0000      -0.874140       -23.7866
  29   2.0000      -0.850632       -23.1469
  30   2.0000      -0.844087       -22.9688
  31   2.0000      -0.808433       -21.9986
  32   2.0000      -0.784921       -21.3588
  33   2.0000      -0.776949       -21.1419
  34   2.0000      -0.703301       -19.1378
  35   2.0000      -0.697203       -18.9718
  36   2.0000      -0.688605       -18.7379
  37   2.0000      -0.662810       -18.0360
  38   2.0000      -0.642289       -17.4776
  39   2.0000      -0.609634       -16.5890
  40   2.0000      -0.589731       -16.0474
  41   2.0000      -0.575546       -15.6614
  42   2.0000      -0.553290       -15.0558
  43   2.0000      -0.549522       -14.9532
  44   2.0000      -0.539606       -14.6834
  45   2.0000      -0.535095       -14.5607
  46   2.0000      -0.515211       -14.0196
  47   2.0000      -0.509786       -13.8720
  48   2.0000      -0.504171       -13.7192
  49   2.0000      -0.502665       -13.6782
  50   2.0000      -0.497239       -13.5306
  51   2.0000      -0.483522       -13.1573
  52   2.0000      -0.470967       -12.8157
  53   2.0000      -0.468309       -12.7433
  54   2.0000      -0.457217       -12.4415
  55   2.0000      -0.447388       -12.1740
  56   2.0000      -0.443172       -12.0593
  57   2.0000      -0.427306       -11.6276
  58   2.0000      -0.425656       -11.5827
  59   2.0000      -0.424410       -11.5488
  60   2.0000      -0.420809       -11.4508
  61   2.0000      -0.414383       -11.2759
  62   2.0000      -0.397242       -10.8095
  63   2.0000      -0.345892        -9.4122
  64   2.0000      -0.334233        -9.0950
  65   2.0000      -0.329953        -8.9785
  66   2.0000      -0.297092        -8.0843
  67   0.0000       0.033527         0.9123
  68   0.0000       0.069997         1.9047
  69   0.0000       0.112737         3.0677
  70   0.0000       0.120188         3.2705
  71   0.0000       0.130758         3.5581

MULLIKEN ATOMIC CHARGES
-----------------------
   0 S :    0.143895
   1 C :   -0.139387
   2 C :   -0.069197
   3 C :    0.009386
   4 C :   -0.171098
   5 H :    0.035593
   6 C :    0.051173
   7 H :    0.023971
   8 H :    0.012874
   9 C :   -0.059084
  10 H :    0.030948
  11 H :    0.036637
  12 C :   -0.067594
  13 H :    0.019774
  14 H :    0.034345
  15 H :    0.051842
  16 S :    0.108856
  17 C :   -0.116095
  18 C :   -0.044635
  19 C :   -0.042743
  20 C :   -0.175072
  21 H :    0.021564
  22 C :    0.104652
  23 H :   -0.005139
  24 H :    0.020210
  25 C :   -0.109125
  26 H :    0.028980
  27 H :    0.028844
  28 C :   -0.023839
  29 H :    0.041652
  30 H :    0.026282
  31 H :    0.051844
  32 H :    0.057769
  33 H :    0.081918
Sum of atomic charges:   -0.0000000

LOEWDIN ATOMIC CHARGES
----------------------
   0 S :    0.466332
   1 C :   -0.217115
   2 C :   -0.066367
   3 C :   -0.069072
   4 C :   -0.226943
   5 H :    0.036060
   6 C :   -0.038563
   7 H :    0.034682
   8 H :    0.027120
   9 C :   -0.040260
  10 H :    0.031821
  11 H :    0.023997
  12 C :   -0.070889
  13 H :    0.018321
  14 H :    0.037625
  15 H :    0.022561
  16 S :    0.426172
  17 C :   -0.202949
  18 C :   -0.073416
  19 C :   -0.058093
  20 C :   -0.215152
  21 H :    0.031687
  22 C :   -0.028434
  23 H :    0.017334
  24 H :    0.033442
  25 C :   -0.050862
  26 H :    0.028726
  27 H :    0.023688
  28 C :   -0.069915
  29 H :    0.031674
  30 H :    0.023928
  31 H :    0.036403
  32 H :    0.033915
  33 H :    0.042540

  Mayer bond orders larger than 0.100000
B(  0-S ,  1-C ) :   1.1444 B(  0-S ,  4-C ) :   1.2126 B(  1-C ,  2-C ) :   1.5984
B(  1-C , 32-H ) :   0.9644 B(  2-C ,  3-C ) :   1.2674 B(  2-C ,  6-C ) :   1.0238
B(  3-C ,  4-C ) :   1.4957 B(  3-C ,  5-H ) :   0.9879 B(  4-C , 20-C ) :   1.0341
B(  6-C ,  7-H ) :   0.9362 B(  6-C ,  8-H ) :   0.9419 B(  6-C ,  9-C ) :   1.0721
B(  9-C , 10-H ) :   0.9511 B(  9-C , 11-H ) :   0.9591 B(  9-C , 12-C ) :   1.0828
B( 12-C , 13-H ) :   0.9740 B( 12-C , 14-H ) :   0.9706 B( 12-C , 15-H ) :   0.9766
B( 16-S , 17-C ) :   1.1752 B( 16-S , 20-C ) :   1.1460 B( 17-C , 18-C ) :   1.5760
B( 17-C , 20-C ) :   0.1005 B( 17-C , 33-H ) :   0.9634 B( 18-C , 19-C ) :   1.2484
B( 18-C , 21-H ) :   0.9941 B( 19-C , 20-C ) :   1.6071 B( 19-C , 22-C ) :   1.0253
B( 22-C , 23-H ) :   0.9316 B( 22-C , 24-H ) :   0.9294 B( 22-C , 25-C ) :   1.0883
B( 25-C , 26-H ) :   0.9538 B( 25-C , 27-H ) :   0.9536 B( 25-C , 28-C ) :   1.0628
B( 28-C , 29-H ) :   0.9705 B( 28-C , 30-H ) :   0.9723 B( 28-C , 31-H ) :   0.9740

Dispersion correction           -0.015863502
FINAL SINGLE POINT ENERGY     -1339.877110191133

DIPOLE MOMENT
-------------
                                X             Y             Z
Electronic contribution:     20.66982     -11.03309      15.21724
Nuclear contribution   :    -21.00592      11.39325     -15.35741
                        -----------------------------------------
Total Dipole Moment    :     -0.33611       0.36016      -0.14016
                        -----------------------------------------
Magnitude (a.u.)       :      0.51218
Magnitude (Debye)      :      1.30186

Rotational constants in cm-1:     0.020871     0.009466     0.007669
Rotational constants in MHz :   625.686330   283.788096   229.912164

                             ****ORCA TERMINATED NORMALLY****
TOTAL RUN TIME: 0 days 0 hours 0 minutes 22 seconds 564 msec
