                         Program Version 4.2.1 -  RELEASE  -
|  1> ! wB97X-D3 SP def2-SVP
|  2> %pal
|  3> nprocs 24
|  4> end
|  5>
|  6> * xyz 0 1
|  7> S 	 -120.269 	 22.2722 	 -16.6207
|  8> C 	 -120.43 	 22.0652 	 -18.3292
|  9> C 	 -120.916 	 23.1519 	 -18.9946
| 10> C 	 -121.164 	 24.2105 	 -18.0607
| 11> C 	 -120.907 	 23.8939 	 -16.737
| 12> H 	 -121.55 	 25.2175 	 -18.3007
| 13> C 	 -121.327 	 23.2442 	 -20.4401
| 14> H 	 -122.327 	 23.0292 	 -20.4222
| 15> H 	 -120.915 	 22.5114 	 -21.0459
| 16> C 	 -121.085 	 24.5529 	 -21.1787
| 17> H 	 -121.437 	 24.362 	 -22.1913
| 18> H 	 -121.563 	 25.4939 	 -20.8121
| 19> C 	 -119.602 	 24.8466 	 -21.302
| 20> H 	 -119.264 	 25.2066 	 -20.3629
| 21> H 	 -118.963 	 23.9515 	 -21.4033
| 22> H 	 -119.461 	 25.6556 	 -22.053
| 23> S 	 -119.896 	 25.3815 	 -14.7866
| 24> C 	 -120.874 	 26.6429 	 -13.9949
| 25> C 	 -122.182 	 26.5239 	 -14.2721
| 26> C 	 -122.432 	 25.4036 	 -15.1699
| 27> C 	 -121.244 	 24.7941 	 -15.6488
| 28> H 	 -122.92 	 27.1604 	 -13.8804
| 29> C 	 -123.837 	 25.0973 	 -15.6921
| 30> H 	 -123.546 	 24.538 	 -16.6161
| 31> H 	 -124.231 	 26.1506 	 -15.8831
| 32> C 	 -124.749 	 24.2535 	 -14.7777
| 33> H 	 -125.686 	 24.0327 	 -15.3584
| 34> H 	 -125.2 	 24.8618 	 -13.9976
| 35> C 	 -124.125 	 22.967 	 -14.1721
| 36> H 	 -123.18 	 23.1325 	 -13.6396
| 37> H 	 -123.95 	 22.3325 	 -15.0136
| 38> H 	 -124.798 	 22.4323 	 -13.5043
| 39> H 	 -120.009 	 21.2624 	 -18.8856
| 40> H 	 -120.476 	 27.3123 	 -13.2554
| 41> *
| 42>
| 43>                          ****END OF INPUT****

CARTESIAN COORDINATES (ANGSTROEM)
---------------------------------
  S    -120.269000   22.272200  -16.620700
  C    -120.430000   22.065200  -18.329200
  C    -120.916000   23.151900  -18.994600
  C    -121.164000   24.210500  -18.060700
  C    -120.907000   23.893900  -16.737000
  H    -121.550000   25.217500  -18.300700
  C    -121.327000   23.244200  -20.440100
  H    -122.327000   23.029200  -20.422200
  H    -120.915000   22.511400  -21.045900
  C    -121.085000   24.552900  -21.178700
  H    -121.437000   24.362000  -22.191300
  H    -121.563000   25.493900  -20.812100
  C    -119.602000   24.846600  -21.302000
  H    -119.264000   25.206600  -20.362900
  H    -118.963000   23.951500  -21.403300
  H    -119.461000   25.655600  -22.053000
  S    -119.896000   25.381500  -14.786600
  C    -120.874000   26.642900  -13.994900
  C    -122.182000   26.523900  -14.272100
  C    -122.432000   25.403600  -15.169900
  C    -121.244000   24.794100  -15.648800
  H    -122.920000   27.160400  -13.880400
  C    -123.837000   25.097300  -15.692100
  H    -123.546000   24.538000  -16.616100
  H    -124.231000   26.150600  -15.883100
  C    -124.749000   24.253500  -14.777700
  H    -125.686000   24.032700  -15.358400
  H    -125.200000   24.861800  -13.997600
  C    -124.125000   22.967000  -14.172100
  H    -123.180000   23.132500  -13.639600
  H    -123.950000   22.332500  -15.013600
  H    -124.798000   22.432300  -13.504300
  H    -120.009000   21.262400  -18.885600
  H    -120.476000   27.312300  -13.255400

 Total Charge           Charge          ....    0
 Multiplicity           Mult            ....    1
 Number of Electrons    NEL             ....  134
 Basis Dimension        Dim             ....  322

ORBITAL ENERGIES
----------------

  NO   OCC          E(Eh)            E(eV)
   0   2.0000     -88.969083     -2420.9718
   1   2.0000     -88.959750     -2420.7179
   2   2.0000     -10.328063      -281.0409
   3   2.0000     -10.323841      -280.9260
   4   2.0000     -10.314132      -280.6618
   5   2.0000     -10.308108      -280.4979
   6   2.0000     -10.306110      -280.4435
   7   2.0000     -10.299278      -280.2576
   8   2.0000     -10.297128      -280.1991
   9   2.0000     -10.294900      -280.1385
  10   2.0000     -10.290143      -280.0090
  11   2.0000     -10.289085      -279.9802
  12   2.0000     -10.287789      -279.9450
  13   2.0000     -10.282311      -279.7959
  14   2.0000     -10.272916      -279.5403
  15   2.0000     -10.272345      -279.5247
  16   2.0000      -8.084027      -219.9776
  17   2.0000      -8.075301      -219.7401
  18   2.0000      -6.042537      -164.4258
  19   2.0000      -6.038542      -164.3171
  20   2.0000      -6.034739      -164.2136
  21   2.0000      -6.033816      -164.1885
  22   2.0000      -6.029646      -164.0750
  23   2.0000      -6.026046      -163.9771
  24   2.0000      -1.009275       -27.4638
  25   2.0000      -0.986310       -26.8389
  26   2.0000      -0.920784       -25.0558
  27   2.0000      -0.899511       -24.4769
  28   2.0000      -0.876944       -23.8628
  29   2.0000      -0.849775       -23.1236
  30   2.0000      -0.841336       -22.8939
  31   2.0000      -0.817761       -22.2524
  32   2.0000      -0.788799       -21.4643
  33   2.0000      -0.768317       -20.9070
  34   2.0000      -0.710346       -19.3295
  35   2.0000      -0.696251       -18.9459
  36   2.0000      -0.690987       -18.8027
  37   2.0000      -0.661678       -18.0052
  38   2.0000      -0.641284       -17.4502
  39   2.0000      -0.625159       -17.0114
  40   2.0000      -0.583003       -15.8643
  41   2.0000      -0.572351       -15.5745
  42   2.0000      -0.565604       -15.3909
  43   2.0000      -0.548989       -14.9388
  44   2.0000      -0.540262       -14.7013
  45   2.0000      -0.537840       -14.6354
  46   2.0000      -0.515109       -14.0168
  47   2.0000      -0.512123       -13.9356
  48   2.0000      -0.504672       -13.7328
  49   2.0000      -0.495805       -13.4916
  50   2.0000      -0.491617       -13.3776
  51   2.0000      -0.480056       -13.0630
  52   2.0000      -0.468074       -12.7369
  53   2.0000      -0.462182       -12.5766
  54   2.0000      -0.455684       -12.3998
  55   2.0000      -0.446604       -12.1527
  56   2.0000      -0.445736       -12.1291
  57   2.0000      -0.438122       -11.9219
  58   2.0000      -0.434063       -11.8114
  59   2.0000      -0.432514       -11.7693
  60   2.0000      -0.417913       -11.3720
  61   2.0000      -0.416126       -11.3234
  62   2.0000      -0.402594       -10.9552
  63   2.0000      -0.344166        -9.3652
  64   2.0000      -0.332110        -9.0372
  65   2.0000      -0.320705        -8.7268
  66   2.0000      -0.299963        -8.1624
  67   0.0000       0.039180         1.0661
  68   0.0000       0.065252         1.7756
  69   0.0000       0.117677         3.2022
  70   0.0000       0.121146         3.2966
  71   0.0000       0.125961         3.4276

MULLIKEN ATOMIC CHARGES
-----------------------
   0 S :    0.130896
   1 C :   -0.116303
   2 C :   -0.096208
   3 C :    0.019860
   4 C :   -0.156922
   5 H :    0.025456
   6 C :    0.150582
   7 H :    0.021898
   8 H :   -0.005636
   9 C :   -0.101559
  10 H :    0.027644
  11 H :    0.040550
  12 C :   -0.045730
  13 H :    0.019333
  14 H :    0.027026
  15 H :    0.043029
  16 S :    0.094394
  17 C :   -0.077303
  18 C :   -0.005349
  19 C :   -0.068052
  20 C :   -0.182970
  21 H :    0.004964
  22 C :    0.037330
  23 H :    0.035920
  24 H :    0.043266
  25 C :   -0.065744
  26 H :    0.031721
  27 H :    0.015115
  28 C :   -0.043572
  29 H :    0.051458
  30 H :    0.027532
  31 H :    0.033146
  32 H :    0.033279
  33 H :    0.050951
Sum of atomic charges:   -0.0000000

LOEWDIN ATOMIC CHARGES
----------------------
   0 S :    0.416479
   1 C :   -0.201484
   2 C :   -0.061413
   3 C :   -0.058635
   4 C :   -0.210666
   5 H :    0.035163
   6 C :   -0.019597
   7 H :    0.028350
   8 H :    0.023722
   9 C :   -0.041955
  10 H :    0.025301
  11 H :    0.027743
  12 C :   -0.067828
  13 H :    0.019515
  14 H :    0.026847
  15 H :    0.031254
  16 S :    0.408036
  17 C :   -0.167514
  18 C :   -0.066760
  19 C :   -0.054192
  20 C :   -0.219456
  21 H :    0.026819
  22 C :   -0.042025
  23 H :    0.035699
  24 H :    0.041043
  25 C :   -0.047964
  26 H :    0.030223
  27 H :    0.017451
  28 C :   -0.063581
  29 H :    0.030262
  30 H :    0.023583
  31 H :    0.026998
  32 H :    0.022676
  33 H :    0.025908

  Mayer bond orders larger than 0.100000
B(  0-S ,  1-C ) :   1.1395 B(  0-S ,  4-C ) :   1.1459 B(  1-C ,  2-C ) :   1.6308
B(  1-C , 32-H ) :   0.9622 B(  2-C ,  3-C ) :   1.2338 B(  2-C ,  6-C ) :   1.0154
B(  3-C ,  4-C ) :   1.5802 B(  3-C ,  5-H ) :   0.9895 B(  4-C , 20-C ) :   1.0209
B(  6-C ,  7-H ) :   0.9263 B(  6-C ,  8-H ) :   0.9284 B(  6-C ,  9-C ) :   1.0851
B(  9-C , 10-H ) :   0.9550 B(  9-C , 11-H ) :   0.9515 B(  9-C , 12-C ) :   1.0763
B( 12-C , 13-H ) :   0.9707 B( 12-C , 14-H ) :   0.9726 B( 12-C , 15-H ) :   0.9745
B( 16-S , 17-C ) :   1.1427 B( 16-S , 20-C ) :   1.1543 B( 17-C , 18-C ) :   1.6278
B( 17-C , 33-H ) :   0.9690 B( 18-C , 19-C ) :   1.2199 B( 18-C , 21-H ) :   1.0006
B( 19-C , 20-C ) :   1.5864 B( 19-C , 22-C ) :   1.0224 B( 22-C , 23-H ) :   0.9355
B( 22-C , 24-H ) :   0.9408 B( 22-C , 25-C ) :   1.0673 B( 25-C , 26-H ) :   0.9555
B( 25-C , 27-H ) :   0.9547 B( 25-C , 28-C ) :   1.0681 B( 28-C , 29-H ) :   0.9730
B( 28-C , 30-H ) :   0.9772 B( 28-C , 31-H ) :   0.9744

Dispersion correction           -0.015116209
FINAL SINGLE POINT ENERGY     -1339.871041821279

DIPOLE MOMENT
-------------
                                X             Y             Z
Electronic contribution:     13.44427      -1.77372      13.91829
Nuclear contribution   :    -13.92277       1.97998     -14.28858
                        -----------------------------------------
Total Dipole Moment    :     -0.47851       0.20627      -0.37029
                        -----------------------------------------
Magnitude (a.u.)       :      0.63924
Magnitude (Debye)      :      1.62482

Rotational constants in cm-1:     0.019337     0.008425     0.007926
Rotational constants in MHz :   579.717455   252.577188   237.625729

                             ****ORCA TERMINATED NORMALLY****
TOTAL RUN TIME: 0 days 0 hours 0 minutes 22 seconds 242 msec
