                         Program Version 4.2.1 -  RELEASE  -
|  1> ! wB97X-D3 SP def2-SVP
|  2> %pal
|  3> nprocs 24
|  4> end
|  5>
|  6> * xyz 0 1
|  7> S 	 -90.7927 	 -11.0123 	 -112.53
|  8> C 	 -91.3986 	 -11.2273 	 -114.155
|  9> C 	 -90.6365 	 -10.4692 	 -115.031
| 10> C 	 -89.4861 	 -9.87783 	 -114.386
| 11> C 	 -89.4617 	 -10.01 	 -113.055
| 12> H 	 -88.6395 	 -9.33222 	 -114.842
| 13> C 	 -90.9736 	 -10.2621 	 -116.569
| 14> H 	 -90.947 	 -11.0686 	 -117.258
| 15> H 	 -90.1757 	 -9.7103 	 -117.052
| 16> C 	 -92.0824 	 -9.20179 	 -116.754
| 17> H 	 -91.647 	 -8.31126 	 -116.255
| 18> H 	 -92.098 	 -8.88363 	 -117.835
| 19> C 	 -93.4367 	 -9.55555 	 -116.232
| 20> H 	 -93.7248 	 -10.6379 	 -116.414
| 21> H 	 -93.511 	 -9.49486 	 -115.158
| 22> H 	 -94.1364 	 -8.89125 	 -116.627
| 23> S 	 -87.4922 	 -10.6273 	 -111.203
| 24> C 	 -86.4861 	 -9.37542 	 -110.466
| 25> C 	 -86.8332 	 -8.18666 	 -111.063
| 26> C 	 -87.8739 	 -8.2356 	 -112.014
| 27> C 	 -88.4123 	 -9.47277 	 -112.1
| 28> H 	 -86.2626 	 -7.37564 	 -110.696
| 29> C 	 -88.3297 	 -6.97728 	 -112.652
| 30> H 	 -88.7733 	 -7.22356 	 -113.618
| 31> H 	 -87.4188 	 -6.44046 	 -112.949
| 32> C 	 -89.283 	 -6.10681 	 -111.841
| 33> H 	 -90.2247 	 -6.6501 	 -111.89
| 34> H 	 -89.3668 	 -5.11481 	 -112.403
| 35> C 	 -88.8032 	 -5.80421 	 -110.374
| 36> H 	 -89.7235 	 -5.71849 	 -109.821
| 37> H 	 -88.2186 	 -4.92129 	 -110.221
| 38> H 	 -88.3626 	 -6.64096 	 -109.782
| 39> H 	 -92.3121 	 -11.6833 	 -114.453
| 40> H 	 -85.715 	 -9.67385 	 -109.736
| 41> *
| 42>
| 43>                          ****END OF INPUT****

CARTESIAN COORDINATES (ANGSTROEM)
---------------------------------
  S    -90.792700  -11.012300  -112.530000
  C    -91.398600  -11.227300  -114.155000
  C    -90.636500  -10.469200  -115.031000
  C    -89.486100   -9.877830  -114.386000
  C    -89.461700  -10.010000  -113.055000
  H    -88.639500   -9.332220  -114.842000
  C    -90.973600  -10.262100  -116.569000
  H    -90.947000  -11.068600  -117.258000
  H    -90.175700   -9.710300  -117.052000
  C    -92.082400   -9.201790  -116.754000
  H    -91.647000   -8.311260  -116.255000
  H    -92.098000   -8.883630  -117.835000
  C    -93.436700   -9.555550  -116.232000
  H    -93.724800  -10.637900  -116.414000
  H    -93.511000   -9.494860  -115.158000
  H    -94.136400   -8.891250  -116.627000
  S    -87.492200  -10.627300  -111.203000
  C    -86.486100   -9.375420  -110.466000
  C    -86.833200   -8.186660  -111.063000
  C    -87.873900   -8.235600  -112.014000
  C    -88.412300   -9.472770  -112.100000
  H    -86.262600   -7.375640  -110.696000
  C    -88.329700   -6.977280  -112.652000
  H    -88.773300   -7.223560  -113.618000
  H    -87.418800   -6.440460  -112.949000
  C    -89.283000   -6.106810  -111.841000
  H    -90.224700   -6.650100  -111.890000
  H    -89.366800   -5.114810  -112.403000
  C    -88.803200   -5.804210  -110.374000
  H    -89.723500   -5.718490  -109.821000
  H    -88.218600   -4.921290  -110.221000
  H    -88.362600   -6.640960  -109.782000
  H    -92.312100  -11.683300  -114.453000
  H    -85.715000   -9.673850  -109.736000

 Total Charge           Charge          ....    0
 Multiplicity           Mult            ....    1
 Number of Electrons    NEL             ....  134
 Basis Dimension        Dim             ....  322

ORBITAL ENERGIES
----------------

  NO   OCC          E(Eh)            E(eV)
   0   2.0000     -88.965383     -2420.8711
   1   2.0000     -88.958892     -2420.6945
   2   2.0000     -10.328974      -281.0657
   3   2.0000     -10.326778      -281.0059
   4   2.0000     -10.320035      -280.8224
   5   2.0000     -10.315042      -280.6866
   6   2.0000     -10.309779      -280.5434
   7   2.0000     -10.296604      -280.1849
   8   2.0000     -10.295147      -280.1452
   9   2.0000     -10.294169      -280.1186
  10   2.0000     -10.291813      -280.0545
  11   2.0000     -10.290311      -280.0136
  12   2.0000     -10.289761      -279.9986
  13   2.0000     -10.285877      -279.8929
  14   2.0000     -10.275365      -279.6069
  15   2.0000     -10.272046      -279.5166
  16   2.0000      -8.080206      -219.8736
  17   2.0000      -8.074347      -219.7141
  18   2.0000      -6.038755      -164.3229
  19   2.0000      -6.034647      -164.2111
  20   2.0000      -6.032717      -164.1586
  21   2.0000      -6.030951      -164.1105
  22   2.0000      -6.028721      -164.0498
  23   2.0000      -6.025227      -163.9548
  24   2.0000      -1.011060       -27.5123
  25   2.0000      -0.989952       -26.9380
  26   2.0000      -0.909669       -24.7534
  27   2.0000      -0.908576       -24.7236
  28   2.0000      -0.868189       -23.6246
  29   2.0000      -0.846326       -23.0297
  30   2.0000      -0.840930       -22.8829
  31   2.0000      -0.819130       -22.2897
  32   2.0000      -0.790340       -21.5062
  33   2.0000      -0.782590       -21.2954
  34   2.0000      -0.705259       -19.1911
  35   2.0000      -0.691256       -18.8100
  36   2.0000      -0.689661       -18.7666
  37   2.0000      -0.665567       -18.1110
  38   2.0000      -0.646666       -17.5967
  39   2.0000      -0.616359       -16.7720
  40   2.0000      -0.594040       -16.1646
  41   2.0000      -0.577499       -15.7146
  42   2.0000      -0.561152       -15.2697
  43   2.0000      -0.546334       -14.8665
  44   2.0000      -0.541557       -14.7365
  45   2.0000      -0.532794       -14.4981
  46   2.0000      -0.519212       -14.1285
  47   2.0000      -0.513265       -13.9667
  48   2.0000      -0.504538       -13.7292
  49   2.0000      -0.493089       -13.4176
  50   2.0000      -0.489803       -13.3282
  51   2.0000      -0.484413       -13.1816
  52   2.0000      -0.478671       -13.0253
  53   2.0000      -0.469056       -12.7637
  54   2.0000      -0.464408       -12.6372
  55   2.0000      -0.443267       -12.0619
  56   2.0000      -0.433199       -11.7880
  57   2.0000      -0.426244       -11.5987
  58   2.0000      -0.424266       -11.5449
  59   2.0000      -0.421766       -11.4768
  60   2.0000      -0.416090       -11.3224
  61   2.0000      -0.412635       -11.2284
  62   2.0000      -0.408765       -11.1231
  63   2.0000      -0.348381        -9.4799
  64   2.0000      -0.331140        -9.0108
  65   2.0000      -0.328726        -8.9451
  66   2.0000      -0.304745        -8.2925
  67   0.0000       0.038091         1.0365
  68   0.0000       0.071888         1.9562
  69   0.0000       0.116521         3.1707
  70   0.0000       0.122865         3.3433
  71   0.0000       0.133880         3.6431

MULLIKEN ATOMIC CHARGES
-----------------------
   0 S :    0.106144
   1 C :   -0.093160
   2 C :   -0.100062
   3 C :    0.029314
   4 C :   -0.162946
   5 H :    0.030246
   6 C :    0.073410
   7 H :    0.029400
   8 H :    0.000479
   9 C :   -0.105618
  10 H :    0.026895
  11 H :    0.033580
  12 C :   -0.019450
  13 H :    0.029599
  14 H :    0.032289
  15 H :    0.024879
  16 S :    0.088015
  17 C :   -0.121769
  18 C :   -0.029518
  19 C :   -0.042798
  20 C :   -0.135309
  21 H :    0.010868
  22 C :    0.091467
  23 H :    0.004264
  24 H :    0.019210
  25 C :   -0.062834
  26 H :    0.039623
  27 H :    0.046275
  28 C :   -0.068169
  29 H :    0.023961
  30 H :    0.037463
  31 H :    0.047731
  32 H :    0.041054
  33 H :    0.075466
Sum of atomic charges:    0.0000000

LOEWDIN ATOMIC CHARGES
----------------------
   0 S :    0.404749
   1 C :   -0.189994
   2 C :   -0.055824
   3 C :   -0.072274
   4 C :   -0.194366
   5 H :    0.039107
   6 C :   -0.037684
   7 H :    0.023994
   8 H :    0.032141
   9 C :   -0.044490
  10 H :    0.027920
  11 H :    0.027681
  12 C :   -0.070079
  13 H :    0.029678
  14 H :    0.024696
  15 H :    0.020371
  16 S :    0.400303
  17 C :   -0.180811
  18 C :   -0.066507
  19 C :   -0.067861
  20 C :   -0.197688
  21 H :    0.026557
  22 C :   -0.039810
  23 H :    0.026611
  24 H :    0.030764
  25 C :   -0.033039
  26 H :    0.028117
  27 H :    0.036810
  28 C :   -0.078265
  29 H :    0.029347
  30 H :    0.022222
  31 H :    0.035109
  32 H :    0.025464
  33 H :    0.037051

  Mayer bond orders larger than 0.100000
B(  0-S ,  1-C ) :   1.1351 B(  0-S ,  4-C ) :   1.1491 B(  1-C ,  2-C ) :   1.6312
B(  1-C , 32-H ) :   0.9706 B(  2-C ,  3-C ) :   1.2278 B(  2-C ,  6-C ) :   1.0033
B(  3-C ,  4-C ) :   1.6304 B(  3-C ,  5-H ) :   0.9828 B(  4-C , 20-C ) :   0.9664
B(  6-C ,  7-H ) :   0.9519 B(  6-C ,  8-H ) :   0.9376 B(  6-C ,  9-C ) :   1.0689
B(  9-C , 10-H ) :   0.9525 B(  9-C , 11-H ) :   0.9574 B(  9-C , 12-C ) :   1.0850
B( 12-C , 13-H ) :   0.9734 B( 12-C , 14-H ) :   0.9666 B( 12-C , 15-H ) :   0.9700
B( 16-S , 17-C ) :   1.1509 B( 16-S , 20-C ) :   1.1641 B( 17-C , 18-C ) :   1.5880
B( 17-C , 33-H ) :   0.9711 B( 18-C , 19-C ) :   1.2205 B( 18-C , 21-H ) :   1.0022
B( 19-C , 20-C ) :   1.6106 B( 19-C , 22-C ) :   1.0524 B( 22-C , 23-H ) :   0.9220
B( 22-C , 24-H ) :   0.9242 B( 22-C , 25-C ) :   1.0748 B( 25-C , 26-H ) :   0.9594
B( 25-C , 27-H ) :   0.9536 B( 25-C , 28-C ) :   1.0711 B( 28-C , 29-H ) :   0.9713
B( 28-C , 30-H ) :   0.9781 B( 28-C , 31-H ) :   0.9657

Dispersion correction           -0.014909993
FINAL SINGLE POINT ENERGY     -1339.862458122550

DIPOLE MOMENT
-------------
                                X             Y             Z
Electronic contribution:     10.16110     -18.73239      12.13424
Nuclear contribution   :    -10.08866      19.33242     -12.48705
                        -----------------------------------------
Total Dipole Moment    :      0.07244       0.60003      -0.35281
                        -----------------------------------------
Magnitude (a.u.)       :      0.69983
Magnitude (Debye)      :      1.77882

Rotational constants in cm-1:     0.021932     0.008225     0.006849
Rotational constants in MHz :   657.517745   246.566712   205.335514

                             ****ORCA TERMINATED NORMALLY****
TOTAL RUN TIME: 0 days 0 hours 0 minutes 21 seconds 947 msec
