                         Program Version 4.2.1 -  RELEASE  -
|  1> ! wB97X-D3 SP def2-SVP
|  2> %pal
|  3> nprocs 24
|  4> end
|  5>
|  6> * xyz 0 1
|  7> S 	 27.2007 	 -23.5053 	 -122.905
|  8> C 	 28.0838 	 -22.0399 	 -123.149
|  9> C 	 27.3889 	 -21.1197 	 -123.924
| 10> C 	 26.0911 	 -21.6004 	 -124.253
| 11> C 	 25.7704 	 -22.815 	 -123.629
| 12> H 	 25.323 	 -20.9669 	 -124.718
| 13> C 	 27.9529 	 -19.8166 	 -124.35
| 14> H 	 28.794 	 -19.3683 	 -123.743
| 15> H 	 27.1005 	 -19.128 	 -124.289
| 16> C 	 28.5336 	 -19.8095 	 -125.777
| 17> H 	 27.7476 	 -20.0808 	 -126.449
| 18> H 	 28.9145 	 -18.7977 	 -126.008
| 19> C 	 29.6635 	 -20.7233 	 -125.915
| 20> H 	 29.4263 	 -21.7247 	 -125.688
| 21> H 	 30.1609 	 -20.6248 	 -126.859
| 22> H 	 30.477 	 -20.4191 	 -125.25
| 23> S 	 24.7995 	 -25.1038 	 -124.603
| 24> C 	 23.0384 	 -25.4322 	 -124.812
| 25> C 	 22.2989 	 -24.3745 	 -124.316
| 26> C 	 23.1861 	 -23.327 	 -123.901
| 27> C 	 24.5395 	 -23.6062 	 -123.871
| 28> H 	 21.2564 	 -24.3823 	 -124.237
| 29> C 	 22.7045 	 -22.0223 	 -123.221
| 30> H 	 22.1213 	 -21.5262 	 -123.95
| 31> H 	 23.6164 	 -21.4297 	 -122.986
| 32> C 	 21.8666 	 -22.0377 	 -122.116
| 33> H 	 20.8532 	 -22.3599 	 -122.403
| 34> H 	 21.691 	 -21.0674 	 -121.655
| 35> C 	 22.344 	 -22.9504 	 -120.932
| 36> H 	 22.2585 	 -23.9728 	 -121.292
| 37> H 	 21.5805 	 -22.6986 	 -120.216
| 38> H 	 23.2275 	 -22.6151 	 -120.527
| 39> H 	 29.1189 	 -21.819 	 -122.853
| 40> H 	 22.5385 	 -26.279 	 -125.259
| 41> *
| 42>
| 43>                          ****END OF INPUT****

CARTESIAN COORDINATES (ANGSTROEM)
---------------------------------
  S     27.200700  -23.505300  -122.905000
  C     28.083800  -22.039900  -123.149000
  C     27.388900  -21.119700  -123.924000
  C     26.091100  -21.600400  -124.253000
  C     25.770400  -22.815000  -123.629000
  H     25.323000  -20.966900  -124.718000
  C     27.952900  -19.816600  -124.350000
  H     28.794000  -19.368300  -123.743000
  H     27.100500  -19.128000  -124.289000
  C     28.533600  -19.809500  -125.777000
  H     27.747600  -20.080800  -126.449000
  H     28.914500  -18.797700  -126.008000
  C     29.663500  -20.723300  -125.915000
  H     29.426300  -21.724700  -125.688000
  H     30.160900  -20.624800  -126.859000
  H     30.477000  -20.419100  -125.250000
  S     24.799500  -25.103800  -124.603000
  C     23.038400  -25.432200  -124.812000
  C     22.298900  -24.374500  -124.316000
  C     23.186100  -23.327000  -123.901000
  C     24.539500  -23.606200  -123.871000
  H     21.256400  -24.382300  -124.237000
  C     22.704500  -22.022300  -123.221000
  H     22.121300  -21.526200  -123.950000
  H     23.616400  -21.429700  -122.986000
  C     21.866600  -22.037700  -122.116000
  H     20.853200  -22.359900  -122.403000
  H     21.691000  -21.067400  -121.655000
  C     22.344000  -22.950400  -120.932000
  H     22.258500  -23.972800  -121.292000
  H     21.580500  -22.698600  -120.216000
  H     23.227500  -22.615100  -120.527000
  H     29.118900  -21.819000  -122.853000
  H     22.538500  -26.279000  -125.259000

 Total Charge           Charge          ....    0
 Multiplicity           Mult            ....    1
 Number of Electrons    NEL             ....  134
 Basis Dimension        Dim             ....  322

ORBITAL ENERGIES
----------------

  NO   OCC          E(Eh)            E(eV)
   0   2.0000     -88.973506     -2421.0922
   1   2.0000     -88.964516     -2420.8476
   2   2.0000     -10.337555      -281.2992
   3   2.0000     -10.325090      -280.9600
   4   2.0000     -10.322093      -280.8784
   5   2.0000     -10.315211      -280.6912
   6   2.0000     -10.301459      -280.3170
   7   2.0000     -10.300674      -280.2956
   8   2.0000     -10.300165      -280.2817
   9   2.0000     -10.296097      -280.1710
  10   2.0000     -10.294606      -280.1305
  11   2.0000     -10.280545      -279.7479
  12   2.0000     -10.272952      -279.5412
  13   2.0000     -10.272158      -279.5196
  14   2.0000     -10.263802      -279.2923
  15   2.0000     -10.260505      -279.2025
  16   2.0000      -8.088254      -220.0926
  17   2.0000      -8.079668      -219.8589
  18   2.0000      -6.046701      -164.5391
  19   2.0000      -6.042740      -164.4313
  20   2.0000      -6.039096      -164.3322
  21   2.0000      -6.038270      -164.3097
  22   2.0000      -6.033982      -164.1930
  23   2.0000      -6.030388      -164.0952
  24   2.0000      -1.012667       -27.5561
  25   2.0000      -0.989235       -26.9185
  26   2.0000      -0.924001       -25.1434
  27   2.0000      -0.921090       -25.0641
  28   2.0000      -0.875254       -23.8169
  29   2.0000      -0.855980       -23.2924
  30   2.0000      -0.841038       -22.8858
  31   2.0000      -0.817616       -22.2485
  32   2.0000      -0.785999       -21.3881
  33   2.0000      -0.779071       -21.1996
  34   2.0000      -0.708110       -19.2687
  35   2.0000      -0.693428       -18.8691
  36   2.0000      -0.687686       -18.7129
  37   2.0000      -0.662141       -18.0178
  38   2.0000      -0.638472       -17.3737
  39   2.0000      -0.625164       -17.0116
  40   2.0000      -0.591912       -16.1067
  41   2.0000      -0.580877       -15.8065
  42   2.0000      -0.561287       -15.2734
  43   2.0000      -0.558741       -15.2041
  44   2.0000      -0.554540       -15.0898
  45   2.0000      -0.551729       -15.0133
  46   2.0000      -0.521289       -14.1850
  47   2.0000      -0.506937       -13.7944
  48   2.0000      -0.505190       -13.7469
  49   2.0000      -0.499629       -13.5956
  50   2.0000      -0.494378       -13.4527
  51   2.0000      -0.479329       -13.0432
  52   2.0000      -0.473164       -12.8754
  53   2.0000      -0.468866       -12.7585
  54   2.0000      -0.462788       -12.5931
  55   2.0000      -0.448248       -12.1975
  56   2.0000      -0.447479       -12.1765
  57   2.0000      -0.442192       -12.0327
  58   2.0000      -0.428403       -11.6574
  59   2.0000      -0.422459       -11.4957
  60   2.0000      -0.415083       -11.2950
  61   2.0000      -0.409649       -11.1471
  62   2.0000      -0.389612       -10.6019
  63   2.0000      -0.353857        -9.6289
  64   2.0000      -0.333801        -9.0832
  65   2.0000      -0.326136        -8.8746
  66   2.0000      -0.293690        -7.9917
  67   0.0000       0.030096         0.8190
  68   0.0000       0.066070         1.7978
  69   0.0000       0.109774         2.9871
  70   0.0000       0.116208         3.1622
  71   0.0000       0.129451         3.5225

MULLIKEN ATOMIC CHARGES
-----------------------
   0 S :    0.125302
   1 C :   -0.108588
   2 C :   -0.110481
   3 C :    0.046875
   4 C :   -0.164437
   5 H :    0.031127
   6 C :    0.032261
   7 H :    0.033619
   8 H :    0.027088
   9 C :   -0.048187
  10 H :    0.021830
  11 H :    0.028917
  12 C :   -0.022682
  13 H :    0.036113
  14 H :    0.025111
  15 H :    0.002930
  16 S :    0.098615
  17 C :   -0.090282
  18 C :   -0.002624
  19 C :   -0.096658
  20 C :   -0.117646
  21 H :    0.005369
  22 C :    0.122505
  23 H :    0.005132
  24 H :    0.024915
  25 C :   -0.113099
  26 H :    0.007834
  27 H :    0.020249
  28 C :   -0.009136
  29 H :    0.046311
  30 H :    0.017871
  31 H :    0.017594
  32 H :    0.051761
  33 H :    0.054493
Sum of atomic charges:   -0.0000000

LOEWDIN ATOMIC CHARGES
----------------------
   0 S :    0.425957
   1 C :   -0.206439
   2 C :   -0.069041
   3 C :   -0.058352
   4 C :   -0.199309
   5 H :    0.036039
   6 C :   -0.036368
   7 H :    0.036207
   8 H :    0.031261
   9 C :   -0.036953
  10 H :    0.018859
  11 H :    0.027591
  12 C :   -0.063187
  13 H :    0.019452
  14 H :    0.026360
  15 H :    0.022584
  16 S :    0.415344
  17 C :   -0.168888
  18 C :   -0.061053
  19 C :   -0.059728
  20 C :   -0.217496
  21 H :    0.025665
  22 C :   -0.043398
  23 H :    0.026793
  24 H :    0.033028
  25 C :   -0.046904
  26 H :    0.017553
  27 H :    0.026319
  28 C :   -0.051256
  29 H :    0.027723
  30 H :    0.024442
  31 H :    0.012566
  32 H :    0.033685
  33 H :    0.030941

  Mayer bond orders larger than 0.100000
B(  0-S ,  1-C ) :   1.1478 B(  0-S ,  4-C ) :   1.1675 B(  1-C ,  2-C ) :   1.5867
B(  1-C , 32-H ) :   0.9625 B(  2-C ,  3-C ) :   1.2764 B(  2-C ,  6-C ) :   1.0279
B(  3-C ,  4-C ) :   1.5358 B(  3-C ,  5-H ) :   0.9807 B(  4-C , 20-C ) :   1.0083
B(  6-C ,  7-H ) :   0.9483 B(  6-C ,  8-H ) :   0.9345 B(  6-C ,  9-C ) :   1.0751
B(  9-C , 10-H ) :   0.9515 B(  9-C , 11-H ) :   0.9534 B(  9-C , 12-C ) :   1.0955
B( 12-C , 13-H ) :   0.9710 B( 12-C , 14-H ) :   0.9660 B( 12-C , 15-H ) :   0.9651
B( 16-S , 17-C ) :   1.1510 B( 16-S , 20-C ) :   1.1481 B( 17-C , 18-C ) :   1.6009
B( 17-C , 33-H ) :   0.9687 B( 18-C , 19-C ) :   1.2368 B( 18-C , 21-H ) :   1.0005
B( 19-C , 20-C ) :   1.6098 B( 19-C , 22-C ) :   1.0282 B( 22-C , 23-H ) :   0.9110
B( 22-C , 24-H ) :   0.9320 B( 22-C , 25-C ) :   1.1196 B( 25-C , 26-H ) :   0.9431
B( 25-C , 27-H ) :   0.9457 B( 25-C , 28-C ) :   1.0761 B( 28-C , 29-H ) :   0.9736
B( 28-C , 30-H ) :   0.9764 B( 28-C , 31-H ) :   0.9776

Dispersion correction           -0.014794174
FINAL SINGLE POINT ENERGY     -1339.850456178426

DIPOLE MOMENT
-------------
                                X             Y             Z
Electronic contribution:      1.59027     -18.33723      -0.75857
Nuclear contribution   :     -1.76026      18.89679       0.59453
                        -----------------------------------------
Total Dipole Moment    :     -0.16999       0.55956      -0.16403
                        -----------------------------------------
Magnitude (a.u.)       :      0.60738
Magnitude (Debye)      :      1.54384

Rotational constants in cm-1:     0.022851     0.007963     0.007177
Rotational constants in MHz :   685.048595   238.714539   215.152010

                             ****ORCA TERMINATED NORMALLY****
TOTAL RUN TIME: 0 days 0 hours 0 minutes 22 seconds 278 msec
