                         Program Version 4.2.1 -  RELEASE  -
|  1> ! wB97X-D3 SP def2-SVP
|  2> %pal
|  3> nprocs 24
|  4> end
|  5>
|  6> * xyz 0 1
|  7> S 	 -127.727 	 69.302 	 -60.9216
|  8> C 	 -127.209 	 70.7975 	 -60.041
|  9> C 	 -127.152 	 71.8931 	 -60.8653
| 10> C 	 -127.783 	 71.5556 	 -62.1612
| 11> C 	 -128.126 	 70.2468 	 -62.3213
| 12> H 	 -127.96 	 72.2863 	 -62.9782
| 13> C 	 -126.661 	 73.3248 	 -60.5021
| 14> H 	 -125.58 	 73.3857 	 -60.7266
| 15> H 	 -126.605 	 73.5566 	 -59.4024
| 16> C 	 -127.414 	 74.4783 	 -61.1809
| 17> H 	 -127.372 	 74.4962 	 -62.298
| 18> H 	 -128.382 	 74.2635 	 -60.8564
| 19> C 	 -127.022 	 75.7718 	 -60.5534
| 20> H 	 -127.249 	 75.8357 	 -59.4837
| 21> H 	 -125.999 	 76.0592 	 -60.7229
| 22> H 	 -127.655 	 76.5614 	 -60.9938
| 23> S 	 -130.418 	 69.144 	 -63.0846
| 24> C 	 -130.745 	 68.73 	 -64.7089
| 25> C 	 -129.815 	 69.0814 	 -65.5902
| 26> C 	 -128.719 	 69.7671 	 -64.8761
| 27> C 	 -128.884 	 69.674 	 -63.4436
| 28> H 	 -129.814 	 68.9069 	 -66.6192
| 29> C 	 -127.414 	 70.2358 	 -65.5788
| 30> H 	 -126.621 	 70.5852 	 -64.9332
| 31> H 	 -127.553 	 71.1337 	 -66.2271
| 32> C 	 -126.812 	 69.1763 	 -66.4647
| 33> H 	 -125.828 	 69.2794 	 -66.8129
| 34> H 	 -127.459 	 69.0915 	 -67.3124
| 35> C 	 -126.777 	 67.8281 	 -65.7834
| 36> H 	 -126.238 	 68.0736 	 -64.834
| 37> H 	 -126.283 	 67.0578 	 -66.4156
| 38> H 	 -127.744 	 67.423 	 -65.5396
| 39> H 	 -126.764 	 70.8638 	 -59.0684
| 40> H 	 -131.616 	 68.1929 	 -65.0984
| 41> *
| 42>
| 43>                          ****END OF INPUT****

CARTESIAN COORDINATES (ANGSTROEM)
---------------------------------
  S    -127.727000   69.302000  -60.921600
  C    -127.209000   70.797500  -60.041000
  C    -127.152000   71.893100  -60.865300
  C    -127.783000   71.555600  -62.161200
  C    -128.126000   70.246800  -62.321300
  H    -127.960000   72.286300  -62.978200
  C    -126.661000   73.324800  -60.502100
  H    -125.580000   73.385700  -60.726600
  H    -126.605000   73.556600  -59.402400
  C    -127.414000   74.478300  -61.180900
  H    -127.372000   74.496200  -62.298000
  H    -128.382000   74.263500  -60.856400
  C    -127.022000   75.771800  -60.553400
  H    -127.249000   75.835700  -59.483700
  H    -125.999000   76.059200  -60.722900
  H    -127.655000   76.561400  -60.993800
  S    -130.418000   69.144000  -63.084600
  C    -130.745000   68.730000  -64.708900
  C    -129.815000   69.081400  -65.590200
  C    -128.719000   69.767100  -64.876100
  C    -128.884000   69.674000  -63.443600
  H    -129.814000   68.906900  -66.619200
  C    -127.414000   70.235800  -65.578800
  H    -126.621000   70.585200  -64.933200
  H    -127.553000   71.133700  -66.227100
  C    -126.812000   69.176300  -66.464700
  H    -125.828000   69.279400  -66.812900
  H    -127.459000   69.091500  -67.312400
  C    -126.777000   67.828100  -65.783400
  H    -126.238000   68.073600  -64.834000
  H    -126.283000   67.057800  -66.415600
  H    -127.744000   67.423000  -65.539600
  H    -126.764000   70.863800  -59.068400
  H    -131.616000   68.192900  -65.098400

 Total Charge           Charge          ....    0
 Multiplicity           Mult            ....    1
 Number of Electrons    NEL             ....  134
 Basis Dimension        Dim             ....  322

ORBITAL ENERGIES
----------------

  NO   OCC          E(Eh)            E(eV)
   0   2.0000     -88.966689     -2420.9067
   1   2.0000     -88.964998     -2420.8607
   2   2.0000     -10.328487      -281.0524
   3   2.0000     -10.325796      -280.9792
   4   2.0000     -10.315850      -280.7086
   5   2.0000     -10.313766      -280.6518
   6   2.0000     -10.309698      -280.5411
   7   2.0000     -10.309507      -280.5359
   8   2.0000     -10.302264      -280.3388
   9   2.0000     -10.297871      -280.2193
  10   2.0000     -10.291337      -280.0415
  11   2.0000     -10.290470      -280.0179
  12   2.0000     -10.285408      -279.8802
  13   2.0000     -10.278486      -279.6918
  14   2.0000     -10.270265      -279.4681
  15   2.0000     -10.267175      -279.3840
  16   2.0000      -8.082258      -219.9294
  17   2.0000      -8.080757      -219.8886
  18   2.0000      -6.040609      -164.3733
  19   2.0000      -6.039520      -164.3437
  20   2.0000      -6.036323      -164.2567
  21   2.0000      -6.035485      -164.2339
  22   2.0000      -6.033094      -164.1688
  23   2.0000      -6.031151      -164.1160
  24   2.0000      -1.014679       -27.6108
  25   2.0000      -0.983708       -26.7680
  26   2.0000      -0.917637       -24.9702
  27   2.0000      -0.914068       -24.8731
  28   2.0000      -0.878207       -23.8972
  29   2.0000      -0.845225       -22.9997
  30   2.0000      -0.840966       -22.8839
  31   2.0000      -0.814497       -22.1636
  32   2.0000      -0.782488       -21.2926
  33   2.0000      -0.771608       -20.9965
  34   2.0000      -0.710318       -19.3287
  35   2.0000      -0.694584       -18.9006
  36   2.0000      -0.685482       -18.6529
  37   2.0000      -0.658681       -17.9236
  38   2.0000      -0.640408       -17.4264
  39   2.0000      -0.617199       -16.7948
  40   2.0000      -0.601011       -16.3543
  41   2.0000      -0.575691       -15.6654
  42   2.0000      -0.571095       -15.5403
  43   2.0000      -0.557857       -15.1801
  44   2.0000      -0.549191       -14.9443
  45   2.0000      -0.523403       -14.2425
  46   2.0000      -0.514721       -14.0063
  47   2.0000      -0.507663       -13.8142
  48   2.0000      -0.501085       -13.6352
  49   2.0000      -0.495577       -13.4853
  50   2.0000      -0.487202       -13.2575
  51   2.0000      -0.478276       -13.0145
  52   2.0000      -0.469669       -12.7803
  53   2.0000      -0.463630       -12.6160
  54   2.0000      -0.457928       -12.4608
  55   2.0000      -0.450305       -12.2534
  56   2.0000      -0.448402       -12.2016
  57   2.0000      -0.434038       -11.8108
  58   2.0000      -0.430423       -11.7124
  59   2.0000      -0.423033       -11.5113
  60   2.0000      -0.420253       -11.4357
  61   2.0000      -0.417703       -11.3663
  62   2.0000      -0.403768       -10.9871
  63   2.0000      -0.351383        -9.5616
  64   2.0000      -0.329745        -8.9728
  65   2.0000      -0.323564        -8.8046
  66   2.0000      -0.299735        -8.1562
  67   0.0000       0.037075         1.0089
  68   0.0000       0.075964         2.0671
  69   0.0000       0.108124         2.9422
  70   0.0000       0.119465         3.2508
  71   0.0000       0.131579         3.5804

MULLIKEN ATOMIC CHARGES
-----------------------
   0 S :    0.104860
   1 C :   -0.115075
   2 C :   -0.069657
   3 C :    0.018697
   4 C :   -0.150249
   5 H :    0.025058
   6 C :    0.018508
   7 H :    0.036098
   8 H :    0.026513
   9 C :   -0.069183
  10 H :    0.050761
  11 H :    0.022221
  12 C :   -0.041087
  13 H :    0.032531
  14 H :    0.029183
  15 H :    0.029723
  16 S :    0.138565
  17 C :   -0.066806
  18 C :   -0.009390
  19 C :   -0.072638
  20 C :   -0.153294
  21 H :    0.002110
  22 C :    0.063484
  23 H :    0.022118
  24 H :    0.033408
  25 C :   -0.066442
  26 H :    0.020611
  27 H :    0.008502
  28 C :   -0.057154
  29 H :    0.028454
  30 H :    0.035541
  31 H :    0.031792
  32 H :    0.039367
  33 H :    0.052867
Sum of atomic charges:    0.0000000

LOEWDIN ATOMIC CHARGES
----------------------
   0 S :    0.382482
   1 C :   -0.179171
   2 C :   -0.056048
   3 C :   -0.065397
   4 C :   -0.204566
   5 H :    0.035346
   6 C :   -0.038353
   7 H :    0.032086
   8 H :    0.035550
   9 C :   -0.043833
  10 H :    0.030607
  11 H :    0.022206
  12 C :   -0.063212
  13 H :    0.027780
  14 H :    0.021296
  15 H :    0.030600
  16 S :    0.466738
  17 C :   -0.199894
  18 C :   -0.061958
  19 C :   -0.044758
  20 C :   -0.232415
  21 H :    0.025093
  22 C :   -0.039603
  23 H :    0.026794
  24 H :    0.034974
  25 C :   -0.044391
  26 H :    0.021084
  27 H :    0.011870
  28 C :   -0.065718
  29 H :    0.030194
  30 H :    0.025818
  31 H :    0.018263
  32 H :    0.025830
  33 H :    0.034710

  Mayer bond orders larger than 0.100000
B(  0-S ,  1-C ) :   1.1064 B(  0-S ,  4-C ) :   1.1342 B(  1-C ,  2-C ) :   1.6799
B(  1-C , 32-H ) :   0.9649 B(  2-C ,  3-C ) :   1.1895 B(  2-C ,  6-C ) :   1.0058
B(  3-C ,  4-C ) :   1.6336 B(  3-C ,  5-H ) :   0.9851 B(  4-C , 20-C ) :   0.9979
B(  6-C ,  7-H ) :   0.9305 B(  6-C ,  8-H ) :   0.9515 B(  6-C ,  9-C ) :   1.0604
B(  9-C , 10-H ) :   0.9456 B(  9-C , 11-H ) :   0.9546 B(  9-C , 12-C ) :   1.1022
B( 12-C , 13-H ) :   0.9700 B( 12-C , 14-H ) :   0.9745 B( 12-C , 15-H ) :   0.9690
B( 16-S , 17-C ) :   1.1583 B( 16-S , 20-C ) :   1.1878 B( 17-C , 18-C ) :   1.6197
B( 17-C , 33-H ) :   0.9590 B( 18-C , 19-C ) :   1.2386 B( 18-C , 21-H ) :   1.0002
B( 19-C , 20-C ) :   1.5643 B( 19-C , 22-C ) :   1.0379 B( 22-C , 23-H ) :   0.9440
B( 22-C , 24-H ) :   0.9385 B( 22-C , 25-C ) :   1.0702 B( 25-C , 26-H ) :   0.9574
B( 25-C , 27-H ) :   0.9489 B( 25-C , 28-C ) :   1.0845 B( 28-C , 29-H ) :   0.9749
B( 28-C , 30-H ) :   0.9737 B( 28-C , 31-H ) :   0.9659

Dispersion correction           -0.014336050
FINAL SINGLE POINT ENERGY     -1339.858165071460

DIPOLE MOMENT
-------------
                                X             Y             Z
Electronic contribution:    -13.12343     -16.22301       7.89980
Nuclear contribution   :     13.31628      16.80167      -8.18549
                        -----------------------------------------
Total Dipole Moment    :      0.19285       0.57866      -0.28569
                        -----------------------------------------
Magnitude (a.u.)       :      0.67354
Magnitude (Debye)      :      1.71201

Rotational constants in cm-1:     0.020514     0.007593     0.007019
Rotational constants in MHz :   615.008702   227.631985   210.435725

                             ****ORCA TERMINATED NORMALLY****
TOTAL RUN TIME: 0 days 0 hours 0 minutes 22 seconds 916 msec
