                         Program Version 4.2.1 -  RELEASE  -
|  1> ! wB97X-D3 SP def2-SVP
|  2> %pal
|  3> nprocs 24
|  4> end
|  5>
|  6> * xyz 0 1
|  7> S 	 3.40524 	 -24.6219 	 -114.007
|  8> C 	 4.98823 	 -24.8393 	 -114.767
|  9> C 	 5.33955 	 -26.1401 	 -114.736
| 10> C 	 4.28187 	 -27.001 	 -114.347
| 11> C 	 3.15696 	 -26.3243 	 -113.86
| 12> H 	 4.36403 	 -28.0729 	 -114.45
| 13> C 	 6.65379 	 -26.6403 	 -115.227
| 14> H 	 6.98162 	 -27.4075 	 -114.456
| 15> H 	 7.42329 	 -25.8158 	 -115.269
| 16> C 	 6.64403 	 -27.3684 	 -116.535
| 17> H 	 5.70179 	 -27.8946 	 -116.601
| 18> H 	 6.5653 	 -26.6461 	 -117.347
| 19> C 	 7.90792 	 -28.2166 	 -116.709
| 20> H 	 8.63635 	 -27.5582 	 -117.134
| 21> H 	 8.36142 	 -28.7553 	 -115.84
| 22> H 	 7.65374 	 -29.0204 	 -117.458
| 23> S 	 1.42379 	 -26.4149 	 -111.757
| 24> C 	 0.0891044 	 -27.5072 	 -111.657
| 25> C 	 0.0120145 	 -28.2039 	 -112.835
| 26> C 	 1.12443 	 -28.0063 	 -113.745
| 27> C 	 1.94523 	 -26.9869 	 -113.32
| 28> H 	 -0.816824 	 -28.9049 	 -112.766
| 29> C 	 1.16557 	 -28.6623 	 -115.067
| 30> H 	 2.0277 	 -28.2842 	 -115.643
| 31> H 	 0.336508 	 -28.1682 	 -115.593
| 32> C 	 1.1382 	 -30.1792 	 -115.124
| 33> H 	 0.191896 	 -30.6068 	 -114.615
| 34> H 	 1.9288 	 -30.658 	 -114.521
| 35> C 	 1.15018 	 -30.7802 	 -116.55
| 36> H 	 2.11299 	 -30.9665 	 -116.979
| 37> H 	 0.602687 	 -30.1524 	 -117.296
| 38> H 	 0.641701 	 -31.7243 	 -116.526
| 39> H 	 5.55349 	 -24.0194 	 -115.161
| 40> H 	 -0.749485 	 -27.5233 	 -110.946
| 41> *
| 42>
| 43>                          ****END OF INPUT****

CARTESIAN COORDINATES (ANGSTROEM)
---------------------------------
  S      3.405240  -24.621900  -114.007000
  C      4.988230  -24.839300  -114.767000
  C      5.339550  -26.140100  -114.736000
  C      4.281870  -27.001000  -114.347000
  C      3.156960  -26.324300  -113.860000
  H      4.364030  -28.072900  -114.450000
  C      6.653790  -26.640300  -115.227000
  H      6.981620  -27.407500  -114.456000
  H      7.423290  -25.815800  -115.269000
  C      6.644030  -27.368400  -116.535000
  H      5.701790  -27.894600  -116.601000
  H      6.565300  -26.646100  -117.347000
  C      7.907920  -28.216600  -116.709000
  H      8.636350  -27.558200  -117.134000
  H      8.361420  -28.755300  -115.840000
  H      7.653740  -29.020400  -117.458000
  S      1.423790  -26.414900  -111.757000
  C      0.089104  -27.507200  -111.657000
  C      0.012014  -28.203900  -112.835000
  C      1.124430  -28.006300  -113.745000
  C      1.945230  -26.986900  -113.320000
  H     -0.816824  -28.904900  -112.766000
  C      1.165570  -28.662300  -115.067000
  H      2.027700  -28.284200  -115.643000
  H      0.336508  -28.168200  -115.593000
  C      1.138200  -30.179200  -115.124000
  H      0.191896  -30.606800  -114.615000
  H      1.928800  -30.658000  -114.521000
  C      1.150180  -30.780200  -116.550000
  H      2.112990  -30.966500  -116.979000
  H      0.602687  -30.152400  -117.296000
  H      0.641701  -31.724300  -116.526000
  H      5.553490  -24.019400  -115.161000
  H     -0.749485  -27.523300  -110.946000

 Total Charge           Charge          ....    0
 Multiplicity           Mult            ....    1
 Number of Electrons    NEL             ....  134
 Basis Dimension        Dim             ....  322

ORBITAL ENERGIES
----------------

  NO   OCC          E(Eh)            E(eV)
   0   2.0000     -88.966380     -2420.8983
   1   2.0000     -88.959077     -2420.6996
   2   2.0000     -10.334581      -281.2182
   3   2.0000     -10.328322      -281.0479
   4   2.0000     -10.313669      -280.6492
   5   2.0000     -10.311271      -280.5839
   6   2.0000     -10.304805      -280.4080
   7   2.0000     -10.296121      -280.1717
   8   2.0000     -10.294689      -280.1327
   9   2.0000     -10.294243      -280.1206
  10   2.0000     -10.294063      -280.1157
  11   2.0000     -10.291725      -280.0521
  12   2.0000     -10.289630      -279.9951
  13   2.0000     -10.284527      -279.8562
  14   2.0000     -10.284414      -279.8531
  15   2.0000     -10.278024      -279.6793
  16   2.0000      -8.081247      -219.9019
  17   2.0000      -8.074571      -219.7203
  18   2.0000      -6.039785      -164.3509
  19   2.0000      -6.035709      -164.2400
  20   2.0000      -6.033103      -164.1691
  21   2.0000      -6.031983      -164.1386
  22   2.0000      -6.028810      -164.0523
  23   2.0000      -6.025415      -163.9599
  24   2.0000      -1.009860       -27.4797
  25   2.0000      -0.989866       -26.9356
  26   2.0000      -0.919711       -25.0266
  27   2.0000      -0.909610       -24.7517
  28   2.0000      -0.872541       -23.7430
  29   2.0000      -0.852291       -23.1920
  30   2.0000      -0.845159       -22.9979
  31   2.0000      -0.817981       -22.2584
  32   2.0000      -0.780803       -21.2467
  33   2.0000      -0.773987       -21.0612
  34   2.0000      -0.710003       -19.3202
  35   2.0000      -0.699671       -19.0390
  36   2.0000      -0.697837       -18.9891
  37   2.0000      -0.654872       -17.8200
  38   2.0000      -0.639018       -17.3886
  39   2.0000      -0.627767       -17.0824
  40   2.0000      -0.595251       -16.1976
  41   2.0000      -0.573231       -15.5984
  42   2.0000      -0.565739       -15.3945
  43   2.0000      -0.556455       -15.1419
  44   2.0000      -0.530319       -14.4307
  45   2.0000      -0.524526       -14.2731
  46   2.0000      -0.518505       -14.1092
  47   2.0000      -0.513188       -13.9646
  48   2.0000      -0.506649       -13.7866
  49   2.0000      -0.500038       -13.6067
  50   2.0000      -0.495757       -13.4902
  51   2.0000      -0.483593       -13.1592
  52   2.0000      -0.469100       -12.7649
  53   2.0000      -0.465954       -12.6793
  54   2.0000      -0.464227       -12.6323
  55   2.0000      -0.450370       -12.2552
  56   2.0000      -0.446013       -12.1366
  57   2.0000      -0.439142       -11.9497
  58   2.0000      -0.435555       -11.8521
  59   2.0000      -0.420683       -11.4474
  60   2.0000      -0.416863       -11.3434
  61   2.0000      -0.410377       -11.1669
  62   2.0000      -0.406569       -11.0633
  63   2.0000      -0.349567        -9.5122
  64   2.0000      -0.330695        -8.9987
  65   2.0000      -0.325069        -8.8456
  66   2.0000      -0.296371        -8.0647
  67   0.0000       0.034861         0.9486
  68   0.0000       0.073744         2.0067
  69   0.0000       0.116238         3.1630
  70   0.0000       0.122418         3.3312
  71   0.0000       0.128660         3.5010

MULLIKEN ATOMIC CHARGES
-----------------------
   0 S :    0.112338
   1 C :   -0.134326
   2 C :   -0.049049
   3 C :    0.020528
   4 C :   -0.131362
   5 H :    0.012186
   6 C :    0.020183
   7 H :    0.035240
   8 H :    0.029603
   9 C :   -0.051269
  10 H :    0.016457
  11 H :    0.021571
  12 C :   -0.062267
  13 H :    0.033587
  14 H :    0.045320
  15 H :    0.041181
  16 S :    0.092321
  17 C :   -0.103993
  18 C :   -0.054527
  19 C :   -0.013216
  20 C :   -0.146385
  21 H :    0.022673
  22 C :    0.058961
  23 H :    0.018317
  24 H :    0.041835
  25 C :   -0.108731
  26 H :    0.035431
  27 H :    0.034953
  28 C :   -0.035995
  29 H :    0.030299
  30 H :    0.030670
  31 H :    0.027262
  32 H :    0.043563
  33 H :    0.066643
Sum of atomic charges:   -0.0000000

LOEWDIN ATOMIC CHARGES
----------------------
   0 S :    0.408227
   1 C :   -0.183779
   2 C :   -0.070272
   3 C :   -0.061167
   4 C :   -0.200695
   5 H :    0.028911
   6 C :   -0.037948
   7 H :    0.037741
   8 H :    0.032426
   9 C :   -0.043962
  10 H :    0.018467
  11 H :    0.025830
  12 C :   -0.069695
  13 H :    0.024567
  14 H :    0.030142
  15 H :    0.034585
  16 S :    0.408008
  17 C :   -0.198574
  18 C :   -0.077703
  19 C :   -0.059819
  20 C :   -0.193476
  21 H :    0.033141
  22 C :   -0.043074
  23 H :    0.031475
  24 H :    0.041822
  25 C :   -0.047145
  26 H :    0.029954
  27 H :    0.027833
  28 C :   -0.067126
  29 H :    0.020319
  30 H :    0.029554
  31 H :    0.025768
  32 H :    0.026593
  33 H :    0.039072

  Mayer bond orders larger than 0.100000
B(  0-S ,  1-C ) :   1.1238 B(  0-S ,  4-C ) :   1.1685 B(  1-C ,  2-C ) :   1.6081
B(  1-C , 32-H ) :   0.9759 B(  2-C ,  3-C ) :   1.2468 B(  2-C ,  6-C ) :   1.0338
B(  3-C ,  4-C ) :   1.5446 B(  3-C ,  5-H ) :   0.9966 B(  4-C , 20-C ) :   1.0178
B(  6-C ,  7-H ) :   0.9372 B(  6-C ,  8-H ) :   0.9424 B(  6-C ,  9-C ) :   1.0634
B(  9-C , 10-H ) :   0.9607 B(  9-C , 11-H ) :   0.9483 B(  9-C , 12-C ) :   1.0638
B( 12-C , 13-H ) :   0.9771 B( 12-C , 14-H ) :   0.9784 B( 12-C , 15-H ) :   0.9747
B( 16-S , 17-C ) :   1.1490 B( 16-S , 20-C ) :   1.1451 B( 17-C , 18-C ) :   1.6538
B( 17-C , 33-H ) :   0.9610 B( 18-C , 19-C ) :   1.1916 B( 18-C , 21-H ) :   0.9865
B( 19-C , 20-C ) :   1.6078 B( 19-C , 22-C ) :   1.0579 B( 22-C , 23-H ) :   0.9331
B( 22-C , 24-H ) :   0.9285 B( 22-C , 25-C ) :   1.0541 B( 25-C , 26-H ) :   0.9599
B( 25-C , 27-H ) :   0.9563 B( 25-C , 28-C ) :   1.0735 B( 28-C , 29-H ) :   0.9770
B( 28-C , 30-H ) :   0.9750 B( 28-C , 31-H ) :   0.9761

Dispersion correction           -0.013508357
FINAL SINGLE POINT ENERGY     -1339.878756805317

DIPOLE MOMENT
-------------
                                X             Y             Z
Electronic contribution:    -11.26740      21.60519      20.66442
Nuclear contribution   :     11.41896     -22.10864     -21.19258
                        -----------------------------------------
Total Dipole Moment    :      0.15157      -0.50345      -0.52816
                        -----------------------------------------
Magnitude (a.u.)       :      0.74525
Magnitude (Debye)      :      1.89426

Rotational constants in cm-1:     0.016269     0.009049     0.006285
Rotational constants in MHz :   487.719954   271.286910   188.424794

                             ****ORCA TERMINATED NORMALLY****
TOTAL RUN TIME: 0 days 0 hours 0 minutes 21 seconds 267 msec
