                         Program Version 4.2.1 -  RELEASE  -
|  1> ! wB97X-D3 SP def2-SVP
|  2> %pal
|  3> nprocs 24
|  4> end
|  5>
|  6> * xyz 0 1
|  7> S 	 20.7813 	 -5.53544 	 -115.168
|  8> C 	 20.766 	 -6.95084 	 -114.227
|  9> C 	 20.9276 	 -6.73682 	 -112.878
| 10> C 	 21.2968 	 -5.32935 	 -112.666
| 11> C 	 21.2246 	 -4.51213 	 -113.781
| 12> H 	 21.4108 	 -4.87587 	 -111.745
| 13> C 	 20.7904 	 -7.66577 	 -111.71
| 14> H 	 21.732 	 -7.42868 	 -111.271
| 15> H 	 20.7638 	 -8.74383 	 -111.948
| 16> C 	 19.6217 	 -7.35372 	 -110.782
| 17> H 	 19.81 	 -6.38784 	 -110.295
| 18> H 	 18.5973 	 -7.40008 	 -111.331
| 19> C 	 19.502 	 -8.30539 	 -109.659
| 20> H 	 19.2311 	 -9.3628 	 -110.048
| 21> H 	 20.3177 	 -8.36095 	 -109.02
| 22> H 	 18.6605 	 -7.93902 	 -109.13
| 23> S 	 22.4737 	 -2.45097 	 -115.213
| 24> C 	 22.3162 	 -0.805652 	 -114.618
| 25> C 	 21.4492 	 -0.695287 	 -113.589
| 26> C 	 21.0547 	 -1.98148 	 -113.069
| 27> C 	 21.4784 	 -3.04917 	 -113.892
| 28> H 	 21.1861 	 0.328747 	 -113.216
| 29> C 	 20.233 	 -2.03571 	 -111.79
| 30> H 	 20.1084 	 -1.05824 	 -111.304
| 31> H 	 20.9775 	 -2.63238 	 -111.156
| 32> C 	 18.911 	 -2.73245 	 -112.043
| 33> H 	 18.9932 	 -3.76524 	 -112.482
| 34> H 	 18.3916 	 -2.14659 	 -112.809
| 35> C 	 18.0949 	 -2.8288 	 -110.75
| 36> H 	 17.6795 	 -1.85229 	 -110.491
| 37> H 	 18.6993 	 -3.25587 	 -109.863
| 38> H 	 17.276 	 -3.54202 	 -110.951
| 39> H 	 20.6086 	 -7.95446 	 -114.711
| 40> H 	 22.7262 	 0.00681482 	 -115.241
| 41> *
| 42>
| 43>                          ****END OF INPUT****

CARTESIAN COORDINATES (ANGSTROEM)
---------------------------------
  S     20.781300   -5.535440  -115.168000
  C     20.766000   -6.950840  -114.227000
  C     20.927600   -6.736820  -112.878000
  C     21.296800   -5.329350  -112.666000
  C     21.224600   -4.512130  -113.781000
  H     21.410800   -4.875870  -111.745000
  C     20.790400   -7.665770  -111.710000
  H     21.732000   -7.428680  -111.271000
  H     20.763800   -8.743830  -111.948000
  C     19.621700   -7.353720  -110.782000
  H     19.810000   -6.387840  -110.295000
  H     18.597300   -7.400080  -111.331000
  C     19.502000   -8.305390  -109.659000
  H     19.231100   -9.362800  -110.048000
  H     20.317700   -8.360950  -109.020000
  H     18.660500   -7.939020  -109.130000
  S     22.473700   -2.450970  -115.213000
  C     22.316200   -0.805652  -114.618000
  C     21.449200   -0.695287  -113.589000
  C     21.054700   -1.981480  -113.069000
  C     21.478400   -3.049170  -113.892000
  H     21.186100    0.328747  -113.216000
  C     20.233000   -2.035710  -111.790000
  H     20.108400   -1.058240  -111.304000
  H     20.977500   -2.632380  -111.156000
  C     18.911000   -2.732450  -112.043000
  H     18.993200   -3.765240  -112.482000
  H     18.391600   -2.146590  -112.809000
  C     18.094900   -2.828800  -110.750000
  H     17.679500   -1.852290  -110.491000
  H     18.699300   -3.255870  -109.863000
  H     17.276000   -3.542020  -110.951000
  H     20.608600   -7.954460  -114.711000
  H     22.726200    0.006815  -115.241000

 Total Charge           Charge          ....    0
 Multiplicity           Mult            ....    1
 Number of Electrons    NEL             ....  134
 Basis Dimension        Dim             ....  322

ORBITAL ENERGIES
----------------

  NO   OCC          E(Eh)            E(eV)
   0   2.0000     -88.964274     -2420.8410
   1   2.0000     -88.962025     -2420.7798
   2   2.0000     -10.333076      -281.1773
   3   2.0000     -10.331927      -281.1460
   4   2.0000     -10.316524      -280.7269
   5   2.0000     -10.312923      -280.6289
   6   2.0000     -10.308835      -280.5177
   7   2.0000     -10.302521      -280.3459
   8   2.0000     -10.298338      -280.2320
   9   2.0000     -10.296710      -280.1877
  10   2.0000     -10.292624      -280.0765
  11   2.0000     -10.290592      -280.0212
  12   2.0000     -10.290535      -280.0197
  13   2.0000     -10.284942      -279.8675
  14   2.0000     -10.283305      -279.8230
  15   2.0000     -10.273849      -279.5656
  16   2.0000      -8.078945      -219.8393
  17   2.0000      -8.077381      -219.7967
  18   2.0000      -6.037494      -164.2886
  19   2.0000      -6.035956      -164.2467
  20   2.0000      -6.033490      -164.1796
  21   2.0000      -6.031796      -164.1335
  22   2.0000      -6.029644      -164.0749
  23   2.0000      -6.028048      -164.0315
  24   2.0000      -1.002528       -27.2802
  25   2.0000      -0.984104       -26.7788
  26   2.0000      -0.920501       -25.0481
  27   2.0000      -0.909749       -24.7555
  28   2.0000      -0.870104       -23.6767
  29   2.0000      -0.854389       -23.2491
  30   2.0000      -0.846446       -23.0330
  31   2.0000      -0.816392       -22.2151
  32   2.0000      -0.780924       -21.2500
  33   2.0000      -0.766981       -20.8706
  34   2.0000      -0.702091       -19.1049
  35   2.0000      -0.692437       -18.8422
  36   2.0000      -0.682651       -18.5759
  37   2.0000      -0.660357       -17.9692
  38   2.0000      -0.640316       -17.4239
  39   2.0000      -0.622486       -16.9387
  40   2.0000      -0.592911       -16.1339
  41   2.0000      -0.574889       -15.6435
  42   2.0000      -0.566678       -15.4201
  43   2.0000      -0.561674       -15.2839
  44   2.0000      -0.536258       -14.5923
  45   2.0000      -0.523436       -14.2434
  46   2.0000      -0.512652       -13.9500
  47   2.0000      -0.512326       -13.9411
  48   2.0000      -0.508872       -13.8471
  49   2.0000      -0.495153       -13.4738
  50   2.0000      -0.492835       -13.4107
  51   2.0000      -0.484728       -13.1901
  52   2.0000      -0.469150       -12.7662
  53   2.0000      -0.460268       -12.5245
  54   2.0000      -0.459290       -12.4979
  55   2.0000      -0.445706       -12.1283
  56   2.0000      -0.442673       -12.0458
  57   2.0000      -0.436269       -11.8715
  58   2.0000      -0.434004       -11.8099
  59   2.0000      -0.424267       -11.5449
  60   2.0000      -0.419273       -11.4090
  61   2.0000      -0.414925       -11.2907
  62   2.0000      -0.408143       -11.1061
  63   2.0000      -0.349959        -9.5229
  64   2.0000      -0.329112        -8.9556
  65   2.0000      -0.322652        -8.7798
  66   2.0000      -0.290944        -7.9170
  67   0.0000       0.029861         0.8126
  68   0.0000       0.077786         2.1167
  69   0.0000       0.113197         3.0802
  70   0.0000       0.120934         3.2908
  71   0.0000       0.124666         3.3923

MULLIKEN ATOMIC CHARGES
-----------------------
   0 S :    0.103526
   1 C :   -0.147385
   2 C :   -0.076970
   3 C :    0.044346
   4 C :   -0.156429
   5 H :   -0.028586
   6 C :    0.083496
   7 H :    0.026453
   8 H :    0.019843
   9 C :   -0.112397
  10 H :    0.028358
  11 H :    0.049300
  12 C :   -0.013974
  13 H :    0.032541
  14 H :    0.018655
  15 H :    0.025856
  16 S :    0.102105
  17 C :   -0.106713
  18 C :   -0.036811
  19 C :   -0.055238
  20 C :   -0.142415
  21 H :    0.038874
  22 C :    0.051725
  23 H :    0.025511
  24 H :    0.045640
  25 C :   -0.110407
  26 H :    0.062897
  27 H :    0.034240
  28 C :   -0.049384
  29 H :    0.032586
  30 H :    0.038826
  31 H :    0.036255
  32 H :    0.067027
  33 H :    0.068651
Sum of atomic charges:   -0.0000000

LOEWDIN ATOMIC CHARGES
----------------------
   0 S :    0.403229
   1 C :   -0.219635
   2 C :   -0.062535
   3 C :   -0.057356
   4 C :   -0.183584
   5 H :    0.012091
   6 C :   -0.036827
   7 H :    0.034031
   8 H :    0.030878
   9 C :   -0.044780
  10 H :    0.024920
  11 H :    0.038725
  12 C :   -0.060514
  13 H :    0.030870
  14 H :    0.013028
  15 H :    0.025358
  16 S :    0.398128
  17 C :   -0.181899
  18 C :   -0.081463
  19 C :   -0.047990
  20 C :   -0.205525
  21 H :    0.042870
  22 C :   -0.037087
  23 H :    0.031529
  24 H :    0.039468
  25 C :   -0.049976
  26 H :    0.035500
  27 H :    0.027907
  28 C :   -0.072184
  29 H :    0.021906
  30 H :    0.031473
  31 H :    0.027977
  32 H :    0.039025
  33 H :    0.032439

  Mayer bond orders larger than 0.100000
B(  0-S ,  1-C ) :   1.1466 B(  0-S ,  4-C ) :   1.1377 B(  1-C ,  2-C ) :   1.6224
B(  1-C , 32-H ) :   0.9584 B(  2-C ,  3-C ) :   1.2201 B(  2-C ,  6-C ) :   1.0109
B(  3-C ,  4-C ) :   1.6000 B(  3-C ,  5-H ) :   0.9966 B(  4-C , 20-C ) :   1.0401
B(  6-C ,  7-H ) :   0.9292 B(  6-C ,  8-H ) :   0.9459 B(  6-C ,  9-C ) :   1.0766
B(  9-C , 10-H ) :   0.9462 B(  9-C , 11-H ) :   0.9542 B(  9-C , 12-C ) :   1.1002
B( 12-C , 13-H ) :   0.9693 B( 12-C , 14-H ) :   0.9720 B( 12-C , 15-H ) :   0.9710
B( 16-S , 17-C ) :   1.1550 B( 16-S , 20-C ) :   1.1382 B( 17-C , 18-C ) :   1.6267
B( 17-C , 33-H ) :   0.9602 B( 18-C , 19-C ) :   1.2352 B( 18-C , 21-H ) :   0.9830
B( 19-C , 20-C ) :   1.5872 B( 19-C , 22-C ) :   1.0223 B( 22-C , 23-H ) :   0.9413
B( 22-C , 24-H ) :   0.9286 B( 22-C , 25-C ) :   1.0603 B( 25-C , 26-H ) :   0.9523
B( 25-C , 27-H ) :   0.9523 B( 25-C , 28-C ) :   1.0827 B( 28-C , 29-H ) :   0.9732
B( 28-C , 30-H ) :   0.9728 B( 28-C , 31-H ) :   0.9750

Dispersion correction           -0.014933964
FINAL SINGLE POINT ENERGY     -1339.871435855975

DIPOLE MOMENT
-------------
                                X             Y             Z
Electronic contribution:     15.44128       8.57857     -27.12210
Nuclear contribution   :    -15.75945      -8.51642      27.77343
                        -----------------------------------------
Total Dipole Moment    :     -0.31816       0.06215       0.65133
                        -----------------------------------------
Magnitude (a.u.)       :      0.72754
Magnitude (Debye)      :      1.84927

Rotational constants in cm-1:     0.019562     0.009171     0.006851
Rotational constants in MHz :   586.441355   274.953414   205.400343

                             ****ORCA TERMINATED NORMALLY****
TOTAL RUN TIME: 0 days 0 hours 0 minutes 22 seconds 361 msec
