                         Program Version 4.2.1 -  RELEASE  -
|  1> ! wB97X-D3 SP def2-SVP
|  2> %pal
|  3> nprocs 24
|  4> end
|  5>
|  6> * xyz 0 1
|  7> S 	 -61.4366 	 -0.487439 	 -29.9037
|  8> C 	 -62.4312 	 0.622432 	 -30.7483
|  9> C 	 -61.7552 	 1.32583 	 -31.6443
| 10> C 	 -60.3852 	 0.910228 	 -31.7183
| 11> C 	 -60.0626 	 -0.0286981 	 -30.7874
| 12> H 	 -59.627 	 1.33983 	 -32.3548
| 13> C 	 -62.3841 	 2.4309 	 -32.4069
| 14> H 	 -62.89 	 3.16875 	 -31.7005
| 15> H 	 -63.0429 	 1.9249 	 -33.0682
| 16> C 	 -61.4713 	 3.24251 	 -33.2879
| 17> H 	 -60.891 	 4.08359 	 -32.7923
| 18> H 	 -60.7531 	 2.64445 	 -33.7897
| 19> C 	 -62.3841 	 4.01099 	 -34.2413
| 20> H 	 -61.7499 	 4.59569 	 -34.9933
| 21> H 	 -63.0267 	 3.31304 	 -34.866
| 22> H 	 -63.0419 	 4.73509 	 -33.7212
| 23> S 	 -58.5824 	 -1.10334 	 -28.785
| 24> C 	 -56.8823 	 -0.937492 	 -28.6915
| 25> C 	 -56.3838 	 -0.640648 	 -29.9399
| 26> C 	 -57.4145 	 -0.279016 	 -30.876
| 27> C 	 -58.6841 	 -0.434186 	 -30.3751
| 28> H 	 -55.327 	 -0.601124 	 -30.0763
| 29> C 	 -57.0087 	 0.29095 	 -32.2573
| 30> H 	 -57.4428 	 1.23773 	 -32.2371
| 31> H 	 -57.6162 	 -0.191986 	 -33.0779
| 32> C 	 -55.5337 	 0.233817 	 -32.7425
| 33> H 	 -55.0945 	 -0.782005 	 -32.6169
| 34> H 	 -54.8809 	 0.768775 	 -32.0795
| 35> C 	 -55.0911 	 0.653527 	 -34.1409
| 36> H 	 -55.17 	 1.70334 	 -34.3147
| 37> H 	 -55.5868 	 0.184198 	 -34.9417
| 38> H 	 -54.0202 	 0.411313 	 -34.3968
| 39> H 	 -63.5007 	 0.567775 	 -30.8696
| 40> H 	 -56.339 	 -1.25256 	 -27.8134
| 41> *
| 42>
| 43>                          ****END OF INPUT****

CARTESIAN COORDINATES (ANGSTROEM)
---------------------------------
  S    -61.436600   -0.487439  -29.903700
  C    -62.431200    0.622432  -30.748300
  C    -61.755200    1.325830  -31.644300
  C    -60.385200    0.910228  -31.718300
  C    -60.062600   -0.028698  -30.787400
  H    -59.627000    1.339830  -32.354800
  C    -62.384100    2.430900  -32.406900
  H    -62.890000    3.168750  -31.700500
  H    -63.042900    1.924900  -33.068200
  C    -61.471300    3.242510  -33.287900
  H    -60.891000    4.083590  -32.792300
  H    -60.753100    2.644450  -33.789700
  C    -62.384100    4.010990  -34.241300
  H    -61.749900    4.595690  -34.993300
  H    -63.026700    3.313040  -34.866000
  H    -63.041900    4.735090  -33.721200
  S    -58.582400   -1.103340  -28.785000
  C    -56.882300   -0.937492  -28.691500
  C    -56.383800   -0.640648  -29.939900
  C    -57.414500   -0.279016  -30.876000
  C    -58.684100   -0.434186  -30.375100
  H    -55.327000   -0.601124  -30.076300
  C    -57.008700    0.290950  -32.257300
  H    -57.442800    1.237730  -32.237100
  H    -57.616200   -0.191986  -33.077900
  C    -55.533700    0.233817  -32.742500
  H    -55.094500   -0.782005  -32.616900
  H    -54.880900    0.768775  -32.079500
  C    -55.091100    0.653527  -34.140900
  H    -55.170000    1.703340  -34.314700
  H    -55.586800    0.184198  -34.941700
  H    -54.020200    0.411313  -34.396800
  H    -63.500700    0.567775  -30.869600
  H    -56.339000   -1.252560  -27.813400

 Total Charge           Charge          ....    0
 Multiplicity           Mult            ....    1
 Number of Electrons    NEL             ....  134
 Basis Dimension        Dim             ....  322

ORBITAL ENERGIES
----------------

  NO   OCC          E(Eh)            E(eV)
   0   2.0000     -88.962697     -2420.7980
   1   2.0000     -88.959798     -2420.7192
   2   2.0000     -10.328108      -281.0421
   3   2.0000     -10.327894      -281.0363
   4   2.0000     -10.313790      -280.6525
   5   2.0000     -10.308624      -280.5119
   6   2.0000     -10.299319      -280.2587
   7   2.0000     -10.298233      -280.2292
   8   2.0000     -10.293494      -280.1002
   9   2.0000     -10.292309      -280.0680
  10   2.0000     -10.290894      -280.0294
  11   2.0000     -10.289993      -280.0050
  12   2.0000     -10.289605      -279.9944
  13   2.0000     -10.288915      -279.9756
  14   2.0000     -10.287741      -279.9437
  15   2.0000     -10.279306      -279.7141
  16   2.0000      -8.079245      -219.8474
  17   2.0000      -8.076221      -219.7651
  18   2.0000      -6.037790      -164.2966
  19   2.0000      -6.034679      -164.2120
  20   2.0000      -6.033458      -164.1787
  21   2.0000      -6.030490      -164.0980
  22   2.0000      -6.029897      -164.0818
  23   2.0000      -6.026933      -164.0012
  24   2.0000      -1.020444       -27.7677
  25   2.0000      -0.997195       -27.1351
  26   2.0000      -0.924342       -25.1526
  27   2.0000      -0.905926       -24.6515
  28   2.0000      -0.876181       -23.8421
  29   2.0000      -0.857564       -23.3355
  30   2.0000      -0.844922       -22.9915
  31   2.0000      -0.822743       -22.3880
  32   2.0000      -0.786067       -21.3900
  33   2.0000      -0.773465       -21.0470
  34   2.0000      -0.716554       -19.4984
  35   2.0000      -0.707451       -19.2507
  36   2.0000      -0.686891       -18.6912
  37   2.0000      -0.660718       -17.9790
  38   2.0000      -0.637111       -17.3367
  39   2.0000      -0.625750       -17.0275
  40   2.0000      -0.601102       -16.3568
  41   2.0000      -0.582708       -15.8563
  42   2.0000      -0.573600       -15.6085
  43   2.0000      -0.563648       -15.3377
  44   2.0000      -0.530723       -14.4417
  45   2.0000      -0.526151       -14.3173
  46   2.0000      -0.522245       -14.2110
  47   2.0000      -0.507590       -13.8122
  48   2.0000      -0.503468       -13.7001
  49   2.0000      -0.500051       -13.6071
  50   2.0000      -0.495089       -13.4720
  51   2.0000      -0.482411       -13.1271
  52   2.0000      -0.476200       -12.9581
  53   2.0000      -0.472926       -12.8690
  54   2.0000      -0.462509       -12.5855
  55   2.0000      -0.457110       -12.4386
  56   2.0000      -0.452113       -12.3026
  57   2.0000      -0.433386       -11.7930
  58   2.0000      -0.429486       -11.6869
  59   2.0000      -0.422760       -11.5039
  60   2.0000      -0.419953       -11.4275
  61   2.0000      -0.417428       -11.3588
  62   2.0000      -0.408990       -11.1292
  63   2.0000      -0.362546        -9.8654
  64   2.0000      -0.335035        -9.1168
  65   2.0000      -0.323684        -8.8079
  66   2.0000      -0.286887        -7.8066
  67   0.0000       0.027736         0.7547
  68   0.0000       0.086115         2.3433
  69   0.0000       0.110277         3.0008
  70   0.0000       0.128425         3.4946
  71   0.0000       0.136774         3.7218

MULLIKEN ATOMIC CHARGES
-----------------------
   0 S :    0.107602
   1 C :   -0.112557
   2 C :   -0.087816
   3 C :   -0.029735
   4 C :   -0.065821
   5 H :   -0.013525
   6 C :    0.063471
   7 H :    0.059585
   8 H :    0.025324
   9 C :   -0.087475
  10 H :    0.042516
  11 H :    0.027381
  12 C :   -0.091283
  13 H :    0.038029
  14 H :    0.035334
  15 H :    0.040708
  16 S :    0.083007
  17 C :   -0.084041
  18 C :   -0.035153
  19 C :   -0.075347
  20 C :   -0.117157
  21 H :    0.012186
  22 C :    0.065273
  23 H :    0.033330
  24 H :    0.038674
  25 C :   -0.078720
  26 H :    0.032731
  27 H :    0.021201
  28 C :   -0.025983
  29 H :    0.024148
  30 H :    0.017008
  31 H :    0.032574
  32 H :    0.044235
  33 H :    0.060298
Sum of atomic charges:   -0.0000000

LOEWDIN ATOMIC CHARGES
----------------------
   0 S :    0.431956
   1 C :   -0.211938
   2 C :   -0.066967
   3 C :   -0.075619
   4 C :   -0.196446
   5 H :    0.024015
   6 C :   -0.034245
   7 H :    0.048079
   8 H :    0.031923
   9 C :   -0.047636
  10 H :    0.034068
  11 H :    0.015924
  12 C :   -0.070658
  13 H :    0.029249
  14 H :    0.024760
  15 H :    0.026618
  16 S :    0.422106
  17 C :   -0.190035
  18 C :   -0.072747
  19 C :   -0.055902
  20 C :   -0.196932
  21 H :    0.027509
  22 C :   -0.033543
  23 H :    0.022218
  24 H :    0.038894
  25 C :   -0.049228
  26 H :    0.031633
  27 H :    0.020447
  28 C :   -0.063358
  29 H :    0.019576
  30 H :    0.016795
  31 H :    0.038165
  32 H :    0.032041
  33 H :    0.029276

  Mayer bond orders larger than 0.100000
B(  0-S ,  1-C ) :   1.1240 B(  0-S ,  4-C ) :   1.1700 B(  1-C ,  2-C ) :   1.6600
B(  1-C , 32-H ) :   0.9633 B(  2-C ,  3-C ) :   1.2505 B(  2-C ,  6-C ) :   0.9976
B(  3-C ,  4-C ) :   1.5571 B(  3-C ,  5-H ) :   0.9934 B(  4-C , 20-C ) :   1.0304
B(  6-C ,  7-H ) :   0.9433 B(  6-C ,  8-H ) :   0.9316 B(  6-C ,  9-C ) :   1.0930
B(  9-C , 10-H ) :   0.9507 B(  9-C , 11-H ) :   0.9457 B(  9-C , 12-C ) :   1.0831
B( 12-C , 13-H ) :   0.9732 B( 12-C , 14-H ) :   0.9755 B( 12-C , 15-H ) :   0.9735
B( 16-S , 17-C ) :   1.1797 B( 16-S , 20-C ) :   1.1437 B( 17-C , 18-C ) :   1.5760
B( 17-C , 33-H ) :   0.9678 B( 18-C , 19-C ) :   1.2589 B( 18-C , 21-H ) :   0.9962
B( 19-C , 20-C ) :   1.6114 B( 19-C , 22-C ) :   1.0156 B( 22-C , 23-H ) :   0.9219
B( 22-C , 24-H ) :   0.9405 B( 22-C , 25-C ) :   1.0608 B( 25-C , 26-H ) :   0.9532
B( 25-C , 27-H ) :   0.9448 B( 25-C , 28-C ) :   1.0903 B( 28-C , 29-H ) :   0.9754
B( 28-C , 30-H ) :   0.9730 B( 28-C , 31-H ) :   0.9701

Dispersion correction           -0.013015154
FINAL SINGLE POINT ENERGY     -1339.858127507801

DIPOLE MOMENT
-------------
                                X             Y             Z
Electronic contribution:     -7.36957     -18.07688      26.32674
Nuclear contribution   :      7.65989      18.51284     -26.87469
                        -----------------------------------------
Total Dipole Moment    :      0.29032       0.43597      -0.54795
                        -----------------------------------------
Magnitude (a.u.)       :      0.75803
Magnitude (Debye)      :      1.92675

Rotational constants in cm-1:     0.015637     0.009146     0.005978
Rotational constants in MHz :   468.774075   274.195694   179.208960

                             ****ORCA TERMINATED NORMALLY****
TOTAL RUN TIME: 0 days 0 hours 0 minutes 21 seconds 97 msec
