                         Program Version 4.2.1 -  RELEASE  -
|  1> ! wB97X-D3 SP def2-SVP
|  2> %pal
|  3> nprocs 24
|  4> end
|  5>
|  6> * xyz 0 1
|  7> S 	 -50.1946 	 12.0686 	 -106.14
|  8> C 	 -51.1193 	 10.6284 	 -105.865
|  9> C 	 -52.3269 	 10.9447 	 -105.311
| 10> C 	 -52.6187 	 12.3357 	 -105.434
| 11> C 	 -51.537 	 13.0867 	 -105.94
| 12> H 	 -53.5269 	 12.7484 	 -105.111
| 13> C 	 -53.2557 	 10.0197 	 -104.549
| 14> H 	 -53.6596 	 10.5478 	 -103.71
| 15> H 	 -52.5439 	 9.31932 	 -104.114
| 16> C 	 -54.3924 	 9.25651 	 -105.342
| 17> H 	 -55.1581 	 10.0074 	 -105.701
| 18> H 	 -54.0401 	 8.7606 	 -106.259
| 19> C 	 -55.0486 	 8.17186 	 -104.438
| 20> H 	 -55.2778 	 8.59748 	 -103.473
| 21> H 	 -56.0334 	 7.92048 	 -104.804
| 22> H 	 -54.4624 	 7.25561 	 -104.274
| 23> S 	 -50.6844 	 15.4878 	 -104.741
| 24> C 	 -50.9564 	 16.9283 	 -105.576
| 25> C 	 -51.6863 	 16.7184 	 -106.698
| 26> C 	 -52.0773 	 15.3534 	 -106.924
| 27> C 	 -51.4378 	 14.5428 	 -106.014
| 28> H 	 -52.0797 	 17.5559 	 -107.23
| 29> C 	 -52.9232 	 14.843 	 -108.076
| 30> H 	 -53.1138 	 13.7579 	 -107.794
| 31> H 	 -52.4049 	 14.7293 	 -109.047
| 32> C 	 -54.2993 	 15.432 	 -108.254
| 33> H 	 -54.8106 	 14.9129 	 -109.069
| 34> H 	 -54.1683 	 16.4475 	 -108.653
| 35> C 	 -55.0723 	 15.469 	 -106.947
| 36> H 	 -55.0393 	 14.462 	 -106.488
| 37> H 	 -56.1246 	 15.7891 	 -107.104
| 38> H 	 -54.5975 	 16.1683 	 -106.276
| 39> H 	 -50.6916 	 9.65232 	 -105.692
| 40> H 	 -50.6457 	 17.8731 	 -105.153
| 41> *
| 42>
| 43>                          ****END OF INPUT****

CARTESIAN COORDINATES (ANGSTROEM)
---------------------------------
  S    -50.194600   12.068600  -106.140000
  C    -51.119300   10.628400  -105.865000
  C    -52.326900   10.944700  -105.311000
  C    -52.618700   12.335700  -105.434000
  C    -51.537000   13.086700  -105.940000
  H    -53.526900   12.748400  -105.111000
  C    -53.255700   10.019700  -104.549000
  H    -53.659600   10.547800  -103.710000
  H    -52.543900    9.319320  -104.114000
  C    -54.392400    9.256510  -105.342000
  H    -55.158100   10.007400  -105.701000
  H    -54.040100    8.760600  -106.259000
  C    -55.048600    8.171860  -104.438000
  H    -55.277800    8.597480  -103.473000
  H    -56.033400    7.920480  -104.804000
  H    -54.462400    7.255610  -104.274000
  S    -50.684400   15.487800  -104.741000
  C    -50.956400   16.928300  -105.576000
  C    -51.686300   16.718400  -106.698000
  C    -52.077300   15.353400  -106.924000
  C    -51.437800   14.542800  -106.014000
  H    -52.079700   17.555900  -107.230000
  C    -52.923200   14.843000  -108.076000
  H    -53.113800   13.757900  -107.794000
  H    -52.404900   14.729300  -109.047000
  C    -54.299300   15.432000  -108.254000
  H    -54.810600   14.912900  -109.069000
  H    -54.168300   16.447500  -108.653000
  C    -55.072300   15.469000  -106.947000
  H    -55.039300   14.462000  -106.488000
  H    -56.124600   15.789100  -107.104000
  H    -54.597500   16.168300  -106.276000
  H    -50.691600    9.652320  -105.692000
  H    -50.645700   17.873100  -105.153000

 Total Charge           Charge          ....    0
 Multiplicity           Mult            ....    1
 Number of Electrons    NEL             ....  134
 Basis Dimension        Dim             ....  322

ORBITAL ENERGIES
----------------

  NO   OCC          E(Eh)            E(eV)
   0   2.0000     -88.965724     -2420.8804
   1   2.0000     -88.963288     -2420.8142
   2   2.0000     -10.326010      -280.9850
   3   2.0000     -10.322334      -280.8850
   4   2.0000     -10.311119      -280.5798
   5   2.0000     -10.307170      -280.4724
   6   2.0000     -10.301637      -280.3218
   7   2.0000     -10.298759      -280.2435
   8   2.0000     -10.296372      -280.1785
   9   2.0000     -10.293748      -280.1071
  10   2.0000     -10.290025      -280.0058
  11   2.0000     -10.289473      -279.9908
  12   2.0000     -10.287499      -279.9371
  13   2.0000     -10.282786      -279.8088
  14   2.0000     -10.279539      -279.7205
  15   2.0000     -10.276856      -279.6475
  16   2.0000      -8.081508      -219.9090
  17   2.0000      -8.079436      -219.8526
  18   2.0000      -6.039869      -164.3532
  19   2.0000      -6.037823      -164.2975
  20   2.0000      -6.035851      -164.2439
  21   2.0000      -6.033778      -164.1874
  22   2.0000      -6.032366      -164.1490
  23   2.0000      -6.030205      -164.0902
  24   2.0000      -1.013680       -27.5836
  25   2.0000      -0.993378       -27.0312
  26   2.0000      -0.913598       -24.8603
  27   2.0000      -0.906285       -24.6613
  28   2.0000      -0.870406       -23.6849
  29   2.0000      -0.850348       -23.1391
  30   2.0000      -0.845074       -22.9956
  31   2.0000      -0.812500       -22.1093
  32   2.0000      -0.783309       -21.3149
  33   2.0000      -0.774425       -21.0732
  34   2.0000      -0.706749       -19.2316
  35   2.0000      -0.701157       -19.0794
  36   2.0000      -0.695703       -18.9311
  37   2.0000      -0.652643       -17.7593
  38   2.0000      -0.641781       -17.4638
  39   2.0000      -0.618296       -16.8247
  40   2.0000      -0.600545       -16.3417
  41   2.0000      -0.572712       -15.5843
  42   2.0000      -0.556131       -15.1331
  43   2.0000      -0.552343       -15.0300
  44   2.0000      -0.544942       -14.8286
  45   2.0000      -0.524194       -14.2641
  46   2.0000      -0.518676       -14.1139
  47   2.0000      -0.506681       -13.7875
  48   2.0000      -0.502710       -13.6794
  49   2.0000      -0.495178       -13.4745
  50   2.0000      -0.492137       -13.3917
  51   2.0000      -0.482954       -13.1418
  52   2.0000      -0.470333       -12.7984
  53   2.0000      -0.465296       -12.6614
  54   2.0000      -0.460035       -12.5182
  55   2.0000      -0.445120       -12.1123
  56   2.0000      -0.442490       -12.0408
  57   2.0000      -0.438185       -11.9236
  58   2.0000      -0.436897       -11.8886
  59   2.0000      -0.425251       -11.5717
  60   2.0000      -0.423914       -11.5353
  61   2.0000      -0.423727       -11.5302
  62   2.0000      -0.404690       -11.0122
  63   2.0000      -0.332775        -9.0553
  64   2.0000      -0.332059        -9.0358
  65   2.0000      -0.326124        -8.8743
  66   2.0000      -0.306218        -8.3326
  67   0.0000       0.041867         1.1393
  68   0.0000       0.061651         1.6776
  69   0.0000       0.104761         2.8507
  70   0.0000       0.124132         3.3778
  71   0.0000       0.138190         3.7603

MULLIKEN ATOMIC CHARGES
-----------------------
   0 S :    0.125821
   1 C :   -0.101051
   2 C :   -0.124106
   3 C :    0.068058
   4 C :   -0.192761
   5 H :   -0.015083
   6 C :    0.064360
   7 H :    0.024372
   8 H :    0.016634
   9 C :   -0.076671
  10 H :    0.037419
  11 H :    0.037224
  12 C :   -0.041280
  13 H :    0.017629
  14 H :    0.026277
  15 H :    0.044834
  16 S :    0.121749
  17 C :   -0.090071
  18 C :   -0.011709
  19 C :   -0.034679
  20 C :   -0.159151
  21 H :    0.005930
  22 C :    0.028467
  23 H :    0.032959
  24 H :    0.049317
  25 C :   -0.069540
  26 H :    0.029603
  27 H :    0.020498
  28 C :   -0.048027
  29 H :    0.029740
  30 H :    0.040607
  31 H :    0.040373
  32 H :    0.044981
  33 H :    0.057279
Sum of atomic charges:    0.0000000

LOEWDIN ATOMIC CHARGES
----------------------
   0 S :    0.447354
   1 C :   -0.211196
   2 C :   -0.064311
   3 C :   -0.055560
   4 C :   -0.214560
   5 H :    0.017985
   6 C :   -0.031082
   7 H :    0.029204
   8 H :    0.030336
   9 C :   -0.038536
  10 H :    0.029599
  11 H :    0.025896
  12 C :   -0.068300
  13 H :    0.021342
  14 H :    0.025116
  15 H :    0.028834
  16 S :    0.425960
  17 C :   -0.196942
  18 C :   -0.075037
  19 C :   -0.051300
  20 C :   -0.205195
  21 H :    0.025499
  22 C :   -0.042492
  23 H :    0.037324
  24 H :    0.037439
  25 C :   -0.046137
  26 H :    0.026397
  27 H :    0.019047
  28 C :   -0.065022
  29 H :    0.025949
  30 H :    0.029788
  31 H :    0.026229
  32 H :    0.026635
  33 H :    0.029739

  Mayer bond orders larger than 0.100000
B(  0-S ,  1-C ) :   1.1519 B(  0-S ,  4-C ) :   1.1945 B(  1-C ,  2-C ) :   1.6008
B(  1-C , 32-H ) :   0.9624 B(  2-C ,  3-C ) :   1.2801 B(  2-C ,  6-C ) :   1.0127
B(  3-C ,  4-C ) :   1.5164 B(  3-C ,  5-H ) :   1.0058 B(  4-C , 20-C ) :   1.0143
B(  6-C ,  7-H ) :   0.9426 B(  6-C ,  8-H ) :   0.9418 B(  6-C ,  9-C ) :   1.0521
B(  9-C , 10-H ) :   0.9574 B(  9-C , 11-H ) :   0.9610 B(  9-C , 12-C ) :   1.0745
B( 12-C , 13-H ) :   0.9738 B( 12-C , 14-H ) :   0.9736 B( 12-C , 15-H ) :   0.9776
B( 16-S , 17-C ) :   1.1663 B( 16-S , 20-C ) :   1.1574 B( 17-C , 18-C ) :   1.6014
B( 17-C , 33-H ) :   0.9692 B( 18-C , 19-C ) :   1.2310 B( 18-C , 21-H ) :   0.9961
B( 19-C , 20-C ) :   1.6036 B( 19-C , 22-C ) :   1.0372 B( 22-C , 23-H ) :   0.9247
B( 22-C , 24-H ) :   0.9394 B( 22-C , 25-C ) :   1.0794 B( 25-C , 26-H ) :   0.9543
B( 25-C , 27-H ) :   0.9504 B( 25-C , 28-C ) :   1.0773 B( 28-C , 29-H ) :   0.9744
B( 28-C , 30-H ) :   0.9715 B( 28-C , 31-H ) :   0.9665

Dispersion correction           -0.014723181
FINAL SINGLE POINT ENERGY     -1339.887143484408

DIPOLE MOMENT
-------------
                                X             Y             Z
Electronic contribution:     25.75303      11.24232       3.15546
Nuclear contribution   :    -26.31957     -11.31883      -3.03822
                        -----------------------------------------
Total Dipole Moment    :     -0.56653      -0.07650       0.11725
                        -----------------------------------------
Magnitude (a.u.)       :      0.58357
Magnitude (Debye)      :      1.48333

Rotational constants in cm-1:     0.020112     0.008100     0.006644
Rotational constants in MHz :   602.942945   242.817850   199.184181

                             ****ORCA TERMINATED NORMALLY****
TOTAL RUN TIME: 0 days 0 hours 0 minutes 21 seconds 865 msec
