                         Program Version 4.2.1 -  RELEASE  -
|  1> ! wB97X-D3 SP def2-SVP
|  2> %pal
|  3> nprocs 24
|  4> end
|  5>
|  6> * xyz 0 1
|  7> S 	 -139.293 	 4.02871 	 2.2324
|  8> C 	 -139.762 	 3.91698 	 3.97703
|  9> C 	 -139.472 	 5.05555 	 4.67072
| 10> C 	 -138.731 	 6.00269 	 3.86415
| 11> C 	 -138.432 	 5.54701 	 2.60344
| 12> H 	 -138.257 	 6.87622 	 4.21368
| 13> C 	 -139.75 	 5.29469 	 6.12913
| 14> H 	 -138.837 	 5.31418 	 6.72955
| 15> H 	 -140.277 	 4.4463 	 6.56587
| 16> C 	 -140.439 	 6.58031 	 6.37436
| 17> H 	 -140.449 	 6.71476 	 7.47422
| 18> H 	 -139.958 	 7.38701 	 5.855
| 19> C 	 -141.965 	 6.69866 	 6.01386
| 20> H 	 -142.077 	 6.56545 	 4.95573
| 21> H 	 -142.586 	 5.98921 	 6.44276
| 22> H 	 -142.309 	 7.73898 	 6.26118
| 23> S 	 -136.387 	 5.76678 	 0.609926
| 24> C 	 -136.252 	 7.2597 	 -0.317746
| 25> C 	 -137.084 	 8.1988 	 0.214568
| 26> C 	 -137.992 	 7.73389 	 1.28451
| 27> C 	 -137.755 	 6.35344 	 1.57666
| 28> H 	 -137.109 	 9.20463 	 -0.130432
| 29> C 	 -139.072 	 8.65142 	 1.92769
| 30> H 	 -138.673 	 8.99856 	 2.86629
| 31> H 	 -139.81 	 7.94607 	 2.25965
| 32> C 	 -139.707 	 9.73075 	 1.1101
| 33> H 	 -140.054 	 9.21328 	 0.197193
| 34> H 	 -139.138 	 10.5556 	 0.76575
| 35> C 	 -140.992 	 10.218 	 1.69375
| 36> H 	 -140.945 	 10.5957 	 2.7592
| 37> H 	 -141.78 	 9.46051 	 1.70831
| 38> H 	 -141.369 	 11.0925 	 1.25924
| 39> H 	 -140.151 	 3.05797 	 4.49026
| 40> H 	 -135.517 	 7.5736 	 -1.03652
| 41> *
| 42>
| 43>                          ****END OF INPUT****

CARTESIAN COORDINATES (ANGSTROEM)
---------------------------------
  S    -139.293000    4.028710    2.232400
  C    -139.762000    3.916980    3.977030
  C    -139.472000    5.055550    4.670720
  C    -138.731000    6.002690    3.864150
  C    -138.432000    5.547010    2.603440
  H    -138.257000    6.876220    4.213680
  C    -139.750000    5.294690    6.129130
  H    -138.837000    5.314180    6.729550
  H    -140.277000    4.446300    6.565870
  C    -140.439000    6.580310    6.374360
  H    -140.449000    6.714760    7.474220
  H    -139.958000    7.387010    5.855000
  C    -141.965000    6.698660    6.013860
  H    -142.077000    6.565450    4.955730
  H    -142.586000    5.989210    6.442760
  H    -142.309000    7.738980    6.261180
  S    -136.387000    5.766780    0.609926
  C    -136.252000    7.259700   -0.317746
  C    -137.084000    8.198800    0.214568
  C    -137.992000    7.733890    1.284510
  C    -137.755000    6.353440    1.576660
  H    -137.109000    9.204630   -0.130432
  C    -139.072000    8.651420    1.927690
  H    -138.673000    8.998560    2.866290
  H    -139.810000    7.946070    2.259650
  C    -139.707000    9.730750    1.110100
  H    -140.054000    9.213280    0.197193
  H    -139.138000   10.555600    0.765750
  C    -140.992000   10.218000    1.693750
  H    -140.945000   10.595700    2.759200
  H    -141.780000    9.460510    1.708310
  H    -141.369000   11.092500    1.259240
  H    -140.151000    3.057970    4.490260
  H    -135.517000    7.573600   -1.036520

 Total Charge           Charge          ....    0
 Multiplicity           Mult            ....    1
 Number of Electrons    NEL             ....  134
 Basis Dimension        Dim             ....  322

ORBITAL ENERGIES
----------------

  NO   OCC          E(Eh)            E(eV)
   0   2.0000     -88.966580     -2420.9037
   1   2.0000     -88.966528     -2420.9023
   2   2.0000     -10.334118      -281.2056
   3   2.0000     -10.333562      -281.1905
   4   2.0000     -10.318217      -280.7730
   5   2.0000     -10.315960      -280.7115
   6   2.0000     -10.313986      -280.6578
   7   2.0000     -10.301927      -280.3297
   8   2.0000     -10.294186      -280.1191
   9   2.0000     -10.293165      -280.0913
  10   2.0000     -10.291856      -280.0556
  11   2.0000     -10.291037      -280.0333
  12   2.0000     -10.286951      -279.9222
  13   2.0000     -10.284253      -279.8487
  14   2.0000     -10.275874      -279.6208
  15   2.0000     -10.273047      -279.5438
  16   2.0000      -8.080416      -219.8793
  17   2.0000      -8.079918      -219.8657
  18   2.0000      -6.039179      -164.3344
  19   2.0000      -6.038651      -164.3200
  20   2.0000      -6.034974      -164.2200
  21   2.0000      -6.034861      -164.2169
  22   2.0000      -6.031011      -164.1122
  23   2.0000      -6.030270      -164.0920
  24   2.0000      -0.997531       -27.1442
  25   2.0000      -0.976461       -26.5709
  26   2.0000      -0.917676       -24.9712
  27   2.0000      -0.917138       -24.9566
  28   2.0000      -0.869537       -23.6613
  29   2.0000      -0.848261       -23.0823
  30   2.0000      -0.839888       -22.8545
  31   2.0000      -0.817540       -22.2464
  32   2.0000      -0.788947       -21.4683
  33   2.0000      -0.775781       -21.1101
  34   2.0000      -0.712276       -19.3820
  35   2.0000      -0.705339       -19.1932
  36   2.0000      -0.692108       -18.8332
  37   2.0000      -0.648720       -17.6526
  38   2.0000      -0.643264       -17.5041
  39   2.0000      -0.626093       -17.0369
  40   2.0000      -0.596953       -16.2439
  41   2.0000      -0.576712       -15.6931
  42   2.0000      -0.572577       -15.5806
  43   2.0000      -0.548674       -14.9302
  44   2.0000      -0.540537       -14.7087
  45   2.0000      -0.529765       -14.4156
  46   2.0000      -0.523866       -14.2551
  47   2.0000      -0.509984       -13.8774
  48   2.0000      -0.503137       -13.6910
  49   2.0000      -0.502061       -13.6618
  50   2.0000      -0.489181       -13.3113
  51   2.0000      -0.478479       -13.0201
  52   2.0000      -0.472938       -12.8693
  53   2.0000      -0.465628       -12.6704
  54   2.0000      -0.457836       -12.4584
  55   2.0000      -0.452169       -12.3041
  56   2.0000      -0.446231       -12.1426
  57   2.0000      -0.443386       -12.0652
  58   2.0000      -0.435547       -11.8518
  59   2.0000      -0.425560       -11.5801
  60   2.0000      -0.418394       -11.3851
  61   2.0000      -0.411327       -11.1928
  62   2.0000      -0.408180       -11.1071
  63   2.0000      -0.344644        -9.3782
  64   2.0000      -0.332200        -9.0396
  65   2.0000      -0.325518        -8.8578
  66   2.0000      -0.297983        -8.1085
  67   0.0000       0.025274         0.6877
  68   0.0000       0.072202         1.9647
  69   0.0000       0.108024         2.9395
  70   0.0000       0.119874         3.2619
  71   0.0000       0.124815         3.3964

MULLIKEN ATOMIC CHARGES
-----------------------
   0 S :    0.097021
   1 C :   -0.117492
   2 C :   -0.072296
   3 C :    0.003859
   4 C :   -0.124438
   5 H :    0.008115
   6 C :    0.114209
   7 H :    0.037686
   8 H :    0.006574
   9 C :   -0.109681
  10 H :    0.033175
  11 H :    0.029443
  12 C :   -0.035030
  13 H :    0.025753
  14 H :    0.015648
  15 H :    0.038455
  16 S :    0.105726
  17 C :   -0.066205
  18 C :   -0.034348
  19 C :   -0.071369
  20 C :   -0.169156
  21 H :    0.008845
  22 C :    0.088746
  23 H :    0.026272
  24 H :    0.026672
  25 C :   -0.040513
  26 H :    0.032993
  27 H :    0.028619
  28 C :   -0.047767
  29 H :    0.017864
  30 H :    0.034045
  31 H :    0.014090
  32 H :    0.037559
  33 H :    0.056927
Sum of atomic charges:    0.0000000

LOEWDIN ATOMIC CHARGES
----------------------
   0 S :    0.361243
   1 C :   -0.173796
   2 C :   -0.058891
   3 C :   -0.055820
   4 C :   -0.174118
   5 H :    0.024909
   6 C :   -0.034224
   7 H :    0.037796
   8 H :    0.028946
   9 C :   -0.039615
  10 H :    0.028851
  11 H :    0.021308
  12 C :   -0.059325
  13 H :    0.021011
  14 H :    0.011931
  15 H :    0.032707
  16 S :    0.391292
  17 C :   -0.182434
  18 C :   -0.071362
  19 C :   -0.040763
  20 C :   -0.205543
  21 H :    0.023923
  22 C :   -0.032030
  23 H :    0.027774
  24 H :    0.035003
  25 C :   -0.045549
  26 H :    0.036780
  27 H :    0.020265
  28 C :   -0.063730
  29 H :    0.026537
  30 H :    0.026248
  31 H :    0.018813
  32 H :    0.026325
  33 H :    0.035539

  Mayer bond orders larger than 0.100000
B(  0-S ,  1-C ) :   1.1043 B(  0-S ,  4-C ) :   1.1235 B(  1-C ,  2-C ) :   1.6698
B(  1-C , 32-H ) :   0.9646 B(  2-C ,  3-C ) :   1.1777 B(  2-C ,  6-C ) :   1.0319
B(  3-C ,  4-C ) :   1.6172 B(  3-C ,  5-H ) :   0.9997 B(  4-C , 20-C ) :   1.0494
B(  6-C ,  7-H ) :   0.9332 B(  6-C ,  8-H ) :   0.9338 B(  6-C ,  9-C ) :   1.0734
B(  9-C , 10-H ) :   0.9544 B(  9-C , 11-H ) :   0.9578 B(  9-C , 12-C ) :   1.0747
B( 12-C , 13-H ) :   0.9763 B( 12-C , 14-H ) :   0.9756 B( 12-C , 15-H ) :   0.9760
B( 16-S , 17-C ) :   1.1345 B( 16-S , 20-C ) :   1.1304 B( 17-C , 18-C ) :   1.6297
B( 17-C , 33-H ) :   0.9648 B( 18-C , 19-C ) :   1.2420 B( 18-C , 21-H ) :   0.9867
B( 19-C , 20-C ) :   1.5803 B( 19-C , 22-C ) :   1.0235 B( 22-C , 23-H ) :   0.9231
B( 22-C , 24-H ) :   0.9293 B( 22-C , 25-C ) :   1.0669 B( 25-C , 26-H ) :   0.9508
B( 25-C , 27-H ) :   0.9498 B( 25-C , 28-C ) :   1.0982 B( 28-C , 29-H ) :   0.9689
B( 28-C , 30-H ) :   0.9746 B( 28-C , 31-H ) :   0.9705

Dispersion correction           -0.014410792
FINAL SINGLE POINT ENERGY     -1339.868376733658

DIPOLE MOMENT
-------------
                                X             Y             Z
Electronic contribution:     18.75963     -20.20506     -15.52353
Nuclear contribution   :    -18.98671      20.87372      15.99174
                        -----------------------------------------
Total Dipole Moment    :     -0.22709       0.66866       0.46821
                        -----------------------------------------
Magnitude (a.u.)       :      0.84728
Magnitude (Debye)      :      2.15362

Rotational constants in cm-1:     0.016411     0.009821     0.006869
Rotational constants in MHz :   491.999384   294.426951   205.925754

                             ****ORCA TERMINATED NORMALLY****
TOTAL RUN TIME: 0 days 0 hours 0 minutes 22 seconds 118 msec
