                         Program Version 4.2.1 -  RELEASE  -
|  1> ! wB97X-D3 SP def2-SVP
|  2> %pal
|  3> nprocs 24
|  4> end
|  5>
|  6> * xyz 0 1
|  7> S 	 -113.148 	 53.0466 	 -93.8642
|  8> C 	 -112.152 	 53.4221 	 -95.262
|  9> C 	 -111.481 	 54.6374 	 -95.1355
| 10> C 	 -111.784 	 55.2361 	 -93.8396
| 11> C 	 -112.5 	 54.4236 	 -92.9425
| 12> H 	 -111.484 	 56.2216 	 -93.4679
| 13> C 	 -110.59 	 55.2641 	 -96.1229
| 14> H 	 -111.098 	 55.1526 	 -97.0538
| 15> H 	 -109.653 	 54.6737 	 -96.2289
| 16> C 	 -110.132 	 56.702 	 -95.8811
| 17> H 	 -111.008 	 57.2991 	 -95.7229
| 18> H 	 -109.644 	 56.7641 	 -94.8749
| 19> C 	 -109.278 	 57.2656 	 -97.0016
| 20> H 	 -109.718 	 57.2188 	 -97.973
| 21> H 	 -108.981 	 58.2719 	 -96.8239
| 22> H 	 -108.287 	 56.835 	 -97.0777
| 23> S 	 -114.623 	 54.5083 	 -91.3098
| 24> C 	 -114.316 	 54.7754 	 -89.5798
| 25> C 	 -112.965 	 55.1631 	 -89.3205
| 26> C 	 -112.142 	 55.2327 	 -90.4816
| 27> C 	 -112.895 	 54.8075 	 -91.6253
| 28> H 	 -112.708 	 55.31 	 -88.2923
| 29> C 	 -110.692 	 55.4425 	 -90.4597
| 30> H 	 -110.576 	 56.1098 	 -89.6135
| 31> H 	 -110.337 	 55.8066 	 -91.4151
| 32> C 	 -109.916 	 54.1598 	 -90.1707
| 33> H 	 -109.987 	 53.4955 	 -90.9948
| 34> H 	 -110.349 	 53.7284 	 -89.2807
| 35> C 	 -108.471 	 54.5614 	 -89.761
| 36> H 	 -108.429 	 54.5303 	 -88.6336
| 37> H 	 -108.11 	 55.5061 	 -90.1618
| 38> H 	 -107.696 	 53.8175 	 -90.0672
| 39> H 	 -112.094 	 52.96 	 -96.3197
| 40> H 	 -115.046 	 54.6346 	 -88.8025
| 41> *
| 42>
| 43>                          ****END OF INPUT****

CARTESIAN COORDINATES (ANGSTROEM)
---------------------------------
  S    -113.148000   53.046600  -93.864200
  C    -112.152000   53.422100  -95.262000
  C    -111.481000   54.637400  -95.135500
  C    -111.784000   55.236100  -93.839600
  C    -112.500000   54.423600  -92.942500
  H    -111.484000   56.221600  -93.467900
  C    -110.590000   55.264100  -96.122900
  H    -111.098000   55.152600  -97.053800
  H    -109.653000   54.673700  -96.228900
  C    -110.132000   56.702000  -95.881100
  H    -111.008000   57.299100  -95.722900
  H    -109.644000   56.764100  -94.874900
  C    -109.278000   57.265600  -97.001600
  H    -109.718000   57.218800  -97.973000
  H    -108.981000   58.271900  -96.823900
  H    -108.287000   56.835000  -97.077700
  S    -114.623000   54.508300  -91.309800
  C    -114.316000   54.775400  -89.579800
  C    -112.965000   55.163100  -89.320500
  C    -112.142000   55.232700  -90.481600
  C    -112.895000   54.807500  -91.625300
  H    -112.708000   55.310000  -88.292300
  C    -110.692000   55.442500  -90.459700
  H    -110.576000   56.109800  -89.613500
  H    -110.337000   55.806600  -91.415100
  C    -109.916000   54.159800  -90.170700
  H    -109.987000   53.495500  -90.994800
  H    -110.349000   53.728400  -89.280700
  C    -108.471000   54.561400  -89.761000
  H    -108.429000   54.530300  -88.633600
  H    -108.110000   55.506100  -90.161800
  H    -107.696000   53.817500  -90.067200
  H    -112.094000   52.960000  -96.319700
  H    -115.046000   54.634600  -88.802500

 Total Charge           Charge          ....    0
 Multiplicity           Mult            ....    1
 Number of Electrons    NEL             ....  134
 Basis Dimension        Dim             ....  322

ORBITAL ENERGIES
----------------

  NO   OCC          E(Eh)            E(eV)
   0   2.0000     -88.969922     -2420.9947
   1   2.0000     -88.969162     -2420.9740
   2   2.0000     -10.329562      -281.0817
   3   2.0000     -10.328948      -281.0650
   4   2.0000     -10.322246      -280.8826
   5   2.0000     -10.319285      -280.8020
   6   2.0000     -10.308063      -280.4966
   7   2.0000     -10.302122      -280.3350
   8   2.0000     -10.299834      -280.2727
   9   2.0000     -10.296160      -280.1728
  10   2.0000     -10.290088      -280.0075
  11   2.0000     -10.289247      -279.9846
  12   2.0000     -10.287240      -279.9300
  13   2.0000     -10.283348      -279.8241
  14   2.0000     -10.281353      -279.7698
  15   2.0000     -10.275291      -279.6049
  16   2.0000      -8.083357      -219.9593
  17   2.0000      -8.082768      -219.9433
  18   2.0000      -6.042146      -164.4151
  19   2.0000      -6.041187      -164.3891
  20   2.0000      -6.038033      -164.3032
  21   2.0000      -6.037489      -164.2884
  22   2.0000      -6.033880      -164.1902
  23   2.0000      -6.033634      -164.1835
  24   2.0000      -0.999329       -27.1931
  25   2.0000      -0.974359       -26.5137
  26   2.0000      -0.918984       -25.0068
  27   2.0000      -0.914495       -24.8847
  28   2.0000      -0.869850       -23.6698
  29   2.0000      -0.850718       -23.1492
  30   2.0000      -0.845461       -23.0062
  31   2.0000      -0.809089       -22.0164
  32   2.0000      -0.782634       -21.2966
  33   2.0000      -0.768415       -20.9096
  34   2.0000      -0.717864       -19.5341
  35   2.0000      -0.701596       -19.0914
  36   2.0000      -0.689609       -18.7652
  37   2.0000      -0.663649       -18.0588
  38   2.0000      -0.632682       -17.2161
  39   2.0000      -0.615463       -16.7476
  40   2.0000      -0.596395       -16.2287
  41   2.0000      -0.574775       -15.6404
  42   2.0000      -0.572323       -15.5737
  43   2.0000      -0.562590       -15.3088
  44   2.0000      -0.526514       -14.3272
  45   2.0000      -0.517424       -14.0798
  46   2.0000      -0.516079       -14.0432
  47   2.0000      -0.508466       -13.8361
  48   2.0000      -0.502407       -13.6712
  49   2.0000      -0.498781       -13.5725
  50   2.0000      -0.490223       -13.3396
  51   2.0000      -0.478849       -13.0301
  52   2.0000      -0.474044       -12.8994
  53   2.0000      -0.468400       -12.7458
  54   2.0000      -0.452297       -12.3076
  55   2.0000      -0.451035       -12.2733
  56   2.0000      -0.446593       -12.1524
  57   2.0000      -0.434289       -11.8176
  58   2.0000      -0.431659       -11.7460
  59   2.0000      -0.429750       -11.6941
  60   2.0000      -0.426285       -11.5998
  61   2.0000      -0.422847       -11.5062
  62   2.0000      -0.415026       -11.2934
  63   2.0000      -0.343822        -9.3559
  64   2.0000      -0.333072        -9.0634
  65   2.0000      -0.323653        -8.8070
  66   2.0000      -0.278826        -7.5872
  67   0.0000       0.016678         0.4538
  68   0.0000       0.066116         1.7991
  69   0.0000       0.101487         2.7616
  70   0.0000       0.119031         3.2390
  71   0.0000       0.126966         3.4549

MULLIKEN ATOMIC CHARGES
-----------------------
   0 S :    0.119388
   1 C :   -0.142924
   2 C :   -0.088967
   3 C :   -0.011686
   4 C :   -0.130418
   5 H :    0.023851
   6 C :    0.062858
   7 H :    0.017688
   8 H :    0.043559
   9 C :   -0.096675
  10 H :    0.026266
  11 H :    0.034168
  12 C :    0.004166
  13 H :    0.029074
  14 H :    0.018059
  15 H :    0.020693
  16 S :    0.104800
  17 C :   -0.098279
  18 C :   -0.051989
  19 C :   -0.009713
  20 C :   -0.188221
  21 H :    0.014751
  22 C :    0.079911
  23 H :    0.022704
  24 H :    0.018093
  25 C :   -0.040020
  26 H :    0.037264
  27 H :    0.021297
  28 C :   -0.073637
  29 H :    0.039323
  30 H :    0.035277
  31 H :    0.034772
  32 H :    0.070244
  33 H :    0.054322
Sum of atomic charges:   -0.0000000

LOEWDIN ATOMIC CHARGES
----------------------
   0 S :    0.395273
   1 C :   -0.220959
   2 C :   -0.064871
   3 C :   -0.067364
   4 C :   -0.198731
   5 H :    0.028415
   6 C :   -0.040060
   7 H :    0.028482
   8 H :    0.041187
   9 C :   -0.042332
  10 H :    0.020923
  11 H :    0.029057
  12 C :   -0.061600
  13 H :    0.024592
  14 H :    0.026197
  15 H :    0.026869
  16 S :    0.389634
  17 C :   -0.178670
  18 C :   -0.065762
  19 C :   -0.047151
  20 C :   -0.187859
  21 H :    0.028491
  22 C :   -0.031148
  23 H :    0.033954
  24 H :    0.028832
  25 C :   -0.025831
  26 H :    0.022355
  27 H :    0.023358
  28 C :   -0.073445
  29 H :    0.032399
  30 H :    0.021269
  31 H :    0.029101
  32 H :    0.051164
  33 H :    0.024231

  Mayer bond orders larger than 0.100000
B(  0-S ,  1-C ) :   1.1271 B(  0-S ,  4-C ) :   1.1245 B(  1-C ,  2-C ) :   1.6191
B(  1-C , 32-H ) :   0.9547 B(  2-C ,  3-C ) :   1.2426 B(  2-C ,  6-C ) :   1.0206
B(  3-C ,  4-C ) :   1.5466 B(  3-C ,  5-H ) :   0.9798 B(  4-C , 20-C ) :   1.1089
B(  6-C ,  7-H ) :   0.9280 B(  6-C ,  8-H ) :   0.9300 B(  6-C ,  9-C ) :   1.0929
B(  9-C , 10-H ) :   0.9507 B(  9-C , 11-H ) :   0.9433 B(  9-C , 12-C ) :   1.0891
B( 12-C , 13-H ) :   0.9741 B( 12-C , 14-H ) :   0.9671 B( 12-C , 15-H ) :   0.9693
B( 16-S , 17-C ) :   1.1483 B( 16-S , 20-C ) :   1.1434 B( 17-C , 18-C ) :   1.6008
B( 17-C , 20-C ) :   0.1078 B( 17-C , 33-H ) :   0.9698 B( 18-C , 19-C ) :   1.2418
B( 18-C , 21-H ) :   0.9911 B( 19-C , 20-C ) :   1.5296 B( 19-C , 22-C ) :   1.0685
B( 22-C , 23-H ) :   0.9268 B( 22-C , 24-H ) :   0.9171 B( 22-C , 25-C ) :   1.0735
B( 25-C , 26-H ) :   0.9595 B( 25-C , 27-H ) :   0.9621 B( 25-C , 28-C ) :   1.0594
B( 28-C , 29-H ) :   0.9808 B( 28-C , 30-H ) :   0.9766 B( 28-C , 31-H ) :   0.9755

Dispersion correction           -0.013838315
FINAL SINGLE POINT ENERGY     -1339.861170963413

DIPOLE MOMENT
-------------
                                X             Y             Z
Electronic contribution:    -27.42254     -11.37992       4.31941
Nuclear contribution   :     28.02781      11.71204      -4.32747
                        -----------------------------------------
Total Dipole Moment    :      0.60528       0.33212      -0.00806
                        -----------------------------------------
Magnitude (a.u.)       :      0.69045
Magnitude (Debye)      :      1.75499

Rotational constants in cm-1:     0.016857     0.008846     0.006826
Rotational constants in MHz :   505.369577   265.187660   204.629841

                             ****ORCA TERMINATED NORMALLY****
TOTAL RUN TIME: 0 days 0 hours 0 minutes 20 seconds 442 msec
