                         Program Version 4.2.1 -  RELEASE  -
|  1> ! wB97X-D3 SP def2-SVP
|  2> %pal
|  3> nprocs 24
|  4> end
|  5>
|  6> * xyz 0 1
|  7> S 	 -95.3147 	 7.47821 	 -4.74287
|  8> C 	 -94.8107 	 8.5909 	 -5.99053
|  9> C 	 -95.8691 	 8.92475 	 -6.85111
| 10> C 	 -97.1083 	 8.36043 	 -6.37862
| 11> C 	 -96.9428 	 7.49619 	 -5.27466
| 12> H 	 -98.0676 	 8.46708 	 -6.95141
| 13> C 	 -95.7608 	 9.93753 	 -8.03189
| 14> H 	 -96.6714 	 9.89737 	 -8.66179
| 15> H 	 -94.9288 	 9.68077 	 -8.69555
| 16> C 	 -95.5868 	 11.3926 	 -7.69112
| 17> H 	 -94.831 	 11.5682 	 -6.82344
| 18> H 	 -95.073 	 11.9398 	 -8.45153
| 19> C 	 -96.9197 	 12.1005 	 -7.43676
| 20> H 	 -96.7735 	 12.934 	 -6.71294
| 21> H 	 -97.422 	 12.3781 	 -8.39117
| 22> H 	 -97.5932 	 11.3972 	 -6.9842
| 23> S 	 -97.4574 	 4.90893 	 -4.69291
| 24> C 	 -99.0626 	 4.40388 	 -4.3724
| 25> C 	 -99.9218 	 5.43677 	 -4.21629
| 26> C 	 -99.3008 	 6.70842 	 -4.57559
| 27> C 	 -97.906 	 6.5231 	 -4.73265
| 28> H 	 -100.952 	 5.16231 	 -3.95389
| 29> C 	 -99.973 	 7.99081 	 -4.38446
| 30> H 	 -99.1362 	 8.72652 	 -4.26578
| 31> H 	 -100.624 	 7.85871 	 -3.51474
| 32> C 	 -100.853 	 8.45231 	 -5.53656
| 33> H 	 -101.524 	 7.62139 	 -5.80797
| 34> H 	 -100.276 	 8.61476 	 -6.43755
| 35> C 	 -101.548 	 9.76364 	 -5.11949
| 36> H 	 -102.188 	 9.80234 	 -4.22098
| 37> H 	 -102.291 	 10.1749 	 -5.89048
| 38> H 	 -100.814 	 10.4814 	 -5.04923
| 39> H 	 -93.8195 	 8.94044 	 -6.05957
| 40> H 	 -99.3758 	 3.39909 	 -4.17829
| 41> *
| 42>
| 43>                          ****END OF INPUT****

CARTESIAN COORDINATES (ANGSTROEM)
---------------------------------
  S    -95.314700    7.478210   -4.742870
  C    -94.810700    8.590900   -5.990530
  C    -95.869100    8.924750   -6.851110
  C    -97.108300    8.360430   -6.378620
  C    -96.942800    7.496190   -5.274660
  H    -98.067600    8.467080   -6.951410
  C    -95.760800    9.937530   -8.031890
  H    -96.671400    9.897370   -8.661790
  H    -94.928800    9.680770   -8.695550
  C    -95.586800   11.392600   -7.691120
  H    -94.831000   11.568200   -6.823440
  H    -95.073000   11.939800   -8.451530
  C    -96.919700   12.100500   -7.436760
  H    -96.773500   12.934000   -6.712940
  H    -97.422000   12.378100   -8.391170
  H    -97.593200   11.397200   -6.984200
  S    -97.457400    4.908930   -4.692910
  C    -99.062600    4.403880   -4.372400
  C    -99.921800    5.436770   -4.216290
  C    -99.300800    6.708420   -4.575590
  C    -97.906000    6.523100   -4.732650
  H    -100.952000    5.162310   -3.953890
  C    -99.973000    7.990810   -4.384460
  H    -99.136200    8.726520   -4.265780
  H    -100.624000    7.858710   -3.514740
  C    -100.853000    8.452310   -5.536560
  H    -101.524000    7.621390   -5.807970
  H    -100.276000    8.614760   -6.437550
  C    -101.548000    9.763640   -5.119490
  H    -102.188000    9.802340   -4.220980
  H    -102.291000   10.174900   -5.890480
  H    -100.814000   10.481400   -5.049230
  H    -93.819500    8.940440   -6.059570
  H    -99.375800    3.399090   -4.178290

 Total Charge           Charge          ....    0
 Multiplicity           Mult            ....    1
 Number of Electrons    NEL             ....  134
 Basis Dimension        Dim             ....  322

ORBITAL ENERGIES
----------------

  NO   OCC          E(Eh)            E(eV)
   0   2.0000     -88.970611     -2421.0134
   1   2.0000     -88.964962     -2420.8597
   2   2.0000     -10.332391      -281.1586
   3   2.0000     -10.322074      -280.8779
   4   2.0000     -10.314659      -280.6761
   5   2.0000     -10.310258      -280.5564
   6   2.0000     -10.307348      -280.4772
   7   2.0000     -10.303417      -280.3702
   8   2.0000     -10.300781      -280.2985
   9   2.0000     -10.298108      -280.2258
  10   2.0000     -10.292632      -280.0767
  11   2.0000     -10.287526      -279.9378
  12   2.0000     -10.286827      -279.9188
  13   2.0000     -10.286241      -279.9028
  14   2.0000     -10.278882      -279.7026
  15   2.0000     -10.278205      -279.6842
  16   2.0000      -8.085850      -220.0272
  17   2.0000      -8.081790      -219.9167
  18   2.0000      -6.044221      -164.4716
  19   2.0000      -6.040160      -164.3611
  20   2.0000      -6.040135      -164.3604
  21   2.0000      -6.036895      -164.2723
  22   2.0000      -6.035964      -164.2469
  23   2.0000      -6.032605      -164.1555
  24   2.0000      -1.015208       -27.6252
  25   2.0000      -0.988448       -26.8970
  26   2.0000      -0.916448       -24.9378
  27   2.0000      -0.913091       -24.8465
  28   2.0000      -0.871274       -23.7086
  29   2.0000      -0.852412       -23.1953
  30   2.0000      -0.845391       -23.0043
  31   2.0000      -0.815003       -22.1773
  32   2.0000      -0.782829       -21.3019
  33   2.0000      -0.769065       -20.9273
  34   2.0000      -0.706740       -19.2314
  35   2.0000      -0.699879       -19.0447
  36   2.0000      -0.692443       -18.8423
  37   2.0000      -0.662355       -18.0236
  38   2.0000      -0.638452       -17.3732
  39   2.0000      -0.616938       -16.7877
  40   2.0000      -0.594156       -16.1678
  41   2.0000      -0.573544       -15.6069
  42   2.0000      -0.569046       -15.4845
  43   2.0000      -0.554205       -15.0807
  44   2.0000      -0.537741       -14.6327
  45   2.0000      -0.520865       -14.1735
  46   2.0000      -0.518724       -14.1152
  47   2.0000      -0.510446       -13.8899
  48   2.0000      -0.509658       -13.8685
  49   2.0000      -0.498403       -13.5622
  50   2.0000      -0.484572       -13.1859
  51   2.0000      -0.479252       -13.0411
  52   2.0000      -0.473398       -12.8818
  53   2.0000      -0.465904       -12.6779
  54   2.0000      -0.457329       -12.4446
  55   2.0000      -0.452423       -12.3111
  56   2.0000      -0.439879       -11.9697
  57   2.0000      -0.439483       -11.9589
  58   2.0000      -0.435413       -11.8482
  59   2.0000      -0.426284       -11.5998
  60   2.0000      -0.421300       -11.4641
  61   2.0000      -0.419872       -11.4253
  62   2.0000      -0.408552       -11.1173
  63   2.0000      -0.353635        -9.6229
  64   2.0000      -0.335085        -9.1181
  65   2.0000      -0.325013        -8.8441
  66   2.0000      -0.288845        -7.8599
  67   0.0000       0.030082         0.8186
  68   0.0000       0.074988         2.0405
  69   0.0000       0.111653         3.0382
  70   0.0000       0.120349         3.2749
  71   0.0000       0.121456         3.3050

MULLIKEN ATOMIC CHARGES
-----------------------
   0 S :    0.117845
   1 C :   -0.108667
   2 C :   -0.082605
   3 C :    0.016932
   4 C :   -0.164789
   5 H :    0.028388
   6 C :    0.051202
   7 H :    0.023753
   8 H :    0.033057
   9 C :   -0.084557
  10 H :    0.032686
  11 H :    0.020462
  12 C :   -0.056760
  13 H :    0.043619
  14 H :    0.040758
  15 H :    0.019184
  16 S :    0.124218
  17 C :   -0.083872
  18 C :   -0.034725
  19 C :   -0.043586
  20 C :   -0.117295
  21 H :    0.025279
  22 C :    0.023023
  23 H :    0.040694
  24 H :    0.032002
  25 C :   -0.060280
  26 H :    0.025873
  27 H :    0.018221
  28 C :   -0.041108
  29 H :    0.034784
  30 H :    0.032900
  31 H :    0.015628
  32 H :    0.035658
  33 H :    0.042080
Sum of atomic charges:   -0.0000000

LOEWDIN ATOMIC CHARGES
----------------------
   0 S :    0.432914
   1 C :   -0.192744
   2 C :   -0.056727
   3 C :   -0.074418
   4 C :   -0.208238
   5 H :    0.036288
   6 C :   -0.034321
   7 H :    0.032227
   8 H :    0.034940
   9 C :   -0.052447
  10 H :    0.030564
  11 H :    0.018945
  12 C :   -0.069056
  13 H :    0.033129
  14 H :    0.029227
  15 H :    0.018131
  16 S :    0.450980
  17 C :   -0.197300
  18 C :   -0.071803
  19 C :   -0.057405
  20 C :   -0.230294
  21 H :    0.036581
  22 C :   -0.038587
  23 H :    0.037920
  24 H :    0.036827
  25 C :   -0.036990
  26 H :    0.022705
  27 H :    0.019515
  28 C :   -0.068105
  29 H :    0.027696
  30 H :    0.032668
  31 H :    0.014132
  32 H :    0.017570
  33 H :    0.025478

  Mayer bond orders larger than 0.100000
B(  0-S ,  1-C ) :   1.1535 B(  0-S ,  4-C ) :   1.1811 B(  1-C ,  2-C ) :   1.5763
B(  1-C ,  4-C ) :   0.1013 B(  1-C , 32-H ) :   0.9783 B(  2-C ,  3-C ) :   1.2858
B(  2-C ,  6-C ) :   1.0222 B(  3-C ,  4-C ) :   1.5256 B(  3-C ,  5-H ) :   0.9768
B(  4-C , 20-C ) :   1.0136 B(  6-C ,  7-H ) :   0.9478 B(  6-C ,  8-H ) :   0.9388
B(  6-C ,  9-C ) :   1.0693 B(  9-C , 10-H ) :   0.9571 B(  9-C , 11-H ) :   0.9546
B(  9-C , 12-C ) :   1.0704 B( 12-C , 13-H ) :   0.9737 B( 12-C , 14-H ) :   0.9731
B( 12-C , 15-H ) :   0.9804 B( 16-S , 17-C ) :   1.1610 B( 16-S , 20-C ) :   1.1679
B( 17-C , 18-C ) :   1.6322 B( 17-C , 33-H ) :   0.9656 B( 18-C , 19-C ) :   1.2212
B( 18-C , 21-H ) :   0.9869 B( 19-C , 20-C ) :   1.5613 B( 19-C , 22-C ) :   1.0618
B( 22-C , 23-H ) :   0.9357 B( 22-C , 24-H ) :   0.9401 B( 22-C , 25-C ) :   1.0575
B( 25-C , 26-H ) :   0.9570 B( 25-C , 27-H ) :   0.9491 B( 25-C , 28-C ) :   1.0707
B( 28-C , 29-H ) :   0.9769 B( 28-C , 30-H ) :   0.9735 B( 28-C , 31-H ) :   0.9735

Dispersion correction           -0.014387378
FINAL SINGLE POINT ENERGY     -1339.874837494952

DIPOLE MOMENT
-------------
                                X             Y             Z
Electronic contribution:     14.38784     -26.09191      10.72671
Nuclear contribution   :    -14.67835      26.39344     -11.00515
                        -----------------------------------------
Total Dipole Moment    :     -0.29051       0.30154      -0.27844
                        -----------------------------------------
Magnitude (a.u.)       :      0.50284
Magnitude (Debye)      :      1.27812

Rotational constants in cm-1:     0.017451     0.009786     0.006718
Rotational constants in MHz :   523.182768   293.376952   201.402968

                             ****ORCA TERMINATED NORMALLY****
TOTAL RUN TIME: 0 days 0 hours 0 minutes 21 seconds 881 msec
