                         Program Version 4.2.1 -  RELEASE  -
|  1> ! wB97X-D3 SP def2-SVP
|  2> %pal
|  3> nprocs 24
|  4> end
|  5>
|  6> * xyz 0 1
|  7> S 	 -105.602 	 61.4531 	 -98.7203
|  8> C 	 -106.709 	 60.2422 	 -99.3038
|  9> C 	 -106.261 	 59.567 	 -100.405
| 10> C 	 -105.118 	 60.3026 	 -100.892
| 11> C 	 -104.492 	 61.1777 	 -100.047
| 12> H 	 -104.566 	 60.2072 	 -101.83
| 13> C 	 -106.998 	 58.4864 	 -101.08
| 14> H 	 -106.629 	 58.4158 	 -102.118
| 15> H 	 -108.006 	 58.808 	 -101.276
| 16> C 	 -106.962 	 57.1601 	 -100.275
| 17> H 	 -107.259 	 57.3183 	 -99.1957
| 18> H 	 -107.69 	 56.4095 	 -100.612
| 19> C 	 -105.59 	 56.3994 	 -100.208
| 20> H 	 -105.326 	 56.1743 	 -101.27
| 21> H 	 -104.819 	 57.0954 	 -99.9141
| 22> H 	 -105.463 	 55.5849 	 -99.4893
| 23> S 	 -103.054 	 63.5967 	 -99.8338
| 24> C 	 -101.325 	 63.6484 	 -100.207
| 25> C 	 -100.929 	 62.3649 	 -100.544
| 26> C 	 -101.983 	 61.3844 	 -100.594
| 27> C 	 -103.177 	 61.8478 	 -100.186
| 28> H 	 -99.932 	 62.1756 	 -100.787
| 29> C 	 -101.641 	 59.8845 	 -100.915
| 30> H 	 -102.606 	 59.3816 	 -100.883
| 31> H 	 -100.978 	 59.419 	 -100.165
| 32> C 	 -100.902 	 59.6941 	 -102.216
| 33> H 	 -99.8918 	 60.1573 	 -102.31
| 34> H 	 -101.487 	 60.0497 	 -103.087
| 35> C 	 -100.779 	 58.25 	 -102.598
| 36> H 	 -100.373 	 57.5362 	 -101.84
| 37> H 	 -100.191 	 58.2236 	 -103.48
| 38> H 	 -101.845 	 57.9434 	 -102.744
| 39> H 	 -107.552 	 59.8161 	 -98.7178
| 40> H 	 -100.723 	 64.5993 	 -100.057
| 41> *
| 42>
| 43>                          ****END OF INPUT****

CARTESIAN COORDINATES (ANGSTROEM)
---------------------------------
  S    -105.602000   61.453100  -98.720300
  C    -106.709000   60.242200  -99.303800
  C    -106.261000   59.567000  -100.405000
  C    -105.118000   60.302600  -100.892000
  C    -104.492000   61.177700  -100.047000
  H    -104.566000   60.207200  -101.830000
  C    -106.998000   58.486400  -101.080000
  H    -106.629000   58.415800  -102.118000
  H    -108.006000   58.808000  -101.276000
  C    -106.962000   57.160100  -100.275000
  H    -107.259000   57.318300  -99.195700
  H    -107.690000   56.409500  -100.612000
  C    -105.590000   56.399400  -100.208000
  H    -105.326000   56.174300  -101.270000
  H    -104.819000   57.095400  -99.914100
  H    -105.463000   55.584900  -99.489300
  S    -103.054000   63.596700  -99.833800
  C    -101.325000   63.648400  -100.207000
  C    -100.929000   62.364900  -100.544000
  C    -101.983000   61.384400  -100.594000
  C    -103.177000   61.847800  -100.186000
  H    -99.932000   62.175600  -100.787000
  C    -101.641000   59.884500  -100.915000
  H    -102.606000   59.381600  -100.883000
  H    -100.978000   59.419000  -100.165000
  C    -100.902000   59.694100  -102.216000
  H    -99.891800   60.157300  -102.310000
  H    -101.487000   60.049700  -103.087000
  C    -100.779000   58.250000  -102.598000
  H    -100.373000   57.536200  -101.840000
  H    -100.191000   58.223600  -103.480000
  H    -101.845000   57.943400  -102.744000
  H    -107.552000   59.816100  -98.717800
  H    -100.723000   64.599300  -100.057000

 Total Charge           Charge          ....    0
 Multiplicity           Mult            ....    1
 Number of Electrons    NEL             ....  134
 Basis Dimension        Dim             ....  322

ORBITAL ENERGIES
----------------

  NO   OCC          E(Eh)            E(eV)
   0   2.0000     -88.965228     -2420.8669
   1   2.0000     -88.961288     -2420.7597
   2   2.0000     -10.331799      -281.1425
   3   2.0000     -10.330949      -281.1194
   4   2.0000     -10.329002      -281.0664
   5   2.0000     -10.314574      -280.6738
   6   2.0000     -10.305152      -280.4175
   7   2.0000     -10.302131      -280.3352
   8   2.0000     -10.299204      -280.2556
   9   2.0000     -10.298772      -280.2438
  10   2.0000     -10.296061      -280.1701
  11   2.0000     -10.295602      -280.1576
  12   2.0000     -10.293981      -280.1135
  13   2.0000     -10.286723      -279.9160
  14   2.0000     -10.281697      -279.7792
  15   2.0000     -10.277783      -279.6727
  16   2.0000      -8.080156      -219.8722
  17   2.0000      -8.075653      -219.7497
  18   2.0000      -6.038692      -164.3212
  19   2.0000      -6.034630      -164.2106
  20   2.0000      -6.034319      -164.2022
  21   2.0000      -6.030858      -164.1080
  22   2.0000      -6.030241      -164.0912
  23   2.0000      -6.026224      -163.9819
  24   2.0000      -1.008145       -27.4330
  25   2.0000      -0.986635       -26.8477
  26   2.0000      -0.914822       -24.8936
  27   2.0000      -0.913897       -24.8684
  28   2.0000      -0.869053       -23.6481
  29   2.0000      -0.851632       -23.1741
  30   2.0000      -0.842262       -22.9191
  31   2.0000      -0.817793       -22.2533
  32   2.0000      -0.784734       -21.3537
  33   2.0000      -0.776107       -21.1189
  34   2.0000      -0.706454       -19.2236
  35   2.0000      -0.697148       -18.9704
  36   2.0000      -0.691123       -18.8064
  37   2.0000      -0.662622       -18.0309
  38   2.0000      -0.641361       -17.4523
  39   2.0000      -0.612270       -16.6607
  40   2.0000      -0.597436       -16.2571
  41   2.0000      -0.579515       -15.7694
  42   2.0000      -0.573109       -15.5951
  43   2.0000      -0.554352       -15.0847
  44   2.0000      -0.540381       -14.7045
  45   2.0000      -0.537696       -14.6315
  46   2.0000      -0.514441       -13.9987
  47   2.0000      -0.511739       -13.9251
  48   2.0000      -0.506234       -13.7753
  49   2.0000      -0.498404       -13.5623
  50   2.0000      -0.490134       -13.3372
  51   2.0000      -0.475356       -12.9351
  52   2.0000      -0.470368       -12.7994
  53   2.0000      -0.464746       -12.6464
  54   2.0000      -0.456391       -12.4190
  55   2.0000      -0.453787       -12.3482
  56   2.0000      -0.443556       -12.0698
  57   2.0000      -0.440722       -11.9927
  58   2.0000      -0.428241       -11.6530
  59   2.0000      -0.423362       -11.5203
  60   2.0000      -0.415265       -11.2999
  61   2.0000      -0.413480       -11.2514
  62   2.0000      -0.408419       -11.1136
  63   2.0000      -0.353228        -9.6118
  64   2.0000      -0.329962        -8.9787
  65   2.0000      -0.329895        -8.9769
  66   2.0000      -0.297327        -8.0907
  67   0.0000       0.028750         0.7823
  68   0.0000       0.071524         1.9463
  69   0.0000       0.112112         3.0507
  70   0.0000       0.115230         3.1356
  71   0.0000       0.126993         3.4556

MULLIKEN ATOMIC CHARGES
-----------------------
   0 S :    0.111823
   1 C :   -0.112104
   2 C :   -0.108964
   3 C :    0.019589
   4 C :   -0.166227
   5 H :    0.012385
   6 C :    0.088109
   7 H :    0.022550
   8 H :    0.036248
   9 C :   -0.100300
  10 H :    0.032578
  11 H :    0.035644
  12 C :   -0.058993
  13 H :    0.029797
  14 H :    0.026408
  15 H :    0.047602
  16 S :    0.077523
  17 C :   -0.116981
  18 C :   -0.002610
  19 C :   -0.030690
  20 C :   -0.133628
  21 H :   -0.001105
  22 C :    0.083761
  23 H :    0.015053
  24 H :    0.040854
  25 C :   -0.119097
  26 H :    0.038179
  27 H :    0.028355
  28 C :   -0.042818
  29 H :    0.031600
  30 H :    0.031968
  31 H :    0.026625
  32 H :    0.063091
  33 H :    0.093775
Sum of atomic charges:   -0.0000000

LOEWDIN ATOMIC CHARGES
----------------------
   0 S :    0.405455
   1 C :   -0.194664
   2 C :   -0.069898
   3 C :   -0.068268
   4 C :   -0.194241
   5 H :    0.029031
   6 C :   -0.033284
   7 H :    0.035818
   8 H :    0.037516
   9 C :   -0.042861
  10 H :    0.027094
  11 H :    0.023799
  12 C :   -0.072798
  13 H :    0.027434
  14 H :    0.021723
  15 H :    0.030362
  16 S :    0.369993
  17 C :   -0.178868
  18 C :   -0.065059
  19 C :   -0.055811
  20 C :   -0.183643
  21 H :    0.019728
  22 C :   -0.025849
  23 H :    0.027527
  24 H :    0.036804
  25 C :   -0.053118
  26 H :    0.024424
  27 H :    0.028669
  28 C :   -0.064474
  29 H :    0.022908
  30 H :    0.022080
  31 H :    0.027943
  32 H :    0.035906
  33 H :    0.048621

  Mayer bond orders larger than 0.100000
B(  0-S ,  1-C ) :   1.1498 B(  0-S ,  4-C ) :   1.1356 B(  1-C ,  2-C ) :   1.6288
B(  1-C , 32-H ) :   0.9528 B(  2-C ,  3-C ) :   1.2063 B(  2-C ,  6-C ) :   1.0249
B(  3-C ,  4-C ) :   1.6168 B(  3-C ,  5-H ) :   0.9815 B(  4-C , 20-C ) :   1.0192
B(  6-C ,  7-H ) :   0.9432 B(  6-C ,  8-H ) :   0.9396 B(  6-C ,  9-C ) :   1.0511
B(  9-C , 10-H ) :   0.9605 B(  9-C , 11-H ) :   0.9599 B(  9-C , 12-C ) :   1.0642
B( 12-C , 13-H ) :   0.9748 B( 12-C , 14-H ) :   0.9765 B( 12-C , 15-H ) :   0.9750
B( 16-S , 17-C ) :   1.1439 B( 16-S , 20-C ) :   1.1172 B( 17-C , 18-C ) :   1.6116
B( 17-C , 33-H ) :   0.9614 B( 18-C , 19-C ) :   1.2151 B( 18-C , 21-H ) :   1.0012
B( 19-C , 20-C ) :   1.6541 B( 19-C , 22-C ) :   1.0266 B( 22-C , 23-H ) :   0.9342
B( 22-C , 24-H ) :   0.9376 B( 22-C , 25-C ) :   1.0665 B( 25-C , 26-H ) :   0.9526
B( 25-C , 27-H ) :   0.9536 B( 25-C , 28-C ) :   1.0837 B( 28-C , 29-H ) :   0.9720
B( 28-C , 30-H ) :   0.9739 B( 28-C , 31-H ) :   0.9767

Dispersion correction           -0.014229803
FINAL SINGLE POINT ENERGY     -1339.868221546713

DIPOLE MOMENT
-------------
                                X             Y             Z
Electronic contribution:     -4.47163      28.77492      12.38243
Nuclear contribution   :      4.70252     -29.36171     -12.72599
                        -----------------------------------------
Total Dipole Moment    :      0.23089      -0.58679      -0.34357
                        -----------------------------------------
Magnitude (a.u.)       :      0.71810
Magnitude (Debye)      :      1.82527

Rotational constants in cm-1:     0.017030     0.009752     0.006550
Rotational constants in MHz :   510.555406   292.369945   196.373618

                             ****ORCA TERMINATED NORMALLY****
TOTAL RUN TIME: 0 days 0 hours 0 minutes 21 seconds 874 msec
