                         Program Version 4.2.1 -  RELEASE  -
|  1> ! wB97X-D3 SP def2-SVP
|  2> %pal
|  3> nprocs 24
|  4> end
|  5>
|  6> * xyz 0 1
|  7> S 	 -42.8415 	 15.4575 	 -100.186
|  8> C 	 -41.8643 	 14.4428 	 -101.164
|  9> C 	 -42.5803 	 13.5653 	 -101.962
| 10> C 	 -43.9556 	 13.9271 	 -101.949
| 11> C 	 -44.2499 	 14.9284 	 -101.021
| 12> H 	 -44.7573 	 13.4991 	 -102.536
| 13> C 	 -41.9979 	 12.5636 	 -102.932
| 14> H 	 -41.1699 	 12.9675 	 -103.525
| 15> H 	 -42.7724 	 12.2664 	 -103.631
| 16> C 	 -41.7125 	 11.1387 	 -102.295
| 17> H 	 -42.5623 	 10.5378 	 -102.041
| 18> H 	 -41.3058 	 10.4225 	 -103.02
| 19> C 	 -40.6765 	 11.2106 	 -101.114
| 20> H 	 -39.6264 	 11.0016 	 -101.538
| 21> H 	 -40.6686 	 12.076 	 -100.509
| 22> H 	 -40.9379 	 10.3959 	 -100.36
| 23> S 	 -46.1651 	 15.7413 	 -99.2557
| 24> C 	 -47.6539 	 16.3714 	 -99.8457
| 25> C 	 -47.8837 	 15.9302 	 -101.13
| 26> C 	 -46.7138 	 15.4398 	 -101.768
| 27> C 	 -45.5982 	 15.401 	 -100.899
| 28> H 	 -48.8762 	 16.1716 	 -101.622
| 29> C 	 -46.6759 	 15.2071 	 -103.295
| 30> H 	 -46.9325 	 14.1779 	 -103.566
| 31> H 	 -45.6491 	 15.3398 	 -103.707
| 32> C 	 -47.5676 	 16.1197 	 -104.218
| 33> H 	 -47.3333 	 17.0992 	 -103.886
| 34> H 	 -48.5558 	 15.8711 	 -103.915
| 35> C 	 -47.3349 	 15.9042 	 -105.761
| 36> H 	 -47.3436 	 14.8879 	 -106.086
| 37> H 	 -46.3504 	 16.2768 	 -106.035
| 38> H 	 -48.0383 	 16.5914 	 -106.298
| 39> H 	 -40.8045 	 14.5246 	 -101.173
| 40> H 	 -48.4666 	 16.8008 	 -99.3289
| 41> *
| 42>
| 43>                          ****END OF INPUT****

CARTESIAN COORDINATES (ANGSTROEM)
---------------------------------
  S    -42.841500   15.457500  -100.186000
  C    -41.864300   14.442800  -101.164000
  C    -42.580300   13.565300  -101.962000
  C    -43.955600   13.927100  -101.949000
  C    -44.249900   14.928400  -101.021000
  H    -44.757300   13.499100  -102.536000
  C    -41.997900   12.563600  -102.932000
  H    -41.169900   12.967500  -103.525000
  H    -42.772400   12.266400  -103.631000
  C    -41.712500   11.138700  -102.295000
  H    -42.562300   10.537800  -102.041000
  H    -41.305800   10.422500  -103.020000
  C    -40.676500   11.210600  -101.114000
  H    -39.626400   11.001600  -101.538000
  H    -40.668600   12.076000  -100.509000
  H    -40.937900   10.395900  -100.360000
  S    -46.165100   15.741300  -99.255700
  C    -47.653900   16.371400  -99.845700
  C    -47.883700   15.930200  -101.130000
  C    -46.713800   15.439800  -101.768000
  C    -45.598200   15.401000  -100.899000
  H    -48.876200   16.171600  -101.622000
  C    -46.675900   15.207100  -103.295000
  H    -46.932500   14.177900  -103.566000
  H    -45.649100   15.339800  -103.707000
  C    -47.567600   16.119700  -104.218000
  H    -47.333300   17.099200  -103.886000
  H    -48.555800   15.871100  -103.915000
  C    -47.334900   15.904200  -105.761000
  H    -47.343600   14.887900  -106.086000
  H    -46.350400   16.276800  -106.035000
  H    -48.038300   16.591400  -106.298000
  H    -40.804500   14.524600  -101.173000
  H    -48.466600   16.800800  -99.328900

 Total Charge           Charge          ....    0
 Multiplicity           Mult            ....    1
 Number of Electrons    NEL             ....  134
 Basis Dimension        Dim             ....  322

ORBITAL ENERGIES
----------------

  NO   OCC          E(Eh)            E(eV)
   0   2.0000     -88.972567     -2421.0666
   1   2.0000     -88.962489     -2420.7924
   2   2.0000     -10.329099      -281.0691
   3   2.0000     -10.324933      -280.9557
   4   2.0000     -10.312650      -280.6215
   5   2.0000     -10.308692      -280.5138
   6   2.0000     -10.307457      -280.4802
   7   2.0000     -10.302665      -280.3498
   8   2.0000     -10.298437      -280.2347
   9   2.0000     -10.294872      -280.1377
  10   2.0000     -10.294860      -280.1374
  11   2.0000     -10.292957      -280.0856
  12   2.0000     -10.291247      -280.0391
  13   2.0000     -10.285395      -279.8798
  14   2.0000     -10.285223      -279.8751
  15   2.0000     -10.281656      -279.7781
  16   2.0000      -8.088132      -220.0893
  17   2.0000      -8.077584      -219.8022
  18   2.0000      -6.046511      -164.5339
  19   2.0000      -6.042505      -164.4249
  20   2.0000      -6.038997      -164.3295
  21   2.0000      -6.036043      -164.2491
  22   2.0000      -6.032179      -164.1439
  23   2.0000      -6.028248      -164.0370
  24   2.0000      -1.012425       -27.5495
  25   2.0000      -0.988110       -26.8878
  26   2.0000      -0.906167       -24.6581
  27   2.0000      -0.900623       -24.5072
  28   2.0000      -0.871812       -23.7232
  29   2.0000      -0.851741       -23.1771
  30   2.0000      -0.842675       -22.9304
  31   2.0000      -0.808165       -21.9913
  32   2.0000      -0.781616       -21.2688
  33   2.0000      -0.773914       -21.0593
  34   2.0000      -0.711778       -19.3685
  35   2.0000      -0.701430       -19.0869
  36   2.0000      -0.700455       -19.0604
  37   2.0000      -0.655883       -17.8475
  38   2.0000      -0.638590       -17.3769
  39   2.0000      -0.618243       -16.8232
  40   2.0000      -0.593679       -16.1548
  41   2.0000      -0.566383       -15.4121
  42   2.0000      -0.565696       -15.3934
  43   2.0000      -0.545459       -14.8427
  44   2.0000      -0.539955       -14.6929
  45   2.0000      -0.520393       -14.1606
  46   2.0000      -0.515199       -14.0193
  47   2.0000      -0.507236       -13.8026
  48   2.0000      -0.504748       -13.7349
  49   2.0000      -0.495416       -13.4810
  50   2.0000      -0.488127       -13.2826
  51   2.0000      -0.486061       -13.2264
  52   2.0000      -0.473774       -12.8920
  53   2.0000      -0.466558       -12.6957
  54   2.0000      -0.462311       -12.5801
  55   2.0000      -0.452908       -12.3243
  56   2.0000      -0.446245       -12.1430
  57   2.0000      -0.437904       -11.9160
  58   2.0000      -0.433337       -11.7917
  59   2.0000      -0.420534       -11.4433
  60   2.0000      -0.416644       -11.3375
  61   2.0000      -0.411407       -11.1949
  62   2.0000      -0.409277       -11.1370
  63   2.0000      -0.354736        -9.6529
  64   2.0000      -0.335294        -9.1238
  65   2.0000      -0.328677        -8.9437
  66   2.0000      -0.280007        -7.6194
  67   0.0000       0.020016         0.5447
  68   0.0000       0.076560         2.0833
  69   0.0000       0.105700         2.8762
  70   0.0000       0.119522         3.2523
  71   0.0000       0.140178         3.8144

MULLIKEN ATOMIC CHARGES
-----------------------
   0 S :    0.145251
   1 C :   -0.122909
   2 C :   -0.043888
   3 C :   -0.010829
   4 C :   -0.127500
   5 H :    0.011363
   6 C :    0.065344
   7 H :    0.047200
   8 H :    0.019340
   9 C :   -0.074010
  10 H :    0.025026
  11 H :    0.025125
  12 C :   -0.091236
  13 H :    0.044030
  14 H :    0.030191
  15 H :    0.036110
  16 S :    0.092333
  17 C :   -0.059466
  18 C :   -0.083995
  19 C :   -0.009526
  20 C :   -0.148840
  21 H :    0.043404
  22 C :   -0.024823
  23 H :    0.033790
  24 H :    0.035676
  25 C :   -0.056505
  26 H :    0.028566
  27 H :    0.024486
  28 C :   -0.041238
  29 H :    0.033237
  30 H :    0.025747
  31 H :    0.046818
  32 H :    0.043340
  33 H :    0.038388
Sum of atomic charges:    0.0000000

LOEWDIN ATOMIC CHARGES
----------------------
   0 S :    0.440997
   1 C :   -0.197024
   2 C :   -0.061871
   3 C :   -0.049839
   4 C :   -0.217079
   5 H :    0.031905
   6 C :   -0.028940
   7 H :    0.035325
   8 H :    0.032160
   9 C :   -0.044012
  10 H :    0.021705
  11 H :    0.027330
  12 C :   -0.078958
  13 H :    0.032627
  14 H :    0.012980
  15 H :    0.033921
  16 S :    0.400910
  17 C :   -0.192521
  18 C :   -0.079290
  19 C :   -0.063800
  20 C :   -0.179121
  21 H :    0.041984
  22 C :   -0.042236
  23 H :    0.024704
  24 H :    0.030595
  25 C :   -0.031642
  26 H :    0.020488
  27 H :    0.013068
  28 C :   -0.061823
  29 H :    0.021923
  30 H :    0.025222
  31 H :    0.036460
  32 H :    0.020739
  33 H :    0.023112

  Mayer bond orders larger than 0.100000
B(  0-S ,  1-C ) :   1.1573 B(  0-S ,  4-C ) :   1.1509 B(  1-C ,  2-C ) :   1.5666
B(  1-C , 32-H ) :   0.9689 B(  2-C ,  3-C ) :   1.2702 B(  2-C ,  6-C ) :   1.0257
B(  3-C ,  4-C ) :   1.5290 B(  3-C ,  5-H ) :   0.9932 B(  4-C , 20-C ) :   1.0942
B(  6-C ,  7-H ) :   0.9528 B(  6-C ,  8-H ) :   0.9397 B(  6-C ,  9-C ) :   1.0547
B(  9-C , 10-H ) :   0.9647 B(  9-C , 11-H ) :   0.9575 B(  9-C , 12-C ) :   1.0570
B( 12-C , 13-H ) :   0.9811 B( 12-C , 14-H ) :   0.9795 B( 12-C , 15-H ) :   0.9767
B( 16-S , 17-C ) :   1.1500 B( 16-S , 20-C ) :   1.1401 B( 17-C , 18-C ) :   1.6160
B( 17-C , 20-C ) :   0.1054 B( 17-C , 33-H ) :   0.9686 B( 18-C , 19-C ) :   1.2592
B( 18-C , 21-H ) :   0.9726 B( 19-C , 20-C ) :   1.5713 B( 19-C , 22-C ) :   1.0262
B( 22-C , 23-H ) :   0.9299 B( 22-C , 24-H ) :   0.9506 B( 22-C , 25-C ) :   1.0567
B( 25-C , 26-H ) :   0.9616 B( 25-C , 27-H ) :   0.9515 B( 25-C , 28-C ) :   1.0782
B( 28-C , 29-H ) :   0.9776 B( 28-C , 30-H ) :   0.9742 B( 28-C , 31-H ) :   0.9745

Dispersion correction           -0.013686864
FINAL SINGLE POINT ENERGY     -1339.857524335335

DIPOLE MOMENT
-------------
                                X             Y             Z
Electronic contribution:     -1.86792      12.63076      22.77671
Nuclear contribution   :      1.80956     -12.89946     -23.46368
                        -----------------------------------------
Total Dipole Moment    :     -0.05836      -0.26871      -0.68697
                        -----------------------------------------
Magnitude (a.u.)       :      0.73996
Magnitude (Debye)      :      1.88083

Rotational constants in cm-1:     0.018197     0.008257     0.006292
Rotational constants in MHz :   545.520985   247.538627   188.624673

                             ****ORCA TERMINATED NORMALLY****
TOTAL RUN TIME: 0 days 0 hours 0 minutes 21 seconds 241 msec
