                         Program Version 4.2.1 -  RELEASE  -
|  1> ! wB97X-D3 SP def2-SVP
|  2> %pal
|  3> nprocs 24
|  4> end
|  5>
|  6> * xyz 0 1
|  7> S 	 -105.397 	 61.936 	 -12.4051
|  8> C 	 -105.958 	 63.1769 	 -11.3144
|  9> C 	 -105.151 	 64.3188 	 -11.3754
| 10> C 	 -104.19 	 64.2505 	 -12.5006
| 11> C 	 -104.335 	 63.1281 	 -13.2837
| 12> H 	 -103.532 	 65.0776 	 -12.8104
| 13> C 	 -105.178 	 65.4101 	 -10.3427
| 14> H 	 -104.19 	 65.8427 	 -10.1363
| 15> H 	 -105.527 	 64.9425 	 -9.46716
| 16> C 	 -106.109 	 66.5016 	 -10.7483
| 17> H 	 -105.834 	 66.9937 	 -11.6911
| 18> H 	 -107.084 	 65.9229 	 -10.9249
| 19> C 	 -106.273 	 67.572 	 -9.59433
| 20> H 	 -106.495 	 67.1928 	 -8.56986
| 21> H 	 -105.335 	 68.0834 	 -9.55726
| 22> H 	 -107.012 	 68.254 	 -9.87202
| 23> S 	 -104.493 	 61.9852 	 -15.7493
| 24> C 	 -103.16 	 62.06 	 -16.8218
| 25> C 	 -101.998 	 62.5058 	 -16.2027
| 26> C 	 -102.254 	 62.9116 	 -14.8191
| 27> C 	 -103.578 	 62.6828 	 -14.4402
| 28> H 	 -101.007 	 62.4899 	 -16.6429
| 29> C 	 -101.22 	 63.5969 	 -13.9299
| 30> H 	 -101.665 	 63.7536 	 -12.9826
| 31> H 	 -100.929 	 64.6278 	 -14.3487
| 32> C 	 -99.9173 	 62.8166 	 -13.7393
| 33> H 	 -99.1811 	 63.4067 	 -13.0797
| 34> H 	 -99.4947 	 62.6836 	 -14.6933
| 35> C 	 -100.24 	 61.4571 	 -13.1154
| 36> H 	 -100.884 	 60.7393 	 -13.7329
| 37> H 	 -100.556 	 61.4621 	 -12.0471
| 38> H 	 -99.2894 	 60.9852 	 -13.1305
| 39> H 	 -106.711 	 63.0259 	 -10.5265
| 40> H 	 -103.219 	 61.8186 	 -17.8124
| 41> *
| 42>
| 43>                          ****END OF INPUT****

CARTESIAN COORDINATES (ANGSTROEM)
---------------------------------
  S    -105.397000   61.936000  -12.405100
  C    -105.958000   63.176900  -11.314400
  C    -105.151000   64.318800  -11.375400
  C    -104.190000   64.250500  -12.500600
  C    -104.335000   63.128100  -13.283700
  H    -103.532000   65.077600  -12.810400
  C    -105.178000   65.410100  -10.342700
  H    -104.190000   65.842700  -10.136300
  H    -105.527000   64.942500   -9.467160
  C    -106.109000   66.501600  -10.748300
  H    -105.834000   66.993700  -11.691100
  H    -107.084000   65.922900  -10.924900
  C    -106.273000   67.572000   -9.594330
  H    -106.495000   67.192800   -8.569860
  H    -105.335000   68.083400   -9.557260
  H    -107.012000   68.254000   -9.872020
  S    -104.493000   61.985200  -15.749300
  C    -103.160000   62.060000  -16.821800
  C    -101.998000   62.505800  -16.202700
  C    -102.254000   62.911600  -14.819100
  C    -103.578000   62.682800  -14.440200
  H    -101.007000   62.489900  -16.642900
  C    -101.220000   63.596900  -13.929900
  H    -101.665000   63.753600  -12.982600
  H    -100.929000   64.627800  -14.348700
  C    -99.917300   62.816600  -13.739300
  H    -99.181100   63.406700  -13.079700
  H    -99.494700   62.683600  -14.693300
  C    -100.240000   61.457100  -13.115400
  H    -100.884000   60.739300  -13.732900
  H    -100.556000   61.462100  -12.047100
  H    -99.289400   60.985200  -13.130500
  H    -106.711000   63.025900  -10.526500
  H    -103.219000   61.818600  -17.812400

 Total Charge           Charge          ....    0
 Multiplicity           Mult            ....    1
 Number of Electrons    NEL             ....  134
 Basis Dimension        Dim             ....  322

ORBITAL ENERGIES
----------------

  NO   OCC          E(Eh)            E(eV)
   0   2.0000     -88.965757     -2420.8813
   1   2.0000     -88.962001     -2420.7791
   2   2.0000     -10.334107      -281.2054
   3   2.0000     -10.325453      -280.9699
   4   2.0000     -10.316478      -280.7257
   5   2.0000     -10.314394      -280.6689
   6   2.0000     -10.308715      -280.5144
   7   2.0000     -10.304960      -280.4122
   8   2.0000     -10.301039      -280.3055
   9   2.0000     -10.299953      -280.2760
  10   2.0000     -10.290960      -280.0313
  11   2.0000     -10.290921      -280.0302
  12   2.0000     -10.289680      -279.9964
  13   2.0000     -10.284973      -279.8683
  14   2.0000     -10.276375      -279.6344
  15   2.0000     -10.275651      -279.6147
  16   2.0000      -8.081410      -219.9063
  17   2.0000      -8.075971      -219.7583
  18   2.0000      -6.039832      -164.3522
  19   2.0000      -6.035698      -164.2397
  20   2.0000      -6.034627      -164.2105
  21   2.0000      -6.032283      -164.1468
  22   2.0000      -6.030844      -164.1076
  23   2.0000      -6.026353      -163.9854
  24   2.0000      -1.004182       -27.3252
  25   2.0000      -0.977820       -26.6078
  26   2.0000      -0.915080       -24.9006
  27   2.0000      -0.911275       -24.7971
  28   2.0000      -0.869173       -23.6514
  29   2.0000      -0.846597       -23.0371
  30   2.0000      -0.837711       -22.7953
  31   2.0000      -0.815635       -22.1946
  32   2.0000      -0.781657       -21.2700
  33   2.0000      -0.769489       -20.9389
  34   2.0000      -0.704608       -19.1734
  35   2.0000      -0.697797       -18.9880
  36   2.0000      -0.693721       -18.8771
  37   2.0000      -0.657328       -17.8868
  38   2.0000      -0.639243       -17.3947
  39   2.0000      -0.618732       -16.8366
  40   2.0000      -0.601571       -16.3696
  41   2.0000      -0.573787       -15.6135
  42   2.0000      -0.557673       -15.1751
  43   2.0000      -0.548906       -14.9365
  44   2.0000      -0.540186       -14.6992
  45   2.0000      -0.524386       -14.2693
  46   2.0000      -0.517547       -14.0832
  47   2.0000      -0.507974       -13.8227
  48   2.0000      -0.504656       -13.7324
  49   2.0000      -0.500645       -13.6232
  50   2.0000      -0.496744       -13.5171
  51   2.0000      -0.473657       -12.8889
  52   2.0000      -0.467458       -12.7202
  53   2.0000      -0.463222       -12.6049
  54   2.0000      -0.460902       -12.5418
  55   2.0000      -0.447849       -12.1866
  56   2.0000      -0.445164       -12.1135
  57   2.0000      -0.438710       -11.9379
  58   2.0000      -0.428589       -11.6625
  59   2.0000      -0.420225       -11.4349
  60   2.0000      -0.417684       -11.3658
  61   2.0000      -0.414625       -11.2825
  62   2.0000      -0.413573       -11.2539
  63   2.0000      -0.352329        -9.5874
  64   2.0000      -0.328424        -8.9369
  65   2.0000      -0.322764        -8.7829
  66   2.0000      -0.289680        -7.8826
  67   0.0000       0.027505         0.7485
  68   0.0000       0.068971         1.8768
  69   0.0000       0.097124         2.6429
  70   0.0000       0.117736         3.2038
  71   0.0000       0.130770         3.5584

MULLIKEN ATOMIC CHARGES
-----------------------
   0 S :    0.084521
   1 C :   -0.109773
   2 C :   -0.131040
   3 C :    0.014027
   4 C :   -0.120059
   5 H :    0.033979
   6 C :    0.107377
   7 H :    0.021797
   8 H :    0.005653
   9 C :   -0.125533
  10 H :    0.037339
  11 H :    0.031377
  12 C :   -0.010675
  13 H :    0.035319
  14 H :    0.021072
  15 H :    0.027520
  16 S :    0.120580
  17 C :   -0.052481
  18 C :   -0.031387
  19 C :   -0.071901
  20 C :   -0.154165
  21 H :    0.024838
  22 C :    0.073029
  23 H :    0.007955
  24 H :    0.044332
  25 C :   -0.077925
  26 H :    0.045237
  27 H :    0.016949
  28 C :   -0.076209
  29 H :    0.058910
  30 H :    0.046812
  31 H :    0.017016
  32 H :    0.057962
  33 H :    0.027547
Sum of atomic charges:    0.0000000

LOEWDIN ATOMIC CHARGES
----------------------
   0 S :    0.367209
   1 C :   -0.202870
   2 C :   -0.056072
   3 C :   -0.066369
   4 C :   -0.166377
   5 H :    0.036486
   6 C :   -0.033675
   7 H :    0.029626
   8 H :    0.024200
   9 C :   -0.039790
  10 H :    0.025569
  11 H :    0.028125
  12 C :   -0.061631
  13 H :    0.029349
  14 H :    0.021537
  15 H :    0.018424
  16 S :    0.431602
  17 C :   -0.175145
  18 C :   -0.069675
  19 C :   -0.045996
  20 C :   -0.214004
  21 H :    0.031370
  22 C :   -0.036820
  23 H :    0.020143
  24 H :    0.037018
  25 C :   -0.038936
  26 H :    0.036200
  27 H :    0.013330
  28 C :   -0.076440
  29 H :    0.038498
  30 H :    0.031412
  31 H :    0.019720
  32 H :    0.032591
  33 H :    0.011391

  Mayer bond orders larger than 0.100000
B(  0-S ,  1-C ) :   1.1236 B(  0-S ,  4-C ) :   1.1226 B(  1-C ,  2-C ) :   1.6366
B(  1-C , 32-H ) :   0.9625 B(  2-C ,  3-C ) :   1.2024 B(  2-C ,  6-C ) :   1.0302
B(  3-C ,  4-C ) :   1.6173 B(  3-C ,  5-H ) :   0.9853 B(  4-C , 20-C ) :   1.0323
B(  6-C ,  7-H ) :   0.9410 B(  6-C ,  8-H ) :   0.9356 B(  6-C ,  9-C ) :   1.0585
B(  9-C , 10-H ) :   0.9587 B(  9-C , 11-H ) :   0.9568 B(  9-C , 12-C ) :   1.0686
B( 12-C , 13-H ) :   0.9769 B( 12-C , 14-H ) :   0.9729 B( 12-C , 15-H ) :   0.9760
B( 16-S , 17-C ) :   1.1763 B( 16-S , 20-C ) :   1.1394 B( 17-C , 18-C ) :   1.5874
B( 17-C , 33-H ) :   0.9799 B( 18-C , 19-C ) :   1.2342 B( 18-C , 21-H ) :   0.9911
B( 19-C , 20-C ) :   1.5933 B( 19-C , 22-C ) :   1.0400 B( 22-C , 23-H ) :   0.9309
B( 22-C , 24-H ) :   0.9353 B( 22-C , 25-C ) :   1.0706 B( 25-C , 26-H ) :   0.9538
B( 25-C , 27-H ) :   0.9552 B( 25-C , 28-C ) :   1.0809 B( 28-C , 29-H ) :   0.9681
B( 28-C , 30-H ) :   0.9744 B( 28-C , 31-H ) :   0.9714

Dispersion correction           -0.014185002
FINAL SINGLE POINT ENERGY     -1339.871073777008

DIPOLE MOMENT
-------------
                                X             Y             Z
Electronic contribution:    -10.64242     -15.96701     -15.14683
Nuclear contribution   :     11.16336      16.43644      15.31103
                        -----------------------------------------
Total Dipole Moment    :      0.52094       0.46944       0.16421
                        -----------------------------------------
Magnitude (a.u.)       :      0.72022
Magnitude (Debye)      :      1.83065

Rotational constants in cm-1:     0.020918     0.007541     0.006618
Rotational constants in MHz :   627.103860   226.069855   198.401833

                             ****ORCA TERMINATED NORMALLY****
TOTAL RUN TIME: 0 days 0 hours 0 minutes 21 seconds 496 msec
