                         Program Version 4.2.1 -  RELEASE  -
|  1> ! wB97X-D3 SP def2-SVP
|  2> %pal
|  3> nprocs 24
|  4> end
|  5>
|  6> * xyz 0 1
|  7> S 	 39.0225 	 -27.6486 	 -123.413
|  8> C 	 38.9495 	 -25.9288 	 -122.832
|  9> C 	 39.4391 	 -25.0368 	 -123.77
| 10> C 	 39.8784 	 -25.7309 	 -124.89
| 11> C 	 39.92 	 -27.1061 	 -124.844
| 12> H 	 40.2089 	 -25.1423 	 -125.779
| 13> C 	 39.4612 	 -23.5734 	 -123.617
| 14> H 	 38.7566 	 -23.284 	 -122.93
| 15> H 	 39.0683 	 -23.218 	 -124.527
| 16> C 	 40.8476 	 -22.9103 	 -123.243
| 17> H 	 41.2654 	 -23.4833 	 -122.416
| 18> H 	 41.5951 	 -23.0712 	 -124.109
| 19> C 	 40.7555 	 -21.403 	 -122.82
| 20> H 	 41.5975 	 -21.2377 	 -122.26
| 21> H 	 40.7996 	 -20.8341 	 -123.762
| 22> H 	 39.852 	 -21.1342 	 -122.279
| 23> S 	 39.3025 	 -29.3606 	 -126.245
| 24> C 	 40.4732 	 -30.0369 	 -127.35
| 25> C 	 41.5757 	 -29.2479 	 -127.457
| 26> C 	 41.5083 	 -28.0758 	 -126.615
| 27> C 	 40.3767 	 -28.0442 	 -125.831
| 28> H 	 42.4584 	 -29.3944 	 -128.11
| 29> C 	 42.6241 	 -27.0863 	 -126.558
| 30> H 	 42.2589 	 -26.1624 	 -126.128
| 31> H 	 42.7275 	 -26.7808 	 -127.634
| 32> C 	 43.9321 	 -27.5189 	 -125.967
| 33> H 	 44.2129 	 -28.4343 	 -126.588
| 34> H 	 43.7558 	 -27.8201 	 -124.95
| 35> C 	 44.9479 	 -26.349 	 -126.15
| 36> H 	 44.933 	 -26.1306 	 -127.189
| 37> H 	 45.9545 	 -26.6706 	 -125.843
| 38> H 	 44.7489 	 -25.4925 	 -125.553
| 39> H 	 38.5984 	 -25.7158 	 -121.881
| 40> H 	 40.2797 	 -30.9765 	 -127.902
| 41> *
| 42>
| 43>                          ****END OF INPUT****

CARTESIAN COORDINATES (ANGSTROEM)
---------------------------------
  S     39.022500  -27.648600  -123.413000
  C     38.949500  -25.928800  -122.832000
  C     39.439100  -25.036800  -123.770000
  C     39.878400  -25.730900  -124.890000
  C     39.920000  -27.106100  -124.844000
  H     40.208900  -25.142300  -125.779000
  C     39.461200  -23.573400  -123.617000
  H     38.756600  -23.284000  -122.930000
  H     39.068300  -23.218000  -124.527000
  C     40.847600  -22.910300  -123.243000
  H     41.265400  -23.483300  -122.416000
  H     41.595100  -23.071200  -124.109000
  C     40.755500  -21.403000  -122.820000
  H     41.597500  -21.237700  -122.260000
  H     40.799600  -20.834100  -123.762000
  H     39.852000  -21.134200  -122.279000
  S     39.302500  -29.360600  -126.245000
  C     40.473200  -30.036900  -127.350000
  C     41.575700  -29.247900  -127.457000
  C     41.508300  -28.075800  -126.615000
  C     40.376700  -28.044200  -125.831000
  H     42.458400  -29.394400  -128.110000
  C     42.624100  -27.086300  -126.558000
  H     42.258900  -26.162400  -126.128000
  H     42.727500  -26.780800  -127.634000
  C     43.932100  -27.518900  -125.967000
  H     44.212900  -28.434300  -126.588000
  H     43.755800  -27.820100  -124.950000
  C     44.947900  -26.349000  -126.150000
  H     44.933000  -26.130600  -127.189000
  H     45.954500  -26.670600  -125.843000
  H     44.748900  -25.492500  -125.553000
  H     38.598400  -25.715800  -121.881000
  H     40.279700  -30.976500  -127.902000

 Total Charge           Charge          ....    0
 Multiplicity           Mult            ....    1
 Number of Electrons    NEL             ....  134
 Basis Dimension        Dim             ....  322

ORBITAL ENERGIES
----------------

  NO   OCC          E(Eh)            E(eV)
   0   2.0000     -88.964222     -2420.8396
   1   2.0000     -88.961686     -2420.7705
   2   2.0000     -10.329477      -281.0793
   3   2.0000     -10.322023      -280.8765
   4   2.0000     -10.318949      -280.7929
   5   2.0000     -10.312796      -280.6254
   6   2.0000     -10.299658      -280.2680
   7   2.0000     -10.298100      -280.2255
   8   2.0000     -10.295884      -280.1652
   9   2.0000     -10.295782      -280.1625
  10   2.0000     -10.291611      -280.0490
  11   2.0000     -10.289283      -279.9856
  12   2.0000     -10.285127      -279.8725
  13   2.0000     -10.283499      -279.8282
  14   2.0000     -10.279056      -279.7073
  15   2.0000     -10.276800      -279.6460
  16   2.0000      -8.077790      -219.8078
  17   2.0000      -8.076961      -219.7853
  18   2.0000      -6.036329      -164.2569
  19   2.0000      -6.035546      -164.2355
  20   2.0000      -6.032623      -164.1560
  21   2.0000      -6.031424      -164.1234
  22   2.0000      -6.028429      -164.0419
  23   2.0000      -6.027570      -164.0185
  24   2.0000      -1.007081       -27.4041
  25   2.0000      -0.983194       -26.7541
  26   2.0000      -0.914561       -24.8865
  27   2.0000      -0.911400       -24.8004
  28   2.0000      -0.869935       -23.6721
  29   2.0000      -0.851596       -23.1731
  30   2.0000      -0.844393       -22.9771
  31   2.0000      -0.815374       -22.1875
  32   2.0000      -0.785980       -21.3876
  33   2.0000      -0.772278       -21.0148
  34   2.0000      -0.709871       -19.3166
  35   2.0000      -0.703441       -19.1416
  36   2.0000      -0.698663       -19.0116
  37   2.0000      -0.661630       -18.0039
  38   2.0000      -0.642713       -17.4891
  39   2.0000      -0.624446       -16.9920
  40   2.0000      -0.599476       -16.3126
  41   2.0000      -0.569072       -15.4852
  42   2.0000      -0.566126       -15.4051
  43   2.0000      -0.554800       -15.0969
  44   2.0000      -0.534549       -14.5458
  45   2.0000      -0.523485       -14.2448
  46   2.0000      -0.520064       -14.1517
  47   2.0000      -0.511300       -13.9132
  48   2.0000      -0.508103       -13.8262
  49   2.0000      -0.497385       -13.5345
  50   2.0000      -0.491879       -13.3847
  51   2.0000      -0.483928       -13.1683
  52   2.0000      -0.470138       -12.7931
  53   2.0000      -0.465217       -12.6592
  54   2.0000      -0.456349       -12.4179
  55   2.0000      -0.450019       -12.2456
  56   2.0000      -0.445053       -12.1105
  57   2.0000      -0.441110       -12.0032
  58   2.0000      -0.438053       -11.9200
  59   2.0000      -0.430500       -11.7145
  60   2.0000      -0.421155       -11.4602
  61   2.0000      -0.416116       -11.3231
  62   2.0000      -0.410245       -11.1633
  63   2.0000      -0.350805        -9.5459
  64   2.0000      -0.331845        -9.0299
  65   2.0000      -0.328437        -8.9372
  66   2.0000      -0.286427        -7.7941
  67   0.0000       0.025667         0.6984
  68   0.0000       0.073623         2.0034
  69   0.0000       0.102227         2.7817
  70   0.0000       0.120156         3.2696
  71   0.0000       0.132763         3.6127

MULLIKEN ATOMIC CHARGES
-----------------------
   0 S :    0.086210
   1 C :   -0.110212
   2 C :   -0.084797
   3 C :    0.004315
   4 C :   -0.141296
   5 H :    0.026204
   6 C :    0.153522
   7 H :   -0.015144
   8 H :    0.010055
   9 C :   -0.129240
  10 H :    0.032318
  11 H :    0.039788
  12 C :   -0.009450
  13 H :    0.024470
  14 H :    0.038628
  15 H :    0.036757
  16 S :    0.095146
  17 C :   -0.094699
  18 C :   -0.027497
  19 C :   -0.057208
  20 C :   -0.135355
  21 H :    0.029804
  22 C :    0.039951
  23 H :   -0.006785
  24 H :    0.023095
  25 C :   -0.061057
  26 H :    0.030768
  27 H :    0.036540
  28 C :   -0.007936
  29 H :    0.021398
  30 H :    0.031891
  31 H :    0.030255
  32 H :    0.018284
  33 H :    0.071277
Sum of atomic charges:   -0.0000000

LOEWDIN ATOMIC CHARGES
----------------------
   0 S :    0.364827
   1 C :   -0.157349
   2 C :   -0.062432
   3 C :   -0.068449
   4 C :   -0.181508
   5 H :    0.034754
   6 C :   -0.024742
   7 H :    0.018961
   8 H :    0.028360
   9 C :   -0.036782
  10 H :    0.021116
  11 H :    0.030231
  12 C :   -0.056791
  13 H :    0.017009
  14 H :    0.031478
  15 H :    0.026611
  16 S :    0.398778
  17 C :   -0.184658
  18 C :   -0.075076
  19 C :   -0.057764
  20 C :   -0.199235
  21 H :    0.036756
  22 C :   -0.043374
  23 H :    0.021838
  24 H :    0.034607
  25 C :   -0.034268
  26 H :    0.029870
  27 H :    0.024507
  28 C :   -0.054703
  29 H :    0.021672
  30 H :    0.027587
  31 H :    0.022409
  32 H :    0.008865
  33 H :    0.036896

  Mayer bond orders larger than 0.100000
B(  0-S ,  1-C ) :   1.1268 B(  0-S ,  4-C ) :   1.1341 B(  1-C ,  2-C ) :   1.5895
B(  1-C ,  4-C ) :   0.1112 B(  1-C , 32-H ) :   0.9798 B(  2-C ,  3-C ) :   1.2661
B(  2-C ,  6-C ) :   1.0330 B(  3-C ,  4-C ) :   1.5649 B(  3-C ,  5-H ) :   0.9751
B(  4-C , 20-C ) :   1.0641 B(  6-C ,  7-H ) :   0.9248 B(  6-C ,  8-H ) :   0.9264
B(  6-C ,  9-C ) :   1.0445 B(  9-C , 10-H ) :   0.9635 B(  9-C , 11-H ) :   0.9584
B(  9-C , 12-C ) :   1.0681 B( 12-C , 13-H ) :   0.9768 B( 12-C , 14-H ) :   0.9778
B( 12-C , 15-H ) :   0.9774 B( 16-S , 17-C ) :   1.1444 B( 16-S , 20-C ) :   1.1275
B( 17-C , 18-C ) :   1.6071 B( 17-C , 33-H ) :   0.9652 B( 18-C , 19-C ) :   1.2311
B( 18-C , 21-H ) :   0.9848 B( 19-C , 20-C ) :   1.6140 B( 19-C , 22-C ) :   1.0505
B( 22-C , 23-H ) :   0.9256 B( 22-C , 24-H ) :   0.9222 B( 22-C , 25-C ) :   1.0646
B( 25-C , 26-H ) :   0.9530 B( 25-C , 27-H ) :   0.9544 B( 25-C , 28-C ) :   1.0710
B( 28-C , 29-H ) :   0.9744 B( 28-C , 30-H ) :   0.9750 B( 28-C , 31-H ) :   0.9763

Dispersion correction           -0.013624357
FINAL SINGLE POINT ENERGY     -1339.874880609808

DIPOLE MOMENT
-------------
                                X             Y             Z
Electronic contribution:    -20.13346     -24.88563      -1.08579
Nuclear contribution   :     20.58674      25.53614       0.96169
                        -----------------------------------------
Total Dipole Moment    :      0.45328       0.65051      -0.12410
                        -----------------------------------------
Magnitude (a.u.)       :      0.80251
Magnitude (Debye)      :      2.03982

Rotational constants in cm-1:     0.017413     0.008854     0.006332
Rotational constants in MHz :   522.039870   265.442439   189.833156

                             ****ORCA TERMINATED NORMALLY****
TOTAL RUN TIME: 0 days 0 hours 0 minutes 21 seconds 321 msec
