                         Program Version 4.2.1 -  RELEASE  -
|  1> ! wB97X-D3 SP def2-SVP
|  2> %pal
|  3> nprocs 24
|  4> end
|  5>
|  6> * xyz 0 1
|  7> S 	 -129.61 	 70.3434 	 -43.4753
|  8> C 	 -130.893 	 71.1126 	 -42.6091
|  9> C 	 -130.383 	 72.042 	 -41.7543
| 10> C 	 -128.924 	 72.1911 	 -41.8269
| 11> C 	 -128.356 	 71.2978 	 -42.6737
| 12> H 	 -128.361 	 72.9177 	 -41.2837
| 13> C 	 -131.229 	 72.9451 	 -40.8702
| 14> H 	 -132.166 	 73.0222 	 -41.3999
| 15> H 	 -130.694 	 73.9112 	 -40.9628
| 16> C 	 -131.46 	 72.5605 	 -39.4418
| 17> H 	 -132.013 	 71.6336 	 -39.5097
| 18> H 	 -130.505 	 72.3164 	 -38.946
| 19> C 	 -132.291 	 73.6336 	 -38.7399
| 20> H 	 -133.003 	 74.1249 	 -39.3291
| 21> H 	 -132.698 	 73.3803 	 -37.7767
| 22> H 	 -131.534 	 74.4383 	 -38.5057
| 23> S 	 -125.812 	 71.2443 	 -41.5504
| 24> C 	 -124.403 	 71.0445 	 -42.5592
| 25> C 	 -124.812 	 70.9036 	 -43.8611
| 26> C 	 -126.177 	 71.1562 	 -44.1411
| 27> C 	 -126.928 	 71.3011 	 -42.9653
| 28> H 	 -124.012 	 70.738 	 -44.6086
| 29> C 	 -126.743 	 71.1531 	 -45.5602
| 30> H 	 -126.394 	 72.0604 	 -45.9619
| 31> H 	 -127.809 	 71.3193 	 -45.5097
| 32> C 	 -126.395 	 69.9528 	 -46.3502
| 33> H 	 -126.756 	 69.0637 	 -45.8467
| 34> H 	 -125.211 	 69.8777 	 -46.358
| 35> C 	 -126.943 	 70.0206 	 -47.7554
| 36> H 	 -126.687 	 70.9573 	 -48.2381
| 37> H 	 -128 	 69.8373 	 -47.6206
| 38> H 	 -126.48 	 69.2016 	 -48.3891
| 39> H 	 -131.918 	 70.9028 	 -42.7141
| 40> H 	 -123.363 	 70.8778 	 -42.2566
| 41> *
| 42>
| 43>                          ****END OF INPUT****

CARTESIAN COORDINATES (ANGSTROEM)
---------------------------------
  S    -129.610000   70.343400  -43.475300
  C    -130.893000   71.112600  -42.609100
  C    -130.383000   72.042000  -41.754300
  C    -128.924000   72.191100  -41.826900
  C    -128.356000   71.297800  -42.673700
  H    -128.361000   72.917700  -41.283700
  C    -131.229000   72.945100  -40.870200
  H    -132.166000   73.022200  -41.399900
  H    -130.694000   73.911200  -40.962800
  C    -131.460000   72.560500  -39.441800
  H    -132.013000   71.633600  -39.509700
  H    -130.505000   72.316400  -38.946000
  C    -132.291000   73.633600  -38.739900
  H    -133.003000   74.124900  -39.329100
  H    -132.698000   73.380300  -37.776700
  H    -131.534000   74.438300  -38.505700
  S    -125.812000   71.244300  -41.550400
  C    -124.403000   71.044500  -42.559200
  C    -124.812000   70.903600  -43.861100
  C    -126.177000   71.156200  -44.141100
  C    -126.928000   71.301100  -42.965300
  H    -124.012000   70.738000  -44.608600
  C    -126.743000   71.153100  -45.560200
  H    -126.394000   72.060400  -45.961900
  H    -127.809000   71.319300  -45.509700
  C    -126.395000   69.952800  -46.350200
  H    -126.756000   69.063700  -45.846700
  H    -125.211000   69.877700  -46.358000
  C    -126.943000   70.020600  -47.755400
  H    -126.687000   70.957300  -48.238100
  H    -128.000000   69.837300  -47.620600
  H    -126.480000   69.201600  -48.389100
  H    -131.918000   70.902800  -42.714100
  H    -123.363000   70.877800  -42.256600

 Total Charge           Charge          ....    0
 Multiplicity           Mult            ....    1
 Number of Electrons    NEL             ....  134
 Basis Dimension        Dim             ....  322

ORBITAL ENERGIES
----------------

  NO   OCC          E(Eh)            E(eV)
   0   2.0000     -88.966719     -2420.9075
   1   2.0000     -88.964346     -2420.8429
   2   2.0000     -10.331330      -281.1298
   3   2.0000     -10.330362      -281.1034
   4   2.0000     -10.317825      -280.7623
   5   2.0000     -10.309935      -280.5476
   6   2.0000     -10.304350      -280.3956
   7   2.0000     -10.299831      -280.2727
   8   2.0000     -10.292317      -280.0682
   9   2.0000     -10.292308      -280.0679
  10   2.0000     -10.287806      -279.9454
  11   2.0000     -10.287619      -279.9403
  12   2.0000     -10.284978      -279.8685
  13   2.0000     -10.281753      -279.7807
  14   2.0000     -10.278776      -279.6997
  15   2.0000     -10.276407      -279.6352
  16   2.0000      -8.081234      -219.9015
  17   2.0000      -8.078261      -219.8207
  18   2.0000      -6.040023      -164.3574
  19   2.0000      -6.036892      -164.2722
  20   2.0000      -6.035708      -164.2400
  21   2.0000      -6.032832      -164.1617
  22   2.0000      -6.031783      -164.1332
  23   2.0000      -6.028981      -164.0569
  24   2.0000      -1.005666       -27.3656
  25   2.0000      -0.984159       -26.7803
  26   2.0000      -0.917608       -24.9694
  27   2.0000      -0.916382       -24.9360
  28   2.0000      -0.875557       -23.8251
  29   2.0000      -0.851463       -23.1695
  30   2.0000      -0.845581       -23.0094
  31   2.0000      -0.815074       -22.1793
  32   2.0000      -0.782149       -21.2834
  33   2.0000      -0.771554       -20.9951
  34   2.0000      -0.706872       -19.2350
  35   2.0000      -0.703362       -19.1395
  36   2.0000      -0.694374       -18.8949
  37   2.0000      -0.659853       -17.9555
  38   2.0000      -0.641071       -17.4444
  39   2.0000      -0.614855       -16.7310
  40   2.0000      -0.596635       -16.2353
  41   2.0000      -0.572780       -15.5861
  42   2.0000      -0.568580       -15.4718
  43   2.0000      -0.565157       -15.3787
  44   2.0000      -0.529907       -14.4195
  45   2.0000      -0.526274       -14.3206
  46   2.0000      -0.518970       -14.1219
  47   2.0000      -0.516070       -14.0430
  48   2.0000      -0.508656       -13.8412
  49   2.0000      -0.502966       -13.6864
  50   2.0000      -0.497099       -13.5267
  51   2.0000      -0.477672       -12.9981
  52   2.0000      -0.472452       -12.8561
  53   2.0000      -0.465100       -12.6560
  54   2.0000      -0.463211       -12.6046
  55   2.0000      -0.447545       -12.1783
  56   2.0000      -0.442348       -12.0369
  57   2.0000      -0.440915       -11.9979
  58   2.0000      -0.438319       -11.9273
  59   2.0000      -0.420846       -11.4518
  60   2.0000      -0.412581       -11.2269
  61   2.0000      -0.409897       -11.1539
  62   2.0000      -0.407211       -11.0808
  63   2.0000      -0.355095        -9.6626
  64   2.0000      -0.330501        -8.9934
  65   2.0000      -0.326148        -8.8749
  66   2.0000      -0.293449        -7.9852
  67   0.0000       0.027845         0.7577
  68   0.0000       0.076573         2.0837
  69   0.0000       0.111071         3.0224
  70   0.0000       0.114700         3.1211
  71   0.0000       0.136310         3.7092

MULLIKEN ATOMIC CHARGES
-----------------------
   0 S :    0.103312
   1 C :   -0.103978
   2 C :   -0.089400
   3 C :    0.010925
   4 C :   -0.098991
   5 H :    0.011423
   6 C :    0.030027
   7 H :    0.013933
   8 H :    0.023735
   9 C :   -0.032669
  10 H :    0.017370
  11 H :    0.034845
  12 C :   -0.020569
  13 H :    0.020223
  14 H :    0.034320
  15 H :    0.024299
  16 S :    0.090977
  17 C :   -0.089294
  18 C :   -0.069979
  19 C :   -0.043042
  20 C :   -0.168718
  21 H :    0.030518
  22 C :    0.128072
  23 H :    0.013720
  24 H :    0.003168
  25 C :   -0.128613
  26 H :    0.033791
  27 H :    0.035769
  28 C :   -0.024380
  29 H :    0.031114
  30 H :    0.038839
  31 H :    0.041857
  32 H :    0.031345
  33 H :    0.066054
Sum of atomic charges:    0.0000000

LOEWDIN ATOMIC CHARGES
----------------------
   0 S :    0.402762
   1 C :   -0.195636
   2 C :   -0.059944
   3 C :   -0.059147
   4 C :   -0.187415
   5 H :    0.026968
   6 C :   -0.034921
   7 H :    0.026694
   8 H :    0.030756
   9 C :   -0.040109
  10 H :    0.020975
  11 H :    0.028587
  12 C :   -0.061710
  13 H :    0.017599
  14 H :    0.024240
  15 H :    0.033893
  16 S :    0.388627
  17 C :   -0.191062
  18 C :   -0.080640
  19 C :   -0.051871
  20 C :   -0.178881
  21 H :    0.033650
  22 C :   -0.031791
  23 H :    0.027915
  24 H :    0.019755
  25 C :   -0.046940
  26 H :    0.025030
  27 H :    0.028299
  28 C :   -0.063768
  29 H :    0.023669
  30 H :    0.028123
  31 H :    0.034147
  32 H :    0.023241
  33 H :    0.038907

  Mayer bond orders larger than 0.100000
B(  0-S ,  1-C ) :   1.1210 B(  0-S ,  4-C ) :   1.1252 B(  1-C ,  2-C ) :   1.6398
B(  1-C , 32-H ) :   0.9755 B(  2-C ,  3-C ) :   1.2135 B(  2-C ,  6-C ) :   1.0152
B(  3-C ,  4-C ) :   1.5743 B(  3-C ,  5-H ) :   1.0001 B(  4-C , 20-C ) :   1.0549
B(  6-C ,  7-H ) :   0.9384 B(  6-C ,  8-H ) :   0.9414 B(  6-C ,  9-C ) :   1.0690
B(  9-C , 10-H ) :   0.9493 B(  9-C , 11-H ) :   0.9573 B(  9-C , 12-C ) :   1.0723
B( 12-C , 13-H ) :   0.9747 B( 12-C , 14-H ) :   0.9752 B( 12-C , 15-H ) :   0.9728
B( 16-S , 17-C ) :   1.1468 B( 16-S , 20-C ) :   1.1326 B( 17-C , 18-C ) :   1.6220
B( 17-C , 20-C ) :   0.1013 B( 17-C , 33-H ) :   0.9628 B( 18-C , 19-C ) :   1.2443
B( 18-C , 21-H ) :   0.9781 B( 19-C , 20-C ) :   1.5764 B( 19-C , 22-C ) :   1.0309
B( 22-C , 23-H ) :   0.9161 B( 22-C , 24-H ) :   0.9270 B( 22-C , 25-C ) :   1.0671
B( 25-C , 26-H ) :   0.9563 B( 25-C , 27-H ) :   0.9476 B( 25-C , 28-C ) :   1.0828
B( 28-C , 29-H ) :   0.9730 B( 28-C , 30-H ) :   0.9735 B( 28-C , 31-H ) :   0.9727

Dispersion correction           -0.013580917
FINAL SINGLE POINT ENERGY     -1339.881365045162

DIPOLE MOMENT
-------------
                                X             Y             Z
Electronic contribution:      9.80718      -5.72528       3.76158
Nuclear contribution   :     -9.92554       5.94645      -3.90643
                        -----------------------------------------
Total Dipole Moment    :     -0.11835       0.22117      -0.14485
                        -----------------------------------------
Magnitude (a.u.)       :      0.28966
Magnitude (Debye)      :      0.73627

Rotational constants in cm-1:     0.022957     0.007252     0.005776
Rotational constants in MHz :   688.222633   217.406450   173.149608

                             ****ORCA TERMINATED NORMALLY****
TOTAL RUN TIME: 0 days 0 hours 0 minutes 19 seconds 637 msec
