                         Program Version 4.2.1 -  RELEASE  -
|  1> ! wB97X-D3 SP def2-SVP
|  2> %pal
|  3> nprocs 24
|  4> end
|  5>
|  6> * xyz 0 1
|  7> S 	 16.222 	 -10.8465 	 -121.562
|  8> C 	 14.5162 	 -10.3494 	 -121.774
|  9> C 	 13.7718 	 -11.3803 	 -122.358
| 10> C 	 14.6736 	 -12.4739 	 -122.794
| 11> C 	 15.942 	 -12.3937 	 -122.265
| 12> H 	 14.3568 	 -13.3269 	 -123.279
| 13> C 	 12.2051 	 -11.3084 	 -122.55
| 14> H 	 11.7827 	 -10.9051 	 -121.598
| 15> H 	 11.7925 	 -12.3429 	 -122.683
| 16> C 	 11.6891 	 -10.4113 	 -123.672
| 17> H 	 12.1583 	 -9.44792 	 -123.463
| 18> H 	 12.1058 	 -10.6648 	 -124.646
| 19> C 	 10.185 	 -10.2079 	 -123.61
| 20> H 	 9.60555 	 -11.0561 	 -123.998
| 21> H 	 9.89621 	 -9.87927 	 -122.674
| 22> H 	 9.95801 	 -9.42386 	 -124.239
| 23> S 	 18.2651 	 -13.2199 	 -123.431
| 24> C 	 18.9231 	 -14.786 	 -123.005
| 25> C 	 18.2066 	 -15.4231 	 -122.041
| 26> C 	 17.0695 	 -14.6147 	 -121.573
| 27> C 	 16.9713 	 -13.4097 	 -122.27
| 28> H 	 18.3473 	 -16.502 	 -121.606
| 29> C 	 16.0566 	 -15.2215 	 -120.541
| 30> H 	 15.1725 	 -14.5676 	 -120.615
| 31> H 	 16.4588 	 -15.0861 	 -119.553
| 32> C 	 15.693 	 -16.7263 	 -120.715
| 33> H 	 15.0254 	 -16.9089 	 -119.852
| 34> H 	 16.6513 	 -17.2496 	 -120.593
| 35> C 	 15.0102 	 -17.0804 	 -122.055
| 36> H 	 14.5899 	 -16.1852 	 -122.551
| 37> H 	 14.1971 	 -17.8347 	 -122.012
| 38> H 	 15.7523 	 -17.4682 	 -122.756
| 39> H 	 14.1589 	 -9.42914 	 -121.402
| 40> H 	 19.6535 	 -15.2511 	 -123.623
| 41> *
| 42>
| 43>                          ****END OF INPUT****

CARTESIAN COORDINATES (ANGSTROEM)
---------------------------------
  S     16.222000  -10.846500  -121.562000
  C     14.516200  -10.349400  -121.774000
  C     13.771800  -11.380300  -122.358000
  C     14.673600  -12.473900  -122.794000
  C     15.942000  -12.393700  -122.265000
  H     14.356800  -13.326900  -123.279000
  C     12.205100  -11.308400  -122.550000
  H     11.782700  -10.905100  -121.598000
  H     11.792500  -12.342900  -122.683000
  C     11.689100  -10.411300  -123.672000
  H     12.158300   -9.447920  -123.463000
  H     12.105800  -10.664800  -124.646000
  C     10.185000  -10.207900  -123.610000
  H      9.605550  -11.056100  -123.998000
  H      9.896210   -9.879270  -122.674000
  H      9.958010   -9.423860  -124.239000
  S     18.265100  -13.219900  -123.431000
  C     18.923100  -14.786000  -123.005000
  C     18.206600  -15.423100  -122.041000
  C     17.069500  -14.614700  -121.573000
  C     16.971300  -13.409700  -122.270000
  H     18.347300  -16.502000  -121.606000
  C     16.056600  -15.221500  -120.541000
  H     15.172500  -14.567600  -120.615000
  H     16.458800  -15.086100  -119.553000
  C     15.693000  -16.726300  -120.715000
  H     15.025400  -16.908900  -119.852000
  H     16.651300  -17.249600  -120.593000
  C     15.010200  -17.080400  -122.055000
  H     14.589900  -16.185200  -122.551000
  H     14.197100  -17.834700  -122.012000
  H     15.752300  -17.468200  -122.756000
  H     14.158900   -9.429140  -121.402000
  H     19.653500  -15.251100  -123.623000

 Total Charge           Charge          ....    0
 Multiplicity           Mult            ....    1
 Number of Electrons    NEL             ....  134
 Basis Dimension        Dim             ....  322

ORBITAL ENERGIES
----------------

  NO   OCC          E(Eh)            E(eV)
   0   2.0000     -88.963682     -2420.8249
   1   2.0000     -88.962151     -2420.7832
   2   2.0000     -10.325942      -280.9832
   3   2.0000     -10.325713      -280.9769
   4   2.0000     -10.316277      -280.7202
   5   2.0000     -10.316271      -280.7200
   6   2.0000     -10.312846      -280.6268
   7   2.0000     -10.309301      -280.5303
   8   2.0000     -10.304036      -280.3871
   9   2.0000     -10.302686      -280.3504
  10   2.0000     -10.295291      -280.1491
  11   2.0000     -10.294440      -280.1260
  12   2.0000     -10.293546      -280.1016
  13   2.0000     -10.284760      -279.8625
  14   2.0000     -10.282128      -279.7909
  15   2.0000     -10.268753      -279.4270
  16   2.0000      -8.078813      -219.8357
  17   2.0000      -8.077041      -219.7875
  18   2.0000      -6.037386      -164.2856
  19   2.0000      -6.035621      -164.2376
  20   2.0000      -6.033246      -164.1730
  21   2.0000      -6.031453      -164.1242
  22   2.0000      -6.029497      -164.0710
  23   2.0000      -6.027791      -164.0245
  24   2.0000      -1.003420       -27.3045
  25   2.0000      -0.977494       -26.5990
  26   2.0000      -0.910831       -24.7850
  27   2.0000      -0.902343       -24.5540
  28   2.0000      -0.870655       -23.6917
  29   2.0000      -0.843481       -22.9523
  30   2.0000      -0.839538       -22.8450
  31   2.0000      -0.814381       -22.1604
  32   2.0000      -0.784787       -21.3551
  33   2.0000      -0.774444       -21.0737
  34   2.0000      -0.704281       -19.1645
  35   2.0000      -0.700040       -19.0490
  36   2.0000      -0.693423       -18.8690
  37   2.0000      -0.651577       -17.7303
  38   2.0000      -0.648566       -17.6484
  39   2.0000      -0.614001       -16.7078
  40   2.0000      -0.598135       -16.2761
  41   2.0000      -0.569659       -15.5012
  42   2.0000      -0.559706       -15.2304
  43   2.0000      -0.549208       -14.9447
  44   2.0000      -0.537225       -14.6186
  45   2.0000      -0.523354       -14.2412
  46   2.0000      -0.515590       -14.0299
  47   2.0000      -0.510643       -13.8953
  48   2.0000      -0.505946       -13.7675
  49   2.0000      -0.498273       -13.5587
  50   2.0000      -0.491916       -13.3857
  51   2.0000      -0.476460       -12.9651
  52   2.0000      -0.470277       -12.7969
  53   2.0000      -0.461038       -12.5455
  54   2.0000      -0.459478       -12.5030
  55   2.0000      -0.450306       -12.2534
  56   2.0000      -0.446222       -12.1423
  57   2.0000      -0.440680       -11.9915
  58   2.0000      -0.437836       -11.9141
  59   2.0000      -0.422368       -11.4932
  60   2.0000      -0.419497       -11.4151
  61   2.0000      -0.413790       -11.2598
  62   2.0000      -0.411207       -11.1895
  63   2.0000      -0.336675        -9.1614
  64   2.0000      -0.327437        -8.9100
  65   2.0000      -0.323362        -8.7991
  66   2.0000      -0.308029        -8.3819
  67   0.0000       0.045775         1.2456
  68   0.0000       0.055957         1.5227
  69   0.0000       0.115383         3.1397
  70   0.0000       0.116421         3.1680
  71   0.0000       0.125527         3.4158

MULLIKEN ATOMIC CHARGES
-----------------------
   0 S :    0.106156
   1 C :   -0.112631
   2 C :   -0.092246
   3 C :    0.090372
   4 C :   -0.175823
   5 H :   -0.021267
   6 C :    0.031588
   7 H :    0.031592
   8 H :    0.030572
   9 C :   -0.081488
  10 H :    0.013324
  11 H :    0.029215
  12 C :    0.030454
  13 H :    0.036453
  14 H :    0.007923
  15 H :    0.009009
  16 S :    0.109476
  17 C :   -0.076169
  18 C :   -0.060609
  19 C :   -0.039319
  20 C :   -0.187437
  21 H :    0.056768
  22 C :    0.063105
  23 H :    0.032619
  24 H :    0.035920
  25 C :   -0.091329
  26 H :    0.043847
  27 H :    0.034039
  28 C :   -0.054632
  29 H :    0.034196
  30 H :    0.041802
  31 H :    0.033443
  32 H :    0.038236
  33 H :    0.052843
Sum of atomic charges:   -0.0000000

LOEWDIN ATOMIC CHARGES
----------------------
   0 S :    0.399607
   1 C :   -0.180213
   2 C :   -0.053685
   3 C :   -0.052404
   4 C :   -0.206848
   5 H :    0.015326
   6 C :   -0.034191
   7 H :    0.033868
   8 H :    0.029819
   9 C :   -0.042131
  10 H :    0.022530
  11 H :    0.024061
  12 C :   -0.051336
  13 H :    0.029898
  14 H :    0.016788
  15 H :    0.020552
  16 S :    0.405171
  17 C :   -0.178709
  18 C :   -0.084278
  19 C :   -0.049557
  20 C :   -0.211269
  21 H :    0.049323
  22 C :   -0.029039
  23 H :    0.030267
  24 H :    0.031606
  25 C :   -0.042226
  26 H :    0.032212
  27 H :    0.021536
  28 C :   -0.074220
  29 H :    0.028305
  30 H :    0.029991
  31 H :    0.028426
  32 H :    0.016895
  33 H :    0.023923

  Mayer bond orders larger than 0.100000
B(  0-S ,  1-C ) :   1.1295 B(  0-S ,  4-C ) :   1.1575 B(  1-C ,  2-C ) :   1.6226
B(  1-C , 32-H ) :   0.9778 B(  2-C ,  3-C ) :   1.2128 B(  2-C ,  6-C ) :   1.0116
B(  3-C ,  4-C ) :   1.6023 B(  3-C ,  5-H ) :   1.0031 B(  4-C , 20-C ) :   1.0018
B(  6-C ,  7-H ) :   0.9448 B(  6-C ,  8-H ) :   0.9462 B(  6-C ,  9-C ) :   1.0653
B(  9-C , 10-H ) :   0.9527 B(  9-C , 11-H ) :   0.9552 B(  9-C , 12-C ) :   1.0873
B( 12-C , 13-H ) :   0.9741 B( 12-C , 14-H ) :   0.9680 B( 12-C , 15-H ) :   0.9672
B( 16-S , 17-C ) :   1.1474 B( 16-S , 20-C ) :   1.1434 B( 17-C , 18-C ) :   1.6362
B( 17-C , 33-H ) :   0.9688 B( 18-C , 19-C ) :   1.2235 B( 18-C , 21-H ) :   0.9647
B( 19-C , 20-C ) :   1.6367 B( 19-C , 22-C ) :   1.0204 B( 22-C , 23-H ) :   0.9384
B( 22-C , 24-H ) :   0.9346 B( 22-C , 25-C ) :   1.0815 B( 25-C , 26-H ) :   0.9565
B( 25-C , 27-H ) :   0.9567 B( 25-C , 28-C ) :   1.0562 B( 28-C , 29-H ) :   0.9799
B( 28-C , 30-H ) :   0.9780 B( 28-C , 31-H ) :   0.9729

Dispersion correction           -0.014198115
FINAL SINGLE POINT ENERGY     -1339.872532832441

DIPOLE MOMENT
-------------
                                X             Y             Z
Electronic contribution:     25.85918       9.07701      -0.25854
Nuclear contribution   :    -26.49605      -9.46026       0.29320
                        -----------------------------------------
Total Dipole Moment    :     -0.63686      -0.38324       0.03466
                        -----------------------------------------
Magnitude (a.u.)       :      0.74409
Magnitude (Debye)      :      1.89132

Rotational constants in cm-1:     0.020162     0.007511     0.006245
Rotational constants in MHz :   604.452256   225.168271   187.213416

                             ****ORCA TERMINATED NORMALLY****
TOTAL RUN TIME: 0 days 0 hours 0 minutes 21 seconds 56 msec
