                         Program Version 4.2.1 -  RELEASE  -
|  1> ! wB97X-D3 SP def2-SVP
|  2> %pal
|  3> nprocs 24
|  4> end
|  5>
|  6> * xyz 0 1
|  7> S 	 -47.2955 	 19.57 	 29.427
|  8> C 	 -46.0052 	 19.9025 	 28.2813
|  9> C 	 -45.1906 	 18.7603 	 28.0638
| 10> C 	 -45.7062 	 17.6502 	 28.9263
| 11> C 	 -46.8822 	 17.8829 	 29.6327
| 12> H 	 -45.2467 	 16.7113 	 29.0827
| 13> C 	 -43.9802 	 18.6921 	 27.1367
| 14> H 	 -43.5138 	 17.7451 	 27.2824
| 15> H 	 -43.2848 	 19.5181 	 27.4453
| 16> C 	 -44.4395 	 18.7347 	 25.6186
| 17> H 	 -44.8751 	 19.7286 	 25.5695
| 18> H 	 -43.566 	 18.6452 	 24.9203
| 19> C 	 -45.4327 	 17.6149 	 25.2651
| 20> H 	 -46.0627 	 17.808 	 24.4162
| 21> H 	 -44.9388 	 16.7017 	 25.0563
| 22> H 	 -46.2269 	 17.353 	 25.9953
| 23> S 	 -47.8543 	 17.525 	 32.1806
| 24> C 	 -48.4579 	 15.9525 	 32.6541
| 25> C 	 -48.6841 	 15.1698 	 31.5196
| 26> C 	 -48.0633 	 15.7098 	 30.34
| 27> C 	 -47.5627 	 17.0041 	 30.5183
| 28> H 	 -49.2193 	 14.1731 	 31.6074
| 29> C 	 -48.0136 	 14.8592 	 29.0768
| 30> H 	 -47.7675 	 15.4028 	 28.2026
| 31> H 	 -49.0227 	 14.501 	 28.8943
| 32> C 	 -47.1434 	 13.6299 	 29.1811
| 33> H 	 -47.4966 	 12.9251 	 28.3953
| 34> H 	 -47.2147 	 13.2168 	 30.1275
| 35> C 	 -45.6429 	 13.8237 	 29.143
| 36> H 	 -45.2374 	 14.4263 	 28.2952
| 37> H 	 -45.0665 	 12.8497 	 29.1237
| 38> H 	 -45.2633 	 14.413 	 29.9415
| 39> H 	 -45.8106 	 20.8595 	 27.8668
| 40> H 	 -48.7131 	 15.682 	 33.7153
| 41> *
| 42>
| 43>                          ****END OF INPUT****

CARTESIAN COORDINATES (ANGSTROEM)
---------------------------------
  S    -47.295500   19.570000   29.427000
  C    -46.005200   19.902500   28.281300
  C    -45.190600   18.760300   28.063800
  C    -45.706200   17.650200   28.926300
  C    -46.882200   17.882900   29.632700
  H    -45.246700   16.711300   29.082700
  C    -43.980200   18.692100   27.136700
  H    -43.513800   17.745100   27.282400
  H    -43.284800   19.518100   27.445300
  C    -44.439500   18.734700   25.618600
  H    -44.875100   19.728600   25.569500
  H    -43.566000   18.645200   24.920300
  C    -45.432700   17.614900   25.265100
  H    -46.062700   17.808000   24.416200
  H    -44.938800   16.701700   25.056300
  H    -46.226900   17.353000   25.995300
  S    -47.854300   17.525000   32.180600
  C    -48.457900   15.952500   32.654100
  C    -48.684100   15.169800   31.519600
  C    -48.063300   15.709800   30.340000
  C    -47.562700   17.004100   30.518300
  H    -49.219300   14.173100   31.607400
  C    -48.013600   14.859200   29.076800
  H    -47.767500   15.402800   28.202600
  H    -49.022700   14.501000   28.894300
  C    -47.143400   13.629900   29.181100
  H    -47.496600   12.925100   28.395300
  H    -47.214700   13.216800   30.127500
  C    -45.642900   13.823700   29.143000
  H    -45.237400   14.426300   28.295200
  H    -45.066500   12.849700   29.123700
  H    -45.263300   14.413000   29.941500
  H    -45.810600   20.859500   27.866800
  H    -48.713100   15.682000   33.715300

 Total Charge           Charge          ....    0
 Multiplicity           Mult            ....    1
 Number of Electrons    NEL             ....  134
 Basis Dimension        Dim             ....  322

ORBITAL ENERGIES
----------------

  NO   OCC          E(Eh)            E(eV)
   0   2.0000     -88.966095     -2420.8905
   1   2.0000     -88.964099     -2420.8362
   2   2.0000     -10.329337      -281.0755
   3   2.0000     -10.328480      -281.0522
   4   2.0000     -10.327572      -281.0275
   5   2.0000     -10.316881      -280.7366
   6   2.0000     -10.312613      -280.6205
   7   2.0000     -10.309973      -280.5486
   8   2.0000     -10.304476      -280.3990
   9   2.0000     -10.299043      -280.2512
  10   2.0000     -10.296545      -280.1832
  11   2.0000     -10.296325      -280.1773
  12   2.0000     -10.287544      -279.9383
  13   2.0000     -10.281460      -279.7727
  14   2.0000     -10.278313      -279.6871
  15   2.0000     -10.272210      -279.5211
  16   2.0000      -8.080742      -219.8882
  17   2.0000      -8.078666      -219.8317
  18   2.0000      -6.039267      -164.3368
  19   2.0000      -6.037263      -164.2823
  20   2.0000      -6.035267      -164.2280
  21   2.0000      -6.033100      -164.1690
  22   2.0000      -6.031466      -164.1245
  23   2.0000      -6.029428      -164.0691
  24   2.0000      -1.004021       -27.3208
  25   2.0000      -0.977131       -26.5891
  26   2.0000      -0.916003       -24.9257
  27   2.0000      -0.906934       -24.6789
  28   2.0000      -0.869035       -23.6476
  29   2.0000      -0.849005       -23.1026
  30   2.0000      -0.837060       -22.7776
  31   2.0000      -0.812165       -22.1001
  32   2.0000      -0.785862       -21.3844
  33   2.0000      -0.774934       -21.0870
  34   2.0000      -0.707124       -19.2418
  35   2.0000      -0.704986       -19.1836
  36   2.0000      -0.694374       -18.8949
  37   2.0000      -0.657156       -17.8821
  38   2.0000      -0.642091       -17.4722
  39   2.0000      -0.614065       -16.7095
  40   2.0000      -0.597385       -16.2557
  41   2.0000      -0.573676       -15.6105
  42   2.0000      -0.553656       -15.0657
  43   2.0000      -0.548056       -14.9134
  44   2.0000      -0.543190       -14.7809
  45   2.0000      -0.533338       -14.5129
  46   2.0000      -0.523944       -14.2572
  47   2.0000      -0.510152       -13.8819
  48   2.0000      -0.505279       -13.7493
  49   2.0000      -0.499846       -13.6015
  50   2.0000      -0.492468       -13.4007
  51   2.0000      -0.474503       -12.9119
  52   2.0000      -0.467331       -12.7167
  53   2.0000      -0.465138       -12.6570
  54   2.0000      -0.457962       -12.4618
  55   2.0000      -0.445418       -12.1204
  56   2.0000      -0.442752       -12.0479
  57   2.0000      -0.438157       -11.9229
  58   2.0000      -0.437121       -11.8947
  59   2.0000      -0.421867       -11.4796
  60   2.0000      -0.418720       -11.3940
  61   2.0000      -0.415325       -11.3016
  62   2.0000      -0.411105       -11.1867
  63   2.0000      -0.348111        -9.4726
  64   2.0000      -0.329925        -8.9777
  65   2.0000      -0.323087        -8.7916
  66   2.0000      -0.291450        -7.9307
  67   0.0000       0.029060         0.7908
  68   0.0000       0.062179         1.6920
  69   0.0000       0.111846         3.0435
  70   0.0000       0.115945         3.1550
  71   0.0000       0.124052         3.3756

MULLIKEN ATOMIC CHARGES
-----------------------
   0 S :    0.104618
   1 C :   -0.112075
   2 C :   -0.123064
   3 C :    0.049161
   4 C :   -0.156904
   5 H :   -0.028777
   6 C :    0.073926
   7 H :    0.013356
   8 H :    0.055758
   9 C :   -0.066928
  10 H :    0.028904
  11 H :    0.046633
  12 C :   -0.056473
  13 H :    0.025732
  14 H :    0.020717
  15 H :    0.043566
  16 S :    0.107884
  17 C :   -0.120781
  18 C :   -0.053485
  19 C :   -0.052254
  20 C :   -0.147063
  21 H :    0.050539
  22 C :    0.109662
  23 H :    0.013387
  24 H :    0.022368
  25 C :   -0.040107
  26 H :    0.037795
  27 H :    0.012369
  28 C :   -0.086996
  29 H :    0.022006
  30 H :    0.043711
  31 H :    0.036339
  32 H :    0.042916
  33 H :    0.083561
Sum of atomic charges:   -0.0000000

LOEWDIN ATOMIC CHARGES
----------------------
   0 S :    0.401263
   1 C :   -0.194136
   2 C :   -0.054451
   3 C :   -0.059273
   4 C :   -0.200940
   5 H :    0.018467
   6 C :   -0.032130
   7 H :    0.022642
   8 H :    0.040908
   9 C :   -0.034075
  10 H :    0.020328
  11 H :    0.031075
  12 C :   -0.073724
  13 H :    0.027118
  14 H :    0.019538
  15 H :    0.033054
  16 S :    0.400896
  17 C :   -0.189482
  18 C :   -0.080751
  19 C :   -0.048872
  20 C :   -0.201086
  21 H :    0.044099
  22 C :   -0.025691
  23 H :    0.024312
  24 H :    0.035676
  25 C :   -0.038040
  26 H :    0.031345
  27 H :    0.017493
  28 C :   -0.073640
  29 H :    0.019475
  30 H :    0.035890
  31 H :    0.019172
  32 H :    0.020950
  33 H :    0.042590

  Mayer bond orders larger than 0.100000
B(  0-S ,  1-C ) :   1.1465 B(  0-S ,  4-C ) :   1.1320 B(  1-C ,  2-C ) :   1.5929
B(  1-C , 32-H ) :   0.9734 B(  2-C ,  3-C ) :   1.2242 B(  2-C ,  6-C ) :   1.0218
B(  3-C ,  4-C ) :   1.5832 B(  3-C ,  5-H ) :   0.9940 B(  4-C , 20-C ) :   1.0755
B(  6-C ,  7-H ) :   0.9411 B(  6-C ,  8-H ) :   0.9468 B(  6-C ,  9-C ) :   1.0508
B(  9-C , 10-H ) :   0.9637 B(  9-C , 11-H ) :   0.9604 B(  9-C , 12-C ) :   1.0650
B( 12-C , 13-H ) :   0.9716 B( 12-C , 14-H ) :   0.9763 B( 12-C , 15-H ) :   0.9730
B( 16-S , 17-C ) :   1.1657 B( 16-S , 20-C ) :   1.1265 B( 17-C , 18-C ) :   1.5938
B( 17-C , 20-C ) :   0.1023 B( 17-C , 33-H ) :   0.9623 B( 18-C , 19-C ) :   1.2400
B( 18-C , 21-H ) :   0.9766 B( 19-C , 20-C ) :   1.5822 B( 19-C , 22-C ) :   1.0523
B( 22-C , 23-H ) :   0.9339 B( 22-C , 24-H ) :   0.9269 B( 22-C , 25-C ) :   1.0753
B( 25-C , 26-H ) :   0.9542 B( 25-C , 27-H ) :   0.9536 B( 25-C , 28-C ) :   1.0724
B( 28-C , 29-H ) :   0.9698 B( 28-C , 30-H ) :   0.9685 B( 28-C , 31-H ) :   0.9699

Dispersion correction           -0.015550245
FINAL SINGLE POINT ENERGY     -1339.871777787212

DIPOLE MOMENT
-------------
                                X             Y             Z
Electronic contribution:    -12.02557      15.70244      21.03876
Nuclear contribution   :     12.23485     -16.25984     -21.33987
                        -----------------------------------------
Total Dipole Moment    :      0.20929      -0.55740      -0.30111
                        -----------------------------------------
Magnitude (a.u.)       :      0.66721
Magnitude (Debye)      :      1.69591

Rotational constants in cm-1:     0.019612     0.009647     0.007107
Rotational constants in MHz :   587.944017   289.214271   213.055876

                             ****ORCA TERMINATED NORMALLY****
TOTAL RUN TIME: 0 days 0 hours 0 minutes 21 seconds 361 msec
