                         Program Version 4.2.1 -  RELEASE  -
|  1> ! wB97X-D3 SP def2-SVP
|  2> %pal
|  3> nprocs 24
|  4> end
|  5>
|  6> * xyz 0 1
|  7> S 	 -76.7848 	 -0.366872 	 -63.8755
|  8> C 	 -76.2481 	 0.601811 	 -65.2416
|  9> C 	 -77.1119 	 1.61691 	 -65.5627
| 10> C 	 -78.334 	 1.54651 	 -64.821
| 11> C 	 -78.2739 	 0.494849 	 -63.9503
| 12> H 	 -79.2006 	 2.17992 	 -64.9446
| 13> C 	 -76.9245 	 2.71599 	 -66.5171
| 14> H 	 -76.0028 	 3.26139 	 -66.2456
| 15> H 	 -77.5883 	 3.53788 	 -66.3338
| 16> C 	 -76.8465 	 2.46409 	 -68.0324
| 17> H 	 -76.272 	 1.59301 	 -68.2172
| 18> H 	 -77.8338 	 2.13944 	 -68.312
| 19> C 	 -76.2217 	 3.57837 	 -68.9006
| 20> H 	 -76.0354 	 3.38439 	 -69.9096
| 21> H 	 -76.9237 	 4.34168 	 -68.8602
| 22> H 	 -75.2442 	 3.9101 	 -68.5095
| 23> S 	 -79.4749 	 0.845653 	 -61.4063
| 24> C 	 -80.7851 	 -0.20007 	 -61.0379
| 25> C 	 -81.1233 	 -1.06156 	 -62.1282
| 26> C 	 -80.3016 	 -0.877981 	 -63.2766
| 27> C 	 -79.3731 	 0.132778 	 -63.0307
| 28> H 	 -81.9021 	 -1.78851 	 -62.1094
| 29> C 	 -80.4616 	 -1.69265 	 -64.5314
| 30> H 	 -80.5065 	 -2.73831 	 -64.315
| 31> H 	 -79.5355 	 -1.56175 	 -65.0556
| 32> C 	 -81.6709 	 -1.39732 	 -65.3586
| 33> H 	 -81.4962 	 -1.51645 	 -66.4611
| 34> H 	 -81.7045 	 -0.335328 	 -65.1647
| 35> C 	 -82.9685 	 -2.11416 	 -64.8922
| 36> H 	 -83.2225 	 -2.01181 	 -63.7885
| 37> H 	 -82.821 	 -3.23451 	 -65.022
| 38> H 	 -83.962 	 -1.8342 	 -65.3772
| 39> H 	 -75.3133 	 0.48739 	 -65.669
| 40> H 	 -81.2994 	 -0.221722 	 -60.0533
| 41> *
| 42>
| 43>                          ****END OF INPUT****

CARTESIAN COORDINATES (ANGSTROEM)
---------------------------------
  S    -76.784800   -0.366872  -63.875500
  C    -76.248100    0.601811  -65.241600
  C    -77.111900    1.616910  -65.562700
  C    -78.334000    1.546510  -64.821000
  C    -78.273900    0.494849  -63.950300
  H    -79.200600    2.179920  -64.944600
  C    -76.924500    2.715990  -66.517100
  H    -76.002800    3.261390  -66.245600
  H    -77.588300    3.537880  -66.333800
  C    -76.846500    2.464090  -68.032400
  H    -76.272000    1.593010  -68.217200
  H    -77.833800    2.139440  -68.312000
  C    -76.221700    3.578370  -68.900600
  H    -76.035400    3.384390  -69.909600
  H    -76.923700    4.341680  -68.860200
  H    -75.244200    3.910100  -68.509500
  S    -79.474900    0.845653  -61.406300
  C    -80.785100   -0.200070  -61.037900
  C    -81.123300   -1.061560  -62.128200
  C    -80.301600   -0.877981  -63.276600
  C    -79.373100    0.132778  -63.030700
  H    -81.902100   -1.788510  -62.109400
  C    -80.461600   -1.692650  -64.531400
  H    -80.506500   -2.738310  -64.315000
  H    -79.535500   -1.561750  -65.055600
  C    -81.670900   -1.397320  -65.358600
  H    -81.496200   -1.516450  -66.461100
  H    -81.704500   -0.335328  -65.164700
  C    -82.968500   -2.114160  -64.892200
  H    -83.222500   -2.011810  -63.788500
  H    -82.821000   -3.234510  -65.022000
  H    -83.962000   -1.834200  -65.377200
  H    -75.313300    0.487390  -65.669000
  H    -81.299400   -0.221722  -60.053300

 Total Charge           Charge          ....    0
 Multiplicity           Mult            ....    1
 Number of Electrons    NEL             ....  134
 Basis Dimension        Dim             ....  322

ORBITAL ENERGIES
----------------

  NO   OCC          E(Eh)            E(eV)
   0   2.0000     -88.970357     -2421.0065
   1   2.0000     -88.969454     -2420.9819
   2   2.0000     -10.322391      -280.8866
   3   2.0000     -10.321993      -280.8757
   4   2.0000     -10.320960      -280.8476
   5   2.0000     -10.306526      -280.4548
   6   2.0000     -10.298876      -280.2467
   7   2.0000     -10.297360      -280.2054
   8   2.0000     -10.294352      -280.1236
   9   2.0000     -10.292111      -280.0626
  10   2.0000     -10.290325      -280.0140
  11   2.0000     -10.287185      -279.9285
  12   2.0000     -10.285934      -279.8945
  13   2.0000     -10.281901      -279.7848
  14   2.0000     -10.281570      -279.7757
  15   2.0000     -10.272909      -279.5401
  16   2.0000      -8.084851      -220.0000
  17   2.0000      -8.084422      -219.9883
  18   2.0000      -6.043223      -164.4445
  19   2.0000      -6.042763      -164.4319
  20   2.0000      -6.039374      -164.3397
  21   2.0000      -6.039095      -164.3321
  22   2.0000      -6.035812      -164.2428
  23   2.0000      -6.035150      -164.2248
  24   2.0000      -1.007378       -27.4122
  25   2.0000      -0.983164       -26.7532
  26   2.0000      -0.915348       -24.9079
  27   2.0000      -0.913730       -24.8639
  28   2.0000      -0.864459       -23.5231
  29   2.0000      -0.854438       -23.2505
  30   2.0000      -0.845371       -23.0037
  31   2.0000      -0.808856       -22.0101
  32   2.0000      -0.787075       -21.4174
  33   2.0000      -0.772651       -21.0249
  34   2.0000      -0.713528       -19.4161
  35   2.0000      -0.701239       -19.0817
  36   2.0000      -0.688305       -18.7297
  37   2.0000      -0.660267       -17.9668
  38   2.0000      -0.648862       -17.6564
  39   2.0000      -0.618344       -16.8260
  40   2.0000      -0.600902       -16.3514
  41   2.0000      -0.571462       -15.5503
  42   2.0000      -0.557137       -15.1605
  43   2.0000      -0.548882       -14.9358
  44   2.0000      -0.541934       -14.7468
  45   2.0000      -0.525735       -14.3060
  46   2.0000      -0.517004       -14.0684
  47   2.0000      -0.510663       -13.8958
  48   2.0000      -0.501863       -13.6564
  49   2.0000      -0.494677       -13.4608
  50   2.0000      -0.485396       -13.2083
  51   2.0000      -0.482509       -13.1297
  52   2.0000      -0.474485       -12.9114
  53   2.0000      -0.465913       -12.6781
  54   2.0000      -0.461953       -12.5704
  55   2.0000      -0.449597       -12.2342
  56   2.0000      -0.443576       -12.0703
  57   2.0000      -0.437515       -11.9054
  58   2.0000      -0.434075       -11.8118
  59   2.0000      -0.427553       -11.6343
  60   2.0000      -0.421670       -11.4742
  61   2.0000      -0.413022       -11.2389
  62   2.0000      -0.409975       -11.1560
  63   2.0000      -0.339005        -9.2248
  64   2.0000      -0.331217        -9.0129
  65   2.0000      -0.314697        -8.5634
  66   2.0000      -0.308581        -8.3969
  67   0.0000       0.048480         1.3192
  68   0.0000       0.051098         1.3904
  69   0.0000       0.107334         2.9207
  70   0.0000       0.121797         3.3143
  71   0.0000       0.123447         3.3592

MULLIKEN ATOMIC CHARGES
-----------------------
   0 S :    0.132850
   1 C :   -0.100603
   2 C :   -0.042351
   3 C :    0.027741
   4 C :   -0.185181
   5 H :    0.018198
   6 C :    0.052880
   7 H :    0.016554
   8 H :    0.005567
   9 C :   -0.042503
  10 H :    0.008856
  11 H :    0.016677
  12 C :   -0.009218
  13 H :    0.023664
  14 H :    0.017016
  15 H :    0.028721
  16 S :    0.136003
  17 C :   -0.116845
  18 C :   -0.015725
  19 C :   -0.047204
  20 C :   -0.205050
  21 H :    0.000322
  22 C :    0.129121
  23 H :    0.010923
  24 H :    0.018856
  25 C :   -0.049028
  26 H :    0.047700
  27 H :    0.026320
  28 C :   -0.115250
  29 H :    0.036648
  30 H :    0.038225
  31 H :    0.051896
  32 H :    0.011834
  33 H :    0.072388
Sum of atomic charges:    0.0000000

LOEWDIN ATOMIC CHARGES
----------------------
   0 S :    0.419704
   1 C :   -0.181049
   2 C :   -0.057803
   3 C :   -0.054749
   4 C :   -0.202040
   5 H :    0.035781
   6 C :   -0.041570
   7 H :    0.034624
   8 H :    0.026169
   9 C :   -0.033951
  10 H :    0.015543
  11 H :    0.020968
  12 C :   -0.053676
  13 H :    0.021478
  14 H :    0.017101
  15 H :    0.029784
  16 S :    0.418683
  17 C :   -0.206380
  18 C :   -0.067631
  19 C :   -0.050058
  20 C :   -0.205750
  21 H :    0.019539
  22 C :   -0.028555
  23 H :    0.025787
  24 H :    0.031309
  25 C :   -0.045980
  26 H :    0.034800
  27 H :    0.025204
  28 C :   -0.085422
  29 H :    0.028769
  30 H :    0.028961
  31 H :    0.034893
  32 H :    0.009654
  33 H :    0.035863

  Mayer bond orders larger than 0.100000
B(  0-S ,  1-C ) :   1.1266 B(  0-S ,  4-C ) :   1.1627 B(  1-C ,  2-C ) :   1.6277
B(  1-C , 32-H ) :   0.9771 B(  2-C ,  3-C ) :   1.2145 B(  2-C ,  6-C ) :   1.0350
B(  3-C ,  4-C ) :   1.5983 B(  3-C ,  5-H ) :   1.0000 B(  4-C , 20-C ) :   0.9956
B(  6-C ,  7-H ) :   0.9258 B(  6-C ,  8-H ) :   0.9372 B(  6-C ,  9-C ) :   1.0525
B(  9-C , 10-H ) :   0.9595 B(  9-C , 11-H ) :   0.9541 B(  9-C , 12-C ) :   1.0721
B( 12-C , 13-H ) :   0.9747 B( 12-C , 14-H ) :   0.9793 B( 12-C , 15-H ) :   0.9729
B( 16-S , 17-C ) :   1.1733 B( 16-S , 20-C ) :   1.1554 B( 17-C , 18-C ) :   1.5686
B( 17-C , 20-C ) :   0.1030 B( 17-C , 33-H ) :   0.9636 B( 18-C , 19-C ) :   1.2669
B( 18-C , 21-H ) :   0.9877 B( 19-C , 20-C ) :   1.5822 B( 19-C , 22-C ) :   1.0598
B( 22-C , 23-H ) :   0.9312 B( 22-C , 24-H ) :   0.9088 B( 22-C , 25-C ) :   1.0505
B( 25-C , 26-H ) :   0.9561 B( 25-C , 27-H ) :   0.9563 B( 25-C , 28-C ) :   1.0617
B( 28-C , 29-H ) :   0.9723 B( 28-C , 30-H ) :   0.9739 B( 28-C , 31-H ) :   0.9731

Dispersion correction           -0.014333949
FINAL SINGLE POINT ENERGY     -1339.864723908781

DIPOLE MOMENT
-------------
                                X             Y             Z
Electronic contribution:      7.40868      -2.52530      24.55335
Nuclear contribution   :     -7.51322       2.61645     -24.98612
                        -----------------------------------------
Total Dipole Moment    :     -0.10454       0.09116      -0.43277
                        -----------------------------------------
Magnitude (a.u.)       :      0.45446
Magnitude (Debye)      :      1.15514

Rotational constants in cm-1:     0.020243     0.007544     0.006364
Rotational constants in MHz :   606.858593   226.151807   190.791574

                             ****ORCA TERMINATED NORMALLY****
TOTAL RUN TIME: 0 days 0 hours 0 minutes 20 seconds 142 msec
