                         Program Version 4.2.1 -  RELEASE  -
|  1> ! wB97X-D3 SP def2-SVP
|  2> %pal
|  3> nprocs 24
|  4> end
|  5>
|  6> * xyz 0 1
|  7> S 	 -18.9431 	 -31.0733 	 -101.33
|  8> C 	 -19.017 	 -29.7215 	 -102.377
|  9> C 	 -19.7741 	 -29.8883 	 -103.551
| 10> C 	 -19.9709 	 -31.2675 	 -103.676
| 11> C 	 -19.7037 	 -32.107 	 -102.591
| 12> H 	 -20.3014 	 -31.7357 	 -104.606
| 13> C 	 -19.9458 	 -28.8472 	 -104.578
| 14> H 	 -19.0092 	 -28.5652 	 -105.03
| 15> H 	 -20.3402 	 -27.9429 	 -104.108
| 16> C 	 -20.8785 	 -29.1846 	 -105.696
| 17> H 	 -20.7107 	 -28.5862 	 -106.675
| 18> H 	 -20.8689 	 -30.2393 	 -106.019
| 19> C 	 -22.4058 	 -29.1535 	 -105.391
| 20> H 	 -22.9949 	 -29.2962 	 -106.292
| 21> H 	 -22.5958 	 -29.9571 	 -104.729
| 22> H 	 -22.7467 	 -28.2026 	 -105.025
| 23> S 	 -18.2875 	 -34.3446 	 -102.09
| 24> C 	 -19.0012 	 -35.9106 	 -102.429
| 25> C 	 -20.3482 	 -35.8203 	 -102.532
| 26> C 	 -20.8049 	 -34.4601 	 -102.629
| 27> C 	 -19.7594 	 -33.5513 	 -102.516
| 28> H 	 -21.0548 	 -36.6359 	 -102.559
| 29> C 	 -22.2116 	 -34.0653 	 -102.894
| 30> H 	 -22.5869 	 -34.8754 	 -103.535
| 31> H 	 -22.1847 	 -33.1723 	 -103.603
| 32> C 	 -23.1033 	 -33.8332 	 -101.6
| 33> H 	 -23.017 	 -34.6506 	 -100.92
| 34> H 	 -24.1515 	 -33.9434 	 -101.991
| 35> C 	 -22.8563 	 -32.4444 	 -101.054
| 36> H 	 -23.4553 	 -32.1815 	 -100.231
| 37> H 	 -22.9006 	 -31.5478 	 -101.748
| 38> H 	 -21.8509 	 -32.5013 	 -100.776
| 39> H 	 -18.6234 	 -28.7568 	 -102.179
| 40> H 	 -18.5058 	 -36.8367 	 -102.38
| 41> *
| 42>
| 43>                          ****END OF INPUT****

CARTESIAN COORDINATES (ANGSTROEM)
---------------------------------
  S    -18.943100  -31.073300  -101.330000
  C    -19.017000  -29.721500  -102.377000
  C    -19.774100  -29.888300  -103.551000
  C    -19.970900  -31.267500  -103.676000
  C    -19.703700  -32.107000  -102.591000
  H    -20.301400  -31.735700  -104.606000
  C    -19.945800  -28.847200  -104.578000
  H    -19.009200  -28.565200  -105.030000
  H    -20.340200  -27.942900  -104.108000
  C    -20.878500  -29.184600  -105.696000
  H    -20.710700  -28.586200  -106.675000
  H    -20.868900  -30.239300  -106.019000
  C    -22.405800  -29.153500  -105.391000
  H    -22.994900  -29.296200  -106.292000
  H    -22.595800  -29.957100  -104.729000
  H    -22.746700  -28.202600  -105.025000
  S    -18.287500  -34.344600  -102.090000
  C    -19.001200  -35.910600  -102.429000
  C    -20.348200  -35.820300  -102.532000
  C    -20.804900  -34.460100  -102.629000
  C    -19.759400  -33.551300  -102.516000
  H    -21.054800  -36.635900  -102.559000
  C    -22.211600  -34.065300  -102.894000
  H    -22.586900  -34.875400  -103.535000
  H    -22.184700  -33.172300  -103.603000
  C    -23.103300  -33.833200  -101.600000
  H    -23.017000  -34.650600  -100.920000
  H    -24.151500  -33.943400  -101.991000
  C    -22.856300  -32.444400  -101.054000
  H    -23.455300  -32.181500  -100.231000
  H    -22.900600  -31.547800  -101.748000
  H    -21.850900  -32.501300  -100.776000
  H    -18.623400  -28.756800  -102.179000
  H    -18.505800  -36.836700  -102.380000

 Total Charge           Charge          ....    0
 Multiplicity           Mult            ....    1
 Number of Electrons    NEL             ....  134
 Basis Dimension        Dim             ....  322

ORBITAL ENERGIES
----------------

  NO   OCC          E(Eh)            E(eV)
   0   2.0000     -88.970319     -2421.0055
   1   2.0000     -88.962541     -2420.7938
   2   2.0000     -10.329848      -281.0894
   3   2.0000     -10.321664      -280.8668
   4   2.0000     -10.312952      -280.6297
   5   2.0000     -10.310916      -280.5743
   6   2.0000     -10.298852      -280.2460
   7   2.0000     -10.298816      -280.2450
   8   2.0000     -10.294317      -280.1226
   9   2.0000     -10.293646      -280.1043
  10   2.0000     -10.292710      -280.0789
  11   2.0000     -10.292509      -280.0734
  12   2.0000     -10.292194      -280.0648
  13   2.0000     -10.289505      -279.9917
  14   2.0000     -10.272255      -279.5223
  15   2.0000     -10.265387      -279.3354
  16   2.0000      -8.084381      -219.9872
  17   2.0000      -8.077923      -219.8115
  18   2.0000      -6.042794      -164.4328
  19   2.0000      -6.038926      -164.3275
  20   2.0000      -6.036499      -164.2615
  21   2.0000      -6.035357      -164.2304
  22   2.0000      -6.032412      -164.1503
  23   2.0000      -6.028500      -164.0438
  24   2.0000      -1.008960       -27.4552
  25   2.0000      -0.988090       -26.8873
  26   2.0000      -0.919831       -25.0299
  27   2.0000      -0.905320       -24.6350
  28   2.0000      -0.872669       -23.7465
  29   2.0000      -0.850669       -23.1479
  30   2.0000      -0.847246       -23.0547
  31   2.0000      -0.819452       -22.2984
  32   2.0000      -0.787262       -21.4225
  33   2.0000      -0.769194       -20.9308
  34   2.0000      -0.711888       -19.3715
  35   2.0000      -0.699670       -19.0390
  36   2.0000      -0.688682       -18.7400
  37   2.0000      -0.663031       -18.0420
  38   2.0000      -0.642315       -17.4783
  39   2.0000      -0.625609       -17.0237
  40   2.0000      -0.594688       -16.1823
  41   2.0000      -0.572581       -15.5807
  42   2.0000      -0.560855       -15.2616
  43   2.0000      -0.554735       -15.0951
  44   2.0000      -0.538828       -14.6622
  45   2.0000      -0.533140       -14.5075
  46   2.0000      -0.518167       -14.1000
  47   2.0000      -0.509741       -13.8708
  48   2.0000      -0.502949       -13.6859
  49   2.0000      -0.498574       -13.5669
  50   2.0000      -0.491265       -13.3680
  51   2.0000      -0.482939       -13.1414
  52   2.0000      -0.476016       -12.9531
  53   2.0000      -0.467187       -12.7128
  54   2.0000      -0.459432       -12.5018
  55   2.0000      -0.445876       -12.1329
  56   2.0000      -0.443701       -12.0737
  57   2.0000      -0.435703       -11.8561
  58   2.0000      -0.433091       -11.7850
  59   2.0000      -0.424902       -11.5622
  60   2.0000      -0.422110       -11.4862
  61   2.0000      -0.412410       -11.2222
  62   2.0000      -0.403243       -10.9728
  63   2.0000      -0.347478        -9.4554
  64   2.0000      -0.331884        -9.0310
  65   2.0000      -0.324369        -8.8265
  66   2.0000      -0.287231        -7.8160
  67   0.0000       0.027496         0.7482
  68   0.0000       0.062426         1.6987
  69   0.0000       0.108746         2.9591
  70   0.0000       0.121554         3.3077
  71   0.0000       0.124746         3.3945

MULLIKEN ATOMIC CHARGES
-----------------------
   0 S :    0.128984
   1 C :   -0.100858
   2 C :   -0.097998
   3 C :    0.012657
   4 C :   -0.170024
   5 H :    0.015014
   6 C :    0.137736
   7 H :    0.044696
   8 H :    0.028021
   9 C :   -0.152312
  10 H :    0.041250
  11 H :    0.027757
  12 C :   -0.040249
  13 H :    0.029758
  14 H :    0.029462
  15 H :    0.020396
  16 S :    0.107189
  17 C :   -0.060193
  18 C :   -0.015631
  19 C :   -0.049942
  20 C :   -0.165444
  21 H :    0.011739
  22 C :    0.012899
  23 H :    0.018681
  24 H :    0.034500
  25 C :   -0.034372
  26 H :    0.023361
  27 H :    0.026546
  28 C :   -0.006279
  29 H :    0.024316
  30 H :    0.039218
  31 H :    0.012462
  32 H :    0.027874
  33 H :    0.038785
Sum of atomic charges:   -0.0000000

LOEWDIN ATOMIC CHARGES
----------------------
   0 S :    0.408333
   1 C :   -0.191792
   2 C :   -0.069977
   3 C :   -0.059090
   4 C :   -0.192816
   5 H :    0.027935
   6 C :   -0.035227
   7 H :    0.040406
   8 H :    0.037927
   9 C :   -0.051762
  10 H :    0.032917
  11 H :    0.024962
  12 C :   -0.060131
  13 H :    0.027599
  14 H :    0.018082
  15 H :    0.015997
  16 S :    0.411825
  17 C :   -0.170959
  18 C :   -0.066525
  19 C :   -0.058937
  20 C :   -0.212836
  21 H :    0.030150
  22 C :   -0.039342
  23 H :    0.028661
  24 H :    0.038894
  25 C :   -0.028875
  26 H :    0.021398
  27 H :    0.024485
  28 C :   -0.063134
  29 H :    0.018275
  30 H :    0.036604
  31 H :    0.017520
  32 H :    0.018183
  33 H :    0.021253

  Mayer bond orders larger than 0.100000
B(  0-S ,  1-C ) :   1.1799 B(  0-S ,  4-C ) :   1.1214 B(  1-C ,  2-C ) :   1.5691
B(  1-C ,  4-C ) :   0.1093 B(  1-C , 32-H ) :   0.9663 B(  2-C ,  3-C ) :   1.2760
B(  2-C ,  6-C ) :   1.0214 B(  3-C ,  4-C ) :   1.5802 B(  3-C ,  5-H ) :   0.9749
B(  4-C , 20-C ) :   1.0522 B(  6-C ,  7-H ) :   0.9305 B(  6-C ,  8-H ) :   0.9296
B(  6-C ,  9-C ) :   1.0727 B(  9-C , 10-H ) :   0.9577 B(  9-C , 11-H ) :   0.9553
B(  9-C , 12-C ) :   1.0722 B( 12-C , 13-H ) :   0.9743 B( 12-C , 14-H ) :   0.9802
B( 12-C , 15-H ) :   0.9748 B( 16-S , 17-C ) :   1.1476 B( 16-S , 20-C ) :   1.1381
B( 17-C , 18-C ) :   1.6068 B( 17-C , 33-H ) :   0.9744 B( 18-C , 19-C ) :   1.2474
B( 18-C , 21-H ) :   0.9891 B( 19-C , 20-C ) :   1.5819 B( 19-C , 22-C ) :   1.0423
B( 22-C , 23-H ) :   0.9313 B( 22-C , 24-H ) :   0.9374 B( 22-C , 25-C ) :   1.0562
B( 25-C , 26-H ) :   0.9583 B( 25-C , 27-H ) :   0.9558 B( 25-C , 28-C ) :   1.0663
B( 28-C , 29-H ) :   0.9715 B( 28-C , 30-H ) :   0.9743 B( 28-C , 31-H ) :   0.9700

Dispersion correction           -0.015705283
FINAL SINGLE POINT ENERGY     -1339.861017390848

DIPOLE MOMENT
-------------
                                X             Y             Z
Electronic contribution:     22.06592     -10.39384      11.35194
Nuclear contribution   :    -22.43611      10.46346     -11.72829
                        -----------------------------------------
Total Dipole Moment    :     -0.37019       0.06962      -0.37635
                        -----------------------------------------
Magnitude (a.u.)       :      0.53247
Magnitude (Debye)      :      1.35343

Rotational constants in cm-1:     0.019195     0.009525     0.008027
Rotational constants in MHz :   575.452764   285.542269   240.641554

                             ****ORCA TERMINATED NORMALLY****
TOTAL RUN TIME: 0 days 0 hours 0 minutes 22 seconds 963 msec
