                         Program Version 4.2.1 -  RELEASE  -
|  1> ! wB97X-D3 SP def2-SVP
|  2> %pal
|  3> nprocs 24
|  4> end
|  5>
|  6> * xyz 0 1
|  7> S 	 -42.656 	 15.5361 	 20.6019
|  8> C 	 -43.9328 	 15.1634 	 19.5127
|  9> C 	 -44.6311 	 14.0469 	 19.9007
| 10> C 	 -43.9453 	 13.4104 	 20.9888
| 11> C 	 -42.8134 	 14.0341 	 21.521
| 12> H 	 -44.2431 	 12.4954 	 21.3503
| 13> C 	 -45.8694 	 13.3773 	 19.2566
| 14> H 	 -46.5872 	 14.0435 	 18.8763
| 15> H 	 -46.3193 	 12.8073 	 20.0423
| 16> C 	 -45.5018 	 12.4211 	 18.1064
| 17> H 	 -44.7678 	 11.7012 	 18.4039
| 18> H 	 -46.4013 	 11.7645 	 17.9291
| 19> C 	 -44.9023 	 13.0736 	 16.8321
| 20> H 	 -44.0505 	 13.6395 	 17.0475
| 21> H 	 -44.7353 	 12.3217 	 16.1479
| 22> H 	 -45.6282 	 13.7074 	 16.3115
| 23> S 	 -42.0783 	 13.7914 	 24.1567
| 24> C 	 -40.7916 	 12.7383 	 24.6083
| 25> C 	 -40.092 	 12.2741 	 23.5112
| 26> C 	 -40.7529 	 12.7679 	 22.3142
| 27> C 	 -41.8588 	 13.5498 	 22.4802
| 28> H 	 -39.1877 	 11.6953 	 23.7952
| 29> C 	 -40.1724 	 12.2175 	 21.0266
| 30> H 	 -39.0322 	 12.3461 	 21.0185
| 31> H 	 -40.5059 	 12.7167 	 20.1457
| 32> C 	 -40.3371 	 10.7509 	 20.6969
| 33> H 	 -39.8908 	 10.2011 	 21.5314
| 34> H 	 -39.8683 	 10.4094 	 19.7755
| 35> C 	 -41.7325 	 10.3725 	 20.4042
| 36> H 	 -41.8827 	 9.35224 	 20.027
| 37> H 	 -42.2895 	 11.1121 	 19.8216
| 38> H 	 -42.122 	 10.3014 	 21.3757
| 39> H 	 -44.1548 	 15.8969 	 18.756
| 40> H 	 -40.4409 	 12.541 	 25.5994
| 41> *
| 42>
| 43>                          ****END OF INPUT****

CARTESIAN COORDINATES (ANGSTROEM)
---------------------------------
  S    -42.656000   15.536100   20.601900
  C    -43.932800   15.163400   19.512700
  C    -44.631100   14.046900   19.900700
  C    -43.945300   13.410400   20.988800
  C    -42.813400   14.034100   21.521000
  H    -44.243100   12.495400   21.350300
  C    -45.869400   13.377300   19.256600
  H    -46.587200   14.043500   18.876300
  H    -46.319300   12.807300   20.042300
  C    -45.501800   12.421100   18.106400
  H    -44.767800   11.701200   18.403900
  H    -46.401300   11.764500   17.929100
  C    -44.902300   13.073600   16.832100
  H    -44.050500   13.639500   17.047500
  H    -44.735300   12.321700   16.147900
  H    -45.628200   13.707400   16.311500
  S    -42.078300   13.791400   24.156700
  C    -40.791600   12.738300   24.608300
  C    -40.092000   12.274100   23.511200
  C    -40.752900   12.767900   22.314200
  C    -41.858800   13.549800   22.480200
  H    -39.187700   11.695300   23.795200
  C    -40.172400   12.217500   21.026600
  H    -39.032200   12.346100   21.018500
  H    -40.505900   12.716700   20.145700
  C    -40.337100   10.750900   20.696900
  H    -39.890800   10.201100   21.531400
  H    -39.868300   10.409400   19.775500
  C    -41.732500   10.372500   20.404200
  H    -41.882700    9.352240   20.027000
  H    -42.289500   11.112100   19.821600
  H    -42.122000   10.301400   21.375700
  H    -44.154800   15.896900   18.756000
  H    -40.440900   12.541000   25.599400

 Total Charge           Charge          ....    0
 Multiplicity           Mult            ....    1
 Number of Electrons    NEL             ....  134
 Basis Dimension        Dim             ....  322

ORBITAL ENERGIES
----------------

  NO   OCC          E(Eh)            E(eV)
   0   2.0000     -88.964021     -2420.8341
   1   2.0000     -88.962669     -2420.7973
   2   2.0000     -10.331111      -281.1238
   3   2.0000     -10.324393      -280.9410
   4   2.0000     -10.315612      -280.7021
   5   2.0000     -10.315609      -280.7020
   6   2.0000     -10.308195      -280.5002
   7   2.0000     -10.304195      -280.3914
   8   2.0000     -10.298765      -280.2436
   9   2.0000     -10.292201      -280.0650
  10   2.0000     -10.291570      -280.0478
  11   2.0000     -10.288758      -279.9713
  12   2.0000     -10.285333      -279.8781
  13   2.0000     -10.274733      -279.5897
  14   2.0000     -10.268828      -279.4290
  15   2.0000     -10.261425      -279.2276
  16   2.0000      -8.080229      -219.8742
  17   2.0000      -8.077886      -219.8104
  18   2.0000      -6.038704      -164.3215
  19   2.0000      -6.036258      -164.2549
  20   2.0000      -6.034386      -164.2040
  21   2.0000      -6.032178      -164.1439
  22   2.0000      -6.031046      -164.1131
  23   2.0000      -6.028887      -164.0544
  24   2.0000      -1.013753       -27.5856
  25   2.0000      -0.990843       -26.9622
  26   2.0000      -0.915806       -24.9204
  27   2.0000      -0.910077       -24.7645
  28   2.0000      -0.876539       -23.8518
  29   2.0000      -0.850576       -23.1454
  30   2.0000      -0.847076       -23.0501
  31   2.0000      -0.819125       -22.2895
  32   2.0000      -0.790329       -21.5059
  33   2.0000      -0.775907       -21.1135
  34   2.0000      -0.711079       -19.3495
  35   2.0000      -0.698109       -18.9965
  36   2.0000      -0.687094       -18.6968
  37   2.0000      -0.658132       -17.9087
  38   2.0000      -0.653314       -17.7776
  39   2.0000      -0.627254       -17.0684
  40   2.0000      -0.601072       -16.3560
  41   2.0000      -0.576933       -15.6991
  42   2.0000      -0.554613       -15.0918
  43   2.0000      -0.553622       -15.0648
  44   2.0000      -0.545215       -14.8361
  45   2.0000      -0.539901       -14.6914
  46   2.0000      -0.520673       -14.1682
  47   2.0000      -0.518435       -14.1073
  48   2.0000      -0.512388       -13.9428
  49   2.0000      -0.498950       -13.5771
  50   2.0000      -0.495422       -13.4811
  51   2.0000      -0.483793       -13.1647
  52   2.0000      -0.478286       -13.0148
  53   2.0000      -0.467418       -12.7191
  54   2.0000      -0.457352       -12.4452
  55   2.0000      -0.442036       -12.0284
  56   2.0000      -0.439880       -11.9698
  57   2.0000      -0.432962       -11.7815
  58   2.0000      -0.431135       -11.7318
  59   2.0000      -0.424911       -11.5624
  60   2.0000      -0.419410       -11.4127
  61   2.0000      -0.413698       -11.2573
  62   2.0000      -0.394165       -10.7258
  63   2.0000      -0.334710        -9.1079
  64   2.0000      -0.331782        -9.0282
  65   2.0000      -0.321049        -8.7362
  66   2.0000      -0.318267        -8.6605
  67   0.0000       0.045456         1.2369
  68   0.0000       0.054779         1.4906
  69   0.0000       0.113028         3.0756
  70   0.0000       0.118248         3.2177
  71   0.0000       0.137552         3.7430

MULLIKEN ATOMIC CHARGES
-----------------------
   0 S :    0.108796
   1 C :   -0.142426
   2 C :   -0.085123
   3 C :    0.080388
   4 C :   -0.180887
   5 H :   -0.028873
   6 C :    0.125978
   7 H :    0.016375
   8 H :    0.018057
   9 C :   -0.101295
  10 H :    0.018123
  11 H :    0.032244
  12 C :   -0.003833
  13 H :    0.032631
  14 H :    0.017606
  15 H :    0.017928
  16 S :    0.120285
  17 C :   -0.091899
  18 C :   -0.059949
  19 C :   -0.011518
  20 C :   -0.142755
  21 H :    0.044930
  22 C :    0.057205
  23 H :    0.036287
  24 H :    0.009424
  25 C :   -0.071021
  26 H :    0.018876
  27 H :    0.024079
  28 C :   -0.043647
  29 H :    0.027533
  30 H :    0.041901
  31 H :    0.011953
  32 H :    0.055146
  33 H :    0.047481
Sum of atomic charges:   -0.0000000

LOEWDIN ATOMIC CHARGES
----------------------
   0 S :    0.413430
   1 C :   -0.195255
   2 C :   -0.067024
   3 C :   -0.037977
   4 C :   -0.200491
   5 H :    0.013364
   6 C :   -0.019542
   7 H :    0.023708
   8 H :    0.030677
   9 C :   -0.038635
  10 H :    0.018399
  11 H :    0.028679
  12 C :   -0.053806
  13 H :    0.019345
  14 H :    0.019381
  15 H :    0.024118
  16 S :    0.436655
  17 C :   -0.184995
  18 C :   -0.080485
  19 C :   -0.047775
  20 C :   -0.226591
  21 H :    0.046743
  22 C :   -0.035189
  23 H :    0.041649
  24 H :    0.019986
  25 C :   -0.044720
  26 H :    0.019029
  27 H :    0.024317
  28 C :   -0.069374
  29 H :    0.026396
  30 H :    0.025452
  31 H :    0.018910
  32 H :    0.025664
  33 H :    0.025958

  Mayer bond orders larger than 0.100000
B(  0-S ,  1-C ) :   1.1802 B(  0-S ,  4-C ) :   1.1410 B(  1-C ,  2-C ) :   1.5681
B(  1-C ,  4-C ) :   0.1028 B(  1-C , 32-H ) :   0.9709 B(  2-C ,  3-C ) :   1.2626
B(  2-C ,  6-C ) :   1.0245 B(  3-C ,  4-C ) :   1.5779 B(  3-C ,  5-H ) :   1.0054
B(  4-C , 20-C ) :   1.0222 B(  6-C ,  7-H ) :   0.9430 B(  6-C ,  8-H ) :   0.9331
B(  6-C ,  9-C ) :   1.0749 B(  9-C , 10-H ) :   0.9556 B(  9-C , 11-H ) :   0.9543
B(  9-C , 12-C ) :   1.0759 B( 12-C , 13-H ) :   0.9734 B( 12-C , 14-H ) :   0.9710
B( 12-C , 15-H ) :   0.9745 B( 16-S , 17-C ) :   1.1812 B( 16-S , 20-C ) :   1.1334
B( 17-C , 18-C ) :   1.6175 B( 17-C , 33-H ) :   0.9663 B( 18-C , 19-C ) :   1.2014
B( 18-C , 21-H ) :   0.9904 B( 19-C , 20-C ) :   1.6203 B( 19-C , 22-C ) :   1.0526
B( 22-C , 23-H ) :   0.9348 B( 22-C , 24-H ) :   0.9319 B( 22-C , 25-C ) :   1.0819
B( 25-C , 26-H ) :   0.9544 B( 25-C , 27-H ) :   0.9549 B( 25-C , 28-C ) :   1.0703
B( 28-C , 29-H ) :   0.9700 B( 28-C , 30-H ) :   0.9682 B( 28-C , 31-H ) :   0.9718

Dispersion correction           -0.015902472
FINAL SINGLE POINT ENERGY     -1339.858973245770

DIPOLE MOMENT
-------------
                                X             Y             Z
Electronic contribution:      4.81748      18.29753      20.90803
Nuclear contribution   :     -4.88326     -18.82158     -21.17900
                        -----------------------------------------
Total Dipole Moment    :     -0.06578      -0.52405      -0.27097
                        -----------------------------------------
Magnitude (a.u.)       :      0.59362
Magnitude (Debye)      :      1.50886

Rotational constants in cm-1:     0.021086     0.009098     0.007492
Rotational constants in MHz :   632.146552   272.736392   224.604115

                             ****ORCA TERMINATED NORMALLY****
TOTAL RUN TIME: 0 days 0 hours 0 minutes 22 seconds 851 msec
