                         Program Version 4.2.1 -  RELEASE  -
|  1> ! wB97X-D3 SP def2-SVP
|  2> %pal
|  3> nprocs 24
|  4> end
|  5>
|  6> * xyz 0 1
|  7> S 	 17.6511 	 -6.88932 	 -117.114
|  8> C 	 17.4843 	 -7.44716 	 -115.504
|  9> C 	 16.5546 	 -6.59975 	 -114.808
| 10> C 	 15.7819 	 -5.87002 	 -115.728
| 11> C 	 16.1523 	 -5.94698 	 -117.052
| 12> H 	 15.0154 	 -5.16791 	 -115.418
| 13> C 	 16.4256 	 -6.29537 	 -113.276
| 14> H 	 17.3559 	 -6.74881 	 -112.828
| 15> H 	 15.6011 	 -6.92095 	 -112.883
| 16> C 	 16.3541 	 -4.79542 	 -112.865
| 17> H 	 15.4189 	 -4.37732 	 -113.218
| 18> H 	 16.3026 	 -4.73476 	 -111.775
| 19> C 	 17.553 	 -3.97295 	 -113.464
| 20> H 	 18.5504 	 -4.51169 	 -113.484
| 21> H 	 17.427 	 -3.61122 	 -114.563
| 22> H 	 17.6177 	 -3.11705 	 -112.791
| 23> S 	 16.6026 	 -4.09569 	 -119.044
| 24> C 	 15.3327 	 -3.38559 	 -119.876
| 25> C 	 14.1876 	 -4.10023 	 -119.646
| 26> C 	 14.2531 	 -5.13682 	 -118.646
| 27> C 	 15.5589 	 -5.17024 	 -118.152
| 28> H 	 13.4398 	 -3.81211 	 -120.332
| 29> C 	 13.0036 	 -5.87039 	 -118.183
| 30> H 	 13.2173 	 -6.68513 	 -117.471
| 31> H 	 12.7095 	 -6.43841 	 -119.105
| 32> C 	 11.9497 	 -4.88693 	 -117.677
| 33> H 	 11.6248 	 -4.22788 	 -118.482
| 34> H 	 12.4332 	 -4.23337 	 -116.889
| 35> C 	 10.7522 	 -5.70061 	 -117.231
| 36> H 	 11.0021 	 -6.47459 	 -116.576
| 37> H 	 10.1749 	 -6.1039 	 -118.084
| 38> H 	 10.0572 	 -5.0342 	 -116.694
| 39> H 	 18.2005 	 -8.14221 	 -115.053
| 40> H 	 15.4848 	 -2.68647 	 -120.662
| 41> *
| 42>
| 43>                          ****END OF INPUT****

CARTESIAN COORDINATES (ANGSTROEM)
---------------------------------
  S     17.651100   -6.889320  -117.114000
  C     17.484300   -7.447160  -115.504000
  C     16.554600   -6.599750  -114.808000
  C     15.781900   -5.870020  -115.728000
  C     16.152300   -5.946980  -117.052000
  H     15.015400   -5.167910  -115.418000
  C     16.425600   -6.295370  -113.276000
  H     17.355900   -6.748810  -112.828000
  H     15.601100   -6.920950  -112.883000
  C     16.354100   -4.795420  -112.865000
  H     15.418900   -4.377320  -113.218000
  H     16.302600   -4.734760  -111.775000
  C     17.553000   -3.972950  -113.464000
  H     18.550400   -4.511690  -113.484000
  H     17.427000   -3.611220  -114.563000
  H     17.617700   -3.117050  -112.791000
  S     16.602600   -4.095690  -119.044000
  C     15.332700   -3.385590  -119.876000
  C     14.187600   -4.100230  -119.646000
  C     14.253100   -5.136820  -118.646000
  C     15.558900   -5.170240  -118.152000
  H     13.439800   -3.812110  -120.332000
  C     13.003600   -5.870390  -118.183000
  H     13.217300   -6.685130  -117.471000
  H     12.709500   -6.438410  -119.105000
  C     11.949700   -4.886930  -117.677000
  H     11.624800   -4.227880  -118.482000
  H     12.433200   -4.233370  -116.889000
  C     10.752200   -5.700610  -117.231000
  H     11.002100   -6.474590  -116.576000
  H     10.174900   -6.103900  -118.084000
  H     10.057200   -5.034200  -116.694000
  H     18.200500   -8.142210  -115.053000
  H     15.484800   -2.686470  -120.662000

 Total Charge           Charge          ....    0
 Multiplicity           Mult            ....    1
 Number of Electrons    NEL             ....  134
 Basis Dimension        Dim             ....  322

ORBITAL ENERGIES
----------------

  NO   OCC          E(Eh)            E(eV)
   0   2.0000     -88.966188     -2420.8930
   1   2.0000     -88.958993     -2420.6973
   2   2.0000     -10.327838      -281.0348
   3   2.0000     -10.326722      -281.0044
   4   2.0000     -10.318299      -280.7752
   5   2.0000     -10.306412      -280.4517
   6   2.0000     -10.305858      -280.4367
   7   2.0000     -10.305100      -280.4160
   8   2.0000     -10.301463      -280.3171
   9   2.0000     -10.296099      -280.1711
  10   2.0000     -10.295389      -280.1518
  11   2.0000     -10.290256      -280.0121
  12   2.0000     -10.288893      -279.9750
  13   2.0000     -10.287962      -279.9497
  14   2.0000     -10.286518      -279.9104
  15   2.0000     -10.274721      -279.5894
  16   2.0000      -8.080953      -219.8939
  17   2.0000      -8.075666      -219.7501
  18   2.0000      -6.039407      -164.3406
  19   2.0000      -6.035515      -164.2347
  20   2.0000      -6.033962      -164.1924
  21   2.0000      -6.031713      -164.1313
  22   2.0000      -6.029878      -164.0813
  23   2.0000      -6.026558      -163.9910
  24   2.0000      -1.009083       -27.4586
  25   2.0000      -0.987937       -26.8831
  26   2.0000      -0.914222       -24.8772
  27   2.0000      -0.900201       -24.4957
  28   2.0000      -0.868605       -23.6360
  29   2.0000      -0.850974       -23.1562
  30   2.0000      -0.840759       -22.8782
  31   2.0000      -0.810155       -22.0454
  32   2.0000      -0.779553       -21.2127
  33   2.0000      -0.767506       -20.8849
  34   2.0000      -0.704736       -19.1768
  35   2.0000      -0.699514       -19.0347
  36   2.0000      -0.691902       -18.8276
  37   2.0000      -0.654733       -17.8162
  38   2.0000      -0.636025       -17.3071
  39   2.0000      -0.624213       -16.9857
  40   2.0000      -0.599570       -16.3151
  41   2.0000      -0.565291       -15.3823
  42   2.0000      -0.558174       -15.1887
  43   2.0000      -0.546671       -14.8757
  44   2.0000      -0.533567       -14.5191
  45   2.0000      -0.528695       -14.3865
  46   2.0000      -0.517397       -14.0791
  47   2.0000      -0.510628       -13.8949
  48   2.0000      -0.505671       -13.7600
  49   2.0000      -0.496133       -13.5005
  50   2.0000      -0.485443       -13.2096
  51   2.0000      -0.479752       -13.0547
  52   2.0000      -0.467564       -12.7231
  53   2.0000      -0.463394       -12.6096
  54   2.0000      -0.453624       -12.3437
  55   2.0000      -0.448477       -12.2037
  56   2.0000      -0.443231       -12.0609
  57   2.0000      -0.435350       -11.8465
  58   2.0000      -0.428887       -11.6706
  59   2.0000      -0.425279       -11.5724
  60   2.0000      -0.422239       -11.4897
  61   2.0000      -0.415391       -11.3034
  62   2.0000      -0.413352       -11.2479
  63   2.0000      -0.347344        -9.4517
  64   2.0000      -0.325420        -8.8551
  65   2.0000      -0.324959        -8.8426
  66   2.0000      -0.287833        -7.8323
  67   0.0000       0.033808         0.9200
  68   0.0000       0.064131         1.7451
  69   0.0000       0.114357         3.1118
  70   0.0000       0.124428         3.3859
  71   0.0000       0.134593         3.6625

MULLIKEN ATOMIC CHARGES
-----------------------
   0 S :    0.117245
   1 C :   -0.129841
   2 C :   -0.109417
   3 C :    0.022929
   4 C :   -0.143890
   5 H :    0.008812
   6 C :    0.035679
   7 H :    0.026282
   8 H :    0.046580
   9 C :   -0.063410
  10 H :    0.030919
  11 H :    0.039981
  12 C :   -0.100510
  13 H :    0.045405
  14 H :    0.064441
  15 H :    0.039143
  16 S :    0.104347
  17 C :   -0.085049
  18 C :   -0.055160
  19 C :   -0.000725
  20 C :   -0.182359
  21 H :    0.003093
  22 C :    0.050050
  23 H :    0.031334
  24 H :    0.037757
  25 C :   -0.099257
  26 H :    0.036388
  27 H :    0.047315
  28 C :   -0.012748
  29 H :    0.019422
  30 H :    0.034957
  31 H :    0.029143
  32 H :    0.061344
  33 H :    0.049799
Sum of atomic charges:   -0.0000000

LOEWDIN ATOMIC CHARGES
----------------------
   0 S :    0.418275
   1 C :   -0.215330
   2 C :   -0.065937
   3 C :   -0.065960
   4 C :   -0.196888
   5 H :    0.029700
   6 C :   -0.037748
   7 H :    0.030728
   8 H :    0.032484
   9 C :   -0.039501
  10 H :    0.021688
  11 H :    0.029473
  12 C :   -0.079359
  13 H :    0.031676
  14 H :    0.041639
  15 H :    0.025429
  16 S :    0.428669
  17 C :   -0.204566
  18 C :   -0.075171
  19 C :   -0.052497
  20 C :   -0.201199
  21 H :    0.023301
  22 C :   -0.036169
  23 H :    0.031790
  24 H :    0.040174
  25 C :   -0.041319
  26 H :    0.026296
  27 H :    0.032351
  28 C :   -0.062292
  29 H :    0.015405
  30 H :    0.031292
  31 H :    0.027710
  32 H :    0.030509
  33 H :    0.025347

  Mayer bond orders larger than 0.100000
B(  0-S ,  1-C ) :   1.1762 B(  0-S ,  4-C ) :   1.1536 B(  1-C ,  2-C ) :   1.5442
B(  1-C ,  4-C ) :   0.1138 B(  1-C , 32-H ) :   0.9688 B(  2-C ,  3-C ) :   1.2976
B(  2-C ,  6-C ) :   1.0009 B(  3-C ,  4-C ) :   1.5419 B(  3-C ,  5-H ) :   0.9919
B(  4-C , 20-C ) :   1.0425 B(  6-C ,  7-H ) :   0.9492 B(  6-C ,  8-H ) :   0.9436
B(  6-C ,  9-C ) :   1.0724 B(  9-C , 10-H ) :   0.9512 B(  9-C , 11-H ) :   0.9596
B(  9-C , 12-C ) :   1.0557 B( 12-C , 13-H ) :   0.9790 B( 12-C , 14-H ) :   0.9714
B( 12-C , 15-H ) :   0.9767 B( 16-S , 17-C ) :   1.1688 B( 16-S , 20-C ) :   1.1605
B( 17-C , 18-C ) :   1.6124 B( 17-C , 33-H ) :   0.9709 B( 18-C , 19-C ) :   1.2095
B( 18-C , 21-H ) :   0.9966 B( 19-C , 20-C ) :   1.5813 B( 19-C , 22-C ) :   1.0427
B( 22-C , 23-H ) :   0.9394 B( 22-C , 24-H ) :   0.9279 B( 22-C , 25-C ) :   1.0571
B( 25-C , 26-H ) :   0.9491 B( 25-C , 27-H ) :   0.9569 B( 25-C , 28-C ) :   1.0883
B( 28-C , 29-H ) :   0.9737 B( 28-C , 30-H ) :   0.9714 B( 28-C , 31-H ) :   0.9716

Dispersion correction           -0.014628176
FINAL SINGLE POINT ENERGY     -1339.866691796735

DIPOLE MOMENT
-------------
                                X             Y             Z
Electronic contribution:     17.18255      -3.50993     -16.76443
Nuclear contribution   :    -17.65548       3.69518      17.09665
                        -----------------------------------------
Total Dipole Moment    :     -0.47293       0.18525       0.33222
                        -----------------------------------------
Magnitude (a.u.)       :      0.60692
Magnitude (Debye)      :      1.54267

Rotational constants in cm-1:     0.016631     0.009302     0.007543
Rotational constants in MHz :   498.595194   278.865191   226.145249

                             ****ORCA TERMINATED NORMALLY****
TOTAL RUN TIME: 0 days 0 hours 0 minutes 20 seconds 578 msec
