                         Program Version 4.2.1 -  RELEASE  -
|  1> ! wB97X-D3 SP def2-SVP
|  2> %pal
|  3> nprocs 24
|  4> end
|  5>
|  6> * xyz 0 1
|  7> S 	 -117.827 	 52.1892 	 -36.4834
|  8> C 	 -116.995 	 51.2956 	 -37.6382
|  9> C 	 -117.018 	 51.848 	 -38.9381
| 10> C 	 -117.899 	 52.9845 	 -38.9108
| 11> C 	 -118.369 	 53.3436 	 -37.6176
| 12> H 	 -118.108 	 53.5976 	 -39.7609
| 13> C 	 -116.479 	 51.2361 	 -40.2198
| 14> H 	 -117.331 	 51.0628 	 -40.9261
| 15> H 	 -116.234 	 50.1628 	 -39.9762
| 16> C 	 -115.339 	 51.9574 	 -40.8225
| 17> H 	 -115.096 	 51.4213 	 -41.7161
| 18> H 	 -115.616 	 53.0054 	 -41.14
| 19> C 	 -114.078 	 52.1766 	 -40.0167
| 20> H 	 -114.314 	 52.299 	 -38.9831
| 21> H 	 -113.441 	 51.3093 	 -40.1853
| 22> H 	 -113.44 	 53.0295 	 -40.3386
| 23> S 	 -120.188 	 54.3112 	 -35.7967
| 24> C 	 -120.726 	 55.9758 	 -35.8489
| 25> C 	 -120.207 	 56.5874 	 -36.9578
| 26> C 	 -119.271 	 55.7887 	 -37.7198
| 27> C 	 -119.15 	 54.4848 	 -37.1965
| 28> H 	 -120.442 	 57.5997 	 -37.2456
| 29> C 	 -118.612 	 56.3672 	 -38.9235
| 30> H 	 -118.991 	 57.3303 	 -39.1852
| 31> H 	 -118.721 	 55.6713 	 -39.732
| 32> C 	 -117.113 	 56.4499 	 -38.6602
| 33> H 	 -116.728 	 55.4771 	 -38.3891
| 34> H 	 -116.958 	 57.1242 	 -37.7946
| 35> C 	 -116.327 	 56.8293 	 -39.8701
| 36> H 	 -115.227 	 56.8092 	 -39.7852
| 37> H 	 -116.622 	 57.8824 	 -40.118
| 38> H 	 -116.477 	 56.2504 	 -40.856
| 39> H 	 -116.521 	 50.3648 	 -37.3947
| 40> H 	 -121.265 	 56.5136 	 -35.0909
| 41> *
| 42>
| 43>                          ****END OF INPUT****

CARTESIAN COORDINATES (ANGSTROEM)
---------------------------------
  S    -117.827000   52.189200  -36.483400
  C    -116.995000   51.295600  -37.638200
  C    -117.018000   51.848000  -38.938100
  C    -117.899000   52.984500  -38.910800
  C    -118.369000   53.343600  -37.617600
  H    -118.108000   53.597600  -39.760900
  C    -116.479000   51.236100  -40.219800
  H    -117.331000   51.062800  -40.926100
  H    -116.234000   50.162800  -39.976200
  C    -115.339000   51.957400  -40.822500
  H    -115.096000   51.421300  -41.716100
  H    -115.616000   53.005400  -41.140000
  C    -114.078000   52.176600  -40.016700
  H    -114.314000   52.299000  -38.983100
  H    -113.441000   51.309300  -40.185300
  H    -113.440000   53.029500  -40.338600
  S    -120.188000   54.311200  -35.796700
  C    -120.726000   55.975800  -35.848900
  C    -120.207000   56.587400  -36.957800
  C    -119.271000   55.788700  -37.719800
  C    -119.150000   54.484800  -37.196500
  H    -120.442000   57.599700  -37.245600
  C    -118.612000   56.367200  -38.923500
  H    -118.991000   57.330300  -39.185200
  H    -118.721000   55.671300  -39.732000
  C    -117.113000   56.449900  -38.660200
  H    -116.728000   55.477100  -38.389100
  H    -116.958000   57.124200  -37.794600
  C    -116.327000   56.829300  -39.870100
  H    -115.227000   56.809200  -39.785200
  H    -116.622000   57.882400  -40.118000
  H    -116.477000   56.250400  -40.856000
  H    -116.521000   50.364800  -37.394700
  H    -121.265000   56.513600  -35.090900

 Total Charge           Charge          ....    0
 Multiplicity           Mult            ....    1
 Number of Electrons    NEL             ....  134
 Basis Dimension        Dim             ....  322

ORBITAL ENERGIES
----------------

  NO   OCC          E(Eh)            E(eV)
   0   2.0000     -88.969688     -2420.9883
   1   2.0000     -88.965551     -2420.8757
   2   2.0000     -10.329808      -281.0884
   3   2.0000     -10.329490      -281.0797
   4   2.0000     -10.316266      -280.7199
   5   2.0000     -10.312550      -280.6188
   6   2.0000     -10.305737      -280.4334
   7   2.0000     -10.303452      -280.3712
   8   2.0000     -10.300564      -280.2926
   9   2.0000     -10.297300      -280.2038
  10   2.0000     -10.292655      -280.0774
  11   2.0000     -10.286280      -279.9039
  12   2.0000     -10.284469      -279.8546
  13   2.0000     -10.283542      -279.8294
  14   2.0000     -10.280198      -279.7384
  15   2.0000     -10.273588      -279.5585
  16   2.0000      -8.086286      -220.0390
  17   2.0000      -8.080222      -219.8740
  18   2.0000      -6.044467      -164.4783
  19   2.0000      -6.040366      -164.3667
  20   2.0000      -6.038842      -164.3252
  21   2.0000      -6.037443      -164.2872
  22   2.0000      -6.034676      -164.2119
  23   2.0000      -6.030940      -164.1102
  24   2.0000      -1.012687       -27.5566
  25   2.0000      -0.987152       -26.8618
  26   2.0000      -0.920861       -25.0579
  27   2.0000      -0.917909       -24.9776
  28   2.0000      -0.872212       -23.7341
  29   2.0000      -0.853831       -23.2339
  30   2.0000      -0.847151       -23.0521
  31   2.0000      -0.813785       -22.1442
  32   2.0000      -0.787046       -21.4166
  33   2.0000      -0.772032       -21.0081
  34   2.0000      -0.708142       -19.2695
  35   2.0000      -0.697524       -18.9806
  36   2.0000      -0.687600       -18.7106
  37   2.0000      -0.665112       -18.0986
  38   2.0000      -0.641508       -17.4563
  39   2.0000      -0.624433       -16.9917
  40   2.0000      -0.598930       -16.2977
  41   2.0000      -0.574198       -15.6247
  42   2.0000      -0.573527       -15.6065
  43   2.0000      -0.552896       -15.0451
  44   2.0000      -0.546954       -14.8834
  45   2.0000      -0.521191       -14.1823
  46   2.0000      -0.517566       -14.0837
  47   2.0000      -0.512836       -13.9550
  48   2.0000      -0.508922       -13.8485
  49   2.0000      -0.500956       -13.6317
  50   2.0000      -0.493890       -13.4394
  51   2.0000      -0.490591       -13.3497
  52   2.0000      -0.469971       -12.7886
  53   2.0000      -0.467069       -12.7096
  54   2.0000      -0.461760       -12.5651
  55   2.0000      -0.454144       -12.3579
  56   2.0000      -0.448414       -12.2020
  57   2.0000      -0.437411       -11.9026
  58   2.0000      -0.427482       -11.6324
  59   2.0000      -0.424033       -11.5385
  60   2.0000      -0.419409       -11.4127
  61   2.0000      -0.412443       -11.2231
  62   2.0000      -0.402108       -10.9419
  63   2.0000      -0.355780        -9.6813
  64   2.0000      -0.334877        -9.1125
  65   2.0000      -0.327896        -8.9225
  66   2.0000      -0.282533        -7.6881
  67   0.0000       0.019843         0.5400
  68   0.0000       0.084080         2.2879
  69   0.0000       0.107613         2.9283
  70   0.0000       0.117006         3.1839
  71   0.0000       0.120740         3.2855

MULLIKEN ATOMIC CHARGES
-----------------------
   0 S :    0.137094
   1 C :   -0.109599
   2 C :   -0.108832
   3 C :    0.025097
   4 C :   -0.153710
   5 H :   -0.006626
   6 C :    0.046384
   7 H :    0.047862
   8 H :    0.020996
   9 C :   -0.063305
  10 H :    0.022674
  11 H :    0.028842
  12 C :   -0.047856
  13 H :    0.037446
  14 H :    0.022986
  15 H :    0.038157
  16 S :    0.096204
  17 C :   -0.077107
  18 C :   -0.027681
  19 C :   -0.069718
  20 C :   -0.124676
  21 H :    0.010329
  22 C :    0.121411
  23 H :    0.007338
  24 H :    0.014097
  25 C :   -0.083883
  26 H :    0.039981
  27 H :    0.035092
  28 C :   -0.074939
  29 H :    0.039332
  30 H :    0.021832
  31 H :    0.034884
  32 H :    0.042713
  33 H :    0.057181
Sum of atomic charges:   -0.0000000

LOEWDIN ATOMIC CHARGES
----------------------
   0 S :    0.464998
   1 C :   -0.217834
   2 C :   -0.064480
   3 C :   -0.060206
   4 C :   -0.214639
   5 H :    0.021467
   6 C :   -0.038848
   7 H :    0.043063
   8 H :    0.034104
   9 C :   -0.049929
  10 H :    0.022932
  11 H :    0.027915
  12 C :   -0.065880
  13 H :    0.022214
  14 H :    0.024122
  15 H :    0.032462
  16 S :    0.401812
  17 C :   -0.186593
  18 C :   -0.069294
  19 C :   -0.051116
  20 C :   -0.200083
  21 H :    0.027860
  22 C :   -0.022045
  23 H :    0.025272
  24 H :    0.025724
  25 C :   -0.042889
  26 H :    0.024117
  27 H :    0.030237
  28 C :   -0.080302
  29 H :    0.027213
  30 H :    0.023556
  31 H :    0.030419
  32 H :    0.022475
  33 H :    0.032176

  Mayer bond orders larger than 0.100000
B(  0-S ,  1-C ) :   1.1871 B(  0-S ,  4-C ) :   1.1829 B(  1-C ,  2-C ) :   1.5414
B(  1-C ,  4-C ) :   0.1014 B(  1-C , 32-H ) :   0.9673 B(  2-C ,  3-C ) :   1.2983
B(  2-C ,  6-C ) :   1.0183 B(  3-C ,  4-C ) :   1.4976 B(  3-C ,  5-H ) :   0.9962
B(  4-C , 20-C ) :   1.0849 B(  6-C ,  7-H ) :   0.9423 B(  6-C ,  8-H ) :   0.9401
B(  6-C ,  9-C ) :   1.0750 B(  9-C , 10-H ) :   0.9539 B(  9-C , 11-H ) :   0.9563
B(  9-C , 12-C ) :   1.0718 B( 12-C , 13-H ) :   0.9751 B( 12-C , 14-H ) :   0.9752
B( 12-C , 15-H ) :   0.9754 B( 16-S , 17-C ) :   1.1455 B( 16-S , 20-C ) :   1.1395
B( 17-C , 18-C ) :   1.5947 B( 17-C , 33-H ) :   0.9696 B( 18-C , 19-C ) :   1.2681
B( 18-C , 21-H ) :   0.9881 B( 19-C , 20-C ) :   1.5516 B( 19-C , 22-C ) :   1.0580
B( 22-C , 23-H ) :   0.9282 B( 22-C , 24-H ) :   0.9261 B( 22-C , 25-C ) :   1.0627
B( 25-C , 26-H ) :   0.9543 B( 25-C , 27-H ) :   0.9503 B( 25-C , 28-C ) :   1.0833
B( 28-C , 29-H ) :   0.9731 B( 28-C , 30-H ) :   0.9696 B( 28-C , 31-H ) :   0.9703

Dispersion correction           -0.015146426
FINAL SINGLE POINT ENERGY     -1339.886741970168

DIPOLE MOMENT
-------------
                                X             Y             Z
Electronic contribution:    -20.11531      -6.30745      23.12527
Nuclear contribution   :     20.39135       6.47941     -23.62530
                        -----------------------------------------
Total Dipole Moment    :      0.27604       0.17196      -0.50003
                        -----------------------------------------
Magnitude (a.u.)       :      0.59649
Magnitude (Debye)      :      1.51615

Rotational constants in cm-1:     0.020210     0.009737     0.007096
Rotational constants in MHz :   605.895197   291.894690   212.728349

                             ****ORCA TERMINATED NORMALLY****
TOTAL RUN TIME: 0 days 0 hours 0 minutes 22 seconds 756 msec
