                         Program Version 4.2.1 -  RELEASE  -
|  1> ! wB97X-D3 SP def2-SVP
|  2> %pal
|  3> nprocs 24
|  4> end
|  5>
|  6> * xyz 0 1
|  7> S 	 -36.0673 	 -10.6633 	 15.5259
|  8> C 	 -34.3877 	 -11.1429 	 15.8629
|  9> C 	 -33.4883 	 -10.195 	 15.4572
| 10> C 	 -34.1838 	 -9.06915 	 14.7728
| 11> C 	 -35.5841 	 -9.18046 	 14.8112
| 12> H 	 -33.6209 	 -8.26839 	 14.3105
| 13> C 	 -32.0453 	 -10.3887 	 15.5202
| 14> H 	 -31.9281 	 -11.0337 	 16.45
| 15> H 	 -31.6663 	 -9.41422 	 15.7415
| 16> C 	 -31.314 	 -10.9474 	 14.3441
| 17> H 	 -31.8014 	 -11.9441 	 14.1754
| 18> H 	 -31.6009 	 -10.3652 	 13.4603
| 19> C 	 -29.7718 	 -10.9048 	 14.4214
| 20> H 	 -29.3681 	 -9.96563 	 14.8057
| 21> H 	 -29.3494 	 -11.65 	 15.1237
| 22> H 	 -29.3793 	 -11.0912 	 13.4238
| 23> S 	 -36.5527 	 -7.9295 	 12.5685
| 24> C 	 -37.8399 	 -6.82452 	 12.7334
| 25> C 	 -38.2695 	 -6.66205 	 14.0413
| 26> C 	 -37.506 	 -7.48173 	 14.9566
| 27> C 	 -36.5888 	 -8.22136 	 14.2795
| 28> H 	 -39.1237 	 -6.08324 	 14.2178
| 29> C 	 -37.7276 	 -7.50478 	 16.4721
| 30> H 	 -36.7853 	 -7.34963 	 16.9105
| 31> H 	 -37.8863 	 -8.50747 	 16.7677
| 32> C 	 -38.6812 	 -6.57313 	 17.0861
| 33> H 	 -38.7663 	 -6.8275 	 18.1407
| 34> H 	 -39.6262 	 -6.68464 	 16.5448
| 35> C 	 -38.2539 	 -5.11472 	 16.9926
| 36> H 	 -37.287 	 -4.95138 	 17.5551
| 37> H 	 -38.9795 	 -4.46981 	 17.3376
| 38> H 	 -37.9917 	 -4.7788 	 15.9286
| 39> H 	 -34.1915 	 -12.2843 	 15.9799
| 40> H 	 -38.2956 	 -6.31063 	 11.9043
| 41> *
| 42>
| 43>                          ****END OF INPUT****

CARTESIAN COORDINATES (ANGSTROEM)
---------------------------------
  S    -36.067300  -10.663300   15.525900
  C    -34.387700  -11.142900   15.862900
  C    -33.488300  -10.195000   15.457200
  C    -34.183800   -9.069150   14.772800
  C    -35.584100   -9.180460   14.811200
  H    -33.620900   -8.268390   14.310500
  C    -32.045300  -10.388700   15.520200
  H    -31.928100  -11.033700   16.450000
  H    -31.666300   -9.414220   15.741500
  C    -31.314000  -10.947400   14.344100
  H    -31.801400  -11.944100   14.175400
  H    -31.600900  -10.365200   13.460300
  C    -29.771800  -10.904800   14.421400
  H    -29.368100   -9.965630   14.805700
  H    -29.349400  -11.650000   15.123700
  H    -29.379300  -11.091200   13.423800
  S    -36.552700   -7.929500   12.568500
  C    -37.839900   -6.824520   12.733400
  C    -38.269500   -6.662050   14.041300
  C    -37.506000   -7.481730   14.956600
  C    -36.588800   -8.221360   14.279500
  H    -39.123700   -6.083240   14.217800
  C    -37.727600   -7.504780   16.472100
  H    -36.785300   -7.349630   16.910500
  H    -37.886300   -8.507470   16.767700
  C    -38.681200   -6.573130   17.086100
  H    -38.766300   -6.827500   18.140700
  H    -39.626200   -6.684640   16.544800
  C    -38.253900   -5.114720   16.992600
  H    -37.287000   -4.951380   17.555100
  H    -38.979500   -4.469810   17.337600
  H    -37.991700   -4.778800   15.928600
  H    -34.191500  -12.284300   15.979900
  H    -38.295600   -6.310630   11.904300

 Total Charge           Charge          ....    0
 Multiplicity           Mult            ....    1
 Number of Electrons    NEL             ....  134
 Basis Dimension        Dim             ....  322

ORBITAL ENERGIES
----------------

  NO   OCC          E(Eh)            E(eV)
   0   2.0000     -88.965763     -2420.8815
   1   2.0000     -88.962639     -2420.7965
   2   2.0000     -10.332125      -281.1514
   3   2.0000     -10.319781      -280.8155
   4   2.0000     -10.318405      -280.7781
   5   2.0000     -10.311723      -280.5963
   6   2.0000     -10.302600      -280.3480
   7   2.0000     -10.301983      -280.3312
   8   2.0000     -10.300805      -280.2992
   9   2.0000     -10.291008      -280.0326
  10   2.0000     -10.290094      -280.0077
  11   2.0000     -10.286806      -279.9182
  12   2.0000     -10.284803      -279.8637
  13   2.0000     -10.282061      -279.7891
  14   2.0000     -10.277095      -279.6540
  15   2.0000     -10.276082      -279.6264
  16   2.0000      -8.081512      -219.9091
  17   2.0000      -8.077610      -219.8029
  18   2.0000      -6.039841      -164.3524
  19   2.0000      -6.036134      -164.2515
  20   2.0000      -6.035915      -164.2456
  21   2.0000      -6.032380      -164.1494
  22   2.0000      -6.031983      -164.1386
  23   2.0000      -6.028447      -164.0424
  24   2.0000      -1.008051       -27.4305
  25   2.0000      -0.984264       -26.7832
  26   2.0000      -0.920356       -25.0442
  27   2.0000      -0.919614       -25.0240
  28   2.0000      -0.867265       -23.5995
  29   2.0000      -0.849262       -23.1096
  30   2.0000      -0.844298       -22.9745
  31   2.0000      -0.811971       -22.0949
  32   2.0000      -0.788955       -21.4686
  33   2.0000      -0.775780       -21.1100
  34   2.0000      -0.706681       -19.2298
  35   2.0000      -0.700778       -19.0691
  36   2.0000      -0.690369       -18.7859
  37   2.0000      -0.658895       -17.9294
  38   2.0000      -0.634376       -17.2622
  39   2.0000      -0.617263       -16.7966
  40   2.0000      -0.605422       -16.4744
  41   2.0000      -0.572860       -15.5883
  42   2.0000      -0.561235       -15.2720
  43   2.0000      -0.554373       -15.0853
  44   2.0000      -0.540857       -14.7175
  45   2.0000      -0.529964       -14.4211
  46   2.0000      -0.515548       -14.0288
  47   2.0000      -0.514205       -13.9922
  48   2.0000      -0.503312       -13.6958
  49   2.0000      -0.499199       -13.5839
  50   2.0000      -0.492759       -13.4087
  51   2.0000      -0.477526       -12.9941
  52   2.0000      -0.466155       -12.6847
  53   2.0000      -0.464673       -12.6444
  54   2.0000      -0.455837       -12.4039
  55   2.0000      -0.453078       -12.3289
  56   2.0000      -0.442772       -12.0484
  57   2.0000      -0.439115       -11.9489
  58   2.0000      -0.438241       -11.9251
  59   2.0000      -0.424450       -11.5499
  60   2.0000      -0.420411       -11.4400
  61   2.0000      -0.417335       -11.3563
  62   2.0000      -0.411384       -11.1943
  63   2.0000      -0.337240        -9.1768
  64   2.0000      -0.330844        -9.0027
  65   2.0000      -0.325605        -8.8602
  66   2.0000      -0.300257        -8.1704
  67   0.0000       0.041883         1.1397
  68   0.0000       0.065724         1.7884
  69   0.0000       0.108832         2.9615
  70   0.0000       0.120303         3.2736
  71   0.0000       0.130960         3.5636

MULLIKEN ATOMIC CHARGES
-----------------------
   0 S :    0.101177
   1 C :   -0.168966
   2 C :   -0.108055
   3 C :    0.035319
   4 C :   -0.166894
   5 H :    0.012787
   6 C :    0.053258
   7 H :    0.036359
   8 H :    0.008283
   9 C :   -0.059278
  10 H :    0.026650
  11 H :    0.022451
  12 C :   -0.034019
  13 H :    0.029227
  14 H :    0.034188
  15 H :    0.041076
  16 S :    0.132462
  17 C :   -0.086349
  18 C :   -0.042504
  19 C :   -0.038482
  20 C :   -0.174803
  21 H :    0.002906
  22 C :    0.145680
  23 H :    0.006184
  24 H :    0.009577
  25 C :   -0.043361
  26 H :    0.034954
  27 H :    0.026124
  28 C :   -0.072780
  29 H :    0.032382
  30 H :    0.023939
  31 H :    0.039464
  32 H :    0.092318
  33 H :    0.048728
Sum of atomic charges:   -0.0000000

LOEWDIN ATOMIC CHARGES
----------------------
   0 S :    0.404990
   1 C :   -0.211906
   2 C :   -0.062178
   3 C :   -0.065991
   4 C :   -0.201173
   5 H :    0.028517
   6 C :   -0.045390
   7 H :    0.040605
   8 H :    0.025896
   9 C :   -0.044039
  10 H :    0.029443
  11 H :    0.025610
  12 C :   -0.064336
  13 H :    0.026529
  14 H :    0.028244
  15 H :    0.029612
  16 S :    0.433716
  17 C :   -0.194670
  18 C :   -0.070693
  19 C :   -0.044893
  20 C :   -0.213000
  21 H :    0.022051
  22 C :   -0.032293
  23 H :    0.029709
  24 H :    0.026154
  25 C :   -0.040780
  26 H :    0.033226
  27 H :    0.024102
  28 C :   -0.067321
  29 H :    0.030416
  30 H :    0.012542
  31 H :    0.032361
  32 H :    0.048939
  33 H :    0.026002

  Mayer bond orders larger than 0.100000
B(  0-S ,  1-C ) :   1.1219 B(  0-S ,  4-C ) :   1.1752 B(  1-C ,  2-C ) :   1.6352
B(  1-C , 32-H ) :   0.9506 B(  2-C ,  3-C ) :   1.2182 B(  2-C ,  6-C ) :   1.0401
B(  3-C ,  4-C ) :   1.5757 B(  3-C ,  5-H ) :   0.9956 B(  4-C , 20-C ) :   0.9820
B(  6-C ,  7-H ) :   0.9376 B(  6-C ,  8-H ) :   0.9180 B(  6-C ,  9-C ) :   1.0746
B(  9-C , 10-H ) :   0.9499 B(  9-C , 11-H ) :   0.9525 B(  9-C , 12-C ) :   1.0714
B( 12-C , 13-H ) :   0.9735 B( 12-C , 14-H ) :   0.9757 B( 12-C , 15-H ) :   0.9758
B( 16-S , 17-C ) :   1.1683 B( 16-S , 20-C ) :   1.1518 B( 17-C , 18-C ) :   1.6162
B( 17-C , 33-H ) :   0.9643 B( 18-C , 19-C ) :   1.2225 B( 18-C , 21-H ) :   0.9937
B( 19-C , 20-C ) :   1.6367 B( 19-C , 22-C ) :   1.0184 B( 22-C , 23-H ) :   0.9098
B( 22-C , 24-H ) :   0.9133 B( 22-C , 25-C ) :   1.0974 B( 25-C , 26-H ) :   0.9445
B( 25-C , 27-H ) :   0.9462 B( 25-C , 28-C ) :   1.0838 B( 28-C , 29-H ) :   0.9699
B( 28-C , 30-H ) :   0.9743 B( 28-C , 31-H ) :   0.9731

Dispersion correction           -0.014044343
FINAL SINGLE POINT ENERGY     -1339.875984134354

DIPOLE MOMENT
-------------
                                X             Y             Z
Electronic contribution:    -12.06726      -5.20309     -10.31215
Nuclear contribution   :     12.32267       5.34319      10.38780
                        -----------------------------------------
Total Dipole Moment    :      0.25541       0.14010       0.07565
                        -----------------------------------------
Magnitude (a.u.)       :      0.30097
Magnitude (Debye)      :      0.76501

Rotational constants in cm-1:     0.023777     0.006815     0.006184
Rotational constants in MHz :   712.813868   204.321123   185.387174

                             ****ORCA TERMINATED NORMALLY****
TOTAL RUN TIME: 0 days 0 hours 0 minutes 21 seconds 92 msec
