                         Program Version 4.2.1 -  RELEASE  -
|  1> ! wB97X-D3 SP def2-SVP
|  2> %pal
|  3> nprocs 24
|  4> end
|  5>
|  6> * xyz 0 1
|  7> S 	 -100.294 	 16.8919 	 -120.874
|  8> C 	 -101.538 	 18.117 	 -120.381
|  9> C 	 -102.031 	 18.8395 	 -121.412
| 10> C 	 -101.542 	 18.398 	 -122.649
| 11> C 	 -100.722 	 17.2936 	 -122.567
| 12> H 	 -101.768 	 18.7444 	 -123.621
| 13> C 	 -103.027 	 19.9461 	 -121.267
| 14> H 	 -103.402 	 20.1723 	 -122.242
| 15> H 	 -102.316 	 20.623 	 -120.825
| 16> C 	 -104.189 	 19.6075 	 -120.335
| 17> H 	 -104.71 	 18.6456 	 -120.513
| 18> H 	 -103.805 	 19.5042 	 -119.276
| 19> C 	 -105.336 	 20.5184 	 -120.368
| 20> H 	 -106.081 	 20.2073 	 -119.641
| 21> H 	 -105.079 	 21.5893 	 -120.265
| 22> H 	 -105.707 	 20.4938 	 -121.342
| 23> S 	 -98.1918 	 16.3891 	 -123.379
| 24> C 	 -97.9926 	 15.646 	 -124.899
| 25> C 	 -99.0958 	 15.8466 	 -125.669
| 26> C 	 -100.217 	 16.3336 	 -124.947
| 27> C 	 -99.9223 	 16.6867 	 -123.646
| 28> H 	 -98.9988 	 15.5124 	 -126.718
| 29> C 	 -101.531 	 16.3622 	 -125.672
| 30> H 	 -101.364 	 16.3698 	 -126.727
| 31> H 	 -102.014 	 17.2762 	 -125.456
| 32> C 	 -102.317 	 15.0612 	 -125.352
| 33> H 	 -102.389 	 15.0066 	 -124.279
| 34> H 	 -101.779 	 14.1238 	 -125.671
| 35> C 	 -103.712 	 15.1059 	 -125.971
| 36> H 	 -103.618 	 15.1471 	 -127.069
| 37> H 	 -104.315 	 15.8571 	 -125.567
| 38> H 	 -104.138 	 14.1004 	 -125.872
| 39> H 	 -101.674 	 18.3425 	 -119.285
| 40> H 	 -97.0252 	 15.4844 	 -125.307
| 41> *
| 42>
| 43>                          ****END OF INPUT****

CARTESIAN COORDINATES (ANGSTROEM)
---------------------------------
  S    -100.294000   16.891900  -120.874000
  C    -101.538000   18.117000  -120.381000
  C    -102.031000   18.839500  -121.412000
  C    -101.542000   18.398000  -122.649000
  C    -100.722000   17.293600  -122.567000
  H    -101.768000   18.744400  -123.621000
  C    -103.027000   19.946100  -121.267000
  H    -103.402000   20.172300  -122.242000
  H    -102.316000   20.623000  -120.825000
  C    -104.189000   19.607500  -120.335000
  H    -104.710000   18.645600  -120.513000
  H    -103.805000   19.504200  -119.276000
  C    -105.336000   20.518400  -120.368000
  H    -106.081000   20.207300  -119.641000
  H    -105.079000   21.589300  -120.265000
  H    -105.707000   20.493800  -121.342000
  S    -98.191800   16.389100  -123.379000
  C    -97.992600   15.646000  -124.899000
  C    -99.095800   15.846600  -125.669000
  C    -100.217000   16.333600  -124.947000
  C    -99.922300   16.686700  -123.646000
  H    -98.998800   15.512400  -126.718000
  C    -101.531000   16.362200  -125.672000
  H    -101.364000   16.369800  -126.727000
  H    -102.014000   17.276200  -125.456000
  C    -102.317000   15.061200  -125.352000
  H    -102.389000   15.006600  -124.279000
  H    -101.779000   14.123800  -125.671000
  C    -103.712000   15.105900  -125.971000
  H    -103.618000   15.147100  -127.069000
  H    -104.315000   15.857100  -125.567000
  H    -104.138000   14.100400  -125.872000
  H    -101.674000   18.342500  -119.285000
  H    -97.025200   15.484400  -125.307000

 Total Charge           Charge          ....    0
 Multiplicity           Mult            ....    1
 Number of Electrons    NEL             ....  134
 Basis Dimension        Dim             ....  322

ORBITAL ENERGIES
----------------

  NO   OCC          E(Eh)            E(eV)
   0   2.0000     -88.964685     -2420.8522
   1   2.0000     -88.959697     -2420.7164
   2   2.0000     -10.333294      -281.1832
   3   2.0000     -10.326978      -281.0114
   4   2.0000     -10.315458      -280.6979
   5   2.0000     -10.305610      -280.4299
   6   2.0000     -10.298379      -280.2332
   7   2.0000     -10.297309      -280.2040
   8   2.0000     -10.291940      -280.0579
   9   2.0000     -10.291155      -280.0366
  10   2.0000     -10.288770      -279.9717
  11   2.0000     -10.288637      -279.9680
  12   2.0000     -10.285453      -279.8814
  13   2.0000     -10.283652      -279.8324
  14   2.0000     -10.272644      -279.5329
  15   2.0000     -10.270822      -279.4833
  16   2.0000      -8.078017      -219.8140
  17   2.0000      -8.075194      -219.7372
  18   2.0000      -6.036597      -164.2642
  19   2.0000      -6.033659      -164.1842
  20   2.0000      -6.033002      -164.1663
  21   2.0000      -6.029581      -164.0732
  22   2.0000      -6.028509      -164.0441
  23   2.0000      -6.025942      -163.9742
  24   2.0000      -1.006897       -27.3991
  25   2.0000      -0.986590       -26.8465
  26   2.0000      -0.922520       -25.1030
  27   2.0000      -0.910927       -24.7876
  28   2.0000      -0.874624       -23.7997
  29   2.0000      -0.854540       -23.2532
  30   2.0000      -0.846263       -23.0280
  31   2.0000      -0.819592       -22.3022
  32   2.0000      -0.784817       -21.3559
  33   2.0000      -0.772911       -21.0320
  34   2.0000      -0.707951       -19.2643
  35   2.0000      -0.700351       -19.0575
  36   2.0000      -0.691519       -18.8172
  37   2.0000      -0.661365       -17.9967
  38   2.0000      -0.637200       -17.3391
  39   2.0000      -0.618707       -16.8359
  40   2.0000      -0.595591       -16.2068
  41   2.0000      -0.585865       -15.9422
  42   2.0000      -0.568038       -15.4571
  43   2.0000      -0.560369       -15.2484
  44   2.0000      -0.537245       -14.6192
  45   2.0000      -0.530353       -14.4316
  46   2.0000      -0.521210       -14.1828
  47   2.0000      -0.515743       -14.0341
  48   2.0000      -0.512197       -13.9376
  49   2.0000      -0.494479       -13.4555
  50   2.0000      -0.488151       -13.2833
  51   2.0000      -0.483085       -13.1454
  52   2.0000      -0.481130       -13.0922
  53   2.0000      -0.460481       -12.5303
  54   2.0000      -0.456716       -12.4279
  55   2.0000      -0.448167       -12.1952
  56   2.0000      -0.440805       -11.9949
  57   2.0000      -0.438425       -11.9302
  58   2.0000      -0.437037       -11.8924
  59   2.0000      -0.428082       -11.6487
  60   2.0000      -0.415999       -11.3199
  61   2.0000      -0.411153       -11.1880
  62   2.0000      -0.406978       -11.0744
  63   2.0000      -0.350707        -9.5432
  64   2.0000      -0.332911        -9.0590
  65   2.0000      -0.326926        -8.8961
  66   2.0000      -0.287971        -7.8361
  67   0.0000       0.024606         0.6696
  68   0.0000       0.072038         1.9603
  69   0.0000       0.099836         2.7167
  70   0.0000       0.126863         3.4521
  71   0.0000       0.137914         3.7528

MULLIKEN ATOMIC CHARGES
-----------------------
   0 S :    0.084414
   1 C :   -0.167757
   2 C :   -0.072503
   3 C :    0.027696
   4 C :   -0.135065
   5 H :   -0.008088
   6 C :    0.140254
   7 H :    0.010774
   8 H :    0.049625
   9 C :   -0.121043
  10 H :    0.034128
  11 H :    0.026879
  12 C :   -0.003810
  13 H :    0.040448
  14 H :    0.018739
  15 H :    0.007417
  16 S :    0.090627
  17 C :   -0.074740
  18 C :   -0.066023
  19 C :   -0.060044
  20 C :   -0.139556
  21 H :    0.031352
  22 C :    0.119530
  23 H :    0.005275
  24 H :    0.001224
  25 C :   -0.101658
  26 H :    0.032737
  27 H :    0.036754
  28 C :   -0.006954
  29 H :    0.021324
  30 H :    0.032187
  31 H :    0.028088
  32 H :    0.066525
  33 H :    0.051244
Sum of atomic charges:   -0.0000000

LOEWDIN ATOMIC CHARGES
----------------------
   0 S :    0.356415
   1 C :   -0.185422
   2 C :   -0.062742
   3 C :   -0.058430
   4 C :   -0.165965
   5 H :    0.024367
   6 C :   -0.022384
   7 H :    0.025676
   8 H :    0.046624
   9 C :   -0.048585
  10 H :    0.031871
  11 H :    0.024316
  12 C :   -0.063081
  13 H :    0.031476
  14 H :    0.023436
  15 H :    0.015537
  16 S :    0.406417
  17 C :   -0.196671
  18 C :   -0.077362
  19 C :   -0.058731
  20 C :   -0.193582
  21 H :    0.037425
  22 C :   -0.024799
  23 H :    0.025668
  24 H :    0.019117
  25 C :   -0.033622
  26 H :    0.022365
  27 H :    0.031905
  28 C :   -0.062792
  29 H :    0.025815
  30 H :    0.017360
  31 H :    0.029278
  32 H :    0.034573
  33 H :    0.024528

  Mayer bond orders larger than 0.100000
B(  0-S ,  1-C ) :   1.1082 B(  0-S ,  4-C ) :   1.1357 B(  1-C ,  2-C ) :   1.6416
B(  1-C , 32-H ) :   0.9612 B(  2-C ,  3-C ) :   1.2266 B(  2-C ,  6-C ) :   0.9852
B(  3-C ,  4-C ) :   1.5941 B(  3-C ,  5-H ) :   0.9986 B(  4-C , 20-C ) :   1.0463
B(  6-C ,  7-H ) :   0.9465 B(  6-C ,  8-H ) :   0.9192 B(  6-C ,  9-C ) :   1.0768
B(  9-C , 10-H ) :   0.9602 B(  9-C , 11-H ) :   0.9440 B(  9-C , 12-C ) :   1.1014
B( 12-C , 13-H ) :   0.9706 B( 12-C , 14-H ) :   0.9674 B( 12-C , 15-H ) :   0.9690
B( 16-S , 17-C ) :   1.1658 B( 16-S , 20-C ) :   1.1355 B( 17-C , 18-C ) :   1.6166
B( 17-C , 33-H ) :   0.9619 B( 18-C , 19-C ) :   1.2492 B( 18-C , 21-H ) :   0.9846
B( 19-C , 20-C ) :   1.5953 B( 19-C , 22-C ) :   1.0503 B( 22-C , 23-H ) :   0.9259
B( 22-C , 24-H ) :   0.9298 B( 22-C , 25-C ) :   1.0582 B( 25-C , 26-H ) :   0.9592
B( 25-C , 27-H ) :   0.9548 B( 25-C , 28-C ) :   1.0894 B( 28-C , 29-H ) :   0.9706
B( 28-C , 30-H ) :   0.9760 B( 28-C , 31-H ) :   0.9710

Dispersion correction           -0.013568620
FINAL SINGLE POINT ENERGY     -1339.860523965869

DIPOLE MOMENT
-------------
                                X             Y             Z
Electronic contribution:     27.77994      -6.31647       5.82425
Nuclear contribution   :    -28.28238       6.66769      -6.22466
                        -----------------------------------------
Total Dipole Moment    :     -0.50244       0.35122      -0.40040
                        -----------------------------------------
Magnitude (a.u.)       :      0.73220
Magnitude (Debye)      :      1.86111

Rotational constants in cm-1:     0.019258     0.008112     0.006234
Rotational constants in MHz :   577.338253   243.203892   186.895356

                             ****ORCA TERMINATED NORMALLY****
TOTAL RUN TIME: 0 days 0 hours 0 minutes 21 seconds 334 msec
