                         Program Version 4.2.1 -  RELEASE  -
|  1> ! wB97X-D3 SP def2-SVP
|  2> %pal
|  3> nprocs 24
|  4> end
|  5>
|  6> * xyz 0 1
|  7> S 	 -121.519 	 26.2232 	 -110.707
|  8> C 	 -120.517 	 27.6542 	 -110.914
|  9> C 	 -121.257 	 28.5359 	 -111.653
| 10> C 	 -122.59 	 28.1414 	 -112.091
| 11> C 	 -122.896 	 26.9228 	 -111.556
| 12> H 	 -123.243 	 28.6912 	 -112.702
| 13> C 	 -120.793 	 29.9812 	 -111.894
| 14> H 	 -120.438 	 30.0186 	 -112.899
| 15> H 	 -120.006 	 30.1574 	 -111.241
| 16> C 	 -121.796 	 31.0644 	 -111.65
| 17> H 	 -122.607 	 30.9552 	 -112.343
| 18> H 	 -122.208 	 30.9009 	 -110.645
| 19> C 	 -121.098 	 32.4927 	 -111.802
| 20> H 	 -121.863 	 33.3072 	 -111.711
| 21> H 	 -120.229 	 32.5628 	 -111.075
| 22> H 	 -120.64 	 32.6162 	 -112.828
| 23> S 	 -124.008 	 24.5519 	 -112.706
| 24> C 	 -125.773 	 24.3344 	 -112.507
| 25> C 	 -126.408 	 25.4789 	 -112.05
| 26> C 	 -125.435 	 26.5588 	 -111.819
| 27> C 	 -124.062 	 26.1708 	 -111.947
| 28> H 	 -127.526 	 25.5194 	 -111.838
| 29> C 	 -125.866 	 27.7509 	 -111.046
| 30> H 	 -125.017 	 28.2963 	 -110.581
| 31> H 	 -126.432 	 27.303 	 -110.202
| 32> C 	 -126.614 	 28.8033 	 -111.855
| 33> H 	 -127.35 	 28.2949 	 -112.431
| 34> H 	 -125.905 	 29.1957 	 -112.697
| 35> C 	 -127.308 	 29.8277 	 -110.952
| 36> H 	 -126.575 	 30.4465 	 -110.482
| 37> H 	 -127.952 	 29.3012 	 -110.256
| 38> H 	 -127.948 	 30.5078 	 -111.53
| 39> H 	 -119.534 	 27.9004 	 -110.496
| 40> H 	 -126.435 	 23.4623 	 -112.679
| 41> *
| 42>
| 43>                          ****END OF INPUT****

CARTESIAN COORDINATES (ANGSTROEM)
---------------------------------
  S    -121.519000   26.223200  -110.707000
  C    -120.517000   27.654200  -110.914000
  C    -121.257000   28.535900  -111.653000
  C    -122.590000   28.141400  -112.091000
  C    -122.896000   26.922800  -111.556000
  H    -123.243000   28.691200  -112.702000
  C    -120.793000   29.981200  -111.894000
  H    -120.438000   30.018600  -112.899000
  H    -120.006000   30.157400  -111.241000
  C    -121.796000   31.064400  -111.650000
  H    -122.607000   30.955200  -112.343000
  H    -122.208000   30.900900  -110.645000
  C    -121.098000   32.492700  -111.802000
  H    -121.863000   33.307200  -111.711000
  H    -120.229000   32.562800  -111.075000
  H    -120.640000   32.616200  -112.828000
  S    -124.008000   24.551900  -112.706000
  C    -125.773000   24.334400  -112.507000
  C    -126.408000   25.478900  -112.050000
  C    -125.435000   26.558800  -111.819000
  C    -124.062000   26.170800  -111.947000
  H    -127.526000   25.519400  -111.838000
  C    -125.866000   27.750900  -111.046000
  H    -125.017000   28.296300  -110.581000
  H    -126.432000   27.303000  -110.202000
  C    -126.614000   28.803300  -111.855000
  H    -127.350000   28.294900  -112.431000
  H    -125.905000   29.195700  -112.697000
  C    -127.308000   29.827700  -110.952000
  H    -126.575000   30.446500  -110.482000
  H    -127.952000   29.301200  -110.256000
  H    -127.948000   30.507800  -111.530000
  H    -119.534000   27.900400  -110.496000
  H    -126.435000   23.462300  -112.679000

 Total Charge           Charge          ....    0
 Multiplicity           Mult            ....    1
 Number of Electrons    NEL             ....  134
 Basis Dimension        Dim             ....  322

ORBITAL ENERGIES
----------------

  NO   OCC          E(Eh)            E(eV)
   0   2.0000     -88.969248     -2420.9763
   1   2.0000     -88.967125     -2420.9185
   2   2.0000     -10.333168      -281.1798
   3   2.0000     -10.332249      -281.1548
   4   2.0000     -10.324167      -280.9349
   5   2.0000     -10.317924      -280.7650
   6   2.0000     -10.307605      -280.4842
   7   2.0000     -10.304724      -280.4058
   8   2.0000     -10.301492      -280.3179
   9   2.0000     -10.296800      -280.1902
  10   2.0000     -10.295368      -280.1512
  11   2.0000     -10.289077      -279.9800
  12   2.0000     -10.288225      -279.9568
  13   2.0000     -10.286450      -279.9085
  14   2.0000     -10.278506      -279.6924
  15   2.0000     -10.278264      -279.6858
  16   2.0000      -8.082267      -219.9297
  17   2.0000      -8.081371      -219.9053
  18   2.0000      -6.041105      -164.3868
  19   2.0000      -6.040108      -164.3597
  20   2.0000      -6.037054      -164.2766
  21   2.0000      -6.035902      -164.2452
  22   2.0000      -6.032705      -164.1582
  23   2.0000      -6.031919      -164.1369
  24   2.0000      -1.004025       -27.3209
  25   2.0000      -0.975795       -26.5527
  26   2.0000      -0.913620       -24.8609
  27   2.0000      -0.909238       -24.7416
  28   2.0000      -0.873533       -23.7700
  29   2.0000      -0.847432       -23.0598
  30   2.0000      -0.840037       -22.8586
  31   2.0000      -0.817304       -22.2400
  32   2.0000      -0.776621       -21.1329
  33   2.0000      -0.765060       -20.8183
  34   2.0000      -0.713659       -19.4196
  35   2.0000      -0.696668       -18.9573
  36   2.0000      -0.691075       -18.8051
  37   2.0000      -0.653075       -17.7711
  38   2.0000      -0.642217       -17.4756
  39   2.0000      -0.622359       -16.9352
  40   2.0000      -0.591181       -16.0869
  41   2.0000      -0.574180       -15.6242
  42   2.0000      -0.566402       -15.4126
  43   2.0000      -0.560474       -15.2513
  44   2.0000      -0.524719       -14.2783
  45   2.0000      -0.520941       -14.1755
  46   2.0000      -0.517652       -14.0860
  47   2.0000      -0.511892       -13.9293
  48   2.0000      -0.506543       -13.7837
  49   2.0000      -0.503298       -13.6954
  50   2.0000      -0.492750       -13.4084
  51   2.0000      -0.478325       -13.0159
  52   2.0000      -0.466943       -12.7062
  53   2.0000      -0.460857       -12.5406
  54   2.0000      -0.457720       -12.4552
  55   2.0000      -0.452378       -12.3098
  56   2.0000      -0.445909       -12.1338
  57   2.0000      -0.437488       -11.9047
  58   2.0000      -0.434816       -11.8319
  59   2.0000      -0.429625       -11.6907
  60   2.0000      -0.418094       -11.3769
  61   2.0000      -0.408007       -11.1024
  62   2.0000      -0.405899       -11.0451
  63   2.0000      -0.351118        -9.5544
  64   2.0000      -0.328952        -8.9512
  65   2.0000      -0.326174        -8.8757
  66   2.0000      -0.293530        -7.9873
  67   0.0000       0.024555         0.6682
  68   0.0000       0.070024         1.9055
  69   0.0000       0.110939         3.0188
  70   0.0000       0.117209         3.1894
  71   0.0000       0.124580         3.3900

MULLIKEN ATOMIC CHARGES
-----------------------
   0 S :    0.103413
   1 C :   -0.116443
   2 C :   -0.109667
   3 C :    0.053825
   4 C :   -0.143869
   5 H :    0.000803
   6 C :    0.106518
   7 H :    0.026781
   8 H :   -0.012461
   9 C :   -0.086012
  10 H :    0.024071
  11 H :    0.037039
  12 C :   -0.090398
  13 H :    0.050404
  14 H :    0.046531
  15 H :    0.038656
  16 S :    0.113407
  17 C :   -0.101567
  18 C :   -0.057013
  19 C :   -0.026921
  20 C :   -0.137811
  21 H :    0.056840
  22 C :   -0.009394
  23 H :    0.032292
  24 H :    0.038407
  25 C :   -0.094008
  26 H :    0.008902
  27 H :    0.035348
  28 C :   -0.005397
  29 H :    0.028736
  30 H :    0.031145
  31 H :    0.030932
  32 H :    0.059106
  33 H :    0.067806
Sum of atomic charges:    0.0000000

LOEWDIN ATOMIC CHARGES
----------------------
   0 S :    0.396538
   1 C :   -0.201301
   2 C :   -0.057787
   3 C :   -0.047306
   4 C :   -0.184174
   5 H :    0.024698
   6 C :   -0.029576
   7 H :    0.028033
   8 H :    0.015478
   9 C :   -0.039481
  10 H :    0.015682
  11 H :    0.026986
  12 C :   -0.072956
  13 H :    0.030760
  14 H :    0.031196
  15 H :    0.029818
  16 S :    0.375561
  17 C :   -0.184404
  18 C :   -0.079128
  19 C :   -0.053663
  20 C :   -0.189999
  21 H :    0.047024
  22 C :   -0.045636
  23 H :    0.029995
  24 H :    0.035375
  25 C :   -0.046685
  26 H :    0.012595
  27 H :    0.031311
  28 C :   -0.058056
  29 H :    0.022212
  30 H :    0.027233
  31 H :    0.027576
  32 H :    0.040630
  33 H :    0.041450

  Mayer bond orders larger than 0.100000
B(  0-S ,  1-C ) :   1.1062 B(  0-S ,  4-C ) :   1.1422 B(  1-C ,  2-C ) :   1.6473
B(  1-C , 32-H ) :   0.9672 B(  2-C ,  3-C ) :   1.2068 B(  2-C ,  6-C ) :   1.0164
B(  3-C ,  4-C ) :   1.5628 B(  3-C ,  5-H ) :   1.0036 B(  4-C , 20-C ) :   1.0767
B(  6-C ,  7-H ) :   0.9267 B(  6-C ,  8-H ) :   0.9459 B(  6-C ,  9-C ) :   1.0764
B(  9-C , 10-H ) :   0.9484 B(  9-C , 11-H ) :   0.9591 B(  9-C , 12-C ) :   1.0719
B( 12-C , 13-H ) :   0.9754 B( 12-C , 14-H ) :   0.9759 B( 12-C , 15-H ) :   0.9750
B( 16-S , 17-C ) :   1.1294 B( 16-S , 20-C ) :   1.1085 B( 17-C , 18-C ) :   1.6578
B( 17-C , 33-H ) :   0.9586 B( 18-C , 19-C ) :   1.2156 B( 18-C , 21-H ) :   0.9715
B( 19-C , 20-C ) :   1.5853 B( 19-C , 22-C ) :   1.0528 B( 22-C , 23-H ) :   0.9358
B( 22-C , 24-H ) :   0.9467 B( 22-C , 25-C ) :   1.0464 B( 25-C , 26-H ) :   0.9586
B( 25-C , 27-H ) :   0.9491 B( 25-C , 28-C ) :   1.0746 B( 28-C , 29-H ) :   0.9754
B( 28-C , 30-H ) :   0.9733 B( 28-C , 31-H ) :   0.9740

Dispersion correction           -0.014175679
FINAL SINGLE POINT ENERGY     -1339.863263317350

DIPOLE MOMENT
-------------
                                X             Y             Z
Electronic contribution:      7.92179     -31.51427      -1.62746
Nuclear contribution   :     -8.21521      32.16369       1.68626
                        -----------------------------------------
Total Dipole Moment    :     -0.29342       0.64943       0.05880
                        -----------------------------------------
Magnitude (a.u.)       :      0.71506
Magnitude (Debye)      :      1.81754

Rotational constants in cm-1:     0.016614     0.009453     0.006494
Rotational constants in MHz :   498.080028   283.399407   194.670892

                             ****ORCA TERMINATED NORMALLY****
TOTAL RUN TIME: 0 days 0 hours 0 minutes 20 seconds 662 msec
