                         Program Version 4.2.1 -  RELEASE  -
|  1> ! wB97X-D3 SP def2-SVP
|  2> %pal
|  3> nprocs 24
|  4> end
|  5>
|  6> * xyz 0 1
|  7> S 	 -46.8324 	 -4.99144 	 -18.7049
|  8> C 	 -47.8097 	 -6.45949 	 -18.7745
|  9> C 	 -49.1591 	 -6.09977 	 -18.593
| 10> C 	 -49.3381 	 -4.67869 	 -18.3605
| 11> C 	 -48.1401 	 -3.9855 	 -18.2
| 12> H 	 -50.2812 	 -4.2198 	 -18.0964
| 13> C 	 -50.2891 	 -7.10237 	 -18.871
| 14> H 	 -50.8859 	 -7.12948 	 -17.9248
| 15> H 	 -49.7755 	 -8.10269 	 -18.905
| 16> C 	 -51.3118 	 -6.82916 	 -19.9546
| 17> H 	 -51.5971 	 -5.81221 	 -19.7982
| 18> H 	 -50.889 	 -7.07874 	 -20.8961
| 19> C 	 -52.5902 	 -7.75115 	 -19.851
| 20> H 	 -53.2944 	 -7.53751 	 -19.0266
| 21> H 	 -53.1837 	 -7.51152 	 -20.732
| 22> H 	 -52.4051 	 -8.81533 	 -19.8022
| 23> S 	 -46.7447 	 -1.87444 	 -19.094
| 24> C 	 -47.0675 	 -0.286137 	 -18.5153
| 25> C 	 -48.0303 	 -0.253923 	 -17.528
| 26> C 	 -48.5195 	 -1.57459 	 -17.2685
| 27> C 	 -47.8911 	 -2.57848 	 -17.9827
| 28> H 	 -48.3168 	 0.712608 	 -17.0651
| 29> C 	 -49.5527 	 -1.68592 	 -16.1822
| 30> H 	 -50.3538 	 -2.43221 	 -16.4736
| 31> H 	 -50.0592 	 -0.685137 	 -16.2052
| 32> C 	 -49.0314 	 -1.92521 	 -14.6707
| 33> H 	 -48.4213 	 -1.03119 	 -14.4104
| 34> H 	 -48.3103 	 -2.75734 	 -14.6727
| 35> C 	 -50.1103 	 -2.3535 	 -13.6888
| 36> H 	 -50.7118 	 -1.48835 	 -13.398
| 37> H 	 -49.6502 	 -2.89529 	 -12.8717
| 38> H 	 -50.8554 	 -3.09831 	 -14.1027
| 39> H 	 -47.4368 	 -7.42984 	 -18.9819
| 40> H 	 -46.7097 	 0.598311 	 -19.0789
| 41> *
| 42>
| 43>                          ****END OF INPUT****

CARTESIAN COORDINATES (ANGSTROEM)
---------------------------------
  S    -46.832400   -4.991440  -18.704900
  C    -47.809700   -6.459490  -18.774500
  C    -49.159100   -6.099770  -18.593000
  C    -49.338100   -4.678690  -18.360500
  C    -48.140100   -3.985500  -18.200000
  H    -50.281200   -4.219800  -18.096400
  C    -50.289100   -7.102370  -18.871000
  H    -50.885900   -7.129480  -17.924800
  H    -49.775500   -8.102690  -18.905000
  C    -51.311800   -6.829160  -19.954600
  H    -51.597100   -5.812210  -19.798200
  H    -50.889000   -7.078740  -20.896100
  C    -52.590200   -7.751150  -19.851000
  H    -53.294400   -7.537510  -19.026600
  H    -53.183700   -7.511520  -20.732000
  H    -52.405100   -8.815330  -19.802200
  S    -46.744700   -1.874440  -19.094000
  C    -47.067500   -0.286137  -18.515300
  C    -48.030300   -0.253923  -17.528000
  C    -48.519500   -1.574590  -17.268500
  C    -47.891100   -2.578480  -17.982700
  H    -48.316800    0.712608  -17.065100
  C    -49.552700   -1.685920  -16.182200
  H    -50.353800   -2.432210  -16.473600
  H    -50.059200   -0.685137  -16.205200
  C    -49.031400   -1.925210  -14.670700
  H    -48.421300   -1.031190  -14.410400
  H    -48.310300   -2.757340  -14.672700
  C    -50.110300   -2.353500  -13.688800
  H    -50.711800   -1.488350  -13.398000
  H    -49.650200   -2.895290  -12.871700
  H    -50.855400   -3.098310  -14.102700
  H    -47.436800   -7.429840  -18.981900
  H    -46.709700    0.598311  -19.078900

 Total Charge           Charge          ....    0
 Multiplicity           Mult            ....    1
 Number of Electrons    NEL             ....  134
 Basis Dimension        Dim             ....  322

ORBITAL ENERGIES
----------------

  NO   OCC          E(Eh)            E(eV)
   0   2.0000     -88.965342     -2420.8700
   1   2.0000     -88.963392     -2420.8170
   2   2.0000     -10.331681      -281.1393
   3   2.0000     -10.327033      -281.0129
   4   2.0000     -10.318171      -280.7717
   5   2.0000     -10.315024      -280.6861
   6   2.0000     -10.306837      -280.4633
   7   2.0000     -10.304863      -280.4096
   8   2.0000     -10.300580      -280.2930
   9   2.0000     -10.298037      -280.2238
  10   2.0000     -10.296446      -280.1805
  11   2.0000     -10.295243      -280.1478
  12   2.0000     -10.293809      -280.1088
  13   2.0000     -10.287800      -279.9453
  14   2.0000     -10.282278      -279.7950
  15   2.0000     -10.281763      -279.7810
  16   2.0000      -8.081042      -219.8963
  17   2.0000      -8.078481      -219.8266
  18   2.0000      -6.039484      -164.3427
  19   2.0000      -6.037048      -164.2764
  20   2.0000      -6.035331      -164.2297
  21   2.0000      -6.032910      -164.1638
  22   2.0000      -6.031880      -164.1358
  23   2.0000      -6.029180      -164.0623
  24   2.0000      -1.012032       -27.5388
  25   2.0000      -0.984095       -26.7786
  26   2.0000      -0.910029       -24.7631
  27   2.0000      -0.899800       -24.4848
  28   2.0000      -0.871856       -23.7244
  29   2.0000      -0.854804       -23.2604
  30   2.0000      -0.840633       -22.8748
  31   2.0000      -0.815004       -22.1774
  32   2.0000      -0.778891       -21.1947
  33   2.0000      -0.769365       -20.9355
  34   2.0000      -0.710203       -19.3256
  35   2.0000      -0.698191       -18.9987
  36   2.0000      -0.689958       -18.7747
  37   2.0000      -0.665046       -18.0968
  38   2.0000      -0.639782       -17.4094
  39   2.0000      -0.619378       -16.8541
  40   2.0000      -0.590956       -16.0807
  41   2.0000      -0.570986       -15.5373
  42   2.0000      -0.563682       -15.3386
  43   2.0000      -0.554928       -15.1004
  44   2.0000      -0.527329       -14.3494
  45   2.0000      -0.524369       -14.2688
  46   2.0000      -0.514464       -13.9993
  47   2.0000      -0.509117       -13.8538
  48   2.0000      -0.502699       -13.6791
  49   2.0000      -0.498720       -13.5709
  50   2.0000      -0.495632       -13.4868
  51   2.0000      -0.487035       -13.2529
  52   2.0000      -0.470342       -12.7987
  53   2.0000      -0.462352       -12.5812
  54   2.0000      -0.460484       -12.5304
  55   2.0000      -0.451500       -12.2859
  56   2.0000      -0.438273       -11.9260
  57   2.0000      -0.434705       -11.8289
  58   2.0000      -0.429775       -11.6948
  59   2.0000      -0.426530       -11.6065
  60   2.0000      -0.423831       -11.5330
  61   2.0000      -0.412047       -11.2124
  62   2.0000      -0.408131       -11.1058
  63   2.0000      -0.355867        -9.6836
  64   2.0000      -0.332682        -9.0527
  65   2.0000      -0.324851        -8.8397
  66   2.0000      -0.285804        -7.7771
  67   0.0000       0.024680         0.6716
  68   0.0000       0.070713         1.9242
  69   0.0000       0.103782         2.8241
  70   0.0000       0.117152         3.1879
  71   0.0000       0.134481         3.6594

MULLIKEN ATOMIC CHARGES
-----------------------
   0 S :    0.085938
   1 C :   -0.103748
   2 C :   -0.092348
   3 C :    0.023577
   4 C :   -0.135428
   5 H :    0.013899
   6 C :    0.025672
   7 H :    0.024581
   8 H :    0.020528
   9 C :   -0.015534
  10 H :    0.029791
  11 H :    0.031334
  12 C :   -0.080202
  13 H :    0.030443
  14 H :    0.034141
  15 H :    0.037228
  16 S :    0.098741
  17 C :   -0.101799
  18 C :   -0.049252
  19 C :   -0.064300
  20 C :   -0.100671
  21 H :    0.038098
  22 C :    0.018657
  23 H :    0.026511
  24 H :    0.026127
  25 C :   -0.067986
  26 H :    0.035676
  27 H :    0.034214
  28 C :   -0.049826
  29 H :    0.037351
  30 H :    0.040242
  31 H :    0.034640
  32 H :    0.040436
  33 H :    0.073266
Sum of atomic charges:    0.0000000

LOEWDIN ATOMIC CHARGES
----------------------
   0 S :    0.405045
   1 C :   -0.193915
   2 C :   -0.058210
   3 C :   -0.073265
   4 C :   -0.192735
   5 H :    0.026446
   6 C :   -0.042308
   7 H :    0.031657
   8 H :    0.030497
   9 C :   -0.027145
  10 H :    0.025814
  11 H :    0.023573
  12 C :   -0.068879
  13 H :    0.025172
  14 H :    0.028251
  15 H :    0.023563
  16 S :    0.421715
  17 C :   -0.195126
  18 C :   -0.077131
  19 C :   -0.062710
  20 C :   -0.200544
  21 H :    0.041239
  22 C :   -0.039907
  23 H :    0.028901
  24 H :    0.032356
  25 C :   -0.041246
  26 H :    0.028646
  27 H :    0.026472
  28 C :   -0.071267
  29 H :    0.025180
  30 H :    0.029053
  31 H :    0.032693
  32 H :    0.022134
  33 H :    0.035982

  Mayer bond orders larger than 0.100000
B(  0-S ,  1-C ) :   1.1296 B(  0-S ,  4-C ) :   1.1644 B(  1-C ,  2-C ) :   1.5916
B(  1-C ,  4-C ) :   0.1007 B(  1-C , 32-H ) :   0.9772 B(  2-C ,  3-C ) :   1.2455
B(  2-C ,  6-C ) :   1.0296 B(  3-C ,  4-C ) :   1.5586 B(  3-C ,  5-H ) :   0.9845
B(  4-C , 20-C ) :   1.0462 B(  6-C ,  7-H ) :   0.9361 B(  6-C ,  8-H ) :   0.9429
B(  6-C ,  9-C ) :   1.0649 B(  9-C , 10-H ) :   0.9501 B(  9-C , 11-H ) :   0.9582
B(  9-C , 12-C ) :   1.0792 B( 12-C , 13-H ) :   0.9747 B( 12-C , 14-H ) :   0.9763
B( 12-C , 15-H ) :   0.9786 B( 16-S , 17-C ) :   1.1791 B( 16-S , 20-C ) :   1.1349
B( 17-C , 18-C ) :   1.5965 B( 17-C , 33-H ) :   0.9598 B( 18-C , 19-C ) :   1.2469
B( 18-C , 21-H ) :   0.9877 B( 19-C , 20-C ) :   1.5983 B( 19-C , 22-C ) :   1.0554
B( 22-C , 23-H ) :   0.9377 B( 22-C , 24-H ) :   0.9332 B( 22-C , 25-C ) :   1.0442
B( 25-C , 26-H ) :   0.9550 B( 25-C , 27-H ) :   0.9638 B( 25-C , 28-C ) :   1.0753
B( 28-C , 29-H ) :   0.9766 B( 28-C , 30-H ) :   0.9750 B( 28-C , 31-H ) :   0.9726

Dispersion correction           -0.013222468
FINAL SINGLE POINT ENERGY     -1339.872798250802

DIPOLE MOMENT
-------------
                                X             Y             Z
Electronic contribution:     25.14077       8.62011     -10.99134
Nuclear contribution   :    -25.76292      -8.54606      11.11590
                        -----------------------------------------
Total Dipole Moment    :     -0.62216       0.07405       0.12455
                        -----------------------------------------
Magnitude (a.u.)       :      0.63881
Magnitude (Debye)      :      1.62373

Rotational constants in cm-1:     0.016994     0.008084     0.006450
Rotational constants in MHz :   509.467243   242.337362   193.355135

                             ****ORCA TERMINATED NORMALLY****
TOTAL RUN TIME: 0 days 0 hours 0 minutes 20 seconds 668 msec
