                         Program Version 4.2.1 -  RELEASE  -
|  1> ! wB97X-D3 SP def2-SVP
|  2> %pal
|  3> nprocs 24
|  4> end
|  5>
|  6> * xyz 0 1
|  7> S 	 -109.533 	 66.5361 	 -76.5705
|  8> C 	 -108.173 	 66.2417 	 -75.5679
|  9> C 	 -108.323 	 65.1001 	 -74.757
| 10> C 	 -109.616 	 64.4818 	 -75.0054
| 11> C 	 -110.296 	 65.122 	 -76.028
| 12> H 	 -109.971 	 63.5847 	 -74.4585
| 13> C 	 -107.453 	 64.5517 	 -73.5486
| 14> H 	 -108.242 	 64.5888 	 -72.8054
| 15> H 	 -106.638 	 65.2138 	 -73.3126
| 16> C 	 -107.027 	 63.0754 	 -73.8102
| 17> H 	 -106.628 	 62.5638 	 -72.9591
| 18> H 	 -107.876 	 62.5003 	 -74.0972
| 19> C 	 -105.823 	 62.8041 	 -74.7676
| 20> H 	 -105.756 	 61.785 	 -75.1956
| 21> H 	 -105.877 	 63.4653 	 -75.6281
| 22> H 	 -104.842 	 63.0832 	 -74.3159
| 23> S 	 -112.621 	 66.0583 	 -77.1378
| 24> C 	 -113.778 	 64.9527 	 -77.764
| 25> C 	 -113.416 	 63.6443 	 -77.4957
| 26> C 	 -112.128 	 63.4955 	 -76.8762
| 27> C 	 -111.578 	 64.7478 	 -76.6277
| 28> H 	 -114.069 	 62.8354 	 -77.9123
| 29> C 	 -111.353 	 62.1619 	 -76.8006
| 30> H 	 -111.448 	 61.8161 	 -75.7305
| 31> H 	 -110.223 	 62.4404 	 -76.8633
| 32> C 	 -111.648 	 61.0245 	 -77.8204
| 33> H 	 -112.691 	 60.8142 	 -77.5573
| 34> H 	 -110.961 	 60.2027 	 -77.655
| 35> C 	 -111.504 	 61.3648 	 -79.2859
| 36> H 	 -111.6 	 60.4624 	 -79.975
| 37> H 	 -110.471 	 61.813 	 -79.3624
| 38> H 	 -112.221 	 62.201 	 -79.6455
| 39> H 	 -107.361 	 66.9365 	 -75.4554
| 40> H 	 -114.759 	 65.2855 	 -77.9539
| 41> *
| 42>
| 43>                          ****END OF INPUT****

CARTESIAN COORDINATES (ANGSTROEM)
---------------------------------
  S    -109.533000   66.536100  -76.570500
  C    -108.173000   66.241700  -75.567900
  C    -108.323000   65.100100  -74.757000
  C    -109.616000   64.481800  -75.005400
  C    -110.296000   65.122000  -76.028000
  H    -109.971000   63.584700  -74.458500
  C    -107.453000   64.551700  -73.548600
  H    -108.242000   64.588800  -72.805400
  H    -106.638000   65.213800  -73.312600
  C    -107.027000   63.075400  -73.810200
  H    -106.628000   62.563800  -72.959100
  H    -107.876000   62.500300  -74.097200
  C    -105.823000   62.804100  -74.767600
  H    -105.756000   61.785000  -75.195600
  H    -105.877000   63.465300  -75.628100
  H    -104.842000   63.083200  -74.315900
  S    -112.621000   66.058300  -77.137800
  C    -113.778000   64.952700  -77.764000
  C    -113.416000   63.644300  -77.495700
  C    -112.128000   63.495500  -76.876200
  C    -111.578000   64.747800  -76.627700
  H    -114.069000   62.835400  -77.912300
  C    -111.353000   62.161900  -76.800600
  H    -111.448000   61.816100  -75.730500
  H    -110.223000   62.440400  -76.863300
  C    -111.648000   61.024500  -77.820400
  H    -112.691000   60.814200  -77.557300
  H    -110.961000   60.202700  -77.655000
  C    -111.504000   61.364800  -79.285900
  H    -111.600000   60.462400  -79.975000
  H    -110.471000   61.813000  -79.362400
  H    -112.221000   62.201000  -79.645500
  H    -107.361000   66.936500  -75.455400
  H    -114.759000   65.285500  -77.953900

 Total Charge           Charge          ....    0
 Multiplicity           Mult            ....    1
 Number of Electrons    NEL             ....  134
 Basis Dimension        Dim             ....  322

ORBITAL ENERGIES
----------------

  NO   OCC          E(Eh)            E(eV)
   0   2.0000     -88.967562     -2420.9304
   1   2.0000     -88.965341     -2420.8700
   2   2.0000     -10.327338      -281.0212
   3   2.0000     -10.326528      -280.9991
   4   2.0000     -10.312234      -280.6102
   5   2.0000     -10.311753      -280.5971
   6   2.0000     -10.309245      -280.5288
   7   2.0000     -10.307869      -280.4914
   8   2.0000     -10.306064      -280.4423
   9   2.0000     -10.304009      -280.3864
  10   2.0000     -10.299887      -280.2742
  11   2.0000     -10.297964      -280.2218
  12   2.0000     -10.290510      -280.0190
  13   2.0000     -10.289587      -279.9939
  14   2.0000     -10.287844      -279.9465
  15   2.0000     -10.280722      -279.7527
  16   2.0000      -8.083905      -219.9743
  17   2.0000      -8.080911      -219.8928
  18   2.0000      -6.042345      -164.4206
  19   2.0000      -6.039274      -164.3370
  20   2.0000      -6.038172      -164.3070
  21   2.0000      -6.035279      -164.2283
  22   2.0000      -6.034664      -164.2116
  23   2.0000      -6.031810      -164.1339
  24   2.0000      -1.013335       -27.5742
  25   2.0000      -0.987491       -26.8710
  26   2.0000      -0.906864       -24.6770
  27   2.0000      -0.905062       -24.6280
  28   2.0000      -0.867827       -23.6148
  29   2.0000      -0.853283       -23.2190
  30   2.0000      -0.842713       -22.9314
  31   2.0000      -0.809895       -22.0384
  32   2.0000      -0.782969       -21.3057
  33   2.0000      -0.772168       -21.0118
  34   2.0000      -0.706959       -19.2373
  35   2.0000      -0.694776       -18.9058
  36   2.0000      -0.691596       -18.8193
  37   2.0000      -0.655009       -17.8237
  38   2.0000      -0.636705       -17.3256
  39   2.0000      -0.624367       -16.9899
  40   2.0000      -0.595877       -16.2146
  41   2.0000      -0.559223       -15.2172
  42   2.0000      -0.550242       -14.9729
  43   2.0000      -0.547991       -14.9116
  44   2.0000      -0.544152       -14.8071
  45   2.0000      -0.541096       -14.7240
  46   2.0000      -0.520292       -14.1579
  47   2.0000      -0.512897       -13.9566
  48   2.0000      -0.495341       -13.4789
  49   2.0000      -0.492398       -13.3988
  50   2.0000      -0.487439       -13.2639
  51   2.0000      -0.477142       -12.9837
  52   2.0000      -0.471662       -12.8346
  53   2.0000      -0.462307       -12.5800
  54   2.0000      -0.456235       -12.4148
  55   2.0000      -0.448293       -12.1987
  56   2.0000      -0.447063       -12.1652
  57   2.0000      -0.440937       -11.9985
  58   2.0000      -0.436256       -11.8711
  59   2.0000      -0.434783       -11.8310
  60   2.0000      -0.419573       -11.4172
  61   2.0000      -0.405949       -11.0464
  62   2.0000      -0.405428       -11.0323
  63   2.0000      -0.354304        -9.6411
  64   2.0000      -0.332670        -9.0524
  65   2.0000      -0.330760        -9.0004
  66   2.0000      -0.286374        -7.7926
  67   0.0000       0.026510         0.7214
  68   0.0000       0.079087         2.1521
  69   0.0000       0.106789         2.9059
  70   0.0000       0.118944         3.2366
  71   0.0000       0.131274         3.5721

MULLIKEN ATOMIC CHARGES
-----------------------
   0 S :    0.120859
   1 C :   -0.117409
   2 C :   -0.113708
   3 C :   -0.017326
   4 C :   -0.125568
   5 H :    0.031042
   6 C :    0.095589
   7 H :    0.042835
   8 H :    0.025009
   9 C :   -0.058644
  10 H :    0.027516
  11 H :    0.017847
  12 C :   -0.079740
  13 H :    0.044797
  14 H :    0.023669
  15 H :    0.031890
  16 S :    0.098035
  17 C :   -0.077951
  18 C :   -0.078017
  19 C :   -0.013849
  20 C :   -0.151183
  21 H :    0.041956
  22 C :   -0.030636
  23 H :    0.049901
  24 H :    0.050530
  25 C :   -0.036220
  26 H :    0.030572
  27 H :    0.037942
  28 C :   -0.105919
  29 H :    0.055601
  30 H :    0.037849
  31 H :    0.052256
  32 H :    0.039810
  33 H :    0.050665
Sum of atomic charges:    0.0000000

LOEWDIN ATOMIC CHARGES
----------------------
   0 S :    0.442244
   1 C :   -0.218252
   2 C :   -0.055189
   3 C :   -0.074032
   4 C :   -0.207764
   5 H :    0.035485
   6 C :   -0.015609
   7 H :    0.038472
   8 H :    0.026596
   9 C :   -0.041900
  10 H :    0.023620
  11 H :    0.018596
  12 C :   -0.072835
  13 H :    0.031811
  14 H :    0.019916
  15 H :    0.026282
  16 S :    0.412620
  17 C :   -0.195238
  18 C :   -0.075815
  19 C :   -0.063760
  20 C :   -0.192430
  21 H :    0.038822
  22 C :   -0.043946
  23 H :    0.036419
  24 H :    0.038002
  25 C :   -0.046837
  26 H :    0.022116
  27 H :    0.031191
  28 C :   -0.082371
  29 H :    0.034626
  30 H :    0.031540
  31 H :    0.034105
  32 H :    0.022800
  33 H :    0.020716

  Mayer bond orders larger than 0.100000
B(  0-S ,  1-C ) :   1.1441 B(  0-S ,  4-C ) :   1.1749 B(  1-C ,  2-C ) :   1.6104
B(  1-C , 32-H ) :   0.9707 B(  2-C ,  3-C ) :   1.2431 B(  2-C ,  6-C ) :   0.9929
B(  3-C ,  4-C ) :   1.5546 B(  3-C ,  5-H ) :   0.9853 B(  4-C , 20-C ) :   1.0407
B(  6-C ,  7-H ) :   0.9444 B(  6-C ,  8-H ) :   0.9529 B(  6-C ,  9-C ) :   1.0622
B(  9-C , 10-H ) :   0.9603 B(  9-C , 11-H ) :   0.9593 B(  9-C , 12-C ) :   1.0613
B( 12-C , 13-H ) :   0.9754 B( 12-C , 14-H ) :   0.9787 B( 12-C , 15-H ) :   0.9782
B( 16-S , 17-C ) :   1.1566 B( 16-S , 20-C ) :   1.1580 B( 17-C , 18-C ) :   1.6096
B( 17-C , 33-H ) :   0.9687 B( 18-C , 19-C ) :   1.2477 B( 18-C , 21-H ) :   0.9754
B( 19-C , 20-C ) :   1.5929 B( 19-C , 22-C ) :   1.0133 B( 22-C , 23-H ) :   0.9343
B( 22-C , 24-H ) :   0.9399 B( 22-C , 25-C ) :   1.0674 B( 25-C , 26-H ) :   0.9487
B( 25-C , 27-H ) :   0.9518 B( 25-C , 28-C ) :   1.0790 B( 28-C , 29-H ) :   0.9726
B( 28-C , 30-H ) :   0.9704 B( 28-C , 31-H ) :   0.9692

Dispersion correction           -0.014423831
FINAL SINGLE POINT ENERGY     -1339.873085221622

DIPOLE MOMENT
-------------
                                X             Y             Z
Electronic contribution:    -13.55500      24.67312      -2.68720
Nuclear contribution   :     13.69341     -25.18714       2.96034
                        -----------------------------------------
Total Dipole Moment    :      0.13841      -0.51402       0.27314
                        -----------------------------------------
Magnitude (a.u.)       :      0.59831
Magnitude (Debye)      :      1.52079

Rotational constants in cm-1:     0.018539     0.009147     0.006783
Rotational constants in MHz :   555.777796   274.208361   203.352474

                             ****ORCA TERMINATED NORMALLY****
TOTAL RUN TIME: 0 days 0 hours 0 minutes 21 seconds 693 msec
