                         Program Version 4.2.1 -  RELEASE  -
|  1> ! wB97X-D3 SP def2-SVP
|  2> %pal
|  3> nprocs 24
|  4> end
|  5>
|  6> * xyz 0 1
|  7> S 	 -105.31 	 16.9029 	 -116.439
|  8> C 	 -104.801 	 15.3074 	 -115.931
|  9> C 	 -105.262 	 15.0055 	 -114.646
| 10> C 	 -106.109 	 16.0582 	 -114.143
| 11> C 	 -106.203 	 17.154 	 -114.92
| 12> H 	 -106.636 	 16.1076 	 -113.166
| 13> C 	 -105.026 	 13.6867 	 -114.003
| 14> H 	 -105.08 	 12.8859 	 -114.667
| 15> H 	 -105.925 	 13.4887 	 -113.383
| 16> C 	 -103.785 	 13.584 	 -113.153
| 17> H 	 -103.504 	 12.5655 	 -112.912
| 18> H 	 -102.91 	 13.9045 	 -113.743
| 19> C 	 -103.901 	 14.2702 	 -111.804
| 20> H 	 -104.866 	 14.2924 	 -111.304
| 21> H 	 -103.164 	 13.8283 	 -111.158
| 22> H 	 -103.591 	 15.2732 	 -111.99
| 23> S 	 -106.7 	 18.6692 	 -112.697
| 24> C 	 -107.326 	 20.3729 	 -112.872
| 25> C 	 -107.645 	 20.6227 	 -114.174
| 26> C 	 -107.194 	 19.5861 	 -115.107
| 27> C 	 -106.777 	 18.4169 	 -114.463
| 28> H 	 -108.063 	 21.556 	 -114.464
| 29> C 	 -106.966 	 19.9252 	 -116.555
| 30> H 	 -107.763 	 20.5419 	 -116.867
| 31> H 	 -107.221 	 19.0078 	 -117.14
| 32> C 	 -105.58 	 20.4237 	 -116.978
| 33> H 	 -104.932 	 19.7461 	 -116.376
| 34> H 	 -105.546 	 21.407 	 -116.472
| 35> C 	 -105.191 	 20.3841 	 -118.413
| 36> H 	 -106.001 	 20.6572 	 -119.069
| 37> H 	 -105.012 	 19.3284 	 -118.663
| 38> H 	 -104.316 	 20.915 	 -118.743
| 39> H 	 -104.125 	 14.6633 	 -116.524
| 40> H 	 -107.513 	 21.1235 	 -112.106
| 41> *
| 42>
| 43>                          ****END OF INPUT****

CARTESIAN COORDINATES (ANGSTROEM)
---------------------------------
  S    -105.310000   16.902900  -116.439000
  C    -104.801000   15.307400  -115.931000
  C    -105.262000   15.005500  -114.646000
  C    -106.109000   16.058200  -114.143000
  C    -106.203000   17.154000  -114.920000
  H    -106.636000   16.107600  -113.166000
  C    -105.026000   13.686700  -114.003000
  H    -105.080000   12.885900  -114.667000
  H    -105.925000   13.488700  -113.383000
  C    -103.785000   13.584000  -113.153000
  H    -103.504000   12.565500  -112.912000
  H    -102.910000   13.904500  -113.743000
  C    -103.901000   14.270200  -111.804000
  H    -104.866000   14.292400  -111.304000
  H    -103.164000   13.828300  -111.158000
  H    -103.591000   15.273200  -111.990000
  S    -106.700000   18.669200  -112.697000
  C    -107.326000   20.372900  -112.872000
  C    -107.645000   20.622700  -114.174000
  C    -107.194000   19.586100  -115.107000
  C    -106.777000   18.416900  -114.463000
  H    -108.063000   21.556000  -114.464000
  C    -106.966000   19.925200  -116.555000
  H    -107.763000   20.541900  -116.867000
  H    -107.221000   19.007800  -117.140000
  C    -105.580000   20.423700  -116.978000
  H    -104.932000   19.746100  -116.376000
  H    -105.546000   21.407000  -116.472000
  C    -105.191000   20.384100  -118.413000
  H    -106.001000   20.657200  -119.069000
  H    -105.012000   19.328400  -118.663000
  H    -104.316000   20.915000  -118.743000
  H    -104.125000   14.663300  -116.524000
  H    -107.513000   21.123500  -112.106000

 Total Charge           Charge          ....    0
 Multiplicity           Mult            ....    1
 Number of Electrons    NEL             ....  134
 Basis Dimension        Dim             ....  322

ORBITAL ENERGIES
----------------

  NO   OCC          E(Eh)            E(eV)
   0   2.0000     -88.970348     -2421.0062
   1   2.0000     -88.967411     -2420.9263
   2   2.0000     -10.334665      -281.2205
   3   2.0000     -10.331220      -281.1268
   4   2.0000     -10.323789      -280.9246
   5   2.0000     -10.320106      -280.8243
   6   2.0000     -10.308161      -280.4993
   7   2.0000     -10.305241      -280.4199
   8   2.0000     -10.296228      -280.1746
   9   2.0000     -10.295231      -280.1475
  10   2.0000     -10.287377      -279.9338
  11   2.0000     -10.285518      -279.8832
  12   2.0000     -10.284377      -279.8521
  13   2.0000     -10.281818      -279.7825
  14   2.0000     -10.273712      -279.5619
  15   2.0000     -10.267918      -279.4043
  16   2.0000      -8.083844      -219.9726
  17   2.0000      -8.080276      -219.8755
  18   2.0000      -6.042493      -164.4246
  19   2.0000      -6.039250      -164.3363
  20   2.0000      -6.038486      -164.3155
  21   2.0000      -6.035161      -164.2251
  22   2.0000      -6.034572      -164.2091
  23   2.0000      -6.030527      -164.0990
  24   2.0000      -1.004616       -27.3370
  25   2.0000      -0.977718       -26.6051
  26   2.0000      -0.917313       -24.9614
  27   2.0000      -0.909738       -24.7552
  28   2.0000      -0.875242       -23.8165
  29   2.0000      -0.852112       -23.1872
  30   2.0000      -0.844977       -22.9930
  31   2.0000      -0.819402       -22.2971
  32   2.0000      -0.786151       -21.3923
  33   2.0000      -0.771375       -20.9902
  34   2.0000      -0.706810       -19.2333
  35   2.0000      -0.703191       -19.1348
  36   2.0000      -0.691966       -18.8293
  37   2.0000      -0.670497       -18.2451
  38   2.0000      -0.635096       -17.2818
  39   2.0000      -0.615758       -16.7556
  40   2.0000      -0.591536       -16.0965
  41   2.0000      -0.574317       -15.6280
  42   2.0000      -0.565027       -15.3752
  43   2.0000      -0.554091       -15.0776
  44   2.0000      -0.541673       -14.7397
  45   2.0000      -0.527177       -14.3452
  46   2.0000      -0.520160       -14.1543
  47   2.0000      -0.513275       -13.9669
  48   2.0000      -0.512095       -13.9348
  49   2.0000      -0.498893       -13.5756
  50   2.0000      -0.493893       -13.4395
  51   2.0000      -0.480881       -13.0854
  52   2.0000      -0.477153       -12.9840
  53   2.0000      -0.464123       -12.6294
  54   2.0000      -0.457721       -12.4552
  55   2.0000      -0.451158       -12.2766
  56   2.0000      -0.442783       -12.0487
  57   2.0000      -0.440707       -11.9922
  58   2.0000      -0.423707       -11.5296
  59   2.0000      -0.419197       -11.4069
  60   2.0000      -0.416121       -11.3232
  61   2.0000      -0.407985       -11.1018
  62   2.0000      -0.404650       -11.0111
  63   2.0000      -0.363684        -9.8964
  64   2.0000      -0.332073        -9.0362
  65   2.0000      -0.327630        -8.9153
  66   2.0000      -0.286508        -7.7963
  67   0.0000       0.019269         0.5243
  68   0.0000       0.074469         2.0264
  69   0.0000       0.099360         2.7037
  70   0.0000       0.110451         3.0055
  71   0.0000       0.123792         3.3686

MULLIKEN ATOMIC CHARGES
-----------------------
   0 S :    0.093838
   1 C :   -0.123729
   2 C :   -0.073739
   3 C :   -0.037085
   4 C :   -0.073680
   5 H :    0.035817
   6 C :    0.083133
   7 H :    0.008312
   8 H :    0.019905
   9 C :   -0.071867
  10 H :    0.016782
  11 H :    0.024580
  12 C :   -0.033022
  13 H :    0.035111
  14 H :    0.025790
  15 H :    0.030987
  16 S :    0.066927
  17 C :   -0.084481
  18 C :   -0.002423
  19 C :   -0.097674
  20 C :   -0.117224
  21 H :    0.010818
  22 C :    0.029566
  23 H :    0.005686
  24 H :    0.017250
  25 C :   -0.047343
  26 H :    0.027583
  27 H :    0.024282
  28 C :   -0.000764
  29 H :    0.022539
  30 H :    0.021445
  31 H :    0.038738
  32 H :    0.062371
  33 H :    0.061569
Sum of atomic charges:    0.0000000

LOEWDIN ATOMIC CHARGES
----------------------
   0 S :    0.402453
   1 C :   -0.195382
   2 C :   -0.058094
   3 C :   -0.077052
   4 C :   -0.180859
   5 H :    0.032481
   6 C :   -0.033447
   7 H :    0.023781
   8 H :    0.035411
   9 C :   -0.041302
  10 H :    0.019892
  11 H :    0.026726
  12 C :   -0.062879
  13 H :    0.025678
  14 H :    0.025517
  15 H :    0.025291
  16 S :    0.364315
  17 C :   -0.162962
  18 C :   -0.060744
  19 C :   -0.056464
  20 C :   -0.170760
  21 H :    0.027271
  22 C :   -0.044014
  23 H :    0.020407
  24 H :    0.026020
  25 C :   -0.046823
  26 H :    0.021777
  27 H :    0.025083
  28 C :   -0.064951
  29 H :    0.023936
  30 H :    0.029072
  31 H :    0.029561
  32 H :    0.035314
  33 H :    0.035746

  Mayer bond orders larger than 0.100000
B(  0-S ,  1-C ) :   1.1365 B(  0-S ,  4-C ) :   1.1142 B(  1-C ,  2-C ) :   1.6123
B(  1-C , 32-H ) :   0.9643 B(  2-C ,  3-C ) :   1.2251 B(  2-C ,  6-C ) :   1.0211
B(  3-C ,  4-C ) :   1.5877 B(  3-C ,  5-H ) :   0.9792 B(  4-C , 20-C ) :   1.0875
B(  6-C ,  7-H ) :   0.9393 B(  6-C ,  8-H ) :   0.9431 B(  6-C ,  9-C ) :   1.0765
B(  9-C , 10-H ) :   0.9593 B(  9-C , 11-H ) :   0.9533 B(  9-C , 12-C ) :   1.0714
B( 12-C , 13-H ) :   0.9770 B( 12-C , 14-H ) :   0.9753 B( 12-C , 15-H ) :   0.9757
B( 16-S , 17-C ) :   1.1085 B( 16-S , 20-C ) :   1.1081 B( 17-C , 18-C ) :   1.6735
B( 17-C , 33-H ) :   0.9630 B( 18-C , 19-C ) :   1.1998 B( 18-C , 21-H ) :   0.9869
B( 19-C , 20-C ) :   1.6058 B( 19-C , 22-C ) :   1.0714 B( 22-C , 23-H ) :   0.9195
B( 22-C , 24-H ) :   0.9259 B( 22-C , 25-C ) :   1.0413 B( 25-C , 26-H ) :   0.9535
B( 25-C , 27-H ) :   0.9514 B( 25-C , 28-C ) :   1.0793 B( 28-C , 29-H ) :   0.9740
B( 28-C , 30-H ) :   0.9655 B( 28-C , 31-H ) :   0.9726

Dispersion correction           -0.014802221
FINAL SINGLE POINT ENERGY     -1339.870310191474

DIPOLE MOMENT
-------------
                                X             Y             Z
Electronic contribution:     -8.36506       4.28316       3.03215
Nuclear contribution   :      8.51753      -4.31313      -3.08674
                        -----------------------------------------
Total Dipole Moment    :      0.15247      -0.02997      -0.05459
                        -----------------------------------------
Magnitude (a.u.)       :      0.16470
Magnitude (Debye)      :      0.41863

Rotational constants in cm-1:     0.020450     0.009089     0.006731
Rotational constants in MHz :   613.074977   272.474636   201.776782

                             ****ORCA TERMINATED NORMALLY****
TOTAL RUN TIME: 0 days 0 hours 0 minutes 20 seconds 436 msec
