                         Program Version 4.2.1 -  RELEASE  -
|  1> ! wB97X-D3 SP def2-SVP
|  2> %pal
|  3> nprocs 24
|  4> end
|  5>
|  6> * xyz 0 1
|  7> S 	 -97.9248 	 5.73228 	 -1.73661
|  8> C 	 -98.455 	 7.2504 	 -2.38476
|  9> C 	 -97.6753 	 7.66517 	 -3.48664
| 10> C 	 -96.7064 	 6.65512 	 -3.82823
| 11> C 	 -96.7765 	 5.53775 	 -3.05555
| 12> H 	 -96.0652 	 6.7184 	 -4.72581
| 13> C 	 -97.9688 	 8.93736 	 -4.24298
| 14> H 	 -97.0394 	 9.4546 	 -4.20716
| 15> H 	 -98.7227 	 9.44002 	 -3.6234
| 16> C 	 -98.4204 	 8.80633 	 -5.69308
| 17> H 	 -97.7176 	 8.19399 	 -6.19987
| 18> H 	 -99.3496 	 8.21158 	 -5.68091
| 19> C 	 -98.4234 	 10.164 	 -6.37033
| 20> H 	 -99.0576 	 10.8824 	 -6.00025
| 21> H 	 -97.4143 	 10.5138 	 -6.55062
| 22> H 	 -98.7029 	 10.0681 	 -7.46226
| 23> S 	 -97.3039 	 2.87153 	 -3.32857
| 24> C 	 -95.8384 	 1.86803 	 -3.46334
| 25> C 	 -94.6433 	 2.51569 	 -3.70732
| 26> C 	 -94.8775 	 3.92096 	 -3.63016
| 27> C 	 -96.216 	 4.25841 	 -3.34203
| 28> H 	 -93.7313 	 1.98087 	 -3.87227
| 29> C 	 -93.8144 	 4.91224 	 -3.92189
| 30> H 	 -94.1142 	 5.84955 	 -3.40556
| 31> H 	 -94.0432 	 5.11806 	 -4.99458
| 32> C 	 -92.3384 	 4.59916 	 -3.65856
| 33> H 	 -92.1857 	 3.59333 	 -4.07673
| 34> H 	 -92.3107 	 4.4972 	 -2.59532
| 35> C 	 -91.3915 	 5.6882 	 -3.99582
| 36> H 	 -90.3227 	 5.48556 	 -3.90313
| 37> H 	 -91.5161 	 6.56241 	 -3.3489
| 38> H 	 -91.4181 	 6.02446 	 -5.01904
| 39> H 	 -99.1241 	 8.00487 	 -1.95254
| 40> H 	 -95.94 	 0.79377 	 -3.59102
| 41> *
| 42>
| 43>                          ****END OF INPUT****

CARTESIAN COORDINATES (ANGSTROEM)
---------------------------------
  S    -97.924800    5.732280   -1.736610
  C    -98.455000    7.250400   -2.384760
  C    -97.675300    7.665170   -3.486640
  C    -96.706400    6.655120   -3.828230
  C    -96.776500    5.537750   -3.055550
  H    -96.065200    6.718400   -4.725810
  C    -97.968800    8.937360   -4.242980
  H    -97.039400    9.454600   -4.207160
  H    -98.722700    9.440020   -3.623400
  C    -98.420400    8.806330   -5.693080
  H    -97.717600    8.193990   -6.199870
  H    -99.349600    8.211580   -5.680910
  C    -98.423400   10.164000   -6.370330
  H    -99.057600   10.882400   -6.000250
  H    -97.414300   10.513800   -6.550620
  H    -98.702900   10.068100   -7.462260
  S    -97.303900    2.871530   -3.328570
  C    -95.838400    1.868030   -3.463340
  C    -94.643300    2.515690   -3.707320
  C    -94.877500    3.920960   -3.630160
  C    -96.216000    4.258410   -3.342030
  H    -93.731300    1.980870   -3.872270
  C    -93.814400    4.912240   -3.921890
  H    -94.114200    5.849550   -3.405560
  H    -94.043200    5.118060   -4.994580
  C    -92.338400    4.599160   -3.658560
  H    -92.185700    3.593330   -4.076730
  H    -92.310700    4.497200   -2.595320
  C    -91.391500    5.688200   -3.995820
  H    -90.322700    5.485560   -3.903130
  H    -91.516100    6.562410   -3.348900
  H    -91.418100    6.024460   -5.019040
  H    -99.124100    8.004870   -1.952540
  H    -95.940000    0.793770   -3.591020

 Total Charge           Charge          ....    0
 Multiplicity           Mult            ....    1
 Number of Electrons    NEL             ....  134
 Basis Dimension        Dim             ....  322

ORBITAL ENERGIES
----------------

  NO   OCC          E(Eh)            E(eV)
   0   2.0000     -88.968594     -2420.9585
   1   2.0000     -88.965512     -2420.8747
   2   2.0000     -10.323304      -280.9114
   3   2.0000     -10.321023      -280.8493
   4   2.0000     -10.317455      -280.7522
   5   2.0000     -10.311510      -280.5905
   6   2.0000     -10.303553      -280.3739
   7   2.0000     -10.299024      -280.2507
   8   2.0000     -10.294691      -280.1328
   9   2.0000     -10.293331      -280.0958
  10   2.0000     -10.290040      -280.0062
  11   2.0000     -10.286824      -279.9187
  12   2.0000     -10.286822      -279.9186
  13   2.0000     -10.284773      -279.8629
  14   2.0000     -10.278038      -279.6796
  15   2.0000     -10.276339      -279.6334
  16   2.0000      -8.082504      -219.9361
  17   2.0000      -8.080171      -219.8726
  18   2.0000      -6.040926      -164.3819
  19   2.0000      -6.038644      -164.3199
  20   2.0000      -6.037434      -164.2869
  21   2.0000      -6.034720      -164.2131
  22   2.0000      -6.033103      -164.1691
  23   2.0000      -6.030938      -164.1102
  24   2.0000      -1.005858       -27.3708
  25   2.0000      -0.979535       -26.6545
  26   2.0000      -0.916959       -24.9517
  27   2.0000      -0.914103       -24.8740
  28   2.0000      -0.871126       -23.7045
  29   2.0000      -0.859170       -23.3792
  30   2.0000      -0.847744       -23.0683
  31   2.0000      -0.817148       -22.2357
  32   2.0000      -0.784609       -21.3503
  33   2.0000      -0.767031       -20.8720
  34   2.0000      -0.715945       -19.4819
  35   2.0000      -0.704490       -19.1701
  36   2.0000      -0.693937       -18.8830
  37   2.0000      -0.656862       -17.8741
  38   2.0000      -0.635081       -17.2814
  39   2.0000      -0.619538       -16.8585
  40   2.0000      -0.593991       -16.1633
  41   2.0000      -0.574503       -15.6330
  42   2.0000      -0.572597       -15.5812
  43   2.0000      -0.563718       -15.3395
  44   2.0000      -0.531007       -14.4494
  45   2.0000      -0.522569       -14.2198
  46   2.0000      -0.516366       -14.0510
  47   2.0000      -0.509101       -13.8533
  48   2.0000      -0.506360       -13.7788
  49   2.0000      -0.502720       -13.6797
  50   2.0000      -0.490097       -13.3362
  51   2.0000      -0.480674       -13.0798
  52   2.0000      -0.470766       -12.8102
  53   2.0000      -0.465106       -12.6562
  54   2.0000      -0.458460       -12.4753
  55   2.0000      -0.455157       -12.3855
  56   2.0000      -0.447407       -12.1746
  57   2.0000      -0.436025       -11.8648
  58   2.0000      -0.428657       -11.6643
  59   2.0000      -0.425867       -11.5884
  60   2.0000      -0.421991       -11.4830
  61   2.0000      -0.418317       -11.3830
  62   2.0000      -0.416331       -11.3290
  63   2.0000      -0.351908        -9.5759
  64   2.0000      -0.330750        -9.0002
  65   2.0000      -0.324683        -8.8351
  66   2.0000      -0.280817        -7.6414
  67   0.0000       0.028260         0.7690
  68   0.0000       0.070026         1.9055
  69   0.0000       0.104460         2.8425
  70   0.0000       0.118779         3.2321
  71   0.0000       0.135694         3.6924

MULLIKEN ATOMIC CHARGES
-----------------------
   0 S :    0.118795
   1 C :   -0.121266
   2 C :   -0.132536
   3 C :    0.015663
   4 C :   -0.159814
   5 H :    0.023026
   6 C :    0.085336
   7 H :    0.018632
   8 H :    0.013543
   9 C :   -0.048430
  10 H :    0.012758
  11 H :    0.035076
  12 C :   -0.025374
  13 H :    0.026049
  14 H :    0.024796
  15 H :    0.026052
  16 S :    0.117689
  17 C :   -0.090143
  18 C :   -0.032810
  19 C :   -0.029265
  20 C :   -0.155097
  21 H :    0.021816
  22 C :   -0.007047
  23 H :    0.031530
  24 H :    0.046498
  25 C :   -0.023299
  26 H :    0.029212
  27 H :    0.025937
  28 C :   -0.029239
  29 H :    0.028095
  30 H :    0.031468
  31 H :    0.020253
  32 H :    0.051239
  33 H :    0.050855
Sum of atomic charges:    0.0000000

LOEWDIN ATOMIC CHARGES
----------------------
   0 S :    0.406093
   1 C :   -0.216916
   2 C :   -0.060754
   3 C :   -0.067258
   4 C :   -0.192497
   5 H :    0.034057
   6 C :   -0.030790
   7 H :    0.027359
   8 H :    0.029395
   9 C :   -0.037050
  10 H :    0.019722
  11 H :    0.029362
  12 C :   -0.061808
  13 H :    0.013246
  14 H :    0.028306
  15 H :    0.035103
  16 S :    0.391756
  17 C :   -0.166700
  18 C :   -0.069248
  19 C :   -0.046198
  20 C :   -0.205898
  21 H :    0.033068
  22 C :   -0.043906
  23 H :    0.033219
  24 H :    0.037557
  25 C :   -0.042126
  26 H :    0.023894
  27 H :    0.028736
  28 C :   -0.067437
  29 H :    0.030628
  30 H :    0.031245
  31 H :    0.022516
  32 H :    0.031553
  33 H :    0.021771

  Mayer bond orders larger than 0.100000
B(  0-S ,  1-C ) :   1.1306 B(  0-S ,  4-C ) :   1.1410 B(  1-C ,  2-C ) :   1.6153
B(  1-C , 32-H ) :   0.9568 B(  2-C ,  3-C ) :   1.2388 B(  2-C ,  6-C ) :   1.0314
B(  3-C ,  4-C ) :   1.5655 B(  3-C ,  5-H ) :   0.9858 B(  4-C , 20-C ) :   1.0738
B(  6-C ,  7-H ) :   0.9291 B(  6-C ,  8-H ) :   0.9366 B(  6-C ,  9-C ) :   1.0700
B(  9-C , 10-H ) :   0.9514 B(  9-C , 11-H ) :   0.9544 B(  9-C , 12-C ) :   1.0866
B( 12-C , 13-H ) :   0.9796 B( 12-C , 14-H ) :   0.9696 B( 12-C , 15-H ) :   0.9685
B( 16-S , 17-C ) :   1.1507 B( 16-S , 20-C ) :   1.1267 B( 17-C , 18-C ) :   1.6222
B( 17-C , 33-H ) :   0.9599 B( 18-C , 19-C ) :   1.2257 B( 18-C , 21-H ) :   0.9921
B( 19-C , 20-C ) :   1.5853 B( 19-C , 22-C ) :   1.0505 B( 22-C , 23-H ) :   0.9231
B( 22-C , 24-H ) :   0.9233 B( 22-C , 25-C ) :   1.0567 B( 25-C , 26-H ) :   0.9476
B( 25-C , 27-H ) :   0.9528 B( 25-C , 28-C ) :   1.0929 B( 28-C , 29-H ) :   0.9700
B( 28-C , 30-H ) :   0.9695 B( 28-C , 31-H ) :   0.9735

Dispersion correction           -0.013467659
FINAL SINGLE POINT ENERGY     -1339.868212730437

DIPOLE MOMENT
-------------
                                X             Y             Z
Electronic contribution:    -14.23459     -19.70986      14.89603
Nuclear contribution   :     14.71235      20.05912     -15.40865
                        -----------------------------------------
Total Dipole Moment    :      0.47775       0.34927      -0.51262
                        -----------------------------------------
Magnitude (a.u.)       :      0.78295
Magnitude (Debye)      :      1.99011

Rotational constants in cm-1:     0.016589     0.008294     0.006445
Rotational constants in MHz :   497.316770   248.649826   193.227467

                             ****ORCA TERMINATED NORMALLY****
TOTAL RUN TIME: 0 days 0 hours 0 minutes 20 seconds 125 msec
