                         Program Version 4.2.1 -  RELEASE  -
|  1> ! wB97X-D3 SP def2-SVP
|  2> %pal
|  3> nprocs 24
|  4> end
|  5>
|  6> * xyz 0 1
|  7> S 	 -129.19 	 61.5368 	 -56.7761
|  8> C 	 -130.569 	 62.4788 	 -57.1882
|  9> C 	 -130.291 	 63.5121 	 -58.0594
| 10> C 	 -128.881 	 63.6317 	 -58.2645
| 11> C 	 -128.12 	 62.7402 	 -57.4483
| 12> H 	 -128.548 	 64.4286 	 -58.9318
| 13> C 	 -131.373 	 64.4729 	 -58.6551
| 14> H 	 -131.092 	 65.5082 	 -58.4141
| 15> H 	 -132.313 	 64.5557 	 -58.0257
| 16> C 	 -131.674 	 64.1557 	 -60.1151
| 17> H 	 -130.806 	 64.1814 	 -60.7383
| 18> H 	 -132.077 	 63.1272 	 -60.209
| 19> C 	 -132.693 	 65.0231 	 -60.8044
| 20> H 	 -132.204 	 65.9462 	 -61.0717
| 21> H 	 -132.972 	 64.5142 	 -61.7675
| 22> H 	 -133.613 	 65.1086 	 -60.2328
| 23> S 	 -125.952 	 62.7769 	 -55.8276
| 24> C 	 -124.306 	 62.7152 	 -56.4807
| 25> C 	 -124.363 	 62.8441 	 -57.8369
| 26> C 	 -125.666 	 62.8883 	 -58.3793
| 27> C 	 -126.671 	 62.6624 	 -57.3963
| 28> H 	 -123.43 	 62.811 	 -58.4101
| 29> C 	 -125.898 	 63.1571 	 -59.8699
| 30> H 	 -124.98 	 63.4222 	 -60.4013
| 31> H 	 -126.543 	 63.9718 	 -60.0053
| 32> C 	 -126.567 	 61.9955 	 -60.5407
| 33> H 	 -127.599 	 61.9421 	 -60.1745
| 34> H 	 -126.056 	 61.0293 	 -60.327
| 35> C 	 -126.652 	 62.2254 	 -62.1054
| 36> H 	 -125.707 	 62.5811 	 -62.4766
| 37> H 	 -127.296 	 63.0713 	 -62.2951
| 38> H 	 -126.869 	 61.2719 	 -62.6545
| 39> H 	 -131.589 	 62.3395 	 -56.9224
| 40> H 	 -123.542 	 62.4492 	 -55.7776
| 41> *
| 42>
| 43>                          ****END OF INPUT****

CARTESIAN COORDINATES (ANGSTROEM)
---------------------------------
  S    -129.190000   61.536800  -56.776100
  C    -130.569000   62.478800  -57.188200
  C    -130.291000   63.512100  -58.059400
  C    -128.881000   63.631700  -58.264500
  C    -128.120000   62.740200  -57.448300
  H    -128.548000   64.428600  -58.931800
  C    -131.373000   64.472900  -58.655100
  H    -131.092000   65.508200  -58.414100
  H    -132.313000   64.555700  -58.025700
  C    -131.674000   64.155700  -60.115100
  H    -130.806000   64.181400  -60.738300
  H    -132.077000   63.127200  -60.209000
  C    -132.693000   65.023100  -60.804400
  H    -132.204000   65.946200  -61.071700
  H    -132.972000   64.514200  -61.767500
  H    -133.613000   65.108600  -60.232800
  S    -125.952000   62.776900  -55.827600
  C    -124.306000   62.715200  -56.480700
  C    -124.363000   62.844100  -57.836900
  C    -125.666000   62.888300  -58.379300
  C    -126.671000   62.662400  -57.396300
  H    -123.430000   62.811000  -58.410100
  C    -125.898000   63.157100  -59.869900
  H    -124.980000   63.422200  -60.401300
  H    -126.543000   63.971800  -60.005300
  C    -126.567000   61.995500  -60.540700
  H    -127.599000   61.942100  -60.174500
  H    -126.056000   61.029300  -60.327000
  C    -126.652000   62.225400  -62.105400
  H    -125.707000   62.581100  -62.476600
  H    -127.296000   63.071300  -62.295100
  H    -126.869000   61.271900  -62.654500
  H    -131.589000   62.339500  -56.922400
  H    -123.542000   62.449200  -55.777600

 Total Charge           Charge          ....    0
 Multiplicity           Mult            ....    1
 Number of Electrons    NEL             ....  134
 Basis Dimension        Dim             ....  322

ORBITAL ENERGIES
----------------

  NO   OCC          E(Eh)            E(eV)
   0   2.0000     -88.972186     -2421.0563
   1   2.0000     -88.959699     -2420.7165
   2   2.0000     -10.334307      -281.2108
   3   2.0000     -10.327111      -281.0150
   4   2.0000     -10.315818      -280.7077
   5   2.0000     -10.308436      -280.5068
   6   2.0000     -10.306259      -280.4476
   7   2.0000     -10.303721      -280.3785
   8   2.0000     -10.301600      -280.3208
   9   2.0000     -10.301168      -280.3090
  10   2.0000     -10.294571      -280.1295
  11   2.0000     -10.285809      -279.8911
  12   2.0000     -10.285771      -279.8900
  13   2.0000     -10.282537      -279.8021
  14   2.0000     -10.279415      -279.7171
  15   2.0000     -10.278213      -279.6844
  16   2.0000      -8.086961      -220.0574
  17   2.0000      -8.074972      -219.7312
  18   2.0000      -6.045451      -164.5051
  19   2.0000      -6.041512      -164.3979
  20   2.0000      -6.037688      -164.2939
  21   2.0000      -6.033407      -164.1773
  22   2.0000      -6.029341      -164.0667
  23   2.0000      -6.025834      -163.9713
  24   2.0000      -1.006988       -27.4015
  25   2.0000      -0.985513       -26.8172
  26   2.0000      -0.912502       -24.8305
  27   2.0000      -0.909573       -24.7507
  28   2.0000      -0.872699       -23.7473
  29   2.0000      -0.851242       -23.1635
  30   2.0000      -0.842159       -22.9163
  31   2.0000      -0.810992       -22.0682
  32   2.0000      -0.782944       -21.3050
  33   2.0000      -0.770864       -20.9763
  34   2.0000      -0.707770       -19.2594
  35   2.0000      -0.696537       -18.9537
  36   2.0000      -0.689766       -18.7695
  37   2.0000      -0.662792       -18.0355
  38   2.0000      -0.634043       -17.2532
  39   2.0000      -0.625356       -17.0168
  40   2.0000      -0.602621       -16.3981
  41   2.0000      -0.570311       -15.5190
  42   2.0000      -0.566765       -15.4225
  43   2.0000      -0.563882       -15.3440
  44   2.0000      -0.530720       -14.4416
  45   2.0000      -0.525832       -14.3086
  46   2.0000      -0.518256       -14.1025
  47   2.0000      -0.513037       -13.9604
  48   2.0000      -0.502953       -13.6860
  49   2.0000      -0.496212       -13.5026
  50   2.0000      -0.489713       -13.3258
  51   2.0000      -0.481891       -13.1129
  52   2.0000      -0.470601       -12.8057
  53   2.0000      -0.461636       -12.5617
  54   2.0000      -0.460239       -12.5237
  55   2.0000      -0.450021       -12.2457
  56   2.0000      -0.438597       -11.9348
  57   2.0000      -0.434942       -11.8354
  58   2.0000      -0.434141       -11.8136
  59   2.0000      -0.425707       -11.5841
  60   2.0000      -0.419619       -11.4184
  61   2.0000      -0.414611       -11.2821
  62   2.0000      -0.410057       -11.1582
  63   2.0000      -0.346326        -9.4240
  64   2.0000      -0.333917        -9.0863
  65   2.0000      -0.323815        -8.8115
  66   2.0000      -0.290782        -7.9126
  67   0.0000       0.019197         0.5224
  68   0.0000       0.073713         2.0058
  69   0.0000       0.111818         3.0427
  70   0.0000       0.116053         3.1580
  71   0.0000       0.127423         3.4674

MULLIKEN ATOMIC CHARGES
-----------------------
   0 S :    0.140840
   1 C :   -0.086589
   2 C :   -0.105047
   3 C :    0.026267
   4 C :   -0.153212
   5 H :    0.012759
   6 C :    0.039216
   7 H :    0.025791
   8 H :    0.019858
   9 C :   -0.073871
  10 H :    0.020937
  11 H :    0.031209
  12 C :   -0.034139
  13 H :    0.030843
  14 H :    0.034709
  15 H :    0.032439
  16 S :    0.086659
  17 C :   -0.103263
  18 C :   -0.028357
  19 C :   -0.030379
  20 C :   -0.142995
  21 H :    0.028264
  22 C :    0.105924
  23 H :    0.011407
  24 H :    0.003243
  25 C :   -0.115737
  26 H :    0.049130
  27 H :    0.037514
  28 C :   -0.034652
  29 H :    0.008372
  30 H :    0.021271
  31 H :    0.051342
  32 H :    0.026172
  33 H :    0.064075
Sum of atomic charges:   -0.0000000

LOEWDIN ATOMIC CHARGES
----------------------
   0 S :    0.433720
   1 C :   -0.203116
   2 C :   -0.063301
   3 C :   -0.057164
   4 C :   -0.207659
   5 H :    0.030158
   6 C :   -0.040710
   7 H :    0.030335
   8 H :    0.035769
   9 C :   -0.047155
  10 H :    0.020610
  11 H :    0.029601
  12 C :   -0.062864
  13 H :    0.022132
  14 H :    0.033652
  15 H :    0.022810
  16 S :    0.408025
  17 C :   -0.174272
  18 C :   -0.074067
  19 C :   -0.048164
  20 C :   -0.210556
  21 H :    0.037006
  22 C :   -0.028341
  23 H :    0.028208
  24 H :    0.020299
  25 C :   -0.039579
  26 H :    0.026376
  27 H :    0.025559
  28 C :   -0.068116
  29 H :    0.015738
  30 H :    0.021543
  31 H :    0.034272
  32 H :    0.023268
  33 H :    0.025983

  Mayer bond orders larger than 0.100000
B(  0-S ,  1-C ) :   1.1500 B(  0-S ,  4-C ) :   1.1658 B(  1-C ,  2-C ) :   1.6052
B(  1-C ,  4-C ) :   0.1012 B(  1-C , 32-H ) :   0.9647 B(  2-C ,  3-C ) :   1.2975
B(  2-C ,  6-C ) :   1.0097 B(  3-C ,  4-C ) :   1.5055 B(  3-C ,  5-H ) :   0.9909
B(  4-C , 20-C ) :   1.0499 B(  6-C ,  7-H ) :   0.9449 B(  6-C ,  8-H ) :   0.9429
B(  6-C ,  9-C ) :   1.0499 B(  9-C , 10-H ) :   0.9573 B(  9-C , 11-H ) :   0.9560
B(  9-C , 12-C ) :   1.0946 B( 12-C , 13-H ) :   0.9751 B( 12-C , 14-H ) :   0.9730
B( 12-C , 15-H ) :   0.9732 B( 16-S , 17-C ) :   1.1634 B( 16-S , 20-C ) :   1.1682
B( 17-C , 18-C ) :   1.5597 B( 17-C , 20-C ) :   0.1135 B( 17-C , 33-H ) :   0.9754
B( 18-C , 19-C ) :   1.2805 B( 18-C , 21-H ) :   0.9908 B( 19-C , 20-C ) :   1.5320
B( 19-C , 22-C ) :   1.0394 B( 22-C , 23-H ) :   0.9378 B( 22-C , 24-H ) :   0.9251
B( 22-C , 25-C ) :   1.0647 B( 25-C , 26-H ) :   0.9518 B( 25-C , 27-H ) :   0.9603
B( 25-C , 28-C ) :   1.0770 B( 28-C , 29-H ) :   0.9745 B( 28-C , 30-H ) :   0.9731
B( 28-C , 31-H ) :   0.9761

Dispersion correction           -0.014383239
FINAL SINGLE POINT ENERGY     -1339.868493581574

DIPOLE MOMENT
-------------
                                X             Y             Z
Electronic contribution:     11.85803      -8.55900      28.16551
Nuclear contribution   :    -12.00293       8.85143     -28.74221
                        -----------------------------------------
Total Dipole Moment    :     -0.14490       0.29243      -0.57670
                        -----------------------------------------
Magnitude (a.u.)       :      0.66264
Magnitude (Debye)      :      1.68431

Rotational constants in cm-1:     0.018833     0.008687     0.006693
Rotational constants in MHz :   564.592614   260.427596   200.640558

                             ****ORCA TERMINATED NORMALLY****
TOTAL RUN TIME: 0 days 0 hours 0 minutes 21 seconds 989 msec
