                         Program Version 4.2.1 -  RELEASE  -
|  1> ! wB97X-D3 SP def2-SVP
|  2> %pal
|  3> nprocs 24
|  4> end
|  5>
|  6> * xyz 0 1
|  7> S 	 -57.4062 	 16.5935 	 22.6308
|  8> C 	 -58.5311 	 15.3862 	 22.0788
|  9> C 	 -57.9072 	 14.1729 	 22.0408
| 10> C 	 -56.4898 	 14.2236 	 22.0735
| 11> C 	 -56.067 	 15.4617 	 22.5188
| 12> H 	 -55.722 	 13.4695 	 22.1119
| 13> C 	 -58.5915 	 12.9033 	 21.7069
| 14> H 	 -58.1855 	 12.6176 	 20.7213
| 15> H 	 -59.7022 	 13.0119 	 21.6531
| 16> C 	 -58.4154 	 11.7302 	 22.7398
| 17> H 	 -57.3694 	 11.6314 	 22.9966
| 18> H 	 -58.9693 	 11.8396 	 23.667
| 19> C 	 -58.7709 	 10.3281 	 22.1402
| 20> H 	 -58.6069 	 9.52823 	 22.8656
| 21> H 	 -59.8013 	 10.2708 	 21.764
| 22> H 	 -58.1078 	 10.0697 	 21.256
| 23> S 	 -54.6085 	 16.612 	 24.4239
| 24> C 	 -52.8267 	 16.9529 	 24.2315
| 25> C 	 -52.3833 	 16.5059 	 22.9924
| 26> C 	 -53.4543 	 15.9667 	 22.2307
| 27> C 	 -54.7221 	 15.9451 	 22.8634
| 28> H 	 -51.3539 	 16.6727 	 22.6736
| 29> C 	 -53.1478 	 15.2953 	 20.8716
| 30> H 	 -54.0318 	 14.6611 	 20.5506
| 31> H 	 -52.2882 	 14.6914 	 21.0933
| 32> C 	 -52.9452 	 16.2169 	 19.6964
| 33> H 	 -53.7994 	 16.813 	 19.4465
| 34> H 	 -52.7325 	 15.6206 	 18.8439
| 35> C 	 -51.7749 	 17.2188 	 19.8545
| 36> H 	 -52.1263 	 18.0854 	 20.4474
| 37> H 	 -51.4876 	 17.6176 	 18.8614
| 38> H 	 -50.8929 	 16.6926 	 20.2411
| 39> H 	 -59.5773 	 15.4627 	 21.9481
| 40> H 	 -52.0821 	 17.3967 	 24.9645
| 41> *
| 42>
| 43>                          ****END OF INPUT****

CARTESIAN COORDINATES (ANGSTROEM)
---------------------------------
  S    -57.406200   16.593500   22.630800
  C    -58.531100   15.386200   22.078800
  C    -57.907200   14.172900   22.040800
  C    -56.489800   14.223600   22.073500
  C    -56.067000   15.461700   22.518800
  H    -55.722000   13.469500   22.111900
  C    -58.591500   12.903300   21.706900
  H    -58.185500   12.617600   20.721300
  H    -59.702200   13.011900   21.653100
  C    -58.415400   11.730200   22.739800
  H    -57.369400   11.631400   22.996600
  H    -58.969300   11.839600   23.667000
  C    -58.770900   10.328100   22.140200
  H    -58.606900    9.528230   22.865600
  H    -59.801300   10.270800   21.764000
  H    -58.107800   10.069700   21.256000
  S    -54.608500   16.612000   24.423900
  C    -52.826700   16.952900   24.231500
  C    -52.383300   16.505900   22.992400
  C    -53.454300   15.966700   22.230700
  C    -54.722100   15.945100   22.863400
  H    -51.353900   16.672700   22.673600
  C    -53.147800   15.295300   20.871600
  H    -54.031800   14.661100   20.550600
  H    -52.288200   14.691400   21.093300
  C    -52.945200   16.216900   19.696400
  H    -53.799400   16.813000   19.446500
  H    -52.732500   15.620600   18.843900
  C    -51.774900   17.218800   19.854500
  H    -52.126300   18.085400   20.447400
  H    -51.487600   17.617600   18.861400
  H    -50.892900   16.692600   20.241100
  H    -59.577300   15.462700   21.948100
  H    -52.082100   17.396700   24.964500

 Total Charge           Charge          ....    0
 Multiplicity           Mult            ....    1
 Number of Electrons    NEL             ....  134
 Basis Dimension        Dim             ....  322

ORBITAL ENERGIES
----------------

  NO   OCC          E(Eh)            E(eV)
   0   2.0000     -88.968040     -2420.9435
   1   2.0000     -88.966153     -2420.8921
   2   2.0000     -10.333837      -281.1980
   3   2.0000     -10.328363      -281.0491
   4   2.0000     -10.326941      -281.0103
   5   2.0000     -10.308801      -280.5167
   6   2.0000     -10.305379      -280.4236
   7   2.0000     -10.298208      -280.2285
   8   2.0000     -10.297355      -280.2053
   9   2.0000     -10.295429      -280.1529
  10   2.0000     -10.294274      -280.1214
  11   2.0000     -10.291153      -280.0365
  12   2.0000     -10.289775      -279.9990
  13   2.0000     -10.284658      -279.8598
  14   2.0000     -10.278313      -279.6871
  15   2.0000     -10.276198      -279.6296
  16   2.0000      -8.082296      -219.9305
  17   2.0000      -8.080987      -219.8948
  18   2.0000      -6.040919      -164.3818
  19   2.0000      -6.039554      -164.3446
  20   2.0000      -6.036726      -164.2677
  21   2.0000      -6.035444      -164.2328
  22   2.0000      -6.033058      -164.1679
  23   2.0000      -6.031697      -164.1308
  24   2.0000      -1.010306       -27.4918
  25   2.0000      -0.984770       -26.7969
  26   2.0000      -0.910482       -24.7755
  27   2.0000      -0.905006       -24.6265
  28   2.0000      -0.871810       -23.7232
  29   2.0000      -0.849491       -23.1158
  30   2.0000      -0.841695       -22.9037
  31   2.0000      -0.818972       -22.2854
  32   2.0000      -0.777503       -21.1569
  33   2.0000      -0.766467       -20.8566
  34   2.0000      -0.709796       -19.3145
  35   2.0000      -0.697365       -18.9763
  36   2.0000      -0.686186       -18.6721
  37   2.0000      -0.662477       -18.0269
  38   2.0000      -0.646212       -17.5843
  39   2.0000      -0.619668       -16.8620
  40   2.0000      -0.585823       -15.9411
  41   2.0000      -0.569856       -15.5066
  42   2.0000      -0.560408       -15.2495
  43   2.0000      -0.550268       -14.9735
  44   2.0000      -0.536904       -14.6099
  45   2.0000      -0.528239       -14.3741
  46   2.0000      -0.518260       -14.1026
  47   2.0000      -0.515089       -14.0163
  48   2.0000      -0.508278       -13.8309
  49   2.0000      -0.500594       -13.6219
  50   2.0000      -0.487942       -13.2776
  51   2.0000      -0.476110       -12.9556
  52   2.0000      -0.472861       -12.8672
  53   2.0000      -0.462086       -12.5740
  54   2.0000      -0.459116       -12.4932
  55   2.0000      -0.450479       -12.2582
  56   2.0000      -0.439937       -11.9713
  57   2.0000      -0.435529       -11.8513
  58   2.0000      -0.435068       -11.8388
  59   2.0000      -0.421691       -11.4748
  60   2.0000      -0.416508       -11.3338
  61   2.0000      -0.414074       -11.2675
  62   2.0000      -0.407943       -11.1007
  63   2.0000      -0.351616        -9.5680
  64   2.0000      -0.332140        -9.0380
  65   2.0000      -0.327951        -8.9240
  66   2.0000      -0.291133        -7.9221
  67   0.0000       0.032263         0.8779
  68   0.0000       0.064793         1.7631
  69   0.0000       0.102482         2.7887
  70   0.0000       0.121272         3.3000
  71   0.0000       0.127429         3.4675

MULLIKEN ATOMIC CHARGES
-----------------------
   0 S :    0.114491
   1 C :   -0.095506
   2 C :   -0.068992
   3 C :    0.042473
   4 C :   -0.155888
   5 H :    0.022878
   6 C :    0.040022
   7 H :    0.039702
   8 H :    0.024758
   9 C :   -0.075410
  10 H :    0.025049
  11 H :    0.037912
  12 C :   -0.086062
  13 H :    0.039025
  14 H :    0.033800
  15 H :    0.034118
  16 S :    0.106017
  17 C :   -0.120637
  18 C :   -0.043072
  19 C :   -0.035228
  20 C :   -0.162261
  21 H :    0.032435
  22 C :    0.042653
  23 H :    0.032576
  24 H :    0.030468
  25 C :   -0.035436
  26 H :    0.027070
  27 H :    0.018891
  28 C :   -0.089396
  29 H :    0.053496
  30 H :    0.031107
  31 H :    0.028839
  32 H :    0.032316
  33 H :    0.077795
Sum of atomic charges:   -0.0000000

LOEWDIN ATOMIC CHARGES
----------------------
   0 S :    0.407060
   1 C :   -0.196947
   2 C :   -0.065380
   3 C :   -0.064443
   4 C :   -0.182470
   5 H :    0.034409
   6 C :   -0.034133
   7 H :    0.036782
   8 H :    0.031324
   9 C :   -0.038101
  10 H :    0.019894
  11 H :    0.025718
  12 C :   -0.072524
  13 H :    0.025901
  14 H :    0.021983
  15 H :    0.028221
  16 S :    0.409706
  17 C :   -0.184338
  18 C :   -0.071658
  19 C :   -0.061819
  20 C :   -0.220823
  21 H :    0.037913
  22 C :   -0.033227
  23 H :    0.037987
  24 H :    0.027586
  25 C :   -0.038614
  26 H :    0.025246
  27 H :    0.019400
  28 C :   -0.071875
  29 H :    0.030571
  30 H :    0.027053
  31 H :    0.019511
  32 H :    0.024230
  33 H :    0.045860

  Mayer bond orders larger than 0.100000
B(  0-S ,  1-C ) :   1.1222 B(  0-S ,  4-C ) :   1.1572 B(  1-C ,  2-C ) :   1.6279
B(  1-C , 32-H ) :   0.9727 B(  2-C ,  3-C ) :   1.1998 B(  2-C ,  6-C ) :   1.0427
B(  3-C ,  4-C ) :   1.6051 B(  3-C ,  5-H ) :   0.9860 B(  4-C , 20-C ) :   1.0069
B(  6-C ,  7-H ) :   0.9420 B(  6-C ,  8-H ) :   0.9435 B(  6-C ,  9-C ) :   1.0498
B(  9-C , 10-H ) :   0.9604 B(  9-C , 11-H ) :   0.9576 B(  9-C , 12-C ) :   1.0771
B( 12-C , 13-H ) :   0.9757 B( 12-C , 14-H ) :   0.9765 B( 12-C , 15-H ) :   0.9770
B( 16-S , 17-C ) :   1.1416 B( 16-S , 20-C ) :   1.1589 B( 17-C , 18-C ) :   1.6086
B( 17-C , 20-C ) :   0.1081 B( 17-C , 33-H ) :   0.9576 B( 18-C , 19-C ) :   1.2570
B( 18-C , 21-H ) :   0.9824 B( 19-C , 20-C ) :   1.5794 B( 19-C , 22-C ) :   1.0177
B( 22-C , 23-H ) :   0.9372 B( 22-C , 24-H ) :   0.9420 B( 22-C , 25-C ) :   1.0891
B( 25-C , 26-H ) :   0.9512 B( 25-C , 27-H ) :   0.9539 B( 25-C , 28-C ) :   1.0870
B( 28-C , 29-H ) :   0.9723 B( 28-C , 30-H ) :   0.9726 B( 28-C , 31-H ) :   0.9730

Dispersion correction           -0.013859474
FINAL SINGLE POINT ENERGY     -1339.872126573229

DIPOLE MOMENT
-------------
                                X             Y             Z
Electronic contribution:     -3.11635      17.23128      15.00573
Nuclear contribution   :      3.31366     -17.68653     -15.31392
                        -----------------------------------------
Total Dipole Moment    :      0.19732      -0.45525      -0.30819
                        -----------------------------------------
Magnitude (a.u.)       :      0.58410
Magnitude (Debye)      :      1.48466

Rotational constants in cm-1:     0.020581     0.007378     0.006646
Rotational constants in MHz :   616.996515   221.172219   199.237492

                             ****ORCA TERMINATED NORMALLY****
TOTAL RUN TIME: 0 days 0 hours 0 minutes 21 seconds 289 msec
