                         Program Version 4.2.1 -  RELEASE  -
|  1> ! wB97X-D3 SP def2-SVP
|  2> %pal
|  3> nprocs 24
|  4> end
|  5>
|  6> * xyz 0 1
|  7> S 	 -101.466 	 38.597 	 -80.3578
|  8> C 	 -100.623 	 37.066 	 -79.93
|  9> C 	 -100.463 	 36.2616 	 -81.0339
| 10> C 	 -101.052 	 36.8734 	 -82.2406
| 11> C 	 -101.636 	 38.0888 	 -82.0376
| 12> H 	 -101.136 	 36.4747 	 -83.1963
| 13> C 	 -99.919 	 34.8241 	 -81.0307
| 14> H 	 -99.6918 	 34.5721 	 -80.0601
| 15> H 	 -98.8966 	 34.8673 	 -81.431
| 16> C 	 -100.7 	 33.7887 	 -81.9238
| 17> H 	 -101.699 	 33.6329 	 -81.448
| 18> H 	 -100.926 	 34.241 	 -82.8745
| 19> C 	 -100.082 	 32.3423 	 -82.1016
| 20> H 	 -99.2141 	 32.4573 	 -82.7557
| 21> H 	 -99.7599 	 31.9168 	 -81.1915
| 22> H 	 -100.743 	 31.6668 	 -82.6102
| 23> S 	 -103.986 	 38.8933 	 -83.1719
| 24> C 	 -103.933 	 40.1125 	 -84.4514
| 25> C 	 -102.661 	 40.328 	 -84.9559
| 26> C 	 -101.681 	 39.6092 	 -84.1354
| 27> C 	 -102.241 	 38.8888 	 -83.0677
| 28> H 	 -102.647 	 41.0306 	 -85.7527
| 29> C 	 -100.185 	 39.9226 	 -84.3565
| 30> H 	 -99.7975 	 39.824 	 -83.3552
| 31> H 	 -100.167 	 40.9824 	 -84.5883
| 32> C 	 -99.3738 	 39.0706 	 -85.4232
| 33> H 	 -99.7962 	 39.0345 	 -86.3702
| 34> H 	 -99.3741 	 37.9748 	 -85.0702
| 35> C 	 -98.0135 	 39.6653 	 -85.5017
| 36> H 	 -97.6255 	 39.9537 	 -84.5328
| 37> H 	 -98.0908 	 40.6091 	 -86.0472
| 38> H 	 -97.1788 	 38.9863 	 -85.8525
| 39> H 	 -100.499 	 36.7128 	 -78.9249
| 40> H 	 -104.714 	 40.5263 	 -84.9459
| 41> *
| 42>
| 43>                          ****END OF INPUT****

CARTESIAN COORDINATES (ANGSTROEM)
---------------------------------
  S    -101.466000   38.597000  -80.357800
  C    -100.623000   37.066000  -79.930000
  C    -100.463000   36.261600  -81.033900
  C    -101.052000   36.873400  -82.240600
  C    -101.636000   38.088800  -82.037600
  H    -101.136000   36.474700  -83.196300
  C    -99.919000   34.824100  -81.030700
  H    -99.691800   34.572100  -80.060100
  H    -98.896600   34.867300  -81.431000
  C    -100.700000   33.788700  -81.923800
  H    -101.699000   33.632900  -81.448000
  H    -100.926000   34.241000  -82.874500
  C    -100.082000   32.342300  -82.101600
  H    -99.214100   32.457300  -82.755700
  H    -99.759900   31.916800  -81.191500
  H    -100.743000   31.666800  -82.610200
  S    -103.986000   38.893300  -83.171900
  C    -103.933000   40.112500  -84.451400
  C    -102.661000   40.328000  -84.955900
  C    -101.681000   39.609200  -84.135400
  C    -102.241000   38.888800  -83.067700
  H    -102.647000   41.030600  -85.752700
  C    -100.185000   39.922600  -84.356500
  H    -99.797500   39.824000  -83.355200
  H    -100.167000   40.982400  -84.588300
  C    -99.373800   39.070600  -85.423200
  H    -99.796200   39.034500  -86.370200
  H    -99.374100   37.974800  -85.070200
  C    -98.013500   39.665300  -85.501700
  H    -97.625500   39.953700  -84.532800
  H    -98.090800   40.609100  -86.047200
  H    -97.178800   38.986300  -85.852500
  H    -100.499000   36.712800  -78.924900
  H    -104.714000   40.526300  -84.945900

 Total Charge           Charge          ....    0
 Multiplicity           Mult            ....    1
 Number of Electrons    NEL             ....  134
 Basis Dimension        Dim             ....  322

ORBITAL ENERGIES
----------------

  NO   OCC          E(Eh)            E(eV)
   0   2.0000     -88.964244     -2420.8402
   1   2.0000     -88.963747     -2420.8266
   2   2.0000     -10.327011      -281.0123
   3   2.0000     -10.325692      -280.9764
   4   2.0000     -10.317556      -280.7550
   5   2.0000     -10.311178      -280.5814
   6   2.0000     -10.310248      -280.5561
   7   2.0000     -10.309460      -280.5347
   8   2.0000     -10.296524      -280.1827
   9   2.0000     -10.294542      -280.1287
  10   2.0000     -10.293845      -280.1098
  11   2.0000     -10.292160      -280.0639
  12   2.0000     -10.291141      -280.0362
  13   2.0000     -10.288258      -279.9577
  14   2.0000     -10.280492      -279.7464
  15   2.0000     -10.276545      -279.6390
  16   2.0000      -8.078796      -219.8352
  17   2.0000      -8.077633      -219.8036
  18   2.0000      -6.037346      -164.2845
  19   2.0000      -6.036338      -164.2571
  20   2.0000      -6.033369      -164.1763
  21   2.0000      -6.032323      -164.1479
  22   2.0000      -6.029497      -164.0710
  23   2.0000      -6.028153      -164.0344
  24   2.0000      -1.001013       -27.2390
  25   2.0000      -0.975787       -26.5525
  26   2.0000      -0.904584       -24.6150
  27   2.0000      -0.903649       -24.5895
  28   2.0000      -0.872006       -23.7285
  29   2.0000      -0.849224       -23.1085
  30   2.0000      -0.841835       -22.9075
  31   2.0000      -0.820602       -22.3297
  32   2.0000      -0.784207       -21.3394
  33   2.0000      -0.765169       -20.8213
  34   2.0000      -0.716043       -19.4845
  35   2.0000      -0.703201       -19.1351
  36   2.0000      -0.695833       -18.9346
  37   2.0000      -0.660737       -17.9796
  38   2.0000      -0.648493       -17.6464
  39   2.0000      -0.619294       -16.8518
  40   2.0000      -0.585049       -15.9200
  41   2.0000      -0.570994       -15.5375
  42   2.0000      -0.562009       -15.2930
  43   2.0000      -0.556090       -15.1320
  44   2.0000      -0.530872       -14.4458
  45   2.0000      -0.522465       -14.2170
  46   2.0000      -0.517923       -14.0934
  47   2.0000      -0.514084       -13.9889
  48   2.0000      -0.503516       -13.7014
  49   2.0000      -0.500820       -13.6280
  50   2.0000      -0.490628       -13.3507
  51   2.0000      -0.478351       -13.0166
  52   2.0000      -0.473131       -12.8745
  53   2.0000      -0.468183       -12.7399
  54   2.0000      -0.456160       -12.4128
  55   2.0000      -0.449668       -12.2361
  56   2.0000      -0.443514       -12.0686
  57   2.0000      -0.438641       -11.9360
  58   2.0000      -0.436262       -11.8713
  59   2.0000      -0.422363       -11.4931
  60   2.0000      -0.419328       -11.4105
  61   2.0000      -0.414116       -11.2687
  62   2.0000      -0.410514       -11.1707
  63   2.0000      -0.335066        -9.1176
  64   2.0000      -0.326014        -8.8713
  65   2.0000      -0.324088        -8.8189
  66   2.0000      -0.310312        -8.4440
  67   0.0000       0.037377         1.0171
  68   0.0000       0.061670         1.6781
  69   0.0000       0.113928         3.1001
  70   0.0000       0.119871         3.2619
  71   0.0000       0.121215         3.2984

MULLIKEN ATOMIC CHARGES
-----------------------
   0 S :    0.099300
   1 C :   -0.121044
   2 C :   -0.085716
   3 C :    0.061061
   4 C :   -0.169883
   5 H :   -0.009765
   6 C :    0.132950
   7 H :   -0.016207
   8 H :    0.026849
   9 C :   -0.111570
  10 H :    0.038988
  11 H :    0.033813
  12 C :   -0.027236
  13 H :    0.027463
  14 H :    0.028796
  15 H :    0.036299
  16 S :    0.109519
  17 C :   -0.049210
  18 C :   -0.036714
  19 C :   -0.004976
  20 C :   -0.181465
  21 H :    0.013596
  22 C :    0.025897
  23 H :    0.031036
  24 H :    0.023918
  25 C :   -0.032038
  26 H :    0.017619
  27 H :    0.034734
  28 C :   -0.046488
  29 H :    0.017004
  30 H :    0.030615
  31 H :    0.043104
  32 H :    0.048197
  33 H :    0.011553
Sum of atomic charges:   -0.0000000

LOEWDIN ATOMIC CHARGES
----------------------
   0 S :    0.373486
   1 C :   -0.180752
   2 C :   -0.051177
   3 C :   -0.049681
   4 C :   -0.194806
   5 H :    0.019432
   6 C :   -0.028285
   7 H :    0.015399
   8 H :    0.036410
   9 C :   -0.037524
  10 H :    0.027892
  11 H :    0.020840
  12 C :   -0.057349
  13 H :    0.025417
  14 H :    0.019559
  15 H :    0.027295
  16 S :    0.399005
  17 C :   -0.158855
  18 C :   -0.066836
  19 C :   -0.043709
  20 C :   -0.211313
  21 H :    0.030708
  22 C :   -0.028035
  23 H :    0.031095
  24 H :    0.028742
  25 C :   -0.036013
  26 H :    0.013786
  27 H :    0.031723
  28 C :   -0.072698
  29 H :    0.022083
  30 H :    0.027550
  31 H :    0.033499
  32 H :    0.026983
  33 H :    0.006133

  Mayer bond orders larger than 0.100000
B(  0-S ,  1-C ) :   1.1137 B(  0-S ,  4-C ) :   1.1194 B(  1-C ,  2-C ) :   1.6641
B(  1-C , 32-H ) :   0.9658 B(  2-C ,  3-C ) :   1.1723 B(  2-C ,  6-C ) :   1.0271
B(  3-C ,  4-C ) :   1.6447 B(  3-C ,  5-H ) :   0.9977 B(  4-C , 20-C ) :   1.0298
B(  6-C ,  7-H ) :   0.9357 B(  6-C ,  8-H ) :   0.9285 B(  6-C ,  9-C ) :   1.0436
B(  9-C , 10-H ) :   0.9611 B(  9-C , 11-H ) :   0.9568 B(  9-C , 12-C ) :   1.0784
B( 12-C , 13-H ) :   0.9766 B( 12-C , 14-H ) :   0.9787 B( 12-C , 15-H ) :   0.9761
B( 16-S , 17-C ) :   1.1448 B( 16-S , 20-C ) :   1.1331 B( 17-C , 18-C ) :   1.6605
B( 17-C , 33-H ) :   0.9728 B( 18-C , 19-C ) :   1.1889 B( 18-C , 21-H ) :   0.9959
B( 19-C , 20-C ) :   1.6185 B( 19-C , 22-C ) :   1.0259 B( 22-C , 23-H ) :   0.9365
B( 22-C , 24-H ) :   0.9503 B( 22-C , 25-C ) :   1.0504 B( 25-C , 26-H ) :   0.9600
B( 25-C , 27-H ) :   0.9508 B( 25-C , 28-C ) :   1.0820 B( 28-C , 29-H ) :   0.9708
B( 28-C , 30-H ) :   0.9724 B( 28-C , 31-H ) :   0.9710

Dispersion correction           -0.013803067
FINAL SINGLE POINT ENERGY     -1339.854380964965

DIPOLE MOMENT
-------------
                                X             Y             Z
Electronic contribution:    -19.99071      14.88428      10.94189
Nuclear contribution   :     20.34284     -15.22541     -11.33992
                        -----------------------------------------
Total Dipole Moment    :      0.35213      -0.34113      -0.39803
                        -----------------------------------------
Magnitude (a.u.)       :      0.63150
Magnitude (Debye)      :      1.60515

Rotational constants in cm-1:     0.015774     0.008311     0.007042
Rotational constants in MHz :   472.894422   249.155828   211.105680

                             ****ORCA TERMINATED NORMALLY****
TOTAL RUN TIME: 0 days 0 hours 0 minutes 21 seconds 36 msec
