                         Program Version 4.2.1 -  RELEASE  -
|  1> ! wB97X-D3 SP def2-SVP
|  2> %pal
|  3> nprocs 24
|  4> end
|  5>
|  6> * xyz 0 1
|  7> S 	 -64.7363 	 -48.2927 	 -86.7287
|  8> C 	 -63.2088 	 -49.0991 	 -86.4507
|  9> C 	 -63.4169 	 -50.3928 	 -86.0246
| 10> C 	 -64.7836 	 -50.7529 	 -85.8894
| 11> C 	 -65.6258 	 -49.7573 	 -86.3495
| 12> H 	 -65.1416 	 -51.6399 	 -85.5212
| 13> C 	 -62.4074 	 -51.4273 	 -85.7176
| 14> H 	 -61.4326 	 -51.3095 	 -86.2535
| 15> H 	 -62.6981 	 -52.3563 	 -86.1604
| 16> C 	 -62.0047 	 -51.6763 	 -84.2505
| 17> H 	 -61.642 	 -50.6874 	 -83.7622
| 18> H 	 -63.0211 	 -51.8252 	 -83.7729
| 19> C 	 -60.9872 	 -52.7834 	 -84.0157
| 20> H 	 -60.8219 	 -52.9402 	 -82.9136
| 21> H 	 -61.3426 	 -53.6673 	 -84.5004
| 22> H 	 -60.102 	 -52.4097 	 -84.5397
| 23> S 	 -68.0174 	 -49.1535 	 -85.0991
| 24> C 	 -69.5556 	 -49.8389 	 -85.6586
| 25> C 	 -69.3209 	 -50.482 	 -86.8703
| 26> C 	 -67.9379 	 -50.6188 	 -87.2205
| 27> C 	 -67.0922 	 -49.9263 	 -86.3728
| 28> H 	 -70.2131 	 -50.8611 	 -87.452
| 29> C 	 -67.5019 	 -51.0282 	 -88.6048
| 30> H 	 -66.795 	 -50.2637 	 -88.9224
| 31> H 	 -68.3104 	 -50.8883 	 -89.252
| 32> C 	 -66.8142 	 -52.4256 	 -88.6469
| 33> H 	 -67.4752 	 -53.1669 	 -88.1965
| 34> H 	 -65.8367 	 -52.423 	 -88.0903
| 35> C 	 -66.4628 	 -52.9704 	 -90.021
| 36> H 	 -65.7913 	 -53.8716 	 -90.0526
| 37> H 	 -66.0518 	 -52.0985 	 -90.6507
| 38> H 	 -67.3645 	 -53.3788 	 -90.4713
| 39> H 	 -62.1533 	 -48.7261 	 -86.5246
| 40> H 	 -70.5173 	 -49.7042 	 -85.2216
| 41> *
| 42>
| 43>                          ****END OF INPUT****

CARTESIAN COORDINATES (ANGSTROEM)
---------------------------------
  S    -64.736300  -48.292700  -86.728700
  C    -63.208800  -49.099100  -86.450700
  C    -63.416900  -50.392800  -86.024600
  C    -64.783600  -50.752900  -85.889400
  C    -65.625800  -49.757300  -86.349500
  H    -65.141600  -51.639900  -85.521200
  C    -62.407400  -51.427300  -85.717600
  H    -61.432600  -51.309500  -86.253500
  H    -62.698100  -52.356300  -86.160400
  C    -62.004700  -51.676300  -84.250500
  H    -61.642000  -50.687400  -83.762200
  H    -63.021100  -51.825200  -83.772900
  C    -60.987200  -52.783400  -84.015700
  H    -60.821900  -52.940200  -82.913600
  H    -61.342600  -53.667300  -84.500400
  H    -60.102000  -52.409700  -84.539700
  S    -68.017400  -49.153500  -85.099100
  C    -69.555600  -49.838900  -85.658600
  C    -69.320900  -50.482000  -86.870300
  C    -67.937900  -50.618800  -87.220500
  C    -67.092200  -49.926300  -86.372800
  H    -70.213100  -50.861100  -87.452000
  C    -67.501900  -51.028200  -88.604800
  H    -66.795000  -50.263700  -88.922400
  H    -68.310400  -50.888300  -89.252000
  C    -66.814200  -52.425600  -88.646900
  H    -67.475200  -53.166900  -88.196500
  H    -65.836700  -52.423000  -88.090300
  C    -66.462800  -52.970400  -90.021000
  H    -65.791300  -53.871600  -90.052600
  H    -66.051800  -52.098500  -90.650700
  H    -67.364500  -53.378800  -90.471300
  H    -62.153300  -48.726100  -86.524600
  H    -70.517300  -49.704200  -85.221600

 Total Charge           Charge          ....    0
 Multiplicity           Mult            ....    1
 Number of Electrons    NEL             ....  134
 Basis Dimension        Dim             ....  322

ORBITAL ENERGIES
----------------

  NO   OCC          E(Eh)            E(eV)
   0   2.0000     -88.974065     -2421.1074
   1   2.0000     -88.963376     -2420.8165
   2   2.0000     -10.332374      -281.1582
   3   2.0000     -10.327525      -281.0262
   4   2.0000     -10.320400      -280.8324
   5   2.0000     -10.319430      -280.8060
   6   2.0000     -10.301717      -280.3240
   7   2.0000     -10.300140      -280.2811
   8   2.0000     -10.298364      -280.2327
   9   2.0000     -10.295168      -280.1458
  10   2.0000     -10.289154      -279.9821
  11   2.0000     -10.289029      -279.9787
  12   2.0000     -10.285945      -279.8948
  13   2.0000     -10.285907      -279.8938
  14   2.0000     -10.284553      -279.8569
  15   2.0000     -10.281755      -279.7808
  16   2.0000      -8.088127      -220.0891
  17   2.0000      -8.077732      -219.8062
  18   2.0000      -6.046764      -164.5408
  19   2.0000      -6.042682      -164.4297
  20   2.0000      -6.038832      -164.3250
  21   2.0000      -6.036320      -164.2566
  22   2.0000      -6.032118      -164.1423
  23   2.0000      -6.028589      -164.0463
  24   2.0000      -1.007102       -27.4046
  25   2.0000      -0.984867       -26.7996
  26   2.0000      -0.913445       -24.8561
  27   2.0000      -0.904009       -24.5993
  28   2.0000      -0.869087       -23.6491
  29   2.0000      -0.855631       -23.2829
  30   2.0000      -0.847597       -23.0643
  31   2.0000      -0.815790       -22.1988
  32   2.0000      -0.780287       -21.2327
  33   2.0000      -0.769672       -20.9438
  34   2.0000      -0.705181       -19.1890
  35   2.0000      -0.692609       -18.8469
  36   2.0000      -0.688434       -18.7332
  37   2.0000      -0.661419       -17.9981
  38   2.0000      -0.645411       -17.5625
  39   2.0000      -0.624248       -16.9866
  40   2.0000      -0.592299       -16.1173
  41   2.0000      -0.571463       -15.5503
  42   2.0000      -0.560153       -15.2425
  43   2.0000      -0.557163       -15.1612
  44   2.0000      -0.527685       -14.3590
  45   2.0000      -0.525261       -14.2931
  46   2.0000      -0.519096       -14.1253
  47   2.0000      -0.511208       -13.9107
  48   2.0000      -0.506660       -13.7869
  49   2.0000      -0.503600       -13.7037
  50   2.0000      -0.498503       -13.5650
  51   2.0000      -0.480817       -13.0837
  52   2.0000      -0.466919       -12.7055
  53   2.0000      -0.463134       -12.6025
  54   2.0000      -0.460708       -12.5365
  55   2.0000      -0.451034       -12.2733
  56   2.0000      -0.440797       -11.9947
  57   2.0000      -0.433989       -11.8094
  58   2.0000      -0.430471       -11.7137
  59   2.0000      -0.422743       -11.5034
  60   2.0000      -0.418079       -11.3765
  61   2.0000      -0.412728       -11.2309
  62   2.0000      -0.402095       -10.9416
  63   2.0000      -0.339864        -9.2482
  64   2.0000      -0.329514        -8.9665
  65   2.0000      -0.324891        -8.8407
  66   2.0000      -0.307247        -8.3606
  67   0.0000       0.038456         1.0464
  68   0.0000       0.053630         1.4594
  69   0.0000       0.113132         3.0785
  70   0.0000       0.117795         3.2054
  71   0.0000       0.124103         3.3770

MULLIKEN ATOMIC CHARGES
-----------------------
   0 S :    0.129578
   1 C :   -0.120045
   2 C :   -0.059015
   3 C :    0.081506
   4 C :   -0.156311
   5 H :   -0.011822
   6 C :    0.039868
   7 H :    0.005548
   8 H :    0.011273
   9 C :   -0.129337
  10 H :    0.035864
  11 H :    0.024578
  12 C :   -0.013270
  13 H :    0.057595
  14 H :    0.026726
  15 H :    0.033764
  16 S :    0.101960
  17 C :   -0.091272
  18 C :   -0.067452
  19 C :   -0.008154
  20 C :   -0.183729
  21 H :    0.044112
  22 C :    0.088491
  23 H :    0.028545
  24 H :    0.004065
  25 C :   -0.093624
  26 H :    0.026660
  27 H :    0.043520
  28 C :   -0.072235
  29 H :    0.041163
  30 H :    0.043721
  31 H :    0.023827
  32 H :    0.062347
  33 H :    0.051556
Sum of atomic charges:   -0.0000000

LOEWDIN ATOMIC CHARGES
----------------------
   0 S :    0.413074
   1 C :   -0.203866
   2 C :   -0.067207
   3 C :   -0.035568
   4 C :   -0.197385
   5 H :    0.019459
   6 C :   -0.044577
   7 H :    0.026772
   8 H :    0.025331
   9 C :   -0.052168
  10 H :    0.028509
  11 H :    0.020806
  12 C :   -0.062576
  13 H :    0.039453
  14 H :    0.021197
  15 H :    0.029041
  16 S :    0.397358
  17 C :   -0.178840
  18 C :   -0.078243
  19 C :   -0.060582
  20 C :   -0.195043
  21 H :    0.041515
  22 C :   -0.022921
  23 H :    0.033674
  24 H :    0.021582
  25 C :   -0.046952
  26 H :    0.021730
  27 H :    0.030028
  28 C :   -0.079572
  29 H :    0.030902
  30 H :    0.032780
  31 H :    0.019633
  32 H :    0.045784
  33 H :    0.026874

  Mayer bond orders larger than 0.100000
B(  0-S ,  1-C ) :   1.1299 B(  0-S ,  4-C ) :   1.1494 B(  1-C ,  2-C ) :   1.6217
B(  1-C , 32-H ) :   0.9586 B(  2-C ,  3-C ) :   1.2358 B(  2-C ,  6-C ) :   1.0343
B(  3-C ,  4-C ) :   1.5693 B(  3-C ,  5-H ) :   1.0053 B(  4-C , 20-C ) :   1.0067
B(  6-C ,  7-H ) :   0.9352 B(  6-C ,  8-H ) :   0.9354 B(  6-C ,  9-C ) :   1.0539
B(  9-C , 10-H ) :   0.9548 B(  9-C , 11-H ) :   0.9547 B(  9-C , 12-C ) :   1.0684
B( 12-C , 13-H ) :   0.9720 B( 12-C , 14-H ) :   0.9742 B( 12-C , 15-H ) :   0.9727
B( 16-S , 17-C ) :   1.1516 B( 16-S , 20-C ) :   1.1542 B( 17-C , 18-C ) :   1.6052
B( 17-C , 20-C ) :   0.1056 B( 17-C , 33-H ) :   0.9739 B( 18-C , 19-C ) :   1.2424
B( 18-C , 21-H ) :   0.9767 B( 19-C , 20-C ) :   1.6025 B( 19-C , 22-C ) :   1.0356
B( 22-C , 23-H ) :   0.9345 B( 22-C , 24-H ) :   0.9467 B( 22-C , 25-C ) :   1.0456
B( 25-C , 26-H ) :   0.9614 B( 25-C , 27-H ) :   0.9538 B( 25-C , 28-C ) :   1.0822
B( 28-C , 29-H ) :   0.9741 B( 28-C , 30-H ) :   0.9714 B( 28-C , 31-H ) :   0.9756

Dispersion correction           -0.014264136
FINAL SINGLE POINT ENERGY     -1339.870245522040

DIPOLE MOMENT
-------------
                                X             Y             Z
Electronic contribution:    -14.48625      22.49726       6.09971
Nuclear contribution   :     14.62324     -22.98141      -6.25401
                        -----------------------------------------
Total Dipole Moment    :      0.13699      -0.48415      -0.15430
                        -----------------------------------------
Magnitude (a.u.)       :      0.52628
Magnitude (Debye)      :      1.33770

Rotational constants in cm-1:     0.017223     0.008295     0.007008
Rotational constants in MHz :   516.346346   248.684901   210.108635

                             ****ORCA TERMINATED NORMALLY****
TOTAL RUN TIME: 0 days 0 hours 0 minutes 21 seconds 488 msec
