                         Program Version 4.2.1 -  RELEASE  -
|  1> ! wB97X-D3 SP def2-SVP
|  2> %pal
|  3> nprocs 24
|  4> end
|  5>
|  6> * xyz 0 1
|  7> S 	 -102.315 	 14.9643 	 -124.059
|  8> C 	 -101.254 	 16.3059 	 -124.217
|  9> C 	 -99.9707 	 16.0705 	 -124.56
| 10> C 	 -99.7477 	 14.6866 	 -124.637
| 11> C 	 -100.878 	 13.8774 	 -124.362
| 12> H 	 -98.7983 	 14.1528 	 -124.845
| 13> C 	 -99.001 	 17.1517 	 -124.947
| 14> H 	 -98.0768 	 16.6746 	 -125.188
| 15> H 	 -98.6717 	 17.6812 	 -124.098
| 16> C 	 -99.3271 	 18.0865 	 -126.104
| 17> H 	 -100.327 	 18.6408 	 -125.901
| 18> H 	 -98.5881 	 18.8318 	 -126.313
| 19> C 	 -99.5888 	 17.3556 	 -127.397
| 20> H 	 -100.511 	 16.7045 	 -127.577
| 21> H 	 -99.7375 	 18.1614 	 -128.195
| 22> H 	 -98.6255 	 16.8697 	 -127.685
| 23> S 	 -102.253 	 11.6757 	 -125.095
| 24> C 	 -101.839 	 10.1279 	 -124.291
| 25> C 	 -100.68 	 10.2559 	 -123.56
| 26> C 	 -100.182 	 11.5401 	 -123.534
| 27> C 	 -100.974 	 12.4473 	 -124.218
| 28> H 	 -100.287 	 9.42375 	 -123.073
| 29> C 	 -98.9695 	 11.9318 	 -122.678
| 30> H 	 -98.6149 	 12.8795 	 -123.109
| 31> H 	 -98.1762 	 11.2437 	 -122.878
| 32> C 	 -99.3402 	 12.0781 	 -121.194
| 33> H 	 -98.3662 	 12.1421 	 -120.656
| 34> H 	 -99.688 	 11.1213 	 -120.869
| 35> C 	 -100.134 	 13.3359 	 -120.898
| 36> H 	 -101.034 	 13.3911 	 -121.447
| 37> H 	 -99.5023 	 14.2593 	 -121.182
| 38> H 	 -100.484 	 13.4934 	 -119.889
| 39> H 	 -101.553 	 17.2768 	 -123.869
| 40> H 	 -102.384 	 9.1681 	 -124.522
| 41> *
| 42>
| 43>                          ****END OF INPUT****

CARTESIAN COORDINATES (ANGSTROEM)
---------------------------------
  S    -102.315000   14.964300  -124.059000
  C    -101.254000   16.305900  -124.217000
  C    -99.970700   16.070500  -124.560000
  C    -99.747700   14.686600  -124.637000
  C    -100.878000   13.877400  -124.362000
  H    -98.798300   14.152800  -124.845000
  C    -99.001000   17.151700  -124.947000
  H    -98.076800   16.674600  -125.188000
  H    -98.671700   17.681200  -124.098000
  C    -99.327100   18.086500  -126.104000
  H    -100.327000   18.640800  -125.901000
  H    -98.588100   18.831800  -126.313000
  C    -99.588800   17.355600  -127.397000
  H    -100.511000   16.704500  -127.577000
  H    -99.737500   18.161400  -128.195000
  H    -98.625500   16.869700  -127.685000
  S    -102.253000   11.675700  -125.095000
  C    -101.839000   10.127900  -124.291000
  C    -100.680000   10.255900  -123.560000
  C    -100.182000   11.540100  -123.534000
  C    -100.974000   12.447300  -124.218000
  H    -100.287000    9.423750  -123.073000
  C    -98.969500   11.931800  -122.678000
  H    -98.614900   12.879500  -123.109000
  H    -98.176200   11.243700  -122.878000
  C    -99.340200   12.078100  -121.194000
  H    -98.366200   12.142100  -120.656000
  H    -99.688000   11.121300  -120.869000
  C    -100.134000   13.335900  -120.898000
  H    -101.034000   13.391100  -121.447000
  H    -99.502300   14.259300  -121.182000
  H    -100.484000   13.493400  -119.889000
  H    -101.553000   17.276800  -123.869000
  H    -102.384000    9.168100  -124.522000

 Total Charge           Charge          ....    0
 Multiplicity           Mult            ....    1
 Number of Electrons    NEL             ....  134
 Basis Dimension        Dim             ....  322

ORBITAL ENERGIES
----------------

  NO   OCC          E(Eh)            E(eV)
   0   2.0000     -88.968826     -2420.9648
   1   2.0000     -88.964026     -2420.8342
   2   2.0000     -10.333504      -281.1889
   3   2.0000     -10.321591      -280.8648
   4   2.0000     -10.320851      -280.8446
   5   2.0000     -10.306906      -280.4652
   6   2.0000     -10.300251      -280.2841
   7   2.0000     -10.296364      -280.1783
   8   2.0000     -10.294835      -280.1367
   9   2.0000     -10.292702      -280.0786
  10   2.0000     -10.287144      -279.9274
  11   2.0000     -10.286231      -279.9026
  12   2.0000     -10.285662      -279.8871
  13   2.0000     -10.284793      -279.8634
  14   2.0000     -10.284213      -279.8477
  15   2.0000     -10.271948      -279.5139
  16   2.0000      -8.082851      -219.9456
  17   2.0000      -8.078609      -219.8301
  18   2.0000      -6.041229      -164.3902
  19   2.0000      -6.037558      -164.2903
  20   2.0000      -6.037013      -164.2755
  21   2.0000      -6.033689      -164.1850
  22   2.0000      -6.033207      -164.1719
  23   2.0000      -6.029424      -164.0690
  24   2.0000      -1.006767       -27.3955
  25   2.0000      -0.986182       -26.8354
  26   2.0000      -0.914939       -24.8968
  27   2.0000      -0.906305       -24.6618
  28   2.0000      -0.871985       -23.7279
  29   2.0000      -0.852015       -23.1845
  30   2.0000      -0.844798       -22.9881
  31   2.0000      -0.811257       -22.0754
  32   2.0000      -0.784937       -21.3592
  33   2.0000      -0.771367       -20.9900
  34   2.0000      -0.706907       -19.2359
  35   2.0000      -0.698300       -19.0017
  36   2.0000      -0.692048       -18.8316
  37   2.0000      -0.665613       -18.1123
  38   2.0000      -0.639296       -17.3961
  39   2.0000      -0.612686       -16.6720
  40   2.0000      -0.591999       -16.1091
  41   2.0000      -0.577910       -15.7257
  42   2.0000      -0.555774       -15.1234
  43   2.0000      -0.554144       -15.0790
  44   2.0000      -0.546319       -14.8661
  45   2.0000      -0.535833       -14.5807
  46   2.0000      -0.514133       -13.9903
  47   2.0000      -0.504832       -13.7372
  48   2.0000      -0.499400       -13.5894
  49   2.0000      -0.490219       -13.3395
  50   2.0000      -0.484947       -13.1961
  51   2.0000      -0.473799       -12.8927
  52   2.0000      -0.469244       -12.7688
  53   2.0000      -0.463606       -12.6154
  54   2.0000      -0.458421       -12.4743
  55   2.0000      -0.444130       -12.0854
  56   2.0000      -0.440446       -11.9851
  57   2.0000      -0.436077       -11.8663
  58   2.0000      -0.434721       -11.8294
  59   2.0000      -0.425370       -11.5749
  60   2.0000      -0.425007       -11.5650
  61   2.0000      -0.407318       -11.0837
  62   2.0000      -0.405354       -11.0303
  63   2.0000      -0.349171        -9.5014
  64   2.0000      -0.336869        -9.1667
  65   2.0000      -0.333676        -9.0798
  66   2.0000      -0.281771        -7.6674
  67   0.0000       0.024821         0.6754
  68   0.0000       0.063040         1.7154
  69   0.0000       0.105300         2.8654
  70   0.0000       0.121039         3.2937
  71   0.0000       0.136658         3.7187

MULLIKEN ATOMIC CHARGES
-----------------------
   0 S :    0.114966
   1 C :   -0.117132
   2 C :   -0.082656
   3 C :    0.024717
   4 C :   -0.178165
   5 H :    0.032242
   6 C :    0.137821
   7 H :   -0.008833
   8 H :    0.018092
   9 C :   -0.066891
  10 H :    0.034080
  11 H :    0.032716
  12 C :   -0.108921
  13 H :    0.068160
  14 H :    0.030599
  15 H :    0.029753
  16 S :    0.099646
  17 C :   -0.117582
  18 C :   -0.016379
  19 C :   -0.033997
  20 C :   -0.171995
  21 H :   -0.006398
  22 C :    0.093577
  23 H :   -0.008230
  24 H :    0.017491
  25 C :   -0.031919
  26 H :    0.024871
  27 H :    0.013297
  28 C :   -0.032501
  29 H :    0.025219
  30 H :    0.038419
  31 H :    0.028387
  32 H :    0.042083
  33 H :    0.075463
Sum of atomic charges:   -0.0000000

LOEWDIN ATOMIC CHARGES
----------------------
   0 S :    0.392439
   1 C :   -0.190541
   2 C :   -0.071974
   3 C :   -0.056258
   4 C :   -0.175034
   5 H :    0.036406
   6 C :   -0.032387
   7 H :    0.026232
   8 H :    0.028930
   9 C :   -0.043480
  10 H :    0.029839
  11 H :    0.026393
  12 C :   -0.083535
  13 H :    0.038701
  14 H :    0.030566
  15 H :    0.023773
  16 S :    0.395795
  17 C :   -0.178675
  18 C :   -0.063827
  19 C :   -0.060759
  20 C :   -0.207585
  21 H :    0.024160
  22 C :   -0.025026
  23 H :    0.025082
  24 H :    0.026281
  25 C :   -0.037359
  26 H :    0.027403
  27 H :    0.017393
  28 C :   -0.065367
  29 H :    0.017331
  30 H :    0.038496
  31 H :    0.024593
  32 H :    0.023150
  33 H :    0.038844

  Mayer bond orders larger than 0.100000
B(  0-S ,  1-C ) :   1.1524 B(  0-S ,  4-C ) :   1.1290 B(  1-C ,  2-C ) :   1.6199
B(  1-C ,  4-C ) :   0.1013 B(  1-C , 32-H ) :   0.9600 B(  2-C ,  3-C ) :   1.2532
B(  2-C ,  6-C ) :   1.0144 B(  3-C ,  4-C ) :   1.5739 B(  3-C ,  5-H ) :   0.9760
B(  4-C , 20-C ) :   1.0578 B(  6-C ,  7-H ) :   0.9285 B(  6-C ,  8-H ) :   0.9222
B(  6-C ,  9-C ) :   1.0796 B(  9-C , 10-H ) :   0.9522 B(  9-C , 11-H ) :   0.9530
B(  9-C , 12-C ) :   1.0765 B( 12-C , 13-H ) :   0.9722 B( 12-C , 14-H ) :   0.9720
B( 12-C , 15-H ) :   0.9731 B( 16-S , 17-C ) :   1.1413 B( 16-S , 20-C ) :   1.1583
B( 17-C , 18-C ) :   1.5892 B( 17-C , 20-C ) :   0.1091 B( 17-C , 33-H ) :   0.9624
B( 18-C , 19-C ) :   1.2588 B( 18-C , 21-H ) :   1.0029 B( 19-C , 20-C ) :   1.5685
B( 19-C , 22-C ) :   1.0346 B( 22-C , 23-H ) :   0.9263 B( 22-C , 24-H ) :   0.9293
B( 22-C , 25-C ) :   1.0758 B( 25-C , 26-H ) :   0.9517 B( 25-C , 27-H ) :   0.9562
B( 25-C , 28-C ) :   1.0685 B( 28-C , 29-H ) :   0.9745 B( 28-C , 30-H ) :   0.9701
B( 28-C , 31-H ) :   0.9725

Dispersion correction           -0.015899008
FINAL SINGLE POINT ENERGY     -1339.868666333909

DIPOLE MOMENT
-------------
                                X             Y             Z
Electronic contribution:    -16.62712     -12.23496      -3.43915
Nuclear contribution   :     17.21942      12.37921       3.61448
                        -----------------------------------------
Total Dipole Moment    :      0.59230       0.14425       0.17533
                        -----------------------------------------
Magnitude (a.u.)       :      0.63433
Magnitude (Debye)      :      1.61233

Rotational constants in cm-1:     0.022258     0.008614     0.007535
Rotational constants in MHz :   667.292147   258.229465   225.892242

                             ****ORCA TERMINATED NORMALLY****
TOTAL RUN TIME: 0 days 0 hours 0 minutes 22 seconds 635 msec
