                         Program Version 4.2.1 -  RELEASE  -
|  1> ! wB97X-D3 SP def2-SVP
|  2> %pal
|  3> nprocs 24
|  4> end
|  5>
|  6> * xyz 0 1
|  7> S 	 -32.7386 	 5.85322 	 17.2258
|  8> C 	 -31.8305 	 5.71112 	 15.7915
|  9> C 	 -32.4955 	 6.01125 	 14.5796
| 10> C 	 -33.8731 	 6.34876 	 14.9089
| 11> C 	 -34.1285 	 6.19934 	 16.2539
| 12> H 	 -34.6511 	 6.61714 	 14.2334
| 13> C 	 -32.0532 	 5.92502 	 13.0865
| 14> H 	 -32.6961 	 5.22432 	 12.6573
| 15> H 	 -31.062 	 5.33065 	 13.0511
| 16> C 	 -31.8486 	 7.18039 	 12.2493
| 17> H 	 -32.7136 	 7.7852 	 12.3378
| 18> H 	 -31.208 	 7.94189 	 12.6959
| 19> C 	 -31.5901 	 6.96232 	 10.7643
| 20> H 	 -32.436 	 6.34469 	 10.3421
| 21> H 	 -31.6348 	 7.89512 	 10.2088
| 22> H 	 -30.6695 	 6.49104 	 10.4623
| 23> S 	 -35.619 	 6.40119 	 18.5913
| 24> C 	 -37.2727 	 5.78293 	 18.5414
| 25> C 	 -37.7263 	 5.7151 	 17.2152
| 26> C 	 -36.6909 	 6.03579 	 16.2508
| 27> C 	 -35.4534 	 6.26603 	 16.8596
| 28> H 	 -38.6839 	 5.3574 	 16.9941
| 29> C 	 -37.0041 	 5.7281 	 14.8383
| 30> H 	 -37.7727 	 4.95938 	 14.9094
| 31> H 	 -36.1832 	 5.24471 	 14.3447
| 32> C 	 -37.7537 	 6.75476 	 13.9526
| 33> H 	 -37.3329 	 7.73026 	 14.2832
| 34> H 	 -38.8885 	 6.68161 	 14.1473
| 35> C 	 -37.5834 	 6.49147 	 12.4188
| 36> H 	 -36.5166 	 6.49429 	 12.1486
| 37> H 	 -38.1218 	 7.15695 	 11.7061
| 38> H 	 -37.7694 	 5.47157 	 12.1546
| 39> H 	 -30.7949 	 5.41119 	 15.6613
| 40> H 	 -37.8906 	 5.67631 	 19.4531
| 41> *
| 42>
| 43>                          ****END OF INPUT****

CARTESIAN COORDINATES (ANGSTROEM)
---------------------------------
  S    -32.738600    5.853220   17.225800
  C    -31.830500    5.711120   15.791500
  C    -32.495500    6.011250   14.579600
  C    -33.873100    6.348760   14.908900
  C    -34.128500    6.199340   16.253900
  H    -34.651100    6.617140   14.233400
  C    -32.053200    5.925020   13.086500
  H    -32.696100    5.224320   12.657300
  H    -31.062000    5.330650   13.051100
  C    -31.848600    7.180390   12.249300
  H    -32.713600    7.785200   12.337800
  H    -31.208000    7.941890   12.695900
  C    -31.590100    6.962320   10.764300
  H    -32.436000    6.344690   10.342100
  H    -31.634800    7.895120   10.208800
  H    -30.669500    6.491040   10.462300
  S    -35.619000    6.401190   18.591300
  C    -37.272700    5.782930   18.541400
  C    -37.726300    5.715100   17.215200
  C    -36.690900    6.035790   16.250800
  C    -35.453400    6.266030   16.859600
  H    -38.683900    5.357400   16.994100
  C    -37.004100    5.728100   14.838300
  H    -37.772700    4.959380   14.909400
  H    -36.183200    5.244710   14.344700
  C    -37.753700    6.754760   13.952600
  H    -37.332900    7.730260   14.283200
  H    -38.888500    6.681610   14.147300
  C    -37.583400    6.491470   12.418800
  H    -36.516600    6.494290   12.148600
  H    -38.121800    7.156950   11.706100
  H    -37.769400    5.471570   12.154600
  H    -30.794900    5.411190   15.661300
  H    -37.890600    5.676310   19.453100

 Total Charge           Charge          ....    0
 Multiplicity           Mult            ....    1
 Number of Electrons    NEL             ....  134
 Basis Dimension        Dim             ....  322

ORBITAL ENERGIES
----------------

  NO   OCC          E(Eh)            E(eV)
   0   2.0000     -88.974448     -2421.1178
   1   2.0000     -88.965597     -2420.8770
   2   2.0000     -10.329166      -281.0709
   3   2.0000     -10.327304      -281.0202
   4   2.0000     -10.322952      -280.9018
   5   2.0000     -10.313928      -280.6563
   6   2.0000     -10.309596      -280.5384
   7   2.0000     -10.303207      -280.3645
   8   2.0000     -10.302111      -280.3347
   9   2.0000     -10.301176      -280.3093
  10   2.0000     -10.295899      -280.1656
  11   2.0000     -10.291857      -280.0557
  12   2.0000     -10.286972      -279.9227
  13   2.0000     -10.286176      -279.9011
  14   2.0000     -10.285545      -279.8839
  15   2.0000     -10.283887      -279.8388
  16   2.0000      -8.089876      -220.1367
  17   2.0000      -8.080343      -219.8773
  18   2.0000      -6.048339      -164.5837
  19   2.0000      -6.044500      -164.4792
  20   2.0000      -6.040424      -164.3683
  21   2.0000      -6.038941      -164.3279
  22   2.0000      -6.034931      -164.2188
  23   2.0000      -6.030960      -164.1108
  24   2.0000      -1.010241       -27.4901
  25   2.0000      -0.982939       -26.7471
  26   2.0000      -0.912038       -24.8178
  27   2.0000      -0.908956       -24.7339
  28   2.0000      -0.868235       -23.6259
  29   2.0000      -0.858359       -23.3571
  30   2.0000      -0.848182       -23.0802
  31   2.0000      -0.811405       -22.0794
  32   2.0000      -0.784487       -21.3470
  33   2.0000      -0.773378       -21.0447
  34   2.0000      -0.713023       -19.4024
  35   2.0000      -0.704235       -19.1632
  36   2.0000      -0.689611       -18.7653
  37   2.0000      -0.671476       -18.2718
  38   2.0000      -0.638168       -17.3654
  39   2.0000      -0.623696       -16.9716
  40   2.0000      -0.595866       -16.2143
  41   2.0000      -0.566871       -15.4253
  42   2.0000      -0.563563       -15.3353
  43   2.0000      -0.553017       -15.0484
  44   2.0000      -0.532663       -14.4945
  45   2.0000      -0.526713       -14.3326
  46   2.0000      -0.514504       -14.0004
  47   2.0000      -0.512690       -13.9510
  48   2.0000      -0.506105       -13.7718
  49   2.0000      -0.496357       -13.5066
  50   2.0000      -0.487427       -13.2636
  51   2.0000      -0.481495       -13.1021
  52   2.0000      -0.475718       -12.9450
  53   2.0000      -0.468478       -12.7479
  54   2.0000      -0.462648       -12.5893
  55   2.0000      -0.456495       -12.4219
  56   2.0000      -0.444810       -12.1039
  57   2.0000      -0.442195       -12.0327
  58   2.0000      -0.436732       -11.8841
  59   2.0000      -0.431057       -11.7297
  60   2.0000      -0.424877       -11.5615
  61   2.0000      -0.408548       -11.1172
  62   2.0000      -0.403652       -10.9839
  63   2.0000      -0.360348        -9.8056
  64   2.0000      -0.336521        -9.1572
  65   2.0000      -0.327135        -8.9018
  66   2.0000      -0.279267        -7.5992
  67   0.0000       0.020055         0.5457
  68   0.0000       0.081734         2.2241
  69   0.0000       0.097224         2.6456
  70   0.0000       0.111725         3.0402
  71   0.0000       0.122023         3.3204

MULLIKEN ATOMIC CHARGES
-----------------------
   0 S :    0.144912
   1 C :   -0.097421
   2 C :   -0.097803
   3 C :   -0.010914
   4 C :   -0.116006
   5 H :    0.000375
   6 C :    0.061100
   7 H :    0.017958
   8 H :    0.021339
   9 C :   -0.025790
  10 H :    0.002669
  11 H :    0.022578
  12 C :   -0.055899
  13 H :    0.030652
  14 H :    0.033411
  15 H :    0.035641
  16 S :    0.086558
  17 C :   -0.113619
  18 C :   -0.008675
  19 C :   -0.038624
  20 C :   -0.106218
  21 H :    0.005268
  22 C :    0.006808
  23 H :    0.015562
  24 H :    0.025636
  25 C :   -0.078171
  26 H :    0.043080
  27 H :    0.047978
  28 C :   -0.051202
  29 H :    0.016590
  30 H :    0.052496
  31 H :    0.017553
  32 H :    0.037803
  33 H :    0.074373
Sum of atomic charges:    0.0000000

LOEWDIN ATOMIC CHARGES
----------------------
   0 S :    0.437420
   1 C :   -0.216177
   2 C :   -0.055594
   3 C :   -0.061506
   4 C :   -0.192763
   5 H :    0.025699
   6 C :   -0.031334
   7 H :    0.023304
   8 H :    0.036231
   9 C :   -0.049751
  10 H :    0.020872
  11 H :    0.029777
  12 C :   -0.064830
  13 H :    0.031357
  14 H :    0.029846
  15 H :    0.021550
  16 S :    0.386427
  17 C :   -0.185013
  18 C :   -0.055521
  19 C :   -0.059938
  20 C :   -0.191070
  21 H :    0.021933
  22 C :   -0.045628
  23 H :    0.033878
  24 H :    0.025510
  25 C :   -0.040244
  26 H :    0.025227
  27 H :    0.033285
  28 C :   -0.074758
  29 H :    0.023221
  30 H :    0.033174
  31 H :    0.021551
  32 H :    0.028229
  33 H :    0.035638

  Mayer bond orders larger than 0.100000
B(  0-S ,  1-C ) :   1.1422 B(  0-S ,  4-C ) :   1.1410 B(  1-C ,  2-C ) :   1.6381
B(  1-C , 32-H ) :   0.9565 B(  2-C ,  3-C ) :   1.2195 B(  2-C ,  6-C ) :   1.0138
B(  3-C ,  4-C ) :   1.5732 B(  3-C ,  5-H ) :   0.9968 B(  4-C , 20-C ) :   1.0885
B(  6-C ,  7-H ) :   0.9426 B(  6-C ,  8-H ) :   0.9394 B(  6-C ,  9-C ) :   1.0589
B(  9-C , 10-H ) :   0.9455 B(  9-C , 11-H ) :   0.9475 B(  9-C , 12-C ) :   1.0833
B( 12-C , 13-H ) :   0.9730 B( 12-C , 14-H ) :   0.9719 B( 12-C , 15-H ) :   0.9791
B( 16-S , 17-C ) :   1.1372 B( 16-S , 20-C ) :   1.1283 B( 17-C , 18-C ) :   1.6119
B( 17-C , 33-H ) :   0.9656 B( 18-C , 19-C ) :   1.2433 B( 18-C , 21-H ) :   0.9957
B( 19-C , 20-C ) :   1.5632 B( 19-C , 22-C ) :   1.0596 B( 22-C , 23-H ) :   0.9274
B( 22-C , 24-H ) :   0.9423 B( 22-C , 25-C ) :   1.0268 B( 25-C , 26-H ) :   0.9638
B( 25-C , 27-H ) :   0.9591 B( 25-C , 28-C ) :   1.0708 B( 28-C , 29-H ) :   0.9746
B( 28-C , 30-H ) :   0.9756 B( 28-C , 31-H ) :   0.9697

Dispersion correction           -0.013883428
FINAL SINGLE POINT ENERGY     -1339.855959303503

DIPOLE MOMENT
-------------
                                X             Y             Z
Electronic contribution:      2.93580      -2.17582      34.71023
Nuclear contribution   :     -3.17342       1.99265     -35.40790
                        -----------------------------------------
Total Dipole Moment    :     -0.23761      -0.18317      -0.69768
                        -----------------------------------------
Magnitude (a.u.)       :      0.75945
Magnitude (Debye)      :      1.93037

Rotational constants in cm-1:     0.017356     0.009235     0.006228
Rotational constants in MHz :   520.326295   276.855286   186.695953

                             ****ORCA TERMINATED NORMALLY****
TOTAL RUN TIME: 0 days 0 hours 0 minutes 20 seconds 508 msec
