                         Program Version 4.2.1 -  RELEASE  -
|  1> ! wB97X-D3 SP def2-SVP
|  2> %pal
|  3> nprocs 24
|  4> end
|  5>
|  6> * xyz 0 1
|  7> S 	 -84.7079 	 -41.4272 	 -73.1997
|  8> C 	 -84.5874 	 -43.1768 	 -73.4997
|  9> C 	 -85.5447 	 -43.8819 	 -72.8885
| 10> C 	 -86.4698 	 -43.0393 	 -72.3127
| 11> C 	 -86.2361 	 -41.6724 	 -72.3858
| 12> H 	 -87.3052 	 -43.4606 	 -71.6949
| 13> C 	 -85.5811 	 -45.3973 	 -72.7337
| 14> H 	 -85.9837 	 -45.5701 	 -71.7568
| 15> H 	 -84.5717 	 -45.7376 	 -72.8304
| 16> C 	 -86.5818 	 -46.0253 	 -73.7339
| 17> H 	 -86.9457 	 -47.0426 	 -73.5783
| 18> H 	 -87.4999 	 -45.3912 	 -73.8038
| 19> C 	 -86.0057 	 -46.0152 	 -75.1804
| 20> H 	 -86.7267 	 -46.2104 	 -75.9784
| 21> H 	 -85.4761 	 -45.0881 	 -75.3129
| 22> H 	 -85.242 	 -46.7945 	 -75.2472
| 23> S 	 -87.6201 	 -39.5258 	 -73.5119
| 24> C 	 -88.7734 	 -38.6534 	 -72.5661
| 25> C 	 -88.9111 	 -39.2972 	 -71.3447
| 26> C 	 -87.8826 	 -40.2371 	 -71.0711
| 27> C 	 -87.1757 	 -40.5518 	 -72.2039
| 28> H 	 -89.7877 	 -38.9988 	 -70.769
| 29> C 	 -87.7905 	 -40.8079 	 -69.6556
| 30> H 	 -87.1348 	 -41.621 	 -69.7192
| 31> H 	 -88.8229 	 -41.2243 	 -69.3891
| 32> C 	 -87.333 	 -39.8255 	 -68.5607
| 33> H 	 -88.0024 	 -38.9081 	 -68.5654
| 34> H 	 -86.3831 	 -39.5549 	 -68.8613
| 35> C 	 -87.5123 	 -40.5406 	 -67.1701
| 36> H 	 -88.5452 	 -40.6717 	 -66.9488
| 37> H 	 -87.0529 	 -39.9443 	 -66.3847
| 38> H 	 -87.0606 	 -41.4725 	 -67.1343
| 39> H 	 -83.7039 	 -43.5985 	 -73.9681
| 40> H 	 -89.3276 	 -37.853 	 -72.8889
| 41> *
| 42>
| 43>                          ****END OF INPUT****

CARTESIAN COORDINATES (ANGSTROEM)
---------------------------------
  S    -84.707900  -41.427200  -73.199700
  C    -84.587400  -43.176800  -73.499700
  C    -85.544700  -43.881900  -72.888500
  C    -86.469800  -43.039300  -72.312700
  C    -86.236100  -41.672400  -72.385800
  H    -87.305200  -43.460600  -71.694900
  C    -85.581100  -45.397300  -72.733700
  H    -85.983700  -45.570100  -71.756800
  H    -84.571700  -45.737600  -72.830400
  C    -86.581800  -46.025300  -73.733900
  H    -86.945700  -47.042600  -73.578300
  H    -87.499900  -45.391200  -73.803800
  C    -86.005700  -46.015200  -75.180400
  H    -86.726700  -46.210400  -75.978400
  H    -85.476100  -45.088100  -75.312900
  H    -85.242000  -46.794500  -75.247200
  S    -87.620100  -39.525800  -73.511900
  C    -88.773400  -38.653400  -72.566100
  C    -88.911100  -39.297200  -71.344700
  C    -87.882600  -40.237100  -71.071100
  C    -87.175700  -40.551800  -72.203900
  H    -89.787700  -38.998800  -70.769000
  C    -87.790500  -40.807900  -69.655600
  H    -87.134800  -41.621000  -69.719200
  H    -88.822900  -41.224300  -69.389100
  C    -87.333000  -39.825500  -68.560700
  H    -88.002400  -38.908100  -68.565400
  H    -86.383100  -39.554900  -68.861300
  C    -87.512300  -40.540600  -67.170100
  H    -88.545200  -40.671700  -66.948800
  H    -87.052900  -39.944300  -66.384700
  H    -87.060600  -41.472500  -67.134300
  H    -83.703900  -43.598500  -73.968100
  H    -89.327600  -37.853000  -72.888900

 Total Charge           Charge          ....    0
 Multiplicity           Mult            ....    1
 Number of Electrons    NEL             ....  134
 Basis Dimension        Dim             ....  322

ORBITAL ENERGIES
----------------

  NO   OCC          E(Eh)            E(eV)
   0   2.0000     -88.965222     -2420.8668
   1   2.0000     -88.963070     -2420.8082
   2   2.0000     -10.330793      -281.1152
   3   2.0000     -10.323877      -280.9270
   4   2.0000     -10.312972      -280.6302
   5   2.0000     -10.308746      -280.5152
   6   2.0000     -10.297699      -280.2146
   7   2.0000     -10.296421      -280.1798
   8   2.0000     -10.294626      -280.1310
   9   2.0000     -10.293523      -280.1010
  10   2.0000     -10.291099      -280.0350
  11   2.0000     -10.289955      -280.0039
  12   2.0000     -10.289554      -279.9930
  13   2.0000     -10.286701      -279.9154
  14   2.0000     -10.272859      -279.5387
  15   2.0000     -10.272495      -279.5288
  16   2.0000      -8.079845      -219.8638
  17   2.0000      -8.078668      -219.8317
  18   2.0000      -6.038245      -164.3090
  19   2.0000      -6.037102      -164.2779
  20   2.0000      -6.034457      -164.2059
  21   2.0000      -6.032967      -164.1654
  22   2.0000      -6.030641      -164.1021
  23   2.0000      -6.029519      -164.0716
  24   2.0000      -1.012445       -27.5500
  25   2.0000      -0.992799       -27.0154
  26   2.0000      -0.914249       -24.8780
  27   2.0000      -0.906653       -24.6713
  28   2.0000      -0.868224       -23.6256
  29   2.0000      -0.850203       -23.1352
  30   2.0000      -0.843301       -22.9474
  31   2.0000      -0.813407       -22.1339
  32   2.0000      -0.785407       -21.3720
  33   2.0000      -0.776926       -21.1412
  34   2.0000      -0.710584       -19.3360
  35   2.0000      -0.703217       -19.1355
  36   2.0000      -0.694559       -18.8999
  37   2.0000      -0.660043       -17.9607
  38   2.0000      -0.640780       -17.4365
  39   2.0000      -0.624710       -16.9992
  40   2.0000      -0.596171       -16.2226
  41   2.0000      -0.572247       -15.5716
  42   2.0000      -0.566739       -15.4218
  43   2.0000      -0.553245       -15.0546
  44   2.0000      -0.541727       -14.7412
  45   2.0000      -0.527339       -14.3496
  46   2.0000      -0.519409       -14.1338
  47   2.0000      -0.512147       -13.9362
  48   2.0000      -0.506792       -13.7905
  49   2.0000      -0.498489       -13.5646
  50   2.0000      -0.482872       -13.1396
  51   2.0000      -0.479203       -13.0398
  52   2.0000      -0.471720       -12.8362
  53   2.0000      -0.467577       -12.7234
  54   2.0000      -0.462102       -12.5744
  55   2.0000      -0.448408       -12.2018
  56   2.0000      -0.441483       -12.0134
  57   2.0000      -0.437328       -11.9003
  58   2.0000      -0.435589       -11.8530
  59   2.0000      -0.425260       -11.5719
  60   2.0000      -0.424320       -11.5463
  61   2.0000      -0.415901       -11.3172
  62   2.0000      -0.415196       -11.2981
  63   2.0000      -0.340685        -9.2705
  64   2.0000      -0.337550        -9.1852
  65   2.0000      -0.325211        -8.8494
  66   2.0000      -0.297016        -8.0822
  67   0.0000       0.031120         0.8468
  68   0.0000       0.070870         1.9285
  69   0.0000       0.107949         2.9375
  70   0.0000       0.119457         3.2506
  71   0.0000       0.138012         3.7555

MULLIKEN ATOMIC CHARGES
-----------------------
   0 S :    0.100977
   1 C :   -0.144304
   2 C :   -0.100388
   3 C :    0.031044
   4 C :   -0.186327
   5 H :    0.023341
   6 C :    0.131302
   7 H :    0.023144
   8 H :    0.023725
   9 C :   -0.087656
  10 H :    0.034956
  11 H :    0.037451
  12 C :   -0.060417
  13 H :    0.042329
  14 H :    0.022706
  15 H :    0.018201
  16 S :    0.118880
  17 C :   -0.075798
  18 C :   -0.044026
  19 C :   -0.046487
  20 C :   -0.122394
  21 H :    0.026273
  22 C :    0.058608
  23 H :    0.002832
  24 H :    0.031233
  25 C :   -0.059553
  26 H :    0.038814
  27 H :    0.019038
  28 C :   -0.005141
  29 H :    0.024722
  30 H :    0.033416
  31 H :    0.014322
  32 H :    0.047368
  33 H :    0.027810
Sum of atomic charges:   -0.0000000

LOEWDIN ATOMIC CHARGES
----------------------
   0 S :    0.393937
   1 C :   -0.178367
   2 C :   -0.074939
   3 C :   -0.061313
   4 C :   -0.195136
   5 H :    0.036133
   6 C :   -0.011904
   7 H :    0.031722
   8 H :    0.027748
   9 C :   -0.041620
  10 H :    0.021784
  11 H :    0.029260
  12 C :   -0.067282
  13 H :    0.026886
  14 H :    0.019753
  15 H :    0.019757
  16 S :    0.427706
  17 C :   -0.180393
  18 C :   -0.068116
  19 C :   -0.061685
  20 C :   -0.216307
  21 H :    0.032595
  22 C :   -0.028745
  23 H :    0.015374
  24 H :    0.035217
  25 C :   -0.026289
  26 H :    0.030095
  27 H :    0.014034
  28 C :   -0.053600
  29 H :    0.023311
  30 H :    0.027753
  31 H :    0.015239
  32 H :    0.024561
  33 H :    0.012829

  Mayer bond orders larger than 0.100000
B(  0-S ,  1-C ) :   1.1442 B(  0-S ,  4-C ) :   1.1557 B(  1-C ,  2-C ) :   1.6084
B(  1-C , 32-H ) :   0.9600 B(  2-C ,  3-C ) :   1.2876 B(  2-C ,  6-C ) :   1.0022
B(  3-C ,  4-C ) :   1.5639 B(  3-C ,  5-H ) :   0.9766 B(  4-C , 20-C ) :   1.0146
B(  6-C ,  7-H ) :   0.9355 B(  6-C ,  8-H ) :   0.9491 B(  6-C ,  9-C ) :   1.0513
B(  9-C , 10-H ) :   0.9631 B(  9-C , 11-H ) :   0.9605 B(  9-C , 12-C ) :   1.0647
B( 12-C , 13-H ) :   0.9754 B( 12-C , 14-H ) :   0.9772 B( 12-C , 15-H ) :   0.9771
B( 16-S , 17-C ) :   1.1632 B( 16-S , 20-C ) :   1.1490 B( 17-C , 18-C ) :   1.5981
B( 17-C , 33-H ) :   0.9810 B( 18-C , 19-C ) :   1.2378 B( 18-C , 21-H ) :   0.9899
B( 19-C , 20-C ) :   1.5928 B( 19-C , 22-C ) :   1.0395 B( 22-C , 23-H ) :   0.9253
B( 22-C , 24-H ) :   0.9415 B( 22-C , 25-C ) :   1.0587 B( 25-C , 26-H ) :   0.9598
B( 25-C , 27-H ) :   0.9569 B( 25-C , 28-C ) :   1.0721 B( 28-C , 29-H ) :   0.9753
B( 28-C , 30-H ) :   0.9750 B( 28-C , 31-H ) :   0.9750

Dispersion correction           -0.013818225
FINAL SINGLE POINT ENERGY     -1339.867433993970

DIPOLE MOMENT
-------------
                                X             Y             Z
Electronic contribution:      4.31581      16.75270     -13.04264
Nuclear contribution   :     -4.58187     -17.18721      13.46845
                        -----------------------------------------
Total Dipole Moment    :     -0.26606      -0.43451       0.42582
                        -----------------------------------------
Magnitude (a.u.)       :      0.66401
Magnitude (Debye)      :      1.68777

Rotational constants in cm-1:     0.019241     0.007841     0.006652
Rotational constants in MHz :   576.844467   235.079201   199.422248

                             ****ORCA TERMINATED NORMALLY****
TOTAL RUN TIME: 0 days 0 hours 0 minutes 22 seconds 428 msec
