                         Program Version 4.2.1 -  RELEASE  -
|  1> ! wB97X-D3 SP def2-SVP
|  2> %pal
|  3> nprocs 24
|  4> end
|  5>
|  6> * xyz 0 1
|  7> S 	 -122.811 	 61.7918 	 -35.2522
|  8> C 	 -122.422 	 60.8251 	 -36.6279
|  9> C 	 -121.625 	 61.4354 	 -37.5407
| 10> C 	 -120.936 	 62.562 	 -36.9617
| 11> C 	 -121.443 	 62.9343 	 -35.6904
| 12> H 	 -120.08 	 63.017 	 -37.3812
| 13> C 	 -121.222 	 60.9199 	 -38.8921
| 14> H 	 -120.595 	 60.0965 	 -38.6579
| 15> H 	 -120.446 	 61.5577 	 -39.41
| 16> C 	 -122.326 	 60.355 	 -39.8613
| 17> H 	 -122.866 	 59.5551 	 -39.3724
| 18> H 	 -123.036 	 61.1464 	 -40.1296
| 19> C 	 -121.74 	 59.6294 	 -41.0795
| 20> H 	 -122.493 	 59.2347 	 -41.7348
| 21> H 	 -121.238 	 60.4193 	 -41.723
| 22> H 	 -121.002 	 58.852 	 -40.7731
| 23> S 	 -119.314 	 64.6721 	 -35.3543
| 24> C 	 -119.34 	 65.7504 	 -34.0166
| 25> C 	 -120.555 	 65.7452 	 -33.3796
| 26> C 	 -121.42 	 64.7429 	 -33.8227
| 27> C 	 -120.943 	 64.0108 	 -34.9073
| 28> H 	 -120.613 	 66.4469 	 -32.4935
| 29> C 	 -122.738 	 64.609 	 -33.2272
| 30> H 	 -123.556 	 64.532 	 -33.9786
| 31> H 	 -122.927 	 65.595 	 -32.7983
| 32> C 	 -122.702 	 63.5402 	 -32.1948
| 33> H 	 -122.092 	 63.8567 	 -31.3228
| 34> H 	 -122.396 	 62.5693 	 -32.5724
| 35> C 	 -124.167 	 63.3685 	 -31.7142
| 36> H 	 -124.585 	 64.3065 	 -31.4178
| 37> H 	 -124.31 	 62.6181 	 -30.8352
| 38> H 	 -124.781 	 62.9269 	 -32.4851
| 39> H 	 -122.937 	 59.9146 	 -36.9433
| 40> H 	 -118.555 	 66.4659 	 -33.7258
| 41> *
| 42>
| 43>                          ****END OF INPUT****

CARTESIAN COORDINATES (ANGSTROEM)
---------------------------------
  S    -122.811000   61.791800  -35.252200
  C    -122.422000   60.825100  -36.627900
  C    -121.625000   61.435400  -37.540700
  C    -120.936000   62.562000  -36.961700
  C    -121.443000   62.934300  -35.690400
  H    -120.080000   63.017000  -37.381200
  C    -121.222000   60.919900  -38.892100
  H    -120.595000   60.096500  -38.657900
  H    -120.446000   61.557700  -39.410000
  C    -122.326000   60.355000  -39.861300
  H    -122.866000   59.555100  -39.372400
  H    -123.036000   61.146400  -40.129600
  C    -121.740000   59.629400  -41.079500
  H    -122.493000   59.234700  -41.734800
  H    -121.238000   60.419300  -41.723000
  H    -121.002000   58.852000  -40.773100
  S    -119.314000   64.672100  -35.354300
  C    -119.340000   65.750400  -34.016600
  C    -120.555000   65.745200  -33.379600
  C    -121.420000   64.742900  -33.822700
  C    -120.943000   64.010800  -34.907300
  H    -120.613000   66.446900  -32.493500
  C    -122.738000   64.609000  -33.227200
  H    -123.556000   64.532000  -33.978600
  H    -122.927000   65.595000  -32.798300
  C    -122.702000   63.540200  -32.194800
  H    -122.092000   63.856700  -31.322800
  H    -122.396000   62.569300  -32.572400
  C    -124.167000   63.368500  -31.714200
  H    -124.585000   64.306500  -31.417800
  H    -124.310000   62.618100  -30.835200
  H    -124.781000   62.926900  -32.485100
  H    -122.937000   59.914600  -36.943300
  H    -118.555000   66.465900  -33.725800

 Total Charge           Charge          ....    0
 Multiplicity           Mult            ....    1
 Number of Electrons    NEL             ....  134
 Basis Dimension        Dim             ....  322

ORBITAL ENERGIES
----------------

  NO   OCC          E(Eh)            E(eV)
   0   2.0000     -88.972771     -2421.0722
   1   2.0000     -88.964983     -2420.8603
   2   2.0000     -10.338997      -281.3384
   3   2.0000     -10.328633      -281.0564
   4   2.0000     -10.316000      -280.7126
   5   2.0000     -10.308878      -280.5188
   6   2.0000     -10.300089      -280.2797
   7   2.0000     -10.296646      -280.1860
   8   2.0000     -10.295480      -280.1543
   9   2.0000     -10.294657      -280.1319
  10   2.0000     -10.292694      -280.0785
  11   2.0000     -10.292199      -280.0650
  12   2.0000     -10.286363      -279.9062
  13   2.0000     -10.284234      -279.8482
  14   2.0000     -10.284029      -279.8426
  15   2.0000     -10.275707      -279.6162
  16   2.0000      -8.085578      -220.0198
  17   2.0000      -8.079264      -219.8480
  18   2.0000      -6.044381      -164.4760
  19   2.0000      -6.040557      -164.3719
  20   2.0000      -6.037846      -164.2981
  21   2.0000      -6.035965      -164.2470
  22   2.0000      -6.033888      -164.1904
  23   2.0000      -6.029947      -164.0832
  24   2.0000      -1.005572       -27.3630
  25   2.0000      -0.984049       -26.7773
  26   2.0000      -0.921898       -25.0861
  27   2.0000      -0.908567       -24.7234
  28   2.0000      -0.874276       -23.7903
  29   2.0000      -0.854411       -23.2497
  30   2.0000      -0.849131       -23.1060
  31   2.0000      -0.808515       -22.0008
  32   2.0000      -0.780670       -21.2431
  33   2.0000      -0.766679       -20.8624
  34   2.0000      -0.712246       -19.3812
  35   2.0000      -0.703774       -19.1507
  36   2.0000      -0.694607       -18.9012
  37   2.0000      -0.665571       -18.1111
  38   2.0000      -0.634421       -17.2635
  39   2.0000      -0.609863       -16.5952
  40   2.0000      -0.597667       -16.2633
  41   2.0000      -0.572429       -15.5766
  42   2.0000      -0.567941       -15.4545
  43   2.0000      -0.562617       -15.3096
  44   2.0000      -0.528448       -14.3798
  45   2.0000      -0.522033       -14.2052
  46   2.0000      -0.515823       -14.0363
  47   2.0000      -0.512672       -13.9505
  48   2.0000      -0.507485       -13.8094
  49   2.0000      -0.503563       -13.7027
  50   2.0000      -0.490389       -13.3442
  51   2.0000      -0.476274       -12.9601
  52   2.0000      -0.471693       -12.8354
  53   2.0000      -0.465780       -12.6745
  54   2.0000      -0.461848       -12.5675
  55   2.0000      -0.445172       -12.1137
  56   2.0000      -0.439897       -11.9702
  57   2.0000      -0.435596       -11.8532
  58   2.0000      -0.432094       -11.7579
  59   2.0000      -0.426428       -11.6037
  60   2.0000      -0.421246       -11.4627
  61   2.0000      -0.416942       -11.3456
  62   2.0000      -0.407813       -11.0972
  63   2.0000      -0.367728       -10.0064
  64   2.0000      -0.333181        -9.0663
  65   2.0000      -0.327196        -8.9035
  66   2.0000      -0.271938        -7.3998
  67   0.0000       0.013904         0.3784
  68   0.0000       0.077951         2.1212
  69   0.0000       0.101033         2.7492
  70   0.0000       0.105516         2.8712
  71   0.0000       0.132594         3.6081

MULLIKEN ATOMIC CHARGES
-----------------------
   0 S :    0.107377
   1 C :   -0.118302
   2 C :   -0.037751
   3 C :   -0.028346
   4 C :   -0.094605
   5 H :    0.009756
   6 C :    0.030853
   7 H :    0.025398
   8 H :    0.027988
   9 C :   -0.074420
  10 H :    0.025469
  11 H :    0.045048
  12 C :   -0.074341
  13 H :    0.037488
  14 H :    0.033276
  15 H :    0.044187
  16 S :    0.080089
  17 C :   -0.087181
  18 C :   -0.064838
  19 C :   -0.045079
  20 C :   -0.118558
  21 H :    0.038538
  22 C :    0.022993
  23 H :    0.038172
  24 H :    0.015500
  25 C :   -0.058190
  26 H :    0.037482
  27 H :    0.039058
  28 C :   -0.048867
  29 H :    0.019644
  30 H :    0.036329
  31 H :    0.026216
  32 H :    0.047029
  33 H :    0.062588
Sum of atomic charges:   -0.0000000

LOEWDIN ATOMIC CHARGES
----------------------
   0 S :    0.389723
   1 C :   -0.209422
   2 C :   -0.059920
   3 C :   -0.058550
   4 C :   -0.159525
   5 H :    0.017888
   6 C :   -0.041415
   7 H :    0.033069
   8 H :    0.036598
   9 C :   -0.038806
  10 H :    0.020732
  11 H :    0.027395
  12 C :   -0.069741
  13 H :    0.024342
  14 H :    0.029095
  15 H :    0.030189
  16 S :    0.394209
  17 C :   -0.192448
  18 C :   -0.086691
  19 C :   -0.059343
  20 C :   -0.172484
  21 H :    0.043903
  22 C :   -0.043207
  23 H :    0.032471
  24 H :    0.033834
  25 C :   -0.035610
  26 H :    0.031694
  27 H :    0.016684
  28 C :   -0.068022
  29 H :    0.015868
  30 H :    0.030127
  31 H :    0.019884
  32 H :    0.030046
  33 H :    0.037433

  Mayer bond orders larger than 0.100000
B(  0-S ,  1-C ) :   1.1227 B(  0-S ,  4-C ) :   1.1007 B(  1-C ,  2-C ) :   1.6418
B(  1-C , 32-H ) :   0.9554 B(  2-C ,  3-C ) :   1.2237 B(  2-C ,  6-C ) :   1.0186
B(  3-C ,  4-C ) :   1.5427 B(  3-C ,  5-H ) :   0.9901 B(  4-C , 20-C ) :   1.1810
B(  6-C ,  7-H ) :   0.9323 B(  6-C ,  8-H ) :   0.9475 B(  6-C ,  9-C ) :   1.0480
B(  9-C , 10-H ) :   0.9535 B(  9-C , 11-H ) :   0.9616 B(  9-C , 12-C ) :   1.0835
B( 12-C , 13-H ) :   0.9741 B( 12-C , 14-H ) :   0.9749 B( 12-C , 15-H ) :   0.9738
B( 16-S , 17-C ) :   1.1628 B( 16-S , 20-C ) :   1.1081 B( 17-C , 18-C ) :   1.6196
B( 17-C , 33-H ) :   0.9580 B( 18-C , 19-C ) :   1.2573 B( 18-C , 21-H ) :   0.9773
B( 19-C , 20-C ) :   1.5423 B( 19-C , 22-C ) :   1.0432 B( 22-C , 23-H ) :   0.9431
B( 22-C , 24-H ) :   0.9216 B( 22-C , 25-C ) :   1.0591 B( 25-C , 26-H ) :   0.9486
B( 25-C , 27-H ) :   0.9576 B( 25-C , 28-C ) :   1.0792 B( 28-C , 29-H ) :   0.9705
B( 28-C , 30-H ) :   0.9746 B( 28-C , 31-H ) :   0.9750

Dispersion correction           -0.013871059
FINAL SINGLE POINT ENERGY     -1339.864060225390

DIPOLE MOMENT
-------------
                                X             Y             Z
Electronic contribution:      9.83349       9.19964       5.95415
Nuclear contribution   :     -9.84579      -9.22261      -6.12591
                        -----------------------------------------
Total Dipole Moment    :     -0.01230      -0.02297      -0.17176
                        -----------------------------------------
Magnitude (a.u.)       :      0.17373
Magnitude (Debye)      :      0.44158

Rotational constants in cm-1:     0.022825     0.007533     0.005814
Rotational constants in MHz :   684.271373   225.838436   174.285013

                             ****ORCA TERMINATED NORMALLY****
TOTAL RUN TIME: 0 days 0 hours 0 minutes 23 seconds 299 msec
