                         Program Version 4.2.1 -  RELEASE  -
|  1> ! wB97X-D3 SP def2-SVP
|  2> %pal
|  3> nprocs 24
|  4> end
|  5>
|  6> * xyz 0 1
|  7> S 	 -31.2937 	 -50.2375 	 -75.4601
|  8> C 	 -29.8613 	 -49.51 	 -76.1183
|  9> C 	 -30.0012 	 -48.1873 	 -76.354
| 10> C 	 -31.2606 	 -47.7273 	 -75.8292
| 11> C 	 -32.1635 	 -48.7041 	 -75.4549
| 12> H 	 -31.6994 	 -46.7451 	 -75.7786
| 13> C 	 -28.9854 	 -47.2447 	 -76.9055
| 14> H 	 -28.0108 	 -47.4711 	 -76.3534
| 15> H 	 -29.1752 	 -46.2972 	 -76.4032
| 16> C 	 -28.6771 	 -47.1418 	 -78.4106
| 17> H 	 -27.9216 	 -46.3896 	 -78.6161
| 18> H 	 -28.3164 	 -48.1292 	 -78.6008
| 19> C 	 -29.8441 	 -46.7349 	 -79.26
| 20> H 	 -30.6931 	 -47.3848 	 -79.1133
| 21> H 	 -30.149 	 -45.6914 	 -79.1632
| 22> H 	 -29.5553 	 -46.8879 	 -80.3173
| 23> S 	 -33.8963 	 -49.6734 	 -73.4717
| 24> C 	 -35.4343 	 -48.8327 	 -73.0739
| 25> C 	 -35.5694 	 -47.8771 	 -74.0338
| 26> C 	 -34.4779 	 -47.6466 	 -74.9261
| 27> C 	 -33.4316 	 -48.5027 	 -74.693
| 28> H 	 -36.5484 	 -47.3435 	 -74.2524
| 29> C 	 -34.6748 	 -46.606 	 -76.0072
| 30> H 	 -35.6619 	 -46.6721 	 -76.4558
| 31> H 	 -34.0393 	 -46.8412 	 -76.8772
| 32> C 	 -34.526 	 -45.1594 	 -75.7279
| 33> H 	 -33.6107 	 -44.9942 	 -75.1802
| 34> H 	 -35.4051 	 -44.8475 	 -75.1126
| 35> C 	 -34.5532 	 -44.1745 	 -76.9529
| 36> H 	 -34.3614 	 -43.1929 	 -76.6329
| 37> H 	 -35.579 	 -44.1613 	 -77.2657
| 38> H 	 -33.9118 	 -44.3122 	 -77.8759
| 39> H 	 -29.078 	 -50.1406 	 -76.4418
| 40> H 	 -36.1662 	 -49.2091 	 -72.4056
| 41> *
| 42>
| 43>                          ****END OF INPUT****

CARTESIAN COORDINATES (ANGSTROEM)
---------------------------------
  S    -31.293700  -50.237500  -75.460100
  C    -29.861300  -49.510000  -76.118300
  C    -30.001200  -48.187300  -76.354000
  C    -31.260600  -47.727300  -75.829200
  C    -32.163500  -48.704100  -75.454900
  H    -31.699400  -46.745100  -75.778600
  C    -28.985400  -47.244700  -76.905500
  H    -28.010800  -47.471100  -76.353400
  H    -29.175200  -46.297200  -76.403200
  C    -28.677100  -47.141800  -78.410600
  H    -27.921600  -46.389600  -78.616100
  H    -28.316400  -48.129200  -78.600800
  C    -29.844100  -46.734900  -79.260000
  H    -30.693100  -47.384800  -79.113300
  H    -30.149000  -45.691400  -79.163200
  H    -29.555300  -46.887900  -80.317300
  S    -33.896300  -49.673400  -73.471700
  C    -35.434300  -48.832700  -73.073900
  C    -35.569400  -47.877100  -74.033800
  C    -34.477900  -47.646600  -74.926100
  C    -33.431600  -48.502700  -74.693000
  H    -36.548400  -47.343500  -74.252400
  C    -34.674800  -46.606000  -76.007200
  H    -35.661900  -46.672100  -76.455800
  H    -34.039300  -46.841200  -76.877200
  C    -34.526000  -45.159400  -75.727900
  H    -33.610700  -44.994200  -75.180200
  H    -35.405100  -44.847500  -75.112600
  C    -34.553200  -44.174500  -76.952900
  H    -34.361400  -43.192900  -76.632900
  H    -35.579000  -44.161300  -77.265700
  H    -33.911800  -44.312200  -77.875900
  H    -29.078000  -50.140600  -76.441800
  H    -36.166200  -49.209100  -72.405600

 Total Charge           Charge          ....    0
 Multiplicity           Mult            ....    1
 Number of Electrons    NEL             ....  134
 Basis Dimension        Dim             ....  322

ORBITAL ENERGIES
----------------

  NO   OCC          E(Eh)            E(eV)
   0   2.0000     -88.964080     -2420.8357
   1   2.0000     -88.963071     -2420.8082
   2   2.0000     -10.335340      -281.2389
   3   2.0000     -10.332883      -281.1720
   4   2.0000     -10.320353      -280.8311
   5   2.0000     -10.312455      -280.6162
   6   2.0000     -10.303239      -280.3654
   7   2.0000     -10.302320      -280.3404
   8   2.0000     -10.298166      -280.2274
   9   2.0000     -10.295449      -280.1534
  10   2.0000     -10.293722      -280.1064
  11   2.0000     -10.289405      -279.9890
  12   2.0000     -10.288758      -279.9713
  13   2.0000     -10.286813      -279.9184
  14   2.0000     -10.280830      -279.7556
  15   2.0000     -10.275086      -279.5993
  16   2.0000      -8.079242      -219.8474
  17   2.0000      -8.077391      -219.7970
  18   2.0000      -6.037810      -164.2972
  19   2.0000      -6.036160      -164.2523
  20   2.0000      -6.033684      -164.1849
  21   2.0000      -6.032001      -164.1391
  22   2.0000      -6.029908      -164.0821
  23   2.0000      -6.027817      -164.0252
  24   2.0000      -1.008858       -27.4524
  25   2.0000      -0.988686       -26.9035
  26   2.0000      -0.915184       -24.9034
  27   2.0000      -0.912932       -24.8422
  28   2.0000      -0.873619       -23.7724
  29   2.0000      -0.853407       -23.2224
  30   2.0000      -0.845016       -22.9941
  31   2.0000      -0.820398       -22.3242
  32   2.0000      -0.784696       -21.3527
  33   2.0000      -0.780144       -21.2288
  34   2.0000      -0.708111       -19.2687
  35   2.0000      -0.703664       -19.1477
  36   2.0000      -0.694269       -18.8920
  37   2.0000      -0.665329       -18.1045
  38   2.0000      -0.648174       -17.6377
  39   2.0000      -0.611533       -16.6407
  40   2.0000      -0.600124       -16.3302
  41   2.0000      -0.582101       -15.8398
  42   2.0000      -0.571533       -15.5522
  43   2.0000      -0.548447       -14.9240
  44   2.0000      -0.543644       -14.7933
  45   2.0000      -0.523109       -14.2345
  46   2.0000      -0.520172       -14.1546
  47   2.0000      -0.517334       -14.0774
  48   2.0000      -0.507458       -13.8086
  49   2.0000      -0.497199       -13.5295
  50   2.0000      -0.492571       -13.4035
  51   2.0000      -0.484773       -13.1913
  52   2.0000      -0.480212       -13.0672
  53   2.0000      -0.468969       -12.7613
  54   2.0000      -0.461322       -12.5532
  55   2.0000      -0.447116       -12.1666
  56   2.0000      -0.437815       -11.9136
  57   2.0000      -0.432708       -11.7746
  58   2.0000      -0.427809       -11.6413
  59   2.0000      -0.422134       -11.4869
  60   2.0000      -0.418460       -11.3869
  61   2.0000      -0.415587       -11.3087
  62   2.0000      -0.409432       -11.1412
  63   2.0000      -0.361511        -9.8372
  64   2.0000      -0.332208        -9.0398
  65   2.0000      -0.326690        -8.8897
  66   2.0000      -0.294873        -8.0239
  67   0.0000       0.022856         0.6219
  68   0.0000       0.075630         2.0580
  69   0.0000       0.102686         2.7942
  70   0.0000       0.116166         3.1610
  71   0.0000       0.129925         3.5354

MULLIKEN ATOMIC CHARGES
-----------------------
   0 S :    0.084273
   1 C :   -0.110626
   2 C :   -0.049490
   3 C :    0.002139
   4 C :   -0.123505
   5 H :    0.005268
   6 C :    0.013561
   7 H :    0.034448
   8 H :    0.014671
   9 C :   -0.007254
  10 H :    0.032069
  11 H :    0.020003
  12 C :   -0.058663
  13 H :    0.034983
  14 H :    0.033834
  15 H :    0.031592
  16 S :    0.071923
  17 C :   -0.078026
  18 C :   -0.032625
  19 C :   -0.036425
  20 C :   -0.121402
  21 H :    0.038048
  22 C :    0.044702
  23 H :    0.013045
  24 H :    0.019802
  25 C :   -0.074413
  26 H :    0.028972
  27 H :    0.030383
  28 C :   -0.047985
  29 H :    0.022870
  30 H :    0.021381
  31 H :    0.044219
  32 H :    0.041776
  33 H :    0.056450
Sum of atomic charges:    0.0000000

LOEWDIN ATOMIC CHARGES
----------------------
   0 S :    0.397117
   1 C :   -0.177910
   2 C :   -0.070566
   3 C :   -0.057002
   4 C :   -0.186429
   5 H :    0.028765
   6 C :   -0.044906
   7 H :    0.041091
   8 H :    0.027793
   9 C :   -0.034447
  10 H :    0.029659
  11 H :    0.022194
  12 C :   -0.067706
  13 H :    0.023530
  14 H :    0.025909
  15 H :    0.030498
  16 S :    0.378561
  17 C :   -0.167525
  18 C :   -0.070392
  19 C :   -0.068574
  20 C :   -0.180812
  21 H :    0.039012
  22 C :   -0.044061
  23 H :    0.031002
  24 H :    0.029961
  25 C :   -0.038896
  26 H :    0.016743
  27 H :    0.029399
  28 C :   -0.066691
  29 H :    0.021088
  30 H :    0.022067
  31 H :    0.032088
  32 H :    0.021041
  33 H :    0.028397

  Mayer bond orders larger than 0.100000
B(  0-S ,  1-C ) :   1.1532 B(  0-S ,  4-C ) :   1.1326 B(  1-C ,  2-C ) :   1.6090
B(  1-C , 32-H ) :   0.9729 B(  2-C ,  3-C ) :   1.2170 B(  2-C ,  6-C ) :   1.0130
B(  3-C ,  4-C ) :   1.5980 B(  3-C ,  5-H ) :   0.9916 B(  4-C , 20-C ) :   1.0357
B(  6-C ,  7-H ) :   0.9432 B(  6-C ,  8-H ) :   0.9404 B(  6-C ,  9-C ) :   1.0612
B(  9-C , 10-H ) :   0.9519 B(  9-C , 11-H ) :   0.9542 B(  9-C , 12-C ) :   1.0893
B( 12-C , 13-H ) :   0.9745 B( 12-C , 14-H ) :   0.9743 B( 12-C , 15-H ) :   0.9714
B( 16-S , 17-C ) :   1.1222 B( 16-S , 20-C ) :   1.1335 B( 17-C , 18-C ) :   1.6075
B( 17-C , 33-H ) :   0.9786 B( 18-C , 19-C ) :   1.2590 B( 18-C , 21-H ) :   0.9722
B( 19-C , 20-C ) :   1.6016 B( 19-C , 22-C ) :   1.0468 B( 22-C , 23-H ) :   0.9305
B( 22-C , 24-H ) :   0.9298 B( 22-C , 25-C ) :   1.0699 B( 25-C , 26-H ) :   0.9558
B( 25-C , 27-H ) :   0.9506 B( 25-C , 28-C ) :   1.0757 B( 28-C , 29-H ) :   0.9739
B( 28-C , 30-H ) :   0.9760 B( 28-C , 31-H ) :   0.9764

Dispersion correction           -0.013907844
FINAL SINGLE POINT ENERGY     -1339.867043472237

DIPOLE MOMENT
-------------
                                X             Y             Z
Electronic contribution:     -3.63653     -25.28703      19.37982
Nuclear contribution   :      3.62647      25.87501     -19.82596
                        -----------------------------------------
Total Dipole Moment    :     -0.01006       0.58798      -0.44614
                        -----------------------------------------
Magnitude (a.u.)       :      0.73815
Magnitude (Debye)      :      1.87622

Rotational constants in cm-1:     0.016816     0.009656     0.006420
Rotational constants in MHz :   504.135732   289.480981   192.456799

                             ****ORCA TERMINATED NORMALLY****
TOTAL RUN TIME: 0 days 0 hours 0 minutes 21 seconds 457 msec
