                         Program Version 4.2.1 -  RELEASE  -
|  1> ! wB97X-D3 SP def2-SVP
|  2> %pal
|  3> nprocs 24
|  4> end
|  5>
|  6> * xyz 0 1
|  7> S 	 -91.1529 	 -6.66927 	 -118.454
|  8> C 	 -90.0383 	 -7.86609 	 -119.045
|  9> C 	 -90.6637 	 -8.54675 	 -120.115
| 10> C 	 -92.0797 	 -8.34393 	 -120.256
| 11> C 	 -92.5171 	 -7.36806 	 -119.346
| 12> H 	 -92.8137 	 -8.70316 	 -120.89
| 13> C 	 -90.0297 	 -9.7243 	 -120.882
| 14> H 	 -90.8184 	 -10.4707 	 -121.152
| 15> H 	 -89.3385 	 -10.1779 	 -120.154
| 16> C 	 -89.4149 	 -9.31393 	 -122.193
| 17> H 	 -90.0762 	 -8.53853 	 -122.614
| 18> H 	 -88.525 	 -8.74816 	 -121.887
| 19> C 	 -89.1687 	 -10.5212 	 -123.134
| 20> H 	 -88.4243 	 -11.1791 	 -122.712
| 21> H 	 -90.048 	 -11.0869 	 -123.412
| 22> H 	 -88.7414 	 -10.1926 	 -124.071
| 23> S 	 -94.1614 	 -5.21796 	 -118.866
| 24> C 	 -95.8558 	 -5.41366 	 -119.013
| 25> C 	 -96.1783 	 -6.77787 	 -119.059
| 26> C 	 -95.0839 	 -7.68102 	 -119.16
| 27> C 	 -93.9112 	 -6.93554 	 -119.22
| 28> H 	 -97.2208 	 -7.05794 	 -118.99
| 29> C 	 -95.1292 	 -9.16717 	 -119.445
| 30> H 	 -94.1646 	 -9.58649 	 -119.107
| 31> H 	 -95.1117 	 -9.2338 	 -120.561
| 32> C 	 -96.371 	 -9.94362 	 -119.008
| 33> H 	 -97.211 	 -9.32705 	 -119.43
| 34> H 	 -96.3666 	 -9.79437 	 -117.937
| 35> C 	 -96.3005 	 -11.4386 	 -119.38
| 36> H 	 -97.2506 	 -11.898 	 -119.397
| 37> H 	 -95.7692 	 -12.048 	 -118.519
| 38> H 	 -95.5936 	 -11.6351 	 -120.202
| 39> H 	 -89.022 	 -8.12863 	 -118.669
| 40> H 	 -96.5625 	 -4.70762 	 -118.704
| 41> *
| 42>
| 43>                          ****END OF INPUT****

CARTESIAN COORDINATES (ANGSTROEM)
---------------------------------
  S    -91.152900   -6.669270  -118.454000
  C    -90.038300   -7.866090  -119.045000
  C    -90.663700   -8.546750  -120.115000
  C    -92.079700   -8.343930  -120.256000
  C    -92.517100   -7.368060  -119.346000
  H    -92.813700   -8.703160  -120.890000
  C    -90.029700   -9.724300  -120.882000
  H    -90.818400  -10.470700  -121.152000
  H    -89.338500  -10.177900  -120.154000
  C    -89.414900   -9.313930  -122.193000
  H    -90.076200   -8.538530  -122.614000
  H    -88.525000   -8.748160  -121.887000
  C    -89.168700  -10.521200  -123.134000
  H    -88.424300  -11.179100  -122.712000
  H    -90.048000  -11.086900  -123.412000
  H    -88.741400  -10.192600  -124.071000
  S    -94.161400   -5.217960  -118.866000
  C    -95.855800   -5.413660  -119.013000
  C    -96.178300   -6.777870  -119.059000
  C    -95.083900   -7.681020  -119.160000
  C    -93.911200   -6.935540  -119.220000
  H    -97.220800   -7.057940  -118.990000
  C    -95.129200   -9.167170  -119.445000
  H    -94.164600   -9.586490  -119.107000
  H    -95.111700   -9.233800  -120.561000
  C    -96.371000   -9.943620  -119.008000
  H    -97.211000   -9.327050  -119.430000
  H    -96.366600   -9.794370  -117.937000
  C    -96.300500  -11.438600  -119.380000
  H    -97.250600  -11.898000  -119.397000
  H    -95.769200  -12.048000  -118.519000
  H    -95.593600  -11.635100  -120.202000
  H    -89.022000   -8.128630  -118.669000
  H    -96.562500   -4.707620  -118.704000

 Total Charge           Charge          ....    0
 Multiplicity           Mult            ....    1
 Number of Electrons    NEL             ....  134
 Basis Dimension        Dim             ....  322

ORBITAL ENERGIES
----------------

  NO   OCC          E(Eh)            E(eV)
   0   2.0000     -88.969269     -2420.9769
   1   2.0000     -88.966120     -2420.8912
   2   2.0000     -10.332723      -281.1677
   3   2.0000     -10.328458      -281.0516
   4   2.0000     -10.322134      -280.8796
   5   2.0000     -10.311384      -280.5870
   6   2.0000     -10.306585      -280.4564
   7   2.0000     -10.306226      -280.4467
   8   2.0000     -10.297702      -280.2147
   9   2.0000     -10.295738      -280.1613
  10   2.0000     -10.293492      -280.1002
  11   2.0000     -10.292920      -280.0846
  12   2.0000     -10.291302      -280.0406
  13   2.0000     -10.289396      -279.9887
  14   2.0000     -10.285321      -279.8778
  15   2.0000     -10.278197      -279.6840
  16   2.0000      -8.083449      -219.9618
  17   2.0000      -8.081277      -219.9027
  18   2.0000      -6.042108      -164.4141
  19   2.0000      -6.039650      -164.3472
  20   2.0000      -6.038014      -164.3027
  21   2.0000      -6.035856      -164.2440
  22   2.0000      -6.034101      -164.1962
  23   2.0000      -6.032033      -164.1400
  24   2.0000      -1.006422       -27.3861
  25   2.0000      -0.982750       -26.7420
  26   2.0000      -0.913835       -24.8667
  27   2.0000      -0.909654       -24.7529
  28   2.0000      -0.869574       -23.6623
  29   2.0000      -0.853736       -23.2313
  30   2.0000      -0.845179       -22.9985
  31   2.0000      -0.811254       -22.0753
  32   2.0000      -0.784085       -21.3360
  33   2.0000      -0.770402       -20.9637
  34   2.0000      -0.709051       -19.2943
  35   2.0000      -0.700470       -19.0607
  36   2.0000      -0.696012       -18.9395
  37   2.0000      -0.654543       -17.8110
  38   2.0000      -0.644299       -17.5323
  39   2.0000      -0.615371       -16.7451
  40   2.0000      -0.598178       -16.2773
  41   2.0000      -0.569202       -15.4888
  42   2.0000      -0.568207       -15.4617
  43   2.0000      -0.555693       -15.1212
  44   2.0000      -0.536779       -14.6065
  45   2.0000      -0.522434       -14.2161
  46   2.0000      -0.518914       -14.1204
  47   2.0000      -0.507352       -13.8057
  48   2.0000      -0.505193       -13.7470
  49   2.0000      -0.501502       -13.6466
  50   2.0000      -0.495024       -13.4703
  51   2.0000      -0.483730       -13.1630
  52   2.0000      -0.473621       -12.8879
  53   2.0000      -0.466313       -12.6890
  54   2.0000      -0.456608       -12.4249
  55   2.0000      -0.454009       -12.3542
  56   2.0000      -0.448722       -12.2103
  57   2.0000      -0.433978       -11.8091
  58   2.0000      -0.431516       -11.7421
  59   2.0000      -0.427474       -11.6321
  60   2.0000      -0.416538       -11.3346
  61   2.0000      -0.414464       -11.2781
  62   2.0000      -0.408134       -11.1059
  63   2.0000      -0.352823        -9.6008
  64   2.0000      -0.332252        -9.0410
  65   2.0000      -0.328798        -8.9470
  66   2.0000      -0.282575        -7.6893
  67   0.0000       0.021128         0.5749
  68   0.0000       0.066423         1.8074
  69   0.0000       0.102285         2.7833
  70   0.0000       0.117869         3.2074
  71   0.0000       0.133357         3.6288

MULLIKEN ATOMIC CHARGES
-----------------------
   0 S :    0.114438
   1 C :   -0.126152
   2 C :   -0.077874
   3 C :    0.028915
   4 C :   -0.133113
   5 H :   -0.011161
   6 C :    0.020567
   7 H :    0.022052
   8 H :    0.027537
   9 C :   -0.070021
  10 H :    0.032073
  11 H :    0.022763
  12 C :   -0.022562
  13 H :    0.029851
  14 H :    0.033846
  15 H :    0.027703
  16 S :    0.106121
  17 C :   -0.056644
  18 C :   -0.078345
  19 C :   -0.002250
  20 C :   -0.176248
  21 H :    0.018305
  22 C :   -0.023371
  23 H :    0.045739
  24 H :    0.052500
  25 C :   -0.073308
  26 H :    0.042620
  27 H :    0.034887
  28 C :   -0.040036
  29 H :    0.039719
  30 H :    0.037251
  31 H :    0.039609
  32 H :    0.070912
  33 H :    0.043675
Sum of atomic charges:   -0.0000000

LOEWDIN ATOMIC CHARGES
----------------------
   0 S :    0.399718
   1 C :   -0.216719
   2 C :   -0.057982
   3 C :   -0.057965
   4 C :   -0.179344
   5 H :    0.021825
   6 C :   -0.037479
   7 H :    0.027896
   8 H :    0.026873
   9 C :   -0.045913
  10 H :    0.026629
  11 H :    0.025534
  12 C :   -0.063773
  13 H :    0.026170
  14 H :    0.025400
  15 H :    0.026281
  16 S :    0.413296
  17 C :   -0.197221
  18 C :   -0.070786
  19 C :   -0.057712
  20 C :   -0.185035
  21 H :    0.026714
  22 C :   -0.040081
  23 H :    0.032721
  24 H :    0.035012
  25 C :   -0.046727
  26 H :    0.029426
  27 H :    0.025803
  28 C :   -0.069752
  29 H :    0.023038
  30 H :    0.041629
  31 H :    0.029137
  32 H :    0.043393
  33 H :    0.019992

  Mayer bond orders larger than 0.100000
B(  0-S ,  1-C ) :   1.1317 B(  0-S ,  4-C ) :   1.1471 B(  1-C ,  2-C ) :   1.5917
B(  1-C , 32-H ) :   0.9649 B(  2-C ,  3-C ) :   1.2156 B(  2-C ,  6-C ) :   1.0251
B(  3-C ,  4-C ) :   1.5450 B(  3-C ,  5-H ) :   1.0097 B(  4-C , 20-C ) :   1.0784
B(  6-C ,  7-H ) :   0.9529 B(  6-C ,  8-H ) :   0.9466 B(  6-C ,  9-C ) :   1.0467
B(  9-C , 10-H ) :   0.9589 B(  9-C , 11-H ) :   0.9530 B(  9-C , 12-C ) :   1.0748
B( 12-C , 13-H ) :   0.9737 B( 12-C , 14-H ) :   0.9744 B( 12-C , 15-H ) :   0.9741
B( 16-S , 17-C ) :   1.1621 B( 16-S , 20-C ) :   1.1495 B( 17-C , 18-C ) :   1.5994
B( 17-C , 20-C ) :   0.1041 B( 17-C , 33-H ) :   0.9681 B( 18-C , 19-C ) :   1.2512
B( 18-C , 21-H ) :   0.9842 B( 19-C , 20-C ) :   1.5583 B( 19-C , 22-C ) :   1.0473
B( 22-C , 23-H ) :   0.9269 B( 22-C , 24-H ) :   0.9283 B( 22-C , 25-C ) :   1.0584
B( 25-C , 26-H ) :   0.9494 B( 25-C , 27-H ) :   0.9623 B( 25-C , 28-C ) :   1.0697
B( 28-C , 29-H ) :   0.9743 B( 28-C , 30-H ) :   0.9706 B( 28-C , 31-H ) :   0.9759

Dispersion correction           -0.013390003
FINAL SINGLE POINT ENERGY     -1339.859644751974

DIPOLE MOMENT
-------------
                                X             Y             Z
Electronic contribution:     -0.09017      27.42673      13.61124
Nuclear contribution   :     -0.07845     -28.11590     -13.77103
                        -----------------------------------------
Total Dipole Moment    :     -0.16862      -0.68917      -0.15979
                        -----------------------------------------
Magnitude (a.u.)       :      0.72727
Magnitude (Debye)      :      1.84858

Rotational constants in cm-1:     0.016395     0.008495     0.006220
Rotational constants in MHz :   491.518389   254.671152   186.461314

                             ****ORCA TERMINATED NORMALLY****
TOTAL RUN TIME: 0 days 0 hours 0 minutes 19 seconds 939 msec
