                         Program Version 4.2.1 -  RELEASE  -
|  1> ! wB97X-D3 SP def2-SVP
|  2> %pal
|  3> nprocs 24
|  4> end
|  5>
|  6> * xyz 0 1
|  7> S 	 -89.0606 	 -47.3157 	 -82.7999
|  8> C 	 -90.3888 	 -47.2537 	 -81.7078
|  9> C 	 -90.2329 	 -47.8516 	 -80.4389
| 10> C 	 -89.0687 	 -48.684 	 -80.5306
| 11> C 	 -88.3195 	 -48.4558 	 -81.6668
| 12> H 	 -88.6573 	 -49.385 	 -79.7623
| 13> C 	 -91.3263 	 -47.7739 	 -79.3327
| 14> H 	 -90.9967 	 -46.9533 	 -78.7196
| 15> H 	 -91.3559 	 -48.6056 	 -78.6162
| 16> C 	 -92.7567 	 -47.5279 	 -79.8506
| 17> H 	 -92.8084 	 -46.5496 	 -80.3157
| 18> H 	 -93.0338 	 -48.2953 	 -80.5464
| 19> C 	 -93.8041 	 -47.6182 	 -78.6574
| 20> H 	 -93.6883 	 -48.588 	 -78.1097
| 21> H 	 -93.7401 	 -46.8456 	 -77.9284
| 22> H 	 -94.8042 	 -47.5915 	 -79.0794
| 23> S 	 -85.6976 	 -48.2599 	 -82.466
| 24> C 	 -84.6116 	 -49.6179 	 -82.3825
| 25> C 	 -85.3814 	 -50.719 	 -82.1407
| 26> C 	 -86.7459 	 -50.4934 	 -81.9573
| 27> C 	 -87.0778 	 -49.1563 	 -82.0347
| 28> H 	 -84.9773 	 -51.7485 	 -82.0494
| 29> C 	 -87.6493 	 -51.7405 	 -81.8673
| 30> H 	 -88.4625 	 -51.3987 	 -81.3023
| 31> H 	 -87.1813 	 -52.5455 	 -81.3456
| 32> C 	 -88.1125 	 -52.2111 	 -83.2369
| 33> H 	 -87.2606 	 -52.5834 	 -83.7802
| 34> H 	 -88.5085 	 -51.3843 	 -83.75
| 35> C 	 -89.2174 	 -53.2682 	 -82.978
| 36> H 	 -89.6648 	 -53.6172 	 -83.9745
| 37> H 	 -89.9778 	 -52.9209 	 -82.2317
| 38> H 	 -88.9071 	 -54.1427 	 -82.3479
| 39> H 	 -91.2551 	 -46.6711 	 -81.9781
| 40> H 	 -83.5717 	 -49.6889 	 -82.7641
| 41> *
| 42>
| 43>                          ****END OF INPUT****

CARTESIAN COORDINATES (ANGSTROEM)
---------------------------------
  S    -89.060600  -47.315700  -82.799900
  C    -90.388800  -47.253700  -81.707800
  C    -90.232900  -47.851600  -80.438900
  C    -89.068700  -48.684000  -80.530600
  C    -88.319500  -48.455800  -81.666800
  H    -88.657300  -49.385000  -79.762300
  C    -91.326300  -47.773900  -79.332700
  H    -90.996700  -46.953300  -78.719600
  H    -91.355900  -48.605600  -78.616200
  C    -92.756700  -47.527900  -79.850600
  H    -92.808400  -46.549600  -80.315700
  H    -93.033800  -48.295300  -80.546400
  C    -93.804100  -47.618200  -78.657400
  H    -93.688300  -48.588000  -78.109700
  H    -93.740100  -46.845600  -77.928400
  H    -94.804200  -47.591500  -79.079400
  S    -85.697600  -48.259900  -82.466000
  C    -84.611600  -49.617900  -82.382500
  C    -85.381400  -50.719000  -82.140700
  C    -86.745900  -50.493400  -81.957300
  C    -87.077800  -49.156300  -82.034700
  H    -84.977300  -51.748500  -82.049400
  C    -87.649300  -51.740500  -81.867300
  H    -88.462500  -51.398700  -81.302300
  H    -87.181300  -52.545500  -81.345600
  C    -88.112500  -52.211100  -83.236900
  H    -87.260600  -52.583400  -83.780200
  H    -88.508500  -51.384300  -83.750000
  C    -89.217400  -53.268200  -82.978000
  H    -89.664800  -53.617200  -83.974500
  H    -89.977800  -52.920900  -82.231700
  H    -88.907100  -54.142700  -82.347900
  H    -91.255100  -46.671100  -81.978100
  H    -83.571700  -49.688900  -82.764100

 Total Charge           Charge          ....    0
 Multiplicity           Mult            ....    1
 Number of Electrons    NEL             ....  134
 Basis Dimension        Dim             ....  322

ORBITAL ENERGIES
----------------

  NO   OCC          E(Eh)            E(eV)
   0   2.0000     -88.970868     -2421.0204
   1   2.0000     -88.961009     -2420.7521
   2   2.0000     -10.329226      -281.0725
   3   2.0000     -10.320588      -280.8375
   4   2.0000     -10.313781      -280.6523
   5   2.0000     -10.313323      -280.6398
   6   2.0000     -10.310970      -280.5757
   7   2.0000     -10.302070      -280.3336
   8   2.0000     -10.299776      -280.2712
   9   2.0000     -10.293298      -280.0949
  10   2.0000     -10.291027      -280.0331
  11   2.0000     -10.287389      -279.9341
  12   2.0000     -10.285426      -279.8807
  13   2.0000     -10.284432      -279.8536
  14   2.0000     -10.280131      -279.7366
  15   2.0000     -10.278555      -279.6937
  16   2.0000      -8.085841      -220.0269
  17   2.0000      -8.076855      -219.7824
  18   2.0000      -6.044048      -164.4669
  19   2.0000      -6.040575      -164.3724
  20   2.0000      -6.036667      -164.2661
  21   2.0000      -6.035341      -164.2300
  22   2.0000      -6.031051      -164.1133
  23   2.0000      -6.027724      -164.0227
  24   2.0000      -1.011633       -27.5279
  25   2.0000      -0.988212       -26.8906
  26   2.0000      -0.911072       -24.7915
  27   2.0000      -0.908219       -24.7139
  28   2.0000      -0.865820       -23.5602
  29   2.0000      -0.853727       -23.2311
  30   2.0000      -0.843477       -22.9522
  31   2.0000      -0.811395       -22.0792
  32   2.0000      -0.778367       -21.1804
  33   2.0000      -0.765246       -20.8234
  34   2.0000      -0.712429       -19.3862
  35   2.0000      -0.703852       -19.1528
  36   2.0000      -0.689784       -18.7700
  37   2.0000      -0.662556       -18.0291
  38   2.0000      -0.641229       -17.4487
  39   2.0000      -0.613518       -16.6947
  40   2.0000      -0.593378       -16.1466
  41   2.0000      -0.574523       -15.6336
  42   2.0000      -0.566310       -15.4101
  43   2.0000      -0.561034       -15.2665
  44   2.0000      -0.524926       -14.2840
  45   2.0000      -0.522944       -14.2300
  46   2.0000      -0.512704       -13.9514
  47   2.0000      -0.505848       -13.7648
  48   2.0000      -0.500368       -13.6157
  49   2.0000      -0.498454       -13.5636
  50   2.0000      -0.486655       -13.2426
  51   2.0000      -0.477798       -13.0015
  52   2.0000      -0.471986       -12.8434
  53   2.0000      -0.463973       -12.6254
  54   2.0000      -0.458126       -12.4662
  55   2.0000      -0.452047       -12.3008
  56   2.0000      -0.443200       -12.0601
  57   2.0000      -0.439092       -11.9483
  58   2.0000      -0.435943       -11.8626
  59   2.0000      -0.430175       -11.7057
  60   2.0000      -0.427657       -11.6371
  61   2.0000      -0.421050       -11.4574
  62   2.0000      -0.407138       -11.0788
  63   2.0000      -0.347899        -9.4668
  64   2.0000      -0.336226        -9.1492
  65   2.0000      -0.326514        -8.8849
  66   2.0000      -0.288370        -7.8470
  67   0.0000       0.034289         0.9330
  68   0.0000       0.068216         1.8563
  69   0.0000       0.110556         3.0084
  70   0.0000       0.124344         3.3836
  71   0.0000       0.134555         3.6614

MULLIKEN ATOMIC CHARGES
-----------------------
   0 S :    0.132366
   1 C :   -0.136852
   2 C :   -0.066057
   3 C :   -0.004625
   4 C :   -0.152464
   5 H :    0.040704
   6 C :    0.071432
   7 H :    0.035622
   8 H :    0.021496
   9 C :   -0.097820
  10 H :    0.041677
  11 H :    0.040893
  12 C :   -0.052847
  13 H :    0.034858
  14 H :    0.028837
  15 H :    0.034997
  16 S :    0.099227
  17 C :   -0.098705
  18 C :   -0.049111
  19 C :   -0.077073
  20 C :   -0.149937
  21 H :    0.022311
  22 C :    0.090884
  23 H :   -0.012079
  24 H :    0.012622
  25 C :   -0.003923
  26 H :    0.024433
  27 H :    0.024848
  28 C :   -0.081124
  29 H :    0.054001
  30 H :    0.029931
  31 H :    0.023358
  32 H :    0.043400
  33 H :    0.074722
Sum of atomic charges:    0.0000000

LOEWDIN ATOMIC CHARGES
----------------------
   0 S :    0.412256
   1 C :   -0.200976
   2 C :   -0.057771
   3 C :   -0.060868
   4 C :   -0.190588
   5 H :    0.042748
   6 C :   -0.031436
   7 H :    0.034922
   8 H :    0.029269
   9 C :   -0.033303
  10 H :    0.023152
  11 H :    0.024970
  12 C :   -0.062625
  13 H :    0.029033
  14 H :    0.018301
  15 H :    0.026691
  16 S :    0.428272
  17 C :   -0.206492
  18 C :   -0.077950
  19 C :   -0.069303
  20 C :   -0.219470
  21 H :    0.033293
  22 C :   -0.019224
  23 H :    0.016863
  24 H :    0.023496
  25 C :   -0.027461
  26 H :    0.022983
  27 H :    0.022114
  28 C :   -0.081242
  29 H :    0.033611
  30 H :    0.029939
  31 H :    0.026625
  32 H :    0.017061
  33 H :    0.043111

  Mayer bond orders larger than 0.100000
B(  0-S ,  1-C ) :   1.1590 B(  0-S ,  4-C ) :   1.1389 B(  1-C ,  2-C ) :   1.6100
B(  1-C ,  4-C ) :   0.1007 B(  1-C , 32-H ) :   0.9608 B(  2-C ,  3-C ) :   1.2320
B(  2-C ,  6-C ) :   1.0025 B(  3-C ,  4-C ) :   1.6190 B(  3-C ,  5-H ) :   0.9789
B(  4-C , 20-C ) :   1.0012 B(  6-C ,  7-H ) :   0.9242 B(  6-C ,  8-H ) :   0.9544
B(  6-C ,  9-C ) :   1.0764 B(  9-C , 10-H ) :   0.9461 B(  9-C , 11-H ) :   0.9626
B(  9-C , 12-C ) :   1.0797 B( 12-C , 13-H ) :   0.9756 B( 12-C , 14-H ) :   0.9793
B( 12-C , 15-H ) :   0.9761 B( 16-S , 17-C ) :   1.1572 B( 16-S , 20-C ) :   1.1654
B( 17-C , 18-C ) :   1.5685 B( 17-C , 20-C ) :   0.1060 B( 17-C , 33-H ) :   0.9625
B( 18-C , 19-C ) :   1.3038 B( 18-C , 21-H ) :   0.9799 B( 19-C , 20-C ) :   1.5677
B( 19-C , 22-C ) :   1.0342 B( 22-C , 23-H ) :   0.9246 B( 22-C , 24-H ) :   0.9355
B( 22-C , 25-C ) :   1.0762 B( 25-C , 26-H ) :   0.9531 B( 25-C , 27-H ) :   0.9524
B( 25-C , 28-C ) :   1.0746 B( 28-C , 29-H ) :   0.9728 B( 28-C , 30-H ) :   0.9717
B( 28-C , 31-H ) :   0.9708

Dispersion correction           -0.013645040
FINAL SINGLE POINT ENERGY     -1339.870568072230

DIPOLE MOMENT
-------------
                                X             Y             Z
Electronic contribution:     22.33340      15.04333     -10.14039
Nuclear contribution   :    -22.80170     -15.39645      10.46781
                        -----------------------------------------
Total Dipole Moment    :     -0.46830      -0.35312       0.32742
                        -----------------------------------------
Magnitude (a.u.)       :      0.67171
Magnitude (Debye)      :      1.70736

Rotational constants in cm-1:     0.019983     0.007601     0.006238
Rotational constants in MHz :   599.083821   227.874914   187.019812

                             ****ORCA TERMINATED NORMALLY****
TOTAL RUN TIME: 0 days 0 hours 0 minutes 21 seconds 119 msec
