                         Program Version 4.2.1 -  RELEASE  -
|  1> ! wB97X-D3 SP def2-SVP
|  2> %pal
|  3> nprocs 24
|  4> end
|  5>
|  6> * xyz 0 1
|  7> S 	 -41.5811 	 -47.6269 	 -72.0092
|  8> C 	 -41.6644 	 -45.9944 	 -72.432
|  9> C 	 -42.4348 	 -45.2739 	 -71.5061
| 10> C 	 -42.8746 	 -46.1233 	 -70.4096
| 11> C 	 -42.6678 	 -47.4793 	 -70.6414
| 12> H 	 -43.4968 	 -45.8645 	 -69.5305
| 13> C 	 -42.6835 	 -43.7122 	 -71.4248
| 14> H 	 -41.8868 	 -43.4235 	 -70.6988
| 15> H 	 -43.7028 	 -43.555 	 -71.0446
| 16> C 	 -42.551 	 -43.0389 	 -72.8375
| 17> H 	 -42.3677 	 -41.9466 	 -72.7164
| 18> H 	 -41.7158 	 -43.291 	 -73.4904
| 19> C 	 -43.7601 	 -43.2352 	 -73.6904
| 20> H 	 -43.5699 	 -42.5933 	 -74.555
| 21> H 	 -44.0343 	 -44.2328 	 -73.9847
| 22> H 	 -44.6078 	 -42.8438 	 -73.1156
| 23> S 	 -41.5566 	 -49.379 	 -68.9565
| 24> C 	 -42.6256 	 -50.2991 	 -67.8554
| 25> C 	 -43.9171 	 -49.9076 	 -67.9543
| 26> C 	 -44.1241 	 -48.9415 	 -68.9898
| 27> C 	 -42.96 	 -48.5788 	 -69.6848
| 28> H 	 -44.6845 	 -50.2486 	 -67.292
| 29> C 	 -45.5699 	 -48.4513 	 -69.2272
| 30> H 	 -45.5221 	 -47.4296 	 -69.5044
| 31> H 	 -46.0795 	 -48.4191 	 -68.2564
| 32> C 	 -46.4783 	 -49.3368 	 -70.1179
| 33> H 	 -46.5989 	 -50.2856 	 -69.6606
| 34> H 	 -45.8945 	 -49.494 	 -71.0043
| 35> C 	 -47.7504 	 -48.5673 	 -70.4235
| 36> H 	 -48.0831 	 -47.9732 	 -69.5744
| 37> H 	 -48.6298 	 -49.2379 	 -70.6306
| 38> H 	 -47.6299 	 -47.9252 	 -71.2756
| 39> H 	 -41.1515 	 -45.6352 	 -73.3999
| 40> H 	 -42.2444 	 -50.9814 	 -67.1082
| 41> *
| 42>
| 43>                          ****END OF INPUT****

CARTESIAN COORDINATES (ANGSTROEM)
---------------------------------
  S    -41.581100  -47.626900  -72.009200
  C    -41.664400  -45.994400  -72.432000
  C    -42.434800  -45.273900  -71.506100
  C    -42.874600  -46.123300  -70.409600
  C    -42.667800  -47.479300  -70.641400
  H    -43.496800  -45.864500  -69.530500
  C    -42.683500  -43.712200  -71.424800
  H    -41.886800  -43.423500  -70.698800
  H    -43.702800  -43.555000  -71.044600
  C    -42.551000  -43.038900  -72.837500
  H    -42.367700  -41.946600  -72.716400
  H    -41.715800  -43.291000  -73.490400
  C    -43.760100  -43.235200  -73.690400
  H    -43.569900  -42.593300  -74.555000
  H    -44.034300  -44.232800  -73.984700
  H    -44.607800  -42.843800  -73.115600
  S    -41.556600  -49.379000  -68.956500
  C    -42.625600  -50.299100  -67.855400
  C    -43.917100  -49.907600  -67.954300
  C    -44.124100  -48.941500  -68.989800
  C    -42.960000  -48.578800  -69.684800
  H    -44.684500  -50.248600  -67.292000
  C    -45.569900  -48.451300  -69.227200
  H    -45.522100  -47.429600  -69.504400
  H    -46.079500  -48.419100  -68.256400
  C    -46.478300  -49.336800  -70.117900
  H    -46.598900  -50.285600  -69.660600
  H    -45.894500  -49.494000  -71.004300
  C    -47.750400  -48.567300  -70.423500
  H    -48.083100  -47.973200  -69.574400
  H    -48.629800  -49.237900  -70.630600
  H    -47.629900  -47.925200  -71.275600
  H    -41.151500  -45.635200  -73.399900
  H    -42.244400  -50.981400  -67.108200

 Total Charge           Charge          ....    0
 Multiplicity           Mult            ....    1
 Number of Electrons    NEL             ....  134
 Basis Dimension        Dim             ....  322

ORBITAL ENERGIES
----------------

  NO   OCC          E(Eh)            E(eV)
   0   2.0000     -88.963977     -2420.8329
   1   2.0000     -88.963312     -2420.8148
   2   2.0000     -10.332830      -281.1706
   3   2.0000     -10.330707      -281.1128
   4   2.0000     -10.320803      -280.8433
   5   2.0000     -10.317784      -280.7612
   6   2.0000     -10.309776      -280.5433
   7   2.0000     -10.305975      -280.4398
   8   2.0000     -10.305617      -280.4301
   9   2.0000     -10.298758      -280.2434
  10   2.0000     -10.290703      -280.0243
  11   2.0000     -10.289751      -279.9983
  12   2.0000     -10.287894      -279.9478
  13   2.0000     -10.279886      -279.7299
  14   2.0000     -10.277912      -279.6762
  15   2.0000     -10.273588      -279.5585
  16   2.0000      -8.079766      -219.8616
  17   2.0000      -8.077358      -219.7961
  18   2.0000      -6.038199      -164.3077
  19   2.0000      -6.035986      -164.2475
  20   2.0000      -6.033946      -164.1920
  21   2.0000      -6.032008      -164.1393
  22   2.0000      -6.030718      -164.1042
  23   2.0000      -6.027970      -164.0294
  24   2.0000      -1.003446       -27.3052
  25   2.0000      -0.981747       -26.7147
  26   2.0000      -0.908226       -24.7141
  27   2.0000      -0.906576       -24.6692
  28   2.0000      -0.868743       -23.6397
  29   2.0000      -0.850439       -23.1416
  30   2.0000      -0.844491       -22.9798
  31   2.0000      -0.812217       -22.1015
  32   2.0000      -0.776806       -21.1380
  33   2.0000      -0.766673       -20.8622
  34   2.0000      -0.705604       -19.2005
  35   2.0000      -0.700441       -19.0600
  36   2.0000      -0.688120       -18.7247
  37   2.0000      -0.662939       -18.0395
  38   2.0000      -0.641211       -17.4482
  39   2.0000      -0.605748       -16.4832
  40   2.0000      -0.593192       -16.1416
  41   2.0000      -0.572262       -15.5720
  42   2.0000      -0.566347       -15.4111
  43   2.0000      -0.554720       -15.0947
  44   2.0000      -0.535455       -14.5705
  45   2.0000      -0.519532       -14.1372
  46   2.0000      -0.515673       -14.0322
  47   2.0000      -0.508315       -13.8320
  48   2.0000      -0.505710       -13.7611
  49   2.0000      -0.496668       -13.5150
  50   2.0000      -0.487962       -13.2781
  51   2.0000      -0.481216       -13.0946
  52   2.0000      -0.476247       -12.9593
  53   2.0000      -0.465864       -12.6768
  54   2.0000      -0.457261       -12.4427
  55   2.0000      -0.449555       -12.2330
  56   2.0000      -0.443049       -12.0560
  57   2.0000      -0.436861       -11.8876
  58   2.0000      -0.432263       -11.7625
  59   2.0000      -0.424620       -11.5545
  60   2.0000      -0.416742       -11.3401
  61   2.0000      -0.415294       -11.3007
  62   2.0000      -0.405761       -11.0413
  63   2.0000      -0.349057        -9.4983
  64   2.0000      -0.328994        -8.9524
  65   2.0000      -0.323408        -8.8004
  66   2.0000      -0.296047        -8.0559
  67   0.0000       0.033656         0.9158
  68   0.0000       0.068070         1.8523
  69   0.0000       0.107481         2.9247
  70   0.0000       0.124744         3.3944
  71   0.0000       0.131483         3.5778

MULLIKEN ATOMIC CHARGES
-----------------------
   0 S :    0.110889
   1 C :   -0.160067
   2 C :   -0.117140
   3 C :    0.021719
   4 C :   -0.171621
   5 H :    0.034315
   6 C :    0.065072
   7 H :    0.063383
   8 H :    0.037280
   9 C :   -0.092648
  10 H :    0.029347
  11 H :    0.020497
  12 C :   -0.039947
  13 H :    0.034134
  14 H :    0.040300
  15 H :    0.020071
  16 S :    0.088045
  17 C :   -0.085862
  18 C :   -0.008354
  19 C :   -0.073089
  20 C :   -0.128697
  21 H :    0.015000
  22 C :    0.047120
  23 H :    0.004981
  24 H :    0.013941
  25 C :   -0.014042
  26 H :    0.017700
  27 H :    0.028636
  28 C :   -0.048259
  29 H :    0.025097
  30 H :    0.034664
  31 H :    0.038849
  32 H :    0.091904
  33 H :    0.056784
Sum of atomic charges:   -0.0000000

LOEWDIN ATOMIC CHARGES
----------------------
   0 S :    0.428968
   1 C :   -0.235286
   2 C :   -0.070454
   3 C :   -0.065179
   4 C :   -0.205545
   5 H :    0.036852
   6 C :   -0.025914
   7 H :    0.043354
   8 H :    0.031780
   9 C :   -0.052035
  10 H :    0.028565
  11 H :    0.021301
  12 C :   -0.062121
  13 H :    0.030127
  14 H :    0.022606
  15 H :    0.022725
  16 S :    0.378599
  17 C :   -0.165025
  18 C :   -0.069567
  19 C :   -0.055092
  20 C :   -0.192988
  21 H :    0.031448
  22 C :   -0.029072
  23 H :    0.019104
  24 H :    0.027599
  25 C :   -0.031514
  26 H :    0.018749
  27 H :    0.025284
  28 C :   -0.065333
  29 H :    0.022744
  30 H :    0.031443
  31 H :    0.026879
  32 H :    0.048313
  33 H :    0.028686

  Mayer bond orders larger than 0.100000
B(  0-S ,  1-C ) :   1.1666 B(  0-S ,  4-C ) :   1.1617 B(  1-C ,  2-C ) :   1.5802
B(  1-C , 32-H ) :   0.9564 B(  2-C ,  3-C ) :   1.2567 B(  2-C ,  6-C ) :   0.9898
B(  3-C ,  4-C ) :   1.5721 B(  3-C ,  5-H ) :   0.9814 B(  4-C , 20-C ) :   1.0169
B(  6-C ,  7-H ) :   0.9445 B(  6-C ,  8-H ) :   0.9509 B(  6-C ,  9-C ) :   1.0636
B(  9-C , 10-H ) :   0.9552 B(  9-C , 11-H ) :   0.9563 B(  9-C , 12-C ) :   1.0789
B( 12-C , 13-H ) :   0.9725 B( 12-C , 14-H ) :   0.9778 B( 12-C , 15-H ) :   0.9732
B( 16-S , 17-C ) :   1.1409 B( 16-S , 20-C ) :   1.1317 B( 17-C , 18-C ) :   1.6238
B( 17-C , 33-H ) :   0.9664 B( 18-C , 19-C ) :   1.2364 B( 18-C , 21-H ) :   0.9933
B( 19-C , 20-C ) :   1.6190 B( 19-C , 22-C ) :   1.0382 B( 22-C , 23-H ) :   0.9378
B( 22-C , 24-H ) :   0.9316 B( 22-C , 25-C ) :   1.0603 B( 25-C , 26-H ) :   0.9555
B( 25-C , 27-H ) :   0.9587 B( 25-C , 28-C ) :   1.0735 B( 28-C , 29-H ) :   0.9740
B( 28-C , 30-H ) :   0.9737 B( 28-C , 31-H ) :   0.9767

Dispersion correction           -0.013614213
FINAL SINGLE POINT ENERGY     -1339.873181752081

DIPOLE MOMENT
-------------
                                X             Y             Z
Electronic contribution:     21.94982     -16.10775       6.91469
Nuclear contribution   :    -22.41344      16.56567      -6.74403
                        -----------------------------------------
Total Dipole Moment    :     -0.46362       0.45792       0.17067
                        -----------------------------------------
Magnitude (a.u.)       :      0.67362
Magnitude (Debye)      :      1.71221

Rotational constants in cm-1:     0.018428     0.008182     0.006320
Rotational constants in MHz :   552.464398   245.287163   189.456088

                             ****ORCA TERMINATED NORMALLY****
TOTAL RUN TIME: 0 days 0 hours 0 minutes 20 seconds 966 msec
