                         Program Version 4.2.1 -  RELEASE  -
|  1> ! wB97X-D3 SP def2-SVP
|  2> %pal
|  3> nprocs 24
|  4> end
|  5>
|  6> * xyz 0 1
|  7> S 	 -140.64 	 6.7968 	 2.47456
|  8> C 	 -141.62 	 6.0274 	 1.18607
|  9> C 	 -141.09 	 6.31569 	 -0.020407
| 10> C 	 -139.912 	 7.07489 	 0.0867538
| 11> C 	 -139.472 	 7.37612 	 1.35119
| 12> H 	 -139.312 	 7.23073 	 -0.750021
| 13> C 	 -141.739 	 5.76547 	 -1.2498
| 14> H 	 -142.216 	 4.84078 	 -0.938473
| 15> H 	 -141.033 	 5.36109 	 -1.98285
| 16> C 	 -142.797 	 6.62538 	 -2.01261
| 17> H 	 -143.457 	 7.17027 	 -1.32117
| 18> H 	 -142.277 	 7.35116 	 -2.52601
| 19> C 	 -143.697 	 5.76263 	 -3.01022
| 20> H 	 -144.076 	 4.83651 	 -2.55399
| 21> H 	 -144.579 	 6.36094 	 -3.36405
| 22> H 	 -143.208 	 5.50228 	 -3.9561
| 23> S 	 -138.839 	 9.82116 	 2.21951
| 24> C 	 -137.159 	 10.3126 	 2.25055
| 25> C 	 -136.311 	 9.40128 	 1.7517
| 26> C 	 -137.03 	 8.22186 	 1.38408
| 27> C 	 -138.398 	 8.23857 	 1.69718
| 28> H 	 -135.28 	 9.60487 	 1.59157
| 29> C 	 -136.285 	 7.04676 	 0.833159
| 30> H 	 -135.383 	 7.36469 	 0.217635
| 31> H 	 -137.109 	 6.64622 	 0.229329
| 32> C 	 -135.765 	 5.97007 	 1.76098
| 33> H 	 -135.259 	 6.45206 	 2.63165
| 34> H 	 -135.141 	 5.29601 	 1.222
| 35> C 	 -136.835 	 5.185 	 2.47021
| 36> H 	 -137.361 	 4.59766 	 1.74329
| 37> H 	 -137.421 	 5.97377 	 3.02472
| 38> H 	 -136.431 	 4.5416 	 3.27113
| 39> H 	 -142.414 	 5.38801 	 1.41375
| 40> H 	 -136.803 	 11.2669 	 2.67276
| 41> *
| 42>
| 43>                          ****END OF INPUT****

CARTESIAN COORDINATES (ANGSTROEM)
---------------------------------
  S    -140.640000    6.796800    2.474560
  C    -141.620000    6.027400    1.186070
  C    -141.090000    6.315690   -0.020407
  C    -139.912000    7.074890    0.086754
  C    -139.472000    7.376120    1.351190
  H    -139.312000    7.230730   -0.750021
  C    -141.739000    5.765470   -1.249800
  H    -142.216000    4.840780   -0.938473
  H    -141.033000    5.361090   -1.982850
  C    -142.797000    6.625380   -2.012610
  H    -143.457000    7.170270   -1.321170
  H    -142.277000    7.351160   -2.526010
  C    -143.697000    5.762630   -3.010220
  H    -144.076000    4.836510   -2.553990
  H    -144.579000    6.360940   -3.364050
  H    -143.208000    5.502280   -3.956100
  S    -138.839000    9.821160    2.219510
  C    -137.159000   10.312600    2.250550
  C    -136.311000    9.401280    1.751700
  C    -137.030000    8.221860    1.384080
  C    -138.398000    8.238570    1.697180
  H    -135.280000    9.604870    1.591570
  C    -136.285000    7.046760    0.833159
  H    -135.383000    7.364690    0.217635
  H    -137.109000    6.646220    0.229329
  C    -135.765000    5.970070    1.760980
  H    -135.259000    6.452060    2.631650
  H    -135.141000    5.296010    1.222000
  C    -136.835000    5.185000    2.470210
  H    -137.361000    4.597660    1.743290
  H    -137.421000    5.973770    3.024720
  H    -136.431000    4.541600    3.271130
  H    -142.414000    5.388010    1.413750
  H    -136.803000   11.266900    2.672760

 Total Charge           Charge          ....    0
 Multiplicity           Mult            ....    1
 Number of Electrons    NEL             ....  134
 Basis Dimension        Dim             ....  322

ORBITAL ENERGIES
----------------

  NO   OCC          E(Eh)            E(eV)
   0   2.0000     -88.964044     -2420.8347
   1   2.0000     -88.963039     -2420.8074
   2   2.0000     -10.325367      -280.9675
   3   2.0000     -10.322790      -280.8974
   4   2.0000     -10.314478      -280.6712
   5   2.0000     -10.311060      -280.5782
   6   2.0000     -10.302501      -280.3453
   7   2.0000     -10.296233      -280.1747
   8   2.0000     -10.292161      -280.0639
   9   2.0000     -10.289097      -279.9806
  10   2.0000     -10.288406      -279.9617
  11   2.0000     -10.288279      -279.9583
  12   2.0000     -10.287663      -279.9415
  13   2.0000     -10.286008      -279.8965
  14   2.0000     -10.277127      -279.6549
  15   2.0000     -10.268444      -279.4186
  16   2.0000      -8.079502      -219.8544
  17   2.0000      -8.077922      -219.8114
  18   2.0000      -6.038031      -164.3032
  19   2.0000      -6.036366      -164.2579
  20   2.0000      -6.033928      -164.1915
  21   2.0000      -6.032316      -164.1477
  22   2.0000      -6.030163      -164.0891
  23   2.0000      -6.028815      -164.0524
  24   2.0000      -1.015518       -27.6336
  25   2.0000      -0.990769       -26.9602
  26   2.0000      -0.912806       -24.8387
  27   2.0000      -0.911230       -24.7958
  28   2.0000      -0.875729       -23.8298
  29   2.0000      -0.849696       -23.1214
  30   2.0000      -0.845397       -23.0044
  31   2.0000      -0.820147       -22.3173
  32   2.0000      -0.782612       -21.2960
  33   2.0000      -0.768305       -20.9066
  34   2.0000      -0.714934       -19.4543
  35   2.0000      -0.704607       -19.1733
  36   2.0000      -0.686701       -18.6861
  37   2.0000      -0.662054       -18.0154
  38   2.0000      -0.650003       -17.6875
  39   2.0000      -0.625745       -17.0274
  40   2.0000      -0.593579       -16.1521
  41   2.0000      -0.576204       -15.6793
  42   2.0000      -0.558178       -15.1888
  43   2.0000      -0.554782       -15.0964
  44   2.0000      -0.544979       -14.8296
  45   2.0000      -0.526476       -14.3261
  46   2.0000      -0.517920       -14.0933
  47   2.0000      -0.513153       -13.9636
  48   2.0000      -0.507777       -13.8173
  49   2.0000      -0.501893       -13.6572
  50   2.0000      -0.499161       -13.5829
  51   2.0000      -0.475764       -12.9462
  52   2.0000      -0.467388       -12.7183
  53   2.0000      -0.462369       -12.5817
  54   2.0000      -0.455827       -12.4037
  55   2.0000      -0.448014       -12.1911
  56   2.0000      -0.445177       -12.1139
  57   2.0000      -0.437933       -11.9168
  58   2.0000      -0.429410       -11.6848
  59   2.0000      -0.424837       -11.5604
  60   2.0000      -0.416221       -11.3260
  61   2.0000      -0.412800       -11.2328
  62   2.0000      -0.404362       -11.0032
  63   2.0000      -0.345773        -9.4090
  64   2.0000      -0.333690        -9.0802
  65   2.0000      -0.326394        -8.8816
  66   2.0000      -0.299224        -8.1423
  67   0.0000       0.035550         0.9674
  68   0.0000       0.062461         1.6997
  69   0.0000       0.112933         3.0731
  70   0.0000       0.119092         3.2407
  71   0.0000       0.131763         3.5855

MULLIKEN ATOMIC CHARGES
-----------------------
   0 S :    0.100894
   1 C :   -0.115789
   2 C :   -0.051292
   3 C :    0.076922
   4 C :   -0.186019
   5 H :   -0.013444
   6 C :    0.046175
   7 H :    0.007454
   8 H :    0.022661
   9 C :   -0.020118
  10 H :    0.031866
  11 H :    0.014204
  12 C :   -0.090203
  13 H :    0.037713
  14 H :    0.041401
  15 H :    0.035802
  16 S :    0.115459
  17 C :   -0.086843
  18 C :   -0.008992
  19 C :   -0.072305
  20 C :   -0.131590
  21 H :    0.010849
  22 C :    0.054896
  23 H :    0.035196
  24 H :    0.012140
  25 C :   -0.039434
  26 H :    0.022952
  27 H :    0.024109
  28 C :   -0.068436
  29 H :    0.031067
  30 H :    0.039005
  31 H :    0.033714
  32 H :    0.032260
  33 H :    0.057725
Sum of atomic charges:   -0.0000000

LOEWDIN ATOMIC CHARGES
----------------------
   0 S :    0.402342
   1 C :   -0.161171
   2 C :   -0.066711
   3 C :   -0.054592
   4 C :   -0.209293
   5 H :    0.019263
   6 C :   -0.034533
   7 H :    0.028104
   8 H :    0.030591
   9 C :   -0.027127
  10 H :    0.026831
  11 H :    0.012823
  12 C :   -0.072670
  13 H :    0.024708
  14 H :    0.032943
  15 H :    0.024778
  16 S :    0.421056
  17 C :   -0.178679
  18 C :   -0.069738
  19 C :   -0.051490
  20 C :   -0.217894
  21 H :    0.032099
  22 C :   -0.043256
  23 H :    0.039375
  24 H :    0.030494
  25 C :   -0.042361
  26 H :    0.028081
  27 H :    0.017915
  28 C :   -0.067779
  29 H :    0.018393
  30 H :    0.031124
  31 H :    0.026508
  32 H :    0.017407
  33 H :    0.032462

  Mayer bond orders larger than 0.100000
B(  0-S ,  1-C ) :   1.1360 B(  0-S ,  4-C ) :   1.1570 B(  1-C ,  2-C ) :   1.5956
B(  1-C , 32-H ) :   0.9811 B(  2-C ,  3-C ) :   1.2623 B(  2-C ,  6-C ) :   1.0236
B(  3-C ,  4-C ) :   1.5529 B(  3-C ,  5-H ) :   1.0040 B(  4-C , 20-C ) :   1.0298
B(  6-C ,  7-H ) :   0.9422 B(  6-C ,  8-H ) :   0.9391 B(  6-C ,  9-C ) :   1.0500
B(  9-C , 10-H ) :   0.9613 B(  9-C , 11-H ) :   0.9573 B(  9-C , 12-C ) :   1.0681
B( 12-C , 13-H ) :   0.9788 B( 12-C , 14-H ) :   0.9771 B( 12-C , 15-H ) :   0.9784
B( 16-S , 17-C ) :   1.1577 B( 16-S , 20-C ) :   1.1454 B( 17-C , 18-C ) :   1.6204
B( 17-C , 33-H ) :   0.9590 B( 18-C , 19-C ) :   1.2313 B( 18-C , 21-H ) :   1.0009
B( 19-C , 20-C ) :   1.5874 B( 19-C , 22-C ) :   1.0430 B( 22-C , 23-H ) :   0.9335
B( 22-C , 24-H ) :   0.9226 B( 22-C , 25-C ) :   1.0784 B( 25-C , 26-H ) :   0.9537
B( 25-C , 27-H ) :   0.9532 B( 25-C , 28-C ) :   1.0868 B( 28-C , 29-H ) :   0.9750
B( 28-C , 30-H ) :   0.9712 B( 28-C , 31-H ) :   0.9728

Dispersion correction           -0.014707691
FINAL SINGLE POINT ENERGY     -1339.867649170418

DIPOLE MOMENT
-------------
                                X             Y             Z
Electronic contribution:      1.13102      15.47318      16.00797
Nuclear contribution   :     -0.95150     -15.67591     -16.54957
                        -----------------------------------------
Total Dipole Moment    :      0.17951      -0.20273      -0.54160
                        -----------------------------------------
Magnitude (a.u.)       :      0.60552
Magnitude (Debye)      :      1.53911

Rotational constants in cm-1:     0.021761     0.007603     0.006970
Rotational constants in MHz :   652.387784   227.922273   208.965479

                             ****ORCA TERMINATED NORMALLY****
TOTAL RUN TIME: 0 days 0 hours 0 minutes 21 seconds 870 msec
