                         Program Version 4.2.1 -  RELEASE  -
|  1> ! wB97X-D3 SP def2-SVP
|  2> %pal
|  3> nprocs 24
|  4> end
|  5>
|  6> * xyz 0 1
|  7> S 	 -127.437 	 59.6822 	 -52.0351
|  8> C 	 -128.634 	 59.7512 	 -53.2585
|  9> C 	 -128.177 	 60.0361 	 -54.5019
| 10> C 	 -126.755 	 60.2375 	 -54.4623
| 11> C 	 -126.202 	 60.1632 	 -53.2129
| 12> H 	 -126.143 	 60.5536 	 -55.3166
| 13> C 	 -129.042 	 60.4436 	 -55.6868
| 14> H 	 -129.905 	 59.803 	 -55.587
| 15> H 	 -128.509 	 60.0263 	 -56.5551
| 16> C 	 -129.289 	 61.9377 	 -55.7614
| 17> H 	 -129.887 	 62.2978 	 -54.867
| 18> H 	 -128.343 	 62.5137 	 -55.8457
| 19> C 	 -130.127 	 62.3116 	 -57.0114
| 20> H 	 -131.096 	 61.8266 	 -56.9355
| 21> H 	 -130.313 	 63.424 	 -56.9458
| 22> H 	 -129.671 	 62.1872 	 -57.9605
| 23> S 	 -124.186 	 61.3877 	 -51.5496
| 24> C 	 -122.69 	 60.7053 	 -51.479
| 25> C 	 -122.398 	 59.9031 	 -52.579
| 26> C 	 -123.594 	 59.6907 	 -53.3298
| 27> C 	 -124.743 	 60.3098 	 -52.8573
| 28> H 	 -121.424 	 59.4979 	 -52.741
| 29> C 	 -123.581 	 58.8278 	 -54.5565
| 30> H 	 -122.6 	 58.6997 	 -54.9972
| 31> H 	 -124.258 	 59.3014 	 -55.2087
| 32> C 	 -124.15 	 57.4121 	 -54.3566
| 33> H 	 -125.228 	 57.5191 	 -54.1316
| 34> H 	 -123.79 	 56.8847 	 -53.481
| 35> C 	 -124.111 	 56.4217 	 -55.5742
| 36> H 	 -123.081 	 56.2603 	 -55.9138
| 37> H 	 -124.616 	 56.7874 	 -56.4173
| 38> H 	 -124.491 	 55.4435 	 -55.3633
| 39> H 	 -129.688 	 59.6975 	 -52.9991
| 40> H 	 -121.905 	 61.0177 	 -50.7602
| 41> *
| 42>
| 43>                          ****END OF INPUT****

CARTESIAN COORDINATES (ANGSTROEM)
---------------------------------
  S    -127.437000   59.682200  -52.035100
  C    -128.634000   59.751200  -53.258500
  C    -128.177000   60.036100  -54.501900
  C    -126.755000   60.237500  -54.462300
  C    -126.202000   60.163200  -53.212900
  H    -126.143000   60.553600  -55.316600
  C    -129.042000   60.443600  -55.686800
  H    -129.905000   59.803000  -55.587000
  H    -128.509000   60.026300  -56.555100
  C    -129.289000   61.937700  -55.761400
  H    -129.887000   62.297800  -54.867000
  H    -128.343000   62.513700  -55.845700
  C    -130.127000   62.311600  -57.011400
  H    -131.096000   61.826600  -56.935500
  H    -130.313000   63.424000  -56.945800
  H    -129.671000   62.187200  -57.960500
  S    -124.186000   61.387700  -51.549600
  C    -122.690000   60.705300  -51.479000
  C    -122.398000   59.903100  -52.579000
  C    -123.594000   59.690700  -53.329800
  C    -124.743000   60.309800  -52.857300
  H    -121.424000   59.497900  -52.741000
  C    -123.581000   58.827800  -54.556500
  H    -122.600000   58.699700  -54.997200
  H    -124.258000   59.301400  -55.208700
  C    -124.150000   57.412100  -54.356600
  H    -125.228000   57.519100  -54.131600
  H    -123.790000   56.884700  -53.481000
  C    -124.111000   56.421700  -55.574200
  H    -123.081000   56.260300  -55.913800
  H    -124.616000   56.787400  -56.417300
  H    -124.491000   55.443500  -55.363300
  H    -129.688000   59.697500  -52.999100
  H    -121.905000   61.017700  -50.760200

 Total Charge           Charge          ....    0
 Multiplicity           Mult            ....    1
 Number of Electrons    NEL             ....  134
 Basis Dimension        Dim             ....  322

ORBITAL ENERGIES
----------------

  NO   OCC          E(Eh)            E(eV)
   0   2.0000     -88.965259     -2420.8678
   1   2.0000     -88.963018     -2420.8068
   2   2.0000     -10.334034      -281.2033
   3   2.0000     -10.327368      -281.0220
   4   2.0000     -10.314112      -280.6613
   5   2.0000     -10.309082      -280.5244
   6   2.0000     -10.302348      -280.3411
   7   2.0000     -10.297090      -280.1981
   8   2.0000     -10.296446      -280.1805
   9   2.0000     -10.295145      -280.1451
  10   2.0000     -10.293624      -280.1037
  11   2.0000     -10.290245      -280.0118
  12   2.0000     -10.282089      -279.7899
  13   2.0000     -10.280342      -279.7423
  14   2.0000     -10.279790      -279.7273
  15   2.0000     -10.269778      -279.4549
  16   2.0000      -8.080446      -219.8801
  17   2.0000      -8.079437      -219.8527
  18   2.0000      -6.038969      -164.3287
  19   2.0000      -6.037725      -164.2949
  20   2.0000      -6.034901      -164.2180
  21   2.0000      -6.033638      -164.1836
  22   2.0000      -6.031150      -164.1159
  23   2.0000      -6.030387      -164.0952
  24   2.0000      -1.009058       -27.4579
  25   2.0000      -0.993087       -27.0233
  26   2.0000      -0.912326       -24.8257
  27   2.0000      -0.906991       -24.6805
  28   2.0000      -0.864688       -23.5293
  29   2.0000      -0.850741       -23.1498
  30   2.0000      -0.846534       -23.0354
  31   2.0000      -0.815110       -22.1803
  32   2.0000      -0.784788       -21.3552
  33   2.0000      -0.772063       -21.0089
  34   2.0000      -0.703637       -19.1469
  35   2.0000      -0.698066       -18.9953
  36   2.0000      -0.688092       -18.7239
  37   2.0000      -0.660333       -17.9686
  38   2.0000      -0.642432       -17.4815
  39   2.0000      -0.621582       -16.9141
  40   2.0000      -0.595005       -16.1909
  41   2.0000      -0.571316       -15.5463
  42   2.0000      -0.567443       -15.4409
  43   2.0000      -0.556763       -15.1503
  44   2.0000      -0.527877       -14.3643
  45   2.0000      -0.522048       -14.2056
  46   2.0000      -0.516450       -14.0533
  47   2.0000      -0.508052       -13.8248
  48   2.0000      -0.504466       -13.7272
  49   2.0000      -0.498334       -13.5604
  50   2.0000      -0.491742       -13.3810
  51   2.0000      -0.483398       -13.1539
  52   2.0000      -0.471210       -12.8223
  53   2.0000      -0.465348       -12.6628
  54   2.0000      -0.463213       -12.6047
  55   2.0000      -0.447602       -12.1799
  56   2.0000      -0.442449       -12.0396
  57   2.0000      -0.439418       -11.9572
  58   2.0000      -0.433739       -11.8026
  59   2.0000      -0.426334       -11.6011
  60   2.0000      -0.418496       -11.3879
  61   2.0000      -0.415063       -11.2944
  62   2.0000      -0.407727       -11.0948
  63   2.0000      -0.343879        -9.3574
  64   2.0000      -0.332368        -9.0442
  65   2.0000      -0.326099        -8.8736
  66   2.0000      -0.297110        -8.0848
  67   0.0000       0.031795         0.8652
  68   0.0000       0.073525         2.0007
  69   0.0000       0.112344         3.0570
  70   0.0000       0.121524         3.3068
  71   0.0000       0.132169         3.5965

MULLIKEN ATOMIC CHARGES
-----------------------
   0 S :    0.119799
   1 C :   -0.129794
   2 C :   -0.085208
   3 C :    0.002137
   4 C :   -0.142571
   5 H :    0.027723
   6 C :    0.083479
   7 H :    0.017244
   8 H :    0.023134
   9 C :   -0.080763
  10 H :    0.043227
  11 H :    0.041444
  12 C :   -0.051561
  13 H :    0.032675
  14 H :    0.035352
  15 H :    0.032245
  16 S :    0.121035
  17 C :   -0.099266
  18 C :   -0.033182
  19 C :   -0.037855
  20 C :   -0.183139
  21 H :    0.010856
  22 C :    0.129014
  23 H :    0.015238
  24 H :   -0.005221
  25 C :   -0.105214
  26 H :    0.035648
  27 H :    0.024058
  28 C :   -0.018790
  29 H :    0.016446
  30 H :    0.014326
  31 H :    0.029274
  32 H :    0.046605
  33 H :    0.071604
Sum of atomic charges:    0.0000000

LOEWDIN ATOMIC CHARGES
----------------------
   0 S :    0.409274
   1 C :   -0.200480
   2 C :   -0.071531
   3 C :   -0.062819
   4 C :   -0.186506
   5 H :    0.033529
   6 C :   -0.033837
   7 H :    0.028838
   8 H :    0.032828
   9 C :   -0.040654
  10 H :    0.034999
  11 H :    0.030646
  12 C :   -0.067330
  13 H :    0.023680
  14 H :    0.032682
  15 H :    0.017870
  16 S :    0.438218
  17 C :   -0.212697
  18 C :   -0.079938
  19 C :   -0.044339
  20 C :   -0.207164
  21 H :    0.029220
  22 C :   -0.027277
  23 H :    0.027875
  24 H :    0.022356
  25 C :   -0.040090
  26 H :    0.027135
  27 H :    0.020332
  28 C :   -0.061661
  29 H :    0.021188
  30 H :    0.015381
  31 H :    0.025473
  32 H :    0.026943
  33 H :    0.037856

  Mayer bond orders larger than 0.100000
B(  0-S ,  1-C ) :   1.1474 B(  0-S ,  4-C ) :   1.1379 B(  1-C ,  2-C ) :   1.6330
B(  1-C , 32-H ) :   0.9625 B(  2-C ,  3-C ) :   1.2242 B(  2-C ,  6-C ) :   1.0253
B(  3-C ,  4-C ) :   1.6064 B(  3-C ,  5-H ) :   0.9859 B(  4-C , 20-C ) :   1.0282
B(  6-C ,  7-H ) :   0.9348 B(  6-C ,  8-H ) :   0.9351 B(  6-C ,  9-C ) :   1.0641
B(  9-C , 10-H ) :   0.9543 B(  9-C , 11-H ) :   0.9549 B(  9-C , 12-C ) :   1.0829
B( 12-C , 13-H ) :   0.9752 B( 12-C , 14-H ) :   0.9747 B( 12-C , 15-H ) :   0.9776
B( 16-S , 17-C ) :   1.2198 B( 16-S , 20-C ) :   1.1337 B( 17-C , 18-C ) :   1.5410
B( 17-C , 33-H ) :   0.9587 B( 18-C , 19-C ) :   1.2712 B( 18-C , 21-H ) :   1.0045
B( 19-C , 20-C ) :   1.5651 B( 19-C , 22-C ) :   1.0541 B( 22-C , 23-H ) :   0.9374
B( 22-C , 24-H ) :   0.9232 B( 22-C , 25-C ) :   1.0578 B( 25-C , 26-H ) :   0.9536
B( 25-C , 27-H ) :   0.9601 B( 25-C , 28-C ) :   1.0830 B( 28-C , 29-H ) :   0.9744
B( 28-C , 30-H ) :   0.9754 B( 28-C , 31-H ) :   0.9748

Dispersion correction           -0.014315102
FINAL SINGLE POINT ENERGY     -1339.880144299147

DIPOLE MOMENT
-------------
                                X             Y             Z
Electronic contribution:      7.23179       6.30164      24.43109
Nuclear contribution   :     -7.28022      -6.29168     -24.95163
                        -----------------------------------------
Total Dipole Moment    :     -0.04842       0.00996      -0.52054
                        -----------------------------------------
Magnitude (a.u.)       :      0.52288
Magnitude (Debye)      :      1.32906

Rotational constants in cm-1:     0.018273     0.008131     0.006834
Rotational constants in MHz :   547.820125   243.748212   204.883111

                             ****ORCA TERMINATED NORMALLY****
TOTAL RUN TIME: 0 days 0 hours 0 minutes 21 seconds 415 msec
