                         Program Version 4.2.1 -  RELEASE  -
|  1> ! wB97X-D3 SP def2-SVP
|  2> %pal
|  3> nprocs 24
|  4> end
|  5>
|  6> * xyz 0 1
|  7> S 	 42.7138 	 -11.7114 	 -125.186
|  8> C 	 42.588 	 -11.5991 	 -123.406
|  9> C 	 41.9938 	 -12.7538 	 -122.912
| 10> C 	 41.653 	 -13.7432 	 -123.947
| 11> C 	 41.9131 	 -13.3438 	 -125.216
| 12> H 	 41.0884 	 -14.6744 	 -123.783
| 13> C 	 41.759 	 -13.0155 	 -121.472
| 14> H 	 40.7381 	 -13.3822 	 -121.254
| 15> H 	 41.7243 	 -12.0039 	 -120.967
| 16> C 	 42.8328 	 -13.7044 	 -120.678
| 17> H 	 43.7238 	 -13.1213 	 -120.718
| 18> H 	 42.4321 	 -13.7169 	 -119.645
| 19> C 	 43.0289 	 -15.1412 	 -121.209
| 20> H 	 42.0803 	 -15.743 	 -121.17
| 21> H 	 43.4309 	 -15.2002 	 -122.179
| 22> H 	 43.744 	 -15.7176 	 -120.607
| 23> S 	 40.1718 	 -13.2182 	 -127.499
| 24> C 	 40.016 	 -14.6477 	 -128.492
| 25> C 	 41.0816 	 -15.5144 	 -128.257
| 26> C 	 41.7708 	 -15.2465 	 -127.028
| 27> C 	 41.4846 	 -13.9609 	 -126.511
| 28> H 	 41.1577 	 -16.3862 	 -128.892
| 29> C 	 42.8958 	 -16.0402 	 -126.52
| 30> H 	 43.1372 	 -15.5528 	 -125.596
| 31> H 	 43.7066 	 -15.7485 	 -127.194
| 32> C 	 42.7725 	 -17.5716 	 -126.283
| 33> H 	 42.0603 	 -17.9686 	 -127.041
| 34> H 	 42.166 	 -17.7925 	 -125.389
| 35> C 	 44.1411 	 -18.3313 	 -126.402
| 36> H 	 44.1021 	 -19.375 	 -125.908
| 37> H 	 44.9981 	 -17.7038 	 -126.003
| 38> H 	 44.5742 	 -18.5418 	 -127.345
| 39> H 	 42.9684 	 -10.8576 	 -122.748
| 40> H 	 39.2518 	 -14.838 	 -129.255
| 41> *
| 42>
| 43>                          ****END OF INPUT****

CARTESIAN COORDINATES (ANGSTROEM)
---------------------------------
  S     42.713800  -11.711400  -125.186000
  C     42.588000  -11.599100  -123.406000
  C     41.993800  -12.753800  -122.912000
  C     41.653000  -13.743200  -123.947000
  C     41.913100  -13.343800  -125.216000
  H     41.088400  -14.674400  -123.783000
  C     41.759000  -13.015500  -121.472000
  H     40.738100  -13.382200  -121.254000
  H     41.724300  -12.003900  -120.967000
  C     42.832800  -13.704400  -120.678000
  H     43.723800  -13.121300  -120.718000
  H     42.432100  -13.716900  -119.645000
  C     43.028900  -15.141200  -121.209000
  H     42.080300  -15.743000  -121.170000
  H     43.430900  -15.200200  -122.179000
  H     43.744000  -15.717600  -120.607000
  S     40.171800  -13.218200  -127.499000
  C     40.016000  -14.647700  -128.492000
  C     41.081600  -15.514400  -128.257000
  C     41.770800  -15.246500  -127.028000
  C     41.484600  -13.960900  -126.511000
  H     41.157700  -16.386200  -128.892000
  C     42.895800  -16.040200  -126.520000
  H     43.137200  -15.552800  -125.596000
  H     43.706600  -15.748500  -127.194000
  C     42.772500  -17.571600  -126.283000
  H     42.060300  -17.968600  -127.041000
  H     42.166000  -17.792500  -125.389000
  C     44.141100  -18.331300  -126.402000
  H     44.102100  -19.375000  -125.908000
  H     44.998100  -17.703800  -126.003000
  H     44.574200  -18.541800  -127.345000
  H     42.968400  -10.857600  -122.748000
  H     39.251800  -14.838000  -129.255000

 Total Charge           Charge          ....    0
 Multiplicity           Mult            ....    1
 Number of Electrons    NEL             ....  134
 Basis Dimension        Dim             ....  322

ORBITAL ENERGIES
----------------

  NO   OCC          E(Eh)            E(eV)
   0   2.0000     -88.966907     -2420.9126
   1   2.0000     -88.963813     -2420.8284
   2   2.0000     -10.338175      -281.3160
   3   2.0000     -10.333956      -281.2012
   4   2.0000     -10.324117      -280.9335
   5   2.0000     -10.318746      -280.7874
   6   2.0000     -10.308258      -280.5020
   7   2.0000     -10.304160      -280.3905
   8   2.0000     -10.299513      -280.2640
   9   2.0000     -10.298595      -280.2390
  10   2.0000     -10.295711      -280.1605
  11   2.0000     -10.290672      -280.0234
  12   2.0000     -10.290313      -280.0137
  13   2.0000     -10.287206      -279.9291
  14   2.0000     -10.286022      -279.8969
  15   2.0000     -10.275664      -279.6150
  16   2.0000      -8.080709      -219.8873
  17   2.0000      -8.077019      -219.7869
  18   2.0000      -6.039318      -164.3382
  19   2.0000      -6.035856      -164.2440
  20   2.0000      -6.035272      -164.2281
  21   2.0000      -6.031771      -164.1328
  22   2.0000      -6.031465      -164.1245
  23   2.0000      -6.027466      -164.0157
  24   2.0000      -0.996301       -27.1107
  25   2.0000      -0.976798       -26.5800
  26   2.0000      -0.915044       -24.8996
  27   2.0000      -0.906564       -24.6689
  28   2.0000      -0.865527       -23.5522
  29   2.0000      -0.846365       -23.0308
  30   2.0000      -0.836848       -22.7718
  31   2.0000      -0.818180       -22.2638
  32   2.0000      -0.781564       -21.2674
  33   2.0000      -0.769500       -20.9392
  34   2.0000      -0.712677       -19.3929
  35   2.0000      -0.702964       -19.1286
  36   2.0000      -0.699280       -19.0284
  37   2.0000      -0.652125       -17.7452
  38   2.0000      -0.640015       -17.4157
  39   2.0000      -0.612311       -16.6618
  40   2.0000      -0.593320       -16.1451
  41   2.0000      -0.579639       -15.7728
  42   2.0000      -0.554843       -15.0980
  43   2.0000      -0.543597       -14.7920
  44   2.0000      -0.538284       -14.6475
  45   2.0000      -0.526474       -14.3261
  46   2.0000      -0.516992       -14.0681
  47   2.0000      -0.510321       -13.8865
  48   2.0000      -0.504745       -13.7348
  49   2.0000      -0.501109       -13.6359
  50   2.0000      -0.493715       -13.4347
  51   2.0000      -0.474819       -12.9205
  52   2.0000      -0.469655       -12.7800
  53   2.0000      -0.462589       -12.5877
  54   2.0000      -0.456059       -12.4100
  55   2.0000      -0.449045       -12.2191
  56   2.0000      -0.443488       -12.0679
  57   2.0000      -0.439376       -11.9560
  58   2.0000      -0.435587       -11.8529
  59   2.0000      -0.418172       -11.3790
  60   2.0000      -0.416011       -11.3202
  61   2.0000      -0.410826       -11.1791
  62   2.0000      -0.406488       -11.0611
  63   2.0000      -0.344843        -9.3837
  64   2.0000      -0.327587        -8.9141
  65   2.0000      -0.324140        -8.8203
  66   2.0000      -0.298388        -8.1195
  67   0.0000       0.033913         0.9228
  68   0.0000       0.052595         1.4312
  69   0.0000       0.112522         3.0619
  70   0.0000       0.115748         3.1497
  71   0.0000       0.118819         3.2332

MULLIKEN ATOMIC CHARGES
-----------------------
   0 S :    0.083221
   1 C :   -0.084670
   2 C :   -0.105776
   3 C :    0.053396
   4 C :   -0.173931
   5 H :    0.027618
   6 C :    0.000293
   7 H :    0.036494
   8 H :    0.016499
   9 C :   -0.018326
  10 H :    0.022262
  11 H :    0.035957
  12 C :   -0.065077
  13 H :    0.029304
  14 H :    0.035433
  15 H :    0.026994
  16 S :    0.110964
  17 C :   -0.111334
  18 C :   -0.020232
  19 C :   -0.061165
  20 C :   -0.134885
  21 H :    0.024677
  22 C :    0.060568
  23 H :    0.019184
  24 H :    0.047077
  25 C :   -0.050955
  26 H :    0.025111
  27 H :    0.034146
  28 C :   -0.085551
  29 H :    0.048724
  30 H :    0.038935
  31 H :    0.026139
  32 H :    0.038443
  33 H :    0.070462
Sum of atomic charges:    0.0000000

LOEWDIN ATOMIC CHARGES
----------------------
   0 S :    0.354263
   1 C :   -0.176313
   2 C :   -0.062536
   3 C :   -0.060838
   4 C :   -0.170731
   5 H :    0.038849
   6 C :   -0.047939
   7 H :    0.032510
   8 H :    0.035218
   9 C :   -0.032208
  10 H :    0.020592
  11 H :    0.031463
  12 C :   -0.070621
  13 H :    0.029091
  14 H :    0.018586
  15 H :    0.024870
  16 S :    0.391711
  17 C :   -0.179852
  18 C :   -0.076899
  19 C :   -0.047649
  20 C :   -0.198605
  21 H :    0.030361
  22 C :   -0.040654
  23 H :    0.029404
  24 H :    0.044034
  25 C :   -0.044471
  26 H :    0.024544
  27 H :    0.030197
  28 C :   -0.079801
  29 H :    0.038145
  30 H :    0.032755
  31 H :    0.019118
  32 H :    0.026575
  33 H :    0.036832

  Mayer bond orders larger than 0.100000
B(  0-S ,  1-C ) :   1.1105 B(  0-S ,  4-C ) :   1.1150 B(  1-C ,  2-C ) :   1.6570
B(  1-C , 32-H ) :   0.9681 B(  2-C ,  3-C ) :   1.1853 B(  2-C ,  6-C ) :   1.0364
B(  3-C ,  4-C ) :   1.6366 B(  3-C ,  5-H ) :   0.9862 B(  4-C , 20-C ) :   1.0108
B(  6-C ,  7-H ) :   0.9427 B(  6-C ,  8-H ) :   0.9347 B(  6-C ,  9-C ) :   1.0796
B(  9-C , 10-H ) :   0.9522 B(  9-C , 11-H ) :   0.9510 B(  9-C , 12-C ) :   1.0826
B( 12-C , 13-H ) :   0.9729 B( 12-C , 14-H ) :   0.9731 B( 12-C , 15-H ) :   0.9727
B( 16-S , 17-C ) :   1.1700 B( 16-S , 20-C ) :   1.1231 B( 17-C , 18-C ) :   1.6045
B( 17-C , 20-C ) :   0.1013 B( 17-C , 33-H ) :   0.9643 B( 18-C , 19-C ) :   1.2275
B( 18-C , 21-H ) :   0.9856 B( 19-C , 20-C ) :   1.5790 B( 19-C , 22-C ) :   1.0593
B( 22-C , 23-H ) :   0.9203 B( 22-C , 24-H ) :   0.9386 B( 22-C , 25-C ) :   1.0376
B( 25-C , 26-H ) :   0.9659 B( 25-C , 27-H ) :   0.9563 B( 25-C , 28-C ) :   1.0532
B( 28-C , 29-H ) :   0.9759 B( 28-C , 30-H ) :   0.9770 B( 28-C , 31-H ) :   0.9779

Dispersion correction           -0.014357264
FINAL SINGLE POINT ENERGY     -1339.860515021952

DIPOLE MOMENT
-------------
                                X             Y             Z
Electronic contribution:    -10.49372      22.04119     -16.65875
Nuclear contribution   :     10.52279     -22.66502      16.96962
                        -----------------------------------------
Total Dipole Moment    :      0.02907      -0.62383       0.31087
                        -----------------------------------------
Magnitude (a.u.)       :      0.69760
Magnitude (Debye)      :      1.77317

Rotational constants in cm-1:     0.016163     0.009390     0.006704
Rotational constants in MHz :   484.557409   281.504730   200.988003

                             ****ORCA TERMINATED NORMALLY****
TOTAL RUN TIME: 0 days 0 hours 0 minutes 21 seconds 491 msec
