                         Program Version 4.2.1 -  RELEASE  -
|  1> ! wB97X-D3 SP def2-SVP
|  2> %pal
|  3> nprocs 24
|  4> end
|  5>
|  6> * xyz 0 1
|  7> S 	 -45.0236 	 8.66942 	 -24.5899
|  8> C 	 -45.914 	 7.62885 	 -23.5797
|  9> C 	 -46.9962 	 8.28646 	 -23.0008
| 10> C 	 -47.0096 	 9.67894 	 -23.2873
| 11> C 	 -45.9449 	 10.0456 	 -24.0966
| 12> H 	 -47.6637 	 10.3807 	 -22.8387
| 13> C 	 -48.1114 	 7.5979 	 -22.1837
| 14> H 	 -47.6466 	 6.90452 	 -21.4932
| 15> H 	 -48.7379 	 6.9932 	 -22.8162
| 16> C 	 -48.9283 	 8.5103 	 -21.2175
| 17> H 	 -48.2648 	 9.09924 	 -20.5726
| 18> H 	 -49.6185 	 9.16856 	 -21.7011
| 19> C 	 -49.8448 	 7.70955 	 -20.2598
| 20> H 	 -50.6481 	 8.39189 	 -19.9486
| 21> H 	 -50.3636 	 6.85974 	 -20.7407
| 22> H 	 -49.2639 	 7.35293 	 -19.3402
| 23> S 	 -45.6989 	 11.5317 	 -26.3564
| 24> C 	 -45.8553 	 13.228 	 -26.3369
| 25> C 	 -45.8722 	 13.6605 	 -25.0067
| 26> C 	 -45.7785 	 12.6351 	 -23.9993
| 27> C 	 -45.6559 	 11.4034 	 -24.6355
| 28> H 	 -45.893 	 14.7596 	 -24.7867
| 29> C 	 -45.6861 	 12.8273 	 -22.5052
| 30> H 	 -45.4894 	 11.9433 	 -21.9121
| 31> H 	 -46.7198 	 13.2005 	 -22.1881
| 32> C 	 -44.6605 	 13.9337 	 -22.1828
| 33> H 	 -45.0126 	 14.9074 	 -22.6499
| 34> H 	 -43.6676 	 13.6953 	 -22.6099
| 35> C 	 -44.5183 	 14.3146 	 -20.6632
| 36> H 	 -44.1589 	 13.3752 	 -20.129
| 37> H 	 -45.4977 	 14.5734 	 -20.2588
| 38> H 	 -43.808 	 15.1129 	 -20.4407
| 39> H 	 -45.7176 	 6.62145 	 -23.2824
| 40> H 	 -45.6991 	 13.9709 	 -27.157
| 41> *
| 42>
| 43>                          ****END OF INPUT****

CARTESIAN COORDINATES (ANGSTROEM)
---------------------------------
  S    -45.023600    8.669420  -24.589900
  C    -45.914000    7.628850  -23.579700
  C    -46.996200    8.286460  -23.000800
  C    -47.009600    9.678940  -23.287300
  C    -45.944900   10.045600  -24.096600
  H    -47.663700   10.380700  -22.838700
  C    -48.111400    7.597900  -22.183700
  H    -47.646600    6.904520  -21.493200
  H    -48.737900    6.993200  -22.816200
  C    -48.928300    8.510300  -21.217500
  H    -48.264800    9.099240  -20.572600
  H    -49.618500    9.168560  -21.701100
  C    -49.844800    7.709550  -20.259800
  H    -50.648100    8.391890  -19.948600
  H    -50.363600    6.859740  -20.740700
  H    -49.263900    7.352930  -19.340200
  S    -45.698900   11.531700  -26.356400
  C    -45.855300   13.228000  -26.336900
  C    -45.872200   13.660500  -25.006700
  C    -45.778500   12.635100  -23.999300
  C    -45.655900   11.403400  -24.635500
  H    -45.893000   14.759600  -24.786700
  C    -45.686100   12.827300  -22.505200
  H    -45.489400   11.943300  -21.912100
  H    -46.719800   13.200500  -22.188100
  C    -44.660500   13.933700  -22.182800
  H    -45.012600   14.907400  -22.649900
  H    -43.667600   13.695300  -22.609900
  C    -44.518300   14.314600  -20.663200
  H    -44.158900   13.375200  -20.129000
  H    -45.497700   14.573400  -20.258800
  H    -43.808000   15.112900  -20.440700
  H    -45.717600    6.621450  -23.282400
  H    -45.699100   13.970900  -27.157000

 Total Charge           Charge          ....    0
 Multiplicity           Mult            ....    1
 Number of Electrons    NEL             ....  134
 Basis Dimension        Dim             ....  322

ORBITAL ENERGIES
----------------

  NO   OCC          E(Eh)            E(eV)
   0   2.0000     -88.967932     -2420.9405
   1   2.0000     -88.963955     -2420.8323
   2   2.0000     -10.327622      -281.0289
   3   2.0000     -10.323637      -280.9204
   4   2.0000     -10.317831      -280.7625
   5   2.0000     -10.307645      -280.4853
   6   2.0000     -10.305378      -280.4236
   7   2.0000     -10.300791      -280.2988
   8   2.0000     -10.299607      -280.2666
   9   2.0000     -10.298866      -280.2464
  10   2.0000     -10.295145      -280.1451
  11   2.0000     -10.294152      -280.1181
  12   2.0000     -10.289594      -279.9941
  13   2.0000     -10.289437      -279.9898
  14   2.0000     -10.287025      -279.9242
  15   2.0000     -10.285442      -279.8811
  16   2.0000      -8.083595      -219.9658
  17   2.0000      -8.079874      -219.8645
  18   2.0000      -6.042001      -164.4112
  19   2.0000      -6.038331      -164.3113
  20   2.0000      -6.037825      -164.2976
  21   2.0000      -6.034576      -164.2092
  22   2.0000      -6.034053      -164.1949
  23   2.0000      -6.030771      -164.1056
  24   2.0000      -1.011757       -27.5313
  25   2.0000      -0.989868       -26.9357
  26   2.0000      -0.907646       -24.6983
  27   2.0000      -0.906660       -24.6715
  28   2.0000      -0.866515       -23.5791
  29   2.0000      -0.851687       -23.1756
  30   2.0000      -0.843573       -22.9548
  31   2.0000      -0.812494       -22.1091
  32   2.0000      -0.780465       -21.2375
  33   2.0000      -0.769915       -20.9504
  34   2.0000      -0.705242       -19.1906
  35   2.0000      -0.695131       -18.9155
  36   2.0000      -0.686668       -18.6852
  37   2.0000      -0.651319       -17.7233
  38   2.0000      -0.638628       -17.3779
  39   2.0000      -0.623412       -16.9639
  40   2.0000      -0.597820       -16.2675
  41   2.0000      -0.572867       -15.5885
  42   2.0000      -0.564158       -15.3515
  43   2.0000      -0.559969       -15.2375
  44   2.0000      -0.524542       -14.2735
  45   2.0000      -0.519636       -14.1400
  46   2.0000      -0.514055       -13.9882
  47   2.0000      -0.508210       -13.8291
  48   2.0000      -0.500800       -13.6274
  49   2.0000      -0.498211       -13.5570
  50   2.0000      -0.494311       -13.4509
  51   2.0000      -0.481201       -13.0941
  52   2.0000      -0.473384       -12.8814
  53   2.0000      -0.464806       -12.6480
  54   2.0000      -0.458714       -12.4823
  55   2.0000      -0.452004       -12.2997
  56   2.0000      -0.444442       -12.0939
  57   2.0000      -0.434647       -11.8274
  58   2.0000      -0.434528       -11.8241
  59   2.0000      -0.422719       -11.5028
  60   2.0000      -0.421000       -11.4560
  61   2.0000      -0.416810       -11.3420
  62   2.0000      -0.413179       -11.2432
  63   2.0000      -0.346676        -9.4335
  64   2.0000      -0.332103        -9.0370
  65   2.0000      -0.327862        -8.9216
  66   2.0000      -0.290959        -7.9174
  67   0.0000       0.034630         0.9423
  68   0.0000       0.071496         1.9455
  69   0.0000       0.119996         3.2653
  70   0.0000       0.123078         3.3491
  71   0.0000       0.135049         3.6749

MULLIKEN ATOMIC CHARGES
-----------------------
   0 S :    0.129438
   1 C :   -0.095423
   2 C :   -0.116424
   3 C :    0.047023
   4 C :   -0.161263
   5 H :    0.002007
   6 C :    0.079227
   7 H :    0.019111
   8 H :    0.041174
   9 C :   -0.101972
  10 H :    0.035425
  11 H :    0.031521
  12 C :   -0.082704
  13 H :    0.034751
  14 H :    0.036286
  15 H :    0.048342
  16 S :    0.115648
  17 C :   -0.100843
  18 C :   -0.080033
  19 C :   -0.043283
  20 C :   -0.133718
  21 H :    0.033262
  22 C :    0.079911
  23 H :    0.035648
  24 H :    0.035981
  25 C :   -0.136008
  26 H :    0.037132
  27 H :    0.047253
  28 C :   -0.056341
  29 H :    0.034947
  30 H :    0.028682
  31 H :    0.045172
  32 H :    0.033154
  33 H :    0.076918
Sum of atomic charges:    0.0000000

LOEWDIN ATOMIC CHARGES
----------------------
   0 S :    0.440577
   1 C :   -0.217000
   2 C :   -0.061693
   3 C :   -0.059913
   4 C :   -0.202619
   5 H :    0.026438
   6 C :   -0.029457
   7 H :    0.030433
   8 H :    0.030864
   9 C :   -0.044099
  10 H :    0.027335
  11 H :    0.017865
  12 C :   -0.072011
  13 H :    0.027957
  14 H :    0.025219
  15 H :    0.031572
  16 S :    0.437715
  17 C :   -0.219684
  18 C :   -0.077279
  19 C :   -0.060232
  20 C :   -0.209436
  21 H :    0.033611
  22 C :   -0.032051
  23 H :    0.030188
  24 H :    0.039147
  25 C :   -0.044917
  26 H :    0.026034
  27 H :    0.027343
  28 C :   -0.071629
  29 H :    0.028646
  30 H :    0.021931
  31 H :    0.027344
  32 H :    0.026614
  33 H :    0.045188

  Mayer bond orders larger than 0.100000
B(  0-S ,  1-C ) :   1.1509 B(  0-S ,  4-C ) :   1.1806 B(  1-C ,  2-C ) :   1.5999
B(  1-C , 32-H ) :   0.9728 B(  2-C ,  3-C ) :   1.2806 B(  2-C ,  6-C ) :   1.0025
B(  3-C ,  4-C ) :   1.5319 B(  3-C ,  5-H ) :   1.0000 B(  4-C , 20-C ) :   0.9836
B(  6-C ,  7-H ) :   0.9443 B(  6-C ,  8-H ) :   0.9394 B(  6-C ,  9-C ) :   1.0730
B(  9-C , 10-H ) :   0.9588 B(  9-C , 11-H ) :   0.9544 B(  9-C , 12-C ) :   1.0798
B( 12-C , 13-H ) :   0.9771 B( 12-C , 14-H ) :   0.9751 B( 12-C , 15-H ) :   0.9763
B( 16-S , 17-C ) :   1.1688 B( 16-S , 20-C ) :   1.1708 B( 17-C , 18-C ) :   1.5902
B( 17-C , 33-H ) :   0.9590 B( 18-C , 19-C ) :   1.2608 B( 18-C , 21-H ) :   0.9777
B( 19-C , 20-C ) :   1.5800 B( 19-C , 22-C ) :   1.0402 B( 22-C , 23-H ) :   0.9463
B( 22-C , 24-H ) :   0.9237 B( 22-C , 25-C ) :   1.0522 B( 25-C , 26-H ) :   0.9533
B( 25-C , 27-H ) :   0.9609 B( 25-C , 28-C ) :   1.0776 B( 28-C , 29-H ) :   0.9753
B( 28-C , 30-H ) :   0.9747 B( 28-C , 31-H ) :   0.9767

Dispersion correction           -0.013488950
FINAL SINGLE POINT ENERGY     -1339.884116761092

DIPOLE MOMENT
-------------
                                X             Y             Z
Electronic contribution:     10.82843      -5.18087     -27.64605
Nuclear contribution   :    -11.13439       5.37807      28.22625
                        -----------------------------------------
Total Dipole Moment    :     -0.30596       0.19720       0.58020
                        -----------------------------------------
Magnitude (a.u.)       :      0.68493
Magnitude (Debye)      :      1.74096

Rotational constants in cm-1:     0.016025     0.008472     0.006518
Rotational constants in MHz :   480.410462   253.988222   195.412332

                             ****ORCA TERMINATED NORMALLY****
TOTAL RUN TIME: 0 days 0 hours 0 minutes 20 seconds 964 msec
