                         Program Version 4.2.1 -  RELEASE  -
|  1> ! wB97X-D3 SP def2-SVP
|  2> %pal
|  3> nprocs 24
|  4> end
|  5>
|  6> * xyz 0 1
|  7> S 	 17.8294 	 -12.246 	 -128.821
|  8> C 	 16.1664 	 -11.6197 	 -129.298
|  9> C 	 15.2076 	 -12.579 	 -129.003
| 10> C 	 15.7922 	 -13.6888 	 -128.259
| 11> C 	 17.1595 	 -13.6047 	 -127.943
| 12> H 	 15.4482 	 -14.5224 	 -127.769
| 13> C 	 13.7844 	 -12.7526 	 -129.427
| 14> H 	 13.8263 	 -13.6556 	 -129.972
| 15> H 	 13.5352 	 -12.0028 	 -130.22
| 16> C 	 12.7673 	 -12.9242 	 -128.313
| 17> H 	 12.5989 	 -13.9363 	 -127.982
| 18> H 	 13.2043 	 -12.3676 	 -127.482
| 19> C 	 11.2646 	 -12.4287 	 -128.525
| 20> H 	 10.6389 	 -12.5174 	 -127.598
| 21> H 	 11.2188 	 -11.3573 	 -128.783
| 22> H 	 10.7494 	 -12.8299 	 -129.295
| 23> S 	 19.457 	 -14.9877 	 -128.199
| 24> C 	 19.928 	 -16.0867 	 -127.018
| 25> C 	 19.1632 	 -15.9971 	 -125.877
| 26> C 	 18.0139 	 -15.1885 	 -126.104
| 27> C 	 17.9922 	 -14.6142 	 -127.341
| 28> H 	 19.4194 	 -16.5972 	 -125.03
| 29> C 	 17.0168 	 -14.7725 	 -125.002
| 30> H 	 15.9935 	 -14.6861 	 -125.496
| 31> H 	 17.4206 	 -13.7747 	 -124.552
| 32> C 	 16.8262 	 -15.736 	 -123.865
| 33> H 	 16.466 	 -15.1259 	 -123.001
| 34> H 	 17.794 	 -16.0571 	 -123.486
| 35> C 	 15.8925 	 -16.94 	 -124.059
| 36> H 	 16.2914 	 -17.6158 	 -124.794
| 37> H 	 14.8923 	 -16.5744 	 -124.422
| 38> H 	 15.7526 	 -17.4505 	 -123.087
| 39> H 	 15.9123 	 -10.8901 	 -130.002
| 40> H 	 20.7671 	 -16.6422 	 -127.138
| 41> *
| 42>
| 43>                          ****END OF INPUT****

CARTESIAN COORDINATES (ANGSTROEM)
---------------------------------
  S     17.829400  -12.246000  -128.821000
  C     16.166400  -11.619700  -129.298000
  C     15.207600  -12.579000  -129.003000
  C     15.792200  -13.688800  -128.259000
  C     17.159500  -13.604700  -127.943000
  H     15.448200  -14.522400  -127.769000
  C     13.784400  -12.752600  -129.427000
  H     13.826300  -13.655600  -129.972000
  H     13.535200  -12.002800  -130.220000
  C     12.767300  -12.924200  -128.313000
  H     12.598900  -13.936300  -127.982000
  H     13.204300  -12.367600  -127.482000
  C     11.264600  -12.428700  -128.525000
  H     10.638900  -12.517400  -127.598000
  H     11.218800  -11.357300  -128.783000
  H     10.749400  -12.829900  -129.295000
  S     19.457000  -14.987700  -128.199000
  C     19.928000  -16.086700  -127.018000
  C     19.163200  -15.997100  -125.877000
  C     18.013900  -15.188500  -126.104000
  C     17.992200  -14.614200  -127.341000
  H     19.419400  -16.597200  -125.030000
  C     17.016800  -14.772500  -125.002000
  H     15.993500  -14.686100  -125.496000
  H     17.420600  -13.774700  -124.552000
  C     16.826200  -15.736000  -123.865000
  H     16.466000  -15.125900  -123.001000
  H     17.794000  -16.057100  -123.486000
  C     15.892500  -16.940000  -124.059000
  H     16.291400  -17.615800  -124.794000
  H     14.892300  -16.574400  -124.422000
  H     15.752600  -17.450500  -123.087000
  H     15.912300  -10.890100  -130.002000
  H     20.767100  -16.642200  -127.138000

 Total Charge           Charge          ....    0
 Multiplicity           Mult            ....    1
 Number of Electrons    NEL             ....  134
 Basis Dimension        Dim             ....  322

ORBITAL ENERGIES
----------------

  NO   OCC          E(Eh)            E(eV)
   0   2.0000     -88.964370     -2420.8436
   1   2.0000     -88.964104     -2420.8363
   2   2.0000     -10.329888      -281.0906
   3   2.0000     -10.321528      -280.8630
   4   2.0000     -10.316772      -280.7336
   5   2.0000     -10.308623      -280.5119
   6   2.0000     -10.308616      -280.5117
   7   2.0000     -10.304347      -280.3955
   8   2.0000     -10.303622      -280.3758
   9   2.0000     -10.293938      -280.1123
  10   2.0000     -10.293162      -280.0912
  11   2.0000     -10.290932      -280.0305
  12   2.0000     -10.286986      -279.9231
  13   2.0000     -10.285881      -279.8931
  14   2.0000     -10.283806      -279.8366
  15   2.0000     -10.278562      -279.6939
  16   2.0000      -8.081199      -219.9006
  17   2.0000      -8.077409      -219.7975
  18   2.0000      -6.039450      -164.3418
  19   2.0000      -6.036235      -164.2543
  20   2.0000      -6.035434      -164.2325
  21   2.0000      -6.032202      -164.1446
  22   2.0000      -6.032061      -164.1407
  23   2.0000      -6.027799      -164.0248
  24   2.0000      -1.016469       -27.6595
  25   2.0000      -0.979970       -26.6664
  26   2.0000      -0.913627       -24.8610
  27   2.0000      -0.911421       -24.8010
  28   2.0000      -0.872734       -23.7483
  29   2.0000      -0.853651       -23.2290
  30   2.0000      -0.838873       -22.8269
  31   2.0000      -0.816272       -22.2119
  32   2.0000      -0.787020       -21.4159
  33   2.0000      -0.780505       -21.2386
  34   2.0000      -0.713577       -19.4174
  35   2.0000      -0.705028       -19.1848
  36   2.0000      -0.700092       -19.0505
  37   2.0000      -0.658654       -17.9229
  38   2.0000      -0.648038       -17.6340
  39   2.0000      -0.611552       -16.6412
  40   2.0000      -0.602755       -16.4018
  41   2.0000      -0.574108       -15.6223
  42   2.0000      -0.560289       -15.2462
  43   2.0000      -0.554355       -15.0848
  44   2.0000      -0.536758       -14.6059
  45   2.0000      -0.526820       -14.3355
  46   2.0000      -0.522697       -14.2233
  47   2.0000      -0.513169       -13.9640
  48   2.0000      -0.506478       -13.7820
  49   2.0000      -0.502449       -13.6723
  50   2.0000      -0.497514       -13.5380
  51   2.0000      -0.477366       -12.9898
  52   2.0000      -0.470252       -12.7962
  53   2.0000      -0.465825       -12.6758
  54   2.0000      -0.459594       -12.5062
  55   2.0000      -0.450800       -12.2669
  56   2.0000      -0.441874       -12.0240
  57   2.0000      -0.441114       -12.0033
  58   2.0000      -0.433688       -11.8013
  59   2.0000      -0.424883       -11.5617
  60   2.0000      -0.417680       -11.3656
  61   2.0000      -0.413264       -11.2455
  62   2.0000      -0.405256       -11.0276
  63   2.0000      -0.350878        -9.5479
  64   2.0000      -0.334138        -9.0924
  65   2.0000      -0.324735        -8.8365
  66   2.0000      -0.291719        -7.9381
  67   0.0000       0.027414         0.7460
  68   0.0000       0.063629         1.7314
  69   0.0000       0.103037         2.8038
  70   0.0000       0.118893         3.2353
  71   0.0000       0.129472         3.5231

MULLIKEN ATOMIC CHARGES
-----------------------
   0 S :    0.077391
   1 C :   -0.080342
   2 C :   -0.103851
   3 C :    0.049894
   4 C :   -0.152252
   5 H :   -0.026766
   6 C :    0.112195
   7 H :    0.030928
   8 H :    0.021920
   9 C :   -0.083438
  10 H :    0.035146
  11 H :    0.041595
  12 C :   -0.050039
  13 H :    0.042205
  14 H :    0.022076
  15 H :    0.011592
  16 S :    0.112200
  17 C :   -0.044907
  18 C :   -0.039462
  19 C :   -0.044379
  20 C :   -0.152538
  21 H :    0.017075
  22 C :    0.032589
  23 H :    0.033476
  24 H :    0.069164
  25 C :   -0.086985
  26 H :    0.026809
  27 H :    0.013764
  28 C :   -0.044907
  29 H :    0.037361
  30 H :    0.031923
  31 H :    0.045337
  32 H :    0.027796
  33 H :    0.017431
Sum of atomic charges:    0.0000000

LOEWDIN ATOMIC CHARGES
----------------------
   0 S :    0.362882
   1 C :   -0.174933
   2 C :   -0.049652
   3 C :   -0.062708
   4 C :   -0.181927
   5 H :    0.012169
   6 C :   -0.036546
   7 H :    0.035793
   8 H :    0.034135
   9 C :   -0.038336
  10 H :    0.024988
  11 H :    0.029419
  12 C :   -0.063729
  13 H :    0.035253
  14 H :    0.025458
  15 H :    0.006452
  16 S :    0.442574
  17 C :   -0.176670
  18 C :   -0.072476
  19 C :   -0.059669
  20 C :   -0.208712
  21 H :    0.029366
  22 C :   -0.037427
  23 H :    0.036041
  24 H :    0.052851
  25 C :   -0.057181
  26 H :    0.030062
  27 H :    0.017157
  28 C :   -0.064563
  29 H :    0.022603
  30 H :    0.027938
  31 H :    0.032747
  32 H :    0.019591
  33 H :    0.007051

  Mayer bond orders larger than 0.100000
B(  0-S ,  1-C ) :   1.0990 B(  0-S ,  4-C ) :   1.1249 B(  1-C ,  2-C ) :   1.6521
B(  1-C , 32-H ) :   0.9668 B(  2-C ,  3-C ) :   1.1778 B(  2-C ,  6-C ) :   1.0373
B(  3-C ,  4-C ) :   1.6071 B(  3-C ,  5-H ) :   0.9940 B(  4-C , 20-C ) :   1.0628
B(  6-C ,  7-H ) :   0.9291 B(  6-C ,  8-H ) :   0.9416 B(  6-C ,  9-C ) :   1.0368
B(  9-C , 10-H ) :   0.9538 B(  9-C , 11-H ) :   0.9689 B(  9-C , 12-C ) :   1.0777
B( 12-C , 13-H ) :   0.9775 B( 12-C , 14-H ) :   0.9753 B( 12-C , 15-H ) :   0.9783
B( 16-S , 17-C ) :   1.1954 B( 16-S , 20-C ) :   1.1418 B( 17-C , 18-C ) :   1.5740
B( 17-C , 33-H ) :   0.9804 B( 18-C , 19-C ) :   1.2464 B( 18-C , 21-H ) :   0.9989
B( 19-C , 20-C ) :   1.5943 B( 19-C , 22-C ) :   1.0304 B( 22-C , 23-H ) :   0.9360
B( 22-C , 24-H ) :   0.9317 B( 22-C , 25-C ) :   1.0820 B( 25-C , 26-H ) :   0.9505
B( 25-C , 27-H ) :   0.9435 B( 25-C , 28-C ) :   1.0797 B( 28-C , 29-H ) :   0.9766
B( 28-C , 30-H ) :   0.9717 B( 28-C , 31-H ) :   0.9734

Dispersion correction           -0.013646614
FINAL SINGLE POINT ENERGY     -1339.839440962098

DIPOLE MOMENT
-------------
                                X             Y             Z
Electronic contribution:     27.52452       4.66439     -13.06985
Nuclear contribution   :    -27.93285      -5.05371      13.36383
                        -----------------------------------------
Total Dipole Moment    :     -0.40833      -0.38932       0.29399
                        -----------------------------------------
Magnitude (a.u.)       :      0.63619
Magnitude (Debye)      :      1.61706

Rotational constants in cm-1:     0.017267     0.008770     0.006247
Rotational constants in MHz :   517.644202   262.932339   187.287875

                             ****ORCA TERMINATED NORMALLY****
TOTAL RUN TIME: 0 days 0 hours 0 minutes 21 seconds 209 msec
