                         Program Version 4.2.1 -  RELEASE  -
|  1> ! wB97X-D3 SP def2-SVP
|  2> %pal
|  3> nprocs 24
|  4> end
|  5>
|  6> * xyz 0 1
|  7> S 	 -48.9331 	 16.681 	 21.4447
|  8> C 	 -50.0417 	 15.6089 	 22.3894
|  9> C 	 -50.8255 	 14.841 	 21.6008
| 10> C 	 -50.5242 	 14.9902 	 20.247
| 11> C 	 -49.5452 	 15.8951 	 19.9974
| 12> H 	 -50.9518 	 14.5058 	 19.4142
| 13> C 	 -51.8255 	 13.8153 	 22.1001
| 14> H 	 -52.1111 	 13.2778 	 21.2331
| 15> H 	 -52.7037 	 14.3242 	 22.5166
| 16> C 	 -51.1916 	 12.6949 	 22.9904
| 17> H 	 -50.8106 	 13.1169 	 23.923
| 18> H 	 -51.8712 	 11.872 	 23.2457
| 19> C 	 -50.0425 	 11.9245 	 22.3073
| 20> H 	 -49.1485 	 12.5499 	 22.1121
| 21> H 	 -49.6413 	 11.0627 	 22.939
| 22> H 	 -50.2913 	 11.4525 	 21.2961
| 23> S 	 -48.7123 	 15.0012 	 17.4896
| 24> C 	 -47.5416 	 15.933 	 16.586
| 25> C 	 -47.5215 	 17.23 	 17.0727
| 26> C 	 -48.4463 	 17.4501 	 18.1501
| 27> C 	 -48.9981 	 16.2538 	 18.658
| 28> H 	 -47.0027 	 18.0113 	 16.5502
| 29> C 	 -48.6387 	 18.8508 	 18.7579
| 30> H 	 -47.6622 	 19.3655 	 18.8099
| 31> H 	 -48.9456 	 18.8943 	 19.8397
| 32> C 	 -49.5057 	 19.7892 	 17.9389
| 33> H 	 -50.5651 	 19.3321 	 17.9565
| 34> H 	 -49.1591 	 19.7733 	 16.9268
| 35> C 	 -49.5424 	 21.3246 	 18.2938
| 36> H 	 -49.8561 	 21.8657 	 17.4079
| 37> H 	 -48.5776 	 21.6811 	 18.5245
| 38> H 	 -50.0797 	 21.5612 	 19.1765
| 39> H 	 -50.0869 	 15.561 	 23.4578
| 40> H 	 -47.0127 	 15.5177 	 15.7067
| 41> *
| 42>
| 43>                          ****END OF INPUT****

CARTESIAN COORDINATES (ANGSTROEM)
---------------------------------
  S    -48.933100   16.681000   21.444700
  C    -50.041700   15.608900   22.389400
  C    -50.825500   14.841000   21.600800
  C    -50.524200   14.990200   20.247000
  C    -49.545200   15.895100   19.997400
  H    -50.951800   14.505800   19.414200
  C    -51.825500   13.815300   22.100100
  H    -52.111100   13.277800   21.233100
  H    -52.703700   14.324200   22.516600
  C    -51.191600   12.694900   22.990400
  H    -50.810600   13.116900   23.923000
  H    -51.871200   11.872000   23.245700
  C    -50.042500   11.924500   22.307300
  H    -49.148500   12.549900   22.112100
  H    -49.641300   11.062700   22.939000
  H    -50.291300   11.452500   21.296100
  S    -48.712300   15.001200   17.489600
  C    -47.541600   15.933000   16.586000
  C    -47.521500   17.230000   17.072700
  C    -48.446300   17.450100   18.150100
  C    -48.998100   16.253800   18.658000
  H    -47.002700   18.011300   16.550200
  C    -48.638700   18.850800   18.757900
  H    -47.662200   19.365500   18.809900
  H    -48.945600   18.894300   19.839700
  C    -49.505700   19.789200   17.938900
  H    -50.565100   19.332100   17.956500
  H    -49.159100   19.773300   16.926800
  C    -49.542400   21.324600   18.293800
  H    -49.856100   21.865700   17.407900
  H    -48.577600   21.681100   18.524500
  H    -50.079700   21.561200   19.176500
  H    -50.086900   15.561000   23.457800
  H    -47.012700   15.517700   15.706700

 Total Charge           Charge          ....    0
 Multiplicity           Mult            ....    1
 Number of Electrons    NEL             ....  134
 Basis Dimension        Dim             ....  322

ORBITAL ENERGIES
----------------

  NO   OCC          E(Eh)            E(eV)
   0   2.0000     -88.969990     -2420.9965
   1   2.0000     -88.963807     -2420.8282
   2   2.0000     -10.331998      -281.1480
   3   2.0000     -10.331253      -281.1277
   4   2.0000     -10.323387      -280.9136
   5   2.0000     -10.312256      -280.6107
   6   2.0000     -10.309062      -280.5238
   7   2.0000     -10.297080      -280.1978
   8   2.0000     -10.296017      -280.1689
   9   2.0000     -10.293577      -280.1025
  10   2.0000     -10.293274      -280.0942
  11   2.0000     -10.292827      -280.0821
  12   2.0000     -10.287489      -279.9368
  13   2.0000     -10.286073      -279.8983
  14   2.0000     -10.285460      -279.8816
  15   2.0000     -10.272785      -279.5367
  16   2.0000      -8.083390      -219.9602
  17   2.0000      -8.079023      -219.8414
  18   2.0000      -6.041971      -164.4104
  19   2.0000      -6.038280      -164.3099
  20   2.0000      -6.037516      -164.2892
  21   2.0000      -6.033937      -164.1918
  22   2.0000      -6.033391      -164.1769
  23   2.0000      -6.029848      -164.0805
  24   2.0000      -1.007542       -27.4166
  25   2.0000      -0.986603       -26.8468
  26   2.0000      -0.909740       -24.7553
  27   2.0000      -0.902234       -24.5510
  28   2.0000      -0.864912       -23.5354
  29   2.0000      -0.851342       -23.1662
  30   2.0000      -0.841823       -22.9072
  31   2.0000      -0.814760       -22.1707
  32   2.0000      -0.784121       -21.3370
  33   2.0000      -0.773965       -21.0607
  34   2.0000      -0.706606       -19.2277
  35   2.0000      -0.696945       -18.9648
  36   2.0000      -0.689209       -18.7543
  37   2.0000      -0.663846       -18.0642
  38   2.0000      -0.638532       -17.3753
  39   2.0000      -0.614111       -16.7108
  40   2.0000      -0.597400       -16.2561
  41   2.0000      -0.575239       -15.6531
  42   2.0000      -0.558321       -15.1927
  43   2.0000      -0.552924       -15.0458
  44   2.0000      -0.543660       -14.7937
  45   2.0000      -0.523247       -14.2383
  46   2.0000      -0.513114       -13.9626
  47   2.0000      -0.511498       -13.9186
  48   2.0000      -0.506284       -13.7767
  49   2.0000      -0.492676       -13.4064
  50   2.0000      -0.487227       -13.2581
  51   2.0000      -0.473478       -12.8840
  52   2.0000      -0.466549       -12.6955
  53   2.0000      -0.464987       -12.6529
  54   2.0000      -0.460700       -12.5363
  55   2.0000      -0.450107       -12.2480
  56   2.0000      -0.444953       -12.1078
  57   2.0000      -0.443649       -12.0723
  58   2.0000      -0.426040       -11.5931
  59   2.0000      -0.421239       -11.4625
  60   2.0000      -0.416583       -11.3358
  61   2.0000      -0.416270       -11.3273
  62   2.0000      -0.408890       -11.1264
  63   2.0000      -0.353205        -9.6112
  64   2.0000      -0.338265        -9.2046
  65   2.0000      -0.327441        -8.9101
  66   2.0000      -0.287175        -7.8144
  67   0.0000       0.021603         0.5878
  68   0.0000       0.071468         1.9447
  69   0.0000       0.100588         2.7371
  70   0.0000       0.114872         3.1258
  71   0.0000       0.132602         3.6083

MULLIKEN ATOMIC CHARGES
-----------------------
   0 S :    0.110357
   1 C :   -0.134525
   2 C :   -0.063249
   3 C :    0.003432
   4 C :   -0.098567
   5 H :   -0.006598
   6 C :    0.119370
   7 H :    0.005040
   8 H :    0.051349
   9 C :   -0.070485
  10 H :    0.030736
  11 H :    0.039753
  12 C :   -0.127358
  13 H :    0.049041
  14 H :    0.044471
  15 H :    0.038654
  16 S :    0.089892
  17 C :   -0.108794
  18 C :   -0.010881
  19 C :   -0.061431
  20 C :   -0.135841
  21 H :    0.021841
  22 C :    0.035283
  23 H :    0.014481
  24 H :    0.032237
  25 C :   -0.105698
  26 H :    0.042770
  27 H :    0.017005
  28 C :   -0.007788
  29 H :    0.039501
  30 H :    0.004944
  31 H :    0.029522
  32 H :    0.033190
  33 H :    0.078345
Sum of atomic charges:   -0.0000000

LOEWDIN ATOMIC CHARGES
----------------------
   0 S :    0.391813
   1 C :   -0.172429
   2 C :   -0.062331
   3 C :   -0.065791
   4 C :   -0.171669
   5 H :    0.024528
   6 C :   -0.023494
   7 H :    0.024655
   8 H :    0.037579
   9 C :   -0.040675
  10 H :    0.020805
  11 H :    0.029050
  12 C :   -0.083239
  13 H :    0.026469
  14 H :    0.033242
  15 H :    0.028627
  16 S :    0.409649
  17 C :   -0.187916
  18 C :   -0.068756
  19 C :   -0.059777
  20 C :   -0.200096
  21 H :    0.030195
  22 C :   -0.049602
  23 H :    0.027516
  24 H :    0.023476
  25 C :   -0.043457
  26 H :    0.032132
  27 H :    0.016852
  28 C :   -0.058601
  29 H :    0.031480
  30 H :    0.017269
  31 H :    0.021346
  32 H :    0.022214
  33 H :    0.038938

  Mayer bond orders larger than 0.100000
B(  0-S ,  1-C ) :   1.1147 B(  0-S ,  4-C ) :   1.1379 B(  1-C ,  2-C ) :   1.6383
B(  1-C , 32-H ) :   0.9717 B(  2-C ,  3-C ) :   1.2206 B(  2-C ,  6-C ) :   1.0053
B(  3-C ,  4-C ) :   1.5932 B(  3-C ,  5-H ) :   1.0022 B(  4-C , 20-C ) :   1.0426
B(  6-C ,  7-H ) :   0.9399 B(  6-C ,  8-H ) :   0.9381 B(  6-C ,  9-C ) :   1.0646
B(  9-C , 10-H ) :   0.9575 B(  9-C , 11-H ) :   0.9609 B(  9-C , 12-C ) :   1.0656
B( 12-C , 13-H ) :   0.9734 B( 12-C , 14-H ) :   0.9750 B( 12-C , 15-H ) :   0.9748
B( 16-S , 17-C ) :   1.1633 B( 16-S , 20-C ) :   1.1449 B( 17-C , 18-C ) :   1.5738
B( 17-C , 33-H ) :   0.9671 B( 18-C , 19-C ) :   1.2714 B( 18-C , 21-H ) :   0.9900
B( 19-C , 20-C ) :   1.5492 B( 19-C , 22-C ) :   1.0377 B( 22-C , 23-H ) :   0.9332
B( 22-C , 24-H ) :   0.9396 B( 22-C , 25-C ) :   1.0640 B( 25-C , 26-H ) :   0.9541
B( 25-C , 27-H ) :   0.9597 B( 25-C , 28-C ) :   1.0746 B( 28-C , 29-H ) :   0.9776
B( 28-C , 30-H ) :   0.9702 B( 28-C , 31-H ) :   0.9764

Dispersion correction           -0.014176201
FINAL SINGLE POINT ENERGY     -1339.872347201928

DIPOLE MOMENT
-------------
                                X             Y             Z
Electronic contribution:      6.66534      -3.53750      -5.57550
Nuclear contribution   :     -6.76439       3.57732       5.57812
                        -----------------------------------------
Total Dipole Moment    :     -0.09905       0.03982       0.00263
                        -----------------------------------------
Magnitude (a.u.)       :      0.10679
Magnitude (Debye)      :      0.27143

Rotational constants in cm-1:     0.022316     0.007780     0.006314
Rotational constants in MHz :   669.030025   233.240197   189.297695

                             ****ORCA TERMINATED NORMALLY****
TOTAL RUN TIME: 0 days 0 hours 0 minutes 21 seconds 221 msec
