                         Program Version 4.2.1 -  RELEASE  -
|  1> ! wB97X-D3 SP def2-SVP
|  2> %pal
|  3> nprocs 24
|  4> end
|  5>
|  6> * xyz 0 1
|  7> S 	 -101.668 	 24.7994 	 -111.198
|  8> C 	 -101.731 	 23.3131 	 -110.283
|  9> C 	 -102.212 	 23.511 	 -109.021
| 10> C 	 -102.459 	 24.8754 	 -108.824
| 11> C 	 -102.254 	 25.7404 	 -109.894
| 12> H 	 -102.675 	 25.314 	 -107.91
| 13> C 	 -102.311 	 22.5199 	 -107.892
| 14> H 	 -101.641 	 22.8129 	 -107.106
| 15> H 	 -101.976 	 21.5436 	 -108.309
| 16> C 	 -103.753 	 22.3759 	 -107.243
| 17> H 	 -104.266 	 23.3165 	 -106.998
| 18> H 	 -104.551 	 21.9632 	 -107.888
| 19> C 	 -103.658 	 21.5113 	 -105.894
| 20> H 	 -104.648 	 21.4602 	 -105.504
| 21> H 	 -103.167 	 20.6631 	 -106.135
| 22> H 	 -102.949 	 22.0501 	 -105.228
| 23> S 	 -101.279 	 28.2128 	 -110.664
| 24> C 	 -102.207 	 29.5934 	 -110.238
| 25> C 	 -103.406 	 29.2203 	 -109.715
| 26> C 	 -103.727 	 27.8213 	 -109.696
| 27> C 	 -102.562 	 27.1427 	 -110.008
| 28> H 	 -104.013 	 30.0747 	 -109.337
| 29> C 	 -105.036 	 27.3556 	 -109.129
| 30> H 	 -105.248 	 26.3891 	 -109.597
| 31> H 	 -105.832 	 28.0716 	 -109.407
| 32> C 	 -105.1 	 27.2317 	 -107.578
| 33> H 	 -104.324 	 26.5421 	 -107.225
| 34> H 	 -106.001 	 26.6274 	 -107.401
| 35> C 	 -105.091 	 28.5501 	 -106.82
| 36> H 	 -105.746 	 29.2716 	 -107.179
| 37> H 	 -104.117 	 28.9609 	 -106.699
| 38> H 	 -105.546 	 28.2392 	 -105.846
| 39> H 	 -101.238 	 22.4277 	 -110.674
| 40> H 	 -101.876 	 30.6472 	 -110.283
| 41> *
| 42>
| 43>                          ****END OF INPUT****

CARTESIAN COORDINATES (ANGSTROEM)
---------------------------------
  S    -101.668000   24.799400  -111.198000
  C    -101.731000   23.313100  -110.283000
  C    -102.212000   23.511000  -109.021000
  C    -102.459000   24.875400  -108.824000
  C    -102.254000   25.740400  -109.894000
  H    -102.675000   25.314000  -107.910000
  C    -102.311000   22.519900  -107.892000
  H    -101.641000   22.812900  -107.106000
  H    -101.976000   21.543600  -108.309000
  C    -103.753000   22.375900  -107.243000
  H    -104.266000   23.316500  -106.998000
  H    -104.551000   21.963200  -107.888000
  C    -103.658000   21.511300  -105.894000
  H    -104.648000   21.460200  -105.504000
  H    -103.167000   20.663100  -106.135000
  H    -102.949000   22.050100  -105.228000
  S    -101.279000   28.212800  -110.664000
  C    -102.207000   29.593400  -110.238000
  C    -103.406000   29.220300  -109.715000
  C    -103.727000   27.821300  -109.696000
  C    -102.562000   27.142700  -110.008000
  H    -104.013000   30.074700  -109.337000
  C    -105.036000   27.355600  -109.129000
  H    -105.248000   26.389100  -109.597000
  H    -105.832000   28.071600  -109.407000
  C    -105.100000   27.231700  -107.578000
  H    -104.324000   26.542100  -107.225000
  H    -106.001000   26.627400  -107.401000
  C    -105.091000   28.550100  -106.820000
  H    -105.746000   29.271600  -107.179000
  H    -104.117000   28.960900  -106.699000
  H    -105.546000   28.239200  -105.846000
  H    -101.238000   22.427700  -110.674000
  H    -101.876000   30.647200  -110.283000

 Total Charge           Charge          ....    0
 Multiplicity           Mult            ....    1
 Number of Electrons    NEL             ....  134
 Basis Dimension        Dim             ....  322

ORBITAL ENERGIES
----------------

  NO   OCC          E(Eh)            E(eV)
   0   2.0000     -88.963146     -2420.8103
   1   2.0000     -88.960587     -2420.7406
   2   2.0000     -10.328294      -281.0472
   3   2.0000     -10.322064      -280.8776
   4   2.0000     -10.313014      -280.6314
   5   2.0000     -10.311365      -280.5865
   6   2.0000     -10.305048      -280.4146
   7   2.0000     -10.300962      -280.3034
   8   2.0000     -10.296748      -280.1888
   9   2.0000     -10.295715      -280.1606
  10   2.0000     -10.294543      -280.1287
  11   2.0000     -10.290704      -280.0243
  12   2.0000     -10.290162      -280.0095
  13   2.0000     -10.282887      -279.8116
  14   2.0000     -10.276136      -279.6279
  15   2.0000     -10.275394      -279.6077
  16   2.0000      -8.078095      -219.8162
  17   2.0000      -8.076425      -219.7707
  18   2.0000      -6.036638      -164.2653
  19   2.0000      -6.034830      -164.2161
  20   2.0000      -6.032681      -164.1576
  21   2.0000      -6.030675      -164.1030
  22   2.0000      -6.028695      -164.0491
  23   2.0000      -6.027330      -164.0120
  24   2.0000      -1.010716       -27.5030
  25   2.0000      -0.988320       -26.8936
  26   2.0000      -0.911102       -24.7923
  27   2.0000      -0.906779       -24.6747
  28   2.0000      -0.869922       -23.6718
  29   2.0000      -0.853909       -23.2361
  30   2.0000      -0.844685       -22.9850
  31   2.0000      -0.812477       -22.1086
  32   2.0000      -0.788851       -21.4657
  33   2.0000      -0.775658       -21.1067
  34   2.0000      -0.713649       -19.4194
  35   2.0000      -0.705767       -19.2049
  36   2.0000      -0.691855       -18.8263
  37   2.0000      -0.657858       -17.9012
  38   2.0000      -0.643905       -17.5215
  39   2.0000      -0.621799       -16.9200
  40   2.0000      -0.594396       -16.1743
  41   2.0000      -0.569045       -15.4845
  42   2.0000      -0.556547       -15.1444
  43   2.0000      -0.551020       -14.9940
  44   2.0000      -0.545922       -14.8553
  45   2.0000      -0.534714       -14.5503
  46   2.0000      -0.518641       -14.1129
  47   2.0000      -0.507181       -13.8011
  48   2.0000      -0.504430       -13.7262
  49   2.0000      -0.501490       -13.6462
  50   2.0000      -0.493492       -13.4286
  51   2.0000      -0.488595       -13.2954
  52   2.0000      -0.480225       -13.0676
  53   2.0000      -0.464796       -12.6477
  54   2.0000      -0.459889       -12.5142
  55   2.0000      -0.450072       -12.2471
  56   2.0000      -0.440080       -11.9752
  57   2.0000      -0.434884       -11.8338
  58   2.0000      -0.429759       -11.6943
  59   2.0000      -0.427364       -11.6292
  60   2.0000      -0.421406       -11.4671
  61   2.0000      -0.418123       -11.3777
  62   2.0000      -0.415070       -11.2946
  63   2.0000      -0.342870        -9.3300
  64   2.0000      -0.330947        -9.0055
  65   2.0000      -0.328568        -8.9408
  66   2.0000      -0.292408        -7.9568
  67   0.0000       0.030760         0.8370
  68   0.0000       0.074846         2.0367
  69   0.0000       0.113268         3.0822
  70   0.0000       0.123776         3.3681
  71   0.0000       0.131457         3.5771

MULLIKEN ATOMIC CHARGES
-----------------------
   0 S :    0.105743
   1 C :   -0.148844
   2 C :   -0.041114
   3 C :    0.019426
   4 C :   -0.136219
   5 H :   -0.025840
   6 C :    0.085912
   7 H :    0.034984
   8 H :    0.026295
   9 C :   -0.133945
  10 H :    0.026601
  11 H :    0.033224
  12 C :   -0.003357
  13 H :    0.041595
  14 H :    0.012106
  15 H :    0.027011
  16 S :    0.104101
  17 C :   -0.087169
  18 C :   -0.079948
  19 C :    0.005492
  20 C :   -0.183598
  21 H :    0.026151
  22 C :    0.066132
  23 H :    0.033246
  24 H :    0.029131
  25 C :   -0.080930
  26 H :    0.017439
  27 H :    0.027706
  28 C :   -0.010124
  29 H :    0.014127
  30 H :    0.045310
  31 H :    0.033845
  32 H :    0.050634
  33 H :    0.064878
Sum of atomic charges:   -0.0000000

LOEWDIN ATOMIC CHARGES
----------------------
   0 S :    0.420670
   1 C :   -0.195587
   2 C :   -0.069411
   3 C :   -0.060523
   4 C :   -0.208376
   5 H :    0.012698
   6 C :   -0.024002
   7 H :    0.032020
   8 H :    0.034318
   9 C :   -0.042452
  10 H :    0.019740
  11 H :    0.024951
  12 C :   -0.048747
  13 H :    0.025722
  14 H :    0.007695
  15 H :    0.028008
  16 S :    0.392365
  17 C :   -0.201319
  18 C :   -0.082513
  19 C :   -0.048833
  20 C :   -0.183754
  21 H :    0.034262
  22 C :   -0.032403
  23 H :    0.034807
  24 H :    0.034996
  25 C :   -0.037688
  26 H :    0.021634
  27 H :    0.026217
  28 C :   -0.059284
  29 H :    0.014481
  30 H :    0.025691
  31 H :    0.038508
  32 H :    0.027119
  33 H :    0.038992

  Mayer bond orders larger than 0.100000
B(  0-S ,  1-C ) :   1.1554 B(  0-S ,  4-C ) :   1.1663 B(  1-C ,  2-C ) :   1.5818
B(  1-C ,  4-C ) :   0.1001 B(  1-C , 32-H ) :   0.9682 B(  2-C ,  3-C ) :   1.2600
B(  2-C ,  6-C ) :   1.0277 B(  3-C ,  4-C ) :   1.5536 B(  3-C ,  5-H ) :   1.0111
B(  4-C , 20-C ) :   1.0435 B(  6-C ,  7-H ) :   0.9437 B(  6-C ,  8-H ) :   0.9396
B(  6-C ,  9-C ) :   1.0390 B(  9-C , 10-H ) :   0.9637 B(  9-C , 11-H ) :   0.9588
B(  9-C , 12-C ) :   1.0683 B( 12-C , 13-H ) :   0.9759 B( 12-C , 14-H ) :   0.9781
B( 12-C , 15-H ) :   0.9781 B( 16-S , 17-C ) :   1.1346 B( 16-S , 20-C ) :   1.1341
B( 17-C , 18-C ) :   1.6619 B( 17-C , 33-H ) :   0.9611 B( 18-C , 19-C ) :   1.1901
B( 18-C , 21-H ) :   0.9766 B( 19-C , 20-C ) :   1.5944 B( 19-C , 22-C ) :   1.0653
B( 22-C , 23-H ) :   0.9217 B( 22-C , 24-H ) :   0.9333 B( 22-C , 25-C ) :   1.0763
B( 25-C , 26-H ) :   0.9495 B( 25-C , 27-H ) :   0.9559 B( 25-C , 28-C ) :   1.0747
B( 28-C , 29-H ) :   0.9739 B( 28-C , 30-H ) :   0.9729 B( 28-C , 31-H ) :   0.9692

Dispersion correction           -0.014672569
FINAL SINGLE POINT ENERGY     -1339.870168403335

DIPOLE MOMENT
-------------
                                X             Y             Z
Electronic contribution:     17.18407       9.65454     -24.95729
Nuclear contribution   :    -17.60053      -9.71526      25.65219
                        -----------------------------------------
Total Dipole Moment    :     -0.41646      -0.06073       0.69491
                        -----------------------------------------
Magnitude (a.u.)       :      0.81242
Magnitude (Debye)      :      2.06500

Rotational constants in cm-1:     0.017981     0.009424     0.006626
Rotational constants in MHz :   539.050836   282.537035   198.641025

                             ****ORCA TERMINATED NORMALLY****
TOTAL RUN TIME: 0 days 0 hours 0 minutes 22 seconds 213 msec
