                         Program Version 4.2.1 -  RELEASE  -
|  1> ! wB97X-D3 SP def2-SVP
|  2> %pal
|  3> nprocs 24
|  4> end
|  5>
|  6> * xyz 0 1
|  7> S 	 -107.901 	 55.0216 	 -91.1126
|  8> C 	 -109.306 	 54.8121 	 -90.0186
|  9> C 	 -109.014 	 55.3791 	 -88.8324
| 10> C 	 -107.88 	 56.2935 	 -88.835
| 11> C 	 -107.194 	 56.2091 	 -90.0567
| 12> H 	 -107.477 	 57.0504 	 -88.0937
| 13> C 	 -110.047 	 55.4739 	 -87.81
| 14> H 	 -110.851 	 54.7569 	 -88.037
| 15> H 	 -110.601 	 56.4314 	 -87.9504
| 16> C 	 -109.546 	 55.2533 	 -86.328
| 17> H 	 -108.819 	 56.0889 	 -86.1272
| 18> H 	 -110.421 	 55.417 	 -85.7137
| 19> C 	 -109.148 	 53.8216 	 -86.0493
| 20> H 	 -109.978 	 53.0686 	 -86.0508
| 21> H 	 -108.573 	 53.4581 	 -86.9232
| 22> H 	 -108.586 	 53.7381 	 -85.1907
| 23> S 	 -104.691 	 55.4687 	 -90.8035
| 24> C 	 -103.452 	 56.7118 	 -91.023
| 25> C 	 -103.903 	 57.9541 	 -90.5452
| 26> C 	 -105.26 	 57.9057 	 -90.1321
| 27> C 	 -105.849 	 56.6972 	 -90.3551
| 28> H 	 -103.146 	 58.7221 	 -90.4005
| 29> C 	 -106.094 	 59.1924 	 -89.8245
| 30> H 	 -106.492 	 58.8771 	 -88.8414
| 31> H 	 -106.947 	 59.1324 	 -90.4468
| 32> C 	 -105.453 	 60.632 	 -89.6905
| 33> H 	 -105.229 	 60.9507 	 -90.722
| 34> H 	 -104.442 	 60.584 	 -89.2562
| 35> C 	 -106.247 	 61.6981 	 -88.9324
| 36> H 	 -107.076 	 61.786 	 -89.5115
| 37> H 	 -105.703 	 62.6305 	 -88.6437
| 38> H 	 -106.682 	 61.2554 	 -88.0151
| 39> H 	 -110.192 	 54.1428 	 -90.2938
| 40> H 	 -102.46 	 56.4203 	 -91.2744
| 41> *
| 42>
| 43>                          ****END OF INPUT****

CARTESIAN COORDINATES (ANGSTROEM)
---------------------------------
  S    -107.901000   55.021600  -91.112600
  C    -109.306000   54.812100  -90.018600
  C    -109.014000   55.379100  -88.832400
  C    -107.880000   56.293500  -88.835000
  C    -107.194000   56.209100  -90.056700
  H    -107.477000   57.050400  -88.093700
  C    -110.047000   55.473900  -87.810000
  H    -110.851000   54.756900  -88.037000
  H    -110.601000   56.431400  -87.950400
  C    -109.546000   55.253300  -86.328000
  H    -108.819000   56.088900  -86.127200
  H    -110.421000   55.417000  -85.713700
  C    -109.148000   53.821600  -86.049300
  H    -109.978000   53.068600  -86.050800
  H    -108.573000   53.458100  -86.923200
  H    -108.586000   53.738100  -85.190700
  S    -104.691000   55.468700  -90.803500
  C    -103.452000   56.711800  -91.023000
  C    -103.903000   57.954100  -90.545200
  C    -105.260000   57.905700  -90.132100
  C    -105.849000   56.697200  -90.355100
  H    -103.146000   58.722100  -90.400500
  C    -106.094000   59.192400  -89.824500
  H    -106.492000   58.877100  -88.841400
  H    -106.947000   59.132400  -90.446800
  C    -105.453000   60.632000  -89.690500
  H    -105.229000   60.950700  -90.722000
  H    -104.442000   60.584000  -89.256200
  C    -106.247000   61.698100  -88.932400
  H    -107.076000   61.786000  -89.511500
  H    -105.703000   62.630500  -88.643700
  H    -106.682000   61.255400  -88.015100
  H    -110.192000   54.142800  -90.293800
  H    -102.460000   56.420300  -91.274400

 Total Charge           Charge          ....    0
 Multiplicity           Mult            ....    1
 Number of Electrons    NEL             ....  134
 Basis Dimension        Dim             ....  322

ORBITAL ENERGIES
----------------

  NO   OCC          E(Eh)            E(eV)
   0   2.0000     -88.964198     -2420.8389
   1   2.0000     -88.962482     -2420.7922
   2   2.0000     -10.331869      -281.1444
   3   2.0000     -10.322416      -280.8872
   4   2.0000     -10.320866      -280.8450
   5   2.0000     -10.317437      -280.7517
   6   2.0000     -10.305230      -280.4196
   7   2.0000     -10.304615      -280.4028
   8   2.0000     -10.300350      -280.2868
   9   2.0000     -10.297475      -280.2085
  10   2.0000     -10.297329      -280.2046
  11   2.0000     -10.295138      -280.1449
  12   2.0000     -10.290153      -280.0093
  13   2.0000     -10.289440      -279.9899
  14   2.0000     -10.278737      -279.6987
  15   2.0000     -10.273834      -279.5652
  16   2.0000      -8.078904      -219.8381
  17   2.0000      -8.077182      -219.7913
  18   2.0000      -6.037358      -164.2849
  19   2.0000      -6.035696      -164.2396
  20   2.0000      -6.033480      -164.1793
  21   2.0000      -6.031726      -164.1316
  22   2.0000      -6.029635      -164.0747
  23   2.0000      -6.027879      -164.0269
  24   2.0000      -1.008175       -27.4338
  25   2.0000      -0.983528       -26.7632
  26   2.0000      -0.913160       -24.8484
  27   2.0000      -0.901833       -24.5401
  28   2.0000      -0.870226       -23.6801
  29   2.0000      -0.855874       -23.2895
  30   2.0000      -0.841492       -22.8982
  31   2.0000      -0.815013       -22.1776
  32   2.0000      -0.782263       -21.2865
  33   2.0000      -0.771832       -21.0026
  34   2.0000      -0.710986       -19.3469
  35   2.0000      -0.705234       -19.1904
  36   2.0000      -0.689458       -18.7611
  37   2.0000      -0.655784       -17.8448
  38   2.0000      -0.638292       -17.3688
  39   2.0000      -0.615173       -16.7397
  40   2.0000      -0.593662       -16.1544
  41   2.0000      -0.563738       -15.3401
  42   2.0000      -0.559870       -15.2348
  43   2.0000      -0.555653       -15.1201
  44   2.0000      -0.538175       -14.6445
  45   2.0000      -0.533961       -14.5298
  46   2.0000      -0.523931       -14.2569
  47   2.0000      -0.508992       -13.8504
  48   2.0000      -0.501482       -13.6460
  49   2.0000      -0.499100       -13.5812
  50   2.0000      -0.487205       -13.2575
  51   2.0000      -0.478958       -13.0331
  52   2.0000      -0.476298       -12.9607
  53   2.0000      -0.472454       -12.8561
  54   2.0000      -0.454112       -12.3570
  55   2.0000      -0.452711       -12.3189
  56   2.0000      -0.440581       -11.9888
  57   2.0000      -0.435927       -11.8622
  58   2.0000      -0.429906       -11.6983
  59   2.0000      -0.422861       -11.5066
  60   2.0000      -0.416821       -11.3423
  61   2.0000      -0.414742       -11.2857
  62   2.0000      -0.403923       -10.9913
  63   2.0000      -0.347982        -9.4691
  64   2.0000      -0.331795        -9.0286
  65   2.0000      -0.325965        -8.8700
  66   2.0000      -0.291075        -7.9206
  67   0.0000       0.026622         0.7244
  68   0.0000       0.065483         1.7819
  69   0.0000       0.104660         2.8479
  70   0.0000       0.117449         3.1959
  71   0.0000       0.130119         3.5407

MULLIKEN ATOMIC CHARGES
-----------------------
   0 S :    0.088119
   1 C :   -0.152410
   2 C :   -0.034454
   3 C :    0.004820
   4 C :   -0.161591
   5 H :    0.051935
   6 C :   -0.016745
   7 H :    0.006755
   8 H :    0.049110
   9 C :   -0.068742
  10 H :    0.042528
  11 H :    0.025371
  12 C :   -0.028513
  13 H :    0.031498
  14 H :    0.030585
  15 H :    0.027927
  16 S :    0.102220
  17 C :   -0.091902
  18 C :   -0.047635
  19 C :   -0.036196
  20 C :   -0.143981
  21 H :    0.029880
  22 C :    0.049835
  23 H :    0.010233
  24 H :    0.039029
  25 C :   -0.080260
  26 H :    0.034156
  27 H :    0.026547
  28 C :   -0.012193
  29 H :    0.011650
  30 H :    0.057557
  31 H :    0.021210
  32 H :    0.085509
  33 H :    0.048143
Sum of atomic charges:    0.0000000

LOEWDIN ATOMIC CHARGES
----------------------
   0 S :    0.383912
   1 C :   -0.188214
   2 C :   -0.075370
   3 C :   -0.069216
   4 C :   -0.190705
   5 H :    0.043897
   6 C :   -0.040905
   7 H :    0.024789
   8 H :    0.039212
   9 C :   -0.042797
  10 H :    0.028923
  11 H :    0.023419
  12 C :   -0.064443
  13 H :    0.032778
  14 H :    0.029350
  15 H :    0.016269
  16 S :    0.401646
  17 C :   -0.172899
  18 C :   -0.071782
  19 C :   -0.059618
  20 C :   -0.202884
  21 H :    0.034833
  22 C :   -0.028834
  23 H :    0.028775
  24 H :    0.028593
  25 C :   -0.044035
  26 H :    0.025642
  27 H :    0.022026
  28 C :   -0.060752
  29 H :    0.013514
  30 H :    0.038681
  31 H :    0.028358
  32 H :    0.048754
  33 H :    0.019082

  Mayer bond orders larger than 0.100000
B(  0-S ,  1-C ) :   1.1071 B(  0-S ,  4-C ) :   1.1537 B(  1-C ,  2-C ) :   1.6277
B(  1-C , 32-H ) :   0.9622 B(  2-C ,  3-C ) :   1.1808 B(  2-C ,  6-C ) :   1.0504
B(  3-C ,  4-C ) :   1.5942 B(  3-C ,  5-H ) :   0.9734 B(  4-C , 20-C ) :   1.0285
B(  6-C ,  7-H ) :   0.9426 B(  6-C ,  8-H ) :   0.9428 B(  6-C ,  9-C ) :   1.0619
B(  9-C , 10-H ) :   0.9587 B(  9-C , 11-H ) :   0.9544 B(  9-C , 12-C ) :   1.0680
B( 12-C , 13-H ) :   0.9700 B( 12-C , 14-H ) :   0.9770 B( 12-C , 15-H ) :   0.9740
B( 16-S , 17-C ) :   1.1572 B( 16-S , 20-C ) :   1.1446 B( 17-C , 18-C ) :   1.5944
B( 17-C , 20-C ) :   0.1022 B( 17-C , 33-H ) :   0.9725 B( 18-C , 19-C ) :   1.2448
B( 18-C , 21-H ) :   0.9881 B( 19-C , 20-C ) :   1.6228 B( 19-C , 22-C ) :   1.0083
B( 22-C , 23-H ) :   0.9255 B( 22-C , 24-H ) :   0.9471 B( 22-C , 25-C ) :   1.0558
B( 25-C , 26-H ) :   0.9538 B( 25-C , 27-H ) :   0.9568 B( 25-C , 28-C ) :   1.0743
B( 28-C , 29-H ) :   0.9752 B( 28-C , 30-H ) :   0.9735 B( 28-C , 31-H ) :   0.9727

Dispersion correction           -0.013759150
FINAL SINGLE POINT ENERGY     -1339.844440699798

DIPOLE MOMENT
-------------
                                X             Y             Z
Electronic contribution:      9.24862     -14.65493     -19.16551
Nuclear contribution   :     -9.43777      15.04419      19.66112
                        -----------------------------------------
Total Dipole Moment    :     -0.18914       0.38925       0.49561
                        -----------------------------------------
Magnitude (a.u.)       :      0.65797
Magnitude (Debye)      :      1.67242

Rotational constants in cm-1:     0.016810     0.008548     0.006667
Rotational constants in MHz :   503.948964   256.275898   199.862379

                             ****ORCA TERMINATED NORMALLY****
TOTAL RUN TIME: 0 days 0 hours 0 minutes 21 seconds 220 msec
