                         Program Version 4.2.1 -  RELEASE  -
|  1> ! wB97X-D3 SP def2-SVP
|  2> %pal
|  3> nprocs 24
|  4> end
|  5>
|  6> * xyz 0 1
|  7> S 	 40.6958 	 -21.0516 	 -110.923
|  8> C 	 42.1186 	 -22.0592 	 -110.922
|  9> C 	 42.0995 	 -22.956 	 -109.846
| 10> C 	 40.8924 	 -22.8596 	 -109.072
| 11> C 	 40.0079 	 -21.8879 	 -109.515
| 12> H 	 40.7298 	 -23.3973 	 -108.129
| 13> C 	 43.1963 	 -23.9539 	 -109.439
| 14> H 	 43.2579 	 -24.0932 	 -108.364
| 15> H 	 44.0899 	 -23.3693 	 -109.487
| 16> C 	 43.3899 	 -25.241 	 -110.243
| 17> H 	 43.9873 	 -25.9869 	 -109.723
| 18> H 	 42.3766 	 -25.6248 	 -110.53
| 19> C 	 44.1599 	 -24.9183 	 -111.582
| 20> H 	 43.601 	 -24.252 	 -112.217
| 21> H 	 45.1027 	 -24.4372 	 -111.22
| 22> H 	 44.2832 	 -25.857 	 -112.197
| 23> S 	 37.7044 	 -22.9012 	 -108.179
| 24> C 	 36.4041 	 -21.8132 	 -107.782
| 25> C 	 36.7701 	 -20.5076 	 -108.006
| 26> C 	 38.023 	 -20.3689 	 -108.628
| 27> C 	 38.6817 	 -21.5554 	 -108.846
| 28> H 	 36.1012 	 -19.7384 	 -107.702
| 29> C 	 38.6397 	 -19.0163 	 -108.975
| 30> H 	 37.804 	 -18.3985 	 -108.826
| 31> H 	 38.8236 	 -19.0086 	 -110.045
| 32> C 	 39.7847 	 -18.497 	 -108.146
| 33> H 	 40.6171 	 -19.194 	 -108.467
| 34> H 	 39.5184 	 -18.7002 	 -107.121
| 35> C 	 40.2258 	 -17.0686 	 -108.429
| 36> H 	 40.9515 	 -16.8641 	 -107.651
| 37> H 	 39.416 	 -16.3814 	 -108.228
| 38> H 	 40.7387 	 -16.9697 	 -109.382
| 39> H 	 43.0572 	 -21.829 	 -111.47
| 40> H 	 35.5411 	 -22.0366 	 -107.098
| 41> *
| 42>
| 43>                          ****END OF INPUT****

CARTESIAN COORDINATES (ANGSTROEM)
---------------------------------
  S     40.695800  -21.051600  -110.923000
  C     42.118600  -22.059200  -110.922000
  C     42.099500  -22.956000  -109.846000
  C     40.892400  -22.859600  -109.072000
  C     40.007900  -21.887900  -109.515000
  H     40.729800  -23.397300  -108.129000
  C     43.196300  -23.953900  -109.439000
  H     43.257900  -24.093200  -108.364000
  H     44.089900  -23.369300  -109.487000
  C     43.389900  -25.241000  -110.243000
  H     43.987300  -25.986900  -109.723000
  H     42.376600  -25.624800  -110.530000
  C     44.159900  -24.918300  -111.582000
  H     43.601000  -24.252000  -112.217000
  H     45.102700  -24.437200  -111.220000
  H     44.283200  -25.857000  -112.197000
  S     37.704400  -22.901200  -108.179000
  C     36.404100  -21.813200  -107.782000
  C     36.770100  -20.507600  -108.006000
  C     38.023000  -20.368900  -108.628000
  C     38.681700  -21.555400  -108.846000
  H     36.101200  -19.738400  -107.702000
  C     38.639700  -19.016300  -108.975000
  H     37.804000  -18.398500  -108.826000
  H     38.823600  -19.008600  -110.045000
  C     39.784700  -18.497000  -108.146000
  H     40.617100  -19.194000  -108.467000
  H     39.518400  -18.700200  -107.121000
  C     40.225800  -17.068600  -108.429000
  H     40.951500  -16.864100  -107.651000
  H     39.416000  -16.381400  -108.228000
  H     40.738700  -16.969700  -109.382000
  H     43.057200  -21.829000  -111.470000
  H     35.541100  -22.036600  -107.098000

 Total Charge           Charge          ....    0
 Multiplicity           Mult            ....    1
 Number of Electrons    NEL             ....  134
 Basis Dimension        Dim             ....  322

ORBITAL ENERGIES
----------------

  NO   OCC          E(Eh)            E(eV)
   0   2.0000     -88.973503     -2421.0921
   1   2.0000     -88.966569     -2420.9034
   2   2.0000     -10.340465      -281.3783
   3   2.0000     -10.333179      -281.1801
   4   2.0000     -10.321692      -280.8675
   5   2.0000     -10.319954      -280.8202
   6   2.0000     -10.308459      -280.5074
   7   2.0000     -10.299638      -280.2674
   8   2.0000     -10.296996      -280.1955
   9   2.0000     -10.292746      -280.0799
  10   2.0000     -10.290794      -280.0267
  11   2.0000     -10.290411      -280.0163
  12   2.0000     -10.284116      -279.8450
  13   2.0000     -10.281429      -279.7719
  14   2.0000     -10.279412      -279.7170
  15   2.0000     -10.275145      -279.6009
  16   2.0000      -8.087013      -220.0588
  17   2.0000      -8.080661      -219.8860
  18   2.0000      -6.045674      -164.5112
  19   2.0000      -6.041588      -164.4000
  20   2.0000      -6.039282      -164.3372
  21   2.0000      -6.037790      -164.2966
  22   2.0000      -6.035228      -164.2269
  23   2.0000      -6.031369      -164.1219
  24   2.0000      -1.002775       -27.2869
  25   2.0000      -0.984757       -26.7966
  26   2.0000      -0.911403       -24.8005
  27   2.0000      -0.907190       -24.6859
  28   2.0000      -0.863572       -23.4990
  29   2.0000      -0.853286       -23.2191
  30   2.0000      -0.845104       -22.9965
  31   2.0000      -0.812459       -22.1081
  32   2.0000      -0.783249       -21.3133
  33   2.0000      -0.774035       -21.0626
  34   2.0000      -0.704265       -19.1640
  35   2.0000      -0.696489       -18.9524
  36   2.0000      -0.685916       -18.6647
  37   2.0000      -0.665699       -18.1146
  38   2.0000      -0.635623       -17.2962
  39   2.0000      -0.617465       -16.8021
  40   2.0000      -0.591657       -16.0998
  41   2.0000      -0.575338       -15.6557
  42   2.0000      -0.570399       -15.5213
  43   2.0000      -0.546149       -14.8615
  44   2.0000      -0.540311       -14.7026
  45   2.0000      -0.520346       -14.1593
  46   2.0000      -0.517149       -14.0723
  47   2.0000      -0.509855       -13.8739
  48   2.0000      -0.503891       -13.7116
  49   2.0000      -0.492021       -13.3886
  50   2.0000      -0.485170       -13.2021
  51   2.0000      -0.480059       -13.0631
  52   2.0000      -0.478827       -13.0296
  53   2.0000      -0.468298       -12.7430
  54   2.0000      -0.456067       -12.4102
  55   2.0000      -0.448919       -12.2157
  56   2.0000      -0.443233       -12.0610
  57   2.0000      -0.439385       -11.9563
  58   2.0000      -0.431947       -11.7539
  59   2.0000      -0.423898       -11.5348
  60   2.0000      -0.420138       -11.4325
  61   2.0000      -0.407856       -11.0983
  62   2.0000      -0.403843       -10.9891
  63   2.0000      -0.352778        -9.5996
  64   2.0000      -0.334611        -9.1052
  65   2.0000      -0.333269        -9.0687
  66   2.0000      -0.292004        -7.9458
  67   0.0000       0.020887         0.5684
  68   0.0000       0.074718         2.0332
  69   0.0000       0.104079         2.8321
  70   0.0000       0.115228         3.1355
  71   0.0000       0.129829         3.5328

MULLIKEN ATOMIC CHARGES
-----------------------
   0 S :    0.106271
   1 C :   -0.127091
   2 C :   -0.107120
   3 C :   -0.000611
   4 C :   -0.118354
   5 H :    0.028040
   6 C :    0.063790
   7 H :    0.017725
   8 H :    0.001630
   9 C :   -0.046733
  10 H :    0.037761
  11 H :    0.042895
  12 C :   -0.093977
  13 H :    0.034251
  14 H :    0.035931
  15 H :    0.046989
  16 S :    0.096343
  17 C :   -0.098838
  18 C :   -0.044661
  19 C :   -0.072681
  20 C :   -0.138624
  21 H :    0.010218
  22 C :    0.100475
  23 H :   -0.018164
  24 H :    0.026220
  25 C :   -0.081095
  26 H :    0.035595
  27 H :    0.024908
  28 C :   -0.009800
  29 H :    0.028592
  30 H :    0.028229
  31 H :    0.041768
  32 H :    0.072635
  33 H :    0.077483
Sum of atomic charges:   -0.0000000

LOEWDIN ATOMIC CHARGES
----------------------
   0 S :    0.408903
   1 C :   -0.212889
   2 C :   -0.056883
   3 C :   -0.070088
   4 C :   -0.180738
   5 H :    0.034913
   6 C :   -0.042557
   7 H :    0.032082
   8 H :    0.026036
   9 C :   -0.036292
  10 H :    0.025675
  11 H :    0.030119
  12 C :   -0.070761
  13 H :    0.018085
  14 H :    0.026225
  15 H :    0.032092
  16 S :    0.395103
  17 C :   -0.195742
  18 C :   -0.073077
  19 C :   -0.061367
  20 C :   -0.177949
  21 H :    0.029031
  22 C :   -0.035767
  23 H :    0.016912
  24 H :    0.023731
  25 C :   -0.042981
  26 H :    0.028277
  27 H :    0.022567
  28 C :   -0.060204
  29 H :    0.030298
  30 H :    0.023397
  31 H :    0.030069
  32 H :    0.039356
  33 H :    0.044423

  Mayer bond orders larger than 0.100000
B(  0-S ,  1-C ) :   1.1372 B(  0-S ,  4-C ) :   1.1441 B(  1-C ,  2-C ) :   1.6105
B(  1-C , 32-H ) :   0.9538 B(  2-C ,  3-C ) :   1.2662 B(  2-C ,  6-C ) :   1.0149
B(  3-C ,  4-C ) :   1.5603 B(  3-C ,  5-H ) :   0.9873 B(  4-C , 20-C ) :   1.0276
B(  6-C ,  7-H ) :   0.9414 B(  6-C ,  8-H ) :   0.9334 B(  6-C ,  9-C ) :   1.0548
B(  9-C , 10-H ) :   0.9573 B(  9-C , 11-H ) :   0.9579 B(  9-C , 12-C ) :   1.0685
B( 12-C , 13-H ) :   0.9763 B( 12-C , 14-H ) :   0.9774 B( 12-C , 15-H ) :   0.9741
B( 16-S , 17-C ) :   1.1597 B( 16-S , 20-C ) :   1.1333 B( 17-C , 18-C ) :   1.6086
B( 17-C , 33-H ) :   0.9525 B( 18-C , 19-C ) :   1.2651 B( 18-C , 21-H ) :   0.9918
B( 19-C , 20-C ) :   1.5847 B( 19-C , 22-C ) :   1.0273 B( 22-C , 23-H ) :   0.9174
B( 22-C , 24-H ) :   0.9279 B( 22-C , 25-C ) :   1.0638 B( 25-C , 26-H ) :   0.9482
B( 25-C , 27-H ) :   0.9532 B( 25-C , 28-C ) :   1.0936 B( 28-C , 29-H ) :   0.9714
B( 28-C , 30-H ) :   0.9729 B( 28-C , 31-H ) :   0.9719

Dispersion correction           -0.014410413
FINAL SINGLE POINT ENERGY     -1339.875365130403

DIPOLE MOMENT
-------------
                                X             Y             Z
Electronic contribution:    -17.03161      -3.99453       0.31329
Nuclear contribution   :     17.35296       4.20518       0.07761
                        -----------------------------------------
Total Dipole Moment    :      0.32135       0.21066       0.39090
                        -----------------------------------------
Magnitude (a.u.)       :      0.54813
Magnitude (Debye)      :      1.39323

Rotational constants in cm-1:     0.020620     0.008030     0.006318
Rotational constants in MHz :   618.175222   240.742693   189.415674

                             ****ORCA TERMINATED NORMALLY****
TOTAL RUN TIME: 0 days 0 hours 0 minutes 21 seconds 223 msec
