                         Program Version 4.2.1 -  RELEASE  -
|  1> ! wB97X-D3 SP def2-SVP
|  2> %pal
|  3> nprocs 24
|  4> end
|  5>
|  6> * xyz 0 1
|  7> S 	 -92.9358 	 -27.3575 	 -72.2109
|  8> C 	 -93.4835 	 -29.0584 	 -72.3076
|  9> C 	 -92.4361 	 -29.9235 	 -72.4583
| 10> C 	 -91.1774 	 -29.2841 	 -72.5624
| 11> C 	 -91.2891 	 -27.9288 	 -72.4064
| 12> H 	 -90.2544 	 -29.8229 	 -72.5422
| 13> C 	 -92.5412 	 -31.3958 	 -72.6337
| 14> H 	 -93.1921 	 -31.8404 	 -71.8586
| 15> H 	 -91.651 	 -31.9928 	 -72.5424
| 16> C 	 -93.2032 	 -31.7594 	 -73.9801
| 17> H 	 -93.5706 	 -32.7749 	 -73.8724
| 18> H 	 -94.0926 	 -31.2734 	 -74.2346
| 19> C 	 -92.3786 	 -31.6774 	 -75.2356
| 20> H 	 -91.3798 	 -31.9901 	 -74.9991
| 21> H 	 -92.7182 	 -32.161 	 -76.1462
| 22> H 	 -92.3161 	 -30.6454 	 -75.5356
| 23> S 	 -89.6335 	 -26.1406 	 -71.1279
| 24> C 	 -88.4185 	 -25.2623 	 -72.0506
| 25> C 	 -88.3855 	 -25.7498 	 -73.3504
| 26> C 	 -89.441 	 -26.6331 	 -73.7039
| 27> C 	 -90.1782 	 -27.0074 	 -72.5911
| 28> H 	 -87.6094 	 -25.2925 	 -73.9867
| 29> C 	 -89.587 	 -27.0415 	 -75.1564
| 30> H 	 -89.3149 	 -28.0573 	 -75.3907
| 31> H 	 -88.8936 	 -26.4627 	 -75.8435
| 32> C 	 -91.0019 	 -26.891 	 -75.6295
| 33> H 	 -91.4895 	 -25.9525 	 -75.4307
| 34> H 	 -91.7324 	 -27.5568 	 -75.0984
| 35> C 	 -91.1923 	 -27.1135 	 -77.1368
| 36> H 	 -92.23 	 -26.9796 	 -77.4556
| 37> H 	 -90.8105 	 -28.1053 	 -77.277
| 38> H 	 -90.6577 	 -26.4956 	 -77.8064
| 39> H 	 -94.5196 	 -29.5415 	 -72.3137
| 40> H 	 -87.6932 	 -24.5951 	 -71.5028
| 41> *
| 42>
| 43>                          ****END OF INPUT****

CARTESIAN COORDINATES (ANGSTROEM)
---------------------------------
  S    -92.935800  -27.357500  -72.210900
  C    -93.483500  -29.058400  -72.307600
  C    -92.436100  -29.923500  -72.458300
  C    -91.177400  -29.284100  -72.562400
  C    -91.289100  -27.928800  -72.406400
  H    -90.254400  -29.822900  -72.542200
  C    -92.541200  -31.395800  -72.633700
  H    -93.192100  -31.840400  -71.858600
  H    -91.651000  -31.992800  -72.542400
  C    -93.203200  -31.759400  -73.980100
  H    -93.570600  -32.774900  -73.872400
  H    -94.092600  -31.273400  -74.234600
  C    -92.378600  -31.677400  -75.235600
  H    -91.379800  -31.990100  -74.999100
  H    -92.718200  -32.161000  -76.146200
  H    -92.316100  -30.645400  -75.535600
  S    -89.633500  -26.140600  -71.127900
  C    -88.418500  -25.262300  -72.050600
  C    -88.385500  -25.749800  -73.350400
  C    -89.441000  -26.633100  -73.703900
  C    -90.178200  -27.007400  -72.591100
  H    -87.609400  -25.292500  -73.986700
  C    -89.587000  -27.041500  -75.156400
  H    -89.314900  -28.057300  -75.390700
  H    -88.893600  -26.462700  -75.843500
  C    -91.001900  -26.891000  -75.629500
  H    -91.489500  -25.952500  -75.430700
  H    -91.732400  -27.556800  -75.098400
  C    -91.192300  -27.113500  -77.136800
  H    -92.230000  -26.979600  -77.455600
  H    -90.810500  -28.105300  -77.277000
  H    -90.657700  -26.495600  -77.806400
  H    -94.519600  -29.541500  -72.313700
  H    -87.693200  -24.595100  -71.502800

 Total Charge           Charge          ....    0
 Multiplicity           Mult            ....    1
 Number of Electrons    NEL             ....  134
 Basis Dimension        Dim             ....  322

ORBITAL ENERGIES
----------------

  NO   OCC          E(Eh)            E(eV)
   0   2.0000     -88.973864     -2421.1019
   1   2.0000     -88.961426     -2420.7635
   2   2.0000     -10.327864      -281.0355
   3   2.0000     -10.327365      -281.0219
   4   2.0000     -10.321796      -280.8704
   5   2.0000     -10.318689      -280.7858
   6   2.0000     -10.307002      -280.4678
   7   2.0000     -10.295182      -280.1462
   8   2.0000     -10.295006      -280.1413
   9   2.0000     -10.294851      -280.1371
  10   2.0000     -10.293832      -280.1094
  11   2.0000     -10.289642      -279.9954
  12   2.0000     -10.277993      -279.6784
  13   2.0000     -10.277002      -279.6514
  14   2.0000     -10.269226      -279.4399
  15   2.0000     -10.267526      -279.3936
  16   2.0000      -8.087173      -220.0632
  17   2.0000      -8.075791      -219.7535
  18   2.0000      -6.045856      -164.5161
  19   2.0000      -6.041965      -164.4102
  20   2.0000      -6.037727      -164.2949
  21   2.0000      -6.034234      -164.1998
  22   2.0000      -6.030282      -164.0923
  23   2.0000      -6.026724      -163.9955
  24   2.0000      -1.005352       -27.3570
  25   2.0000      -0.981923       -26.7195
  26   2.0000      -0.917108       -24.9558
  27   2.0000      -0.909997       -24.7623
  28   2.0000      -0.867189       -23.5974
  29   2.0000      -0.852089       -23.1865
  30   2.0000      -0.847849       -23.0711
  31   2.0000      -0.812479       -22.1087
  32   2.0000      -0.785747       -21.3813
  33   2.0000      -0.773504       -21.0481
  34   2.0000      -0.709270       -19.3002
  35   2.0000      -0.704279       -19.1644
  36   2.0000      -0.690008       -18.7761
  37   2.0000      -0.655814       -17.8456
  38   2.0000      -0.634704       -17.2712
  39   2.0000      -0.621399       -16.9091
  40   2.0000      -0.603163       -16.4129
  41   2.0000      -0.573851       -15.6153
  42   2.0000      -0.557458       -15.1692
  43   2.0000      -0.554169       -15.0797
  44   2.0000      -0.535069       -14.5600
  45   2.0000      -0.523730       -14.2514
  46   2.0000      -0.522726       -14.2241
  47   2.0000      -0.512657       -13.9501
  48   2.0000      -0.499540       -13.5932
  49   2.0000      -0.494123       -13.4458
  50   2.0000      -0.491353       -13.3704
  51   2.0000      -0.482723       -13.1356
  52   2.0000      -0.472367       -12.8538
  53   2.0000      -0.461010       -12.5447
  54   2.0000      -0.456343       -12.4177
  55   2.0000      -0.450241       -12.2517
  56   2.0000      -0.444039       -12.0829
  57   2.0000      -0.439508       -11.9596
  58   2.0000      -0.435805       -11.8588
  59   2.0000      -0.425493       -11.5783
  60   2.0000      -0.420660       -11.4468
  61   2.0000      -0.407672       -11.0933
  62   2.0000      -0.399522       -10.8715
  63   2.0000      -0.339288        -9.2325
  64   2.0000      -0.329459        -8.9650
  65   2.0000      -0.327382        -8.9085
  66   2.0000      -0.302919        -8.2428
  67   0.0000       0.035215         0.9583
  68   0.0000       0.056371         1.5339
  69   0.0000       0.107646         2.9292
  70   0.0000       0.115836         3.1521
  71   0.0000       0.129801         3.5321

MULLIKEN ATOMIC CHARGES
-----------------------
   0 S :    0.133042
   1 C :   -0.143002
   2 C :   -0.067676
   3 C :    0.051058
   4 C :   -0.162577
   5 H :    0.011718
   6 C :    0.073361
   7 H :    0.030857
   8 H :    0.019585
   9 C :   -0.067198
  10 H :    0.013226
  11 H :    0.005628
  12 C :   -0.027845
  13 H :    0.010668
  14 H :    0.034796
  15 H :    0.022869
  16 S :    0.090677
  17 C :   -0.128405
  18 C :   -0.053875
  19 C :    0.030706
  20 C :   -0.195500
  21 H :    0.032616
  22 C :    0.109818
  23 H :    0.022715
  24 H :    0.023768
  25 C :   -0.125526
  26 H :    0.017552
  27 H :    0.047067
  28 C :   -0.017544
  29 H :    0.032659
  30 H :    0.013897
  31 H :    0.013615
  32 H :    0.063551
  33 H :    0.083697
Sum of atomic charges:   -0.0000000

LOEWDIN ATOMIC CHARGES
----------------------
   0 S :    0.402480
   1 C :   -0.203681
   2 C :   -0.067111
   3 C :   -0.053642
   4 C :   -0.195341
   5 H :    0.033278
   6 C :   -0.028222
   7 H :    0.038620
   8 H :    0.029422
   9 C :   -0.039285
  10 H :    0.021158
  11 H :    0.014920
  12 C :   -0.064347
  13 H :    0.017357
  14 H :    0.029002
  15 H :    0.023768
  16 S :    0.384081
  17 C :   -0.190157
  18 C :   -0.077798
  19 C :   -0.049671
  20 C :   -0.189912
  21 H :    0.036523
  22 C :   -0.028611
  23 H :    0.030234
  24 H :    0.037274
  25 C :   -0.049129
  26 H :    0.018335
  27 H :    0.030603
  28 C :   -0.061092
  29 H :    0.029487
  30 H :    0.018948
  31 H :    0.014940
  32 H :    0.046864
  33 H :    0.040708

  Mayer bond orders larger than 0.100000
B(  0-S ,  1-C ) :   1.1133 B(  0-S ,  4-C ) :   1.1465 B(  1-C ,  2-C ) :   1.6466
B(  1-C , 32-H ) :   0.9507 B(  2-C ,  3-C ) :   1.2271 B(  2-C ,  6-C ) :   1.0325
B(  3-C ,  4-C ) :   1.5915 B(  3-C ,  5-H ) :   1.0018 B(  4-C , 20-C ) :   1.0133
B(  6-C ,  7-H ) :   0.9306 B(  6-C ,  8-H ) :   0.9446 B(  6-C ,  9-C ) :   1.0753
B(  9-C , 10-H ) :   0.9521 B(  9-C , 11-H ) :   0.9572 B(  9-C , 12-C ) :   1.0770
B( 12-C , 13-H ) :   0.9729 B( 12-C , 14-H ) :   0.9721 B( 12-C , 15-H ) :   0.9741
B( 16-S , 17-C ) :   1.1566 B( 16-S , 20-C ) :   1.1457 B( 17-C , 18-C ) :   1.6091
B( 17-C , 20-C ) :   0.1053 B( 17-C , 33-H ) :   0.9605 B( 18-C , 19-C ) :   1.2337
B( 18-C , 21-H ) :   0.9844 B( 19-C , 20-C ) :   1.5971 B( 19-C , 22-C ) :   1.0365
B( 22-C , 23-H ) :   0.9241 B( 22-C , 24-H ) :   0.9400 B( 22-C , 25-C ) :   1.0508
B( 25-C , 26-H ) :   0.9585 B( 25-C , 27-H ) :   0.9468 B( 25-C , 28-C ) :   1.0894
B( 28-C , 29-H ) :   0.9735 B( 28-C , 30-H ) :   0.9724 B( 28-C , 31-H ) :   0.9744

Dispersion correction           -0.015570469
FINAL SINGLE POINT ENERGY     -1339.867179992310

DIPOLE MOMENT
-------------
                                X             Y             Z
Electronic contribution:      3.63552      16.46767      23.91349
Nuclear contribution   :     -3.51291     -16.91541     -24.35315
                        -----------------------------------------
Total Dipole Moment    :      0.12261      -0.44774      -0.43965
                        -----------------------------------------
Magnitude (a.u.)       :      0.63938
Magnitude (Debye)      :      1.62516

Rotational constants in cm-1:     0.019029     0.009735     0.007707
Rotational constants in MHz :   570.471562   291.845343   231.055420

                             ****ORCA TERMINATED NORMALLY****
TOTAL RUN TIME: 0 days 0 hours 0 minutes 21 seconds 605 msec
