                         Program Version 4.2.1 -  RELEASE  -
|  1> ! wB97X-D3 SP def2-SVP
|  2> %pal
|  3> nprocs 24
|  4> end
|  5>
|  6> * xyz 0 1
|  7> S 	 -18.0141 	 -30.03 	 -101.467
|  8> C 	 -18.6933 	 -28.833 	 -100.445
|  9> C 	 -19.6388 	 -29.4025 	 -99.6557
| 10> C 	 -19.706 	 -30.8665 	 -99.8024
| 11> C 	 -18.8257 	 -31.3634 	 -100.786
| 12> H 	 -20.4201 	 -31.5065 	 -99.3569
| 13> C 	 -20.537 	 -28.64 	 -98.6962
| 14> H 	 -21.5268 	 -29.1595 	 -98.6987
| 15> H 	 -20.7407 	 -27.6707 	 -99.1879
| 16> C 	 -20.0412 	 -28.5596 	 -97.22
| 17> H 	 -20.8991 	 -28.1209 	 -96.6873
| 18> H 	 -20.0046 	 -29.5184 	 -96.7267
| 19> C 	 -18.8389 	 -27.6838 	 -97.0109
| 20> H 	 -17.9802 	 -28.1603 	 -97.3878
| 21> H 	 -18.9788 	 -26.7707 	 -97.6229
| 22> H 	 -18.7986 	 -27.359 	 -96.0068
| 23> S 	 -19.1012 	 -33.1859 	 -102.845
| 24> C 	 -18.9014 	 -34.914 	 -102.573
| 25> C 	 -18.5023 	 -35.0899 	 -101.286
| 26> C 	 -18.4609 	 -33.9094 	 -100.507
| 27> C 	 -18.7571 	 -32.7499 	 -101.191
| 28> H 	 -18.1977 	 -35.9951 	 -100.755
| 29> C 	 -18.1162 	 -33.967 	 -99.013
| 30> H 	 -19.1446 	 -34.2395 	 -98.5727
| 31> H 	 -17.9243 	 -32.929 	 -98.6924
| 32> C 	 -16.9808 	 -34.8604 	 -98.5239
| 33> H 	 -17.1124 	 -35.8584 	 -98.7997
| 34> H 	 -16.9188 	 -34.8715 	 -97.478
| 35> C 	 -15.6713 	 -34.2943 	 -99.1575
| 36> H 	 -15.501 	 -33.3922 	 -98.6231
| 37> H 	 -15.6947 	 -34.0557 	 -100.211
| 38> H 	 -14.7565 	 -34.8279 	 -98.8745
| 39> H 	 -18.5455 	 -27.7483 	 -100.357
| 40> H 	 -19.057 	 -35.6518 	 -103.356
| 41> *
| 42>
| 43>                          ****END OF INPUT****

CARTESIAN COORDINATES (ANGSTROEM)
---------------------------------
  S    -18.014100  -30.030000  -101.467000
  C    -18.693300  -28.833000  -100.445000
  C    -19.638800  -29.402500  -99.655700
  C    -19.706000  -30.866500  -99.802400
  C    -18.825700  -31.363400  -100.786000
  H    -20.420100  -31.506500  -99.356900
  C    -20.537000  -28.640000  -98.696200
  H    -21.526800  -29.159500  -98.698700
  H    -20.740700  -27.670700  -99.187900
  C    -20.041200  -28.559600  -97.220000
  H    -20.899100  -28.120900  -96.687300
  H    -20.004600  -29.518400  -96.726700
  C    -18.838900  -27.683800  -97.010900
  H    -17.980200  -28.160300  -97.387800
  H    -18.978800  -26.770700  -97.622900
  H    -18.798600  -27.359000  -96.006800
  S    -19.101200  -33.185900  -102.845000
  C    -18.901400  -34.914000  -102.573000
  C    -18.502300  -35.089900  -101.286000
  C    -18.460900  -33.909400  -100.507000
  C    -18.757100  -32.749900  -101.191000
  H    -18.197700  -35.995100  -100.755000
  C    -18.116200  -33.967000  -99.013000
  H    -19.144600  -34.239500  -98.572700
  H    -17.924300  -32.929000  -98.692400
  C    -16.980800  -34.860400  -98.523900
  H    -17.112400  -35.858400  -98.799700
  H    -16.918800  -34.871500  -97.478000
  C    -15.671300  -34.294300  -99.157500
  H    -15.501000  -33.392200  -98.623100
  H    -15.694700  -34.055700  -100.211000
  H    -14.756500  -34.827900  -98.874500
  H    -18.545500  -27.748300  -100.357000
  H    -19.057000  -35.651800  -103.356000

 Total Charge           Charge          ....    0
 Multiplicity           Mult            ....    1
 Number of Electrons    NEL             ....  134
 Basis Dimension        Dim             ....  322

ORBITAL ENERGIES
----------------

  NO   OCC          E(Eh)            E(eV)
   0   2.0000     -88.966734     -2420.9079
   1   2.0000     -88.960796     -2420.7463
   2   2.0000     -10.329992      -281.0934
   3   2.0000     -10.325478      -280.9705
   4   2.0000     -10.321421      -280.8602
   5   2.0000     -10.310918      -280.5744
   6   2.0000     -10.299722      -280.2697
   7   2.0000     -10.298710      -280.2422
   8   2.0000     -10.297069      -280.1975
   9   2.0000     -10.295910      -280.1660
  10   2.0000     -10.294618      -280.1308
  11   2.0000     -10.291683      -280.0509
  12   2.0000     -10.286057      -279.8979
  13   2.0000     -10.282456      -279.7998
  14   2.0000     -10.270929      -279.4862
  15   2.0000     -10.270825      -279.4834
  16   2.0000      -8.082489      -219.9357
  17   2.0000      -8.075885      -219.7560
  18   2.0000      -6.041090      -164.3864
  19   2.0000      -6.036615      -164.2646
  20   2.0000      -6.034495      -164.2070
  21   2.0000      -6.033290      -164.1742
  22   2.0000      -6.030228      -164.0909
  23   2.0000      -6.026608      -163.9923
  24   2.0000      -1.012064       -27.5397
  25   2.0000      -0.990755       -26.9598
  26   2.0000      -0.912250       -24.8236
  27   2.0000      -0.909016       -24.7356
  28   2.0000      -0.876473       -23.8500
  29   2.0000      -0.848826       -23.0977
  30   2.0000      -0.843453       -22.9515
  31   2.0000      -0.815498       -22.1908
  32   2.0000      -0.781947       -21.2779
  33   2.0000      -0.772499       -21.0208
  34   2.0000      -0.715210       -19.4618
  35   2.0000      -0.705413       -19.1953
  36   2.0000      -0.698030       -18.9944
  37   2.0000      -0.661394       -17.9975
  38   2.0000      -0.640046       -17.4165
  39   2.0000      -0.612249       -16.6601
  40   2.0000      -0.600475       -16.3398
  41   2.0000      -0.572934       -15.5903
  42   2.0000      -0.555312       -15.1108
  43   2.0000      -0.552797       -15.0424
  44   2.0000      -0.543479       -14.7888
  45   2.0000      -0.542082       -14.7508
  46   2.0000      -0.519567       -14.1381
  47   2.0000      -0.514906       -14.0113
  48   2.0000      -0.511910       -13.9298
  49   2.0000      -0.493612       -13.4319
  50   2.0000      -0.490601       -13.3499
  51   2.0000      -0.479429       -13.0459
  52   2.0000      -0.472822       -12.8661
  53   2.0000      -0.464068       -12.6279
  54   2.0000      -0.457142       -12.4395
  55   2.0000      -0.454473       -12.3668
  56   2.0000      -0.445125       -12.1125
  57   2.0000      -0.433717       -11.8020
  58   2.0000      -0.429699       -11.6927
  59   2.0000      -0.425544       -11.5796
  60   2.0000      -0.423196       -11.5157
  61   2.0000      -0.411628       -11.2010
  62   2.0000      -0.407683       -11.0936
  63   2.0000      -0.349750        -9.5172
  64   2.0000      -0.327837        -8.9209
  65   2.0000      -0.323936        -8.8147
  66   2.0000      -0.299328        -8.1451
  67   0.0000       0.036300         0.9878
  68   0.0000       0.071218         1.9379
  69   0.0000       0.113803         3.0967
  70   0.0000       0.130354         3.5471
  71   0.0000       0.132223         3.5980

MULLIKEN ATOMIC CHARGES
-----------------------
   0 S :    0.129098
   1 C :   -0.111426
   2 C :   -0.114010
   3 C :    0.040837
   4 C :   -0.155661
   5 H :   -0.000588
   6 C :    0.027006
   7 H :    0.029583
   8 H :    0.029073
   9 C :   -0.063813
  10 H :    0.020714
  11 H :    0.025170
  12 C :   -0.001169
  13 H :    0.035714
  14 H :    0.014104
  15 H :    0.030747
  16 S :    0.091784
  17 C :   -0.090392
  18 C :    0.002420
  19 C :   -0.077925
  20 C :   -0.161844
  21 H :    0.014857
  22 C :    0.014887
  23 H :    0.049611
  24 H :    0.032407
  25 C :    0.004337
  26 H :    0.011507
  27 H :    0.019075
  28 C :   -0.057853
  29 H :    0.011600
  30 H :    0.053388
  31 H :    0.028198
  32 H :    0.050932
  33 H :    0.067633
Sum of atomic charges:   -0.0000000

LOEWDIN ATOMIC CHARGES
----------------------
   0 S :    0.444318
   1 C :   -0.221105
   2 C :   -0.070294
   3 C :   -0.057315
   4 C :   -0.215290
   5 H :    0.022102
   6 C :   -0.036174
   7 H :    0.036196
   8 H :    0.030909
   9 C :   -0.041493
  10 H :    0.025316
  11 H :    0.022851
  12 C :   -0.056960
  13 H :    0.021087
  14 H :    0.027037
  15 H :    0.024375
  16 S :    0.400652
  17 C :   -0.174348
  18 C :   -0.076904
  19 C :   -0.061401
  20 C :   -0.205631
  21 H :    0.033639
  22 C :   -0.035330
  23 H :    0.039908
  24 H :    0.030798
  25 C :   -0.029329
  26 H :    0.010513
  27 H :    0.023428
  28 C :   -0.063992
  29 H :    0.022624
  30 H :    0.028808
  31 H :    0.025837
  32 H :    0.040796
  33 H :    0.034373

  Mayer bond orders larger than 0.100000
B(  0-S ,  1-C ) :   1.1369 B(  0-S ,  4-C ) :   1.1698 B(  1-C ,  2-C ) :   1.6133
B(  1-C , 32-H ) :   0.9648 B(  2-C ,  3-C ) :   1.2457 B(  2-C ,  6-C ) :   1.0239
B(  3-C ,  4-C ) :   1.5348 B(  3-C ,  5-H ) :   1.0018 B(  4-C , 20-C ) :   1.0425
B(  6-C ,  7-H ) :   0.9384 B(  6-C ,  8-H ) :   0.9451 B(  6-C ,  9-C ) :   1.0751
B(  9-C , 10-H ) :   0.9519 B(  9-C , 11-H ) :   0.9538 B(  9-C , 12-C ) :   1.0778
B( 12-C , 13-H ) :   0.9756 B( 12-C , 14-H ) :   0.9709 B( 12-C , 15-H ) :   0.9712
B( 16-S , 17-C ) :   1.1597 B( 16-S , 20-C ) :   1.1371 B( 17-C , 18-C ) :   1.5602
B( 17-C , 20-C ) :   0.1009 B( 17-C , 33-H ) :   0.9736 B( 18-C , 19-C ) :   1.2792
B( 18-C , 21-H ) :   0.9857 B( 19-C , 20-C ) :   1.5958 B( 19-C , 22-C ) :   1.0254
B( 22-C , 23-H ) :   0.9319 B( 22-C , 24-H ) :   0.9385 B( 22-C , 25-C ) :   1.0756
B( 25-C , 26-H ) :   0.9534 B( 25-C , 27-H ) :   0.9495 B( 25-C , 28-C ) :   1.0637
B( 28-C , 29-H ) :   0.9727 B( 28-C , 30-H ) :   0.9791 B( 28-C , 31-H ) :   0.9736

Dispersion correction           -0.014625199
FINAL SINGLE POINT ENERGY     -1339.876790511444

DIPOLE MOMENT
-------------
                                X             Y             Z
Electronic contribution:     -3.26522      -3.15359     -25.04489
Nuclear contribution   :      3.10283       3.08097      25.75642
                        -----------------------------------------
Total Dipole Moment    :     -0.16239      -0.07262       0.71153
                        -----------------------------------------
Magnitude (a.u.)       :      0.73343
Magnitude (Debye)      :      1.86423

Rotational constants in cm-1:     0.020610     0.008243     0.006839
Rotational constants in MHz :   617.879484   247.128755   205.040497

                             ****ORCA TERMINATED NORMALLY****
TOTAL RUN TIME: 0 days 0 hours 0 minutes 21 seconds 876 msec
