                         Program Version 4.2.1 -  RELEASE  -
|  1> ! wB97X-D3 SP def2-SVP
|  2> %pal
|  3> nprocs 24
|  4> end
|  5>
|  6> * xyz 0 1
|  7> S 	 -77.4649 	 -1.65155 	 -63.7735
|  8> C 	 -76.296 	 -0.350259 	 -63.8578
|  9> C 	 -75.2097 	 -0.630477 	 -63.0477
| 10> C 	 -75.4109 	 -1.78913 	 -62.2057
| 11> C 	 -76.5693 	 -2.45801 	 -62.4867
| 12> H 	 -74.7182 	 -2.17446 	 -61.4281
| 13> C 	 -73.8699 	 0.18114 	 -63.0316
| 14> H 	 -73.9092 	 1.04546 	 -63.6405
| 15> H 	 -73.1744 	 -0.444026 	 -63.3985
| 16> C 	 -73.3841 	 0.48708 	 -61.5738
| 17> H 	 -74.123 	 1.01308 	 -60.889
| 18> H 	 -73.2173 	 -0.439483 	 -61.0411
| 19> C 	 -72.0228 	 1.23962 	 -61.5222
| 20> H 	 -71.6907 	 1.20789 	 -60.4914
| 21> H 	 -71.3101 	 0.999673 	 -62.2814
| 22> H 	 -72.2616 	 2.32508 	 -61.6856
| 23> S 	 -75.8849 	 -4.76278 	 -61.3372
| 24> C 	 -77.1833 	 -5.6868 	 -60.4708
| 25> C 	 -78.4505 	 -5.30236 	 -60.8667
| 26> C 	 -78.3713 	 -4.16714 	 -61.7328
| 27> C 	 -77.0748 	 -3.66754 	 -61.8486
| 28> H 	 -79.3571 	 -5.76028 	 -60.4821
| 29> C 	 -79.6536 	 -3.41298 	 -62.1523
| 30> H 	 -79.354 	 -2.38858 	 -62.141
| 31> H 	 -80.3328 	 -3.50932 	 -61.3596
| 32> C 	 -80.141 	 -3.82783 	 -63.5195
| 33> H 	 -79.9989 	 -4.92665 	 -63.5294
| 34> H 	 -79.6192 	 -3.37323 	 -64.3003
| 35> C 	 -81.6166 	 -3.49994 	 -63.7561
| 36> H 	 -82.3071 	 -3.9725 	 -63.0892
| 37> H 	 -81.8883 	 -3.81378 	 -64.7406
| 38> H 	 -81.8529 	 -2.40271 	 -63.6077
| 39> H 	 -76.3979 	 0.505719 	 -64.543
| 40> H 	 -76.9164 	 -6.55991 	 -59.9457
| 41> *
| 42>
| 43>                          ****END OF INPUT****

CARTESIAN COORDINATES (ANGSTROEM)
---------------------------------
  S    -77.464900   -1.651550  -63.773500
  C    -76.296000   -0.350259  -63.857800
  C    -75.209700   -0.630477  -63.047700
  C    -75.410900   -1.789130  -62.205700
  C    -76.569300   -2.458010  -62.486700
  H    -74.718200   -2.174460  -61.428100
  C    -73.869900    0.181140  -63.031600
  H    -73.909200    1.045460  -63.640500
  H    -73.174400   -0.444026  -63.398500
  C    -73.384100    0.487080  -61.573800
  H    -74.123000    1.013080  -60.889000
  H    -73.217300   -0.439483  -61.041100
  C    -72.022800    1.239620  -61.522200
  H    -71.690700    1.207890  -60.491400
  H    -71.310100    0.999673  -62.281400
  H    -72.261600    2.325080  -61.685600
  S    -75.884900   -4.762780  -61.337200
  C    -77.183300   -5.686800  -60.470800
  C    -78.450500   -5.302360  -60.866700
  C    -78.371300   -4.167140  -61.732800
  C    -77.074800   -3.667540  -61.848600
  H    -79.357100   -5.760280  -60.482100
  C    -79.653600   -3.412980  -62.152300
  H    -79.354000   -2.388580  -62.141000
  H    -80.332800   -3.509320  -61.359600
  C    -80.141000   -3.827830  -63.519500
  H    -79.998900   -4.926650  -63.529400
  H    -79.619200   -3.373230  -64.300300
  C    -81.616600   -3.499940  -63.756100
  H    -82.307100   -3.972500  -63.089200
  H    -81.888300   -3.813780  -64.740600
  H    -81.852900   -2.402710  -63.607700
  H    -76.397900    0.505719  -64.543000
  H    -76.916400   -6.559910  -59.945700

 Total Charge           Charge          ....    0
 Multiplicity           Mult            ....    1
 Number of Electrons    NEL             ....  134
 Basis Dimension        Dim             ....  322

ORBITAL ENERGIES
----------------

  NO   OCC          E(Eh)            E(eV)
   0   2.0000     -88.965806     -2420.8827
   1   2.0000     -88.965352     -2420.8703
   2   2.0000     -10.330129      -281.0971
   3   2.0000     -10.323937      -280.9286
   4   2.0000     -10.317907      -280.7645
   5   2.0000     -10.315785      -280.7068
   6   2.0000     -10.306979      -280.4672
   7   2.0000     -10.301136      -280.3082
   8   2.0000     -10.299539      -280.2647
   9   2.0000     -10.296395      -280.1792
  10   2.0000     -10.291648      -280.0500
  11   2.0000     -10.287726      -279.9433
  12   2.0000     -10.279385      -279.7163
  13   2.0000     -10.278501      -279.6922
  14   2.0000     -10.277357      -279.6611
  15   2.0000     -10.272518      -279.5294
  16   2.0000      -8.080758      -219.8886
  17   2.0000      -8.079389      -219.8513
  18   2.0000      -6.039131      -164.3331
  19   2.0000      -6.037995      -164.3022
  20   2.0000      -6.035501      -164.2343
  21   2.0000      -6.033960      -164.1924
  22   2.0000      -6.031383      -164.1223
  23   2.0000      -6.030125      -164.0880
  24   2.0000      -1.008913       -27.4539
  25   2.0000      -0.982207       -26.7272
  26   2.0000      -0.910392       -24.7730
  27   2.0000      -0.904851       -24.6222
  28   2.0000      -0.873060       -23.7572
  29   2.0000      -0.850080       -23.1318
  30   2.0000      -0.840266       -22.8648
  31   2.0000      -0.816464       -22.2171
  32   2.0000      -0.783059       -21.3081
  33   2.0000      -0.770163       -20.9572
  34   2.0000      -0.706486       -19.2245
  35   2.0000      -0.698207       -18.9992
  36   2.0000      -0.688801       -18.7432
  37   2.0000      -0.675406       -18.3787
  38   2.0000      -0.635271       -17.2866
  39   2.0000      -0.617316       -16.7980
  40   2.0000      -0.595340       -16.2000
  41   2.0000      -0.571105       -15.5406
  42   2.0000      -0.563783       -15.3413
  43   2.0000      -0.555445       -15.1144
  44   2.0000      -0.531524       -14.4635
  45   2.0000      -0.528754       -14.3881
  46   2.0000      -0.517442       -14.0803
  47   2.0000      -0.511940       -13.9306
  48   2.0000      -0.509441       -13.8626
  49   2.0000      -0.498235       -13.5577
  50   2.0000      -0.494212       -13.4482
  51   2.0000      -0.477481       -12.9929
  52   2.0000      -0.470016       -12.7898
  53   2.0000      -0.464087       -12.6285
  54   2.0000      -0.456861       -12.4318
  55   2.0000      -0.450559       -12.2603
  56   2.0000      -0.444127       -12.0853
  57   2.0000      -0.442242       -12.0340
  58   2.0000      -0.440112       -11.9761
  59   2.0000      -0.418254       -11.3813
  60   2.0000      -0.414925       -11.2907
  61   2.0000      -0.412791       -11.2326
  62   2.0000      -0.409684       -11.1481
  63   2.0000      -0.358055        -9.7432
  64   2.0000      -0.334281        -9.0963
  65   2.0000      -0.326485        -8.8841
  66   2.0000      -0.285147        -7.7592
  67   0.0000       0.021596         0.5876
  68   0.0000       0.083368         2.2686
  69   0.0000       0.106043         2.8856
  70   0.0000       0.117025         3.1844
  71   0.0000       0.126114         3.4317

MULLIKEN ATOMIC CHARGES
-----------------------
   0 S :    0.084863
   1 C :   -0.135479
   2 C :   -0.082898
   3 C :   -0.035876
   4 C :   -0.104455
   5 H :    0.035730
   6 C :    0.172082
   7 H :    0.010249
   8 H :    0.006269
   9 C :   -0.151218
  10 H :    0.042568
  11 H :    0.027925
  12 C :   -0.043226
  13 H :    0.037074
  14 H :    0.034328
  15 H :    0.028667
  16 S :    0.090615
  17 C :   -0.081546
  18 C :   -0.014726
  19 C :   -0.084598
  20 C :   -0.116885
  21 H :    0.028506
  22 C :    0.076864
  23 H :    0.017308
  24 H :    0.006082
  25 C :   -0.040100
  26 H :    0.031059
  27 H :    0.025273
  28 C :   -0.040658
  29 H :    0.016728
  30 H :    0.026425
  31 H :    0.032798
  32 H :    0.059220
  33 H :    0.041029
Sum of atomic charges:   -0.0000000

LOEWDIN ATOMIC CHARGES
----------------------
   0 S :    0.415152
   1 C :   -0.204991
   2 C :   -0.052591
   3 C :   -0.080625
   4 C :   -0.180379
   5 H :    0.034336
   6 C :   -0.010437
   7 H :    0.023197
   8 H :    0.019159
   9 C :   -0.044406
  10 H :    0.031175
  11 H :    0.016859
  12 C :   -0.068644
  13 H :    0.028412
  14 H :    0.021021
  15 H :    0.029007
  16 S :    0.405554
  17 C :   -0.157519
  18 C :   -0.058562
  19 C :   -0.058785
  20 C :   -0.206615
  21 H :    0.037117
  22 C :   -0.030564
  23 H :    0.015270
  24 H :    0.021494
  25 C :   -0.036273
  26 H :    0.028290
  27 H :    0.010051
  28 C :   -0.063824
  29 H :    0.017087
  30 H :    0.021632
  31 H :    0.030995
  32 H :    0.034119
  33 H :    0.014288

  Mayer bond orders larger than 0.100000
B(  0-S ,  1-C ) :   1.1225 B(  0-S ,  4-C ) :   1.1360 B(  1-C ,  2-C ) :   1.6327
B(  1-C , 32-H ) :   0.9684 B(  2-C ,  3-C ) :   1.2193 B(  2-C ,  6-C ) :   1.0194
B(  3-C ,  4-C ) :   1.5832 B(  3-C ,  5-H ) :   0.9792 B(  4-C , 20-C ) :   1.0594
B(  6-C ,  7-H ) :   0.9502 B(  6-C ,  8-H ) :   0.9252 B(  6-C ,  9-C ) :   1.0515
B(  9-C , 10-H ) :   0.9616 B(  9-C , 11-H ) :   0.9558 B(  9-C , 12-C ) :   1.0803
B( 12-C , 13-H ) :   0.9745 B( 12-C , 14-H ) :   0.9759 B( 12-C , 15-H ) :   0.9763
B( 16-S , 17-C ) :   1.1321 B( 16-S , 20-C ) :   1.1551 B( 17-C , 18-C ) :   1.6100
B( 17-C , 33-H ) :   0.9764 B( 18-C , 19-C ) :   1.2324 B( 18-C , 21-H ) :   0.9919
B( 19-C , 20-C ) :   1.5699 B( 19-C , 22-C ) :   1.0323 B( 22-C , 23-H ) :   0.9246
B( 22-C , 24-H ) :   0.9450 B( 22-C , 25-C ) :   1.0527 B( 25-C , 26-H ) :   0.9592
B( 25-C , 27-H ) :   0.9474 B( 25-C , 28-C ) :   1.0906 B( 28-C , 29-H ) :   0.9761
B( 28-C , 30-H ) :   0.9744 B( 28-C , 31-H ) :   0.9717

Dispersion correction           -0.013725755
FINAL SINGLE POINT ENERGY     -1339.867721710525

DIPOLE MOMENT
-------------
                                X             Y             Z
Electronic contribution:      0.57234     -11.98741       0.12723
Nuclear contribution   :     -0.52822      12.11488      -0.02742
                        -----------------------------------------
Total Dipole Moment    :      0.04412       0.12748       0.09981
                        -----------------------------------------
Magnitude (a.u.)       :      0.16780
Magnitude (Debye)      :      0.42652

Rotational constants in cm-1:     0.021968     0.007871     0.006068
Rotational constants in MHz :   658.576174   235.976574   181.915749

                             ****ORCA TERMINATED NORMALLY****
TOTAL RUN TIME: 0 days 0 hours 0 minutes 20 seconds 29 msec
