                         Program Version 4.2.1 -  RELEASE  -
|  1> ! wB97X-D3 SP def2-SVP
|  2> %pal
|  3> nprocs 24
|  4> end
|  5>
|  6> * xyz 0 1
|  7> S 	 -67.1683 	 -46.9832 	 -88.9833
|  8> C 	 -65.6385 	 -47.1516 	 -89.7364
|  9> C 	 -64.6962 	 -47.7674 	 -88.986
| 10> C 	 -65.2154 	 -47.9847 	 -87.6349
| 11> C 	 -66.5606 	 -47.6626 	 -87.5375
| 12> H 	 -64.8353 	 -48.5273 	 -86.7687
| 13> C 	 -63.3004 	 -48.2118 	 -89.4909
| 14> H 	 -62.5806 	 -47.7852 	 -88.7525
| 15> H 	 -63.0413 	 -47.6737 	 -90.4283
| 16> C 	 -63.1524 	 -49.7929 	 -89.6754
| 17> H 	 -63.4069 	 -50.252 	 -88.7311
| 18> H 	 -63.8109 	 -50.1667 	 -90.4006
| 19> C 	 -61.6829 	 -50.176 	 -89.9725
| 20> H 	 -61.4374 	 -49.8396 	 -90.9892
| 21> H 	 -60.9904 	 -49.8339 	 -89.1823
| 22> H 	 -61.5216 	 -51.2678 	 -89.8359
| 23> S 	 -67.8827 	 -46.6998 	 -85.2542
| 24> C 	 -68.5943 	 -47.8969 	 -84.1832
| 25> C 	 -68.6862 	 -49.0884 	 -84.7866
| 26> C 	 -68.1647 	 -49.1429 	 -86.1264
| 27> C 	 -67.4304 	 -47.9859 	 -86.4129
| 28> H 	 -68.9806 	 -49.949 	 -84.1122
| 29> C 	 -68.0537 	 -50.3826 	 -86.9866
| 30> H 	 -67.3922 	 -51.1195 	 -86.5313
| 31> H 	 -67.6646 	 -49.9824 	 -87.9528
| 32> C 	 -69.4087 	 -51.0149 	 -87.37
| 33> H 	 -69.3052 	 -51.7313 	 -88.1759
| 34> H 	 -69.9992 	 -50.2553 	 -87.7806
| 35> C 	 -70.3236 	 -51.6024 	 -86.2733
| 36> H 	 -70.6749 	 -50.7415 	 -85.6721
| 37> H 	 -69.7333 	 -52.328 	 -85.6743
| 38> H 	 -71.0838 	 -52.0976 	 -86.821
| 39> H 	 -65.39 	 -46.7444 	 -90.6945
| 40> H 	 -69.2304 	 -47.7573 	 -83.3018
| 41> *
| 42>
| 43>                          ****END OF INPUT****

CARTESIAN COORDINATES (ANGSTROEM)
---------------------------------
  S    -67.168300  -46.983200  -88.983300
  C    -65.638500  -47.151600  -89.736400
  C    -64.696200  -47.767400  -88.986000
  C    -65.215400  -47.984700  -87.634900
  C    -66.560600  -47.662600  -87.537500
  H    -64.835300  -48.527300  -86.768700
  C    -63.300400  -48.211800  -89.490900
  H    -62.580600  -47.785200  -88.752500
  H    -63.041300  -47.673700  -90.428300
  C    -63.152400  -49.792900  -89.675400
  H    -63.406900  -50.252000  -88.731100
  H    -63.810900  -50.166700  -90.400600
  C    -61.682900  -50.176000  -89.972500
  H    -61.437400  -49.839600  -90.989200
  H    -60.990400  -49.833900  -89.182300
  H    -61.521600  -51.267800  -89.835900
  S    -67.882700  -46.699800  -85.254200
  C    -68.594300  -47.896900  -84.183200
  C    -68.686200  -49.088400  -84.786600
  C    -68.164700  -49.142900  -86.126400
  C    -67.430400  -47.985900  -86.412900
  H    -68.980600  -49.949000  -84.112200
  C    -68.053700  -50.382600  -86.986600
  H    -67.392200  -51.119500  -86.531300
  H    -67.664600  -49.982400  -87.952800
  C    -69.408700  -51.014900  -87.370000
  H    -69.305200  -51.731300  -88.175900
  H    -69.999200  -50.255300  -87.780600
  C    -70.323600  -51.602400  -86.273300
  H    -70.674900  -50.741500  -85.672100
  H    -69.733300  -52.328000  -85.674300
  H    -71.083800  -52.097600  -86.821000
  H    -65.390000  -46.744400  -90.694500
  H    -69.230400  -47.757300  -83.301800

 Total Charge           Charge          ....    0
 Multiplicity           Mult            ....    1
 Number of Electrons    NEL             ....  134
 Basis Dimension        Dim             ....  322

ORBITAL ENERGIES
----------------

  NO   OCC          E(Eh)            E(eV)
   0   2.0000     -88.965951     -2420.8866
   1   2.0000     -88.961383     -2420.7623
   2   2.0000     -10.328807      -281.0611
   3   2.0000     -10.324376      -280.9406
   4   2.0000     -10.311883      -280.6006
   5   2.0000     -10.306976      -280.4671
   6   2.0000     -10.306003      -280.4406
   7   2.0000     -10.304751      -280.4065
   8   2.0000     -10.304491      -280.3995
   9   2.0000     -10.298183      -280.2278
  10   2.0000     -10.292896      -280.0839
  11   2.0000     -10.291343      -280.0417
  12   2.0000     -10.289751      -279.9984
  13   2.0000     -10.285361      -279.8789
  14   2.0000     -10.276148      -279.6282
  15   2.0000     -10.276096      -279.6268
  16   2.0000      -8.082136      -219.9261
  17   2.0000      -8.075668      -219.7501
  18   2.0000      -6.040473      -164.3696
  19   2.0000      -6.036463      -164.2605
  20   2.0000      -6.034225      -164.1996
  21   2.0000      -6.032960      -164.1652
  22   2.0000      -6.030384      -164.0951
  23   2.0000      -6.026233      -163.9821
  24   2.0000      -1.010272       -27.4909
  25   2.0000      -0.986154       -26.8346
  26   2.0000      -0.906165       -24.6580
  27   2.0000      -0.903349       -24.5814
  28   2.0000      -0.872758       -23.7489
  29   2.0000      -0.849155       -23.1067
  30   2.0000      -0.843327       -22.9481
  31   2.0000      -0.818087       -22.2613
  32   2.0000      -0.781351       -21.2616
  33   2.0000      -0.770444       -20.9648
  34   2.0000      -0.709097       -19.2955
  35   2.0000      -0.699384       -19.0312
  36   2.0000      -0.687217       -18.7001
  37   2.0000      -0.650275       -17.6949
  38   2.0000      -0.646736       -17.5986
  39   2.0000      -0.610861       -16.6224
  40   2.0000      -0.590557       -16.0699
  41   2.0000      -0.566725       -15.4214
  42   2.0000      -0.564278       -15.3548
  43   2.0000      -0.548513       -14.9258
  44   2.0000      -0.542842       -14.7715
  45   2.0000      -0.518034       -14.0964
  46   2.0000      -0.517354       -14.0779
  47   2.0000      -0.515388       -14.0244
  48   2.0000      -0.503331       -13.6963
  49   2.0000      -0.497306       -13.5324
  50   2.0000      -0.493103       -13.4180
  51   2.0000      -0.479183       -13.0392
  52   2.0000      -0.477529       -12.9942
  53   2.0000      -0.466432       -12.6922
  54   2.0000      -0.455653       -12.3989
  55   2.0000      -0.450009       -12.2454
  56   2.0000      -0.437014       -11.8918
  57   2.0000      -0.436335       -11.8733
  58   2.0000      -0.429055       -11.6752
  59   2.0000      -0.422840       -11.5061
  60   2.0000      -0.419446       -11.4137
  61   2.0000      -0.416495       -11.3334
  62   2.0000      -0.414126       -11.2690
  63   2.0000      -0.333841        -9.0843
  64   2.0000      -0.327539        -8.9128
  65   2.0000      -0.320611        -8.7243
  66   2.0000      -0.316794        -8.6204
  67   0.0000       0.044205         1.2029
  68   0.0000       0.054788         1.4909
  69   0.0000       0.117053         3.1852
  70   0.0000       0.120692         3.2842
  71   0.0000       0.129901         3.5348

MULLIKEN ATOMIC CHARGES
-----------------------
   0 S :    0.135639
   1 C :   -0.106932
   2 C :   -0.087741
   3 C :    0.052807
   4 C :   -0.212495
   5 H :    0.019994
   6 C :    0.040223
   7 H :    0.037964
   8 H :    0.021986
   9 C :   -0.043373
  10 H :    0.023852
  11 H :    0.028928
  12 C :   -0.066945
  13 H :    0.044158
  14 H :    0.033411
  15 H :    0.035182
  16 S :    0.096802
  17 C :   -0.078501
  18 C :   -0.087427
  19 C :   -0.011905
  20 C :   -0.188805
  21 H :    0.052869
  22 C :    0.071549
  23 H :    0.042203
  24 H :    0.037984
  25 C :   -0.083888
  26 H :    0.023979
  27 H :    0.008698
  28 C :   -0.047443
  29 H :    0.048408
  30 H :    0.029452
  31 H :    0.032091
  32 H :    0.034334
  33 H :    0.062941
Sum of atomic charges:    0.0000000

LOEWDIN ATOMIC CHARGES
----------------------
   0 S :    0.434706
   1 C :   -0.203715
   2 C :   -0.065141
   3 C :   -0.055504
   4 C :   -0.218690
   5 H :    0.035498
   6 C :   -0.031509
   7 H :    0.035300
   8 H :    0.028552
   9 C :   -0.029324
  10 H :    0.022588
  11 H :    0.019109
  12 C :   -0.071596
  13 H :    0.026358
  14 H :    0.028641
  15 H :    0.030134
  16 S :    0.378142
  17 C :   -0.190827
  18 C :   -0.089693
  19 C :   -0.051770
  20 C :   -0.188377
  21 H :    0.045339
  22 C :   -0.030953
  23 H :    0.030293
  24 H :    0.039583
  25 C :   -0.041273
  26 H :    0.021285
  27 H :    0.017730
  28 C :   -0.063513
  29 H :    0.028901
  30 H :    0.022655
  31 H :    0.023560
  32 H :    0.023738
  33 H :    0.039775

  Mayer bond orders larger than 0.100000
B(  0-S ,  1-C ) :   1.1409 B(  0-S ,  4-C ) :   1.1600 B(  1-C ,  2-C ) :   1.6517
B(  1-C , 32-H ) :   0.9639 B(  2-C ,  3-C ) :   1.2065 B(  2-C ,  6-C ) :   1.0194
B(  3-C ,  4-C ) :   1.6086 B(  3-C ,  5-H ) :   0.9876 B(  4-C , 20-C ) :   1.0238
B(  6-C ,  7-H ) :   0.9445 B(  6-C ,  8-H ) :   0.9458 B(  6-C ,  9-C ) :   1.0458
B(  9-C , 10-H ) :   0.9591 B(  9-C , 11-H ) :   0.9596 B(  9-C , 12-C ) :   1.0832
B( 12-C , 13-H ) :   0.9772 B( 12-C , 14-H ) :   0.9742 B( 12-C , 15-H ) :   0.9740
B( 16-S , 17-C ) :   1.1312 B( 16-S , 20-C ) :   1.1313 B( 17-C , 18-C ) :   1.6829
B( 17-C , 33-H ) :   0.9529 B( 18-C , 19-C ) :   1.1956 B( 18-C , 21-H ) :   0.9675
B( 19-C , 20-C ) :   1.6122 B( 19-C , 22-C ) :   1.0480 B( 22-C , 23-H ) :   0.9453
B( 22-C , 24-H ) :   0.9207 B( 22-C , 25-C ) :   1.0729 B( 25-C , 26-H ) :   0.9599
B( 25-C , 27-H ) :   0.9504 B( 25-C , 28-C ) :   1.0785 B( 28-C , 29-H ) :   0.9709
B( 28-C , 30-H ) :   0.9774 B( 28-C , 31-H ) :   0.9714

Dispersion correction           -0.014296780
FINAL SINGLE POINT ENERGY     -1339.866266699255

DIPOLE MOMENT
-------------
                                X             Y             Z
Electronic contribution:     -9.30723      22.87242       7.25738
Nuclear contribution   :      9.55835     -23.51116      -7.44901
                        -----------------------------------------
Total Dipole Moment    :      0.25112      -0.63873      -0.19164
                        -----------------------------------------
Magnitude (a.u.)       :      0.71258
Magnitude (Debye)      :      1.81123

Rotational constants in cm-1:     0.019312     0.007681     0.006609
Rotational constants in MHz :   578.969381   230.269962   198.141012

                             ****ORCA TERMINATED NORMALLY****
TOTAL RUN TIME: 0 days 0 hours 0 minutes 21 seconds 221 msec
