                         Program Version 4.2.1 -  RELEASE  -
|  1> ! wB97X-D3 SP def2-SVP
|  2> %pal
|  3> nprocs 24
|  4> end
|  5>
|  6> * xyz 0 1
|  7> S 	 -58.8947 	 14.7703 	 -99.3063
|  8> C 	 -58.7802 	 16.3361 	 -98.5769
|  9> C 	 -58.9493 	 16.1674 	 -97.1891
| 10> C 	 -59.2472 	 14.8316 	 -96.8063
| 11> C 	 -59.4054 	 13.9411 	 -97.8683
| 12> H 	 -59.288 	 14.3798 	 -95.8495
| 13> C 	 -58.6061 	 17.2221 	 -96.0833
| 14> H 	 -59.1031 	 17.1104 	 -95.114
| 15> H 	 -59.0958 	 18.1337 	 -96.4375
| 16> C 	 -57.1835 	 17.6569 	 -95.8864
| 17> H 	 -56.8872 	 18.0698 	 -96.8553
| 18> H 	 -57.0917 	 18.4828 	 -95.145
| 19> C 	 -56.3158 	 16.4525 	 -95.2844
| 20> H 	 -56.2815 	 15.5883 	 -95.998
| 21> H 	 -55.3006 	 16.7798 	 -94.9766
| 22> H 	 -56.7096 	 16.12 	 -94.3719
| 23> S 	 -60.5113 	 11.8824 	 -96.4919
| 24> C 	 -60.3001 	 10.2211 	 -96.9111
| 25> C 	 -59.4403 	 10.1983 	 -97.9407
| 26> C 	 -58.9514 	 11.4066 	 -98.4981
| 27> C 	 -59.5387 	 12.4806 	 -97.804
| 28> H 	 -59.2087 	 9.20968 	 -98.2915
| 29> C 	 -58.0153 	 11.5168 	 -99.7329
| 30> H 	 -57.6637 	 12.5679 	 -99.7506
| 31> H 	 -58.6173 	 11.4365 	 -100.589
| 32> C 	 -56.8064 	 10.5832 	 -99.7363
| 33> H 	 -56.3406 	 10.8281 	 -100.731
| 34> H 	 -57.2649 	 9.57971 	 -99.7069
| 35> C 	 -55.8657 	 10.7624 	 -98.4987
| 36> H 	 -55.6473 	 11.8144 	 -98.2692
| 37> H 	 -54.9168 	 10.143 	 -98.5254
| 38> H 	 -56.4204 	 10.3053 	 -97.7096
| 39> H 	 -58.6988 	 17.2916 	 -99.0489
| 40> H 	 -60.877 	 9.41557 	 -96.3643
| 41> *
| 42>
| 43>                          ****END OF INPUT****

CARTESIAN COORDINATES (ANGSTROEM)
---------------------------------
  S    -58.894700   14.770300  -99.306300
  C    -58.780200   16.336100  -98.576900
  C    -58.949300   16.167400  -97.189100
  C    -59.247200   14.831600  -96.806300
  C    -59.405400   13.941100  -97.868300
  H    -59.288000   14.379800  -95.849500
  C    -58.606100   17.222100  -96.083300
  H    -59.103100   17.110400  -95.114000
  H    -59.095800   18.133700  -96.437500
  C    -57.183500   17.656900  -95.886400
  H    -56.887200   18.069800  -96.855300
  H    -57.091700   18.482800  -95.145000
  C    -56.315800   16.452500  -95.284400
  H    -56.281500   15.588300  -95.998000
  H    -55.300600   16.779800  -94.976600
  H    -56.709600   16.120000  -94.371900
  S    -60.511300   11.882400  -96.491900
  C    -60.300100   10.221100  -96.911100
  C    -59.440300   10.198300  -97.940700
  C    -58.951400   11.406600  -98.498100
  C    -59.538700   12.480600  -97.804000
  H    -59.208700    9.209680  -98.291500
  C    -58.015300   11.516800  -99.732900
  H    -57.663700   12.567900  -99.750600
  H    -58.617300   11.436500  -100.589000
  C    -56.806400   10.583200  -99.736300
  H    -56.340600   10.828100  -100.731000
  H    -57.264900    9.579710  -99.706900
  C    -55.865700   10.762400  -98.498700
  H    -55.647300   11.814400  -98.269200
  H    -54.916800   10.143000  -98.525400
  H    -56.420400   10.305300  -97.709600
  H    -58.698800   17.291600  -99.048900
  H    -60.877000    9.415570  -96.364300

 Total Charge           Charge          ....    0
 Multiplicity           Mult            ....    1
 Number of Electrons    NEL             ....  134
 Basis Dimension        Dim             ....  322

ORBITAL ENERGIES
----------------

  NO   OCC          E(Eh)            E(eV)
   0   2.0000     -88.970323     -2421.0056
   1   2.0000     -88.961430     -2420.7636
   2   2.0000     -10.333019      -281.1757
   3   2.0000     -10.332668      -281.1662
   4   2.0000     -10.318857      -280.7904
   5   2.0000     -10.318716      -280.7865
   6   2.0000     -10.309869      -280.5458
   7   2.0000     -10.307739      -280.4878
   8   2.0000     -10.294421      -280.1254
   9   2.0000     -10.292036      -280.0605
  10   2.0000     -10.291816      -280.0546
  11   2.0000     -10.291482      -280.0455
  12   2.0000     -10.290796      -280.0268
  13   2.0000     -10.290307      -280.0135
  14   2.0000     -10.280746      -279.7533
  15   2.0000     -10.277982      -279.6781
  16   2.0000      -8.084760      -219.9975
  17   2.0000      -8.077168      -219.7909
  18   2.0000      -6.043337      -164.4476
  19   2.0000      -6.039086      -164.3319
  20   2.0000      -6.035667      -164.2388
  21   2.0000      -6.035642      -164.2382
  22   2.0000      -6.031417      -164.1232
  23   2.0000      -6.028022      -164.0308
  24   2.0000      -1.013040       -27.5662
  25   2.0000      -0.991455       -26.9789
  26   2.0000      -0.908919       -24.7329
  27   2.0000      -0.906475       -24.6664
  28   2.0000      -0.873650       -23.7732
  29   2.0000      -0.846832       -23.0435
  30   2.0000      -0.837812       -22.7980
  31   2.0000      -0.814616       -22.1668
  32   2.0000      -0.785092       -21.3634
  33   2.0000      -0.777636       -21.1605
  34   2.0000      -0.707397       -19.2492
  35   2.0000      -0.699245       -19.0274
  36   2.0000      -0.691898       -18.8275
  37   2.0000      -0.660110       -17.9625
  38   2.0000      -0.637124       -17.3370
  39   2.0000      -0.616261       -16.7693
  40   2.0000      -0.600220       -16.3328
  41   2.0000      -0.576883       -15.6978
  42   2.0000      -0.555040       -15.1034
  43   2.0000      -0.548157       -14.9161
  44   2.0000      -0.542168       -14.7531
  45   2.0000      -0.539790       -14.6884
  46   2.0000      -0.519682       -14.1413
  47   2.0000      -0.514958       -14.0127
  48   2.0000      -0.497330       -13.5330
  49   2.0000      -0.495739       -13.4897
  50   2.0000      -0.484939       -13.1959
  51   2.0000      -0.479374       -13.0444
  52   2.0000      -0.474555       -12.9133
  53   2.0000      -0.473086       -12.8733
  54   2.0000      -0.459325       -12.4989
  55   2.0000      -0.446393       -12.1470
  56   2.0000      -0.443584       -12.0705
  57   2.0000      -0.435090       -11.8394
  58   2.0000      -0.429842       -11.6966
  59   2.0000      -0.425018       -11.5653
  60   2.0000      -0.413005       -11.2384
  61   2.0000      -0.405621       -11.0375
  62   2.0000      -0.405318       -11.0293
  63   2.0000      -0.363575        -9.8934
  64   2.0000      -0.332106        -9.0371
  65   2.0000      -0.329085        -8.9549
  66   2.0000      -0.287457        -7.8221
  67   0.0000       0.021388         0.5820
  68   0.0000       0.076416         2.0794
  69   0.0000       0.110382         3.0037
  70   0.0000       0.131538         3.5793
  71   0.0000       0.136854         3.7240

MULLIKEN ATOMIC CHARGES
-----------------------
   0 S :    0.099123
   1 C :   -0.106269
   2 C :   -0.072922
   3 C :    0.015153
   4 C :   -0.116320
   5 H :    0.006325
   6 C :    0.039723
   7 H :    0.026360
   8 H :    0.016315
   9 C :   -0.062533
  10 H :    0.025074
  11 H :    0.034510
  12 C :   -0.058626
  13 H :    0.053857
  14 H :    0.031835
  15 H :    0.012112
  16 S :    0.081328
  17 C :   -0.115320
  18 C :   -0.042751
  19 C :   -0.045047
  20 C :   -0.162478
  21 H :    0.007396
  22 C :    0.081314
  23 H :    0.021837
  24 H :    0.036184
  25 C :   -0.094218
  26 H :    0.045194
  27 H :    0.035315
  28 C :   -0.051995
  29 H :    0.045374
  30 H :    0.045233
  31 H :    0.030051
  32 H :    0.050050
  33 H :    0.088815
Sum of atomic charges:    0.0000000

LOEWDIN ATOMIC CHARGES
----------------------
   0 S :    0.442125
   1 C :   -0.207823
   2 C :   -0.057082
   3 C :   -0.068194
   4 C :   -0.195560
   5 H :    0.021961
   6 C :   -0.041770
   7 H :    0.028962
   8 H :    0.031317
   9 C :   -0.037769
  10 H :    0.021038
  11 H :    0.028832
  12 C :   -0.068946
  13 H :    0.032262
  14 H :    0.026453
  15 H :    0.014829
  16 S :    0.417133
  17 C :   -0.201343
  18 C :   -0.080714
  19 C :   -0.063439
  20 C :   -0.192627
  21 H :    0.025523
  22 C :   -0.032571
  23 H :    0.017432
  24 H :    0.027879
  25 C :   -0.042286
  26 H :    0.031368
  27 H :    0.024263
  28 C :   -0.068552
  29 H :    0.028873
  30 H :    0.034392
  31 H :    0.024340
  32 H :    0.030323
  33 H :    0.049368

  Mayer bond orders larger than 0.100000
B(  0-S ,  1-C ) :   1.1574 B(  0-S ,  4-C ) :   1.1692 B(  1-C ,  2-C ) :   1.5492
B(  1-C ,  4-C ) :   0.1059 B(  1-C , 32-H ) :   0.9773 B(  2-C ,  3-C ) :   1.2882
B(  2-C ,  6-C ) :   1.0111 B(  3-C ,  4-C ) :   1.5205 B(  3-C ,  5-H ) :   0.9957
B(  4-C , 20-C ) :   1.0421 B(  6-C ,  7-H ) :   0.9509 B(  6-C ,  8-H ) :   0.9324
B(  6-C ,  9-C ) :   1.0850 B(  9-C , 10-H ) :   0.9571 B(  9-C , 11-H ) :   0.9534
B(  9-C , 12-C ) :   1.0618 B( 12-C , 13-H ) :   0.9789 B( 12-C , 14-H ) :   0.9774
B( 12-C , 15-H ) :   0.9737 B( 16-S , 17-C ) :   1.1460 B( 16-S , 20-C ) :   1.1755
B( 17-C , 18-C ) :   1.5970 B( 17-C , 33-H ) :   0.9642 B( 18-C , 19-C ) :   1.2483
B( 18-C , 21-H ) :   0.9912 B( 19-C , 20-C ) :   1.5446 B( 19-C , 22-C ) :   1.0121
B( 22-C , 23-H ) :   0.9231 B( 22-C , 24-H ) :   0.9380 B( 22-C , 25-C ) :   1.0704
B( 25-C , 26-H ) :   0.9554 B( 25-C , 27-H ) :   0.9578 B( 25-C , 28-C ) :   1.0645
B( 28-C , 29-H ) :   0.9781 B( 28-C , 30-H ) :   0.9753 B( 28-C , 31-H ) :   0.9702

Dispersion correction           -0.014660695
FINAL SINGLE POINT ENERGY     -1339.865184694133

DIPOLE MOMENT
-------------
                                X             Y             Z
Electronic contribution:    -18.99104      -3.88312      -4.19695
Nuclear contribution   :     19.27475       3.83627       4.31096
                        -----------------------------------------
Total Dipole Moment    :      0.28371      -0.04685       0.11401
                        -----------------------------------------
Magnitude (a.u.)       :      0.30933
Magnitude (Debye)      :      0.78624

Rotational constants in cm-1:     0.019867     0.008335     0.007542
Rotational constants in MHz :   595.587155   249.865107   226.100256

                             ****ORCA TERMINATED NORMALLY****
TOTAL RUN TIME: 0 days 0 hours 0 minutes 21 seconds 610 msec
