                         Program Version 4.2.1 -  RELEASE  -
|  1> ! wB97X-D3 SP def2-SVP
|  2> %pal
|  3> nprocs 24
|  4> end
|  5>
|  6> * xyz 0 1
|  7> S 	 -133.899 	 57.6303 	 -64.3302
|  8> C 	 -134.186 	 58.3481 	 -65.9067
|  9> C 	 -134.134 	 57.4078 	 -66.9253
| 10> C 	 -133.845 	 56.1346 	 -66.4039
| 11> C 	 -133.762 	 56.0512 	 -65.042
| 12> H 	 -133.728 	 55.2472 	 -66.9973
| 13> C 	 -134.154 	 57.6088 	 -68.4237
| 14> H 	 -133.975 	 58.6784 	 -68.6481
| 15> H 	 -135.172 	 57.4666 	 -68.8063
| 16> C 	 -133.225 	 56.7096 	 -69.2679
| 17> H 	 -132.2 	 56.9007 	 -68.8467
| 18> H 	 -133.556 	 55.7537 	 -69.1423
| 19> C 	 -133.167 	 57.1649 	 -70.8285
| 20> H 	 -132.842 	 58.1568 	 -70.9602
| 21> H 	 -132.609 	 56.5291 	 -71.466
| 22> H 	 -134.143 	 57.1004 	 -71.284
| 23> S 	 -135.212 	 54.4415 	 -63.3448
| 24> C 	 -134.422 	 53.0579 	 -62.5538
| 25> C 	 -133.151 	 52.9583 	 -62.9249
| 26> C 	 -132.7 	 53.9318 	 -63.8701
| 27> C 	 -133.726 	 54.7837 	 -64.2248
| 28> H 	 -132.582 	 52.0736 	 -62.5997
| 29> C 	 -131.29 	 53.871 	 -64.5339
| 30> H 	 -130.471 	 53.5483 	 -63.8717
| 31> H 	 -131.031 	 54.9384 	 -64.7963
| 32> C 	 -131.343 	 52.8418 	 -65.6912
| 33> H 	 -132.146 	 53.1332 	 -66.4214
| 34> H 	 -131.675 	 51.839 	 -65.2858
| 35> C 	 -130.037 	 52.9406 	 -66.4302
| 36> H 	 -130.143 	 52.8238 	 -67.485
| 37> H 	 -129.379 	 52.1844 	 -65.8908
| 38> H 	 -129.738 	 54.029 	 -66.4484
| 39> H 	 -134.279 	 59.403 	 -66.049
| 40> H 	 -134.877 	 52.3757 	 -61.8577
| 41> *
| 42>
| 43>                          ****END OF INPUT****

CARTESIAN COORDINATES (ANGSTROEM)
---------------------------------
  S    -133.899000   57.630300  -64.330200
  C    -134.186000   58.348100  -65.906700
  C    -134.134000   57.407800  -66.925300
  C    -133.845000   56.134600  -66.403900
  C    -133.762000   56.051200  -65.042000
  H    -133.728000   55.247200  -66.997300
  C    -134.154000   57.608800  -68.423700
  H    -133.975000   58.678400  -68.648100
  H    -135.172000   57.466600  -68.806300
  C    -133.225000   56.709600  -69.267900
  H    -132.200000   56.900700  -68.846700
  H    -133.556000   55.753700  -69.142300
  C    -133.167000   57.164900  -70.828500
  H    -132.842000   58.156800  -70.960200
  H    -132.609000   56.529100  -71.466000
  H    -134.143000   57.100400  -71.284000
  S    -135.212000   54.441500  -63.344800
  C    -134.422000   53.057900  -62.553800
  C    -133.151000   52.958300  -62.924900
  C    -132.700000   53.931800  -63.870100
  C    -133.726000   54.783700  -64.224800
  H    -132.582000   52.073600  -62.599700
  C    -131.290000   53.871000  -64.533900
  H    -130.471000   53.548300  -63.871700
  H    -131.031000   54.938400  -64.796300
  C    -131.343000   52.841800  -65.691200
  H    -132.146000   53.133200  -66.421400
  H    -131.675000   51.839000  -65.285800
  C    -130.037000   52.940600  -66.430200
  H    -130.143000   52.823800  -67.485000
  H    -129.379000   52.184400  -65.890800
  H    -129.738000   54.029000  -66.448400
  H    -134.279000   59.403000  -66.049000
  H    -134.877000   52.375700  -61.857700

 Total Charge           Charge          ....    0
 Multiplicity           Mult            ....    1
 Number of Electrons    NEL             ....  134
 Basis Dimension        Dim             ....  322

ORBITAL ENERGIES
----------------

  NO   OCC          E(Eh)            E(eV)
   0   2.0000     -88.966845     -2420.9109
   1   2.0000     -88.961123     -2420.7552
   2   2.0000     -10.327492      -281.0254
   3   2.0000     -10.326868      -281.0084
   4   2.0000     -10.313942      -280.6566
   5   2.0000     -10.311532      -280.5910
   6   2.0000     -10.303481      -280.3720
   7   2.0000     -10.299432      -280.2618
   8   2.0000     -10.299385      -280.2605
   9   2.0000     -10.294745      -280.1343
  10   2.0000     -10.294413      -280.1252
  11   2.0000     -10.291983      -280.0591
  12   2.0000     -10.287838      -279.9463
  13   2.0000     -10.286358      -279.9060
  14   2.0000     -10.282463      -279.8000
  15   2.0000     -10.279436      -279.7177
  16   2.0000      -8.081550      -219.9102
  17   2.0000      -8.075540      -219.7466
  18   2.0000      -6.040041      -164.3579
  19   2.0000      -6.036023      -164.2485
  20   2.0000      -6.034152      -164.1976
  21   2.0000      -6.032373      -164.1492
  22   2.0000      -6.030158      -164.0889
  23   2.0000      -6.026129      -163.9793
  24   2.0000      -1.005281       -27.3551
  25   2.0000      -0.985385       -26.8137
  26   2.0000      -0.908799       -24.7297
  27   2.0000      -0.907950       -24.7066
  28   2.0000      -0.865498       -23.5514
  29   2.0000      -0.846623       -23.0378
  30   2.0000      -0.844361       -22.9762
  31   2.0000      -0.816668       -22.2227
  32   2.0000      -0.783656       -21.3244
  33   2.0000      -0.767867       -20.8947
  34   2.0000      -0.714489       -19.4422
  35   2.0000      -0.693820       -18.8798
  36   2.0000      -0.688876       -18.7453
  37   2.0000      -0.655213       -17.8292
  38   2.0000      -0.643201       -17.5024
  39   2.0000      -0.623635       -16.9700
  40   2.0000      -0.594680       -16.1821
  41   2.0000      -0.572792       -15.5865
  42   2.0000      -0.570155       -15.5147
  43   2.0000      -0.563492       -15.3334
  44   2.0000      -0.520769       -14.1709
  45   2.0000      -0.517233       -14.0746
  46   2.0000      -0.515604       -14.0303
  47   2.0000      -0.505719       -13.7613
  48   2.0000      -0.502995       -13.6872
  49   2.0000      -0.498371       -13.5614
  50   2.0000      -0.487065       -13.2537
  51   2.0000      -0.480539       -13.0761
  52   2.0000      -0.477948       -13.0056
  53   2.0000      -0.468236       -12.7414
  54   2.0000      -0.458657       -12.4807
  55   2.0000      -0.450765       -12.2659
  56   2.0000      -0.442309       -12.0358
  57   2.0000      -0.436641       -11.8816
  58   2.0000      -0.432029       -11.7561
  59   2.0000      -0.429288       -11.6815
  60   2.0000      -0.419827       -11.4241
  61   2.0000      -0.411392       -11.1946
  62   2.0000      -0.409186       -11.1345
  63   2.0000      -0.341193        -9.2843
  64   2.0000      -0.328406        -8.9364
  65   2.0000      -0.326069        -8.8728
  66   2.0000      -0.305306        -8.3078
  67   0.0000       0.045465         1.2372
  68   0.0000       0.060758         1.6533
  69   0.0000       0.117546         3.1986
  70   0.0000       0.122264         3.3270
  71   0.0000       0.132489         3.6052

MULLIKEN ATOMIC CHARGES
-----------------------
   0 S :    0.124019
   1 C :   -0.132643
   2 C :   -0.043070
   3 C :    0.020747
   4 C :   -0.153642
   5 H :    0.000865
   6 C :    0.047970
   7 H :    0.015981
   8 H :    0.034035
   9 C :   -0.085634
  10 H :    0.047409
  11 H :    0.029099
  12 C :   -0.018797
  13 H :    0.026458
  14 H :    0.025097
  15 H :    0.018486
  16 S :    0.095342
  17 C :   -0.081171
  18 C :   -0.036411
  19 C :   -0.008838
  20 C :   -0.190296
  21 H :    0.023827
  22 C :    0.030132
  23 H :    0.027646
  24 H :    0.047323
  25 C :   -0.112668
  26 H :    0.028504
  27 H :    0.042155
  28 C :   -0.022775
  29 H :    0.024317
  30 H :    0.056193
  31 H :    0.033658
  32 H :    0.038874
  33 H :    0.047809
Sum of atomic charges:   -0.0000000

LOEWDIN ATOMIC CHARGES
----------------------
   0 S :    0.414970
   1 C :   -0.189582
   2 C :   -0.065626
   3 C :   -0.063459
   4 C :   -0.203760
   5 H :    0.026806
   6 C :   -0.036384
   7 H :    0.028905
   8 H :    0.032485
   9 C :   -0.025019
  10 H :    0.032784
  11 H :    0.007918
  12 C :   -0.056866
  13 H :    0.020249
  14 H :    0.022407
  15 H :    0.023964
  16 S :    0.383336
  17 C :   -0.170481
  18 C :   -0.079965
  19 C :   -0.054359
  20 C :   -0.193957
  21 H :    0.035639
  22 C :   -0.032827
  23 H :    0.029692
  24 H :    0.035946
  25 C :   -0.050220
  26 H :    0.023938
  27 H :    0.029781
  28 C :   -0.075062
  29 H :    0.020964
  30 H :    0.039218
  31 H :    0.036769
  32 H :    0.022149
  33 H :    0.029645

  Mayer bond orders larger than 0.100000
B(  0-S ,  1-C ) :   1.1508 B(  0-S ,  4-C ) :   1.1614 B(  1-C ,  2-C ) :   1.5958
B(  1-C , 32-H ) :   0.9710 B(  2-C ,  3-C ) :   1.2610 B(  2-C ,  6-C ) :   1.0154
B(  3-C ,  4-C ) :   1.5872 B(  3-C ,  5-H ) :   0.9922 B(  4-C , 20-C ) :   0.9813
B(  6-C ,  7-H ) :   0.9472 B(  6-C ,  8-H ) :   0.9269 B(  6-C ,  9-C ) :   1.0643
B(  9-C , 10-H ) :   0.9652 B(  9-C , 11-H ) :   0.9491 B(  9-C , 12-C ) :   1.0740
B( 12-C , 13-H ) :   0.9787 B( 12-C , 14-H ) :   0.9772 B( 12-C , 15-H ) :   0.9751
B( 16-S , 17-C ) :   1.1258 B( 16-S , 20-C ) :   1.1400 B( 17-C , 18-C ) :   1.6711
B( 17-C , 33-H ) :   0.9653 B( 18-C , 19-C ) :   1.2098 B( 18-C , 21-H ) :   0.9801
B( 19-C , 20-C ) :   1.6494 B( 19-C , 22-C ) :   1.0332 B( 22-C , 23-H ) :   0.9422
B( 22-C , 24-H ) :   0.9358 B( 22-C , 25-C ) :   1.0537 B( 25-C , 26-H ) :   0.9550
B( 25-C , 27-H ) :   0.9593 B( 25-C , 28-C ) :   1.0687 B( 28-C , 29-H ) :   0.9742
B( 28-C , 30-H ) :   0.9739 B( 28-C , 31-H ) :   0.9675

Dispersion correction           -0.014108267
FINAL SINGLE POINT ENERGY     -1339.865194550694

DIPOLE MOMENT
-------------
                                X             Y             Z
Electronic contribution:    -15.59997       5.44571      26.07267
Nuclear contribution   :     15.94387      -5.70066     -26.64278
                        -----------------------------------------
Total Dipole Moment    :      0.34391      -0.25495      -0.57010
                        -----------------------------------------
Magnitude (a.u.)       :      0.71295
Magnitude (Debye)      :      1.81216

Rotational constants in cm-1:     0.016821     0.009129     0.006746
Rotational constants in MHz :   504.294513   273.671674   202.234655

                             ****ORCA TERMINATED NORMALLY****
TOTAL RUN TIME: 0 days 0 hours 0 minutes 21 seconds 348 msec
