                         Program Version 4.2.1 -  RELEASE  -
|  1> ! wB97X-D3 SP def2-SVP
|  2> %pal
|  3> nprocs 24
|  4> end
|  5>
|  6> * xyz 0 1
|  7> S 	 28.6267 	 -30.2023 	 -131.506
|  8> C 	 28.9571 	 -28.9021 	 -132.54
|  9> C 	 28.6401 	 -27.711 	 -131.92
| 10> C 	 28.565 	 -27.8953 	 -130.483
| 11> C 	 28.6855 	 -29.2352 	 -130.003
| 12> H 	 28.4382 	 -27.1613 	 -129.814
| 13> C 	 28.6048 	 -26.3154 	 -132.595
| 14> H 	 27.9969 	 -26.3001 	 -133.492
| 15> H 	 29.5636 	 -26.0051 	 -132.966
| 16> C 	 27.8213 	 -25.2219 	 -131.827
| 17> H 	 26.8278 	 -25.7211 	 -131.848
| 18> H 	 28.1254 	 -25.1285 	 -130.732
| 19> C 	 27.9185 	 -23.8497 	 -132.43
| 20> H 	 27.7036 	 -23.974 	 -133.487
| 21> H 	 27.1528 	 -23.1424 	 -132.104
| 22> H 	 28.9594 	 -23.4715 	 -132.242
| 23> S 	 27.9202 	 -31.4095 	 -128.441
| 24> C 	 28.2853 	 -31.4339 	 -126.734
| 25> C 	 29.0888 	 -30.3416 	 -126.445
| 26> C 	 29.3936 	 -29.419 	 -127.503
| 27> C 	 28.6542 	 -29.8006 	 -128.648
| 28> H 	 29.3212 	 -30.1598 	 -125.409
| 29> C 	 30.2851 	 -28.2361 	 -127.314
| 30> H 	 30.584 	 -27.8209 	 -128.268
| 31> H 	 31.1765 	 -28.6377 	 -126.842
| 32> C 	 29.6105 	 -27.1944 	 -126.447
| 33> H 	 29.2463 	 -27.6573 	 -125.567
| 34> H 	 28.6734 	 -26.8204 	 -126.89
| 35> C 	 30.6345 	 -26.1317 	 -126.135
| 36> H 	 30.4244 	 -25.5083 	 -125.282
| 37> H 	 30.8471 	 -25.5696 	 -127.014
| 38> H 	 31.6634 	 -26.4653 	 -125.859
| 39> H 	 29.2127 	 -29.0579 	 -133.583
| 40> H 	 27.7401 	 -31.9719 	 -126.043
| 41> *
| 42>
| 43>                          ****END OF INPUT****

CARTESIAN COORDINATES (ANGSTROEM)
---------------------------------
  S     28.626700  -30.202300  -131.506000
  C     28.957100  -28.902100  -132.540000
  C     28.640100  -27.711000  -131.920000
  C     28.565000  -27.895300  -130.483000
  C     28.685500  -29.235200  -130.003000
  H     28.438200  -27.161300  -129.814000
  C     28.604800  -26.315400  -132.595000
  H     27.996900  -26.300100  -133.492000
  H     29.563600  -26.005100  -132.966000
  C     27.821300  -25.221900  -131.827000
  H     26.827800  -25.721100  -131.848000
  H     28.125400  -25.128500  -130.732000
  C     27.918500  -23.849700  -132.430000
  H     27.703600  -23.974000  -133.487000
  H     27.152800  -23.142400  -132.104000
  H     28.959400  -23.471500  -132.242000
  S     27.920200  -31.409500  -128.441000
  C     28.285300  -31.433900  -126.734000
  C     29.088800  -30.341600  -126.445000
  C     29.393600  -29.419000  -127.503000
  C     28.654200  -29.800600  -128.648000
  H     29.321200  -30.159800  -125.409000
  C     30.285100  -28.236100  -127.314000
  H     30.584000  -27.820900  -128.268000
  H     31.176500  -28.637700  -126.842000
  C     29.610500  -27.194400  -126.447000
  H     29.246300  -27.657300  -125.567000
  H     28.673400  -26.820400  -126.890000
  C     30.634500  -26.131700  -126.135000
  H     30.424400  -25.508300  -125.282000
  H     30.847100  -25.569600  -127.014000
  H     31.663400  -26.465300  -125.859000
  H     29.212700  -29.057900  -133.583000
  H     27.740100  -31.971900  -126.043000

 Total Charge           Charge          ....    0
 Multiplicity           Mult            ....    1
 Number of Electrons    NEL             ....  134
 Basis Dimension        Dim             ....  322

ORBITAL ENERGIES
----------------

  NO   OCC          E(Eh)            E(eV)
   0   2.0000     -88.964537     -2420.8481
   1   2.0000     -88.960985     -2420.7515
   2   2.0000     -10.337310      -281.2925
   3   2.0000     -10.336725      -281.2766
   4   2.0000     -10.314123      -280.6616
   5   2.0000     -10.312767      -280.6247
   6   2.0000     -10.307885      -280.4918
   7   2.0000     -10.307390      -280.4783
   8   2.0000     -10.295458      -280.1537
   9   2.0000     -10.293603      -280.1032
  10   2.0000     -10.293338      -280.0960
  11   2.0000     -10.292607      -280.0761
  12   2.0000     -10.290729      -280.0250
  13   2.0000     -10.285507      -279.8829
  14   2.0000     -10.284129      -279.8454
  15   2.0000     -10.276157      -279.6285
  16   2.0000      -8.079030      -219.8416
  17   2.0000      -8.076401      -219.7701
  18   2.0000      -6.037671      -164.2934
  19   2.0000      -6.034947      -164.2193
  20   2.0000      -6.033613      -164.1830
  21   2.0000      -6.030873      -164.1084
  22   2.0000      -6.029628      -164.0745
  23   2.0000      -6.026995      -164.0029
  24   2.0000      -1.002805       -27.2877
  25   2.0000      -0.984141       -26.7798
  26   2.0000      -0.921767       -25.0826
  27   2.0000      -0.911879       -24.8135
  28   2.0000      -0.870977       -23.7005
  29   2.0000      -0.853686       -23.2300
  30   2.0000      -0.843607       -22.9557
  31   2.0000      -0.814773       -22.1711
  32   2.0000      -0.783574       -21.3221
  33   2.0000      -0.773281       -21.0421
  34   2.0000      -0.714485       -19.4421
  35   2.0000      -0.706650       -19.2289
  36   2.0000      -0.687543       -18.7090
  37   2.0000      -0.660977       -17.9861
  38   2.0000      -0.646569       -17.5940
  39   2.0000      -0.622851       -16.9486
  40   2.0000      -0.604922       -16.4608
  41   2.0000      -0.575133       -15.6502
  42   2.0000      -0.568205       -15.4616
  43   2.0000      -0.563790       -15.3415
  44   2.0000      -0.537907       -14.6372
  45   2.0000      -0.521075       -14.1792
  46   2.0000      -0.517592       -14.0844
  47   2.0000      -0.511964       -13.9312
  48   2.0000      -0.509076       -13.8527
  49   2.0000      -0.507091       -13.7987
  50   2.0000      -0.499492       -13.5919
  51   2.0000      -0.483241       -13.1497
  52   2.0000      -0.471069       -12.8184
  53   2.0000      -0.467498       -12.7213
  54   2.0000      -0.460302       -12.5255
  55   2.0000      -0.455830       -12.4038
  56   2.0000      -0.445253       -12.1159
  57   2.0000      -0.435487       -11.8502
  58   2.0000      -0.427752       -11.6397
  59   2.0000      -0.421586       -11.4719
  60   2.0000      -0.420155       -11.4330
  61   2.0000      -0.414716       -11.2850
  62   2.0000      -0.406716       -11.0673
  63   2.0000      -0.357968        -9.7408
  64   2.0000      -0.330391        -8.9904
  65   2.0000      -0.322888        -8.7862
  66   2.0000      -0.281416        -7.6577
  67   0.0000       0.020109         0.5472
  68   0.0000       0.061294         1.6679
  69   0.0000       0.106312         2.8929
  70   0.0000       0.115386         3.1398
  71   0.0000       0.131833         3.5874

MULLIKEN ATOMIC CHARGES
-----------------------
   0 S :    0.099165
   1 C :   -0.122552
   2 C :   -0.056547
   3 C :    0.054593
   4 C :   -0.133912
   5 H :   -0.053603
   6 C :    0.068310
   7 H :    0.017016
   8 H :    0.028212
   9 C :   -0.155933
  10 H :    0.041585
  11 H :    0.042570
  12 C :   -0.023882
  13 H :    0.018862
  14 H :    0.042091
  15 H :    0.049189
  16 S :    0.084669
  17 C :   -0.058938
  18 C :   -0.043367
  19 C :   -0.056878
  20 C :   -0.141183
  21 H :    0.018255
  22 C :    0.083366
  23 H :    0.023097
  24 H :    0.030323
  25 C :   -0.048293
  26 H :    0.009031
  27 H :    0.033023
  28 C :   -0.016059
  29 H :    0.030387
  30 H :    0.020243
  31 H :    0.017912
  32 H :    0.056196
  33 H :    0.043053
Sum of atomic charges:    0.0000000

LOEWDIN ATOMIC CHARGES
----------------------
   0 S :    0.408398
   1 C :   -0.202694
   2 C :   -0.064883
   3 C :   -0.052731
   4 C :   -0.179988
   5 H :    0.001711
   6 C :   -0.033073
   7 H :    0.029812
   8 H :    0.023008
   9 C :   -0.053053
  10 H :    0.029508
  11 H :    0.021869
  12 C :   -0.066770
  13 H :    0.022589
  14 H :    0.030667
  15 H :    0.036115
  16 S :    0.389278
  17 C :   -0.177167
  18 C :   -0.064978
  19 C :   -0.050735
  20 C :   -0.184133
  21 H :    0.025912
  22 C :   -0.024835
  23 H :    0.029301
  24 H :    0.036389
  25 C :   -0.035291
  26 H :    0.017598
  27 H :    0.030085
  28 C :   -0.067841
  29 H :    0.024051
  30 H :    0.022650
  31 H :    0.029605
  32 H :    0.031768
  33 H :    0.017859

  Mayer bond orders larger than 0.100000
B(  0-S ,  1-C ) :   1.1719 B(  0-S ,  4-C ) :   1.1423 B(  1-C ,  2-C ) :   1.5670
B(  1-C ,  4-C ) :   0.1031 B(  1-C , 32-H ) :   0.9762 B(  2-C ,  3-C ) :   1.2592
B(  2-C ,  6-C ) :   1.0093 B(  3-C ,  4-C ) :   1.5278 B(  3-C ,  5-H ) :   1.0178
B(  4-C , 20-C ) :   1.0844 B(  6-C ,  7-H ) :   0.9448 B(  6-C ,  8-H ) :   0.9477
B(  6-C ,  9-C ) :   1.0387 B(  9-C , 10-H ) :   0.9646 B(  9-C , 11-H ) :   0.9516
B(  9-C , 12-C ) :   1.0846 B( 12-C , 13-H ) :   0.9694 B( 12-C , 14-H ) :   0.9706
B( 12-C , 15-H ) :   0.9727 B( 16-S , 17-C ) :   1.1425 B( 16-S , 20-C ) :   1.1374
B( 17-C , 18-C ) :   1.6180 B( 17-C , 20-C ) :   0.1009 B( 17-C , 33-H ) :   0.9742
B( 18-C , 19-C ) :   1.2353 B( 18-C , 21-H ) :   0.9826 B( 19-C , 20-C ) :   1.5601
B( 19-C , 22-C ) :   1.0503 B( 22-C , 23-H ) :   0.9282 B( 22-C , 24-H ) :   0.9284
B( 22-C , 25-C ) :   1.0650 B( 25-C , 26-H ) :   0.9554 B( 25-C , 27-H ) :   0.9501
B( 25-C , 28-C ) :   1.0772 B( 28-C , 29-H ) :   0.9728 B( 28-C , 30-H ) :   0.9708
B( 28-C , 31-H ) :   0.9710

Dispersion correction           -0.013500765
FINAL SINGLE POINT ENERGY     -1339.848625046654

DIPOLE MOMENT
-------------
                                X             Y             Z
Electronic contribution:     -5.17476     -31.63790      -3.35271
Nuclear contribution   :      5.30575      32.39320       3.56979
                        -----------------------------------------
Total Dipole Moment    :      0.13099       0.75529       0.21708
                        -----------------------------------------
Magnitude (a.u.)       :      0.79671
Magnitude (Debye)      :      2.02508

Rotational constants in cm-1:     0.016515     0.008994     0.006246
Rotational constants in MHz :   495.094728   269.634563   187.240432

                             ****ORCA TERMINATED NORMALLY****
TOTAL RUN TIME: 0 days 0 hours 0 minutes 21 seconds 347 msec
