                         Program Version 4.2.1 -  RELEASE  -
|  1> ! wB97X-D3 SP def2-SVP
|  2> %pal
|  3> nprocs 24
|  4> end
|  5>
|  6> * xyz 0 1
|  7> S 	 -37.5103 	 18.5642 	 14.2212
|  8> C 	 -38.5753 	 17.3588 	 15.0296
|  9> C 	 -39.2015 	 17.9382 	 16.1178
| 10> C 	 -38.7941 	 19.306 	 16.2796
| 11> C 	 -37.9397 	 19.7916 	 15.335
| 12> H 	 -39.1376 	 19.9472 	 16.9594
| 13> C 	 -39.9788 	 17.0936 	 17.1665
| 14> H 	 -40.9383 	 16.8682 	 16.7474
| 15> H 	 -40.2434 	 17.7441 	 18.0382
| 16> C 	 -39.2222 	 15.8554 	 17.6383
| 17> H 	 -38.8579 	 15.2663 	 16.797
| 18> H 	 -38.2625 	 16.2412 	 18.0542
| 19> C 	 -39.9933 	 14.9905 	 18.6085
| 20> H 	 -40.9863 	 15.051 	 18.2149
| 21> H 	 -39.5651 	 13.9999 	 18.6494
| 22> H 	 -39.9015 	 15.3912 	 19.6091
| 23> S 	 -35.5325 	 21.1191 	 15.183
| 24> C 	 -35.5129 	 22.8411 	 15.6142
| 25> C 	 -36.7767 	 23.3017 	 15.9008
| 26> C 	 -37.822 	 22.3496 	 15.7602
| 27> C 	 -37.2712 	 21.0835 	 15.4525
| 28> H 	 -37.0183 	 24.3684 	 15.9909
| 29> C 	 -39.2953 	 22.7317 	 15.9888
| 30> H 	 -39.2851 	 23.524 	 16.7543
| 31> H 	 -39.8372 	 21.9023 	 16.4946
| 32> C 	 -40.0886 	 23.2251 	 14.7976
| 33> H 	 -39.5022 	 23.9407 	 14.3022
| 34> H 	 -40.9363 	 23.6463 	 15.3187
| 35> C 	 -40.4543 	 22.1065 	 13.8236
| 36> H 	 -40.7953 	 21.1342 	 14.2767
| 37> H 	 -39.6659 	 21.8052 	 13.0827
| 38> H 	 -41.2802 	 22.3822 	 13.1299
| 39> H 	 -38.8158 	 16.3629 	 14.6195
| 40> H 	 -34.7074 	 23.5357 	 15.5153
| 41> *
| 42>
| 43>                          ****END OF INPUT****

CARTESIAN COORDINATES (ANGSTROEM)
---------------------------------
  S    -37.510300   18.564200   14.221200
  C    -38.575300   17.358800   15.029600
  C    -39.201500   17.938200   16.117800
  C    -38.794100   19.306000   16.279600
  C    -37.939700   19.791600   15.335000
  H    -39.137600   19.947200   16.959400
  C    -39.978800   17.093600   17.166500
  H    -40.938300   16.868200   16.747400
  H    -40.243400   17.744100   18.038200
  C    -39.222200   15.855400   17.638300
  H    -38.857900   15.266300   16.797000
  H    -38.262500   16.241200   18.054200
  C    -39.993300   14.990500   18.608500
  H    -40.986300   15.051000   18.214900
  H    -39.565100   13.999900   18.649400
  H    -39.901500   15.391200   19.609100
  S    -35.532500   21.119100   15.183000
  C    -35.512900   22.841100   15.614200
  C    -36.776700   23.301700   15.900800
  C    -37.822000   22.349600   15.760200
  C    -37.271200   21.083500   15.452500
  H    -37.018300   24.368400   15.990900
  C    -39.295300   22.731700   15.988800
  H    -39.285100   23.524000   16.754300
  H    -39.837200   21.902300   16.494600
  C    -40.088600   23.225100   14.797600
  H    -39.502200   23.940700   14.302200
  H    -40.936300   23.646300   15.318700
  C    -40.454300   22.106500   13.823600
  H    -40.795300   21.134200   14.276700
  H    -39.665900   21.805200   13.082700
  H    -41.280200   22.382200   13.129900
  H    -38.815800   16.362900   14.619500
  H    -34.707400   23.535700   15.515300

 Total Charge           Charge          ....    0
 Multiplicity           Mult            ....    1
 Number of Electrons    NEL             ....  134
 Basis Dimension        Dim             ....  322

ORBITAL ENERGIES
----------------

  NO   OCC          E(Eh)            E(eV)
   0   2.0000     -88.970182     -2421.0017
   1   2.0000     -88.965547     -2420.8756
   2   2.0000     -10.331081      -281.1230
   3   2.0000     -10.323728      -280.9229
   4   2.0000     -10.318276      -280.7746
   5   2.0000     -10.315444      -280.6975
   6   2.0000     -10.304763      -280.4069
   7   2.0000     -10.303802      -280.3807
   8   2.0000     -10.296602      -280.1848
   9   2.0000     -10.295902      -280.1657
  10   2.0000     -10.292769      -280.0805
  11   2.0000     -10.284303      -279.8501
  12   2.0000     -10.283047      -279.8159
  13   2.0000     -10.281495      -279.7737
  14   2.0000     -10.279925      -279.7310
  15   2.0000     -10.274415      -279.5810
  16   2.0000      -8.084043      -219.9780
  17   2.0000      -8.080192      -219.8732
  18   2.0000      -6.042611      -164.4278
  19   2.0000      -6.038802      -164.3242
  20   2.0000      -6.038773      -164.3234
  21   2.0000      -6.034695      -164.2124
  22   2.0000      -6.034638      -164.2109
  23   2.0000      -6.030927      -164.1099
  24   2.0000      -1.006133       -27.3783
  25   2.0000      -0.980279       -26.6747
  26   2.0000      -0.914190       -24.8764
  27   2.0000      -0.911070       -24.7915
  28   2.0000      -0.869507       -23.6605
  29   2.0000      -0.850351       -23.1392
  30   2.0000      -0.844354       -22.9761
  31   2.0000      -0.812786       -22.1170
  32   2.0000      -0.783081       -21.3087
  33   2.0000      -0.772873       -21.0309
  34   2.0000      -0.707302       -19.2467
  35   2.0000      -0.700948       -19.0738
  36   2.0000      -0.690344       -18.7852
  37   2.0000      -0.660655       -17.9773
  38   2.0000      -0.643136       -17.5006
  39   2.0000      -0.619369       -16.8539
  40   2.0000      -0.600469       -16.3396
  41   2.0000      -0.569116       -15.4864
  42   2.0000      -0.562032       -15.2937
  43   2.0000      -0.545656       -14.8480
  44   2.0000      -0.543743       -14.7960
  45   2.0000      -0.530655       -14.4399
  46   2.0000      -0.519974       -14.1492
  47   2.0000      -0.507758       -13.8168
  48   2.0000      -0.502848       -13.6832
  49   2.0000      -0.496707       -13.5161
  50   2.0000      -0.493920       -13.4402
  51   2.0000      -0.475508       -12.9392
  52   2.0000      -0.469019       -12.7627
  53   2.0000      -0.462400       -12.5826
  54   2.0000      -0.456525       -12.4227
  55   2.0000      -0.447219       -12.1695
  56   2.0000      -0.443941       -12.0802
  57   2.0000      -0.439216       -11.9517
  58   2.0000      -0.432208       -11.7610
  59   2.0000      -0.426079       -11.5942
  60   2.0000      -0.419564       -11.4169
  61   2.0000      -0.415039       -11.2938
  62   2.0000      -0.411967       -11.2102
  63   2.0000      -0.350402        -9.5349
  64   2.0000      -0.334414        -9.0999
  65   2.0000      -0.331391        -9.0176
  66   2.0000      -0.286404        -7.7935
  67   0.0000       0.025603         0.6967
  68   0.0000       0.073955         2.0124
  69   0.0000       0.104228         2.8362
  70   0.0000       0.121043         3.2938
  71   0.0000       0.134202         3.6518

MULLIKEN ATOMIC CHARGES
-----------------------
   0 S :    0.097203
   1 C :   -0.159950
   2 C :   -0.061061
   3 C :    0.060290
   4 C :   -0.119357
   5 H :   -0.052959
   6 C :    0.062582
   7 H :    0.024522
   8 H :    0.025149
   9 C :   -0.111340
  10 H :    0.022889
  11 H :    0.032553
  12 C :   -0.000218
  13 H :    0.027236
  14 H :    0.035518
  15 H :    0.034245
  16 S :    0.114540
  17 C :   -0.078374
  18 C :   -0.035952
  19 C :   -0.047782
  20 C :   -0.159013
  21 H :    0.024142
  22 C :    0.017267
  23 H :    0.021000
  24 H :    0.023161
  25 C :    0.024064
  26 H :    0.016658
  27 H :    0.031311
  28 C :   -0.098567
  29 H :    0.038277
  30 H :    0.045485
  31 H :    0.031615
  32 H :    0.067325
  33 H :    0.047537
Sum of atomic charges:    0.0000000

LOEWDIN ATOMIC CHARGES
----------------------
   0 S :    0.396357
   1 C :   -0.188466
   2 C :   -0.055162
   3 C :   -0.052973
   4 C :   -0.200619
   5 H :    0.003875
   6 C :   -0.031828
   7 H :    0.023885
   8 H :    0.032889
   9 C :   -0.046919
  10 H :    0.019910
  11 H :    0.028554
  12 C :   -0.058492
  13 H :    0.024783
  14 H :    0.029153
  15 H :    0.027305
  16 S :    0.397796
  17 C :   -0.183316
  18 C :   -0.070916
  19 C :   -0.061506
  20 C :   -0.185863
  21 H :    0.033584
  22 C :   -0.032544
  23 H :    0.030654
  24 H :    0.029618
  25 C :   -0.031288
  26 H :    0.020753
  27 H :    0.029357
  28 C :   -0.081633
  29 H :    0.029752
  30 H :    0.034128
  31 H :    0.027832
  32 H :    0.034406
  33 H :    0.026935

  Mayer bond orders larger than 0.100000
B(  0-S ,  1-C ) :   1.1275 B(  0-S ,  4-C ) :   1.1480 B(  1-C ,  2-C ) :   1.6057
B(  1-C , 32-H ) :   0.9652 B(  2-C ,  3-C ) :   1.2444 B(  2-C ,  6-C ) :   1.0140
B(  3-C ,  4-C ) :   1.5684 B(  3-C ,  5-H ) :   1.0128 B(  4-C , 20-C ) :   1.0444
B(  6-C ,  7-H ) :   0.9278 B(  6-C ,  8-H ) :   0.9494 B(  6-C ,  9-C ) :   1.0660
B(  9-C , 10-H ) :   0.9543 B(  9-C , 11-H ) :   0.9550 B(  9-C , 12-C ) :   1.0740
B( 12-C , 13-H ) :   0.9753 B( 12-C , 14-H ) :   0.9726 B( 12-C , 15-H ) :   0.9754
B( 16-S , 17-C ) :   1.1324 B( 16-S , 20-C ) :   1.1478 B( 17-C , 18-C ) :   1.6228
B( 17-C , 20-C ) :   0.1013 B( 17-C , 33-H ) :   0.9673 B( 18-C , 19-C ) :   1.2724
B( 18-C , 21-H ) :   0.9733 B( 19-C , 20-C ) :   1.5751 B( 19-C , 22-C ) :   1.0259
B( 22-C , 23-H ) :   0.9359 B( 22-C , 24-H ) :   0.9363 B( 22-C , 25-C ) :   1.0784
B( 25-C , 26-H ) :   0.9506 B( 25-C , 27-H ) :   0.9512 B( 25-C , 28-C ) :   1.0750
B( 28-C , 29-H ) :   0.9762 B( 28-C , 30-H ) :   0.9729 B( 28-C , 31-H ) :   0.9733

Dispersion correction           -0.014628127
FINAL SINGLE POINT ENERGY     -1339.873818420049

DIPOLE MOMENT
-------------
                                X             Y             Z
Electronic contribution:     21.12326       5.39102      -9.71941
Nuclear contribution   :    -21.65394      -5.28334      10.02542
                        -----------------------------------------
Total Dipole Moment    :     -0.53068       0.10768       0.30602
                        -----------------------------------------
Magnitude (a.u.)       :      0.62198
Magnitude (Debye)      :      1.58095

Rotational constants in cm-1:     0.020998     0.007774     0.006856
Rotational constants in MHz :   629.497719   233.068944   205.550145

                             ****ORCA TERMINATED NORMALLY****
TOTAL RUN TIME: 0 days 0 hours 0 minutes 20 seconds 663 msec
