                         Program Version 4.2.1 -  RELEASE  -
|  1> ! wB97X-D3 SP def2-SVP
|  2> %pal
|  3> nprocs 24
|  4> end
|  5>
|  6> * xyz 0 1
|  7> S 	 -90.9311 	 -31.1211 	 -75.0715
|  8> C 	 -89.202 	 -31.331 	 -74.7885
|  9> C 	 -88.4362 	 -30.5745 	 -75.5998
| 10> C 	 -89.285 	 -29.5993 	 -76.2856
| 11> C 	 -90.6519 	 -29.8206 	 -76.2299
| 12> H 	 -88.8204 	 -28.8229 	 -76.9017
| 13> C 	 -86.9567 	 -30.75 	 -75.8842
| 14> H 	 -86.3446 	 -30.7339 	 -74.9473
| 15> H 	 -86.6799 	 -29.8935 	 -76.4835
| 16> C 	 -86.6493 	 -32.114 	 -76.5985
| 17> H 	 -85.5731 	 -32.3386 	 -76.6331
| 18> H 	 -87.0816 	 -32.9099 	 -76.0101
| 19> C 	 -87.1348 	 -32.1951 	 -78.0685
| 20> H 	 -86.8098 	 -31.2847 	 -78.6397
| 21> H 	 -86.7371 	 -33.109 	 -78.5705
| 22> H 	 -88.1837 	 -32.3433 	 -78.1725
| 23> S 	 -93.0775 	 -28.4687 	 -75.9248
| 24> C 	 -93.5022 	 -27.1385 	 -76.9541
| 25> C 	 -92.6845 	 -27.1118 	 -78.0614
| 26> C 	 -91.7458 	 -28.1788 	 -78.0795
| 27> C 	 -91.68 	 -28.9315 	 -76.8658
| 28> H 	 -92.7885 	 -26.4037 	 -78.8691
| 29> C 	 -90.7147 	 -28.2847 	 -79.1735
| 30> H 	 -89.7532 	 -28.2568 	 -78.6452
| 31> H 	 -90.7442 	 -27.3393 	 -79.7717
| 32> C 	 -90.7253 	 -29.4901 	 -80.1475
| 33> H 	 -91.5904 	 -29.3323 	 -80.8286
| 34> H 	 -91.0175 	 -30.2977 	 -79.5499
| 35> C 	 -89.414 	 -29.5378 	 -80.9135
| 36> H 	 -89.0684 	 -28.6352 	 -81.4408
| 37> H 	 -89.2974 	 -30.4782 	 -81.4916
| 38> H 	 -88.7075 	 -29.4878 	 -80.1484
| 39> H 	 -88.7945 	 -32.194 	 -74.3067
| 40> H 	 -94.3278 	 -26.421 	 -76.8023
| 41> *
| 42>
| 43>                          ****END OF INPUT****

CARTESIAN COORDINATES (ANGSTROEM)
---------------------------------
  S    -90.931100  -31.121100  -75.071500
  C    -89.202000  -31.331000  -74.788500
  C    -88.436200  -30.574500  -75.599800
  C    -89.285000  -29.599300  -76.285600
  C    -90.651900  -29.820600  -76.229900
  H    -88.820400  -28.822900  -76.901700
  C    -86.956700  -30.750000  -75.884200
  H    -86.344600  -30.733900  -74.947300
  H    -86.679900  -29.893500  -76.483500
  C    -86.649300  -32.114000  -76.598500
  H    -85.573100  -32.338600  -76.633100
  H    -87.081600  -32.909900  -76.010100
  C    -87.134800  -32.195100  -78.068500
  H    -86.809800  -31.284700  -78.639700
  H    -86.737100  -33.109000  -78.570500
  H    -88.183700  -32.343300  -78.172500
  S    -93.077500  -28.468700  -75.924800
  C    -93.502200  -27.138500  -76.954100
  C    -92.684500  -27.111800  -78.061400
  C    -91.745800  -28.178800  -78.079500
  C    -91.680000  -28.931500  -76.865800
  H    -92.788500  -26.403700  -78.869100
  C    -90.714700  -28.284700  -79.173500
  H    -89.753200  -28.256800  -78.645200
  H    -90.744200  -27.339300  -79.771700
  C    -90.725300  -29.490100  -80.147500
  H    -91.590400  -29.332300  -80.828600
  H    -91.017500  -30.297700  -79.549900
  C    -89.414000  -29.537800  -80.913500
  H    -89.068400  -28.635200  -81.440800
  H    -89.297400  -30.478200  -81.491600
  H    -88.707500  -29.487800  -80.148400
  H    -88.794500  -32.194000  -74.306700
  H    -94.327800  -26.421000  -76.802300

 Total Charge           Charge          ....    0
 Multiplicity           Mult            ....    1
 Number of Electrons    NEL             ....  134
 Basis Dimension        Dim             ....  322

ORBITAL ENERGIES
----------------

  NO   OCC          E(Eh)            E(eV)
   0   2.0000     -88.968467     -2420.9551
   1   2.0000     -88.966258     -2420.8950
   2   2.0000     -10.341361      -281.4027
   3   2.0000     -10.336485      -281.2701
   4   2.0000     -10.320388      -280.8320
   5   2.0000     -10.311274      -280.5840
   6   2.0000     -10.307091      -280.4702
   7   2.0000     -10.302104      -280.3345
   8   2.0000     -10.301966      -280.3308
   9   2.0000     -10.299283      -280.2577
  10   2.0000     -10.294260      -280.1210
  11   2.0000     -10.294216      -280.1199
  12   2.0000     -10.290036      -280.0061
  13   2.0000     -10.282599      -279.8037
  14   2.0000     -10.281594      -279.7764
  15   2.0000     -10.276585      -279.6401
  16   2.0000      -8.082696      -219.9413
  17   2.0000      -8.081250      -219.9020
  18   2.0000      -6.041444      -164.3961
  19   2.0000      -6.039731      -164.3494
  20   2.0000      -6.037342      -164.2844
  21   2.0000      -6.035520      -164.2349
  22   2.0000      -6.033142      -164.1701
  23   2.0000      -6.032208      -164.1447
  24   2.0000      -1.005154       -27.3516
  25   2.0000      -0.986765       -26.8512
  26   2.0000      -0.910200       -24.7678
  27   2.0000      -0.909042       -24.7363
  28   2.0000      -0.867427       -23.6039
  29   2.0000      -0.853176       -23.2161
  30   2.0000      -0.842988       -22.9389
  31   2.0000      -0.815993       -22.2043
  32   2.0000      -0.782286       -21.2871
  33   2.0000      -0.770317       -20.9614
  34   2.0000      -0.712018       -19.3750
  35   2.0000      -0.706140       -19.2151
  36   2.0000      -0.692202       -18.8358
  37   2.0000      -0.663395       -18.0519
  38   2.0000      -0.636307       -17.3148
  39   2.0000      -0.617524       -16.8037
  40   2.0000      -0.592807       -16.1311
  41   2.0000      -0.577137       -15.7047
  42   2.0000      -0.560483       -15.2515
  43   2.0000      -0.548296       -14.9199
  44   2.0000      -0.542796       -14.7702
  45   2.0000      -0.526963       -14.3394
  46   2.0000      -0.513657       -13.9773
  47   2.0000      -0.510768       -13.8987
  48   2.0000      -0.506254       -13.7759
  49   2.0000      -0.503937       -13.7128
  50   2.0000      -0.491971       -13.3872
  51   2.0000      -0.479439       -13.0462
  52   2.0000      -0.472681       -12.8623
  53   2.0000      -0.466145       -12.6845
  54   2.0000      -0.459149       -12.4941
  55   2.0000      -0.448077       -12.1928
  56   2.0000      -0.439477       -11.9588
  57   2.0000      -0.437262       -11.8985
  58   2.0000      -0.434520       -11.8239
  59   2.0000      -0.431334       -11.7372
  60   2.0000      -0.421416       -11.4673
  61   2.0000      -0.416115       -11.3231
  62   2.0000      -0.407670       -11.0933
  63   2.0000      -0.355617        -9.6768
  64   2.0000      -0.332117        -9.0374
  65   2.0000      -0.326948        -8.8967
  66   2.0000      -0.289983        -7.8908
  67   0.0000       0.021984         0.5982
  68   0.0000       0.072042         1.9604
  69   0.0000       0.103898         2.8272
  70   0.0000       0.118295         3.2190
  71   0.0000       0.126806         3.4506

MULLIKEN ATOMIC CHARGES
-----------------------
   0 S :    0.099950
   1 C :   -0.107906
   2 C :   -0.105838
   3 C :   -0.006198
   4 C :   -0.101341
   5 H :    0.020871
   6 C :    0.075374
   7 H :    0.047434
   8 H :    0.016543
   9 C :   -0.074208
  10 H :    0.035305
  11 H :    0.023615
  12 C :   -0.075172
  13 H :    0.043436
  14 H :    0.035021
  15 H :    0.038002
  16 S :    0.107216
  17 C :   -0.096198
  18 C :   -0.028021
  19 C :   -0.050585
  20 C :   -0.139707
  21 H :    0.019458
  22 C :   -0.011238
  23 H :    0.009881
  24 H :    0.018014
  25 C :   -0.015099
  26 H :    0.025447
  27 H :    0.022588
  28 C :   -0.012467
  29 H :    0.028660
  30 H :    0.050844
  31 H :   -0.007085
  32 H :    0.043219
  33 H :    0.070183
Sum of atomic charges:   -0.0000000

LOEWDIN ATOMIC CHARGES
----------------------
   0 S :    0.387844
   1 C :   -0.184910
   2 C :   -0.063655
   3 C :   -0.064156
   4 C :   -0.189813
   5 H :    0.026596
   6 C :   -0.028790
   7 H :    0.040434
   8 H :    0.025885
   9 C :   -0.037613
  10 H :    0.026328
  11 H :    0.020399
  12 C :   -0.071143
  13 H :    0.029065
  14 H :    0.031312
  15 H :    0.021373
  16 S :    0.421227
  17 C :   -0.193131
  18 C :   -0.074855
  19 C :   -0.057945
  20 C :   -0.201082
  21 H :    0.032012
  22 C :   -0.039016
  23 H :    0.024651
  24 H :    0.028952
  25 C :   -0.032236
  26 H :    0.025348
  27 H :    0.019488
  28 C :   -0.068384
  29 H :    0.032998
  30 H :    0.034310
  31 H :    0.015523
  32 H :    0.023427
  33 H :    0.039557

  Mayer bond orders larger than 0.100000
B(  0-S ,  1-C ) :   1.1244 B(  0-S ,  4-C ) :   1.1326 B(  1-C ,  2-C ) :   1.6560
B(  1-C , 32-H ) :   0.9595 B(  2-C ,  3-C ) :   1.2295 B(  2-C ,  6-C ) :   1.0210
B(  3-C ,  4-C ) :   1.5925 B(  3-C ,  5-H ) :   0.9776 B(  4-C , 20-C ) :   1.0429
B(  6-C ,  7-H ) :   0.9394 B(  6-C ,  8-H ) :   0.9430 B(  6-C ,  9-C ) :   1.0648
B(  9-C , 10-H ) :   0.9594 B(  9-C , 11-H ) :   0.9572 B(  9-C , 12-C ) :   1.0702
B( 12-C , 13-H ) :   0.9752 B( 12-C , 14-H ) :   0.9733 B( 12-C , 15-H ) :   0.9778
B( 16-S , 17-C ) :   1.1776 B( 16-S , 20-C ) :   1.1482 B( 17-C , 18-C ) :   1.5613
B( 17-C , 20-C ) :   0.1034 B( 17-C , 33-H ) :   0.9648 B( 18-C , 19-C ) :   1.3015
B( 18-C , 21-H ) :   0.9915 B( 19-C , 20-C ) :   1.5294 B( 19-C , 22-C ) :   1.0391
B( 22-C , 23-H ) :   0.9422 B( 22-C , 24-H ) :   0.9371 B( 22-C , 25-C ) :   1.0505
B( 25-C , 26-H ) :   0.9507 B( 25-C , 27-H ) :   0.9600 B( 25-C , 28-C ) :   1.0669
B( 28-C , 29-H ) :   0.9690 B( 28-C , 30-H ) :   0.9724 B( 28-C , 31-H ) :   0.9694

Dispersion correction           -0.015105718
FINAL SINGLE POINT ENERGY     -1339.870410758118

DIPOLE MOMENT
-------------
                                X             Y             Z
Electronic contribution:    -22.55660       5.21480      20.87690
Nuclear contribution   :     23.15969      -5.13038     -21.33247
                        -----------------------------------------
Total Dipole Moment    :      0.60309       0.08442      -0.45557
                        -----------------------------------------
Magnitude (a.u.)       :      0.76052
Magnitude (Debye)      :      1.93308

Rotational constants in cm-1:     0.018298     0.009947     0.007024
Rotational constants in MHz :   548.560638   298.208925   210.586435

                             ****ORCA TERMINATED NORMALLY****
TOTAL RUN TIME: 0 days 0 hours 0 minutes 22 seconds 347 msec
