                         Program Version 4.2.1 -  RELEASE  -
|  1> ! wB97X-D3 SP def2-SVP
|  2> %pal
|  3> nprocs 24
|  4> end
|  5>
|  6> * xyz 0 1
|  7> S 	 -87.4587 	 -3.84605 	 -116.453
|  8> C 	 -87.1926 	 -3.24309 	 -118.116
|  9> C 	 -88.2194 	 -2.43535 	 -118.581
| 10> C 	 -89.2331 	 -2.4511 	 -117.525
| 11> C 	 -88.9452 	 -3.03618 	 -116.335
| 12> H 	 -90.2448 	 -1.99494 	 -117.659
| 13> C 	 -88.5338 	 -1.89693 	 -119.921
| 14> H 	 -89.5463 	 -2.23055 	 -120.163
| 15> H 	 -87.8014 	 -2.43371 	 -120.555
| 16> C 	 -88.3071 	 -0.421654 	 -120.225
| 17> H 	 -88.5575 	 0.191781 	 -119.346
| 18> H 	 -87.2023 	 -0.294347 	 -120.303
| 19> C 	 -88.9521 	 0.049883 	 -121.543
| 20> H 	 -88.6397 	 -0.608036 	 -122.351
| 21> H 	 -90.0171 	 0.08766 	 -121.46
| 22> H 	 -88.7038 	 1.04302 	 -121.862
| 23> S 	 -90.0627 	 -4.84516 	 -114.546
| 24> C 	 -91.1034 	 -4.24149 	 -113.258
| 25> C 	 -91.2504 	 -2.87799 	 -113.431
| 26> C 	 -90.545 	 -2.27331 	 -114.522
| 27> C 	 -89.8886 	 -3.23466 	 -115.244
| 28> H 	 -91.846 	 -2.28957 	 -112.649
| 29> C 	 -90.4669 	 -0.746375 	 -114.742
| 30> H 	 -89.554 	 -0.500882 	 -115.193
| 31> H 	 -90.5355 	 -0.338326 	 -113.749
| 32> C 	 -91.599 	 -0.0426588 	 -115.594
| 33> H 	 -91.6835 	 -0.479685 	 -116.601
| 34> H 	 -91.3088 	 1.02463 	 -115.514
| 35> C 	 -92.9252 	 -0.341838 	 -114.932
| 36> H 	 -93.6724 	 0.378832 	 -115.264
| 37> H 	 -92.8284 	 -0.113205 	 -113.86
| 38> H 	 -93.2452 	 -1.37294 	 -115.095
| 39> H 	 -86.4453 	 -3.53479 	 -118.766
| 40> H 	 -91.5833 	 -4.79478 	 -112.458
| 41> *
| 42>
| 43>                          ****END OF INPUT****

CARTESIAN COORDINATES (ANGSTROEM)
---------------------------------
  S    -87.458700   -3.846050  -116.453000
  C    -87.192600   -3.243090  -118.116000
  C    -88.219400   -2.435350  -118.581000
  C    -89.233100   -2.451100  -117.525000
  C    -88.945200   -3.036180  -116.335000
  H    -90.244800   -1.994940  -117.659000
  C    -88.533800   -1.896930  -119.921000
  H    -89.546300   -2.230550  -120.163000
  H    -87.801400   -2.433710  -120.555000
  C    -88.307100   -0.421654  -120.225000
  H    -88.557500    0.191781  -119.346000
  H    -87.202300   -0.294347  -120.303000
  C    -88.952100    0.049883  -121.543000
  H    -88.639700   -0.608036  -122.351000
  H    -90.017100    0.087660  -121.460000
  H    -88.703800    1.043020  -121.862000
  S    -90.062700   -4.845160  -114.546000
  C    -91.103400   -4.241490  -113.258000
  C    -91.250400   -2.877990  -113.431000
  C    -90.545000   -2.273310  -114.522000
  C    -89.888600   -3.234660  -115.244000
  H    -91.846000   -2.289570  -112.649000
  C    -90.466900   -0.746375  -114.742000
  H    -89.554000   -0.500882  -115.193000
  H    -90.535500   -0.338326  -113.749000
  C    -91.599000   -0.042659  -115.594000
  H    -91.683500   -0.479685  -116.601000
  H    -91.308800    1.024630  -115.514000
  C    -92.925200   -0.341838  -114.932000
  H    -93.672400    0.378832  -115.264000
  H    -92.828400   -0.113205  -113.860000
  H    -93.245200   -1.372940  -115.095000
  H    -86.445300   -3.534790  -118.766000
  H    -91.583300   -4.794780  -112.458000

 Total Charge           Charge          ....    0
 Multiplicity           Mult            ....    1
 Number of Electrons    NEL             ....  134
 Basis Dimension        Dim             ....  322

ORBITAL ENERGIES
----------------

  NO   OCC          E(Eh)            E(eV)
   0   2.0000     -88.966474     -2420.9008
   1   2.0000     -88.966379     -2420.8982
   2   2.0000     -10.326410      -280.9959
   3   2.0000     -10.321131      -280.8523
   4   2.0000     -10.319445      -280.8064
   5   2.0000     -10.313906      -280.6556
   6   2.0000     -10.303984      -280.3857
   7   2.0000     -10.302735      -280.3517
   8   2.0000     -10.299217      -280.2559
   9   2.0000     -10.295955      -280.1672
  10   2.0000     -10.292777      -280.0807
  11   2.0000     -10.291507      -280.0461
  12   2.0000     -10.291485      -280.0456
  13   2.0000     -10.288759      -279.9714
  14   2.0000     -10.279100      -279.7085
  15   2.0000     -10.274810      -279.5918
  16   2.0000      -8.081535      -219.9097
  17   2.0000      -8.080603      -219.8844
  18   2.0000      -6.040183      -164.3617
  19   2.0000      -6.039208      -164.3352
  20   2.0000      -6.036052      -164.2493
  21   2.0000      -6.035175      -164.2254
  22   2.0000      -6.032046      -164.1403
  23   2.0000      -6.031288      -164.1197
  24   2.0000      -1.009680       -27.4748
  25   2.0000      -0.983895       -26.7731
  26   2.0000      -0.918481       -24.9931
  27   2.0000      -0.908243       -24.7145
  28   2.0000      -0.871766       -23.7220
  29   2.0000      -0.851587       -23.1729
  30   2.0000      -0.841959       -22.9109
  31   2.0000      -0.812427       -22.1073
  32   2.0000      -0.786917       -21.4131
  33   2.0000      -0.777866       -21.1668
  34   2.0000      -0.707600       -19.2548
  35   2.0000      -0.706681       -19.2298
  36   2.0000      -0.689108       -18.7516
  37   2.0000      -0.657341       -17.8872
  38   2.0000      -0.641549       -17.4574
  39   2.0000      -0.615482       -16.7481
  40   2.0000      -0.593482       -16.1495
  41   2.0000      -0.570243       -15.5171
  42   2.0000      -0.565091       -15.3769
  43   2.0000      -0.560124       -15.2418
  44   2.0000      -0.542779       -14.7698
  45   2.0000      -0.529592       -14.4109
  46   2.0000      -0.518975       -14.1220
  47   2.0000      -0.508001       -13.8234
  48   2.0000      -0.504622       -13.7315
  49   2.0000      -0.500874       -13.6295
  50   2.0000      -0.492486       -13.4012
  51   2.0000      -0.484265       -13.1775
  52   2.0000      -0.468599       -12.7512
  53   2.0000      -0.464315       -12.6347
  54   2.0000      -0.457482       -12.4487
  55   2.0000      -0.450315       -12.2537
  56   2.0000      -0.442739       -12.0475
  57   2.0000      -0.436278       -11.8717
  58   2.0000      -0.432686       -11.7740
  59   2.0000      -0.425467       -11.5775
  60   2.0000      -0.422394       -11.4939
  61   2.0000      -0.417433       -11.3589
  62   2.0000      -0.413331       -11.2473
  63   2.0000      -0.346981        -9.4418
  64   2.0000      -0.332197        -9.0395
  65   2.0000      -0.327599        -8.9144
  66   2.0000      -0.296218        -8.0605
  67   0.0000       0.031873         0.8673
  68   0.0000       0.074335         2.0228
  69   0.0000       0.110470         3.0060
  70   0.0000       0.119097         3.2408
  71   0.0000       0.130460         3.5500

MULLIKEN ATOMIC CHARGES
-----------------------
   0 S :    0.108422
   1 C :   -0.092730
   2 C :   -0.074183
   3 C :   -0.024349
   4 C :   -0.125343
   5 H :    0.013104
   6 C :    0.054576
   7 H :    0.037979
   8 H :    0.018808
   9 C :   -0.075900
  10 H :    0.031895
  11 H :    0.027981
  12 C :   -0.021430
  13 H :    0.030943
  14 H :    0.027942
  15 H :    0.026878
  16 S :    0.104460
  17 C :   -0.097400
  18 C :   -0.064093
  19 C :   -0.048032
  20 C :   -0.156051
  21 H :    0.039843
  22 C :    0.091254
  23 H :    0.020794
  24 H :    0.018421
  25 C :   -0.073716
  26 H :    0.040250
  27 H :    0.044883
  28 C :   -0.062057
  29 H :    0.030857
  30 H :    0.015715
  31 H :    0.056039
  32 H :    0.012965
  33 H :    0.061275
Sum of atomic charges:    0.0000000

LOEWDIN ATOMIC CHARGES
----------------------
   0 S :    0.410282
   1 C :   -0.171531
   2 C :   -0.058428
   3 C :   -0.066966
   4 C :   -0.217736
   5 H :    0.028919
   6 C :   -0.036421
   7 H :    0.035550
   8 H :    0.035538
   9 C :   -0.042738
  10 H :    0.023263
  11 H :    0.028175
  12 C :   -0.060790
  13 H :    0.027893
  14 H :    0.022598
  15 H :    0.025534
  16 S :    0.391505
  17 C :   -0.189098
  18 C :   -0.079463
  19 C :   -0.060025
  20 C :   -0.188411
  21 H :    0.039147
  22 C :   -0.019185
  23 H :    0.021683
  24 H :    0.027914
  25 C :   -0.034857
  26 H :    0.023866
  27 H :    0.031431
  28 C :   -0.069633
  29 H :    0.024823
  30 H :    0.020442
  31 H :    0.030238
  32 H :    0.010991
  33 H :    0.035491

  Mayer bond orders larger than 0.100000
B(  0-S ,  1-C ) :   1.1328 B(  0-S ,  4-C ) :   1.1270 B(  1-C ,  2-C ) :   1.6285
B(  1-C , 32-H ) :   0.9697 B(  2-C ,  3-C ) :   1.2170 B(  2-C ,  6-C ) :   1.0265
B(  3-C ,  4-C ) :   1.6104 B(  3-C ,  5-H ) :   0.9802 B(  4-C , 20-C ) :   1.0358
B(  6-C ,  7-H ) :   0.9468 B(  6-C ,  8-H ) :   0.9316 B(  6-C ,  9-C ) :   1.0512
B(  9-C , 10-H ) :   0.9618 B(  9-C , 11-H ) :   0.9532 B(  9-C , 12-C ) :   1.0779
B( 12-C , 13-H ) :   0.9730 B( 12-C , 14-H ) :   0.9764 B( 12-C , 15-H ) :   0.9737
B( 16-S , 17-C ) :   1.1337 B( 16-S , 20-C ) :   1.1359 B( 17-C , 18-C ) :   1.6305
B( 17-C , 33-H ) :   0.9687 B( 18-C , 19-C ) :   1.2392 B( 18-C , 21-H ) :   0.9711
B( 19-C , 20-C ) :   1.6116 B( 19-C , 22-C ) :   1.0333 B( 22-C , 23-H ) :   0.9281
B( 22-C , 24-H ) :   0.9371 B( 22-C , 25-C ) :   1.0741 B( 25-C , 26-H ) :   0.9512
B( 25-C , 27-H ) :   0.9545 B( 25-C , 28-C ) :   1.0835 B( 28-C , 29-H ) :   0.9701
B( 28-C , 30-H ) :   0.9732 B( 28-C , 31-H ) :   0.9711

Dispersion correction           -0.014267116
FINAL SINGLE POINT ENERGY     -1339.876329023652

DIPOLE MOMENT
-------------
                                X             Y             Z
Electronic contribution:     10.36927     -24.46047      15.45745
Nuclear contribution   :    -10.67588      25.03344     -15.76732
                        -----------------------------------------
Total Dipole Moment    :     -0.30661       0.57296      -0.30988
                        -----------------------------------------
Magnitude (a.u.)       :      0.71995
Magnitude (Debye)      :      1.82996

Rotational constants in cm-1:     0.018498     0.008892     0.006411
Rotational constants in MHz :   554.542516   266.581922   192.201747

                             ****ORCA TERMINATED NORMALLY****
TOTAL RUN TIME: 0 days 0 hours 0 minutes 20 seconds 562 msec
