                         Program Version 4.2.1 -  RELEASE  -
|  1> ! wB97X-D3 SP def2-SVP
|  2> %pal
|  3> nprocs 24
|  4> end
|  5>
|  6> * xyz 0 1
|  7> S 	 -81.0994 	 -0.836284 	 -60.1052
|  8> C 	 -79.5019 	 -0.0744841 	 -60.147
|  9> C 	 -78.5879 	 -0.97222 	 -59.5915
| 10> C 	 -79.1441 	 -2.22635 	 -59.2503
| 11> C 	 -80.4759 	 -2.35754 	 -59.5218
| 12> H 	 -78.5706 	 -2.98158 	 -58.7077
| 13> C 	 -77.0857 	 -0.660949 	 -59.3975
| 14> H 	 -76.8719 	 -0.477132 	 -58.3529
| 15> H 	 -76.989 	 0.353964 	 -59.685
| 16> C 	 -75.9952 	 -1.61256 	 -60.0163
| 17> H 	 -76.1834 	 -2.63082 	 -59.6526
| 18> H 	 -76.0113 	 -1.625 	 -61.0851
| 19> C 	 -74.6279 	 -1.30398 	 -59.4481
| 20> H 	 -74.5353 	 -1.75851 	 -58.4818
| 21> H 	 -73.9196 	 -1.81383 	 -60.0464
| 22> H 	 -74.4921 	 -0.18914 	 -59.3922
| 23> S 	 -82.3217 	 -3.40271 	 -57.774
| 24> C 	 -82.7647 	 -5.10769 	 -58.0188
| 25> C 	 -82.2691 	 -5.59375 	 -59.2142
| 26> C 	 -81.419 	 -4.58358 	 -59.8814
| 27> C 	 -81.2924 	 -3.40802 	 -59.1769
| 28> H 	 -82.4511 	 -6.55597 	 -59.546
| 29> C 	 -80.6282 	 -4.92095 	 -61.0755
| 30> H 	 -79.766 	 -5.41456 	 -60.6586
| 31> H 	 -80.1802 	 -4.08564 	 -61.5905
| 32> C 	 -81.3396 	 -5.85006 	 -62.1605
| 33> H 	 -81.9598 	 -6.71268 	 -61.7348
| 34> H 	 -80.5614 	 -6.29891 	 -62.7561
| 35> C 	 -82.4314 	 -5.03162 	 -62.9373
| 36> H 	 -83.344 	 -4.69377 	 -62.4255
| 37> H 	 -82.8155 	 -5.5658 	 -63.8005
| 38> H 	 -81.9228 	 -4.10214 	 -63.2454
| 39> H 	 -79.413 	 0.941428 	 -60.4851
| 40> H 	 -83.4827 	 -5.62426 	 -57.4183
| 41> *
| 42>
| 43>                          ****END OF INPUT****

CARTESIAN COORDINATES (ANGSTROEM)
---------------------------------
  S    -81.099400   -0.836284  -60.105200
  C    -79.501900   -0.074484  -60.147000
  C    -78.587900   -0.972220  -59.591500
  C    -79.144100   -2.226350  -59.250300
  C    -80.475900   -2.357540  -59.521800
  H    -78.570600   -2.981580  -58.707700
  C    -77.085700   -0.660949  -59.397500
  H    -76.871900   -0.477132  -58.352900
  H    -76.989000    0.353964  -59.685000
  C    -75.995200   -1.612560  -60.016300
  H    -76.183400   -2.630820  -59.652600
  H    -76.011300   -1.625000  -61.085100
  C    -74.627900   -1.303980  -59.448100
  H    -74.535300   -1.758510  -58.481800
  H    -73.919600   -1.813830  -60.046400
  H    -74.492100   -0.189140  -59.392200
  S    -82.321700   -3.402710  -57.774000
  C    -82.764700   -5.107690  -58.018800
  C    -82.269100   -5.593750  -59.214200
  C    -81.419000   -4.583580  -59.881400
  C    -81.292400   -3.408020  -59.176900
  H    -82.451100   -6.555970  -59.546000
  C    -80.628200   -4.920950  -61.075500
  H    -79.766000   -5.414560  -60.658600
  H    -80.180200   -4.085640  -61.590500
  C    -81.339600   -5.850060  -62.160500
  H    -81.959800   -6.712680  -61.734800
  H    -80.561400   -6.298910  -62.756100
  C    -82.431400   -5.031620  -62.937300
  H    -83.344000   -4.693770  -62.425500
  H    -82.815500   -5.565800  -63.800500
  H    -81.922800   -4.102140  -63.245400
  H    -79.413000    0.941428  -60.485100
  H    -83.482700   -5.624260  -57.418300

 Total Charge           Charge          ....    0
 Multiplicity           Mult            ....    1
 Number of Electrons    NEL             ....  134
 Basis Dimension        Dim             ....  322

ORBITAL ENERGIES
----------------

  NO   OCC          E(Eh)            E(eV)
   0   2.0000     -88.961429     -2420.7636
   1   2.0000     -88.960744     -2420.7449
   2   2.0000     -10.319425      -280.8058
   3   2.0000     -10.319012      -280.7946
   4   2.0000     -10.318154      -280.7712
   5   2.0000     -10.312317      -280.6124
   6   2.0000     -10.303139      -280.3627
   7   2.0000     -10.301268      -280.3117
   8   2.0000     -10.297761      -280.2163
   9   2.0000     -10.293289      -280.0946
  10   2.0000     -10.290399      -280.0160
  11   2.0000     -10.289624      -279.9949
  12   2.0000     -10.287666      -279.9416
  13   2.0000     -10.286900      -279.9208
  14   2.0000     -10.276978      -279.6508
  15   2.0000     -10.276310      -279.6326
  16   2.0000      -8.076101      -219.7619
  17   2.0000      -8.075666      -219.7500
  18   2.0000      -6.034767      -164.2144
  19   2.0000      -6.034099      -164.1962
  20   2.0000      -6.030636      -164.1019
  21   2.0000      -6.030070      -164.0866
  22   2.0000      -6.026670      -163.9940
  23   2.0000      -6.026553      -163.9909
  24   2.0000      -1.009414       -27.4676
  25   2.0000      -0.979320       -26.6487
  26   2.0000      -0.908990       -24.7349
  27   2.0000      -0.901483       -24.5306
  28   2.0000      -0.878809       -23.9136
  29   2.0000      -0.848428       -23.0869
  30   2.0000      -0.840148       -22.8616
  31   2.0000      -0.817707       -22.2509
  32   2.0000      -0.782377       -21.2896
  33   2.0000      -0.766500       -20.8575
  34   2.0000      -0.712010       -19.3748
  35   2.0000      -0.701050       -19.0765
  36   2.0000      -0.697121       -18.9696
  37   2.0000      -0.658556       -17.9202
  38   2.0000      -0.648131       -17.6365
  39   2.0000      -0.621845       -16.9213
  40   2.0000      -0.600025       -16.3275
  41   2.0000      -0.567522       -15.4431
  42   2.0000      -0.561848       -15.2887
  43   2.0000      -0.551887       -15.0176
  44   2.0000      -0.537343       -14.6218
  45   2.0000      -0.531561       -14.4645
  46   2.0000      -0.518353       -14.1051
  47   2.0000      -0.514820       -14.0090
  48   2.0000      -0.504763       -13.7353
  49   2.0000      -0.498681       -13.5698
  50   2.0000      -0.488203       -13.2847
  51   2.0000      -0.476808       -12.9746
  52   2.0000      -0.469248       -12.7689
  53   2.0000      -0.460250       -12.5240
  54   2.0000      -0.456613       -12.4251
  55   2.0000      -0.452362       -12.3094
  56   2.0000      -0.443046       -12.0559
  57   2.0000      -0.439326       -11.9547
  58   2.0000      -0.435502       -11.8506
  59   2.0000      -0.420460       -11.4413
  60   2.0000      -0.418319       -11.3830
  61   2.0000      -0.413585       -11.2542
  62   2.0000      -0.406606       -11.0643
  63   2.0000      -0.337320        -9.1790
  64   2.0000      -0.326496        -8.8844
  65   2.0000      -0.319885        -8.7045
  66   2.0000      -0.304197        -8.2776
  67   0.0000       0.041541         1.1304
  68   0.0000       0.057603         1.5675
  69   0.0000       0.119456         3.2506
  70   0.0000       0.124009         3.3745
  71   0.0000       0.130523         3.5517

MULLIKEN ATOMIC CHARGES
-----------------------
   0 S :    0.100595
   1 C :   -0.138575
   2 C :   -0.072917
   3 C :    0.032911
   4 C :   -0.192524
   5 H :    0.019532
   6 C :    0.083985
   7 H :    0.021249
   8 H :   -0.011872
   9 C :   -0.062081
  10 H :    0.023941
  11 H :    0.035188
  12 C :   -0.037732
  13 H :    0.028207
  14 H :    0.024324
  15 H :    0.041680
  16 S :    0.111319
  17 C :   -0.084403
  18 C :    0.003536
  19 C :   -0.028485
  20 C :   -0.152606
  21 H :   -0.006351
  22 C :    0.061503
  23 H :    0.033034
  24 H :    0.033266
  25 C :   -0.087220
  26 H :    0.038263
  27 H :    0.034420
  28 C :   -0.065390
  29 H :    0.045175
  30 H :    0.033534
  31 H :    0.028435
  32 H :    0.053234
  33 H :    0.052826
Sum of atomic charges:    0.0000000

LOEWDIN ATOMIC CHARGES
----------------------
   0 S :    0.399922
   1 C :   -0.187155
   2 C :   -0.062644
   3 C :   -0.058188
   4 C :   -0.199260
   5 H :    0.035007
   6 C :   -0.036460
   7 H :    0.032009
   8 H :    0.022158
   9 C :   -0.034440
  10 H :    0.024625
  11 H :    0.020440
  12 C :   -0.059859
  13 H :    0.023693
  14 H :    0.022628
  15 H :    0.029768
  16 S :    0.392053
  17 C :   -0.164740
  18 C :   -0.056896
  19 C :   -0.041471
  20 C :   -0.222310
  21 H :    0.017472
  22 C :   -0.035325
  23 H :    0.036361
  24 H :    0.030935
  25 C :   -0.038097
  26 H :    0.027884
  27 H :    0.023581
  28 C :   -0.073165
  29 H :    0.030764
  30 H :    0.023806
  31 H :    0.024917
  32 H :    0.026659
  33 H :    0.025328

  Mayer bond orders larger than 0.100000
B(  0-S ,  1-C ) :   1.1448 B(  0-S ,  4-C ) :   1.1470 B(  1-C ,  2-C ) :   1.5779
B(  1-C ,  4-C ) :   0.1047 B(  1-C , 32-H ) :   0.9770 B(  2-C ,  3-C ) :   1.2609
B(  2-C ,  6-C ) :   1.0225 B(  3-C ,  4-C ) :   1.5662 B(  3-C ,  5-H ) :   0.9936
B(  4-C , 20-C ) :   1.0830 B(  6-C ,  7-H ) :   0.9365 B(  6-C ,  8-H ) :   0.9279
B(  6-C ,  9-C ) :   1.0492 B(  9-C , 10-H ) :   0.9563 B(  9-C , 11-H ) :   0.9631
B(  9-C , 12-C ) :   1.0808 B( 12-C , 13-H ) :   0.9761 B( 12-C , 14-H ) :   0.9712
B( 12-C , 15-H ) :   0.9769 B( 16-S , 17-C ) :   1.1444 B( 16-S , 20-C ) :   1.1079
B( 17-C , 18-C ) :   1.6332 B( 17-C , 33-H ) :   0.9688 B( 18-C , 19-C ) :   1.1985
B( 18-C , 21-H ) :   1.0013 B( 19-C , 20-C ) :   1.6115 B( 19-C , 22-C ) :   1.0584
B( 22-C , 23-H ) :   0.9262 B( 22-C , 24-H ) :   0.9265 B( 22-C , 25-C ) :   1.0627
B( 25-C , 26-H ) :   0.9593 B( 25-C , 27-H ) :   0.9576 B( 25-C , 28-C ) :   1.0543
B( 28-C , 29-H ) :   0.9770 B( 28-C , 30-H ) :   0.9765 B( 28-C , 31-H ) :   0.9778

Dispersion correction           -0.014154078
FINAL SINGLE POINT ENERGY     -1339.866570726540

DIPOLE MOMENT
-------------
                                X             Y             Z
Electronic contribution:    -19.35032       6.68881      12.47447
Nuclear contribution   :     19.89148      -7.02611     -12.65238
                        -----------------------------------------
Total Dipole Moment    :      0.54116      -0.33730      -0.17791
                        -----------------------------------------
Magnitude (a.u.)       :      0.66203
Magnitude (Debye)      :      1.68274

Rotational constants in cm-1:     0.018995     0.007739     0.007025
Rotational constants in MHz :   569.443267   232.001994   210.598053

                             ****ORCA TERMINATED NORMALLY****
TOTAL RUN TIME: 0 days 0 hours 0 minutes 21 seconds 455 msec
