                         Program Version 4.2.1 -  RELEASE  -
|  1> ! wB97X-D3 SP def2-SVP
|  2> %pal
|  3> nprocs 24
|  4> end
|  5>
|  6> * xyz 0 1
|  7> S 	 -101.811 	 -3.98339 	 -106.169
|  8> C 	 -101.714 	 -4.93738 	 -107.613
|  9> C 	 -102.52 	 -4.41786 	 -108.59
| 10> C 	 -103.332 	 -3.38643 	 -108.06
| 11> C 	 -103.211 	 -3.19563 	 -106.725
| 12> H 	 -104.094 	 -2.98272 	 -108.651
| 13> C 	 -102.624 	 -4.82501 	 -110.067
| 14> H 	 -103.667 	 -4.78382 	 -110.326
| 15> H 	 -102.41 	 -5.91942 	 -110.145
| 16> C 	 -101.741 	 -4.13147 	 -111.103
| 17> H 	 -101.341 	 -3.13476 	 -110.777
| 18> H 	 -100.834 	 -4.7545 	 -111.084
| 19> C 	 -102.285 	 -4.13393 	 -112.509
| 20> H 	 -102.35 	 -5.149 	 -112.991
| 21> H 	 -103.089 	 -3.47255 	 -112.653
| 22> H 	 -101.553 	 -3.65429 	 -113.083
| 23> S 	 -103.265 	 -0.578771 	 -105.573
| 24> C 	 -104.645 	 -0.187101 	 -104.549
| 25> C 	 -105.561 	 -1.16052 	 -104.481
| 26> C 	 -105.252 	 -2.32566 	 -105.284
| 27> C 	 -103.955 	 -2.2295 	 -105.853
| 28> H 	 -106.503 	 -0.845507 	 -104.067
| 29> C 	 -106.176 	 -3.48251 	 -105.32
| 30> H 	 -105.386 	 -4.18511 	 -105.632
| 31> H 	 -106.934 	 -3.36813 	 -106.112
| 32> C 	 -106.618 	 -4.03575 	 -103.921
| 33> H 	 -107.41 	 -3.22742 	 -103.663
| 34> H 	 -105.825 	 -4.0364 	 -103.142
| 35> C 	 -107.466 	 -5.33585 	 -104.064
| 36> H 	 -108.208 	 -5.44696 	 -104.906
| 37> H 	 -107.976 	 -5.44782 	 -103.158
| 38> H 	 -106.791 	 -6.22575 	 -104.186
| 39> H 	 -100.984 	 -5.77837 	 -107.706
| 40> H 	 -104.855 	 0.837448 	 -104.258
| 41> *
| 42>
| 43>                          ****END OF INPUT****

CARTESIAN COORDINATES (ANGSTROEM)
---------------------------------
  S    -101.811000   -3.983390  -106.169000
  C    -101.714000   -4.937380  -107.613000
  C    -102.520000   -4.417860  -108.590000
  C    -103.332000   -3.386430  -108.060000
  C    -103.211000   -3.195630  -106.725000
  H    -104.094000   -2.982720  -108.651000
  C    -102.624000   -4.825010  -110.067000
  H    -103.667000   -4.783820  -110.326000
  H    -102.410000   -5.919420  -110.145000
  C    -101.741000   -4.131470  -111.103000
  H    -101.341000   -3.134760  -110.777000
  H    -100.834000   -4.754500  -111.084000
  C    -102.285000   -4.133930  -112.509000
  H    -102.350000   -5.149000  -112.991000
  H    -103.089000   -3.472550  -112.653000
  H    -101.553000   -3.654290  -113.083000
  S    -103.265000   -0.578771  -105.573000
  C    -104.645000   -0.187101  -104.549000
  C    -105.561000   -1.160520  -104.481000
  C    -105.252000   -2.325660  -105.284000
  C    -103.955000   -2.229500  -105.853000
  H    -106.503000   -0.845507  -104.067000
  C    -106.176000   -3.482510  -105.320000
  H    -105.386000   -4.185110  -105.632000
  H    -106.934000   -3.368130  -106.112000
  C    -106.618000   -4.035750  -103.921000
  H    -107.410000   -3.227420  -103.663000
  H    -105.825000   -4.036400  -103.142000
  C    -107.466000   -5.335850  -104.064000
  H    -108.208000   -5.446960  -104.906000
  H    -107.976000   -5.447820  -103.158000
  H    -106.791000   -6.225750  -104.186000
  H    -100.984000   -5.778370  -107.706000
  H    -104.855000    0.837448  -104.258000

 Total Charge           Charge          ....    0
 Multiplicity           Mult            ....    1
 Number of Electrons    NEL             ....  134
 Basis Dimension        Dim             ....  322

ORBITAL ENERGIES
----------------

  NO   OCC          E(Eh)            E(eV)
   0   2.0000     -88.961522     -2420.7661
   1   2.0000     -88.961123     -2420.7552
   2   2.0000     -10.333583      -281.1911
   3   2.0000     -10.323472      -280.9160
   4   2.0000     -10.314087      -280.6606
   5   2.0000     -10.311685      -280.5952
   6   2.0000     -10.306557      -280.4557
   7   2.0000     -10.301781      -280.3257
   8   2.0000     -10.297290      -280.2035
   9   2.0000     -10.291868      -280.0560
  10   2.0000     -10.288976      -279.9773
  11   2.0000     -10.288830      -279.9733
  12   2.0000     -10.285100      -279.8718
  13   2.0000     -10.283369      -279.8247
  14   2.0000     -10.282288      -279.7953
  15   2.0000     -10.274160      -279.5741
  16   2.0000      -8.077536      -219.8009
  17   2.0000      -8.075402      -219.7429
  18   2.0000      -6.035919      -164.2457
  19   2.0000      -6.033978      -164.1929
  20   2.0000      -6.031850      -164.1350
  21   2.0000      -6.030179      -164.0895
  22   2.0000      -6.028272      -164.0376
  23   2.0000      -6.026002      -163.9758
  24   2.0000      -1.010617       -27.5003
  25   2.0000      -0.981126       -26.6978
  26   2.0000      -0.911443       -24.8016
  27   2.0000      -0.903417       -24.5832
  28   2.0000      -0.868270       -23.6268
  29   2.0000      -0.851812       -23.1790
  30   2.0000      -0.843790       -22.9607
  31   2.0000      -0.817114       -22.2348
  32   2.0000      -0.786851       -21.4113
  33   2.0000      -0.767543       -20.8859
  34   2.0000      -0.701155       -19.0794
  35   2.0000      -0.698225       -18.9997
  36   2.0000      -0.692194       -18.8356
  37   2.0000      -0.647541       -17.6205
  38   2.0000      -0.643376       -17.5072
  39   2.0000      -0.623064       -16.9544
  40   2.0000      -0.589691       -16.0463
  41   2.0000      -0.568629       -15.4732
  42   2.0000      -0.561647       -15.2832
  43   2.0000      -0.559793       -15.2327
  44   2.0000      -0.528448       -14.3798
  45   2.0000      -0.522512       -14.2183
  46   2.0000      -0.521103       -14.1799
  47   2.0000      -0.507260       -13.8032
  48   2.0000      -0.502584       -13.6760
  49   2.0000      -0.501068       -13.6347
  50   2.0000      -0.489113       -13.3094
  51   2.0000      -0.477823       -13.0022
  52   2.0000      -0.470169       -12.7939
  53   2.0000      -0.460304       -12.5255
  54   2.0000      -0.458751       -12.4833
  55   2.0000      -0.451861       -12.2958
  56   2.0000      -0.445567       -12.1245
  57   2.0000      -0.438875       -11.9424
  58   2.0000      -0.434034       -11.8107
  59   2.0000      -0.421684       -11.4746
  60   2.0000      -0.419402       -11.4125
  61   2.0000      -0.409079       -11.1316
  62   2.0000      -0.389079       -10.5874
  63   2.0000      -0.335446        -9.1280
  64   2.0000      -0.327694        -8.9170
  65   2.0000      -0.324072        -8.8184
  66   2.0000      -0.307289        -8.3618
  67   0.0000       0.047544         1.2937
  68   0.0000       0.051825         1.4102
  69   0.0000       0.116141         3.1604
  70   0.0000       0.123625         3.3640
  71   0.0000       0.129333         3.5193

MULLIKEN ATOMIC CHARGES
-----------------------
   0 S :    0.114359
   1 C :   -0.144147
   2 C :   -0.083571
   3 C :    0.071429
   4 C :   -0.181067
   5 H :   -0.013826
   6 C :    0.058471
   7 H :    0.016499
   8 H :    0.024511
   9 C :   -0.086864
  10 H :    0.039447
  11 H :    0.022978
  12 C :   -0.009296
  13 H :    0.044514
  14 H :    0.026229
  15 H :    0.009623
  16 S :    0.090033
  17 C :   -0.091589
  18 C :   -0.023509
  19 C :   -0.042098
  20 C :   -0.155297
  21 H :    0.018501
  22 C :    0.050001
  23 H :    0.034524
  24 H :    0.054223
  25 C :   -0.121851
  26 H :    0.036806
  27 H :    0.059917
  28 C :   -0.043927
  29 H :    0.042329
  30 H :    0.027076
  31 H :    0.037593
  32 H :    0.059976
  33 H :    0.058007
Sum of atomic charges:   -0.0000000

LOEWDIN ATOMIC CHARGES
----------------------
   0 S :    0.430384
   1 C :   -0.200758
   2 C :   -0.067685
   3 C :   -0.052783
   4 C :   -0.216613
   5 H :    0.022045
   6 C :   -0.036008
   7 H :    0.023330
   8 H :    0.034799
   9 C :   -0.046950
  10 H :    0.030032
  11 H :    0.027081
  12 C :   -0.065322
  13 H :    0.036686
  14 H :    0.021017
  15 H :    0.024764
  16 S :    0.365854
  17 C :   -0.172722
  18 C :   -0.080687
  19 C :   -0.048234
  20 C :   -0.188214
  21 H :    0.032177
  22 C :   -0.048157
  23 H :    0.037759
  24 H :    0.038926
  25 C :   -0.039761
  26 H :    0.028014
  27 H :    0.036556
  28 C :   -0.070767
  29 H :    0.034043
  30 H :    0.017990
  31 H :    0.028923
  32 H :    0.034690
  33 H :    0.029594

  Mayer bond orders larger than 0.100000
B(  0-S ,  1-C ) :   1.1547 B(  0-S ,  4-C ) :   1.1665 B(  1-C ,  2-C ) :   1.5981
B(  1-C , 32-H ) :   0.9677 B(  2-C ,  3-C ) :   1.2614 B(  2-C ,  6-C ) :   1.0186
B(  3-C ,  4-C ) :   1.5713 B(  3-C ,  5-H ) :   1.0097 B(  4-C , 20-C ) :   0.9924
B(  6-C ,  7-H ) :   0.9499 B(  6-C ,  8-H ) :   0.9421 B(  6-C ,  9-C ) :   1.0395
B(  9-C , 10-H ) :   0.9611 B(  9-C , 11-H ) :   0.9541 B(  9-C , 12-C ) :   1.0963
B( 12-C , 13-H ) :   0.9704 B( 12-C , 14-H ) :   0.9713 B( 12-C , 15-H ) :   0.9625
B( 16-S , 17-C ) :   1.1363 B( 16-S , 20-C ) :   1.1293 B( 17-C , 18-C ) :   1.6753
B( 17-C , 33-H ) :   0.9579 B( 18-C , 19-C ) :   1.1937 B( 18-C , 21-H ) :   0.9830
B( 19-C , 20-C ) :   1.6300 B( 19-C , 22-C ) :   1.0353 B( 22-C , 23-H ) :   0.9366
B( 22-C , 24-H ) :   0.9297 B( 22-C , 25-C ) :   1.0541 B( 25-C , 26-H ) :   0.9545
B( 25-C , 27-H ) :   0.9586 B( 25-C , 28-C ) :   1.0661 B( 28-C , 29-H ) :   0.9755
B( 28-C , 30-H ) :   0.9756 B( 28-C , 31-H ) :   0.9757

Dispersion correction           -0.013401561
FINAL SINGLE POINT ENERGY     -1339.845570472093

DIPOLE MOMENT
-------------
                                X             Y             Z
Electronic contribution:     12.21510      13.56179      13.52609
Nuclear contribution   :    -12.64300     -13.76821     -13.99259
                        -----------------------------------------
Total Dipole Moment    :     -0.42790      -0.20642      -0.46650
                        -----------------------------------------
Magnitude (a.u.)       :      0.66583
Magnitude (Debye)      :      1.69241

Rotational constants in cm-1:     0.018757     0.007188     0.006279
Rotational constants in MHz :   562.320003   215.490551   188.244763

                             ****ORCA TERMINATED NORMALLY****
TOTAL RUN TIME: 0 days 0 hours 0 minutes 20 seconds 484 msec
