                         Program Version 4.2.1 -  RELEASE  -
|  1> ! wB97X-D3 SP def2-SVP
|  2> %pal
|  3> nprocs 24
|  4> end
|  5>
|  6> * xyz 0 1
|  7> S 	 -31.8562 	 -35.872 	 -94.8911
|  8> C 	 -30.4697 	 -35.4795 	 -93.9542
|  9> C 	 -30.7565 	 -35.1506 	 -92.6441
| 10> C 	 -32.158 	 -35.1535 	 -92.3944
| 11> C 	 -32.9042 	 -35.5096 	 -93.5577
| 12> H 	 -32.7366 	 -34.9325 	 -91.5293
| 13> C 	 -29.6978 	 -34.8531 	 -91.599
| 14> H 	 -30.1033 	 -34.1772 	 -90.9044
| 15> H 	 -28.9067 	 -34.3143 	 -92.0824
| 16> C 	 -29.2171 	 -36.0241 	 -90.7894
| 17> H 	 -29.1436 	 -36.9211 	 -91.3848
| 18> H 	 -28.1578 	 -35.9553 	 -90.4156
| 19> C 	 -30.1827 	 -36.3788 	 -89.6348
| 20> H 	 -30.2043 	 -35.6649 	 -88.8278
| 21> H 	 -31.1998 	 -36.6325 	 -90.0328
| 22> H 	 -29.6469 	 -37.2862 	 -89.2973
| 23> S 	 -35.0464 	 -36.958 	 -92.8564
| 24> C 	 -36.6465 	 -36.347 	 -92.9386
| 25> C 	 -36.6363 	 -34.9843 	 -93.1904
| 26> C 	 -35.2974 	 -34.5164 	 -93.5141
| 27> C 	 -34.3252 	 -35.524 	 -93.5247
| 28> H 	 -37.5077 	 -34.407 	 -93.1209
| 29> C 	 -34.9917 	 -33.0347 	 -93.6297
| 30> H 	 -33.919 	 -32.8178 	 -93.7316
| 31> H 	 -35.3175 	 -32.5689 	 -92.7532
| 32> C 	 -35.5158 	 -32.2714 	 -94.9012
| 33> H 	 -36.5892 	 -31.9901 	 -94.7836
| 34> H 	 -35.5009 	 -32.9117 	 -95.7841
| 35> C 	 -34.8181 	 -30.8994 	 -95.2021
| 36> H 	 -35.041 	 -30.4965 	 -96.143
| 37> H 	 -33.7551 	 -31.0216 	 -95.2558
| 38> H 	 -34.9907 	 -30.178 	 -94.3749
| 39> H 	 -29.4753 	 -35.5248 	 -94.3446
| 40> H 	 -37.6119 	 -36.8261 	 -92.8012
| 41> *
| 42>
| 43>                          ****END OF INPUT****

CARTESIAN COORDINATES (ANGSTROEM)
---------------------------------
  S    -31.856200  -35.872000  -94.891100
  C    -30.469700  -35.479500  -93.954200
  C    -30.756500  -35.150600  -92.644100
  C    -32.158000  -35.153500  -92.394400
  C    -32.904200  -35.509600  -93.557700
  H    -32.736600  -34.932500  -91.529300
  C    -29.697800  -34.853100  -91.599000
  H    -30.103300  -34.177200  -90.904400
  H    -28.906700  -34.314300  -92.082400
  C    -29.217100  -36.024100  -90.789400
  H    -29.143600  -36.921100  -91.384800
  H    -28.157800  -35.955300  -90.415600
  C    -30.182700  -36.378800  -89.634800
  H    -30.204300  -35.664900  -88.827800
  H    -31.199800  -36.632500  -90.032800
  H    -29.646900  -37.286200  -89.297300
  S    -35.046400  -36.958000  -92.856400
  C    -36.646500  -36.347000  -92.938600
  C    -36.636300  -34.984300  -93.190400
  C    -35.297400  -34.516400  -93.514100
  C    -34.325200  -35.524000  -93.524700
  H    -37.507700  -34.407000  -93.120900
  C    -34.991700  -33.034700  -93.629700
  H    -33.919000  -32.817800  -93.731600
  H    -35.317500  -32.568900  -92.753200
  C    -35.515800  -32.271400  -94.901200
  H    -36.589200  -31.990100  -94.783600
  H    -35.500900  -32.911700  -95.784100
  C    -34.818100  -30.899400  -95.202100
  H    -35.041000  -30.496500  -96.143000
  H    -33.755100  -31.021600  -95.255800
  H    -34.990700  -30.178000  -94.374900
  H    -29.475300  -35.524800  -94.344600
  H    -37.611900  -36.826100  -92.801200

 Total Charge           Charge          ....    0
 Multiplicity           Mult            ....    1
 Number of Electrons    NEL             ....  134
 Basis Dimension        Dim             ....  322

ORBITAL ENERGIES
----------------

  NO   OCC          E(Eh)            E(eV)
   0   2.0000     -88.972083     -2421.0535
   1   2.0000     -88.961543     -2420.7667
   2   2.0000     -10.325514      -280.9715
   3   2.0000     -10.321201      -280.8542
   4   2.0000     -10.314873      -280.6820
   5   2.0000     -10.310923      -280.5745
   6   2.0000     -10.306776      -280.4616
   7   2.0000     -10.301260      -280.3115
   8   2.0000     -10.296022      -280.1690
   9   2.0000     -10.290180      -280.0100
  10   2.0000     -10.288093      -279.9532
  11   2.0000     -10.286475      -279.9092
  12   2.0000     -10.284971      -279.8683
  13   2.0000     -10.281893      -279.7845
  14   2.0000     -10.279363      -279.7157
  15   2.0000     -10.273724      -279.5622
  16   2.0000      -8.087089      -220.0609
  17   2.0000      -8.077167      -219.7909
  18   2.0000      -6.045367      -164.5028
  19   2.0000      -6.041474      -164.3969
  20   2.0000      -6.038173      -164.3070
  21   2.0000      -6.035754      -164.2412
  22   2.0000      -6.031447      -164.1240
  23   2.0000      -6.027864      -164.0265
  24   2.0000      -1.009762       -27.4770
  25   2.0000      -0.986664       -26.8485
  26   2.0000      -0.915748       -24.9188
  27   2.0000      -0.898642       -24.4533
  28   2.0000      -0.875021       -23.8105
  29   2.0000      -0.850542       -23.1444
  30   2.0000      -0.844616       -22.9832
  31   2.0000      -0.812493       -22.1091
  32   2.0000      -0.784470       -21.3465
  33   2.0000      -0.770500       -20.9664
  34   2.0000      -0.706775       -19.2323
  35   2.0000      -0.697847       -18.9894
  36   2.0000      -0.693560       -18.8727
  37   2.0000      -0.659334       -17.9414
  38   2.0000      -0.652166       -17.7463
  39   2.0000      -0.612304       -16.6617
  40   2.0000      -0.593938       -16.1619
  41   2.0000      -0.577409       -15.7121
  42   2.0000      -0.558987       -15.2108
  43   2.0000      -0.554757       -15.0957
  44   2.0000      -0.538773       -14.6608
  45   2.0000      -0.526094       -14.3157
  46   2.0000      -0.520504       -14.1636
  47   2.0000      -0.516159       -14.0454
  48   2.0000      -0.502810       -13.6821
  49   2.0000      -0.493233       -13.4216
  50   2.0000      -0.487634       -13.2692
  51   2.0000      -0.483654       -13.1609
  52   2.0000      -0.470015       -12.7897
  53   2.0000      -0.468883       -12.7590
  54   2.0000      -0.462995       -12.5987
  55   2.0000      -0.446481       -12.1494
  56   2.0000      -0.442572       -12.0430
  57   2.0000      -0.436664       -11.8822
  58   2.0000      -0.434021       -11.8103
  59   2.0000      -0.421077       -11.4581
  60   2.0000      -0.416782       -11.3412
  61   2.0000      -0.414314       -11.2741
  62   2.0000      -0.408114       -11.1054
  63   2.0000      -0.337488        -9.1835
  64   2.0000      -0.325687        -8.8624
  65   2.0000      -0.316055        -8.6003
  66   2.0000      -0.310870        -8.4592
  67   0.0000       0.042345         1.1523
  68   0.0000       0.051405         1.3988
  69   0.0000       0.109114         2.9691
  70   0.0000       0.127279         3.4634
  71   0.0000       0.128718         3.5026

MULLIKEN ATOMIC CHARGES
-----------------------
   0 S :    0.145494
   1 C :   -0.115898
   2 C :   -0.086425
   3 C :    0.045553
   4 C :   -0.197045
   5 H :    0.008656
   6 C :    0.140843
   7 H :    0.001874
   8 H :    0.013832
   9 C :   -0.086952
  10 H :    0.019702
  11 H :    0.032239
  12 C :   -0.071727
  13 H :    0.035694
  14 H :    0.052226
  15 H :    0.033546
  16 S :    0.112254
  17 C :   -0.078969
  18 C :   -0.022629
  19 C :   -0.028871
  20 C :   -0.176961
  21 H :    0.001542
  22 C :    0.084551
  23 H :    0.024674
  24 H :    0.020064
  25 C :   -0.104228
  26 H :    0.027381
  27 H :    0.035269
  28 C :   -0.042548
  29 H :    0.025462
  30 H :    0.019672
  31 H :    0.036177
  32 H :    0.037964
  33 H :    0.057584
Sum of atomic charges:   -0.0000000

LOEWDIN ATOMIC CHARGES
----------------------
   0 S :    0.442016
   1 C :   -0.202270
   2 C :   -0.060507
   3 C :   -0.047469
   4 C :   -0.222039
   5 H :    0.028030
   6 C :   -0.030992
   7 H :    0.023925
   8 H :    0.028552
   9 C :   -0.045409
  10 H :    0.021175
  11 H :    0.029210
  12 C :   -0.065981
  13 H :    0.018472
  14 H :    0.031899
  15 H :    0.032710
  16 S :    0.428345
  17 C :   -0.196021
  18 C :   -0.068686
  19 C :   -0.046328
  20 C :   -0.214251
  21 H :    0.022347
  22 C :   -0.030375
  23 H :    0.032511
  24 H :    0.024317
  25 C :   -0.041119
  26 H :    0.021222
  27 H :    0.023898
  28 C :   -0.065200
  29 H :    0.020598
  30 H :    0.019498
  31 H :    0.029087
  32 H :    0.023666
  33 H :    0.035170

  Mayer bond orders larger than 0.100000
B(  0-S ,  1-C ) :   1.1653 B(  0-S ,  4-C ) :   1.1675 B(  1-C ,  2-C ) :   1.5815
B(  1-C ,  4-C ) :   0.1017 B(  1-C , 32-H ) :   0.9709 B(  2-C ,  3-C ) :   1.2546
B(  2-C ,  6-C ) :   1.0292 B(  3-C ,  4-C ) :   1.5304 B(  3-C ,  5-H ) :   1.0013
B(  4-C , 20-C ) :   1.0404 B(  6-C ,  7-H ) :   0.9359 B(  6-C ,  8-H ) :   0.9327
B(  6-C ,  9-C ) :   1.0584 B(  9-C , 10-H ) :   0.9590 B(  9-C , 11-H ) :   0.9555
B(  9-C , 12-C ) :   1.0732 B( 12-C , 13-H ) :   0.9773 B( 12-C , 14-H ) :   0.9728
B( 12-C , 15-H ) :   0.9755 B( 16-S , 17-C ) :   1.1709 B( 16-S , 20-C ) :   1.1420
B( 17-C , 18-C ) :   1.5936 B( 17-C , 33-H ) :   0.9663 B( 18-C , 19-C ) :   1.2406
B( 18-C , 21-H ) :   1.0024 B( 19-C , 20-C ) :   1.5829 B( 19-C , 22-C ) :   1.0552
B( 22-C , 23-H ) :   0.9414 B( 22-C , 24-H ) :   0.9345 B( 22-C , 25-C ) :   1.0426
B( 25-C , 26-H ) :   0.9568 B( 25-C , 27-H ) :   0.9622 B( 25-C , 28-C ) :   1.0829
B( 28-C , 29-H ) :   0.9748 B( 28-C , 30-H ) :   0.9734 B( 28-C , 31-H ) :   0.9771

Dispersion correction           -0.014240515
FINAL SINGLE POINT ENERGY     -1339.866956900082

DIPOLE MOMENT
-------------
                                X             Y             Z
Electronic contribution:     -6.77413     -16.01465      -8.67935
Nuclear contribution   :      6.92556      16.43426       8.99070
                        -----------------------------------------
Total Dipole Moment    :      0.15143       0.41961       0.31135
                        -----------------------------------------
Magnitude (a.u.)       :      0.54401
Magnitude (Debye)      :      1.38275

Rotational constants in cm-1:     0.017770     0.008451     0.007116
Rotational constants in MHz :   532.728443   253.367747   213.346847

                             ****ORCA TERMINATED NORMALLY****
TOTAL RUN TIME: 0 days 0 hours 0 minutes 21 seconds 504 msec
