                         Program Version 4.2.1 -  RELEASE  -
|  1> ! wB97X-D3 SP def2-SVP
|  2> %pal
|  3> nprocs 24
|  4> end
|  5>
|  6> * xyz 0 1
|  7> S 	 -35.2397 	 6.70614 	 4.49164
|  8> C 	 -35.1149 	 5.34897 	 3.40402
|  9> C 	 -33.8128 	 4.81709 	 3.39615
| 10> C 	 -32.9895 	 5.50925 	 4.33286
| 11> C 	 -33.5784 	 6.53645 	 5.03167
| 12> H 	 -32.0168 	 5.23579 	 4.6181
| 13> C 	 -33.3037 	 3.59239 	 2.65056
| 14> H 	 -32.3211 	 3.67497 	 2.1752
| 15> H 	 -34.0993 	 3.33828 	 1.9514
| 16> C 	 -33.2895 	 2.38171 	 3.58426
| 17> H 	 -32.7271 	 2.61558 	 4.45041
| 18> H 	 -34.2841 	 2.31749 	 4.0037
| 19> C 	 -32.8868 	 0.976661 	 3.04211
| 20> H 	 -31.7931 	 0.946798 	 2.80702
| 21> H 	 -33.2002 	 0.192511 	 3.74166
| 22> H 	 -33.324 	 0.801616 	 2.08842
| 23> S 	 -31.3426 	 7.94742 	 5.70556
| 24> C 	 -31.2658 	 8.57119 	 7.30357
| 25> C 	 -32.4222 	 8.4418 	 7.98811
| 26> C 	 -33.3844 	 7.63315 	 7.36752
| 27> C 	 -32.9288 	 7.33188 	 6.06925
| 28> H 	 -32.6612 	 8.78995 	 8.93737
| 29> C 	 -34.7162 	 7.17649 	 7.94925
| 30> H 	 -35.5471 	 6.90015 	 7.30551
| 31> H 	 -35.2328 	 7.98648 	 8.60047
| 32> C 	 -34.5813 	 5.96471 	 8.86836
| 33> H 	 -35.6038 	 5.77928 	 9.17309
| 34> H 	 -34.0322 	 6.15337 	 9.78331
| 35> C 	 -34.021 	 4.62786 	 8.28632
| 36> H 	 -33.9542 	 3.77369 	 9.0146
| 37> H 	 -33.0063 	 4.72145 	 7.99848
| 38> H 	 -34.6466 	 4.28242 	 7.40275
| 39> H 	 -35.8304 	 4.85899 	 2.70199
| 40> H 	 -30.5317 	 9.23491 	 7.70017
| 41> *
| 42>
| 43>                          ****END OF INPUT****

CARTESIAN COORDINATES (ANGSTROEM)
---------------------------------
  S    -35.239700    6.706140    4.491640
  C    -35.114900    5.348970    3.404020
  C    -33.812800    4.817090    3.396150
  C    -32.989500    5.509250    4.332860
  C    -33.578400    6.536450    5.031670
  H    -32.016800    5.235790    4.618100
  C    -33.303700    3.592390    2.650560
  H    -32.321100    3.674970    2.175200
  H    -34.099300    3.338280    1.951400
  C    -33.289500    2.381710    3.584260
  H    -32.727100    2.615580    4.450410
  H    -34.284100    2.317490    4.003700
  C    -32.886800    0.976661    3.042110
  H    -31.793100    0.946798    2.807020
  H    -33.200200    0.192511    3.741660
  H    -33.324000    0.801616    2.088420
  S    -31.342600    7.947420    5.705560
  C    -31.265800    8.571190    7.303570
  C    -32.422200    8.441800    7.988110
  C    -33.384400    7.633150    7.367520
  C    -32.928800    7.331880    6.069250
  H    -32.661200    8.789950    8.937370
  C    -34.716200    7.176490    7.949250
  H    -35.547100    6.900150    7.305510
  H    -35.232800    7.986480    8.600470
  C    -34.581300    5.964710    8.868360
  H    -35.603800    5.779280    9.173090
  H    -34.032200    6.153370    9.783310
  C    -34.021000    4.627860    8.286320
  H    -33.954200    3.773690    9.014600
  H    -33.006300    4.721450    7.998480
  H    -34.646600    4.282420    7.402750
  H    -35.830400    4.858990    2.701990
  H    -30.531700    9.234910    7.700170

 Total Charge           Charge          ....    0
 Multiplicity           Mult            ....    1
 Number of Electrons    NEL             ....  134
 Basis Dimension        Dim             ....  322

ORBITAL ENERGIES
----------------

  NO   OCC          E(Eh)            E(eV)
   0   2.0000     -88.972987     -2421.0781
   1   2.0000     -88.970650     -2421.0145
   2   2.0000     -10.327057      -281.0135
   3   2.0000     -10.326275      -280.9922
   4   2.0000     -10.319133      -280.7979
   5   2.0000     -10.309845      -280.5451
   6   2.0000     -10.303151      -280.3630
   7   2.0000     -10.302289      -280.3395
   8   2.0000     -10.300840      -280.3001
   9   2.0000     -10.293929      -280.1121
  10   2.0000     -10.284933      -279.8673
  11   2.0000     -10.284916      -279.8668
  12   2.0000     -10.283301      -279.8228
  13   2.0000     -10.281186      -279.7653
  14   2.0000     -10.278805      -279.7005
  15   2.0000     -10.277017      -279.6519
  16   2.0000      -8.088039      -220.0867
  17   2.0000      -8.084443      -219.9889
  18   2.0000      -6.046378      -164.5303
  19   2.0000      -6.043074      -164.4404
  20   2.0000      -6.042605      -164.4277
  21   2.0000      -6.038962      -164.3285
  22   2.0000      -6.038859      -164.3257
  23   2.0000      -6.035240      -164.2272
  24   2.0000      -1.011974       -27.5372
  25   2.0000      -0.987833       -26.8803
  26   2.0000      -0.911792       -24.8111
  27   2.0000      -0.907434       -24.6925
  28   2.0000      -0.871234       -23.7075
  29   2.0000      -0.851234       -23.1632
  30   2.0000      -0.843968       -22.9655
  31   2.0000      -0.812911       -22.1204
  32   2.0000      -0.785104       -21.3638
  33   2.0000      -0.773978       -21.0610
  34   2.0000      -0.706778       -19.2324
  35   2.0000      -0.697168       -18.9709
  36   2.0000      -0.689134       -18.7523
  37   2.0000      -0.668514       -18.1912
  38   2.0000      -0.636274       -17.3139
  39   2.0000      -0.620490       -16.8844
  40   2.0000      -0.607539       -16.5320
  41   2.0000      -0.574424       -15.6309
  42   2.0000      -0.556852       -15.1527
  43   2.0000      -0.548493       -14.9252
  44   2.0000      -0.539656       -14.6848
  45   2.0000      -0.523067       -14.2334
  46   2.0000      -0.510982       -13.9045
  47   2.0000      -0.503925       -13.7125
  48   2.0000      -0.500346       -13.6151
  49   2.0000      -0.495124       -13.4730
  50   2.0000      -0.490926       -13.3588
  51   2.0000      -0.478750       -13.0275
  52   2.0000      -0.471940       -12.8421
  53   2.0000      -0.467180       -12.7126
  54   2.0000      -0.459088       -12.4924
  55   2.0000      -0.453973       -12.3532
  56   2.0000      -0.446738       -12.1564
  57   2.0000      -0.439339       -11.9550
  58   2.0000      -0.432017       -11.7558
  59   2.0000      -0.425281       -11.5725
  60   2.0000      -0.419445       -11.4137
  61   2.0000      -0.415353       -11.3023
  62   2.0000      -0.408049       -11.1036
  63   2.0000      -0.348376        -9.4798
  64   2.0000      -0.339403        -9.2356
  65   2.0000      -0.329225        -8.9587
  66   2.0000      -0.289372        -7.8742
  67   0.0000       0.028656         0.7798
  68   0.0000       0.075643         2.0584
  69   0.0000       0.108012         2.9391
  70   0.0000       0.122251         3.3266
  71   0.0000       0.125363         3.4113

MULLIKEN ATOMIC CHARGES
-----------------------
   0 S :    0.125905
   1 C :   -0.128829
   2 C :   -0.110448
   3 C :    0.025464
   4 C :   -0.135827
   5 H :   -0.012546
   6 C :    0.098739
   7 H :    0.039747
   8 H :    0.009256
   9 C :   -0.094435
  10 H :    0.013698
  11 H :    0.011360
  12 C :   -0.023864
  13 H :    0.033485
  14 H :    0.048375
  15 H :    0.015702
  16 S :    0.139794
  17 C :   -0.059460
  18 C :    0.003718
  19 C :   -0.016719
  20 C :   -0.178657
  21 H :   -0.018986
  22 C :    0.035925
  23 H :    0.026623
  24 H :    0.040366
  25 C :   -0.075158
  26 H :    0.021866
  27 H :    0.023997
  28 C :   -0.069187
  29 H :    0.034979
  30 H :    0.029425
  31 H :    0.041994
  32 H :    0.057471
  33 H :    0.046227
Sum of atomic charges:   -0.0000000

LOEWDIN ATOMIC CHARGES
----------------------
   0 S :    0.419323
   1 C :   -0.216557
   2 C :   -0.059682
   3 C :   -0.064740
   4 C :   -0.194319
   5 H :    0.016884
   6 C :   -0.027934
   7 H :    0.032615
   8 H :    0.028213
   9 C :   -0.044178
  10 H :    0.014786
  11 H :    0.021732
  12 C :   -0.064786
  13 H :    0.029237
  14 H :    0.033192
  15 H :    0.017729
  16 S :    0.439861
  17 C :   -0.197011
  18 C :   -0.057414
  19 C :   -0.053368
  20 C :   -0.196768
  21 H :    0.020734
  22 C :   -0.041667
  23 H :    0.024351
  24 H :    0.044565
  25 C :   -0.041165
  26 H :    0.022597
  27 H :    0.018388
  28 C :   -0.073069
  29 H :    0.031063
  30 H :    0.017461
  31 H :    0.031511
  32 H :    0.041209
  33 H :    0.027208

  Mayer bond orders larger than 0.100000
B(  0-S ,  1-C ) :   1.1426 B(  0-S ,  4-C ) :   1.1363 B(  1-C ,  2-C ) :   1.6083
B(  1-C , 32-H ) :   0.9551 B(  2-C ,  3-C ) :   1.2425 B(  2-C ,  6-C ) :   1.0416
B(  3-C ,  4-C ) :   1.5768 B(  3-C ,  5-H ) :   0.9978 B(  4-C , 20-C ) :   1.0393
B(  6-C ,  7-H ) :   0.9438 B(  6-C ,  8-H ) :   0.9300 B(  6-C ,  9-C ) :   1.0594
B(  9-C , 10-H ) :   0.9589 B(  9-C , 11-H ) :   0.9499 B(  9-C , 12-C ) :   1.0769
B( 12-C , 13-H ) :   0.9738 B( 12-C , 14-H ) :   0.9750 B( 12-C , 15-H ) :   0.9742
B( 16-S , 17-C ) :   1.1484 B( 16-S , 20-C ) :   1.1684 B( 17-C , 18-C ) :   1.5929
B( 17-C , 33-H ) :   0.9640 B( 18-C , 19-C ) :   1.2846 B( 18-C , 21-H ) :   0.9886
B( 19-C , 20-C ) :   1.5479 B( 19-C , 22-C ) :   1.0339 B( 22-C , 23-H ) :   0.9386
B( 22-C , 24-H ) :   0.9358 B( 22-C , 25-C ) :   1.0710 B( 25-C , 26-H ) :   0.9556
B( 25-C , 27-H ) :   0.9582 B( 25-C , 28-C ) :   1.0741 B( 28-C , 29-H ) :   0.9742
B( 28-C , 30-H ) :   0.9749 B( 28-C , 31-H ) :   0.9737

Dispersion correction           -0.015336256
FINAL SINGLE POINT ENERGY     -1339.875685854809

DIPOLE MOMENT
-------------
                                X             Y             Z
Electronic contribution:      3.06242      24.32642      -4.42489
Nuclear contribution   :     -3.05812     -24.66140       4.66441
                        -----------------------------------------
Total Dipole Moment    :      0.00430      -0.33498       0.23952
                        -----------------------------------------
Magnitude (a.u.)       :      0.41183
Magnitude (Debye)      :      1.04679

Rotational constants in cm-1:     0.019792     0.008343     0.007843
Rotational constants in MHz :   593.357278   250.110359   235.130335

                             ****ORCA TERMINATED NORMALLY****
TOTAL RUN TIME: 0 days 0 hours 0 minutes 21 seconds 134 msec
