                         Program Version 4.2.1 -  RELEASE  -
|  1> ! wB97X-D3 SP def2-SVP
|  2> %pal
|  3> nprocs 24
|  4> end
|  5>
|  6> * xyz 0 1
|  7> S 	 -120.871 	 57.9236 	 -35.0146
|  8> C 	 -122.353 	 57.8881 	 -35.992
|  9> C 	 -122.805 	 59.2218 	 -36.1742
| 10> C 	 -121.925 	 60.1726 	 -35.5467
| 11> C 	 -120.932 	 59.6405 	 -34.775
| 12> H 	 -121.99 	 61.2716 	 -35.7268
| 13> C 	 -123.965 	 59.6357 	 -37.0349
| 14> H 	 -124.481 	 60.4673 	 -36.5501
| 15> H 	 -124.583 	 58.7078 	 -37.2052
| 16> C 	 -123.59 	 60.0946 	 -38.3981
| 17> H 	 -124.544 	 60.2958 	 -38.8721
| 18> H 	 -123.163 	 61.0794 	 -38.2167
| 19> C 	 -122.783 	 59.0784 	 -39.1491
| 20> H 	 -123.42 	 58.1845 	 -39.2806
| 21> H 	 -122.609 	 59.4747 	 -40.1529
| 22> H 	 -121.936 	 58.7259 	 -38.5939
| 23> S 	 -118.213 	 60.0644 	 -34.5133
| 24> C 	 -117.566 	 60.9595 	 -33.1547
| 25> C 	 -118.549 	 61.3546 	 -32.2578
| 26> C 	 -119.888 	 60.9816 	 -32.7583
| 27> C 	 -119.914 	 60.2624 	 -33.9613
| 28> H 	 -118.326 	 62.0066 	 -31.3863
| 29> C 	 -121.212 	 61.3594 	 -32.0099
| 30> H 	 -121.269 	 60.9851 	 -30.9809
| 31> H 	 -121.996 	 60.7959 	 -32.5721
| 32> C 	 -121.696 	 62.8388 	 -32.0921
| 33> H 	 -121.449 	 63.3145 	 -33.0984
| 34> H 	 -121.029 	 63.4004 	 -31.4588
| 35> C 	 -123.173 	 62.9652 	 -31.6447
| 36> H 	 -123.444 	 63.9234 	 -31.3949
| 37> H 	 -123.359 	 62.3375 	 -30.7361
| 38> H 	 -123.792 	 62.7374 	 -32.5169
| 39> H 	 -122.887 	 57.1032 	 -36.5272
| 40> H 	 -116.585 	 61.3449 	 -32.9667
| 41> *
| 42>
| 43>                          ****END OF INPUT****

CARTESIAN COORDINATES (ANGSTROEM)
---------------------------------
  S    -120.871000   57.923600  -35.014600
  C    -122.353000   57.888100  -35.992000
  C    -122.805000   59.221800  -36.174200
  C    -121.925000   60.172600  -35.546700
  C    -120.932000   59.640500  -34.775000
  H    -121.990000   61.271600  -35.726800
  C    -123.965000   59.635700  -37.034900
  H    -124.481000   60.467300  -36.550100
  H    -124.583000   58.707800  -37.205200
  C    -123.590000   60.094600  -38.398100
  H    -124.544000   60.295800  -38.872100
  H    -123.163000   61.079400  -38.216700
  C    -122.783000   59.078400  -39.149100
  H    -123.420000   58.184500  -39.280600
  H    -122.609000   59.474700  -40.152900
  H    -121.936000   58.725900  -38.593900
  S    -118.213000   60.064400  -34.513300
  C    -117.566000   60.959500  -33.154700
  C    -118.549000   61.354600  -32.257800
  C    -119.888000   60.981600  -32.758300
  C    -119.914000   60.262400  -33.961300
  H    -118.326000   62.006600  -31.386300
  C    -121.212000   61.359400  -32.009900
  H    -121.269000   60.985100  -30.980900
  H    -121.996000   60.795900  -32.572100
  C    -121.696000   62.838800  -32.092100
  H    -121.449000   63.314500  -33.098400
  H    -121.029000   63.400400  -31.458800
  C    -123.173000   62.965200  -31.644700
  H    -123.444000   63.923400  -31.394900
  H    -123.359000   62.337500  -30.736100
  H    -123.792000   62.737400  -32.516900
  H    -122.887000   57.103200  -36.527200
  H    -116.585000   61.344900  -32.966700

 Total Charge           Charge          ....    0
 Multiplicity           Mult            ....    1
 Number of Electrons    NEL             ....  134
 Basis Dimension        Dim             ....  322

ORBITAL ENERGIES
----------------

  NO   OCC          E(Eh)            E(eV)
   0   2.0000     -88.968613     -2420.9590
   1   2.0000     -88.966610     -2420.9045
   2   2.0000     -10.333820      -281.1975
   3   2.0000     -10.331150      -281.1249
   4   2.0000     -10.321556      -280.8638
   5   2.0000     -10.320875      -280.8453
   6   2.0000     -10.316337      -280.7218
   7   2.0000     -10.303494      -280.3723
   8   2.0000     -10.302821      -280.3540
   9   2.0000     -10.298870      -280.2465
  10   2.0000     -10.294391      -280.1246
  11   2.0000     -10.291049      -280.0337
  12   2.0000     -10.290525      -280.0194
  13   2.0000     -10.279537      -279.7204
  14   2.0000     -10.277650      -279.6691
  15   2.0000     -10.274595      -279.5859
  16   2.0000      -8.082884      -219.9464
  17   2.0000      -8.080504      -219.8817
  18   2.0000      -6.041557      -164.3991
  19   2.0000      -6.039233      -164.3359
  20   2.0000      -6.037310      -164.2836
  21   2.0000      -6.035038      -164.2217
  22   2.0000      -6.033584      -164.1822
  23   2.0000      -6.031145      -164.1158
  24   2.0000      -1.004467       -27.3329
  25   2.0000      -0.977557       -26.6007
  26   2.0000      -0.926642       -25.2152
  27   2.0000      -0.898387       -24.4463
  28   2.0000      -0.870343       -23.6832
  29   2.0000      -0.845837       -23.0164
  30   2.0000      -0.840273       -22.8650
  31   2.0000      -0.815650       -22.1950
  32   2.0000      -0.785809       -21.3829
  33   2.0000      -0.771390       -20.9906
  34   2.0000      -0.712473       -19.3874
  35   2.0000      -0.694879       -18.9086
  36   2.0000      -0.693129       -18.8610
  37   2.0000      -0.655010       -17.8237
  38   2.0000      -0.636445       -17.3186
  39   2.0000      -0.619767       -16.8647
  40   2.0000      -0.588499       -16.0139
  41   2.0000      -0.571752       -15.5582
  42   2.0000      -0.561317       -15.2742
  43   2.0000      -0.557303       -15.1650
  44   2.0000      -0.551648       -15.0111
  45   2.0000      -0.522562       -14.2196
  46   2.0000      -0.516158       -14.0454
  47   2.0000      -0.514567       -14.0021
  48   2.0000      -0.511052       -13.9064
  49   2.0000      -0.497373       -13.5342
  50   2.0000      -0.486168       -13.2293
  51   2.0000      -0.472526       -12.8581
  52   2.0000      -0.469815       -12.7843
  53   2.0000      -0.461862       -12.5679
  54   2.0000      -0.458323       -12.4716
  55   2.0000      -0.450329       -12.2541
  56   2.0000      -0.440501       -11.9867
  57   2.0000      -0.438266       -11.9258
  58   2.0000      -0.436277       -11.8717
  59   2.0000      -0.423261       -11.5175
  60   2.0000      -0.416202       -11.3254
  61   2.0000      -0.410572       -11.1722
  62   2.0000      -0.407223       -11.0811
  63   2.0000      -0.341380        -9.2894
  64   2.0000      -0.330871        -9.0035
  65   2.0000      -0.326505        -8.8847
  66   2.0000      -0.301689        -8.2094
  67   0.0000       0.033518         0.9121
  68   0.0000       0.054987         1.4963
  69   0.0000       0.113978         3.1015
  70   0.0000       0.116842         3.1794
  71   0.0000       0.122930         3.3451

MULLIKEN ATOMIC CHARGES
-----------------------
   0 S :    0.120842
   1 C :   -0.106374
   2 C :   -0.140508
   3 C :    0.033343
   4 C :   -0.158406
   5 H :    0.029278
   6 C :    0.039562
   7 H :    0.031583
   8 H :    0.021271
   9 C :   -0.052053
  10 H :    0.025012
  11 H :    0.016903
  12 C :   -0.029862
  13 H :    0.013380
  14 H :    0.039891
  15 H :    0.053908
  16 S :    0.100905
  17 C :   -0.070292
  18 C :   -0.047713
  19 C :   -0.029945
  20 C :   -0.156629
  21 H :    0.041230
  22 C :    0.018764
  23 H :    0.038537
  24 H :    0.031334
  25 C :   -0.089051
  26 H :    0.035142
  27 H :    0.014692
  28 C :   -0.018609
  29 H :    0.010280
  30 H :    0.041479
  31 H :    0.040321
  32 H :    0.049263
  33 H :    0.052521
Sum of atomic charges:    0.0000000

LOEWDIN ATOMIC CHARGES
----------------------
   0 S :    0.413959
   1 C :   -0.201421
   2 C :   -0.063316
   3 C :   -0.066815
   4 C :   -0.205258
   5 H :    0.038163
   6 C :   -0.036798
   7 H :    0.033147
   8 H :    0.031513
   9 C :   -0.044197
  10 H :    0.025408
  11 H :    0.019125
  12 C :   -0.061761
  13 H :    0.026258
  14 H :    0.030609
  15 H :    0.026595
  16 S :    0.386494
  17 C :   -0.180425
  18 C :   -0.079206
  19 C :   -0.043444
  20 C :   -0.193929
  21 H :    0.040179
  22 C :   -0.038012
  23 H :    0.030139
  24 H :    0.031940
  25 C :   -0.046325
  26 H :    0.029677
  27 H :    0.013132
  28 C :   -0.059434
  29 H :    0.013124
  30 H :    0.034533
  31 H :    0.031308
  32 H :    0.033694
  33 H :    0.031346

  Mayer bond orders larger than 0.100000
B(  0-S ,  1-C ) :   1.1327 B(  0-S ,  4-C ) :   1.1507 B(  1-C ,  2-C ) :   1.5938
B(  1-C ,  4-C ) :   0.1016 B(  1-C , 32-H ) :   0.9647 B(  2-C ,  3-C ) :   1.2368
B(  2-C ,  6-C ) :   1.0407 B(  3-C ,  4-C ) :   1.5850 B(  3-C ,  5-H ) :   0.9868
B(  4-C , 20-C ) :   1.0251 B(  6-C ,  7-H ) :   0.9373 B(  6-C ,  8-H ) :   0.9360
B(  6-C ,  9-C ) :   1.0841 B(  9-C , 10-H ) :   0.9512 B(  9-C , 11-H ) :   0.9492
B(  9-C , 12-C ) :   1.0751 B( 12-C , 13-H ) :   0.9684 B( 12-C , 14-H ) :   0.9698
B( 12-C , 15-H ) :   0.9717 B( 16-S , 17-C ) :   1.1509 B( 16-S , 20-C ) :   1.1103
B( 17-C , 18-C ) :   1.6351 B( 17-C , 33-H ) :   0.9638 B( 18-C , 19-C ) :   1.2135
B( 18-C , 21-H ) :   0.9825 B( 19-C , 20-C ) :   1.6296 B( 19-C , 22-C ) :   1.0357
B( 22-C , 23-H ) :   0.9413 B( 22-C , 24-H ) :   0.9435 B( 22-C , 25-C ) :   1.0464
B( 25-C , 26-H ) :   0.9574 B( 25-C , 27-H ) :   0.9571 B( 25-C , 28-C ) :   1.0742
B( 28-C , 29-H ) :   0.9727 B( 28-C , 30-H ) :   0.9736 B( 28-C , 31-H ) :   0.9754

Dispersion correction           -0.014339689
FINAL SINGLE POINT ENERGY     -1339.867246084701

DIPOLE MOMENT
-------------
                                X             Y             Z
Electronic contribution:     20.71446     -12.67228       3.54469
Nuclear contribution   :    -21.14054      13.24692      -3.57323
                        -----------------------------------------
Total Dipole Moment    :     -0.42608       0.57464      -0.02855
                        -----------------------------------------
Magnitude (a.u.)       :      0.71594
Magnitude (Debye)      :      1.81978

Rotational constants in cm-1:     0.018112     0.008781     0.006828
Rotational constants in MHz :   542.978418   263.235522   204.702967

                             ****ORCA TERMINATED NORMALLY****
TOTAL RUN TIME: 0 days 0 hours 0 minutes 21 seconds 446 msec
