                         Program Version 4.2.1 -  RELEASE  -
|  1> ! wB97X-D3 SP def2-SVP
|  2> %pal
|  3> nprocs 24
|  4> end
|  5>
|  6> * xyz 0 1
|  7> S 	 -86.1425 	 -7.02658 	 -61.7497
|  8> C 	 -87.6776 	 -6.93585 	 -62.4396
|  9> C 	 -88.2288 	 -5.65641 	 -62.1919
| 10> C 	 -87.2247 	 -4.68953 	 -61.8339
| 11> C 	 -85.9868 	 -5.32683 	 -61.6777
| 12> H 	 -87.4081 	 -3.59558 	 -61.6639
| 13> C 	 -89.6457 	 -5.31938 	 -62.5142
| 14> H 	 -89.7761 	 -4.5536 	 -61.6569
| 15> H 	 -90.2637 	 -6.18146 	 -62.2191
| 16> C 	 -89.9326 	 -4.71734 	 -63.8806
| 17> H 	 -89.2461 	 -3.88418 	 -64.1524
| 18> H 	 -89.698 	 -5.46599 	 -64.6508
| 19> C 	 -91.4028 	 -4.19089 	 -63.9495
| 20> H 	 -91.2786 	 -3.10675 	 -63.9023
| 21> H 	 -91.9401 	 -4.35902 	 -64.876
| 22> H 	 -92.1077 	 -4.44504 	 -63.137
| 23> S 	 -83.6726 	 -5.79508 	 -60.2527
| 24> C 	 -82.6593 	 -4.46334 	 -59.7052
| 25> C 	 -82.9177 	 -3.34723 	 -60.5304
| 26> C 	 -84.0788 	 -3.49741 	 -61.3139
| 27> C 	 -84.7542 	 -4.73193 	 -61.088
| 28> H 	 -82.1908 	 -2.6018 	 -60.5516
| 29> C 	 -84.5678 	 -2.40563 	 -62.2514
| 30> H 	 -85.588 	 -2.60483 	 -62.4867
| 31> H 	 -84.0748 	 -2.50955 	 -63.2207
| 32> C 	 -84.4293 	 -0.976367 	 -61.7005
| 33> H 	 -83.3647 	 -0.637339 	 -61.7311
| 34> H 	 -84.6404 	 -1.05314 	 -60.6586
| 35> C 	 -85.2928 	 0.0166655 	 -62.5054
| 36> H 	 -85.3653 	 0.974615 	 -62.0656
| 37> H 	 -86.3261 	 -0.390793 	 -62.4358
| 38> H 	 -85.0297 	 0.0380911 	 -63.5929
| 39> H 	 -88.3654 	 -7.70576 	 -62.6598
| 40> H 	 -81.9035 	 -4.45768 	 -58.9284
| 41> *
| 42>
| 43>                          ****END OF INPUT****

CARTESIAN COORDINATES (ANGSTROEM)
---------------------------------
  S    -86.142500   -7.026580  -61.749700
  C    -87.677600   -6.935850  -62.439600
  C    -88.228800   -5.656410  -62.191900
  C    -87.224700   -4.689530  -61.833900
  C    -85.986800   -5.326830  -61.677700
  H    -87.408100   -3.595580  -61.663900
  C    -89.645700   -5.319380  -62.514200
  H    -89.776100   -4.553600  -61.656900
  H    -90.263700   -6.181460  -62.219100
  C    -89.932600   -4.717340  -63.880600
  H    -89.246100   -3.884180  -64.152400
  H    -89.698000   -5.465990  -64.650800
  C    -91.402800   -4.190890  -63.949500
  H    -91.278600   -3.106750  -63.902300
  H    -91.940100   -4.359020  -64.876000
  H    -92.107700   -4.445040  -63.137000
  S    -83.672600   -5.795080  -60.252700
  C    -82.659300   -4.463340  -59.705200
  C    -82.917700   -3.347230  -60.530400
  C    -84.078800   -3.497410  -61.313900
  C    -84.754200   -4.731930  -61.088000
  H    -82.190800   -2.601800  -60.551600
  C    -84.567800   -2.405630  -62.251400
  H    -85.588000   -2.604830  -62.486700
  H    -84.074800   -2.509550  -63.220700
  C    -84.429300   -0.976367  -61.700500
  H    -83.364700   -0.637339  -61.731100
  H    -84.640400   -1.053140  -60.658600
  C    -85.292800    0.016665  -62.505400
  H    -85.365300    0.974615  -62.065600
  H    -86.326100   -0.390793  -62.435800
  H    -85.029700    0.038091  -63.592900
  H    -88.365400   -7.705760  -62.659800
  H    -81.903500   -4.457680  -58.928400

 Total Charge           Charge          ....    0
 Multiplicity           Mult            ....    1
 Number of Electrons    NEL             ....  134
 Basis Dimension        Dim             ....  322

ORBITAL ENERGIES
----------------

  NO   OCC          E(Eh)            E(eV)
   0   2.0000     -88.968427     -2420.9540
   1   2.0000     -88.965906     -2420.8854
   2   2.0000     -10.332628      -281.1651
   3   2.0000     -10.330958      -281.1196
   4   2.0000     -10.319904      -280.8189
   5   2.0000     -10.304957      -280.4121
   6   2.0000     -10.304757      -280.4067
   7   2.0000     -10.300898      -280.3017
   8   2.0000     -10.300012      -280.2776
   9   2.0000     -10.296974      -280.1949
  10   2.0000     -10.295325      -280.1500
  11   2.0000     -10.290971      -280.0316
  12   2.0000     -10.286823      -279.9187
  13   2.0000     -10.286489      -279.9096
  14   2.0000     -10.282785      -279.8088
  15   2.0000     -10.280777      -279.7542
  16   2.0000      -8.084827      -219.9993
  17   2.0000      -8.080687      -219.8867
  18   2.0000      -6.043197      -164.4437
  19   2.0000      -6.039229      -164.3358
  20   2.0000      -6.039171      -164.3342
  21   2.0000      -6.035513      -164.2347
  22   2.0000      -6.035364      -164.2306
  23   2.0000      -6.031314      -164.1204
  24   2.0000      -1.013143       -27.5690
  25   2.0000      -0.987502       -26.8713
  26   2.0000      -0.913119       -24.8472
  27   2.0000      -0.908416       -24.7192
  28   2.0000      -0.866584       -23.5809
  29   2.0000      -0.852901       -23.2086
  30   2.0000      -0.845117       -22.9968
  31   2.0000      -0.815670       -22.1955
  32   2.0000      -0.778507       -21.1843
  33   2.0000      -0.767809       -20.8932
  34   2.0000      -0.709580       -19.3087
  35   2.0000      -0.703681       -19.1481
  36   2.0000      -0.698545       -19.0084
  37   2.0000      -0.657462       -17.8905
  38   2.0000      -0.635525       -17.2935
  39   2.0000      -0.622117       -16.9287
  40   2.0000      -0.595550       -16.2057
  41   2.0000      -0.568385       -15.4665
  42   2.0000      -0.564712       -15.3666
  43   2.0000      -0.554158       -15.0794
  44   2.0000      -0.531331       -14.4583
  45   2.0000      -0.526991       -14.3402
  46   2.0000      -0.521249       -14.1839
  47   2.0000      -0.507940       -13.8217
  48   2.0000      -0.503317       -13.6960
  49   2.0000      -0.496121       -13.5001
  50   2.0000      -0.492419       -13.3994
  51   2.0000      -0.485757       -13.2181
  52   2.0000      -0.473979       -12.8976
  53   2.0000      -0.463473       -12.6117
  54   2.0000      -0.458071       -12.4648
  55   2.0000      -0.453412       -12.3380
  56   2.0000      -0.445448       -12.1213
  57   2.0000      -0.441960       -12.0263
  58   2.0000      -0.438940       -11.9442
  59   2.0000      -0.426039       -11.5931
  60   2.0000      -0.421135       -11.4597
  61   2.0000      -0.414978       -11.2921
  62   2.0000      -0.401201       -10.9172
  63   2.0000      -0.356201        -9.6927
  64   2.0000      -0.333823        -9.0838
  65   2.0000      -0.321357        -8.7446
  66   2.0000      -0.276541        -7.5251
  67   0.0000       0.017556         0.4777
  68   0.0000       0.069883         1.9016
  69   0.0000       0.097363         2.6494
  70   0.0000       0.109835         2.9888
  71   0.0000       0.128856         3.5063

MULLIKEN ATOMIC CHARGES
-----------------------
   0 S :    0.116453
   1 C :   -0.060645
   2 C :   -0.149189
   3 C :   -0.010019
   4 C :   -0.113493
   5 H :    0.042751
   6 C :    0.006037
   7 H :    0.035665
   8 H :    0.034059
   9 C :   -0.041761
  10 H :    0.035724
  11 H :    0.031217
  12 C :   -0.061058
  13 H :    0.029129
  14 H :    0.034790
  15 H :    0.042262
  16 S :    0.089276
  17 C :   -0.092695
  18 C :   -0.021973
  19 C :   -0.064470
  20 C :   -0.130010
  21 H :    0.000183
  22 C :    0.108525
  23 H :   -0.017140
  24 H :    0.036239
  25 C :   -0.097896
  26 H :    0.034254
  27 H :    0.028707
  28 C :   -0.034502
  29 H :    0.032036
  30 H :    0.021350
  31 H :    0.045289
  32 H :    0.031894
  33 H :    0.059011
Sum of atomic charges:    0.0000000

LOEWDIN ATOMIC CHARGES
----------------------
   0 S :    0.451668
   1 C :   -0.225760
   2 C :   -0.062130
   3 C :   -0.077112
   4 C :   -0.199471
   5 H :    0.040113
   6 C :   -0.045977
   7 H :    0.041017
   8 H :    0.032312
   9 C :   -0.040082
  10 H :    0.030688
  11 H :    0.025867
  12 C :   -0.074915
  13 H :    0.029113
  14 H :    0.025461
  15 H :    0.029508
  16 S :    0.406402
  17 C :   -0.182215
  18 C :   -0.064130
  19 C :   -0.058485
  20 C :   -0.199706
  21 H :    0.021971
  22 C :   -0.030741
  23 H :    0.019714
  24 H :    0.036490
  25 C :   -0.042881
  26 H :    0.024433
  27 H :    0.020755
  28 C :   -0.064423
  29 H :    0.020607
  30 H :    0.026295
  31 H :    0.033441
  32 H :    0.021549
  33 H :    0.030622

  Mayer bond orders larger than 0.100000
B(  0-S ,  1-C ) :   1.1542 B(  0-S ,  4-C ) :   1.1847 B(  1-C ,  2-C ) :   1.5638
B(  1-C , 32-H ) :   0.9703 B(  2-C ,  3-C ) :   1.2804 B(  2-C ,  6-C ) :   1.0328
B(  3-C ,  4-C ) :   1.5141 B(  3-C ,  5-H ) :   0.9807 B(  4-C , 20-C ) :   1.0637
B(  6-C ,  7-H ) :   0.9417 B(  6-C ,  8-H ) :   0.9368 B(  6-C ,  9-C ) :   1.0582
B(  9-C , 10-H ) :   0.9644 B(  9-C , 11-H ) :   0.9571 B(  9-C , 12-C ) :   1.0438
B( 12-C , 13-H ) :   0.9806 B( 12-C , 14-H ) :   0.9779 B( 12-C , 15-H ) :   0.9808
B( 16-S , 17-C ) :   1.1670 B( 16-S , 20-C ) :   1.1528 B( 17-C , 18-C ) :   1.5574
B( 17-C , 20-C ) :   0.1141 B( 17-C , 33-H ) :   0.9718 B( 18-C , 19-C ) :   1.2799
B( 18-C , 21-H ) :   1.0034 B( 19-C , 20-C ) :   1.5247 B( 19-C , 22-C ) :   1.0479
B( 22-C , 23-H ) :   0.9358 B( 22-C , 24-H ) :   0.9143 B( 22-C , 25-C ) :   1.0606
B( 25-C , 26-H ) :   0.9464 B( 25-C , 27-H ) :   0.9628 B( 25-C , 28-C ) :   1.0810
B( 28-C , 29-H ) :   0.9740 B( 28-C , 30-H ) :   0.9746 B( 28-C , 31-H ) :   0.9738

Dispersion correction           -0.013474562
FINAL SINGLE POINT ENERGY     -1339.849489611768

DIPOLE MOMENT
-------------
                                X             Y             Z
Electronic contribution:     18.50131     -23.61883      12.02698
Nuclear contribution   :    -18.79945      24.18025     -12.17575
                        -----------------------------------------
Total Dipole Moment    :     -0.29814       0.56142      -0.14877
                        -----------------------------------------
Magnitude (a.u.)       :      0.65285
Magnitude (Debye)      :      1.65942

Rotational constants in cm-1:     0.017151     0.008776     0.005980
Rotational constants in MHz :   514.170731   263.105387   179.275167

                             ****ORCA TERMINATED NORMALLY****
TOTAL RUN TIME: 0 days 0 hours 0 minutes 21 seconds 163 msec
