                         Program Version 4.2.1 -  RELEASE  -
|  1> ! wB97X-D3 SP def2-SVP
|  2> %pal
|  3> nprocs 24
|  4> end
|  5>
|  6> * xyz 0 1
|  7> S 	 -34.8567 	 -38.5611 	 -92.7633
|  8> C 	 -33.6013 	 -38.452 	 -91.5669
|  9> C 	 -33.7095 	 -37.3315 	 -90.8274
| 10> C 	 -34.9255 	 -36.6562 	 -91.1002
| 11> C 	 -35.6521 	 -37.1876 	 -92.1025
| 12> H 	 -35.3415 	 -35.7953 	 -90.5754
| 13> C 	 -32.8499 	 -36.8973 	 -89.6378
| 14> H 	 -33.5101 	 -36.2848 	 -88.969
| 15> H 	 -31.9263 	 -36.3618 	 -89.9086
| 16> C 	 -32.5074 	 -38.0321 	 -88.6621
| 17> H 	 -31.8954 	 -38.7741 	 -89.1828
| 18> H 	 -32.0034 	 -37.7075 	 -87.7317
| 19> C 	 -33.7434 	 -38.8209 	 -88.1085
| 20> H 	 -34.1807 	 -38.208 	 -87.2975
| 21> H 	 -34.5173 	 -39.109 	 -88.81
| 22> H 	 -33.5602 	 -39.801 	 -87.6569
| 23> S 	 -38.5026 	 -37.3877 	 -92.0917
| 24> C 	 -39.3818 	 -36.1065 	 -92.8132
| 25> C 	 -38.6313 	 -35.1164 	 -93.3597
| 26> C 	 -37.2243 	 -35.4153 	 -93.1687
| 27> C 	 -36.9546 	 -36.6707 	 -92.5334
| 28> H 	 -39.0742 	 -34.3019 	 -93.8703
| 29> C 	 -36.2301 	 -34.4446 	 -93.8584
| 30> H 	 -36.424 	 -34.5658 	 -94.9459
| 31> H 	 -35.2146 	 -34.7994 	 -93.6319
| 32> C 	 -36.3526 	 -32.9715 	 -93.4717
| 33> H 	 -36.2594 	 -32.9181 	 -92.4025
| 34> H 	 -37.3626 	 -32.5705 	 -93.6453
| 35> C 	 -35.2386 	 -32.1459 	 -94.1765
| 36> H 	 -35.1647 	 -32.1742 	 -95.2341
| 37> H 	 -34.2989 	 -32.5774 	 -93.8258
| 38> H 	 -35.4042 	 -31.0717 	 -93.967
| 39> H 	 -32.8498 	 -39.211 	 -91.4207
| 40> H 	 -40.4579 	 -35.8569 	 -92.8073
| 41> *
| 42>
| 43>                          ****END OF INPUT****

CARTESIAN COORDINATES (ANGSTROEM)
---------------------------------
  S    -34.856700  -38.561100  -92.763300
  C    -33.601300  -38.452000  -91.566900
  C    -33.709500  -37.331500  -90.827400
  C    -34.925500  -36.656200  -91.100200
  C    -35.652100  -37.187600  -92.102500
  H    -35.341500  -35.795300  -90.575400
  C    -32.849900  -36.897300  -89.637800
  H    -33.510100  -36.284800  -88.969000
  H    -31.926300  -36.361800  -89.908600
  C    -32.507400  -38.032100  -88.662100
  H    -31.895400  -38.774100  -89.182800
  H    -32.003400  -37.707500  -87.731700
  C    -33.743400  -38.820900  -88.108500
  H    -34.180700  -38.208000  -87.297500
  H    -34.517300  -39.109000  -88.810000
  H    -33.560200  -39.801000  -87.656900
  S    -38.502600  -37.387700  -92.091700
  C    -39.381800  -36.106500  -92.813200
  C    -38.631300  -35.116400  -93.359700
  C    -37.224300  -35.415300  -93.168700
  C    -36.954600  -36.670700  -92.533400
  H    -39.074200  -34.301900  -93.870300
  C    -36.230100  -34.444600  -93.858400
  H    -36.424000  -34.565800  -94.945900
  H    -35.214600  -34.799400  -93.631900
  C    -36.352600  -32.971500  -93.471700
  H    -36.259400  -32.918100  -92.402500
  H    -37.362600  -32.570500  -93.645300
  C    -35.238600  -32.145900  -94.176500
  H    -35.164700  -32.174200  -95.234100
  H    -34.298900  -32.577400  -93.825800
  H    -35.404200  -31.071700  -93.967000
  H    -32.849800  -39.211000  -91.420700
  H    -40.457900  -35.856900  -92.807300

 Total Charge           Charge          ....    0
 Multiplicity           Mult            ....    1
 Number of Electrons    NEL             ....  134
 Basis Dimension        Dim             ....  322

ORBITAL ENERGIES
----------------

  NO   OCC          E(Eh)            E(eV)
   0   2.0000     -88.968628     -2420.9595
   1   2.0000     -88.964299     -2420.8416
   2   2.0000     -10.329655      -281.0842
   3   2.0000     -10.322154      -280.8801
   4   2.0000     -10.313801      -280.6528
   5   2.0000     -10.311053      -280.5780
   6   2.0000     -10.308456      -280.5073
   7   2.0000     -10.299570      -280.2655
   8   2.0000     -10.297286      -280.2034
   9   2.0000     -10.291834      -280.0550
  10   2.0000     -10.291583      -280.0482
  11   2.0000     -10.287517      -279.9376
  12   2.0000     -10.287009      -279.9238
  13   2.0000     -10.286925      -279.9215
  14   2.0000     -10.278525      -279.6929
  15   2.0000     -10.275297      -279.6051
  16   2.0000      -8.083361      -219.9594
  17   2.0000      -8.080085      -219.8703
  18   2.0000      -6.041966      -164.4103
  19   2.0000      -6.038537      -164.3170
  20   2.0000      -6.037770      -164.2961
  21   2.0000      -6.034411      -164.2047
  22   2.0000      -6.034117      -164.1967
  23   2.0000      -6.030871      -164.1083
  24   2.0000      -1.012470       -27.5507
  25   2.0000      -0.988438       -26.8968
  26   2.0000      -0.910262       -24.7695
  27   2.0000      -0.905239       -24.6328
  28   2.0000      -0.869974       -23.6732
  29   2.0000      -0.847684       -23.0666
  30   2.0000      -0.845185       -22.9986
  31   2.0000      -0.814932       -22.1754
  32   2.0000      -0.783546       -21.3214
  33   2.0000      -0.769018       -20.9261
  34   2.0000      -0.707639       -19.2558
  35   2.0000      -0.700477       -19.0610
  36   2.0000      -0.692113       -18.8334
  37   2.0000      -0.652285       -17.7496
  38   2.0000      -0.644438       -17.5361
  39   2.0000      -0.613624       -16.6976
  40   2.0000      -0.590732       -16.0746
  41   2.0000      -0.579485       -15.7686
  42   2.0000      -0.562946       -15.3185
  43   2.0000      -0.557086       -15.1591
  44   2.0000      -0.543090       -14.7782
  45   2.0000      -0.520739       -14.1700
  46   2.0000      -0.515088       -14.0163
  47   2.0000      -0.511493       -13.9184
  48   2.0000      -0.501014       -13.6333
  49   2.0000      -0.495959       -13.4957
  50   2.0000      -0.487596       -13.2682
  51   2.0000      -0.477114       -12.9829
  52   2.0000      -0.468785       -12.7563
  53   2.0000      -0.466358       -12.6902
  54   2.0000      -0.457741       -12.4558
  55   2.0000      -0.449875       -12.2417
  56   2.0000      -0.443297       -12.0627
  57   2.0000      -0.438459       -11.9311
  58   2.0000      -0.432815       -11.7775
  59   2.0000      -0.422640       -11.5006
  60   2.0000      -0.421841       -11.4789
  61   2.0000      -0.409792       -11.1510
  62   2.0000      -0.408060       -11.1039
  63   2.0000      -0.339018        -9.2252
  64   2.0000      -0.333058        -9.0630
  65   2.0000      -0.326077        -8.8730
  66   2.0000      -0.307476        -8.3668
  67   0.0000       0.042804         1.1648
  68   0.0000       0.064487         1.7548
  69   0.0000       0.120288         3.2732
  70   0.0000       0.123633         3.3642
  71   0.0000       0.130530         3.5519

MULLIKEN ATOMIC CHARGES
-----------------------
   0 S :    0.119086
   1 C :   -0.132202
   2 C :   -0.054376
   3 C :    0.022730
   4 C :   -0.180950
   5 H :    0.015167
   6 C :    0.082516
   7 H :    0.028118
   8 H :    0.054776
   9 C :   -0.102786
  10 H :    0.026537
  11 H :    0.043316
  12 C :   -0.092134
  13 H :    0.030620
  14 H :    0.042680
  15 H :    0.029297
  16 S :    0.127584
  17 C :   -0.076757
  18 C :   -0.043236
  19 C :   -0.036218
  20 C :   -0.157223
  21 H :    0.012941
  22 C :    0.038514
  23 H :    0.046204
  24 H :    0.024742
  25 C :   -0.082802
  26 H :    0.025377
  27 H :    0.025496
  28 C :   -0.029706
  29 H :    0.021477
  30 H :    0.029841
  31 H :    0.039212
  32 H :    0.042705
  33 H :    0.059453
Sum of atomic charges:   -0.0000000

LOEWDIN ATOMIC CHARGES
----------------------
   0 S :    0.420311
   1 C :   -0.188998
   2 C :   -0.069763
   3 C :   -0.057882
   4 C :   -0.210737
   5 H :    0.035118
   6 C :   -0.029676
   7 H :    0.034976
   8 H :    0.037286
   9 C :   -0.044032
  10 H :    0.015845
  11 H :    0.031044
  12 C :   -0.078513
  13 H :    0.024905
  14 H :    0.024442
  15 H :    0.027375
  16 S :    0.420581
  17 C :   -0.198974
  18 C :   -0.077130
  19 C :   -0.042086
  20 C :   -0.215525
  21 H :    0.027302
  22 C :   -0.034453
  23 H :    0.036901
  24 H :    0.026869
  25 C :   -0.040541
  26 H :    0.023307
  27 H :    0.019561
  28 C :   -0.063033
  29 H :    0.019109
  30 H :    0.028148
  31 H :    0.031050
  32 H :    0.026090
  33 H :    0.041124

  Mayer bond orders larger than 0.100000
B(  0-S ,  1-C ) :   1.1435 B(  0-S ,  4-C ) :   1.1467 B(  1-C ,  2-C ) :   1.6215
B(  1-C , 32-H ) :   0.9716 B(  2-C ,  3-C ) :   1.2289 B(  2-C ,  6-C ) :   0.9991
B(  3-C ,  4-C ) :   1.6129 B(  3-C ,  5-H ) :   0.9980 B(  4-C , 20-C ) :   1.0199
B(  6-C ,  7-H ) :   0.9536 B(  6-C ,  8-H ) :   0.9361 B(  6-C ,  9-C ) :   1.0681
B(  9-C , 10-H ) :   0.9572 B(  9-C , 11-H ) :   0.9621 B(  9-C , 12-C ) :   1.0621
B( 12-C , 13-H ) :   0.9794 B( 12-C , 14-H ) :   0.9759 B( 12-C , 15-H ) :   0.9759
B( 16-S , 17-C ) :   1.1674 B( 16-S , 20-C ) :   1.1248 B( 17-C , 18-C ) :   1.6306
B( 17-C , 33-H ) :   0.9528 B( 18-C , 19-C ) :   1.2331 B( 18-C , 21-H ) :   0.9941
B( 19-C , 20-C ) :   1.5905 B( 19-C , 22-C ) :   1.0368 B( 22-C , 23-H ) :   0.9440
B( 22-C , 24-H ) :   0.9381 B( 22-C , 25-C ) :   1.0582 B( 25-C , 26-H ) :   0.9551
B( 25-C , 27-H ) :   0.9554 B( 25-C , 28-C ) :   1.0757 B( 28-C , 29-H ) :   0.9772
B( 28-C , 30-H ) :   0.9742 B( 28-C , 31-H ) :   0.9745

Dispersion correction           -0.014307047
FINAL SINGLE POINT ENERGY     -1339.875893468022

DIPOLE MOMENT
-------------
                                X             Y             Z
Electronic contribution:    -13.31258     -15.07757      -8.37629
Nuclear contribution   :     13.47037      15.58297       8.56416
                        -----------------------------------------
Total Dipole Moment    :      0.15779       0.50540       0.18787
                        -----------------------------------------
Magnitude (a.u.)       :      0.56181
Magnitude (Debye)      :      1.42800

Rotational constants in cm-1:     0.018544     0.008207     0.006743
Rotational constants in MHz :   555.932298   246.034383   202.138299

                             ****ORCA TERMINATED NORMALLY****
TOTAL RUN TIME: 0 days 0 hours 0 minutes 21 seconds 360 msec
