                         Program Version 4.2.1 -  RELEASE  -
|  1> ! wB97X-D3 SP def2-SVP
|  2> %pal
|  3> nprocs 24
|  4> end
|  5>
|  6> * xyz 0 1
|  7> S 	 -103.317 	 40.8832 	 -94.781
|  8> C 	 -103.346 	 39.3962 	 -93.848
|  9> C 	 -102.046 	 38.8636 	 -93.7255
| 10> C 	 -101.081 	 39.5586 	 -94.4813
| 11> C 	 -101.665 	 40.6098 	 -95.229
| 12> H 	 -100.007 	 39.4429 	 -94.4588
| 13> C 	 -101.711 	 37.764 	 -92.7919
| 14> H 	 -101.661 	 36.8215 	 -93.3646
| 15> H 	 -102.539 	 37.7099 	 -92.0532
| 16> C 	 -100.452 	 37.8106 	 -91.936
| 17> H 	 -99.694 	 37.9735 	 -92.6463
| 18> H 	 -100.338 	 38.6965 	 -91.4268
| 19> C 	 -100.159 	 36.6071 	 -91.0524
| 20> H 	 -101.198 	 36.3595 	 -90.6048
| 21> H 	 -99.802 	 35.8382 	 -91.7609
| 22> H 	 -99.3478 	 36.8217 	 -90.308
| 23> S 	 -101.071 	 43.3215 	 -95.6487
| 24> C 	 -100.011 	 43.7763 	 -96.9967
| 25> C 	 -99.722 	 42.6366 	 -97.7224
| 26> C 	 -100.239 	 41.407 	 -97.225
| 27> C 	 -101.007 	 41.61 	 -96.083
| 28> H 	 -99.1097 	 42.7603 	 -98.675
| 29> C 	 -100.028 	 39.935 	 -97.7382
| 30> H 	 -99.8853 	 39.2698 	 -96.8554
| 31> H 	 -99.0638 	 39.9638 	 -98.3326
| 32> C 	 -101.089 	 39.3065 	 -98.6424
| 33> H 	 -102.029 	 39.1889 	 -98.0627
| 34> H 	 -100.781 	 38.3327 	 -99.0489
| 35> C 	 -101.397 	 40.1182 	 -99.8891
| 36> H 	 -100.578 	 40.2019 	 -100.532
| 37> H 	 -101.601 	 41.123 	 -99.4801
| 38> H 	 -102.253 	 39.689 	 -100.468
| 39> H 	 -104.155 	 39.1217 	 -93.2395
| 40> H 	 -99.9198 	 44.793 	 -97.2047
| 41> *
| 42>
| 43>                          ****END OF INPUT****

CARTESIAN COORDINATES (ANGSTROEM)
---------------------------------
  S    -103.317000   40.883200  -94.781000
  C    -103.346000   39.396200  -93.848000
  C    -102.046000   38.863600  -93.725500
  C    -101.081000   39.558600  -94.481300
  C    -101.665000   40.609800  -95.229000
  H    -100.007000   39.442900  -94.458800
  C    -101.711000   37.764000  -92.791900
  H    -101.661000   36.821500  -93.364600
  H    -102.539000   37.709900  -92.053200
  C    -100.452000   37.810600  -91.936000
  H    -99.694000   37.973500  -92.646300
  H    -100.338000   38.696500  -91.426800
  C    -100.159000   36.607100  -91.052400
  H    -101.198000   36.359500  -90.604800
  H    -99.802000   35.838200  -91.760900
  H    -99.347800   36.821700  -90.308000
  S    -101.071000   43.321500  -95.648700
  C    -100.011000   43.776300  -96.996700
  C    -99.722000   42.636600  -97.722400
  C    -100.239000   41.407000  -97.225000
  C    -101.007000   41.610000  -96.083000
  H    -99.109700   42.760300  -98.675000
  C    -100.028000   39.935000  -97.738200
  H    -99.885300   39.269800  -96.855400
  H    -99.063800   39.963800  -98.332600
  C    -101.089000   39.306500  -98.642400
  H    -102.029000   39.188900  -98.062700
  H    -100.781000   38.332700  -99.048900
  C    -101.397000   40.118200  -99.889100
  H    -100.578000   40.201900  -100.532000
  H    -101.601000   41.123000  -99.480100
  H    -102.253000   39.689000  -100.468000
  H    -104.155000   39.121700  -93.239500
  H    -99.919800   44.793000  -97.204700

 Total Charge           Charge          ....    0
 Multiplicity           Mult            ....    1
 Number of Electrons    NEL             ....  134
 Basis Dimension        Dim             ....  322

ORBITAL ENERGIES
----------------

  NO   OCC          E(Eh)            E(eV)
   0   2.0000     -88.971593     -2421.0401
   1   2.0000     -88.964670     -2420.8518
   2   2.0000     -10.334268      -281.2097
   3   2.0000     -10.329579      -281.0821
   4   2.0000     -10.318855      -280.7903
   5   2.0000     -10.313683      -280.6496
   6   2.0000     -10.308934      -280.5204
   7   2.0000     -10.305878      -280.4372
   8   2.0000     -10.304778      -280.4073
   9   2.0000     -10.301327      -280.3134
  10   2.0000     -10.299514      -280.2640
  11   2.0000     -10.293166      -280.0913
  12   2.0000     -10.292530      -280.0740
  13   2.0000     -10.282419      -279.7988
  14   2.0000     -10.273138      -279.5463
  15   2.0000     -10.268249      -279.4133
  16   2.0000      -8.086209      -220.0369
  17   2.0000      -8.079029      -219.8416
  18   2.0000      -6.044534      -164.4801
  19   2.0000      -6.040703      -164.3759
  20   2.0000      -6.037511      -164.2890
  21   2.0000      -6.037205      -164.2807
  22   2.0000      -6.033508      -164.1801
  23   2.0000      -6.029922      -164.0825
  24   2.0000      -1.006383       -27.3851
  25   2.0000      -0.983321       -26.7575
  26   2.0000      -0.919369       -25.0173
  27   2.0000      -0.904135       -24.6028
  28   2.0000      -0.870468       -23.6866
  29   2.0000      -0.853917       -23.2363
  30   2.0000      -0.843128       -22.9427
  31   2.0000      -0.815208       -22.1829
  32   2.0000      -0.780905       -21.2495
  33   2.0000      -0.770758       -20.9734
  34   2.0000      -0.713524       -19.4160
  35   2.0000      -0.696694       -18.9580
  36   2.0000      -0.686321       -18.6757
  37   2.0000      -0.657663       -17.8959
  38   2.0000      -0.646639       -17.5960
  39   2.0000      -0.622437       -16.9374
  40   2.0000      -0.591129       -16.0854
  41   2.0000      -0.574843       -15.6423
  42   2.0000      -0.563541       -15.3347
  43   2.0000      -0.558161       -15.1883
  44   2.0000      -0.547135       -14.8883
  45   2.0000      -0.524367       -14.2688
  46   2.0000      -0.515736       -14.0339
  47   2.0000      -0.509016       -13.8510
  48   2.0000      -0.505768       -13.7626
  49   2.0000      -0.504874       -13.7383
  50   2.0000      -0.486387       -13.2353
  51   2.0000      -0.478847       -13.0301
  52   2.0000      -0.471488       -12.8298
  53   2.0000      -0.466821       -12.7029
  54   2.0000      -0.459275       -12.4975
  55   2.0000      -0.452752       -12.3200
  56   2.0000      -0.440010       -11.9733
  57   2.0000      -0.435008       -11.8372
  58   2.0000      -0.428673       -11.6648
  59   2.0000      -0.427065       -11.6210
  60   2.0000      -0.418524       -11.3886
  61   2.0000      -0.408913       -11.1271
  62   2.0000      -0.406519       -11.0619
  63   2.0000      -0.343860        -9.3569
  64   2.0000      -0.334328        -9.0975
  65   2.0000      -0.332697        -9.0531
  66   2.0000      -0.293473        -7.9858
  67   0.0000       0.023057         0.6274
  68   0.0000       0.061459         1.6724
  69   0.0000       0.106690         2.9032
  70   0.0000       0.122114         3.3229
  71   0.0000       0.125578         3.4171

MULLIKEN ATOMIC CHARGES
-----------------------
   0 S :    0.120909
   1 C :   -0.100520
   2 C :   -0.075995
   3 C :    0.031288
   4 C :   -0.176182
   5 H :    0.032116
   6 C :    0.049031
   7 H :    0.041629
   8 H :    0.016766
   9 C :   -0.053693
  10 H :   -0.002665
  11 H :    0.002562
  12 C :   -0.066409
  13 H :    0.048560
  14 H :    0.040507
  15 H :    0.055671
  16 S :    0.091445
  17 C :   -0.087411
  18 C :   -0.053788
  19 C :   -0.041427
  20 C :   -0.163429
  21 H :    0.045349
  22 C :    0.055918
  23 H :    0.036619
  24 H :    0.026614
  25 C :   -0.061557
  26 H :    0.041681
  27 H :    0.028756
  28 C :   -0.057962
  29 H :    0.010888
  30 H :    0.037797
  31 H :    0.044190
  32 H :    0.033849
  33 H :    0.048893
Sum of atomic charges:    0.0000000

LOEWDIN ATOMIC CHARGES
----------------------
   0 S :    0.428026
   1 C :   -0.195399
   2 C :   -0.058047
   3 C :   -0.062888
   4 C :   -0.194825
   5 H :    0.033460
   6 C :   -0.034111
   7 H :    0.036768
   8 H :    0.028452
   9 C :   -0.048699
  10 H :    0.012976
  11 H :    0.012777
  12 C :   -0.066055
  13 H :    0.037307
  14 H :    0.029339
  15 H :    0.036721
  16 S :    0.385443
  17 C :   -0.170640
  18 C :   -0.076369
  19 C :   -0.066193
  20 C :   -0.195941
  21 H :    0.043236
  22 C :   -0.032898
  23 H :    0.035753
  24 H :    0.032621
  25 C :   -0.044068
  26 H :    0.028601
  27 H :    0.024817
  28 C :   -0.066691
  29 H :    0.010743
  30 H :    0.028163
  31 H :    0.032577
  32 H :    0.016714
  33 H :    0.018327

  Mayer bond orders larger than 0.100000
B(  0-S ,  1-C ) :   1.1489 B(  0-S ,  4-C ) :   1.1882 B(  1-C ,  2-C ) :   1.5678
B(  1-C ,  4-C ) :   0.1123 B(  1-C , 32-H ) :   0.9750 B(  2-C ,  3-C ) :   1.2752
B(  2-C ,  6-C ) :   1.0316 B(  3-C ,  4-C ) :   1.5255 B(  3-C ,  5-H ) :   0.9850
B(  4-C , 20-C ) :   1.0285 B(  6-C ,  7-H ) :   0.9307 B(  6-C ,  8-H ) :   0.9390
B(  6-C ,  9-C ) :   1.0656 B(  9-C , 10-H ) :   0.9411 B(  9-C , 11-H ) :   0.9516
B(  9-C , 12-C ) :   1.0769 B( 12-C , 13-H ) :   0.9753 B( 12-C , 14-H ) :   0.9759
B( 12-C , 15-H ) :   0.9720 B( 16-S , 17-C ) :   1.1466 B( 16-S , 20-C ) :   1.1562
B( 17-C , 18-C ) :   1.5915 B( 17-C , 20-C ) :   0.1072 B( 17-C , 33-H ) :   0.9808
B( 18-C , 19-C ) :   1.2557 B( 18-C , 21-H ) :   0.9769 B( 19-C , 20-C ) :   1.5799
B( 19-C , 22-C ) :   1.0233 B( 22-C , 23-H ) :   0.9332 B( 22-C , 24-H ) :   0.9356
B( 22-C , 25-C ) :   1.0791 B( 25-C , 26-H ) :   0.9549 B( 25-C , 27-H ) :   0.9540
B( 25-C , 28-C ) :   1.0747 B( 28-C , 29-H ) :   0.9752 B( 28-C , 30-H ) :   0.9755
B( 28-C , 31-H ) :   0.9733

Dispersion correction           -0.014308222
FINAL SINGLE POINT ENERGY     -1339.867210041522

DIPOLE MOMENT
-------------
                                X             Y             Z
Electronic contribution:     -8.34045      22.19565       0.58791
Nuclear contribution   :      8.69080     -22.52949      -0.53815
                        -----------------------------------------
Total Dipole Moment    :      0.35035      -0.33385       0.04976
                        -----------------------------------------
Magnitude (a.u.)       :      0.48649
Magnitude (Debye)      :      1.23657

Rotational constants in cm-1:     0.019817     0.007777     0.007060
Rotational constants in MHz :   594.089324   233.159579   211.640604

                             ****ORCA TERMINATED NORMALLY****
TOTAL RUN TIME: 0 days 0 hours 0 minutes 20 seconds 497 msec
