                         Program Version 4.2.1 -  RELEASE  -
|  1> ! wB97X-D3 SP def2-SVP
|  2> %pal
|  3> nprocs 24
|  4> end
|  5>
|  6> * xyz 0 1
|  7> S 	 -135.555 	 12.3452 	 -5.29156
|  8> C 	 -133.931 	 13.0543 	 -5.18175
|  9> C 	 -133.856 	 13.817 	 -4.05566
| 10> C 	 -134.986 	 13.6392 	 -3.16702
| 11> C 	 -135.861 	 12.6592 	 -3.55853
| 12> H 	 -135.281 	 14.1583 	 -2.19499
| 13> C 	 -132.73 	 14.8528 	 -3.77183
| 14> H 	 -133.057 	 15.9291 	 -4.06832
| 15> H 	 -131.966 	 14.6057 	 -4.40217
| 16> C 	 -132.087 	 14.844 	 -2.36472
| 17> H 	 -131.057 	 15.3019 	 -2.29295
| 18> H 	 -132.792 	 15.281 	 -1.66325
| 19> C 	 -131.917 	 13.4007 	 -1.78148
| 20> H 	 -131.597 	 12.6613 	 -2.47043
| 21> H 	 -131.226 	 13.4209 	 -0.944342
| 22> H 	 -132.792 	 12.9686 	 -1.30359
| 23> S 	 -138.528 	 12.7177 	 -2.94135
| 24> C 	 -139.204 	 11.5618 	 -1.88419
| 25> C 	 -138.264 	 10.6403 	 -1.47181
| 26> C 	 -136.903 	 10.8775 	 -1.93576
| 27> C 	 -136.926 	 11.979 	 -2.8382
| 28> H 	 -138.556 	 9.94766 	 -0.750064
| 29> C 	 -135.635 	 10.0765 	 -1.71831
| 30> H 	 -135.291 	 10.049 	 -0.690781
| 31> H 	 -134.765 	 10.5944 	 -2.17849
| 32> C 	 -135.66 	 8.67389 	 -2.29524
| 33> H 	 -135.703 	 8.55534 	 -3.44058
| 34> H 	 -136.578 	 8.1963 	 -1.98227
| 35> C 	 -134.421 	 7.84529 	 -1.93318
| 36> H 	 -134.28 	 6.9095 	 -2.4116
| 37> H 	 -134.362 	 7.69719 	 -0.927422
| 38> H 	 -133.549 	 8.5068 	 -2.24362
| 39> H 	 -133.176 	 12.9468 	 -5.95976
| 40> H 	 -140.244 	 11.4501 	 -1.62814
| 41> *
| 42>
| 43>                          ****END OF INPUT****

CARTESIAN COORDINATES (ANGSTROEM)
---------------------------------
  S    -135.555000   12.345200   -5.291560
  C    -133.931000   13.054300   -5.181750
  C    -133.856000   13.817000   -4.055660
  C    -134.986000   13.639200   -3.167020
  C    -135.861000   12.659200   -3.558530
  H    -135.281000   14.158300   -2.194990
  C    -132.730000   14.852800   -3.771830
  H    -133.057000   15.929100   -4.068320
  H    -131.966000   14.605700   -4.402170
  C    -132.087000   14.844000   -2.364720
  H    -131.057000   15.301900   -2.292950
  H    -132.792000   15.281000   -1.663250
  C    -131.917000   13.400700   -1.781480
  H    -131.597000   12.661300   -2.470430
  H    -131.226000   13.420900   -0.944342
  H    -132.792000   12.968600   -1.303590
  S    -138.528000   12.717700   -2.941350
  C    -139.204000   11.561800   -1.884190
  C    -138.264000   10.640300   -1.471810
  C    -136.903000   10.877500   -1.935760
  C    -136.926000   11.979000   -2.838200
  H    -138.556000    9.947660   -0.750064
  C    -135.635000   10.076500   -1.718310
  H    -135.291000   10.049000   -0.690781
  H    -134.765000   10.594400   -2.178490
  C    -135.660000    8.673890   -2.295240
  H    -135.703000    8.555340   -3.440580
  H    -136.578000    8.196300   -1.982270
  C    -134.421000    7.845290   -1.933180
  H    -134.280000    6.909500   -2.411600
  H    -134.362000    7.697190   -0.927422
  H    -133.549000    8.506800   -2.243620
  H    -133.176000   12.946800   -5.959760
  H    -140.244000   11.450100   -1.628140

 Total Charge           Charge          ....    0
 Multiplicity           Mult            ....    1
 Number of Electrons    NEL             ....  134
 Basis Dimension        Dim             ....  322

ORBITAL ENERGIES
----------------

  NO   OCC          E(Eh)            E(eV)
   0   2.0000     -88.966733     -2420.9079
   1   2.0000     -88.957968     -2420.6694
   2   2.0000     -10.330136      -281.0973
   3   2.0000     -10.329559      -281.0816
   4   2.0000     -10.318681      -280.7856
   5   2.0000     -10.315620      -280.7023
   6   2.0000     -10.315212      -280.6912
   7   2.0000     -10.307879      -280.4916
   8   2.0000     -10.302441      -280.3437
   9   2.0000     -10.296520      -280.1826
  10   2.0000     -10.294285      -280.1217
  11   2.0000     -10.293326      -280.0956
  12   2.0000     -10.293324      -280.0956
  13   2.0000     -10.286384      -279.9068
  14   2.0000     -10.270139      -279.4647
  15   2.0000     -10.269860      -279.4571
  16   2.0000      -8.081923      -219.9203
  17   2.0000      -8.072473      -219.6632
  18   2.0000      -6.040312      -164.3653
  19   2.0000      -6.036239      -164.2544
  20   2.0000      -6.032908      -164.1638
  21   2.0000      -6.031115      -164.1150
  22   2.0000      -6.027341      -164.0123
  23   2.0000      -6.022738      -163.8870
  24   2.0000      -1.003369       -27.3031
  25   2.0000      -0.982370       -26.7316
  26   2.0000      -0.910663       -24.7804
  27   2.0000      -0.904181       -24.6040
  28   2.0000      -0.869719       -23.6663
  29   2.0000      -0.850305       -23.1380
  30   2.0000      -0.833923       -22.6922
  31   2.0000      -0.817271       -22.2391
  32   2.0000      -0.785791       -21.3825
  33   2.0000      -0.773253       -21.0413
  34   2.0000      -0.707585       -19.2544
  35   2.0000      -0.697430       -18.9780
  36   2.0000      -0.690896       -18.8002
  37   2.0000      -0.656850       -17.8738
  38   2.0000      -0.642342       -17.4790
  39   2.0000      -0.616319       -16.7709
  40   2.0000      -0.601864       -16.3775
  41   2.0000      -0.564963       -15.3734
  42   2.0000      -0.557929       -15.1820
  43   2.0000      -0.549037       -14.9401
  44   2.0000      -0.538197       -14.6451
  45   2.0000      -0.525963       -14.3122
  46   2.0000      -0.519547       -14.1376
  47   2.0000      -0.512830       -13.9548
  48   2.0000      -0.510160       -13.8822
  49   2.0000      -0.503519       -13.7015
  50   2.0000      -0.486920       -13.2498
  51   2.0000      -0.482470       -13.1287
  52   2.0000      -0.465506       -12.6671
  53   2.0000      -0.457827       -12.4581
  54   2.0000      -0.457203       -12.4411
  55   2.0000      -0.451656       -12.2902
  56   2.0000      -0.438418       -11.9300
  57   2.0000      -0.434101       -11.8125
  58   2.0000      -0.432293       -11.7633
  59   2.0000      -0.426175       -11.5968
  60   2.0000      -0.417385       -11.3576
  61   2.0000      -0.413597       -11.2545
  62   2.0000      -0.403495       -10.9797
  63   2.0000      -0.333851        -9.0846
  64   2.0000      -0.323907        -8.8139
  65   2.0000      -0.322926        -8.7873
  66   2.0000      -0.310930        -8.4608
  67   0.0000       0.039460         1.0738
  68   0.0000       0.046190         1.2569
  69   0.0000       0.105714         2.8766
  70   0.0000       0.120251         3.2722
  71   0.0000       0.130115         3.5406

MULLIKEN ATOMIC CHARGES
-----------------------
   0 S :    0.086806
   1 C :   -0.125619
   2 C :   -0.096327
   3 C :    0.044465
   4 C :   -0.196744
   5 H :    0.045424
   6 C :    0.104324
   7 H :    0.061723
   8 H :   -0.008547
   9 C :   -0.103332
  10 H :    0.054236
  11 H :    0.033839
  12 C :   -0.052421
  13 H :    0.022635
  14 H :    0.022369
  15 H :    0.022670
  16 S :    0.121875
  17 C :   -0.081627
  18 C :   -0.029660
  19 C :    0.020824
  20 C :   -0.195482
  21 H :   -0.000563
  22 C :    0.066407
  23 H :    0.025583
  24 H :    0.035193
  25 C :   -0.106941
  26 H :    0.044868
  27 H :    0.020357
  28 C :   -0.013380
  29 H :    0.030582
  30 H :    0.007750
  31 H :    0.026235
  32 H :    0.055520
  33 H :    0.056959
Sum of atomic charges:    0.0000000

LOEWDIN ATOMIC CHARGES
----------------------
   0 S :    0.364159
   1 C :   -0.178602
   2 C :   -0.065603
   3 C :   -0.063896
   4 C :   -0.188997
   5 H :    0.047380
   6 C :   -0.029495
   7 H :    0.046091
   8 H :    0.013612
   9 C :   -0.044728
  10 H :    0.035930
  11 H :    0.023132
  12 C :   -0.070867
  13 H :    0.016947
  14 H :    0.024238
  15 H :    0.023144
  16 S :    0.423220
  17 C :   -0.197143
  18 C :   -0.069317
  19 C :   -0.036875
  20 C :   -0.202736
  21 H :    0.020220
  22 C :   -0.036489
  23 H :    0.032049
  24 H :    0.038866
  25 C :   -0.045223
  26 H :    0.036090
  27 H :    0.015322
  28 C :   -0.058259
  29 H :    0.022979
  30 H :    0.007334
  31 H :    0.033465
  32 H :    0.032336
  33 H :    0.031716

  Mayer bond orders larger than 0.100000
B(  0-S ,  1-C ) :   1.1252 B(  0-S ,  4-C ) :   1.1173 B(  1-C ,  2-C ) :   1.6484
B(  1-C , 32-H ) :   0.9707 B(  2-C ,  3-C ) :   1.1773 B(  2-C ,  6-C ) :   1.0173
B(  3-C ,  4-C ) :   1.6425 B(  3-C ,  5-H ) :   0.9809 B(  4-C , 20-C ) :   1.0130
B(  6-C ,  7-H ) :   0.9443 B(  6-C ,  8-H ) :   0.9338 B(  6-C ,  9-C ) :   1.0609
B(  9-C , 10-H ) :   0.9655 B(  9-C , 11-H ) :   0.9549 B(  9-C , 12-C ) :   1.0765
B( 12-C , 13-H ) :   0.9773 B( 12-C , 14-H ) :   0.9735 B( 12-C , 15-H ) :   0.9698
B( 16-S , 17-C ) :   1.1612 B( 16-S , 20-C ) :   1.1649 B( 17-C , 18-C ) :   1.6155
B( 17-C , 20-C ) :   0.1006 B( 17-C , 33-H ) :   0.9658 B( 18-C , 19-C ) :   1.2290
B( 18-C , 21-H ) :   0.9952 B( 19-C , 20-C ) :   1.5803 B( 19-C , 22-C ) :   1.0484
B( 22-C , 23-H ) :   0.9339 B( 22-C , 24-H ) :   0.9255 B( 22-C , 25-C ) :   1.0517
B( 25-C , 26-H ) :   0.9559 B( 25-C , 27-H ) :   0.9599 B( 25-C , 28-C ) :   1.0770
B( 28-C , 29-H ) :   0.9748 B( 28-C , 30-H ) :   0.9751 B( 28-C , 31-H ) :   0.9723

Dispersion correction           -0.014869241
FINAL SINGLE POINT ENERGY     -1339.851182480385

DIPOLE MOMENT
-------------
                                X             Y             Z
Electronic contribution:    -22.40748       8.10940     -12.00760
Nuclear contribution   :     22.78662      -8.19395      12.44718
                        -----------------------------------------
Total Dipole Moment    :      0.37914      -0.08456       0.43958
                        -----------------------------------------
Magnitude (a.u.)       :      0.58662
Magnitude (Debye)      :      1.49108

Rotational constants in cm-1:     0.016570     0.009389     0.007662
Rotational constants in MHz :   496.743379   281.484790   229.707070

                             ****ORCA TERMINATED NORMALLY****
TOTAL RUN TIME: 0 days 0 hours 0 minutes 22 seconds 67 msec
