                         Program Version 4.2.1 -  RELEASE  -
|  1> ! wB97X-D3 SP def2-SVP
|  2> %pal
|  3> nprocs 24
|  4> end
|  5>
|  6> * xyz 0 1
|  7> S 	 -73.8431 	 7.36138 	 -103.598
|  8> C 	 -75.3549 	 8.39679 	 -103.463
|  9> C 	 -75.7464 	 8.72675 	 -104.75
| 10> C 	 -74.9347 	 8.11695 	 -105.743
| 11> C 	 -73.7987 	 7.51857 	 -105.275
| 12> H 	 -75.0775 	 8.15859 	 -106.826
| 13> C 	 -76.9074 	 9.613 	 -105.139
| 14> H 	 -76.5888 	 10.3136 	 -105.956
| 15> H 	 -77.1797 	 10.3212 	 -104.251
| 16> C 	 -78.2199 	 8.77932 	 -105.521
| 17> H 	 -78.3205 	 8.06053 	 -104.701
| 18> H 	 -78.9954 	 9.54442 	 -105.415
| 19> C 	 -78.1801 	 8.05798 	 -106.885
| 20> H 	 -77.2951 	 7.35889 	 -106.914
| 21> H 	 -79.1303 	 7.52025 	 -106.882
| 22> H 	 -78.1225 	 8.75054 	 -107.737
| 23> S 	 -71.8565 	 5.56479 	 -105.231
| 24> C 	 -71.0061 	 5.1669 	 -106.726
| 25> C 	 -71.3714 	 5.98007 	 -107.762
| 26> C 	 -72.3117 	 6.9296 	 -107.384
| 27> C 	 -72.762 	 6.85533 	 -106.053
| 28> H 	 -70.8071 	 5.81559 	 -108.715
| 29> C 	 -72.8128 	 7.86109 	 -108.486
| 30> H 	 -71.9967 	 8.26846 	 -109.089
| 31> H 	 -73.1988 	 8.75573 	 -107.909
| 32> C 	 -74.0514 	 7.29357 	 -109.281
| 33> H 	 -74.7604 	 6.62655 	 -108.795
| 34> H 	 -73.7594 	 6.60457 	 -110.004
| 35> C 	 -74.9292 	 8.45468 	 -109.951
| 36> H 	 -74.2732 	 9.20093 	 -110.428
| 37> H 	 -75.6314 	 8.97009 	 -109.294
| 38> H 	 -75.5988 	 7.9392 	 -110.647
| 39> H 	 -75.7935 	 8.65995 	 -102.469
| 40> H 	 -70.0958 	 4.56661 	 -106.901
| 41> *
| 42>
| 43>                          ****END OF INPUT****

CARTESIAN COORDINATES (ANGSTROEM)
---------------------------------
  S    -73.843100    7.361380  -103.598000
  C    -75.354900    8.396790  -103.463000
  C    -75.746400    8.726750  -104.750000
  C    -74.934700    8.116950  -105.743000
  C    -73.798700    7.518570  -105.275000
  H    -75.077500    8.158590  -106.826000
  C    -76.907400    9.613000  -105.139000
  H    -76.588800   10.313600  -105.956000
  H    -77.179700   10.321200  -104.251000
  C    -78.219900    8.779320  -105.521000
  H    -78.320500    8.060530  -104.701000
  H    -78.995400    9.544420  -105.415000
  C    -78.180100    8.057980  -106.885000
  H    -77.295100    7.358890  -106.914000
  H    -79.130300    7.520250  -106.882000
  H    -78.122500    8.750540  -107.737000
  S    -71.856500    5.564790  -105.231000
  C    -71.006100    5.166900  -106.726000
  C    -71.371400    5.980070  -107.762000
  C    -72.311700    6.929600  -107.384000
  C    -72.762000    6.855330  -106.053000
  H    -70.807100    5.815590  -108.715000
  C    -72.812800    7.861090  -108.486000
  H    -71.996700    8.268460  -109.089000
  H    -73.198800    8.755730  -107.909000
  C    -74.051400    7.293570  -109.281000
  H    -74.760400    6.626550  -108.795000
  H    -73.759400    6.604570  -110.004000
  C    -74.929200    8.454680  -109.951000
  H    -74.273200    9.200930  -110.428000
  H    -75.631400    8.970090  -109.294000
  H    -75.598800    7.939200  -110.647000
  H    -75.793500    8.659950  -102.469000
  H    -70.095800    4.566610  -106.901000

 Total Charge           Charge          ....    0
 Multiplicity           Mult            ....    1
 Number of Electrons    NEL             ....  134
 Basis Dimension        Dim             ....  322

ORBITAL ENERGIES
----------------

  NO   OCC          E(Eh)            E(eV)
   0   2.0000     -88.968330     -2420.9513
   1   2.0000     -88.962762     -2420.7998
   2   2.0000     -10.333434      -281.1870
   3   2.0000     -10.327276      -281.0195
   4   2.0000     -10.324872      -280.9540
   5   2.0000     -10.316948      -280.7384
   6   2.0000     -10.305072      -280.4153
   7   2.0000     -10.304893      -280.4104
   8   2.0000     -10.304283      -280.3938
   9   2.0000     -10.300842      -280.3002
  10   2.0000     -10.293941      -280.1124
  11   2.0000     -10.291804      -280.0542
  12   2.0000     -10.291460      -280.0449
  13   2.0000     -10.289333      -279.9870
  14   2.0000     -10.287231      -279.9298
  15   2.0000     -10.286731      -279.9162
  16   2.0000      -8.082173      -219.9271
  17   2.0000      -8.077869      -219.8100
  18   2.0000      -6.040811      -164.3788
  19   2.0000      -6.036792      -164.2695
  20   2.0000      -6.036423      -164.2594
  21   2.0000      -6.032865      -164.1626
  22   2.0000      -6.032418      -164.1504
  23   2.0000      -6.028451      -164.0425
  24   2.0000      -1.010425       -27.4951
  25   2.0000      -0.984614       -26.7927
  26   2.0000      -0.907881       -24.7047
  27   2.0000      -0.899190       -24.4682
  28   2.0000      -0.869425       -23.6583
  29   2.0000      -0.848244       -23.0819
  30   2.0000      -0.840733       -22.8775
  31   2.0000      -0.815235       -22.1837
  32   2.0000      -0.780497       -21.2384
  33   2.0000      -0.769411       -20.9367
  34   2.0000      -0.714253       -19.4358
  35   2.0000      -0.700251       -19.0548
  36   2.0000      -0.698020       -18.9941
  37   2.0000      -0.658789       -17.9265
  38   2.0000      -0.636653       -17.3242
  39   2.0000      -0.617831       -16.8120
  40   2.0000      -0.589874       -16.0513
  41   2.0000      -0.571396       -15.5485
  42   2.0000      -0.552071       -15.0226
  43   2.0000      -0.538461       -14.6523
  44   2.0000      -0.535468       -14.5708
  45   2.0000      -0.529176       -14.3996
  46   2.0000      -0.519911       -14.1475
  47   2.0000      -0.509458       -13.8631
  48   2.0000      -0.506191       -13.7742
  49   2.0000      -0.499605       -13.5949
  50   2.0000      -0.484682       -13.1889
  51   2.0000      -0.483405       -13.1541
  52   2.0000      -0.477304       -12.9881
  53   2.0000      -0.466062       -12.6822
  54   2.0000      -0.462220       -12.5776
  55   2.0000      -0.451304       -12.2806
  56   2.0000      -0.445859       -12.1324
  57   2.0000      -0.434097       -11.8124
  58   2.0000      -0.428080       -11.6486
  59   2.0000      -0.424088       -11.5400
  60   2.0000      -0.418075       -11.3764
  61   2.0000      -0.413311       -11.2468
  62   2.0000      -0.407011       -11.0753
  63   2.0000      -0.356804        -9.7091
  64   2.0000      -0.336308        -9.1514
  65   2.0000      -0.327506        -8.9119
  66   2.0000      -0.283710        -7.7201
  67   0.0000       0.016815         0.4576
  68   0.0000       0.083401         2.2694
  69   0.0000       0.089347         2.4312
  70   0.0000       0.120480         3.2784
  71   0.0000       0.125413         3.4126

MULLIKEN ATOMIC CHARGES
-----------------------
   0 S :    0.071642
   1 C :   -0.152788
   2 C :   -0.037717
   3 C :   -0.014368
   4 C :   -0.080492
   5 H :   -0.007512
   6 C :   -0.017615
   7 H :    0.042817
   8 H :    0.038708
   9 C :   -0.073461
  10 H :    0.033430
  11 H :    0.034731
  12 C :   -0.058527
  13 H :    0.052902
  14 H :    0.045647
  15 H :    0.039462
  16 S :    0.091865
  17 C :   -0.083496
  18 C :   -0.070504
  19 C :   -0.044724
  20 C :   -0.117169
  21 H :    0.038804
  22 C :    0.035299
  23 H :    0.040103
  24 H :    0.029429
  25 C :   -0.046976
  26 H :    0.030469
  27 H :    0.009412
  28 C :   -0.074032
  29 H :    0.043937
  30 H :    0.034694
  31 H :    0.032731
  32 H :    0.070924
  33 H :    0.062376
Sum of atomic charges:    0.0000000

LOEWDIN ATOMIC CHARGES
----------------------
   0 S :    0.388065
   1 C :   -0.180288
   2 C :   -0.062491
   3 C :   -0.079268
   4 C :   -0.200819
   5 H :    0.030294
   6 C :   -0.043565
   7 H :    0.032268
   8 H :    0.038168
   9 C :   -0.036364
  10 H :    0.026149
  11 H :    0.023488
  12 C :   -0.069791
  13 H :    0.033964
  14 H :    0.032189
  15 H :    0.024619
  16 S :    0.387865
  17 C :   -0.186498
  18 C :   -0.083366
  19 C :   -0.059725
  20 C :   -0.183440
  21 H :    0.044947
  22 C :   -0.034264
  23 H :    0.033678
  24 H :    0.032634
  25 C :   -0.040649
  26 H :    0.028810
  27 H :    0.016144
  28 C :   -0.066756
  29 H :    0.026948
  30 H :    0.020431
  31 H :    0.028124
  32 H :    0.039305
  33 H :    0.039194

  Mayer bond orders larger than 0.100000
B(  0-S ,  1-C ) :   1.1080 B(  0-S ,  4-C ) :   1.1550 B(  1-C ,  2-C ) :   1.5997
B(  1-C , 32-H ) :   0.9709 B(  2-C ,  3-C ) :   1.2313 B(  2-C ,  6-C ) :   1.0245
B(  3-C ,  4-C ) :   1.5680 B(  3-C ,  5-H ) :   0.9848 B(  4-C , 20-C ) :   1.0723
B(  6-C ,  7-H ) :   0.9458 B(  6-C ,  8-H ) :   0.9474 B(  6-C ,  9-C ) :   1.0483
B(  9-C , 10-H ) :   0.9561 B(  9-C , 11-H ) :   0.9599 B(  9-C , 12-C ) :   1.0742
B( 12-C , 13-H ) :   0.9676 B( 12-C , 14-H ) :   0.9716 B( 12-C , 15-H ) :   0.9753
B( 16-S , 17-C ) :   1.1496 B( 16-S , 20-C ) :   1.1248 B( 17-C , 18-C ) :   1.6288
B( 17-C , 20-C ) :   0.1049 B( 17-C , 33-H ) :   0.9545 B( 18-C , 19-C ) :   1.2589
B( 18-C , 21-H ) :   0.9836 B( 19-C , 20-C ) :   1.5734 B( 19-C , 22-C ) :   1.0423
B( 22-C , 23-H ) :   0.9385 B( 22-C , 24-H ) :   0.9456 B( 22-C , 25-C ) :   1.0306
B( 25-C , 26-H ) :   0.9576 B( 25-C , 27-H ) :   0.9537 B( 25-C , 28-C ) :   1.0697
B( 28-C , 29-H ) :   0.9768 B( 28-C , 30-H ) :   0.9786 B( 28-C , 31-H ) :   0.9740

Dispersion correction           -0.015371482
FINAL SINGLE POINT ENERGY     -1339.862320004716

DIPOLE MOMENT
-------------
                                X             Y             Z
Electronic contribution:     20.95552     -11.14978      21.18733
Nuclear contribution   :    -21.30203      11.39159     -21.83073
                        -----------------------------------------
Total Dipole Moment    :     -0.34652       0.24181      -0.64340
                        -----------------------------------------
Magnitude (a.u.)       :      0.76974
Magnitude (Debye)      :      1.95654

Rotational constants in cm-1:     0.017368     0.010674     0.007120
Rotational constants in MHz :   520.677309   319.983808   213.447608

                             ****ORCA TERMINATED NORMALLY****
TOTAL RUN TIME: 0 days 0 hours 0 minutes 22 seconds 663 msec
