                         Program Version 4.2.1 -  RELEASE  -
|  1> ! wB97X-D3 SP def2-SVP
|  2> %pal
|  3> nprocs 24
|  4> end
|  5>
|  6> * xyz 0 1
|  7> S 	 -65.7048 	 13.7947 	 -106.405
|  8> C 	 -66.3816 	 15.357 	 -106.758
|  9> C 	 -65.7033 	 16.4147 	 -106.158
| 10> C 	 -64.6114 	 15.8368 	 -105.424
| 11> C 	 -64.4826 	 14.4623 	 -105.455
| 12> H 	 -64.0377 	 16.3447 	 -104.744
| 13> C 	 -66.0361 	 17.8222 	 -106.034
| 14> H 	 -66.3461 	 17.9937 	 -105
| 15> H 	 -66.9835 	 17.9424 	 -106.602
| 16> C 	 -64.9673 	 18.8613 	 -106.405
| 17> H 	 -64.0919 	 18.8858 	 -105.669
| 18> H 	 -64.35 	 18.6553 	 -107.271
| 19> C 	 -65.466 	 20.2748 	 -106.635
| 20> H 	 -65.7619 	 20.6493 	 -105.656
| 21> H 	 -64.6634 	 20.8825 	 -106.975
| 22> H 	 -66.2463 	 20.3046 	 -107.405
| 23> S 	 -63.8219 	 12.0382 	 -104.389
| 24> C 	 -62.2286 	 11.5988 	 -103.843
| 25> C 	 -61.3894 	 12.6549 	 -104.078
| 26> C 	 -62.0166 	 13.8109 	 -104.609
| 27> C 	 -63.3907 	 13.6323 	 -104.845
| 28> H 	 -60.3483 	 12.5746 	 -103.841
| 29> C 	 -61.1578 	 14.949 	 -105.085
| 30> H 	 -61.6959 	 15.3081 	 -105.957
| 31> H 	 -60.2193 	 14.3857 	 -105.41
| 32> C 	 -60.9263 	 16.1192 	 -104.094
| 33> H 	 -60.3177 	 15.768 	 -103.243
| 34> H 	 -61.8665 	 16.6179 	 -103.788
| 35> C 	 -60.0406 	 17.1794 	 -104.695
| 36> H 	 -59.0237 	 16.7918 	 -104.563
| 37> H 	 -60.2014 	 18.0795 	 -104.171
| 38> H 	 -60.2927 	 17.437 	 -105.724
| 39> H 	 -67.3314 	 15.4935 	 -107.33
| 40> H 	 -61.9395 	 10.689 	 -103.321
| 41> *
| 42>
| 43>                          ****END OF INPUT****

CARTESIAN COORDINATES (ANGSTROEM)
---------------------------------
  S    -65.704800   13.794700  -106.405000
  C    -66.381600   15.357000  -106.758000
  C    -65.703300   16.414700  -106.158000
  C    -64.611400   15.836800  -105.424000
  C    -64.482600   14.462300  -105.455000
  H    -64.037700   16.344700  -104.744000
  C    -66.036100   17.822200  -106.034000
  H    -66.346100   17.993700  -105.000000
  H    -66.983500   17.942400  -106.602000
  C    -64.967300   18.861300  -106.405000
  H    -64.091900   18.885800  -105.669000
  H    -64.350000   18.655300  -107.271000
  C    -65.466000   20.274800  -106.635000
  H    -65.761900   20.649300  -105.656000
  H    -64.663400   20.882500  -106.975000
  H    -66.246300   20.304600  -107.405000
  S    -63.821900   12.038200  -104.389000
  C    -62.228600   11.598800  -103.843000
  C    -61.389400   12.654900  -104.078000
  C    -62.016600   13.810900  -104.609000
  C    -63.390700   13.632300  -104.845000
  H    -60.348300   12.574600  -103.841000
  C    -61.157800   14.949000  -105.085000
  H    -61.695900   15.308100  -105.957000
  H    -60.219300   14.385700  -105.410000
  C    -60.926300   16.119200  -104.094000
  H    -60.317700   15.768000  -103.243000
  H    -61.866500   16.617900  -103.788000
  C    -60.040600   17.179400  -104.695000
  H    -59.023700   16.791800  -104.563000
  H    -60.201400   18.079500  -104.171000
  H    -60.292700   17.437000  -105.724000
  H    -67.331400   15.493500  -107.330000
  H    -61.939500   10.689000  -103.321000

 Total Charge           Charge          ....    0
 Multiplicity           Mult            ....    1
 Number of Electrons    NEL             ....  134
 Basis Dimension        Dim             ....  322

ORBITAL ENERGIES
----------------

  NO   OCC          E(Eh)            E(eV)
   0   2.0000     -88.967982     -2420.9419
   1   2.0000     -88.962465     -2420.7917
   2   2.0000     -10.330003      -281.0937
   3   2.0000     -10.328586      -281.0551
   4   2.0000     -10.317134      -280.7435
   5   2.0000     -10.315471      -280.6982
   6   2.0000     -10.301229      -280.3107
   7   2.0000     -10.299536      -280.2646
   8   2.0000     -10.297215      -280.2015
   9   2.0000     -10.292889      -280.0838
  10   2.0000     -10.292616      -280.0763
  11   2.0000     -10.288686      -279.9694
  12   2.0000     -10.288407      -279.9618
  13   2.0000     -10.283363      -279.8245
  14   2.0000     -10.278556      -279.6937
  15   2.0000     -10.271063      -279.4898
  16   2.0000      -8.083900      -219.9741
  17   2.0000      -8.078096      -219.8162
  18   2.0000      -6.042345      -164.4206
  19   2.0000      -6.038181      -164.3072
  20   2.0000      -6.036526      -164.2622
  21   2.0000      -6.034724      -164.2132
  22   2.0000      -6.032281      -164.1467
  23   2.0000      -6.029098      -164.0601
  24   2.0000      -1.013867       -27.5887
  25   2.0000      -0.992067       -26.9955
  26   2.0000      -0.920464       -25.0471
  27   2.0000      -0.910519       -24.7765
  28   2.0000      -0.872829       -23.7509
  29   2.0000      -0.856992       -23.3199
  30   2.0000      -0.853428       -23.2230
  31   2.0000      -0.818946       -22.2847
  32   2.0000      -0.785464       -21.3736
  33   2.0000      -0.769352       -20.9351
  34   2.0000      -0.708009       -19.2659
  35   2.0000      -0.695638       -18.9293
  36   2.0000      -0.687455       -18.7066
  37   2.0000      -0.666092       -18.1253
  38   2.0000      -0.643072       -17.4989
  39   2.0000      -0.626217       -17.0402
  40   2.0000      -0.592127       -16.1126
  41   2.0000      -0.577595       -15.7172
  42   2.0000      -0.575690       -15.6653
  43   2.0000      -0.559624       -15.2282
  44   2.0000      -0.536313       -14.5938
  45   2.0000      -0.526284       -14.3209
  46   2.0000      -0.521047       -14.1784
  47   2.0000      -0.514790       -14.0082
  48   2.0000      -0.506560       -13.7842
  49   2.0000      -0.500458       -13.6182
  50   2.0000      -0.497901       -13.5486
  51   2.0000      -0.484268       -13.1776
  52   2.0000      -0.471521       -12.8307
  53   2.0000      -0.465250       -12.6601
  54   2.0000      -0.463632       -12.6161
  55   2.0000      -0.450226       -12.2513
  56   2.0000      -0.444881       -12.1058
  57   2.0000      -0.435215       -11.8428
  58   2.0000      -0.432800       -11.7771
  59   2.0000      -0.428323       -11.6552
  60   2.0000      -0.424481       -11.5507
  61   2.0000      -0.411463       -11.1965
  62   2.0000      -0.407817       -11.0973
  63   2.0000      -0.355549        -9.6750
  64   2.0000      -0.330470        -8.9926
  65   2.0000      -0.327026        -8.8988
  66   2.0000      -0.288937        -7.8624
  67   0.0000       0.030333         0.8254
  68   0.0000       0.082101         2.2341
  69   0.0000       0.112665         3.0658
  70   0.0000       0.116983         3.1833
  71   0.0000       0.126930         3.4539

MULLIKEN ATOMIC CHARGES
-----------------------
   0 S :    0.122889
   1 C :   -0.146894
   2 C :   -0.062250
   3 C :    0.017716
   4 C :   -0.101212
   5 H :   -0.044725
   6 C :    0.091264
   7 H :    0.043601
   8 H :    0.014537
   9 C :   -0.114027
  10 H :    0.026857
  11 H :    0.022297
  12 C :   -0.022235
  13 H :    0.029049
  14 H :    0.026541
  15 H :    0.037726
  16 S :    0.087944
  17 C :   -0.087596
  18 C :   -0.036863
  19 C :   -0.034800
  20 C :   -0.134809
  21 H :    0.010361
  22 C :    0.016749
  23 H :    0.027212
  24 H :    0.038812
  25 C :   -0.076783
  26 H :    0.028775
  27 H :    0.038195
  28 C :   -0.016859
  29 H :    0.034669
  30 H :    0.019831
  31 H :    0.024266
  32 H :    0.058256
  33 H :    0.061506
Sum of atomic charges:   -0.0000000

LOEWDIN ATOMIC CHARGES
----------------------
   0 S :    0.438347
   1 C :   -0.209300
   2 C :   -0.060257
   3 C :   -0.062571
   4 C :   -0.210777
   5 H :    0.008820
   6 C :   -0.036905
   7 H :    0.041924
   8 H :    0.035010
   9 C :   -0.050950
  10 H :    0.028629
  11 H :    0.022822
  12 C :   -0.057834
  13 H :    0.024373
  14 H :    0.024286
  15 H :    0.026959
  16 S :    0.420951
  17 C :   -0.191484
  18 C :   -0.073606
  19 C :   -0.065863
  20 C :   -0.205257
  21 H :    0.027977
  22 C :   -0.036216
  23 H :    0.030268
  24 H :    0.041524
  25 C :   -0.040211
  26 H :    0.027849
  27 H :    0.023733
  28 C :   -0.062003
  29 H :    0.028185
  30 H :    0.019743
  31 H :    0.022238
  32 H :    0.034184
  33 H :    0.035412

  Mayer bond orders larger than 0.100000
B(  0-S ,  1-C ) :   1.1492 B(  0-S ,  4-C ) :   1.1696 B(  1-C ,  2-C ) :   1.5905
B(  1-C , 32-H ) :   0.9578 B(  2-C ,  3-C ) :   1.2426 B(  2-C ,  6-C ) :   1.0509
B(  3-C ,  4-C ) :   1.5680 B(  3-C ,  5-H ) :   1.0125 B(  4-C , 20-C ) :   1.0133
B(  6-C ,  7-H ) :   0.9262 B(  6-C ,  8-H ) :   0.9352 B(  6-C ,  9-C ) :   1.0390
B(  9-C , 10-H ) :   0.9471 B(  9-C , 11-H ) :   0.9615 B(  9-C , 12-C ) :   1.0981
B( 12-C , 13-H ) :   0.9750 B( 12-C , 14-H ) :   0.9722 B( 12-C , 15-H ) :   0.9748
B( 16-S , 17-C ) :   1.1612 B( 16-S , 20-C ) :   1.1609 B( 17-C , 18-C ) :   1.5798
B( 17-C , 20-C ) :   0.1005 B( 17-C , 33-H ) :   0.9698 B( 18-C , 19-C ) :   1.2814
B( 18-C , 21-H ) :   0.9917 B( 19-C , 20-C ) :   1.5535 B( 19-C , 22-C ) :   1.0262
B( 22-C , 23-H ) :   0.9316 B( 22-C , 24-H ) :   0.9453 B( 22-C , 25-C ) :   1.0706
B( 25-C , 26-H ) :   0.9567 B( 25-C , 27-H ) :   0.9540 B( 25-C , 28-C ) :   1.0833
B( 28-C , 29-H ) :   0.9801 B( 28-C , 30-H ) :   0.9739 B( 28-C , 31-H ) :   0.9716

Dispersion correction           -0.013803198
FINAL SINGLE POINT ENERGY     -1339.874014913353

DIPOLE MOMENT
-------------
                                X             Y             Z
Electronic contribution:    -11.38105     -31.53036       0.85407
Nuclear contribution   :     11.69352      32.14961      -0.74804
                        -----------------------------------------
Total Dipole Moment    :      0.31247       0.61925       0.10603
                        -----------------------------------------
Magnitude (a.u.)       :      0.70167
Magnitude (Debye)      :      1.78351

Rotational constants in cm-1:     0.017433     0.009344     0.006294
Rotational constants in MHz :   522.640972   280.116373   188.690122

                             ****ORCA TERMINATED NORMALLY****
TOTAL RUN TIME: 0 days 0 hours 0 minutes 21 seconds 721 msec
