                         Program Version 4.2.1 -  RELEASE  -
|  1> ! wB97X-D3 SP def2-SVP
|  2> %pal
|  3> nprocs 24
|  4> end
|  5>
|  6> * xyz 0 1
|  7> S 	 45.0631 	 -16.5388 	 -114.834
|  8> C 	 45.9624 	 -15.6498 	 -113.544
|  9> C 	 45.1561 	 -15.1789 	 -112.55
| 10> C 	 43.8576 	 -15.7662 	 -112.545
| 11> C 	 43.6482 	 -16.605 	 -113.664
| 12> H 	 43.0608 	 -15.5663 	 -111.768
| 13> C 	 45.6829 	 -14.4528 	 -111.39
| 14> H 	 45.3072 	 -13.4445 	 -111.205
| 15> H 	 46.7373 	 -14.4339 	 -111.489
| 16> C 	 45.5587 	 -15.2539 	 -110.06
| 17> H 	 44.5847 	 -15.1005 	 -109.586
| 18> H 	 45.757 	 -16.3141 	 -110.22
| 19> C 	 46.778 	 -14.7793 	 -109.169
| 20> H 	 46.5311 	 -13.7627 	 -108.844
| 21> H 	 46.8965 	 -15.3266 	 -108.26
| 22> H 	 47.7414 	 -14.7095 	 -109.645
| 23> S 	 42.3385 	 -17.6617 	 -115.847
| 24> C 	 40.7034 	 -18.1597 	 -115.765
| 25> C 	 40.2472 	 -18.1545 	 -114.443
| 26> C 	 41.1879 	 -17.6791 	 -113.526
| 27> C 	 42.3886 	 -17.2199 	 -114.139
| 28> H 	 39.1944 	 -18.4237 	 -114.33
| 29> C 	 40.8575 	 -17.717 	 -112.031
| 30> H 	 39.7501 	 -17.8585 	 -111.873
| 31> H 	 41.0269 	 -16.7472 	 -111.59
| 32> C 	 41.5248 	 -18.798 	 -111.108
| 33> H 	 42.56 	 -18.6076 	 -111.235
| 34> H 	 41.3618 	 -19.8074 	 -111.531
| 35> C 	 41.0507 	 -18.7875 	 -109.654
| 36> H 	 41.1831 	 -17.8348 	 -109.13
| 37> H 	 41.6147 	 -19.5685 	 -109.188
| 38> H 	 39.9842 	 -18.985 	 -109.65
| 39> H 	 47.0639 	 -15.48 	 -113.629
| 40> H 	 40.0891 	 -18.4176 	 -116.592
| 41> *
| 42>
| 43>                          ****END OF INPUT****

CARTESIAN COORDINATES (ANGSTROEM)
---------------------------------
  S     45.063100  -16.538800  -114.834000
  C     45.962400  -15.649800  -113.544000
  C     45.156100  -15.178900  -112.550000
  C     43.857600  -15.766200  -112.545000
  C     43.648200  -16.605000  -113.664000
  H     43.060800  -15.566300  -111.768000
  C     45.682900  -14.452800  -111.390000
  H     45.307200  -13.444500  -111.205000
  H     46.737300  -14.433900  -111.489000
  C     45.558700  -15.253900  -110.060000
  H     44.584700  -15.100500  -109.586000
  H     45.757000  -16.314100  -110.220000
  C     46.778000  -14.779300  -109.169000
  H     46.531100  -13.762700  -108.844000
  H     46.896500  -15.326600  -108.260000
  H     47.741400  -14.709500  -109.645000
  S     42.338500  -17.661700  -115.847000
  C     40.703400  -18.159700  -115.765000
  C     40.247200  -18.154500  -114.443000
  C     41.187900  -17.679100  -113.526000
  C     42.388600  -17.219900  -114.139000
  H     39.194400  -18.423700  -114.330000
  C     40.857500  -17.717000  -112.031000
  H     39.750100  -17.858500  -111.873000
  H     41.026900  -16.747200  -111.590000
  C     41.524800  -18.798000  -111.108000
  H     42.560000  -18.607600  -111.235000
  H     41.361800  -19.807400  -111.531000
  C     41.050700  -18.787500  -109.654000
  H     41.183100  -17.834800  -109.130000
  H     41.614700  -19.568500  -109.188000
  H     39.984200  -18.985000  -109.650000
  H     47.063900  -15.480000  -113.629000
  H     40.089100  -18.417600  -116.592000

 Total Charge           Charge          ....    0
 Multiplicity           Mult            ....    1
 Number of Electrons    NEL             ....  134
 Basis Dimension        Dim             ....  322

ORBITAL ENERGIES
----------------

  NO   OCC          E(Eh)            E(eV)
   0   2.0000     -88.968494     -2420.9558
   1   2.0000     -88.967253     -2420.9220
   2   2.0000     -10.345254      -281.5087
   3   2.0000     -10.335218      -281.2356
   4   2.0000     -10.319173      -280.7990
   5   2.0000     -10.313083      -280.6332
   6   2.0000     -10.309213      -280.5280
   7   2.0000     -10.304942      -280.4117
   8   2.0000     -10.298534      -280.2374
   9   2.0000     -10.294893      -280.1383
  10   2.0000     -10.292711      -280.0789
  11   2.0000     -10.291856      -280.0556
  12   2.0000     -10.286308      -279.9047
  13   2.0000     -10.283670      -279.8329
  14   2.0000     -10.278391      -279.6892
  15   2.0000     -10.277815      -279.6736
  16   2.0000      -8.083441      -219.9616
  17   2.0000      -8.079966      -219.8671
  18   2.0000      -6.041857      -164.4073
  19   2.0000      -6.038730      -164.3222
  20   2.0000      -6.037857      -164.2984
  21   2.0000      -6.035188      -164.2258
  22   2.0000      -6.034380      -164.2038
  23   2.0000      -6.030159      -164.0890
  24   2.0000      -1.002511       -27.2797
  25   2.0000      -0.979518       -26.6540
  26   2.0000      -0.913450       -24.8562
  27   2.0000      -0.903891       -24.5961
  28   2.0000      -0.865258       -23.5449
  29   2.0000      -0.855092       -23.2682
  30   2.0000      -0.840688       -22.8763
  31   2.0000      -0.812455       -22.1080
  32   2.0000      -0.781062       -21.2538
  33   2.0000      -0.768375       -20.9085
  34   2.0000      -0.713203       -19.4072
  35   2.0000      -0.699553       -19.0358
  36   2.0000      -0.691114       -18.8062
  37   2.0000      -0.660851       -17.9827
  38   2.0000      -0.636106       -17.3093
  39   2.0000      -0.620380       -16.8814
  40   2.0000      -0.596247       -16.2247
  41   2.0000      -0.578624       -15.7451
  42   2.0000      -0.563778       -15.3412
  43   2.0000      -0.557238       -15.1632
  44   2.0000      -0.526530       -14.3276
  45   2.0000      -0.521152       -14.1813
  46   2.0000      -0.514379       -13.9970
  47   2.0000      -0.512636       -13.9495
  48   2.0000      -0.503220       -13.6933
  49   2.0000      -0.499509       -13.5923
  50   2.0000      -0.486571       -13.2403
  51   2.0000      -0.479775       -13.0553
  52   2.0000      -0.474365       -12.9081
  53   2.0000      -0.470419       -12.8008
  54   2.0000      -0.453560       -12.3420
  55   2.0000      -0.446991       -12.1632
  56   2.0000      -0.441910       -12.0250
  57   2.0000      -0.437048       -11.8927
  58   2.0000      -0.433264       -11.7897
  59   2.0000      -0.431517       -11.7422
  60   2.0000      -0.420507       -11.4426
  61   2.0000      -0.417191       -11.3523
  62   2.0000      -0.409872       -11.1532
  63   2.0000      -0.358744        -9.7619
  64   2.0000      -0.338299        -9.2056
  65   2.0000      -0.327217        -8.9040
  66   2.0000      -0.275803        -7.5050
  67   0.0000       0.011951         0.3252
  68   0.0000       0.070343         1.9141
  69   0.0000       0.088680         2.4131
  70   0.0000       0.120200         3.2708
  71   0.0000       0.126767         3.4495

MULLIKEN ATOMIC CHARGES
-----------------------
   0 S :    0.067448
   1 C :   -0.141127
   2 C :   -0.044580
   3 C :   -0.020210
   4 C :   -0.088546
   5 H :    0.039912
   6 C :    0.076946
   7 H :    0.042389
   8 H :   -0.003146
   9 C :   -0.101058
  10 H :    0.040778
  11 H :    0.043703
  12 C :   -0.063950
  13 H :    0.020363
  14 H :    0.029121
  15 H :    0.036965
  16 S :    0.095936
  17 C :   -0.083206
  18 C :   -0.057043
  19 C :   -0.008687
  20 C :   -0.133812
  21 H :    0.026664
  22 C :    0.018577
  23 H :    0.014588
  24 H :    0.016129
  25 C :   -0.067403
  26 H :    0.023537
  27 H :    0.030428
  28 C :   -0.027033
  29 H :    0.030738
  30 H :    0.040296
  31 H :    0.029473
  32 H :    0.067799
  33 H :    0.048012
Sum of atomic charges:   -0.0000000

LOEWDIN ATOMIC CHARGES
----------------------
   0 S :    0.332829
   1 C :   -0.178107
   2 C :   -0.067554
   3 C :   -0.066923
   4 C :   -0.150373
   5 H :    0.042666
   6 C :   -0.029868
   7 H :    0.034664
   8 H :    0.024797
   9 C :   -0.031821
  10 H :    0.022585
  11 H :    0.025866
  12 C :   -0.066133
  13 H :    0.024383
  14 H :    0.020350
  15 H :    0.023302
  16 S :    0.422325
  17 C :   -0.194890
  18 C :   -0.075388
  19 C :   -0.059797
  20 C :   -0.191968
  21 H :    0.036794
  22 C :   -0.037082
  23 H :    0.029964
  24 H :    0.020875
  25 C :   -0.037248
  26 H :    0.017135
  27 H :    0.027467
  28 C :   -0.059725
  29 H :    0.025020
  30 H :    0.029520
  31 H :    0.025269
  32 H :    0.035976
  33 H :    0.025092

  Mayer bond orders larger than 0.100000
B(  0-S ,  1-C ) :   1.0979 B(  0-S ,  4-C ) :   1.1185 B(  1-C ,  2-C ) :   1.6483
B(  1-C , 32-H ) :   0.9572 B(  2-C ,  3-C ) :   1.2041 B(  2-C ,  6-C ) :   1.0540
B(  3-C ,  4-C ) :   1.5859 B(  3-C ,  5-H ) :   0.9794 B(  4-C , 20-C ) :   1.0937
B(  6-C ,  7-H ) :   0.9263 B(  6-C ,  8-H ) :   0.9476 B(  6-C ,  9-C ) :   1.0526
B(  9-C , 10-H ) :   0.9543 B(  9-C , 11-H ) :   0.9625 B(  9-C , 12-C ) :   1.0749
B( 12-C , 13-H ) :   0.9751 B( 12-C , 14-H ) :   0.9763 B( 12-C , 15-H ) :   0.9778
B( 16-S , 17-C ) :   1.1831 B( 16-S , 20-C ) :   1.1503 B( 17-C , 18-C ) :   1.5674
B( 17-C , 20-C ) :   0.1069 B( 17-C , 33-H ) :   0.9711 B( 18-C , 19-C ) :   1.2900
B( 18-C , 21-H ) :   0.9918 B( 19-C , 20-C ) :   1.5204 B( 19-C , 22-C ) :   1.0372
B( 22-C , 23-H ) :   0.9393 B( 22-C , 24-H ) :   0.9359 B( 22-C , 25-C ) :   1.0545
B( 25-C , 26-H ) :   0.9556 B( 25-C , 27-H ) :   0.9550 B( 25-C , 28-C ) :   1.0802
B( 28-C , 29-H ) :   0.9751 B( 28-C , 30-H ) :   0.9728 B( 28-C , 31-H ) :   0.9741

Dispersion correction           -0.013715121
FINAL SINGLE POINT ENERGY     -1339.862886439903

DIPOLE MOMENT
-------------
                                X             Y             Z
Electronic contribution:     -0.62214      -2.15819     -32.55341
Nuclear contribution   :      0.44687       2.25627      33.23029
                        -----------------------------------------
Total Dipole Moment    :     -0.17526       0.09809       0.67688
                        -----------------------------------------
Magnitude (a.u.)       :      0.70605
Magnitude (Debye)      :      1.79464

Rotational constants in cm-1:     0.017222     0.009248     0.006320
Rotational constants in MHz :   516.310625   277.256530   189.455504

                             ****ORCA TERMINATED NORMALLY****
TOTAL RUN TIME: 0 days 0 hours 0 minutes 20 seconds 274 msec
