                         Program Version 4.2.1 -  RELEASE  -
|  1> ! wB97X-D3 SP def2-SVP
|  2> %pal
|  3> nprocs 24
|  4> end
|  5>
|  6> * xyz 0 1
|  7> S 	 -47.9462 	 7.01191 	 -22.9669
|  8> C 	 -47.9852 	 6.16006 	 -21.4064
|  9> C 	 -48.8915 	 6.73902 	 -20.5049
| 10> C 	 -49.7438 	 7.64259 	 -21.1645
| 11> C 	 -49.3554 	 7.92151 	 -22.4936
| 12> H 	 -50.5078 	 8.20755 	 -20.661
| 13> C 	 -48.9851 	 6.3455 	 -19.0808
| 14> H 	 -48.0674 	 5.74648 	 -18.7806
| 15> H 	 -49.7777 	 5.73641 	 -19.0424
| 16> C 	 -49.0069 	 7.57698 	 -18.0959
| 17> H 	 -49.9214 	 8.26809 	 -18.1964
| 18> H 	 -49.1586 	 7.17926 	 -17.1303
| 19> C 	 -47.7783 	 8.4965 	 -18.1692
| 20> H 	 -47.5594 	 9.08231 	 -17.2685
| 21> H 	 -46.8873 	 7.95059 	 -18.4921
| 22> H 	 -47.9261 	 9.13724 	 -19.0251
| 23> S 	 -50.2117 	 8.27774 	 -25.1758
| 24> C 	 -51.0878 	 9.63066 	 -25.5686
| 25> C 	 -51.2205 	 10.5701 	 -24.5385
| 26> C 	 -50.7295 	 10.0368 	 -23.3293
| 27> C 	 -50.0568 	 8.79591 	 -23.4616
| 28> H 	 -51.7528 	 11.5074 	 -24.7196
| 29> C 	 -50.7375 	 10.7597 	 -22.0064
| 30> H 	 -51.4184 	 10.2251 	 -21.2962
| 31> H 	 -51.2618 	 11.7099 	 -22.1638
| 32> C 	 -49.3888 	 11.1062 	 -21.1848
| 33> H 	 -48.5894 	 11.493 	 -21.8841
| 34> H 	 -49.0185 	 10.1349 	 -20.8665
| 35> C 	 -49.5978 	 11.9906 	 -19.9504
| 36> H 	 -50.057 	 12.9285 	 -20.1488
| 37> H 	 -48.689 	 12.0841 	 -19.4305
| 38> H 	 -50.3632 	 11.5175 	 -19.3246
| 39> H 	 -47.1824 	 5.55589 	 -21.0966
| 40> H 	 -51.4072 	 9.75925 	 -26.6493
| 41> *
| 42>
| 43>                          ****END OF INPUT****

CARTESIAN COORDINATES (ANGSTROEM)
---------------------------------
  S    -47.946200    7.011910  -22.966900
  C    -47.985200    6.160060  -21.406400
  C    -48.891500    6.739020  -20.504900
  C    -49.743800    7.642590  -21.164500
  C    -49.355400    7.921510  -22.493600
  H    -50.507800    8.207550  -20.661000
  C    -48.985100    6.345500  -19.080800
  H    -48.067400    5.746480  -18.780600
  H    -49.777700    5.736410  -19.042400
  C    -49.006900    7.576980  -18.095900
  H    -49.921400    8.268090  -18.196400
  H    -49.158600    7.179260  -17.130300
  C    -47.778300    8.496500  -18.169200
  H    -47.559400    9.082310  -17.268500
  H    -46.887300    7.950590  -18.492100
  H    -47.926100    9.137240  -19.025100
  S    -50.211700    8.277740  -25.175800
  C    -51.087800    9.630660  -25.568600
  C    -51.220500   10.570100  -24.538500
  C    -50.729500   10.036800  -23.329300
  C    -50.056800    8.795910  -23.461600
  H    -51.752800   11.507400  -24.719600
  C    -50.737500   10.759700  -22.006400
  H    -51.418400   10.225100  -21.296200
  H    -51.261800   11.709900  -22.163800
  C    -49.388800   11.106200  -21.184800
  H    -48.589400   11.493000  -21.884100
  H    -49.018500   10.134900  -20.866500
  C    -49.597800   11.990600  -19.950400
  H    -50.057000   12.928500  -20.148800
  H    -48.689000   12.084100  -19.430500
  H    -50.363200   11.517500  -19.324600
  H    -47.182400    5.555890  -21.096600
  H    -51.407200    9.759250  -26.649300

 Total Charge           Charge          ....    0
 Multiplicity           Mult            ....    1
 Number of Electrons    NEL             ....  134
 Basis Dimension        Dim             ....  322

ORBITAL ENERGIES
----------------

  NO   OCC          E(Eh)            E(eV)
   0   2.0000     -88.969551     -2420.9846
   1   2.0000     -88.967434     -2420.9270
   2   2.0000     -10.336235      -281.2632
   3   2.0000     -10.330250      -281.1004
   4   2.0000     -10.319112      -280.7973
   5   2.0000     -10.309806      -280.5441
   6   2.0000     -10.307989      -280.4946
   7   2.0000     -10.299993      -280.2771
   8   2.0000     -10.297283      -280.2033
   9   2.0000     -10.297082      -280.1978
  10   2.0000     -10.294836      -280.1367
  11   2.0000     -10.293031      -280.0876
  12   2.0000     -10.292508      -280.0734
  13   2.0000     -10.291220      -280.0383
  14   2.0000     -10.278258      -279.6856
  15   2.0000     -10.274205      -279.5753
  16   2.0000      -8.083715      -219.9691
  17   2.0000      -8.083161      -219.9540
  18   2.0000      -6.042114      -164.4143
  19   2.0000      -6.041328      -164.3929
  20   2.0000      -6.038410      -164.3135
  21   2.0000      -6.037374      -164.2853
  22   2.0000      -6.034536      -164.2081
  23   2.0000      -6.034378      -164.2038
  24   2.0000      -1.005273       -27.3549
  25   2.0000      -0.985493       -26.8166
  26   2.0000      -0.913862       -24.8675
  27   2.0000      -0.900630       -24.5074
  28   2.0000      -0.862183       -23.4612
  29   2.0000      -0.857820       -23.3425
  30   2.0000      -0.845483       -23.0068
  31   2.0000      -0.812609       -22.1122
  32   2.0000      -0.787230       -21.4216
  33   2.0000      -0.770760       -20.9734
  34   2.0000      -0.710559       -19.3353
  35   2.0000      -0.701682       -19.0937
  36   2.0000      -0.688079       -18.7236
  37   2.0000      -0.658382       -17.9155
  38   2.0000      -0.635758       -17.2998
  39   2.0000      -0.623873       -16.9765
  40   2.0000      -0.595109       -16.1937
  41   2.0000      -0.570639       -15.5279
  42   2.0000      -0.561091       -15.2681
  43   2.0000      -0.552740       -15.0408
  44   2.0000      -0.537620       -14.6294
  45   2.0000      -0.528566       -14.3830
  46   2.0000      -0.514210       -13.9924
  47   2.0000      -0.510442       -13.8898
  48   2.0000      -0.496632       -13.5140
  49   2.0000      -0.492680       -13.4065
  50   2.0000      -0.489133       -13.3100
  51   2.0000      -0.481797       -13.1104
  52   2.0000      -0.473946       -12.8967
  53   2.0000      -0.462503       -12.5853
  54   2.0000      -0.460547       -12.5321
  55   2.0000      -0.455130       -12.3847
  56   2.0000      -0.451879       -12.2963
  57   2.0000      -0.446872       -12.1600
  58   2.0000      -0.432919       -11.7803
  59   2.0000      -0.423557       -11.5256
  60   2.0000      -0.418959       -11.4005
  61   2.0000      -0.416529       -11.3343
  62   2.0000      -0.408878       -11.1261
  63   2.0000      -0.347330        -9.4513
  64   2.0000      -0.334835        -9.1113
  65   2.0000      -0.333324        -9.0702
  66   2.0000      -0.280086        -7.6215
  67   0.0000       0.020854         0.5675
  68   0.0000       0.071962         1.9582
  69   0.0000       0.102278         2.7831
  70   0.0000       0.118141         3.2148
  71   0.0000       0.129535         3.5248

MULLIKEN ATOMIC CHARGES
-----------------------
   0 S :    0.109182
   1 C :   -0.107366
   2 C :   -0.117223
   3 C :    0.040382
   4 C :   -0.143124
   5 H :   -0.002450
   6 C :    0.106817
   7 H :    0.031492
   8 H :    0.018480
   9 C :   -0.100419
  10 H :    0.034201
  11 H :    0.018857
  12 C :   -0.035249
  13 H :    0.048419
  14 H :    0.021821
  15 H :    0.027033
  16 S :    0.122599
  17 C :   -0.123123
  18 C :   -0.038886
  19 C :   -0.007999
  20 C :   -0.151651
  21 H :    0.028181
  22 C :   -0.003435
  23 H :    0.037444
  24 H :    0.009273
  25 C :   -0.074804
  26 H :    0.041311
  27 H :    0.027661
  28 C :   -0.008014
  29 H :    0.022281
  30 H :    0.037168
  31 H :    0.015770
  32 H :    0.032282
  33 H :    0.083088
Sum of atomic charges:   -0.0000000

LOEWDIN ATOMIC CHARGES
----------------------
   0 S :    0.402795
   1 C :   -0.194329
   2 C :   -0.056196
   3 C :   -0.066412
   4 C :   -0.185479
   5 H :    0.025408
   6 C :   -0.018123
   7 H :    0.040519
   8 H :    0.019011
   9 C :   -0.040448
  10 H :    0.027993
  11 H :    0.015560
  12 C :   -0.068387
  13 H :    0.031677
  14 H :    0.025786
  15 H :    0.025560
  16 S :    0.435541
  17 C :   -0.217820
  18 C :   -0.081755
  19 C :   -0.054168
  20 C :   -0.196441
  21 H :    0.037820
  22 C :   -0.042360
  23 H :    0.032034
  24 H :    0.025794
  25 C :   -0.038016
  26 H :    0.029944
  27 H :    0.017044
  28 C :   -0.058175
  29 H :    0.020265
  30 H :    0.024580
  31 H :    0.026507
  32 H :    0.013207
  33 H :    0.041063

  Mayer bond orders larger than 0.100000
B(  0-S ,  1-C ) :   1.1318 B(  0-S ,  4-C ) :   1.1780 B(  1-C ,  2-C ) :   1.5840
B(  1-C ,  4-C ) :   0.1057 B(  1-C , 32-H ) :   0.9672 B(  2-C ,  3-C ) :   1.2736
B(  2-C ,  6-C ) :   1.0193 B(  3-C ,  4-C ) :   1.5185 B(  3-C ,  5-H ) :   0.9882
B(  4-C , 20-C ) :   1.0648 B(  6-C ,  7-H ) :   0.9405 B(  6-C ,  8-H ) :   0.9354
B(  6-C ,  9-C ) :   1.0683 B(  9-C , 10-H ) :   0.9568 B(  9-C , 11-H ) :   0.9602
B(  9-C , 12-C ) :   1.0576 B( 12-C , 13-H ) :   0.9736 B( 12-C , 14-H ) :   0.9722
B( 12-C , 15-H ) :   0.9711 B( 16-S , 17-C ) :   1.2227 B( 16-S , 20-C ) :   1.1431
B( 17-C , 18-C ) :   1.5335 B( 17-C , 20-C ) :   0.1037 B( 17-C , 33-H ) :   0.9549
B( 18-C , 19-C ) :   1.2926 B( 18-C , 21-H ) :   0.9938 B( 19-C , 20-C ) :   1.5291
B( 19-C , 22-C ) :   1.0502 B( 22-C , 23-H ) :   0.9277 B( 22-C , 24-H ) :   0.9363
B( 22-C , 25-C ) :   1.0441 B( 25-C , 26-H ) :   0.9540 B( 25-C , 27-H ) :   0.9474
B( 25-C , 28-C ) :   1.0849 B( 28-C , 29-H ) :   0.9756 B( 28-C , 30-H ) :   0.9717
B( 28-C , 31-H ) :   0.9706

Dispersion correction           -0.016296690
FINAL SINGLE POINT ENERGY     -1339.870270894323

DIPOLE MOMENT
-------------
                                X             Y             Z
Electronic contribution:     -0.81110     -12.80797     -28.77523
Nuclear contribution   :      0.69056      13.13359      29.31842
                        -----------------------------------------
Total Dipole Moment    :     -0.12054       0.32561       0.54319
                        -----------------------------------------
Magnitude (a.u.)       :      0.64468
Magnitude (Debye)      :      1.63864

Rotational constants in cm-1:     0.019140     0.010324     0.007356
Rotational constants in MHz :   573.809612   309.513883   220.522934

                             ****ORCA TERMINATED NORMALLY****
TOTAL RUN TIME: 0 days 0 hours 0 minutes 23 seconds 297 msec
