                         Program Version 4.2.1 -  RELEASE  -
|  1> ! wB97X-D3 SP def2-SVP
|  2> %pal
|  3> nprocs 24
|  4> end
|  5>
|  6> * xyz 0 1
|  7> S 	 -56.5698 	 1.75734 	 -19.853
|  8> C 	 -57.5981 	 3.11687 	 -19.938
|  9> C 	 -58.8007 	 2.86208 	 -20.5702
| 10> C 	 -58.9202 	 1.45679 	 -20.8593
| 11> C 	 -57.8495 	 0.742367 	 -20.4813
| 12> H 	 -59.7722 	 1.0474 	 -21.3707
| 13> C 	 -59.9057 	 3.79362 	 -20.9737
| 14> H 	 -59.7184 	 4.74512 	 -20.6159
| 15> H 	 -60.7413 	 3.64811 	 -20.2887
| 16> C 	 -60.2947 	 3.92829 	 -22.4552
| 17> H 	 -59.4223 	 3.85283 	 -23.0589
| 18> H 	 -60.8868 	 2.98605 	 -22.7567
| 19> C 	 -60.9675 	 5.31874 	 -22.8479
| 20> H 	 -61.3788 	 5.27778 	 -23.8789
| 21> H 	 -61.6577 	 5.47521 	 -22.0534
| 22> H 	 -60.1985 	 6.16345 	 -22.804
| 23> S 	 -56.4962 	 -0.849967 	 -22.1202
| 24> C 	 -56.9598 	 -2.54888 	 -22.1141
| 25> C 	 -57.7261 	 -2.94337 	 -20.9913
| 26> C 	 -58.1257 	 -1.77049 	 -20.2613
| 27> C 	 -57.5581 	 -0.619516 	 -20.8204
| 28> H 	 -58.0061 	 -4.02045 	 -20.8847
| 29> C 	 -58.8785 	 -1.83652 	 -18.899
| 30> H 	 -58.8686 	 -0.893942 	 -18.3112
| 31> H 	 -58.3424 	 -2.52258 	 -18.2687
| 32> C 	 -60.3669 	 -2.33401 	 -18.9958
| 33> H 	 -60.6607 	 -2.4328 	 -17.9489
| 34> H 	 -60.2743 	 -3.32858 	 -19.4353
| 35> C 	 -61.2915 	 -1.43559 	 -19.7769
| 36> H 	 -62.3136 	 -1.78037 	 -19.6111
| 37> H 	 -61.0281 	 -1.40162 	 -20.8375
| 38> H 	 -61.2054 	 -0.382522 	 -19.4834
| 39> H 	 -57.2989 	 4.1524 	 -19.6287
| 40> H 	 -56.4453 	 -3.338 	 -22.6626
| 41> *
| 42>
| 43>                          ****END OF INPUT****

CARTESIAN COORDINATES (ANGSTROEM)
---------------------------------
  S    -56.569800    1.757340  -19.853000
  C    -57.598100    3.116870  -19.938000
  C    -58.800700    2.862080  -20.570200
  C    -58.920200    1.456790  -20.859300
  C    -57.849500    0.742367  -20.481300
  H    -59.772200    1.047400  -21.370700
  C    -59.905700    3.793620  -20.973700
  H    -59.718400    4.745120  -20.615900
  H    -60.741300    3.648110  -20.288700
  C    -60.294700    3.928290  -22.455200
  H    -59.422300    3.852830  -23.058900
  H    -60.886800    2.986050  -22.756700
  C    -60.967500    5.318740  -22.847900
  H    -61.378800    5.277780  -23.878900
  H    -61.657700    5.475210  -22.053400
  H    -60.198500    6.163450  -22.804000
  S    -56.496200   -0.849967  -22.120200
  C    -56.959800   -2.548880  -22.114100
  C    -57.726100   -2.943370  -20.991300
  C    -58.125700   -1.770490  -20.261300
  C    -57.558100   -0.619516  -20.820400
  H    -58.006100   -4.020450  -20.884700
  C    -58.878500   -1.836520  -18.899000
  H    -58.868600   -0.893942  -18.311200
  H    -58.342400   -2.522580  -18.268700
  C    -60.366900   -2.334010  -18.995800
  H    -60.660700   -2.432800  -17.948900
  H    -60.274300   -3.328580  -19.435300
  C    -61.291500   -1.435590  -19.776900
  H    -62.313600   -1.780370  -19.611100
  H    -61.028100   -1.401620  -20.837500
  H    -61.205400   -0.382522  -19.483400
  H    -57.298900    4.152400  -19.628700
  H    -56.445300   -3.338000  -22.662600

 Total Charge           Charge          ....    0
 Multiplicity           Mult            ....    1
 Number of Electrons    NEL             ....  134
 Basis Dimension        Dim             ....  322

ORBITAL ENERGIES
----------------

  NO   OCC          E(Eh)            E(eV)
   0   2.0000     -88.969927     -2420.9948
   1   2.0000     -88.963604     -2420.8227
   2   2.0000     -10.317341      -280.7491
   3   2.0000     -10.316711      -280.7320
   4   2.0000     -10.316648      -280.7303
   5   2.0000     -10.313562      -280.6463
   6   2.0000     -10.306116      -280.4437
   7   2.0000     -10.302507      -280.3455
   8   2.0000     -10.298277      -280.2304
   9   2.0000     -10.294097      -280.1166
  10   2.0000     -10.291806      -280.0543
  11   2.0000     -10.291480      -280.0454
  12   2.0000     -10.286294      -279.9043
  13   2.0000     -10.284908      -279.8666
  14   2.0000     -10.284066      -279.8437
  15   2.0000     -10.274060      -279.5714
  16   2.0000      -8.085320      -220.0128
  17   2.0000      -8.079434      -219.8526
  18   2.0000      -6.043604      -164.4548
  19   2.0000      -6.039889      -164.3537
  20   2.0000      -6.037869      -164.2988
  21   2.0000      -6.036119      -164.2511
  22   2.0000      -6.033904      -164.1909
  23   2.0000      -6.030106      -164.0875
  24   2.0000      -1.013445       -27.5772
  25   2.0000      -0.985412       -26.8144
  26   2.0000      -0.908955       -24.7339
  27   2.0000      -0.902200       -24.5501
  28   2.0000      -0.869059       -23.6483
  29   2.0000      -0.849855       -23.1257
  30   2.0000      -0.846853       -23.0440
  31   2.0000      -0.811967       -22.0947
  32   2.0000      -0.783095       -21.3091
  33   2.0000      -0.769110       -20.9286
  34   2.0000      -0.708501       -19.2793
  35   2.0000      -0.694944       -18.9104
  36   2.0000      -0.685652       -18.6575
  37   2.0000      -0.655429       -17.8351
  38   2.0000      -0.644502       -17.5378
  39   2.0000      -0.626170       -17.0390
  40   2.0000      -0.593585       -16.1523
  41   2.0000      -0.563244       -15.3266
  42   2.0000      -0.547662       -14.9026
  43   2.0000      -0.543725       -14.7955
  44   2.0000      -0.543196       -14.7811
  45   2.0000      -0.530733       -14.4420
  46   2.0000      -0.512319       -13.9409
  47   2.0000      -0.508940       -13.8490
  48   2.0000      -0.500300       -13.6139
  49   2.0000      -0.497355       -13.5337
  50   2.0000      -0.489150       -13.3104
  51   2.0000      -0.474494       -12.9116
  52   2.0000      -0.464142       -12.6299
  53   2.0000      -0.463198       -12.6043
  54   2.0000      -0.456961       -12.4345
  55   2.0000      -0.455451       -12.3935
  56   2.0000      -0.450073       -12.2471
  57   2.0000      -0.440870       -11.9967
  58   2.0000      -0.432038       -11.7563
  59   2.0000      -0.423272       -11.5178
  60   2.0000      -0.419956       -11.4276
  61   2.0000      -0.416035       -11.3209
  62   2.0000      -0.408508       -11.1161
  63   2.0000      -0.344379        -9.3710
  64   2.0000      -0.329723        -8.9722
  65   2.0000      -0.321288        -8.7427
  66   2.0000      -0.299108        -8.1391
  67   0.0000       0.044338         1.2065
  68   0.0000       0.060123         1.6360
  69   0.0000       0.108190         2.9440
  70   0.0000       0.124383         3.3846
  71   0.0000       0.126516         3.4427

MULLIKEN ATOMIC CHARGES
-----------------------
   0 S :    0.109888
   1 C :   -0.124090
   2 C :   -0.112666
   3 C :    0.049775
   4 C :   -0.163374
   5 H :    0.006305
   6 C :    0.118715
   7 H :   -0.034565
   8 H :    0.026175
   9 C :   -0.093862
  10 H :    0.028606
  11 H :    0.042503
  12 C :   -0.074907
  13 H :    0.056535
  14 H :    0.035581
  15 H :    0.047339
  16 S :    0.143289
  17 C :   -0.104813
  18 C :   -0.070870
  19 C :   -0.004583
  20 C :   -0.178621
  21 H :    0.047424
  22 C :    0.035424
  23 H :    0.034848
  24 H :    0.027714
  25 C :   -0.081527
  26 H :    0.029384
  27 H :    0.025140
  28 C :   -0.039260
  29 H :    0.039010
  30 H :    0.040456
  31 H :    0.027087
  32 H :    0.056347
  33 H :    0.055594
Sum of atomic charges:    0.0000000

LOEWDIN ATOMIC CHARGES
----------------------
   0 S :    0.413899
   1 C :   -0.214606
   2 C :   -0.062941
   3 C :   -0.051320
   4 C :   -0.198924
   5 H :    0.030632
   6 C :   -0.043563
   7 H :    0.017515
   8 H :    0.036775
   9 C :   -0.042254
  10 H :    0.019477
  11 H :    0.029383
  12 C :   -0.064399
  13 H :    0.034689
  14 H :    0.018949
  15 H :    0.034288
  16 S :    0.436454
  17 C :   -0.195867
  18 C :   -0.070181
  19 C :   -0.054832
  20 C :   -0.224889
  21 H :    0.042473
  22 C :   -0.029944
  23 H :    0.031559
  24 H :    0.028985
  25 C :   -0.040309
  26 H :    0.024197
  27 H :    0.020685
  28 C :   -0.068513
  29 H :    0.028931
  30 H :    0.027056
  31 H :    0.025367
  32 H :    0.035456
  33 H :    0.025772

  Mayer bond orders larger than 0.100000
B(  0-S ,  1-C ) :   1.1408 B(  0-S ,  4-C ) :   1.1402 B(  1-C ,  2-C ) :   1.6340
B(  1-C , 32-H ) :   0.9555 B(  2-C ,  3-C ) :   1.2201 B(  2-C ,  6-C ) :   1.0398
B(  3-C ,  4-C ) :   1.6189 B(  3-C ,  5-H ) :   0.9997 B(  4-C , 20-C ) :   0.9988
B(  6-C ,  7-H ) :   0.9189 B(  6-C ,  8-H ) :   0.9195 B(  6-C ,  9-C ) :   1.0439
B(  9-C , 10-H ) :   0.9618 B(  9-C , 11-H ) :   0.9544 B(  9-C , 12-C ) :   1.0696
B( 12-C , 13-H ) :   0.9749 B( 12-C , 14-H ) :   0.9813 B( 12-C , 15-H ) :   0.9750
B( 16-S , 17-C ) :   1.1537 B( 16-S , 20-C ) :   1.1707 B( 17-C , 18-C ) :   1.6237
B( 17-C , 20-C ) :   0.1020 B( 17-C , 33-H ) :   0.9603 B( 18-C , 19-C ) :   1.2346
B( 18-C , 21-H ) :   0.9778 B( 19-C , 20-C ) :   1.5909 B( 19-C , 22-C ) :   1.0272
B( 22-C , 23-H ) :   0.9417 B( 22-C , 24-H ) :   0.9444 B( 22-C , 25-C ) :   1.0703
B( 25-C , 26-H ) :   0.9563 B( 25-C , 27-H ) :   0.9576 B( 25-C , 28-C ) :   1.0781
B( 28-C , 29-H ) :   0.9713 B( 28-C , 30-H ) :   0.9700 B( 28-C , 31-H ) :   0.9720

Dispersion correction           -0.014840062
FINAL SINGLE POINT ENERGY     -1339.867813394708

DIPOLE MOMENT
-------------
                                X             Y             Z
Electronic contribution:     25.08619      -6.74040      -0.23538
Nuclear contribution   :    -25.50252       6.79159       0.26949
                        -----------------------------------------
Total Dipole Moment    :     -0.41633       0.05119       0.03411
                        -----------------------------------------
Magnitude (a.u.)       :      0.42085
Magnitude (Debye)      :      1.06972

Rotational constants in cm-1:     0.018566     0.008483     0.007349
Rotational constants in MHz :   556.602878   254.308280   220.313264

                             ****ORCA TERMINATED NORMALLY****
TOTAL RUN TIME: 0 days 0 hours 0 minutes 21 seconds 910 msec
