                         Program Version 4.2.1 -  RELEASE  -
|  1> ! wB97X-D3 SP def2-SVP
|  2> %pal
|  3> nprocs 24
|  4> end
|  5>
|  6> * xyz 0 1
|  7> S 	 -90.5239 	 -36.1799 	 -60.8417
|  8> C 	 -91.6569 	 -36.7344 	 -62.1211
|  9> C 	 -92.5346 	 -37.6909 	 -61.7262
| 10> C 	 -92.386 	 -37.8715 	 -60.2732
| 11> C 	 -91.3017 	 -37.1774 	 -59.705
| 12> H 	 -93.0168 	 -38.4804 	 -59.756
| 13> C 	 -93.6454 	 -38.2394 	 -62.544
| 14> H 	 -94.1844 	 -37.3949 	 -63.1056
| 15> H 	 -94.5004 	 -38.6258 	 -61.9122
| 16> C 	 -93.17 	 -39.3916 	 -63.5436
| 17> H 	 -92.4012 	 -38.9043 	 -64.1401
| 18> H 	 -92.7037 	 -40.184 	 -62.9481
| 19> C 	 -94.3491 	 -39.8706 	 -64.4702
| 20> H 	 -94.0276 	 -39.9143 	 -65.5187
| 21> H 	 -94.8726 	 -40.8376 	 -64.2488
| 22> H 	 -95.1541 	 -39.184 	 -64.5873
| 23> S 	 -90.3505 	 -38.7885 	 -57.6717
| 24> C 	 -90.1975 	 -38.0522 	 -56.0566
| 25> C 	 -90.4175 	 -36.7129 	 -56.0882
| 26> C 	 -90.6373 	 -36.2634 	 -57.3877
| 27> C 	 -90.8247 	 -37.251 	 -58.3307
| 28> H 	 -90.3533 	 -36.103 	 -55.2269
| 29> C 	 -90.7785 	 -34.7838 	 -57.6569
| 30> H 	 -90.4773 	 -34.5707 	 -58.6761
| 31> H 	 -89.9984 	 -34.3377 	 -57.0043
| 32> C 	 -92.117 	 -34.008 	 -57.5019
| 33> H 	 -91.9839 	 -32.9488 	 -57.6159
| 34> H 	 -92.6057 	 -34.024 	 -56.5593
| 35> C 	 -93.1367 	 -34.4094 	 -58.55
| 36> H 	 -93.4382 	 -35.419 	 -58.3517
| 37> H 	 -92.6414 	 -34.4813 	 -59.5306
| 38> H 	 -94.0276 	 -33.7727 	 -58.5211
| 39> H 	 -91.7514 	 -36.254 	 -63.0722
| 40> H 	 -89.9282 	 -38.6057 	 -55.1705
| 41> *
| 42>
| 43>                          ****END OF INPUT****

CARTESIAN COORDINATES (ANGSTROEM)
---------------------------------
  S    -90.523900  -36.179900  -60.841700
  C    -91.656900  -36.734400  -62.121100
  C    -92.534600  -37.690900  -61.726200
  C    -92.386000  -37.871500  -60.273200
  C    -91.301700  -37.177400  -59.705000
  H    -93.016800  -38.480400  -59.756000
  C    -93.645400  -38.239400  -62.544000
  H    -94.184400  -37.394900  -63.105600
  H    -94.500400  -38.625800  -61.912200
  C    -93.170000  -39.391600  -63.543600
  H    -92.401200  -38.904300  -64.140100
  H    -92.703700  -40.184000  -62.948100
  C    -94.349100  -39.870600  -64.470200
  H    -94.027600  -39.914300  -65.518700
  H    -94.872600  -40.837600  -64.248800
  H    -95.154100  -39.184000  -64.587300
  S    -90.350500  -38.788500  -57.671700
  C    -90.197500  -38.052200  -56.056600
  C    -90.417500  -36.712900  -56.088200
  C    -90.637300  -36.263400  -57.387700
  C    -90.824700  -37.251000  -58.330700
  H    -90.353300  -36.103000  -55.226900
  C    -90.778500  -34.783800  -57.656900
  H    -90.477300  -34.570700  -58.676100
  H    -89.998400  -34.337700  -57.004300
  C    -92.117000  -34.008000  -57.501900
  H    -91.983900  -32.948800  -57.615900
  H    -92.605700  -34.024000  -56.559300
  C    -93.136700  -34.409400  -58.550000
  H    -93.438200  -35.419000  -58.351700
  H    -92.641400  -34.481300  -59.530600
  H    -94.027600  -33.772700  -58.521100
  H    -91.751400  -36.254000  -63.072200
  H    -89.928200  -38.605700  -55.170500

 Total Charge           Charge          ....    0
 Multiplicity           Mult            ....    1
 Number of Electrons    NEL             ....  134
 Basis Dimension        Dim             ....  322

ORBITAL ENERGIES
----------------

  NO   OCC          E(Eh)            E(eV)
   0   2.0000     -88.969093     -2420.9721
   1   2.0000     -88.965464     -2420.8733
   2   2.0000     -10.329967      -281.0927
   3   2.0000     -10.323402      -280.9141
   4   2.0000     -10.317009      -280.7401
   5   2.0000     -10.312692      -280.6226
   6   2.0000     -10.305223      -280.4194
   7   2.0000     -10.302048      -280.3330
   8   2.0000     -10.298535      -280.2374
   9   2.0000     -10.297165      -280.2001
  10   2.0000     -10.293084      -280.0891
  11   2.0000     -10.289181      -279.9829
  12   2.0000     -10.287285      -279.9312
  13   2.0000     -10.283150      -279.8187
  14   2.0000     -10.275994      -279.6240
  15   2.0000     -10.264050      -279.2990
  16   2.0000      -8.083473      -219.9625
  17   2.0000      -8.079940      -219.8664
  18   2.0000      -6.042111      -164.4142
  19   2.0000      -6.038455      -164.3147
  20   2.0000      -6.037973      -164.3016
  21   2.0000      -6.034497      -164.2070
  22   2.0000      -6.034181      -164.1984
  23   2.0000      -6.030697      -164.1036
  24   2.0000      -1.009775       -27.4774
  25   2.0000      -0.985787       -26.8246
  26   2.0000      -0.908688       -24.7267
  27   2.0000      -0.903976       -24.5984
  28   2.0000      -0.869207       -23.6523
  29   2.0000      -0.852739       -23.2042
  30   2.0000      -0.842710       -22.9313
  31   2.0000      -0.814147       -22.1541
  32   2.0000      -0.781929       -21.2774
  33   2.0000      -0.769029       -20.9263
  34   2.0000      -0.708878       -19.2895
  35   2.0000      -0.706290       -19.2191
  36   2.0000      -0.694025       -18.8854
  37   2.0000      -0.667221       -18.1560
  38   2.0000      -0.642571       -17.4852
  39   2.0000      -0.617545       -16.8043
  40   2.0000      -0.597582       -16.2610
  41   2.0000      -0.573343       -15.6015
  42   2.0000      -0.554571       -15.0907
  43   2.0000      -0.550501       -14.9799
  44   2.0000      -0.539559       -14.6821
  45   2.0000      -0.521566       -14.1925
  46   2.0000      -0.512143       -13.9361
  47   2.0000      -0.511770       -13.9260
  48   2.0000      -0.501629       -13.6500
  49   2.0000      -0.496509       -13.5107
  50   2.0000      -0.493425       -13.4268
  51   2.0000      -0.472857       -12.8671
  52   2.0000      -0.469871       -12.7858
  53   2.0000      -0.460831       -12.5398
  54   2.0000      -0.459098       -12.4927
  55   2.0000      -0.454074       -12.3560
  56   2.0000      -0.441879       -12.0241
  57   2.0000      -0.439971       -11.9722
  58   2.0000      -0.437318       -11.9000
  59   2.0000      -0.428126       -11.6499
  60   2.0000      -0.418314       -11.3829
  61   2.0000      -0.414289       -11.2734
  62   2.0000      -0.405735       -11.0406
  63   2.0000      -0.343306        -9.3418
  64   2.0000      -0.333090        -9.0638
  65   2.0000      -0.328756        -8.9459
  66   2.0000      -0.295195        -8.0327
  67   0.0000       0.030144         0.8203
  68   0.0000       0.072551         1.9742
  69   0.0000       0.105353         2.8668
  70   0.0000       0.110697         3.0122
  71   0.0000       0.123407         3.3581

MULLIKEN ATOMIC CHARGES
-----------------------
   0 S :    0.110632
   1 C :   -0.121209
   2 C :   -0.044433
   3 C :    0.067210
   4 C :   -0.164080
   5 H :   -0.034676
   6 C :   -0.031408
   7 H :    0.047826
   8 H :    0.037584
   9 C :   -0.056685
  10 H :    0.033278
  11 H :    0.047626
  12 C :   -0.051183
  13 H :    0.029601
  14 H :    0.046873
  15 H :    0.014014
  16 S :    0.114089
  17 C :   -0.092133
  18 C :   -0.004489
  19 C :   -0.033309
  20 C :   -0.140843
  21 H :    0.005749
  22 C :    0.054963
  23 H :    0.011509
  24 H :    0.026388
  25 C :   -0.020764
  26 H :    0.015574
  27 H :    0.006778
  28 C :   -0.045805
  29 H :    0.022494
  30 H :    0.023792
  31 H :    0.034539
  32 H :    0.037053
  33 H :    0.053444
Sum of atomic charges:    0.0000000

LOEWDIN ATOMIC CHARGES
----------------------
   0 S :    0.420125
   1 C :   -0.177765
   2 C :   -0.062186
   3 C :   -0.045329
   4 C :   -0.205662
   5 H :    0.009791
   6 C :   -0.044880
   7 H :    0.038740
   8 H :    0.033763
   9 C :   -0.030123
  10 H :    0.024613
  11 H :    0.030560
  12 C :   -0.079786
  13 H :    0.030631
  14 H :    0.033569
  15 H :    0.019645
  16 S :    0.402323
  17 C :   -0.166412
  18 C :   -0.063010
  19 C :   -0.061129
  20 C :   -0.206872
  21 H :    0.030308
  22 C :   -0.034525
  23 H :    0.017877
  24 H :    0.035584
  25 C :   -0.037931
  26 H :    0.022253
  27 H :    0.015272
  28 C :   -0.064731
  29 H :    0.019943
  30 H :    0.020948
  31 H :    0.025875
  32 H :    0.021304
  33 H :    0.027215

  Mayer bond orders larger than 0.100000
B(  0-S ,  1-C ) :   1.1230 B(  0-S ,  4-C ) :   1.1560 B(  1-C ,  2-C ) :   1.6367
B(  1-C , 32-H ) :   0.9642 B(  2-C ,  3-C ) :   1.2209 B(  2-C ,  6-C ) :   1.0234
B(  3-C ,  4-C ) :   1.5734 B(  3-C ,  5-H ) :   1.0113 B(  4-C , 20-C ) :   1.0277
B(  6-C ,  7-H ) :   0.9471 B(  6-C ,  8-H ) :   0.9489 B(  6-C ,  9-C ) :   1.0382
B(  9-C , 10-H ) :   0.9670 B(  9-C , 11-H ) :   0.9628 B(  9-C , 12-C ) :   1.0541
B( 12-C , 13-H ) :   0.9767 B( 12-C , 14-H ) :   0.9785 B( 12-C , 15-H ) :   0.9754
B( 16-S , 17-C ) :   1.1514 B( 16-S , 20-C ) :   1.1442 B( 17-C , 18-C ) :   1.5977
B( 17-C , 33-H ) :   0.9684 B( 18-C , 19-C ) :   1.2576 B( 18-C , 21-H ) :   1.0004
B( 19-C , 20-C ) :   1.5697 B( 19-C , 22-C ) :   1.0470 B( 22-C , 23-H ) :   0.9314
B( 22-C , 24-H ) :   0.9274 B( 22-C , 25-C ) :   1.0718 B( 25-C , 26-H ) :   0.9505
B( 25-C , 27-H ) :   0.9545 B( 25-C , 28-C ) :   1.0835 B( 28-C , 29-H ) :   0.9747
B( 28-C , 30-H ) :   0.9708 B( 28-C , 31-H ) :   0.9714

Dispersion correction           -0.015209052
FINAL SINGLE POINT ENERGY     -1339.871391349546

DIPOLE MOMENT
-------------
                                X             Y             Z
Electronic contribution:     17.59694      -4.04669      11.66040
Nuclear contribution   :    -18.01146       4.18715     -11.68599
                        -----------------------------------------
Total Dipole Moment    :     -0.41451       0.14047      -0.02559
                        -----------------------------------------
Magnitude (a.u.)       :      0.43842
Magnitude (Debye)      :      1.11436

Rotational constants in cm-1:     0.022919     0.007781     0.006649
Rotational constants in MHz :   687.092486   233.264501   199.329466

                             ****ORCA TERMINATED NORMALLY****
TOTAL RUN TIME: 0 days 0 hours 0 minutes 21 seconds 744 msec
