                         Program Version 4.2.1 -  RELEASE  -
|  1> ! wB97X-D3 SP def2-SVP
|  2> %pal
|  3> nprocs 24
|  4> end
|  5>
|  6> * xyz 0 1
|  7> S 	 -71.0697 	 -41.1857 	 -92.5479
|  8> C 	 -69.8809 	 -40.1967 	 -93.3742
|  9> C 	 -69.197 	 -40.9485 	 -94.3444
| 10> C 	 -69.6068 	 -42.3082 	 -94.3046
| 11> C 	 -70.5976 	 -42.6148 	 -93.3962
| 12> H 	 -69.308 	 -43.064 	 -95.0311
| 13> C 	 -68.0355 	 -40.5096 	 -95.2133
| 14> H 	 -68.4698 	 -40.363 	 -96.1798
| 15> H 	 -67.3744 	 -41.3775 	 -95.2478
| 16> C 	 -67.3187 	 -39.0796 	 -95.0245
| 17> H 	 -66.6758 	 -38.8832 	 -95.9422
| 18> H 	 -67.9885 	 -38.2516 	 -95.2214
| 19> C 	 -66.52 	 -38.8919 	 -93.6285
| 20> H 	 -65.6779 	 -39.4436 	 -93.7289
| 21> H 	 -66.1221 	 -37.8683 	 -93.4841
| 22> H 	 -67.0236 	 -39.3168 	 -92.7693
| 23> S 	 -70.7696 	 -44.6894 	 -91.6941
| 24> C 	 -71.8983 	 -45.9753 	 -92.0214
| 25> C 	 -72.4699 	 -45.8373 	 -93.2487
| 26> C 	 -72.0347 	 -44.6427 	 -93.9492
| 27> C 	 -71.2861 	 -43.8441 	 -93.1128
| 28> H 	 -73.1051 	 -46.6805 	 -93.6354
| 29> C 	 -72.3857 	 -44.4404 	 -95.4252
| 30> H 	 -72.8124 	 -45.3617 	 -95.8532
| 31> H 	 -71.4645 	 -44.1862 	 -96.0135
| 32> C 	 -73.4045 	 -43.2947 	 -95.4173
| 33> H 	 -73.3012 	 -42.5677 	 -94.6841
| 34> H 	 -74.3747 	 -43.7111 	 -95.1501
| 35> C 	 -73.4941 	 -42.6271 	 -96.7512
| 36> H 	 -72.5864 	 -42.3475 	 -97.2777
| 37> H 	 -74.1009 	 -41.7717 	 -96.6797
| 38> H 	 -74.0973 	 -43.2908 	 -97.3933
| 39> H 	 -69.7325 	 -39.1557 	 -93.2134
| 40> H 	 -72.0573 	 -46.8285 	 -91.3232
| 41> *
| 42>
| 43>                          ****END OF INPUT****

CARTESIAN COORDINATES (ANGSTROEM)
---------------------------------
  S    -71.069700  -41.185700  -92.547900
  C    -69.880900  -40.196700  -93.374200
  C    -69.197000  -40.948500  -94.344400
  C    -69.606800  -42.308200  -94.304600
  C    -70.597600  -42.614800  -93.396200
  H    -69.308000  -43.064000  -95.031100
  C    -68.035500  -40.509600  -95.213300
  H    -68.469800  -40.363000  -96.179800
  H    -67.374400  -41.377500  -95.247800
  C    -67.318700  -39.079600  -95.024500
  H    -66.675800  -38.883200  -95.942200
  H    -67.988500  -38.251600  -95.221400
  C    -66.520000  -38.891900  -93.628500
  H    -65.677900  -39.443600  -93.728900
  H    -66.122100  -37.868300  -93.484100
  H    -67.023600  -39.316800  -92.769300
  S    -70.769600  -44.689400  -91.694100
  C    -71.898300  -45.975300  -92.021400
  C    -72.469900  -45.837300  -93.248700
  C    -72.034700  -44.642700  -93.949200
  C    -71.286100  -43.844100  -93.112800
  H    -73.105100  -46.680500  -93.635400
  C    -72.385700  -44.440400  -95.425200
  H    -72.812400  -45.361700  -95.853200
  H    -71.464500  -44.186200  -96.013500
  C    -73.404500  -43.294700  -95.417300
  H    -73.301200  -42.567700  -94.684100
  H    -74.374700  -43.711100  -95.150100
  C    -73.494100  -42.627100  -96.751200
  H    -72.586400  -42.347500  -97.277700
  H    -74.100900  -41.771700  -96.679700
  H    -74.097300  -43.290800  -97.393300
  H    -69.732500  -39.155700  -93.213400
  H    -72.057300  -46.828500  -91.323200

 Total Charge           Charge          ....    0
 Multiplicity           Mult            ....    1
 Number of Electrons    NEL             ....  134
 Basis Dimension        Dim             ....  322

ORBITAL ENERGIES
----------------

  NO   OCC          E(Eh)            E(eV)
   0   2.0000     -88.963159     -2420.8106
   1   2.0000     -88.961416     -2420.7632
   2   2.0000     -10.322411      -280.8871
   3   2.0000     -10.317988      -280.7667
   4   2.0000     -10.315891      -280.7097
   5   2.0000     -10.311662      -280.5946
   6   2.0000     -10.305319      -280.4220
   7   2.0000     -10.304895      -280.4104
   8   2.0000     -10.302554      -280.3467
   9   2.0000     -10.298677      -280.2413
  10   2.0000     -10.297235      -280.2020
  11   2.0000     -10.294874      -280.1378
  12   2.0000     -10.291450      -280.0446
  13   2.0000     -10.275783      -279.6183
  14   2.0000     -10.272937      -279.5408
  15   2.0000     -10.265422      -279.3363
  16   2.0000      -8.078036      -219.8145
  17   2.0000      -8.076982      -219.7859
  18   2.0000      -6.036462      -164.2605
  19   2.0000      -6.035530      -164.2351
  20   2.0000      -6.032341      -164.1484
  21   2.0000      -6.031461      -164.1244
  22   2.0000      -6.029054      -164.0589
  23   2.0000      -6.027553      -164.0181
  24   2.0000      -1.009862       -27.4797
  25   2.0000      -0.984409       -26.7871
  26   2.0000      -0.912960       -24.8429
  27   2.0000      -0.900964       -24.5165
  28   2.0000      -0.864514       -23.5246
  29   2.0000      -0.849763       -23.1232
  30   2.0000      -0.844964       -22.9926
  31   2.0000      -0.810458       -22.0537
  32   2.0000      -0.785979       -21.3876
  33   2.0000      -0.771896       -21.0043
  34   2.0000      -0.714694       -19.4478
  35   2.0000      -0.704521       -19.1710
  36   2.0000      -0.691785       -18.8244
  37   2.0000      -0.657551       -17.8929
  38   2.0000      -0.640105       -17.4182
  39   2.0000      -0.610551       -16.6139
  40   2.0000      -0.593312       -16.1448
  41   2.0000      -0.565641       -15.3919
  42   2.0000      -0.560820       -15.2607
  43   2.0000      -0.547146       -14.8886
  44   2.0000      -0.532178       -14.4813
  45   2.0000      -0.527670       -14.3586
  46   2.0000      -0.513709       -13.9787
  47   2.0000      -0.510984       -13.9046
  48   2.0000      -0.502285       -13.6679
  49   2.0000      -0.500402       -13.6166
  50   2.0000      -0.490008       -13.3338
  51   2.0000      -0.485547       -13.2124
  52   2.0000      -0.478370       -13.0171
  53   2.0000      -0.463208       -12.6045
  54   2.0000      -0.460580       -12.5330
  55   2.0000      -0.444912       -12.1067
  56   2.0000      -0.444104       -12.0847
  57   2.0000      -0.435559       -11.8522
  58   2.0000      -0.433763       -11.8033
  59   2.0000      -0.424145       -11.5416
  60   2.0000      -0.417982       -11.3739
  61   2.0000      -0.413204       -11.2438
  62   2.0000      -0.411292       -11.1918
  63   2.0000      -0.336409        -9.1542
  64   2.0000      -0.326513        -8.8849
  65   2.0000      -0.320170        -8.7123
  66   2.0000      -0.302804        -8.2397
  67   0.0000       0.040684         1.1071
  68   0.0000       0.064722         1.7612
  69   0.0000       0.111627         3.0375
  70   0.0000       0.122115         3.3229
  71   0.0000       0.129785         3.5316

MULLIKEN ATOMIC CHARGES
-----------------------
   0 S :    0.118364
   1 C :   -0.116957
   2 C :   -0.091247
   3 C :    0.030947
   4 C :   -0.187595
   5 H :    0.011816
   6 C :    0.062230
   7 H :    0.034457
   8 H :    0.041763
   9 C :   -0.108923
  10 H :    0.033115
  11 H :    0.024799
  12 C :   -0.019771
  13 H :    0.006178
  14 H :    0.038417
  15 H :    0.044305
  16 S :    0.116337
  17 C :   -0.106242
  18 C :   -0.052439
  19 C :   -0.034003
  20 C :   -0.172529
  21 H :    0.037038
  22 C :    0.086961
  23 H :    0.026943
  24 H :    0.037324
  25 C :   -0.053655
  26 H :    0.017537
  27 H :    0.014881
  28 C :   -0.011482
  29 H :    0.034147
  30 H :    0.011733
  31 H :    0.015074
  32 H :    0.041175
  33 H :    0.069302
Sum of atomic charges:   -0.0000000

LOEWDIN ATOMIC CHARGES
----------------------
   0 S :    0.420713
   1 C :   -0.199838
   2 C :   -0.063004
   3 C :   -0.067983
   4 C :   -0.207453
   5 H :    0.030952
   6 C :   -0.031857
   7 H :    0.036750
   8 H :    0.034357
   9 C :   -0.044273
  10 H :    0.034275
  11 H :    0.019276
  12 C :   -0.065004
  13 H :    0.011647
  14 H :    0.032158
  15 H :    0.028936
  16 S :    0.418074
  17 C :   -0.191837
  18 C :   -0.085266
  19 C :   -0.041351
  20 C :   -0.223502
  21 H :    0.040599
  22 C :   -0.023071
  23 H :    0.032638
  24 H :    0.033070
  25 C :   -0.035274
  26 H :    0.013613
  27 H :    0.028604
  28 C :   -0.063097
  29 H :    0.023517
  30 H :    0.019284
  31 H :    0.025501
  32 H :    0.021836
  33 H :    0.037010

  Mayer bond orders larger than 0.100000
B(  0-S ,  1-C ) :   1.1473 B(  0-S ,  4-C ) :   1.1679 B(  1-C ,  2-C ) :   1.5909
B(  1-C ,  4-C ) :   0.1034 B(  1-C , 32-H ) :   0.9693 B(  2-C ,  3-C ) :   1.2561
B(  2-C ,  6-C ) :   1.0053 B(  3-C ,  4-C ) :   1.5850 B(  3-C ,  5-H ) :   0.9935
B(  4-C , 20-C ) :   1.0023 B(  6-C ,  7-H ) :   0.9269 B(  6-C ,  8-H ) :   0.9533
B(  6-C ,  9-C ) :   1.0692 B(  9-C , 10-H ) :   0.9571 B(  9-C , 11-H ) :   0.9582
B(  9-C , 12-C ) :   1.0489 B( 12-C , 13-H ) :   0.9750 B( 12-C , 14-H ) :   0.9766
B( 12-C , 15-H ) :   0.9799 B( 16-S , 17-C ) :   1.1528 B( 16-S , 20-C ) :   1.1547
B( 17-C , 18-C ) :   1.6323 B( 17-C , 33-H ) :   0.9615 B( 18-C , 19-C ) :   1.2248
B( 18-C , 21-H ) :   0.9795 B( 19-C , 20-C ) :   1.6080 B( 19-C , 22-C ) :   1.0380
B( 22-C , 23-H ) :   0.9333 B( 22-C , 24-H ) :   0.9449 B( 22-C , 25-C ) :   1.0456
B( 25-C , 26-H ) :   0.9685 B( 25-C , 27-H ) :   0.9435 B( 25-C , 28-C ) :   1.0909
B( 28-C , 29-H ) :   0.9781 B( 28-C , 30-H ) :   0.9685 B( 28-C , 31-H ) :   0.9687

Dispersion correction           -0.014775612
FINAL SINGLE POINT ENERGY     -1339.858633754107

DIPOLE MOMENT
-------------
                                X             Y             Z
Electronic contribution:     -4.99555     -11.31842      19.60618
Nuclear contribution   :      5.11881      11.24724     -20.26125
                        -----------------------------------------
Total Dipole Moment    :      0.12325      -0.07118      -0.65507
                        -----------------------------------------
Magnitude (a.u.)       :      0.67035
Magnitude (Debye)      :      1.70390

Rotational constants in cm-1:     0.021127     0.008208     0.006782
Rotational constants in MHz :   633.371063   246.075738   203.323971

                             ****ORCA TERMINATED NORMALLY****
TOTAL RUN TIME: 0 days 0 hours 0 minutes 21 seconds 731 msec
