                         Program Version 4.2.1 -  RELEASE  -
|  1> ! wB97X-D3 SP def2-SVP
|  2> %pal
|  3> nprocs 24
|  4> end
|  5>
|  6> * xyz 0 1
|  7> S 	 -99.9841 	 5.31501 	 -104.986
|  8> C 	 -99.268 	 6.10185 	 -106.46
|  9> C 	 -98.4421 	 5.18872 	 -107.135
| 10> C 	 -98.212 	 3.99687 	 -106.399
| 11> C 	 -98.9783 	 3.86456 	 -105.25
| 12> H 	 -97.5615 	 3.18794 	 -106.707
| 13> C 	 -98.0059 	 5.36063 	 -108.551
| 14> H 	 -98.5451 	 6.26635 	 -109.022
| 15> H 	 -98.4573 	 4.51901 	 -109.12
| 16> C 	 -96.4651 	 5.32566 	 -108.767
| 17> H 	 -95.9652 	 6.2745 	 -108.561
| 18> H 	 -95.9416 	 4.52182 	 -108.157
| 19> C 	 -95.9926 	 5.13681 	 -110.189
| 20> H 	 -96.0523 	 4.13836 	 -110.674
| 21> H 	 -96.637 	 5.77042 	 -110.787
| 22> H 	 -94.9178 	 5.48966 	 -110.322
| 23> S 	 -100.807 	 2.10023 	 -104.317
| 24> C 	 -100.318 	 0.789128 	 -103.351
| 25> C 	 -98.9834 	 0.578003 	 -103.512
| 26> C 	 -98.2441 	 1.70375 	 -103.975
| 27> C 	 -99.1311 	 2.63904 	 -104.52
| 28> H 	 -98.4963 	 -0.235423 	 -103.108
| 29> C 	 -96.7768 	 1.75357 	 -103.978
| 30> H 	 -96.4259 	 2.05225 	 -102.989
| 31> H 	 -96.4628 	 2.65293 	 -104.513
| 32> C 	 -95.9919 	 0.57023 	 -104.631
| 33> H 	 -96.5155 	 0.444176 	 -105.565
| 34> H 	 -96.0703 	 -0.305396 	 -104.029
| 35> C 	 -94.6217 	 0.992566 	 -104.833
| 36> H 	 -94.6014 	 1.68116 	 -105.72
| 37> H 	 -93.9933 	 0.0690526 	 -105.009
| 38> H 	 -94.098 	 1.43371 	 -103.91
| 39> H 	 -99.502 	 7.0313 	 -106.907
| 40> H 	 -101.021 	 0.0259966 	 -102.994
| 41> *
| 42>
| 43>                          ****END OF INPUT****

CARTESIAN COORDINATES (ANGSTROEM)
---------------------------------
  S    -99.984100    5.315010  -104.986000
  C    -99.268000    6.101850  -106.460000
  C    -98.442100    5.188720  -107.135000
  C    -98.212000    3.996870  -106.399000
  C    -98.978300    3.864560  -105.250000
  H    -97.561500    3.187940  -106.707000
  C    -98.005900    5.360630  -108.551000
  H    -98.545100    6.266350  -109.022000
  H    -98.457300    4.519010  -109.120000
  C    -96.465100    5.325660  -108.767000
  H    -95.965200    6.274500  -108.561000
  H    -95.941600    4.521820  -108.157000
  C    -95.992600    5.136810  -110.189000
  H    -96.052300    4.138360  -110.674000
  H    -96.637000    5.770420  -110.787000
  H    -94.917800    5.489660  -110.322000
  S    -100.807000    2.100230  -104.317000
  C    -100.318000    0.789128  -103.351000
  C    -98.983400    0.578003  -103.512000
  C    -98.244100    1.703750  -103.975000
  C    -99.131100    2.639040  -104.520000
  H    -98.496300   -0.235423  -103.108000
  C    -96.776800    1.753570  -103.978000
  H    -96.425900    2.052250  -102.989000
  H    -96.462800    2.652930  -104.513000
  C    -95.991900    0.570230  -104.631000
  H    -96.515500    0.444176  -105.565000
  H    -96.070300   -0.305396  -104.029000
  C    -94.621700    0.992566  -104.833000
  H    -94.601400    1.681160  -105.720000
  H    -93.993300    0.069053  -105.009000
  H    -94.098000    1.433710  -103.910000
  H    -99.502000    7.031300  -106.907000
  H    -101.021000    0.025997  -102.994000

 Total Charge           Charge          ....    0
 Multiplicity           Mult            ....    1
 Number of Electrons    NEL             ....  134
 Basis Dimension        Dim             ....  322

ORBITAL ENERGIES
----------------

  NO   OCC          E(Eh)            E(eV)
   0   2.0000     -88.969495     -2420.9830
   1   2.0000     -88.961111     -2420.7549
   2   2.0000     -10.331601      -281.1371
   3   2.0000     -10.325107      -280.9604
   4   2.0000     -10.317661      -280.7578
   5   2.0000     -10.310858      -280.5727
   6   2.0000     -10.305584      -280.4292
   7   2.0000     -10.303138      -280.3626
   8   2.0000     -10.299757      -280.2706
   9   2.0000     -10.294713      -280.1334
  10   2.0000     -10.294522      -280.1282
  11   2.0000     -10.289059      -279.9795
  12   2.0000     -10.286940      -279.9219
  13   2.0000     -10.283851      -279.8378
  14   2.0000     -10.282759      -279.8081
  15   2.0000     -10.282435      -279.7993
  16   2.0000      -8.082202      -219.9279
  17   2.0000      -8.076775      -219.7802
  18   2.0000      -6.040974      -164.3832
  19   2.0000      -6.037018      -164.2756
  20   2.0000      -6.035144      -164.2246
  21   2.0000      -6.032748      -164.1594
  22   2.0000      -6.031255      -164.1188
  23   2.0000      -6.027502      -164.0167
  24   2.0000      -1.007410       -27.4130
  25   2.0000      -0.979976       -26.6665
  26   2.0000      -0.922556       -25.1040
  27   2.0000      -0.911227       -24.7958
  28   2.0000      -0.872424       -23.7399
  29   2.0000      -0.861817       -23.4512
  30   2.0000      -0.846048       -23.0221
  31   2.0000      -0.814053       -22.1515
  32   2.0000      -0.780637       -21.2422
  33   2.0000      -0.767518       -20.8852
  34   2.0000      -0.707824       -19.2609
  35   2.0000      -0.701556       -19.0903
  36   2.0000      -0.693696       -18.8764
  37   2.0000      -0.659719       -17.9519
  38   2.0000      -0.638687       -17.3796
  39   2.0000      -0.620098       -16.8737
  40   2.0000      -0.603795       -16.4301
  41   2.0000      -0.582493       -15.8504
  42   2.0000      -0.564838       -15.3700
  43   2.0000      -0.557389       -15.1673
  44   2.0000      -0.531481       -14.4623
  45   2.0000      -0.524941       -14.2844
  46   2.0000      -0.522523       -14.2186
  47   2.0000      -0.514213       -13.9924
  48   2.0000      -0.501117       -13.6361
  49   2.0000      -0.497688       -13.5428
  50   2.0000      -0.495282       -13.4773
  51   2.0000      -0.486497       -13.2383
  52   2.0000      -0.468683       -12.7535
  53   2.0000      -0.462682       -12.5902
  54   2.0000      -0.458173       -12.4675
  55   2.0000      -0.452868       -12.3232
  56   2.0000      -0.445424       -12.1206
  57   2.0000      -0.433174       -11.7873
  58   2.0000      -0.430166       -11.7054
  59   2.0000      -0.425022       -11.5654
  60   2.0000      -0.421688       -11.4747
  61   2.0000      -0.417076       -11.3492
  62   2.0000      -0.410620       -11.1735
  63   2.0000      -0.346511        -9.4290
  64   2.0000      -0.329939        -8.9781
  65   2.0000      -0.325953        -8.8696
  66   2.0000      -0.286817        -7.8047
  67   0.0000       0.024256         0.6601
  68   0.0000       0.069355         1.8872
  69   0.0000       0.104953         2.8559
  70   0.0000       0.115554         3.1444
  71   0.0000       0.122319         3.3285

MULLIKEN ATOMIC CHARGES
-----------------------
   0 S :    0.106298
   1 C :   -0.101005
   2 C :   -0.072580
   3 C :    0.035370
   4 C :   -0.142902
   5 H :    0.011968
   6 C :    0.031038
   7 H :    0.035056
   8 H :    0.046905
   9 C :   -0.084085
  10 H :    0.036847
  11 H :    0.042375
  12 C :   -0.085491
  13 H :    0.037001
  14 H :    0.020574
  15 H :    0.044611
  16 S :    0.102314
  17 C :   -0.085462
  18 C :   -0.005710
  19 C :   -0.043280
  20 C :   -0.159508
  21 H :   -0.013978
  22 C :    0.041843
  23 H :    0.027353
  24 H :    0.000710
  25 C :   -0.032605
  26 H :    0.031819
  27 H :    0.029181
  28 C :   -0.082787
  29 H :    0.046890
  30 H :    0.038225
  31 H :    0.044575
  32 H :    0.030544
  33 H :    0.067896
Sum of atomic charges:   -0.0000000

LOEWDIN ATOMIC CHARGES
----------------------
   0 S :    0.370408
   1 C :   -0.178117
   2 C :   -0.061064
   3 C :   -0.057733
   4 C :   -0.184657
   5 H :    0.029340
   6 C :   -0.039879
   7 H :    0.039411
   8 H :    0.039954
   9 C :   -0.050894
  10 H :    0.030973
  11 H :    0.030149
  12 C :   -0.077183
  13 H :    0.022555
  14 H :    0.020532
  15 H :    0.034476
  16 S :    0.413669
  17 C :   -0.199120
  18 C :   -0.063904
  19 C :   -0.056273
  20 C :   -0.189137
  21 H :    0.014347
  22 C :   -0.040163
  23 H :    0.033771
  24 H :    0.028806
  25 C :   -0.037369
  26 H :    0.028378
  27 H :    0.019096
  28 C :   -0.074704
  29 H :    0.032593
  30 H :    0.031906
  31 H :    0.034584
  32 H :    0.020863
  33 H :    0.034383

  Mayer bond orders larger than 0.100000
B(  0-S ,  1-C ) :   1.1105 B(  0-S ,  4-C ) :   1.1324 B(  1-C ,  2-C ) :   1.6194
B(  1-C , 32-H ) :   0.9706 B(  2-C ,  3-C ) :   1.2361 B(  2-C ,  6-C ) :   1.0323
B(  3-C ,  4-C ) :   1.5692 B(  3-C ,  5-H ) :   0.9870 B(  4-C , 20-C ) :   1.0687
B(  6-C ,  7-H ) :   0.9379 B(  6-C ,  8-H ) :   0.9447 B(  6-C ,  9-C ) :   1.0411
B(  9-C , 10-H ) :   0.9562 B(  9-C , 11-H ) :   0.9608 B(  9-C , 12-C ) :   1.0737
B( 12-C , 13-H ) :   0.9752 B( 12-C , 14-H ) :   0.9714 B( 12-C , 15-H ) :   0.9770
B( 16-S , 17-C ) :   1.1607 B( 16-S , 20-C ) :   1.1471 B( 17-C , 18-C ) :   1.6022
B( 17-C , 33-H ) :   0.9631 B( 18-C , 19-C ) :   1.2500 B( 18-C , 21-H ) :   0.9919
B( 19-C , 20-C ) :   1.5675 B( 19-C , 22-C ) :   1.0682 B( 22-C , 23-H ) :   0.9076
B( 22-C , 24-H ) :   0.9316 B( 22-C , 25-C ) :   1.0493 B( 25-C , 26-H ) :   0.9542
B( 25-C , 27-H ) :   0.9472 B( 25-C , 28-C ) :   1.1046 B( 28-C , 29-H ) :   0.9711
B( 28-C , 30-H ) :   0.9694 B( 28-C , 31-H ) :   0.9674

Dispersion correction           -0.013680648
FINAL SINGLE POINT ENERGY     -1339.858109885251

DIPOLE MOMENT
-------------
                                X             Y             Z
Electronic contribution:    -27.61287       3.48180      16.21665
Nuclear contribution   :     28.17777      -3.81979     -16.65197
                        -----------------------------------------
Total Dipole Moment    :      0.56489      -0.33799      -0.43533
                        -----------------------------------------
Magnitude (a.u.)       :      0.78921
Magnitude (Debye)      :      2.00601

Rotational constants in cm-1:     0.015945     0.009349     0.006461
Rotational constants in MHz :   478.010256   280.277810   193.692378

                             ****ORCA TERMINATED NORMALLY****
TOTAL RUN TIME: 0 days 0 hours 0 minutes 20 seconds 210 msec
