                         Program Version 4.2.1 -  RELEASE  -
|  1> ! wB97X-D3 SP def2-SVP
|  2> %pal
|  3> nprocs 24
|  4> end
|  5>
|  6> * xyz 0 1
|  7> S 	 -52.3501 	 24.5655 	 -94.1686
|  8> C 	 -50.6983 	 25.0744 	 -94.0014
|  9> C 	 -49.8044 	 24.023 	 -94.2777
| 10> C 	 -50.4952 	 22.76 	 -94.3269
| 11> C 	 -51.8731 	 22.8394 	 -94.1099
| 12> H 	 -50.0303 	 21.7845 	 -94.4211
| 13> C 	 -48.3231 	 24.2393 	 -94.5512
| 14> H 	 -48.013 	 25.2011 	 -94.2722
| 15> H 	 -48.3388 	 24.2124 	 -95.6392
| 16> C 	 -47.2869 	 23.1173 	 -94.1191
| 17> H 	 -47.1193 	 22.4024 	 -94.8787
| 18> H 	 -46.2548 	 23.4683 	 -94.1965
| 19> C 	 -47.6457 	 22.4498 	 -92.7686
| 20> H 	 -47.4244 	 23.0517 	 -91.9464
| 21> H 	 -48.4966 	 21.9389 	 -92.7022
| 22> H 	 -46.919 	 21.5736 	 -92.6422
| 23> S 	 -54.3135 	 22.1888 	 -95.1591
| 24> C 	 -55.1013 	 20.8029 	 -94.5851
| 25> C 	 -54.3316 	 20.0131 	 -93.8368
| 26> C 	 -53.0382 	 20.5281 	 -93.6477
| 27> C 	 -52.9292 	 21.8162 	 -94.1297
| 28> H 	 -54.5822 	 18.9995 	 -93.5918
| 29> C 	 -51.9517 	 19.7675 	 -92.8872
| 30> H 	 -52.4306 	 19.3566 	 -91.9892
| 31> H 	 -51.119 	 20.3992 	 -92.5565
| 32> C 	 -51.4194 	 18.4419 	 -93.5383
| 33> H 	 -52.2949 	 17.9839 	 -93.8181
| 34> H 	 -51.0357 	 17.7119 	 -92.8571
| 35> C 	 -50.5324 	 18.6476 	 -94.8226
| 36> H 	 -51.0882 	 19.1746 	 -95.6011
| 37> H 	 -50.1627 	 17.6431 	 -95.2023
| 38> H 	 -49.6176 	 19.2775 	 -94.7419
| 39> H 	 -50.1856 	 26.1136 	 -94.0296
| 40> H 	 -56.0843 	 20.5036 	 -94.8692
| 41> *
| 42>
| 43>                          ****END OF INPUT****

CARTESIAN COORDINATES (ANGSTROEM)
---------------------------------
  S    -52.350100   24.565500  -94.168600
  C    -50.698300   25.074400  -94.001400
  C    -49.804400   24.023000  -94.277700
  C    -50.495200   22.760000  -94.326900
  C    -51.873100   22.839400  -94.109900
  H    -50.030300   21.784500  -94.421100
  C    -48.323100   24.239300  -94.551200
  H    -48.013000   25.201100  -94.272200
  H    -48.338800   24.212400  -95.639200
  C    -47.286900   23.117300  -94.119100
  H    -47.119300   22.402400  -94.878700
  H    -46.254800   23.468300  -94.196500
  C    -47.645700   22.449800  -92.768600
  H    -47.424400   23.051700  -91.946400
  H    -48.496600   21.938900  -92.702200
  H    -46.919000   21.573600  -92.642200
  S    -54.313500   22.188800  -95.159100
  C    -55.101300   20.802900  -94.585100
  C    -54.331600   20.013100  -93.836800
  C    -53.038200   20.528100  -93.647700
  C    -52.929200   21.816200  -94.129700
  H    -54.582200   18.999500  -93.591800
  C    -51.951700   19.767500  -92.887200
  H    -52.430600   19.356600  -91.989200
  H    -51.119000   20.399200  -92.556500
  C    -51.419400   18.441900  -93.538300
  H    -52.294900   17.983900  -93.818100
  H    -51.035700   17.711900  -92.857100
  C    -50.532400   18.647600  -94.822600
  H    -51.088200   19.174600  -95.601100
  H    -50.162700   17.643100  -95.202300
  H    -49.617600   19.277500  -94.741900
  H    -50.185600   26.113600  -94.029600
  H    -56.084300   20.503600  -94.869200

 Total Charge           Charge          ....    0
 Multiplicity           Mult            ....    1
 Number of Electrons    NEL             ....  134
 Basis Dimension        Dim             ....  322

ORBITAL ENERGIES
----------------

  NO   OCC          E(Eh)            E(eV)
   0   2.0000     -88.966492     -2420.9013
   1   2.0000     -88.965026     -2420.8614
   2   2.0000     -10.334888      -281.2266
   3   2.0000     -10.328026      -281.0399
   4   2.0000     -10.317802      -280.7617
   5   2.0000     -10.308050      -280.4963
   6   2.0000     -10.304992      -280.4131
   7   2.0000     -10.302497      -280.3452
   8   2.0000     -10.298039      -280.2239
   9   2.0000     -10.296410      -280.1796
  10   2.0000     -10.293753      -280.1072
  11   2.0000     -10.290876      -280.0290
  12   2.0000     -10.287475      -279.9364
  13   2.0000     -10.287049      -279.9248
  14   2.0000     -10.285275      -279.8766
  15   2.0000     -10.269664      -279.4518
  16   2.0000      -8.080974      -219.8945
  17   2.0000      -8.080413      -219.8792
  18   2.0000      -6.039435      -164.3414
  19   2.0000      -6.039104      -164.3324
  20   2.0000      -6.035450      -164.2330
  21   2.0000      -6.035181      -164.2256
  22   2.0000      -6.031558      -164.1270
  23   2.0000      -6.030859      -164.1080
  24   2.0000      -1.013145       -27.5691
  25   2.0000      -0.984244       -26.7826
  26   2.0000      -0.906996       -24.6806
  27   2.0000      -0.905615       -24.6430
  28   2.0000      -0.869582       -23.6625
  29   2.0000      -0.850886       -23.1538
  30   2.0000      -0.841740       -22.9049
  31   2.0000      -0.818738       -22.2790
  32   2.0000      -0.786516       -21.4022
  33   2.0000      -0.775431       -21.1006
  34   2.0000      -0.720133       -19.5958
  35   2.0000      -0.708004       -19.2658
  36   2.0000      -0.695387       -18.9224
  37   2.0000      -0.662044       -18.0151
  38   2.0000      -0.632770       -17.2185
  39   2.0000      -0.618855       -16.8399
  40   2.0000      -0.602289       -16.3891
  41   2.0000      -0.561521       -15.2798
  42   2.0000      -0.554779       -15.0963
  43   2.0000      -0.549784       -14.9604
  44   2.0000      -0.536974       -14.6118
  45   2.0000      -0.534495       -14.5443
  46   2.0000      -0.518973       -14.1220
  47   2.0000      -0.509633       -13.8678
  48   2.0000      -0.505104       -13.7446
  49   2.0000      -0.497349       -13.5335
  50   2.0000      -0.492060       -13.3896
  51   2.0000      -0.478824       -13.0295
  52   2.0000      -0.470667       -12.8075
  53   2.0000      -0.469885       -12.7862
  54   2.0000      -0.459842       -12.5129
  55   2.0000      -0.453819       -12.3490
  56   2.0000      -0.452277       -12.3071
  57   2.0000      -0.433949       -11.8083
  58   2.0000      -0.431816       -11.7503
  59   2.0000      -0.423252       -11.5173
  60   2.0000      -0.419236       -11.4080
  61   2.0000      -0.417319       -11.3558
  62   2.0000      -0.416648       -11.3376
  63   2.0000      -0.352491        -9.5918
  64   2.0000      -0.333029        -9.0622
  65   2.0000      -0.324596        -8.8327
  66   2.0000      -0.285471        -7.7681
  67   0.0000       0.024791         0.6746
  68   0.0000       0.069624         1.8946
  69   0.0000       0.103992         2.8298
  70   0.0000       0.123425         3.3586
  71   0.0000       0.125301         3.4096

MULLIKEN ATOMIC CHARGES
-----------------------
   0 S :    0.101649
   1 C :   -0.117273
   2 C :   -0.155135
   3 C :    0.044839
   4 C :   -0.146117
   5 H :   -0.000273
   6 C :    0.111046
   7 H :    0.009285
   8 H :    0.041758
   9 C :   -0.066309
  10 H :    0.005852
  11 H :    0.019303
  12 C :    0.013892
  13 H :    0.032220
  14 H :   -0.001500
  15 H :    0.014841
  16 S :    0.107381
  17 C :   -0.050653
  18 C :   -0.027594
  19 C :   -0.032727
  20 C :   -0.157771
  21 H :    0.009652
  22 C :    0.039820
  23 H :    0.027372
  24 H :    0.033597
  25 C :   -0.017700
  26 H :   -0.006882
  27 H :    0.026650
  28 C :   -0.094148
  29 H :    0.043162
  30 H :    0.042496
  31 H :    0.037980
  32 H :    0.071304
  33 H :    0.039984
Sum of atomic charges:   -0.0000000

LOEWDIN ATOMIC CHARGES
----------------------
   0 S :    0.393341
   1 C :   -0.227097
   2 C :   -0.061266
   3 C :   -0.063430
   4 C :   -0.177922
   5 H :    0.027351
   6 C :   -0.026910
   7 H :    0.020413
   8 H :    0.042496
   9 C :   -0.044970
  10 H :    0.018443
  11 H :    0.031976
  12 C :   -0.051619
  13 H :    0.021324
  14 H :    0.003228
  15 H :    0.036348
  16 S :    0.417510
  17 C :   -0.187140
  18 C :   -0.074178
  19 C :   -0.058311
  20 C :   -0.190084
  21 H :    0.029488
  22 C :   -0.028121
  23 H :    0.035940
  24 H :    0.027558
  25 C :   -0.032857
  26 H :    0.012662
  27 H :    0.024179
  28 C :   -0.077234
  29 H :    0.027813
  30 H :    0.032975
  31 H :    0.022646
  32 H :    0.050332
  33 H :    0.025118

  Mayer bond orders larger than 0.100000
B(  0-S ,  1-C ) :   1.1323 B(  0-S ,  4-C ) :   1.1398 B(  1-C ,  2-C ) :   1.6189
B(  1-C ,  4-C ) :   0.1015 B(  1-C , 32-H ) :   0.9499 B(  2-C ,  3-C ) :   1.2330
B(  2-C ,  6-C ) :   1.0229 B(  3-C ,  4-C ) :   1.5633 B(  3-C ,  5-H ) :   0.9886
B(  4-C , 20-C ) :   1.0487 B(  6-C ,  7-H ) :   0.9429 B(  6-C ,  8-H ) :   0.9328
B(  6-C ,  9-C ) :   1.0552 B(  9-C , 10-H ) :   0.9493 B(  9-C , 11-H ) :   0.9507
B(  9-C , 12-C ) :   1.0870 B( 12-C , 13-H ) :   0.9781 B( 12-C , 14-H ) :   0.9728
B( 12-C , 15-H ) :   0.9650 B( 16-S , 17-C ) :   1.1530 B( 16-S , 20-C ) :   1.1425
B( 17-C , 18-C ) :   1.6214 B( 17-C , 33-H ) :   0.9654 B( 18-C , 19-C ) :   1.2440
B( 18-C , 21-H ) :   0.9884 B( 19-C , 20-C ) :   1.6021 B( 19-C , 22-C ) :   1.0459
B( 22-C , 23-H ) :   0.9324 B( 22-C , 24-H ) :   0.9468 B( 22-C , 25-C ) :   1.0657
B( 25-C , 26-H ) :   0.9480 B( 25-C , 27-H ) :   0.9594 B( 25-C , 28-C ) :   1.0634
B( 28-C , 29-H ) :   0.9765 B( 28-C , 30-H ) :   0.9735 B( 28-C , 31-H ) :   0.9745

Dispersion correction           -0.015194966
FINAL SINGLE POINT ENERGY     -1339.837842428711

DIPOLE MOMENT
-------------
                                X             Y             Z
Electronic contribution:    -25.42409      15.86798      -4.46936
Nuclear contribution   :     25.96372     -16.43920       4.35775
                        -----------------------------------------
Total Dipole Moment    :      0.53964      -0.57122      -0.11161
                        -----------------------------------------
Magnitude (a.u.)       :      0.79370
Magnitude (Debye)      :      2.01742

Rotational constants in cm-1:     0.017918     0.010387     0.007102
Rotational constants in MHz :   537.167242   311.400316   212.907784

                             ****ORCA TERMINATED NORMALLY****
TOTAL RUN TIME: 0 days 0 hours 0 minutes 22 seconds 541 msec
