                         Program Version 4.2.1 -  RELEASE  -
|  1> ! wB97X-D3 SP def2-SVP
|  2> %pal
|  3> nprocs 24
|  4> end
|  5>
|  6> * xyz 0 1
|  7> S 	 -64.0453 	 13.4422 	 -108.01
|  8> C 	 -64.7806 	 13.6113 	 -106.38
|  9> C 	 -64.0995 	 14.4823 	 -105.566
| 10> C 	 -63.0843 	 15.1939 	 -106.286
| 11> C 	 -62.9597 	 14.7466 	 -107.583
| 12> H 	 -62.4566 	 15.9871 	 -106.038
| 13> C 	 -64.5696 	 14.8185 	 -104.204
| 14> H 	 -65.5894 	 14.5147 	 -104.145
| 15> H 	 -64.5408 	 15.9357 	 -104.026
| 16> C 	 -63.6868 	 14.262 	 -103.04
| 17> H 	 -63.4672 	 13.1915 	 -102.912
| 18> H 	 -62.7012 	 14.6739 	 -103.108
| 19> C 	 -64.2764 	 14.6549 	 -101.625
| 20> H 	 -65.3977 	 14.661 	 -101.603
| 21> H 	 -63.9295 	 13.9853 	 -100.785
| 22> H 	 -64.0107 	 15.636 	 -101.306
| 23> S 	 -62.082 	 17.0506 	 -108.856
| 24> C 	 -61.0344 	 16.8855 	 -110.254
| 25> C 	 -60.722 	 15.5395 	 -110.508
| 26> C 	 -61.1182 	 14.6667 	 -109.424
| 27> C 	 -62.0159 	 15.3015 	 -108.541
| 28> H 	 -60.1866 	 15.1852 	 -111.372
| 29> C 	 -60.7604 	 13.1921 	 -109.378
| 30> H 	 -60.6447 	 12.8122 	 -110.429
| 31> H 	 -61.6001 	 12.6869 	 -108.799
| 32> C 	 -59.3956 	 12.7948 	 -108.731
| 33> H 	 -58.7179 	 13.472 	 -109.142
| 34> H 	 -59.1072 	 11.8394 	 -109.103
| 35> C 	 -59.3321 	 12.9137 	 -107.229
| 36> H 	 -59.8956 	 12.1113 	 -106.774
| 37> H 	 -59.7845 	 13.8785 	 -106.95
| 38> H 	 -58.2888 	 12.8475 	 -106.861
| 39> H 	 -65.6354 	 13.107 	 -105.966
| 40> H 	 -60.7965 	 17.6813 	 -110.936
| 41> *
| 42>
| 43>                          ****END OF INPUT****

CARTESIAN COORDINATES (ANGSTROEM)
---------------------------------
  S    -64.045300   13.442200  -108.010000
  C    -64.780600   13.611300  -106.380000
  C    -64.099500   14.482300  -105.566000
  C    -63.084300   15.193900  -106.286000
  C    -62.959700   14.746600  -107.583000
  H    -62.456600   15.987100  -106.038000
  C    -64.569600   14.818500  -104.204000
  H    -65.589400   14.514700  -104.145000
  H    -64.540800   15.935700  -104.026000
  C    -63.686800   14.262000  -103.040000
  H    -63.467200   13.191500  -102.912000
  H    -62.701200   14.673900  -103.108000
  C    -64.276400   14.654900  -101.625000
  H    -65.397700   14.661000  -101.603000
  H    -63.929500   13.985300  -100.785000
  H    -64.010700   15.636000  -101.306000
  S    -62.082000   17.050600  -108.856000
  C    -61.034400   16.885500  -110.254000
  C    -60.722000   15.539500  -110.508000
  C    -61.118200   14.666700  -109.424000
  C    -62.015900   15.301500  -108.541000
  H    -60.186600   15.185200  -111.372000
  C    -60.760400   13.192100  -109.378000
  H    -60.644700   12.812200  -110.429000
  H    -61.600100   12.686900  -108.799000
  C    -59.395600   12.794800  -108.731000
  H    -58.717900   13.472000  -109.142000
  H    -59.107200   11.839400  -109.103000
  C    -59.332100   12.913700  -107.229000
  H    -59.895600   12.111300  -106.774000
  H    -59.784500   13.878500  -106.950000
  H    -58.288800   12.847500  -106.861000
  H    -65.635400   13.107000  -105.966000
  H    -60.796500   17.681300  -110.936000

 Total Charge           Charge          ....    0
 Multiplicity           Mult            ....    1
 Number of Electrons    NEL             ....  134
 Basis Dimension        Dim             ....  322

ORBITAL ENERGIES
----------------

  NO   OCC          E(Eh)            E(eV)
   0   2.0000     -88.972544     -2421.0660
   1   2.0000     -88.968797     -2420.9640
   2   2.0000     -10.328963      -281.0654
   3   2.0000     -10.328702      -281.0583
   4   2.0000     -10.320861      -280.8449
   5   2.0000     -10.315070      -280.6873
   6   2.0000     -10.306425      -280.4521
   7   2.0000     -10.301198      -280.3098
   8   2.0000     -10.298917      -280.2478
   9   2.0000     -10.298100      -280.2255
  10   2.0000     -10.296528      -280.1828
  11   2.0000     -10.291372      -280.0425
  12   2.0000     -10.290917      -280.0301
  13   2.0000     -10.283412      -279.8259
  14   2.0000     -10.273956      -279.5686
  15   2.0000     -10.270525      -279.4752
  16   2.0000      -8.085951      -220.0299
  17   2.0000      -8.082749      -219.9428
  18   2.0000      -6.044520      -164.4798
  19   2.0000      -6.041295      -164.3920
  20   2.0000      -6.040848      -164.3798
  21   2.0000      -6.037341      -164.2844
  22   2.0000      -6.036505      -164.2617
  23   2.0000      -6.033546      -164.1811
  24   2.0000      -1.003797       -27.3147
  25   2.0000      -0.978833       -26.6354
  26   2.0000      -0.910110       -24.7654
  27   2.0000      -0.905017       -24.6268
  28   2.0000      -0.866360       -23.5748
  29   2.0000      -0.851932       -23.1822
  30   2.0000      -0.844592       -22.9825
  31   2.0000      -0.813266       -22.1301
  32   2.0000      -0.779991       -21.2246
  33   2.0000      -0.768165       -20.9028
  34   2.0000      -0.709587       -19.3089
  35   2.0000      -0.701833       -19.0978
  36   2.0000      -0.690805       -18.7978
  37   2.0000      -0.665695       -18.1145
  38   2.0000      -0.641528       -17.4569
  39   2.0000      -0.615071       -16.7369
  40   2.0000      -0.590411       -16.0659
  41   2.0000      -0.572137       -15.5686
  42   2.0000      -0.555493       -15.1157
  43   2.0000      -0.550728       -14.9861
  44   2.0000      -0.541596       -14.7376
  45   2.0000      -0.520821       -14.1723
  46   2.0000      -0.516235       -14.0475
  47   2.0000      -0.509039       -13.8517
  48   2.0000      -0.504347       -13.7240
  49   2.0000      -0.492680       -13.4065
  50   2.0000      -0.491847       -13.3838
  51   2.0000      -0.476527       -12.9670
  52   2.0000      -0.466304       -12.6888
  53   2.0000      -0.464427       -12.6377
  54   2.0000      -0.459959       -12.5161
  55   2.0000      -0.447292       -12.1714
  56   2.0000      -0.444679       -12.1003
  57   2.0000      -0.440497       -11.9865
  58   2.0000      -0.430402       -11.7118
  59   2.0000      -0.429053       -11.6751
  60   2.0000      -0.421544       -11.4708
  61   2.0000      -0.417135       -11.3508
  62   2.0000      -0.412921       -11.2361
  63   2.0000      -0.342492        -9.3197
  64   2.0000      -0.334186        -9.0937
  65   2.0000      -0.329424        -8.9641
  66   2.0000      -0.289252        -7.8709
  67   0.0000       0.027729         0.7545
  68   0.0000       0.062356         1.6968
  69   0.0000       0.103869         2.8264
  70   0.0000       0.106882         2.9084
  71   0.0000       0.117850         3.2069

MULLIKEN ATOMIC CHARGES
-----------------------
   0 S :    0.124271
   1 C :   -0.115700
   2 C :   -0.038299
   3 C :    0.037402
   4 C :   -0.142621
   5 H :   -0.011949
   6 C :    0.056033
   7 H :    0.015125
   8 H :    0.043357
   9 C :   -0.067724
  10 H :    0.036589
  11 H :    0.025079
  12 C :   -0.083679
  13 H :    0.032794
  14 H :    0.041253
  15 H :    0.022842
  16 S :    0.108705
  17 C :   -0.090331
  18 C :   -0.024157
  19 C :   -0.054373
  20 C :   -0.162272
  21 H :    0.020751
  22 C :    0.005923
  23 H :    0.031807
  24 H :    0.033443
  25 C :   -0.015962
  26 H :    0.001347
  27 H :    0.018154
  28 C :   -0.046524
  29 H :    0.028621
  30 H :    0.037395
  31 H :    0.036707
  32 H :    0.036193
  33 H :    0.059800
Sum of atomic charges:    0.0000000

LOEWDIN ATOMIC CHARGES
----------------------
   0 S :    0.399839
   1 C :   -0.180342
   2 C :   -0.058781
   3 C :   -0.053616
   4 C :   -0.186952
   5 H :    0.020900
   6 C :   -0.028653
   7 H :    0.025384
   8 H :    0.043280
   9 C :   -0.040645
  10 H :    0.027748
  11 H :    0.021717
  12 C :   -0.075675
  13 H :    0.026846
  14 H :    0.031980
  15 H :    0.015604
  16 S :    0.398523
  17 C :   -0.185874
  18 C :   -0.063511
  19 C :   -0.061280
  20 C :   -0.195246
  21 H :    0.029387
  22 C :   -0.040019
  23 H :    0.036635
  24 H :    0.023643
  25 C :   -0.035207
  26 H :    0.014374
  27 H :    0.018694
  28 C :   -0.064175
  29 H :    0.022550
  30 H :    0.029609
  31 H :    0.029175
  32 H :    0.026108
  33 H :    0.027978

  Mayer bond orders larger than 0.100000
B(  0-S ,  1-C ) :   1.1110 B(  0-S ,  4-C ) :   1.1308 B(  1-C ,  2-C ) :   1.6528
B(  1-C , 32-H ) :   0.9637 B(  2-C ,  3-C ) :   1.1754 B(  2-C ,  6-C ) :   1.0389
B(  3-C ,  4-C ) :   1.5971 B(  3-C ,  5-H ) :   1.0075 B(  4-C , 20-C ) :   1.0512
B(  6-C ,  7-H ) :   0.9420 B(  6-C ,  8-H ) :   0.9448 B(  6-C ,  9-C ) :   1.0387
B(  9-C , 10-H ) :   0.9663 B(  9-C , 11-H ) :   0.9590 B(  9-C , 12-C ) :   1.0638
B( 12-C , 13-H ) :   0.9775 B( 12-C , 14-H ) :   0.9796 B( 12-C , 15-H ) :   0.9784
B( 16-S , 17-C ) :   1.1509 B( 16-S , 20-C ) :   1.1329 B( 17-C , 18-C ) :   1.6012
B( 17-C , 20-C ) :   0.1005 B( 17-C , 33-H ) :   0.9692 B( 18-C , 19-C ) :   1.2442
B( 18-C , 21-H ) :   0.9858 B( 19-C , 20-C ) :   1.5662 B( 19-C , 22-C ) :   1.0501
B( 22-C , 23-H ) :   0.9349 B( 22-C , 24-H ) :   0.9307 B( 22-C , 25-C ) :   1.0677
B( 25-C , 26-H ) :   0.9499 B( 25-C , 27-H ) :   0.9549 B( 25-C , 28-C ) :   1.0834
B( 28-C , 29-H ) :   0.9754 B( 28-C , 30-H ) :   0.9743 B( 28-C , 31-H ) :   0.9732

Dispersion correction           -0.014344115
FINAL SINGLE POINT ENERGY     -1339.872820719509

DIPOLE MOMENT
-------------
                                X             Y             Z
Electronic contribution:     -6.94560       9.14092     -20.37400
Nuclear contribution   :      7.08786      -9.22397      20.56758
                        -----------------------------------------
Total Dipole Moment    :      0.14226      -0.08304       0.19358
                        -----------------------------------------
Magnitude (a.u.)       :      0.25418
Magnitude (Debye)      :      0.64607

Rotational constants in cm-1:     0.020398     0.007708     0.007030
Rotational constants in MHz :   611.512610   231.094398   210.746147

                             ****ORCA TERMINATED NORMALLY****
TOTAL RUN TIME: 0 days 0 hours 0 minutes 20 seconds 414 msec
