                         Program Version 4.2.1 -  RELEASE  -
|  1> ! wB97X-D3 SP def2-SVP
|  2> %pal
|  3> nprocs 24
|  4> end
|  5>
|  6> * xyz 0 1
|  7> S 	 -136.066 	 9.17414 	 -8.20666
|  8> C 	 -135.897 	 10.8653 	 -8.47152
|  9> C 	 -134.865 	 11.4057 	 -7.82018
| 10> C 	 -134.164 	 10.4635 	 -7.06005
| 11> C 	 -134.579 	 9.13188 	 -7.27098
| 12> H 	 -133.386 	 10.5798 	 -6.417
| 13> C 	 -134.601 	 12.9089 	 -7.74343
| 14> H 	 -133.7 	 12.9146 	 -8.27346
| 15> H 	 -134.388 	 13.0252 	 -6.67357
| 16> C 	 -135.594 	 13.9231 	 -8.31688
| 17> H 	 -135.101 	 14.874 	 -8.34646
| 18> H 	 -135.846 	 13.6805 	 -9.35466
| 19> C 	 -136.902 	 14.2191 	 -7.49449
| 20> H 	 -136.828 	 14.3013 	 -6.42568
| 21> H 	 -137.396 	 15.225 	 -7.77758
| 22> H 	 -137.691 	 13.4493 	 -7.75793
| 23> S 	 -135.234 	 6.86201 	 -5.91298
| 24> C 	 -134.026 	 5.68276 	 -5.55083
| 25> C 	 -132.861 	 6.01481 	 -6.14074
| 26> C 	 -132.833 	 7.34614 	 -6.70979
| 27> C 	 -134.058 	 7.94311 	 -6.6442
| 28> H 	 -132.063 	 5.23183 	 -6.13732
| 29> C 	 -131.645 	 7.92545 	 -7.47676
| 30> H 	 -131.975 	 8.41924 	 -8.35884
| 31> H 	 -131.09 	 7.06646 	 -7.91922
| 32> C 	 -130.602 	 8.77859 	 -6.67288
| 33> H 	 -130.246 	 8.30315 	 -5.76742
| 34> H 	 -131.14 	 9.63723 	 -6.32443
| 35> C 	 -129.445 	 9.14801 	 -7.53672
| 36> H 	 -129.018 	 8.37884 	 -8.26698
| 37> H 	 -128.604 	 9.4598 	 -6.86034
| 38> H 	 -129.668 	 10.0031 	 -8.15626
| 39> H 	 -136.519 	 11.396 	 -9.19134
| 40> H 	 -134.204 	 4.6899 	 -5.15215
| 41> *
| 42>
| 43>                          ****END OF INPUT****

CARTESIAN COORDINATES (ANGSTROEM)
---------------------------------
  S    -136.066000    9.174140   -8.206660
  C    -135.897000   10.865300   -8.471520
  C    -134.865000   11.405700   -7.820180
  C    -134.164000   10.463500   -7.060050
  C    -134.579000    9.131880   -7.270980
  H    -133.386000   10.579800   -6.417000
  C    -134.601000   12.908900   -7.743430
  H    -133.700000   12.914600   -8.273460
  H    -134.388000   13.025200   -6.673570
  C    -135.594000   13.923100   -8.316880
  H    -135.101000   14.874000   -8.346460
  H    -135.846000   13.680500   -9.354660
  C    -136.902000   14.219100   -7.494490
  H    -136.828000   14.301300   -6.425680
  H    -137.396000   15.225000   -7.777580
  H    -137.691000   13.449300   -7.757930
  S    -135.234000    6.862010   -5.912980
  C    -134.026000    5.682760   -5.550830
  C    -132.861000    6.014810   -6.140740
  C    -132.833000    7.346140   -6.709790
  C    -134.058000    7.943110   -6.644200
  H    -132.063000    5.231830   -6.137320
  C    -131.645000    7.925450   -7.476760
  H    -131.975000    8.419240   -8.358840
  H    -131.090000    7.066460   -7.919220
  C    -130.602000    8.778590   -6.672880
  H    -130.246000    8.303150   -5.767420
  H    -131.140000    9.637230   -6.324430
  C    -129.445000    9.148010   -7.536720
  H    -129.018000    8.378840   -8.266980
  H    -128.604000    9.459800   -6.860340
  H    -129.668000   10.003100   -8.156260
  H    -136.519000   11.396000   -9.191340
  H    -134.204000    4.689900   -5.152150

 Total Charge           Charge          ....    0
 Multiplicity           Mult            ....    1
 Number of Electrons    NEL             ....  134
 Basis Dimension        Dim             ....  322

ORBITAL ENERGIES
----------------

  NO   OCC          E(Eh)            E(eV)
   0   2.0000     -88.963080     -2420.8085
   1   2.0000     -88.959488     -2420.7107
   2   2.0000     -10.328809      -281.0612
   3   2.0000     -10.322897      -280.9003
   4   2.0000     -10.311051      -280.5780
   5   2.0000     -10.303656      -280.3767
   6   2.0000     -10.303305      -280.3672
   7   2.0000     -10.295380      -280.1515
   8   2.0000     -10.294137      -280.1177
   9   2.0000     -10.292368      -280.0696
  10   2.0000     -10.291062      -280.0340
  11   2.0000     -10.290716      -280.0246
  12   2.0000     -10.290140      -280.0090
  13   2.0000     -10.286622      -279.9132
  14   2.0000     -10.284167      -279.8464
  15   2.0000     -10.282094      -279.7900
  16   2.0000      -8.078358      -219.8233
  17   2.0000      -8.075101      -219.7347
  18   2.0000      -6.036810      -164.2699
  19   2.0000      -6.033662      -164.1843
  20   2.0000      -6.032792      -164.1606
  21   2.0000      -6.029555      -164.0725
  22   2.0000      -6.029140      -164.0612
  23   2.0000      -6.025660      -163.9665
  24   2.0000      -1.012016       -27.5384
  25   2.0000      -0.990905       -26.9639
  26   2.0000      -0.911212       -24.7953
  27   2.0000      -0.907409       -24.6919
  28   2.0000      -0.872278       -23.7359
  29   2.0000      -0.854234       -23.2449
  30   2.0000      -0.847425       -23.0596
  31   2.0000      -0.815323       -22.1861
  32   2.0000      -0.783791       -21.3280
  33   2.0000      -0.772017       -21.0076
  34   2.0000      -0.712009       -19.3748
  35   2.0000      -0.705988       -19.2109
  36   2.0000      -0.697987       -18.9932
  37   2.0000      -0.661588       -18.0027
  38   2.0000      -0.643878       -17.5208
  39   2.0000      -0.609500       -16.5853
  40   2.0000      -0.593114       -16.1395
  41   2.0000      -0.574826       -15.6418
  42   2.0000      -0.560859       -15.2618
  43   2.0000      -0.557209       -15.1624
  44   2.0000      -0.535322       -14.5668
  45   2.0000      -0.525852       -14.3092
  46   2.0000      -0.520657       -14.1678
  47   2.0000      -0.514568       -14.0021
  48   2.0000      -0.505368       -13.7518
  49   2.0000      -0.498350       -13.5608
  50   2.0000      -0.493536       -13.4298
  51   2.0000      -0.482510       -13.1298
  52   2.0000      -0.471582       -12.8324
  53   2.0000      -0.462591       -12.5877
  54   2.0000      -0.456984       -12.4352
  55   2.0000      -0.451212       -12.2781
  56   2.0000      -0.446366       -12.1462
  57   2.0000      -0.440232       -11.9793
  58   2.0000      -0.434150       -11.8138
  59   2.0000      -0.429238       -11.6802
  60   2.0000      -0.415402       -11.3037
  61   2.0000      -0.413811       -11.2604
  62   2.0000      -0.409019       -11.1300
  63   2.0000      -0.351539        -9.5659
  64   2.0000      -0.330554        -8.9948
  65   2.0000      -0.327454        -8.9105
  66   2.0000      -0.292252        -7.9526
  67   0.0000       0.031854         0.8668
  68   0.0000       0.073429         1.9981
  69   0.0000       0.116387         3.1671
  70   0.0000       0.128927         3.5083
  71   0.0000       0.136413         3.7120

MULLIKEN ATOMIC CHARGES
-----------------------
   0 S :    0.114906
   1 C :   -0.141821
   2 C :   -0.066369
   3 C :    0.039867
   4 C :   -0.154400
   5 H :   -0.038279
   6 C :    0.103603
   7 H :    0.024207
   8 H :    0.036259
   9 C :   -0.051163
  10 H :    0.029573
  11 H :    0.032188
  12 C :   -0.095730
  13 H :    0.037642
  14 H :    0.039569
  15 H :    0.042258
  16 S :    0.092017
  17 C :   -0.081398
  18 C :   -0.057364
  19 C :   -0.012077
  20 C :   -0.163104
  21 H :    0.032117
  22 C :    0.039620
  23 H :    0.026124
  24 H :    0.014685
  25 C :   -0.022507
  26 H :    0.026504
  27 H :    0.013603
  28 C :   -0.072996
  29 H :    0.042021
  30 H :    0.037721
  31 H :    0.029009
  32 H :    0.046632
  33 H :    0.057084
Sum of atomic charges:    0.0000000

LOEWDIN ATOMIC CHARGES
----------------------
   0 S :    0.410919
   1 C :   -0.208472
   2 C :   -0.069291
   3 C :   -0.050350
   4 C :   -0.185969
   5 H :    0.010734
   6 C :   -0.025314
   7 H :    0.030507
   8 H :    0.037513
   9 C :   -0.041173
  10 H :    0.028238
  11 H :    0.027294
  12 C :   -0.076986
  13 H :    0.021774
  14 H :    0.034499
  15 H :    0.029098
  16 S :    0.400056
  17 C :   -0.192751
  18 C :   -0.076329
  19 C :   -0.056988
  20 C :   -0.194677
  21 H :    0.038475
  22 C :   -0.029578
  23 H :    0.026749
  24 H :    0.031633
  25 C :   -0.037680
  26 H :    0.024221
  27 H :    0.019745
  28 C :   -0.075080
  29 H :    0.032765
  30 H :    0.032491
  31 H :    0.022928
  32 H :    0.027576
  33 H :    0.033424

  Mayer bond orders larger than 0.100000
B(  0-S ,  1-C ) :   1.1359 B(  0-S ,  4-C ) :   1.1565 B(  1-C ,  2-C ) :   1.6318
B(  1-C , 32-H ) :   0.9550 B(  2-C ,  3-C ) :   1.2483 B(  2-C ,  6-C ) :   0.9694
B(  3-C ,  4-C ) :   1.5463 B(  3-C ,  5-H ) :   1.0153 B(  4-C , 20-C ) :   1.0705
B(  6-C ,  7-H ) :   0.9252 B(  6-C ,  8-H ) :   0.9464 B(  6-C ,  9-C ) :   1.0924
B(  9-C , 10-H ) :   0.9518 B(  9-C , 11-H ) :   0.9502 B(  9-C , 12-C ) :   1.0636
B( 12-C , 13-H ) :   0.9776 B( 12-C , 14-H ) :   0.9770 B( 12-C , 15-H ) :   0.9786
B( 16-S , 17-C ) :   1.1389 B( 16-S , 20-C ) :   1.1295 B( 17-C , 18-C ) :   1.6535
B( 17-C , 33-H ) :   0.9633 B( 18-C , 19-C ) :   1.2180 B( 18-C , 21-H ) :   0.9823
B( 19-C , 20-C ) :   1.6123 B( 19-C , 22-C ) :   1.0414 B( 22-C , 23-H ) :   0.9355
B( 22-C , 24-H ) :   0.9380 B( 22-C , 25-C ) :   1.0562 B( 25-C , 26-H ) :   0.9588
B( 25-C , 27-H ) :   0.9474 B( 25-C , 28-C ) :   1.0837 B( 28-C , 29-H ) :   0.9740
B( 28-C , 30-H ) :   0.9736 B( 28-C , 31-H ) :   0.9736

Dispersion correction           -0.013971208
FINAL SINGLE POINT ENERGY     -1339.870712400568

DIPOLE MOMENT
-------------
                                X             Y             Z
Electronic contribution:    -14.95860     -20.95715       3.48604
Nuclear contribution   :     15.46989      21.33794      -3.62313
                        -----------------------------------------
Total Dipole Moment    :      0.51129       0.38079      -0.13709
                        -----------------------------------------
Magnitude (a.u.)       :      0.65208
Magnitude (Debye)      :      1.65746

Rotational constants in cm-1:     0.019384     0.008250     0.006226
Rotational constants in MHz :   581.112781   247.323404   186.653319

                             ****ORCA TERMINATED NORMALLY****
TOTAL RUN TIME: 0 days 0 hours 0 minutes 22 seconds 417 msec
