                         Program Version 4.2.1 -  RELEASE  -
|  1> ! wB97X-D3 SP def2-SVP
|  2> %pal
|  3> nprocs 24
|  4> end
|  5>
|  6> * xyz 0 1
|  7> S 	 -126.176 	 59.2398 	 -47.5776
|  8> C 	 -126.406 	 57.9923 	 -48.7812
|  9> C 	 -126.122 	 58.437 	 -50.0657
| 10> C 	 -125.919 	 59.8453 	 -50.0964
| 11> C 	 -126.084 	 60.4188 	 -48.8535
| 12> H 	 -125.705 	 60.4807 	 -50.946
| 13> C 	 -126.152 	 57.5531 	 -51.3096
| 14> H 	 -125.564 	 56.6366 	 -51.0676
| 15> H 	 -125.532 	 58.0641 	 -52.1086
| 16> C 	 -127.523 	 57.0796 	 -51.801
| 17> H 	 -127.318 	 56.4733 	 -52.7501
| 18> H 	 -128.083 	 56.4226 	 -51.1364
| 19> C 	 -128.47 	 58.221 	 -52.1205
| 20> H 	 -128.946 	 58.6593 	 -51.2484
| 21> H 	 -128.038 	 58.9529 	 -52.8413
| 22> H 	 -129.239 	 57.7621 	 -52.6933
| 23> S 	 -126.248 	 63.0077 	 -49.9707
| 24> C 	 -125.984 	 64.3889 	 -48.995
| 25> C 	 -125.898 	 64.0823 	 -47.6466
| 26> C 	 -125.881 	 62.6271 	 -47.4328
| 27> C 	 -125.972 	 61.869 	 -48.5784
| 28> H 	 -125.775 	 64.9299 	 -46.8989
| 29> C 	 -125.802 	 62.0364 	 -46.0044
| 30> H 	 -125.18 	 61.0909 	 -46.0097
| 31> H 	 -126.821 	 61.7175 	 -45.6386
| 32> C 	 -125.475 	 63.022 	 -44.7977
| 33> H 	 -126.342 	 63.7579 	 -44.7068
| 34> H 	 -124.651 	 63.7331 	 -45.0791
| 35> C 	 -125.332 	 62.2743 	 -43.4919
| 36> H 	 -124.657 	 61.4234 	 -43.4627
| 37> H 	 -126.24 	 62.0195 	 -42.8938
| 38> H 	 -124.91 	 63.0725 	 -42.8765
| 39> H 	 -126.679 	 56.9789 	 -48.5883
| 40> H 	 -125.933 	 65.3506 	 -49.3134
| 41> *
| 42>
| 43>                          ****END OF INPUT****

CARTESIAN COORDINATES (ANGSTROEM)
---------------------------------
  S    -126.176000   59.239800  -47.577600
  C    -126.406000   57.992300  -48.781200
  C    -126.122000   58.437000  -50.065700
  C    -125.919000   59.845300  -50.096400
  C    -126.084000   60.418800  -48.853500
  H    -125.705000   60.480700  -50.946000
  C    -126.152000   57.553100  -51.309600
  H    -125.564000   56.636600  -51.067600
  H    -125.532000   58.064100  -52.108600
  C    -127.523000   57.079600  -51.801000
  H    -127.318000   56.473300  -52.750100
  H    -128.083000   56.422600  -51.136400
  C    -128.470000   58.221000  -52.120500
  H    -128.946000   58.659300  -51.248400
  H    -128.038000   58.952900  -52.841300
  H    -129.239000   57.762100  -52.693300
  S    -126.248000   63.007700  -49.970700
  C    -125.984000   64.388900  -48.995000
  C    -125.898000   64.082300  -47.646600
  C    -125.881000   62.627100  -47.432800
  C    -125.972000   61.869000  -48.578400
  H    -125.775000   64.929900  -46.898900
  C    -125.802000   62.036400  -46.004400
  H    -125.180000   61.090900  -46.009700
  H    -126.821000   61.717500  -45.638600
  C    -125.475000   63.022000  -44.797700
  H    -126.342000   63.757900  -44.706800
  H    -124.651000   63.733100  -45.079100
  C    -125.332000   62.274300  -43.491900
  H    -124.657000   61.423400  -43.462700
  H    -126.240000   62.019500  -42.893800
  H    -124.910000   63.072500  -42.876500
  H    -126.679000   56.978900  -48.588300
  H    -125.933000   65.350600  -49.313400

 Total Charge           Charge          ....    0
 Multiplicity           Mult            ....    1
 Number of Electrons    NEL             ....  134
 Basis Dimension        Dim             ....  322

ORBITAL ENERGIES
----------------

  NO   OCC          E(Eh)            E(eV)
   0   2.0000     -88.970478     -2421.0098
   1   2.0000     -88.963410     -2420.8175
   2   2.0000     -10.332011      -281.1483
   3   2.0000     -10.331561      -281.1361
   4   2.0000     -10.310284      -280.5571
   5   2.0000     -10.310034      -280.5503
   6   2.0000     -10.309792      -280.5437
   7   2.0000     -10.302123      -280.3350
   8   2.0000     -10.301566      -280.3199
   9   2.0000     -10.301311      -280.3129
  10   2.0000     -10.301195      -280.3098
  11   2.0000     -10.297926      -280.2208
  12   2.0000     -10.291972      -280.0588
  13   2.0000     -10.291900      -280.0568
  14   2.0000     -10.282140      -279.7912
  15   2.0000     -10.270661      -279.4789
  16   2.0000      -8.084604      -219.9933
  17   2.0000      -8.077768      -219.8072
  18   2.0000      -6.043175      -164.4431
  19   2.0000      -6.039298      -164.3377
  20   2.0000      -6.036487      -164.2612
  21   2.0000      -6.035253      -164.2276
  22   2.0000      -6.032407      -164.1501
  23   2.0000      -6.028269      -164.0376
  24   2.0000      -1.004822       -27.3426
  25   2.0000      -0.981640       -26.7118
  26   2.0000      -0.909848       -24.7582
  27   2.0000      -0.900200       -24.4957
  28   2.0000      -0.868041       -23.6206
  29   2.0000      -0.853249       -23.2181
  30   2.0000      -0.844487       -22.9796
  31   2.0000      -0.811305       -22.0767
  32   2.0000      -0.780790       -21.2464
  33   2.0000      -0.771798       -21.0017
  34   2.0000      -0.704058       -19.1584
  35   2.0000      -0.698357       -19.0033
  36   2.0000      -0.692936       -18.8557
  37   2.0000      -0.656681       -17.8692
  38   2.0000      -0.633713       -17.2442
  39   2.0000      -0.608169       -16.5491
  40   2.0000      -0.594692       -16.1824
  41   2.0000      -0.572812       -15.5870
  42   2.0000      -0.556194       -15.1348
  43   2.0000      -0.547911       -14.9094
  44   2.0000      -0.544686       -14.8217
  45   2.0000      -0.525345       -14.2954
  46   2.0000      -0.512865       -13.9558
  47   2.0000      -0.508484       -13.8366
  48   2.0000      -0.505047       -13.7430
  49   2.0000      -0.494331       -13.4514
  50   2.0000      -0.488449       -13.2914
  51   2.0000      -0.479567       -13.0497
  52   2.0000      -0.472477       -12.8568
  53   2.0000      -0.469475       -12.7751
  54   2.0000      -0.459652       -12.5078
  55   2.0000      -0.455213       -12.3870
  56   2.0000      -0.443728       -12.0744
  57   2.0000      -0.432808       -11.7773
  58   2.0000      -0.424674       -11.5560
  59   2.0000      -0.423632       -11.5276
  60   2.0000      -0.414565       -11.2809
  61   2.0000      -0.411949       -11.2097
  62   2.0000      -0.400425       -10.8961
  63   2.0000      -0.359939        -9.7944
  64   2.0000      -0.332483        -9.0473
  65   2.0000      -0.326817        -8.8931
  66   2.0000      -0.280526        -7.6335
  67   0.0000       0.020880         0.5682
  68   0.0000       0.081181         2.2091
  69   0.0000       0.105872         2.8809
  70   0.0000       0.110067         2.9951
  71   0.0000       0.135778         3.6947

MULLIKEN ATOMIC CHARGES
-----------------------
   0 S :    0.099308
   1 C :   -0.101072
   2 C :   -0.067958
   3 C :   -0.024520
   4 C :   -0.106576
   5 H :    0.018740
   6 C :    0.043244
   7 H :    0.033921
   8 H :    0.037382
   9 C :   -0.089471
  10 H :    0.038252
  11 H :    0.029628
  12 C :   -0.039913
  13 H :    0.051811
  14 H :    0.030338
  15 H :    0.016050
  16 S :    0.075761
  17 C :   -0.025743
  18 C :   -0.074798
  19 C :   -0.050889
  20 C :   -0.100312
  21 H :    0.047166
  22 C :   -0.029861
  23 H :    0.053150
  24 H :    0.050210
  25 C :   -0.118132
  26 H :    0.038741
  27 H :    0.042066
  28 C :   -0.039635
  29 H :    0.042148
  30 H :    0.045881
  31 H :    0.028206
  32 H :    0.031832
  33 H :    0.015046
Sum of atomic charges:   -0.0000000

LOEWDIN ATOMIC CHARGES
----------------------
   0 S :    0.424332
   1 C :   -0.197944
   2 C :   -0.058641
   3 C :   -0.070677
   4 C :   -0.182600
   5 H :    0.027392
   6 C :   -0.042298
   7 H :    0.034998
   8 H :    0.037424
   9 C :   -0.044610
  10 H :    0.032803
  11 H :    0.023770
  12 C :   -0.069021
  13 H :    0.029636
  14 H :    0.027767
  15 H :    0.022451
  16 S :    0.388609
  17 C :   -0.175752
  18 C :   -0.082493
  19 C :   -0.062598
  20 C :   -0.170363
  21 H :    0.044226
  22 C :   -0.055829
  23 H :    0.023471
  24 H :    0.039465
  25 C :   -0.050345
  26 H :    0.031743
  27 H :    0.023421
  28 C :   -0.074954
  29 H :    0.025993
  30 H :    0.034243
  31 H :    0.034461
  32 H :    0.021485
  33 H :    0.010437

  Mayer bond orders larger than 0.100000
B(  0-S ,  1-C ) :   1.1295 B(  0-S ,  4-C ) :   1.1502 B(  1-C ,  2-C ) :   1.6069
B(  1-C , 32-H ) :   0.9722 B(  2-C ,  3-C ) :   1.2399 B(  2-C ,  6-C ) :   1.0180
B(  3-C ,  4-C ) :   1.5465 B(  3-C ,  5-H ) :   0.9934 B(  4-C , 20-C ) :   1.0842
B(  6-C ,  7-H ) :   0.9358 B(  6-C ,  8-H ) :   0.9455 B(  6-C ,  9-C ) :   1.0754
B(  9-C , 10-H ) :   0.9543 B(  9-C , 11-H ) :   0.9554 B(  9-C , 12-C ) :   1.0818
B( 12-C , 13-H ) :   0.9719 B( 12-C , 14-H ) :   0.9748 B( 12-C , 15-H ) :   0.9695
B( 16-S , 17-C ) :   1.1561 B( 16-S , 20-C ) :   1.1024 B( 17-C , 18-C ) :   1.6316
B( 17-C , 33-H ) :   0.9717 B( 18-C , 19-C ) :   1.2117 B( 18-C , 21-H ) :   0.9757
B( 19-C , 20-C ) :   1.6279 B( 19-C , 22-C ) :   1.0240 B( 22-C , 23-H ) :   0.9399
B( 22-C , 24-H ) :   0.9366 B( 22-C , 25-C ) :   1.0585 B( 25-C , 26-H ) :   0.9465
B( 25-C , 27-H ) :   0.9601 B( 25-C , 28-C ) :   1.0721 B( 28-C , 29-H ) :   0.9764
B( 28-C , 30-H ) :   0.9728 B( 28-C , 31-H ) :   0.9675

Dispersion correction           -0.013734941
FINAL SINGLE POINT ENERGY     -1339.867355606091

DIPOLE MOMENT
-------------
                                X             Y             Z
Electronic contribution:      3.20089       6.24891      -4.23530
Nuclear contribution   :     -3.26306      -6.30532       4.36943
                        -----------------------------------------
Total Dipole Moment    :     -0.06217      -0.05641       0.13413
                        -----------------------------------------
Magnitude (a.u.)       :      0.15823
Magnitude (Debye)      :      0.40220

Rotational constants in cm-1:     0.022671     0.007749     0.006035
Rotational constants in MHz :   679.660011   232.298012   180.921959

                             ****ORCA TERMINATED NORMALLY****
TOTAL RUN TIME: 0 days 0 hours 0 minutes 21 seconds 883 msec
