                         Program Version 4.2.1 -  RELEASE  -
|  1> ! wB97X-D3 SP def2-SVP
|  2> %pal
|  3> nprocs 24
|  4> end
|  5>
|  6> * xyz 0 1
|  7> S 	 -96.0316 	 15.0378 	 -116.033
|  8> C 	 -96.2186 	 15.005 	 -114.31
|  9> C 	 -97.5457 	 14.7303 	 -113.945
| 10> C 	 -98.3691 	 14.4532 	 -115.075
| 11> C 	 -97.7247 	 14.7987 	 -116.285
| 12> H 	 -99.4037 	 14.2295 	 -115.094
| 13> C 	 -98.0502 	 14.6403 	 -112.514
| 14> H 	 -98.7746 	 15.4485 	 -112.291
| 15> H 	 -97.2145 	 14.8492 	 -111.762
| 16> C 	 -98.4833 	 13.2339 	 -112.029
| 17> H 	 -99.014 	 13.3472 	 -111.09
| 18> H 	 -99.1415 	 12.9575 	 -112.809
| 19> C 	 -97.307 	 12.3512 	 -111.791
| 20> H 	 -96.7144 	 12.5922 	 -110.937
| 21> H 	 -97.5161 	 11.3986 	 -111.569
| 22> H 	 -96.589 	 12.2979 	 -112.632
| 23> S 	 -98.3407 	 16.4315 	 -118.478
| 24> C 	 -99.4237 	 15.8659 	 -119.748
| 25> C 	 -99.8239 	 14.6022 	 -119.483
| 26> C 	 -99.3152 	 14.0389 	 -118.284
| 27> C 	 -98.4437 	 14.9107 	 -117.591
| 28> H 	 -100.491 	 14.2369 	 -120.211
| 29> C 	 -99.7057 	 12.6681 	 -117.744
| 30> H 	 -100.509 	 12.7907 	 -117.026
| 31> H 	 -98.8688 	 12.2427 	 -117.185
| 32> C 	 -100.157 	 11.6377 	 -118.783
| 33> H 	 -99.6022 	 11.5775 	 -119.735
| 34> H 	 -101.213 	 11.7194 	 -119.108
| 35> C 	 -100.047 	 10.3296 	 -118.139
| 36> H 	 -98.9705 	 10.0711 	 -118.078
| 37> H 	 -100.611 	 9.46359 	 -118.579
| 38> H 	 -100.326 	 10.3023 	 -117.085
| 39> H 	 -95.4444 	 15.3468 	 -113.669
| 40> H 	 -99.842 	 16.4236 	 -120.558
| 41> *
| 42>
| 43>                          ****END OF INPUT****

CARTESIAN COORDINATES (ANGSTROEM)
---------------------------------
  S    -96.031600   15.037800  -116.033000
  C    -96.218600   15.005000  -114.310000
  C    -97.545700   14.730300  -113.945000
  C    -98.369100   14.453200  -115.075000
  C    -97.724700   14.798700  -116.285000
  H    -99.403700   14.229500  -115.094000
  C    -98.050200   14.640300  -112.514000
  H    -98.774600   15.448500  -112.291000
  H    -97.214500   14.849200  -111.762000
  C    -98.483300   13.233900  -112.029000
  H    -99.014000   13.347200  -111.090000
  H    -99.141500   12.957500  -112.809000
  C    -97.307000   12.351200  -111.791000
  H    -96.714400   12.592200  -110.937000
  H    -97.516100   11.398600  -111.569000
  H    -96.589000   12.297900  -112.632000
  S    -98.340700   16.431500  -118.478000
  C    -99.423700   15.865900  -119.748000
  C    -99.823900   14.602200  -119.483000
  C    -99.315200   14.038900  -118.284000
  C    -98.443700   14.910700  -117.591000
  H    -100.491000   14.236900  -120.211000
  C    -99.705700   12.668100  -117.744000
  H    -100.509000   12.790700  -117.026000
  H    -98.868800   12.242700  -117.185000
  C    -100.157000   11.637700  -118.783000
  H    -99.602200   11.577500  -119.735000
  H    -101.213000   11.719400  -119.108000
  C    -100.047000   10.329600  -118.139000
  H    -98.970500   10.071100  -118.078000
  H    -100.611000    9.463590  -118.579000
  H    -100.326000   10.302300  -117.085000
  H    -95.444400   15.346800  -113.669000
  H    -99.842000   16.423600  -120.558000

 Total Charge           Charge          ....    0
 Multiplicity           Mult            ....    1
 Number of Electrons    NEL             ....  134
 Basis Dimension        Dim             ....  322

ORBITAL ENERGIES
----------------

  NO   OCC          E(Eh)            E(eV)
   0   2.0000     -88.970398     -2421.0076
   1   2.0000     -88.963065     -2420.8081
   2   2.0000     -10.335483      -281.2428
   3   2.0000     -10.332067      -281.1498
   4   2.0000     -10.313830      -280.6536
   5   2.0000     -10.312575      -280.6194
   6   2.0000     -10.306790      -280.4620
   7   2.0000     -10.306448      -280.4527
   8   2.0000     -10.296258      -280.1754
   9   2.0000     -10.296168      -280.1730
  10   2.0000     -10.293457      -280.0992
  11   2.0000     -10.286615      -279.9130
  12   2.0000     -10.284344      -279.8512
  13   2.0000     -10.283130      -279.8182
  14   2.0000     -10.275029      -279.5978
  15   2.0000     -10.263195      -279.2757
  16   2.0000      -8.085536      -220.0186
  17   2.0000      -8.077385      -219.7968
  18   2.0000      -6.043881      -164.4624
  19   2.0000      -6.039920      -164.3546
  20   2.0000      -6.036512      -164.2618
  21   2.0000      -6.035892      -164.2450
  22   2.0000      -6.031876      -164.1357
  23   2.0000      -6.028229      -164.0364
  24   2.0000      -1.004555       -27.3353
  25   2.0000      -0.985040       -26.8043
  26   2.0000      -0.918030       -24.9809
  27   2.0000      -0.914847       -24.8943
  28   2.0000      -0.869401       -23.6576
  29   2.0000      -0.854445       -23.2506
  30   2.0000      -0.848319       -23.0839
  31   2.0000      -0.817574       -22.2473
  32   2.0000      -0.784297       -21.3418
  33   2.0000      -0.767517       -20.8852
  34   2.0000      -0.709444       -19.3049
  35   2.0000      -0.701822       -19.0975
  36   2.0000      -0.695679       -18.9304
  37   2.0000      -0.652145       -17.7458
  38   2.0000      -0.644078       -17.5262
  39   2.0000      -0.624447       -16.9921
  40   2.0000      -0.598863       -16.2959
  41   2.0000      -0.576027       -15.6745
  42   2.0000      -0.572857       -15.5882
  43   2.0000      -0.557548       -15.1716
  44   2.0000      -0.545631       -14.8474
  45   2.0000      -0.530589       -14.4381
  46   2.0000      -0.513530       -13.9739
  47   2.0000      -0.511532       -13.9195
  48   2.0000      -0.501832       -13.6555
  49   2.0000      -0.494256       -13.4494
  50   2.0000      -0.492506       -13.4018
  51   2.0000      -0.479462       -13.0468
  52   2.0000      -0.471719       -12.8361
  53   2.0000      -0.469417       -12.7735
  54   2.0000      -0.458294       -12.4708
  55   2.0000      -0.450064       -12.2469
  56   2.0000      -0.446916       -12.1612
  57   2.0000      -0.442678       -12.0459
  58   2.0000      -0.435892       -11.8612
  59   2.0000      -0.422640       -11.5006
  60   2.0000      -0.413785       -11.2596
  61   2.0000      -0.412231       -11.2174
  62   2.0000      -0.407517       -11.0891
  63   2.0000      -0.346106        -9.4180
  64   2.0000      -0.333020        -9.0619
  65   2.0000      -0.327499        -8.9117
  66   2.0000      -0.293407        -7.9840
  67   0.0000       0.028114         0.7650
  68   0.0000       0.069139         1.8814
  69   0.0000       0.115240         3.1358
  70   0.0000       0.127835         3.4786
  71   0.0000       0.132074         3.5939

MULLIKEN ATOMIC CHARGES
-----------------------
   0 S :    0.130323
   1 C :   -0.111564
   2 C :   -0.066529
   3 C :    0.033659
   4 C :   -0.163517
   5 H :    0.007664
   6 C :   -0.004933
   7 H :    0.046664
   8 H :    0.015710
   9 C :   -0.023494
  10 H :    0.030149
  11 H :    0.017153
  12 C :   -0.001829
  13 H :    0.010362
  14 H :   -0.004178
  15 H :    0.033653
  16 S :    0.098113
  17 C :   -0.082552
  18 C :   -0.033980
  19 C :   -0.012777
  20 C :   -0.162490
  21 H :    0.002092
  22 C :    0.047033
  23 H :    0.043105
  24 H :    0.035978
  25 C :   -0.052340
  26 H :    0.038629
  27 H :    0.027051
  28 C :   -0.078957
  29 H :    0.031119
  30 H :    0.036566
  31 H :    0.019056
  32 H :    0.046882
  33 H :    0.048177
Sum of atomic charges:   -0.0000000

LOEWDIN ATOMIC CHARGES
----------------------
   0 S :    0.431835
   1 C :   -0.201552
   2 C :   -0.059816
   3 C :   -0.057914
   4 C :   -0.201715
   5 H :    0.025346
   6 C :   -0.039844
   7 H :    0.033341
   8 H :    0.031275
   9 C :   -0.031868
  10 H :    0.028415
  11 H :    0.016066
  12 C :   -0.061395
  13 H :    0.025319
  14 H :    0.010393
  15 H :    0.032109
  16 S :    0.395215
  17 C :   -0.177212
  18 C :   -0.073432
  19 C :   -0.055866
  20 C :   -0.197064
  21 H :    0.027958
  22 C :   -0.028010
  23 H :    0.035138
  24 H :    0.034450
  25 C :   -0.051849
  26 H :    0.029482
  27 H :    0.025641
  28 C :   -0.073121
  29 H :    0.027013
  30 H :    0.027846
  31 H :    0.021097
  32 H :    0.022719
  33 H :    0.029999

  Mayer bond orders larger than 0.100000
B(  0-S ,  1-C ) :   1.1505 B(  0-S ,  4-C ) :   1.1834 B(  1-C ,  2-C ) :   1.5765
B(  1-C , 32-H ) :   0.9713 B(  2-C ,  3-C ) :   1.2596 B(  2-C ,  6-C ) :   1.0306
B(  3-C ,  4-C ) :   1.5331 B(  3-C ,  5-H ) :   0.9940 B(  4-C , 20-C ) :   1.0336
B(  6-C ,  7-H ) :   0.9423 B(  6-C ,  8-H ) :   0.9473 B(  6-C ,  9-C ) :   1.0552
B(  9-C , 10-H ) :   0.9508 B(  9-C , 11-H ) :   0.9603 B(  9-C , 12-C ) :   1.0873
B( 12-C , 13-H ) :   0.9633 B( 12-C , 14-H ) :   0.9653 B( 12-C , 15-H ) :   0.9734
B( 16-S , 17-C ) :   1.1487 B( 16-S , 20-C ) :   1.1480 B( 17-C , 18-C ) :   1.6261
B( 17-C , 33-H ) :   0.9645 B( 18-C , 19-C ) :   1.2316 B( 18-C , 21-H ) :   1.0007
B( 19-C , 20-C ) :   1.5784 B( 19-C , 22-C ) :   1.0298 B( 22-C , 23-H ) :   0.9194
B( 22-C , 24-H ) :   0.9449 B( 22-C , 25-C ) :   1.0649 B( 25-C , 26-H ) :   0.9603
B( 25-C , 27-H ) :   0.9429 B( 25-C , 28-C ) :   1.0881 B( 28-C , 29-H ) :   0.9731
B( 28-C , 30-H ) :   0.9703 B( 28-C , 31-H ) :   0.9667

Dispersion correction           -0.013882370
FINAL SINGLE POINT ENERGY     -1339.864983166438

DIPOLE MOMENT
-------------
                                X             Y             Z
Electronic contribution:     10.26382      23.02451     -14.04705
Nuclear contribution   :    -10.74111     -23.39039      14.34210
                        -----------------------------------------
Total Dipole Moment    :     -0.47729      -0.36588       0.29505
                        -----------------------------------------
Magnitude (a.u.)       :      0.66987
Magnitude (Debye)      :      1.70268

Rotational constants in cm-1:     0.017427     0.008766     0.006531
Rotational constants in MHz :   522.443054   262.790186   195.806866

                             ****ORCA TERMINATED NORMALLY****
TOTAL RUN TIME: 0 days 0 hours 0 minutes 21 seconds 380 msec
