                         Program Version 4.2.1 -  RELEASE  -
|  1> ! wB97X-D3 SP def2-SVP
|  2> %pal
|  3> nprocs 24
|  4> end
|  5>
|  6> * xyz 0 1
|  7> S 	 -55.7794 	 4.57256 	 -31.2959
|  8> C 	 -56.9973 	 3.35911 	 -31.1705
|  9> C 	 -57.8901 	 3.56421 	 -30.1224
| 10> C 	 -57.4663 	 4.66929 	 -29.2903
| 11> C 	 -56.3238 	 5.27149 	 -29.7811
| 12> H 	 -57.8297 	 5.11197 	 -28.4146
| 13> C 	 -58.957 	 2.55296 	 -29.8499
| 14> H 	 -59.2437 	 2.06081 	 -30.8005
| 15> H 	 -59.8796 	 3.05996 	 -29.4628
| 16> C 	 -58.4069 	 1.4897 	 -28.8121
| 17> H 	 -57.3797 	 1.14109 	 -28.9966
| 18> H 	 -58.3901 	 2.13815 	 -27.9591
| 19> C 	 -59.1804 	 0.220159 	 -28.5473
| 20> H 	 -60.2221 	 0.326123 	 -28.3231
| 21> H 	 -59.1455 	 -0.335208 	 -29.4706
| 22> H 	 -58.7157 	 -0.382335 	 -27.7709
| 23> S 	 -54.8456 	 6.41604 	 -27.6873
| 24> C 	 -54.4627 	 8.12286 	 -27.7526
| 25> C 	 -54.9661 	 8.67083 	 -28.9225
| 26> C 	 -55.7978 	 7.79555 	 -29.6999
| 27> C 	 -55.7623 	 6.53473 	 -29.206
| 28> H 	 -54.6356 	 9.67254 	 -29.1296
| 29> C 	 -56.3498 	 8.14909 	 -31.0563
| 30> H 	 -56.8709 	 9.07893 	 -30.9204
| 31> H 	 -57.0103 	 7.43755 	 -31.3433
| 32> C 	 -55.2912 	 8.15314 	 -32.2005
| 33> H 	 -54.7488 	 7.17828 	 -32.2133
| 34> H 	 -54.6041 	 8.97509 	 -32.0742
| 35> C 	 -55.9546 	 8.40024 	 -33.5707
| 36> H 	 -56.6454 	 7.5358 	 -33.7122
| 37> H 	 -55.2289 	 8.17517 	 -34.3739
| 38> H 	 -56.443 	 9.38538 	 -33.5456
| 39> H 	 -57.1206 	 2.52915 	 -31.8719
| 40> H 	 -53.7329 	 8.56443 	 -27.13
| 41> *
| 42>
| 43>                          ****END OF INPUT****

CARTESIAN COORDINATES (ANGSTROEM)
---------------------------------
  S    -55.779400    4.572560  -31.295900
  C    -56.997300    3.359110  -31.170500
  C    -57.890100    3.564210  -30.122400
  C    -57.466300    4.669290  -29.290300
  C    -56.323800    5.271490  -29.781100
  H    -57.829700    5.111970  -28.414600
  C    -58.957000    2.552960  -29.849900
  H    -59.243700    2.060810  -30.800500
  H    -59.879600    3.059960  -29.462800
  C    -58.406900    1.489700  -28.812100
  H    -57.379700    1.141090  -28.996600
  H    -58.390100    2.138150  -27.959100
  C    -59.180400    0.220159  -28.547300
  H    -60.222100    0.326123  -28.323100
  H    -59.145500   -0.335208  -29.470600
  H    -58.715700   -0.382335  -27.770900
  S    -54.845600    6.416040  -27.687300
  C    -54.462700    8.122860  -27.752600
  C    -54.966100    8.670830  -28.922500
  C    -55.797800    7.795550  -29.699900
  C    -55.762300    6.534730  -29.206000
  H    -54.635600    9.672540  -29.129600
  C    -56.349800    8.149090  -31.056300
  H    -56.870900    9.078930  -30.920400
  H    -57.010300    7.437550  -31.343300
  C    -55.291200    8.153140  -32.200500
  H    -54.748800    7.178280  -32.213300
  H    -54.604100    8.975090  -32.074200
  C    -55.954600    8.400240  -33.570700
  H    -56.645400    7.535800  -33.712200
  H    -55.228900    8.175170  -34.373900
  H    -56.443000    9.385380  -33.545600
  H    -57.120600    2.529150  -31.871900
  H    -53.732900    8.564430  -27.130000

 Total Charge           Charge          ....    0
 Multiplicity           Mult            ....    1
 Number of Electrons    NEL             ....  134
 Basis Dimension        Dim             ....  322

ORBITAL ENERGIES
----------------

  NO   OCC          E(Eh)            E(eV)
   0   2.0000     -88.971188     -2421.0291
   1   2.0000     -88.961050     -2420.7532
   2   2.0000     -10.328726      -281.0589
   3   2.0000     -10.323823      -280.9255
   4   2.0000     -10.314318      -280.6669
   5   2.0000     -10.313368      -280.6410
   6   2.0000     -10.305010      -280.4136
   7   2.0000     -10.299958      -280.2761
   8   2.0000     -10.298306      -280.2312
   9   2.0000     -10.294844      -280.1369
  10   2.0000     -10.292753      -280.0801
  11   2.0000     -10.285818      -279.8913
  12   2.0000     -10.285115      -279.8722
  13   2.0000     -10.280877      -279.7569
  14   2.0000     -10.279910      -279.7306
  15   2.0000     -10.272886      -279.5394
  16   2.0000      -8.085593      -220.0202
  17   2.0000      -8.075614      -219.7486
  18   2.0000      -6.043995      -164.4655
  19   2.0000      -6.040121      -164.3600
  20   2.0000      -6.036548      -164.2628
  21   2.0000      -6.034100      -164.1962
  22   2.0000      -6.030206      -164.0902
  23   2.0000      -6.026352      -163.9854
  24   2.0000      -1.005250       -27.3542
  25   2.0000      -0.984214       -26.7818
  26   2.0000      -0.910182       -24.7673
  27   2.0000      -0.907155       -24.6850
  28   2.0000      -0.866661       -23.5830
  29   2.0000      -0.853636       -23.2286
  30   2.0000      -0.848394       -23.0860
  31   2.0000      -0.816519       -22.2186
  32   2.0000      -0.781226       -21.2582
  33   2.0000      -0.769690       -20.9443
  34   2.0000      -0.702077       -19.1045
  35   2.0000      -0.693095       -18.8601
  36   2.0000      -0.691125       -18.8065
  37   2.0000      -0.663284       -18.0489
  38   2.0000      -0.648041       -17.6341
  39   2.0000      -0.613307       -16.6889
  40   2.0000      -0.595859       -16.2141
  41   2.0000      -0.574636       -15.6366
  42   2.0000      -0.571628       -15.5548
  43   2.0000      -0.556045       -15.1307
  44   2.0000      -0.527187       -14.3455
  45   2.0000      -0.526376       -14.3234
  46   2.0000      -0.517827       -14.0908
  47   2.0000      -0.512259       -13.9393
  48   2.0000      -0.506992       -13.7959
  49   2.0000      -0.497786       -13.5455
  50   2.0000      -0.492303       -13.3963
  51   2.0000      -0.472775       -12.8649
  52   2.0000      -0.470178       -12.7942
  53   2.0000      -0.464430       -12.6378
  54   2.0000      -0.459579       -12.5058
  55   2.0000      -0.447612       -12.1802
  56   2.0000      -0.442800       -12.0492
  57   2.0000      -0.439028       -11.9466
  58   2.0000      -0.435114       -11.8401
  59   2.0000      -0.427602       -11.6356
  60   2.0000      -0.417812       -11.3692
  61   2.0000      -0.417065       -11.3489
  62   2.0000      -0.410585       -11.1726
  63   2.0000      -0.340985        -9.2787
  64   2.0000      -0.328688        -8.9440
  65   2.0000      -0.324830        -8.8391
  66   2.0000      -0.304232        -8.2786
  67   0.0000       0.044018         1.1978
  68   0.0000       0.058208         1.5839
  69   0.0000       0.108704         2.9580
  70   0.0000       0.118240         3.2175
  71   0.0000       0.129430         3.5220

MULLIKEN ATOMIC CHARGES
-----------------------
   0 S :    0.118325
   1 C :   -0.115281
   2 C :   -0.072534
   3 C :    0.069016
   4 C :   -0.177978
   5 H :   -0.006101
   6 C :    0.046151
   7 H :    0.019128
   8 H :    0.039228
   9 C :   -0.087080
  10 H :    0.036140
  11 H :    0.018998
  12 C :   -0.008119
  13 H :    0.021455
  14 H :    0.019958
  15 H :    0.037761
  16 S :    0.094872
  17 C :   -0.086317
  18 C :   -0.042199
  19 C :   -0.013203
  20 C :   -0.198488
  21 H :    0.014180
  22 C :    0.131791
  23 H :    0.020207
  24 H :   -0.008430
  25 C :   -0.094235
  26 H :    0.034432
  27 H :    0.024445
  28 C :   -0.052388
  29 H :    0.027509
  30 H :    0.039545
  31 H :    0.048710
  32 H :    0.050936
  33 H :    0.049567
Sum of atomic charges:    0.0000000

LOEWDIN ATOMIC CHARGES
----------------------
   0 S :    0.419414
   1 C :   -0.203103
   2 C :   -0.060488
   3 C :   -0.049033
   4 C :   -0.193454
   5 H :    0.025895
   6 C :   -0.033118
   7 H :    0.025357
   8 H :    0.035832
   9 C :   -0.040349
  10 H :    0.029620
  11 H :    0.019215
  12 C :   -0.064480
  13 H :    0.019564
  14 H :    0.023468
  15 H :    0.030587
  16 S :    0.385674
  17 C :   -0.179375
  18 C :   -0.065370
  19 C :   -0.057424
  20 C :   -0.188687
  21 H :    0.028129
  22 C :   -0.021053
  23 H :    0.030549
  24 H :    0.012454
  25 C :   -0.035775
  26 H :    0.021052
  27 H :    0.016701
  28 C :   -0.070647
  29 H :    0.026670
  30 H :    0.030831
  31 H :    0.029447
  32 H :    0.029843
  33 H :    0.022055

  Mayer bond orders larger than 0.100000
B(  0-S ,  1-C ) :   1.1454 B(  0-S ,  4-C ) :   1.1493 B(  1-C ,  2-C ) :   1.6147
B(  1-C , 32-H ) :   0.9629 B(  2-C ,  3-C ) :   1.2002 B(  2-C ,  6-C ) :   1.0491
B(  3-C ,  4-C ) :   1.6050 B(  3-C ,  5-H ) :   1.0020 B(  4-C , 20-C ) :   0.9886
B(  6-C ,  7-H ) :   0.9406 B(  6-C ,  8-H ) :   0.9398 B(  6-C ,  9-C ) :   1.0332
B(  9-C , 10-H ) :   0.9622 B(  9-C , 11-H ) :   0.9585 B(  9-C , 12-C ) :   1.0862
B( 12-C , 13-H ) :   0.9727 B( 12-C , 14-H ) :   0.9726 B( 12-C , 15-H ) :   0.9721
B( 16-S , 17-C ) :   1.1434 B( 16-S , 20-C ) :   1.1394 B( 17-C , 18-C ) :   1.6383
B( 17-C , 33-H ) :   0.9716 B( 18-C , 19-C ) :   1.1909 B( 18-C , 21-H ) :   0.9926
B( 19-C , 20-C ) :   1.6351 B( 19-C , 22-C ) :   1.0664 B( 22-C , 23-H ) :   0.9229
B( 22-C , 24-H ) :   0.9200 B( 22-C , 25-C ) :   1.0620 B( 25-C , 26-H ) :   0.9508
B( 25-C , 27-H ) :   0.9570 B( 25-C , 28-C ) :   1.0845 B( 28-C , 29-H ) :   0.9736
B( 28-C , 30-H ) :   0.9719 B( 28-C , 31-H ) :   0.9741

Dispersion correction           -0.014580002
FINAL SINGLE POINT ENERGY     -1339.877274779563

DIPOLE MOMENT
-------------
                                X             Y             Z
Electronic contribution:     12.13828       6.30882       8.57779
Nuclear contribution   :    -12.36191      -6.33264      -8.77389
                        -----------------------------------------
Total Dipole Moment    :     -0.22363      -0.02383      -0.19609
                        -----------------------------------------
Magnitude (a.u.)       :      0.29838
Magnitude (Debye)      :      0.75842

Rotational constants in cm-1:     0.021068     0.007997     0.006300
Rotational constants in MHz :   631.605825   239.734463   188.879776

                             ****ORCA TERMINATED NORMALLY****
TOTAL RUN TIME: 0 days 0 hours 0 minutes 21 seconds 409 msec
