                         Program Version 4.2.1 -  RELEASE  -
|  1> ! wB97X-D3 SP def2-SVP
|  2> %pal
|  3> nprocs 24
|  4> end
|  5>
|  6> * xyz 0 1
|  7> S 	 -84.3869 	 -39.3241 	 -73.4927
|  8> C 	 -85.74 	 -39.2238 	 -74.562
|  9> C 	 -85.703 	 -40.2174 	 -75.5445
| 10> C 	 -84.6687 	 -41.1359 	 -75.2685
| 11> C 	 -83.8401 	 -40.8462 	 -74.1853
| 12> H 	 -84.4507 	 -42.0067 	 -75.8453
| 13> C 	 -86.6809 	 -40.3861 	 -76.6722
| 14> H 	 -86.0219 	 -40.6071 	 -77.4647
| 15> H 	 -87.071 	 -39.3927 	 -76.8281
| 16> C 	 -87.7596 	 -41.3867 	 -76.5131
| 17> H 	 -88.4298 	 -41.5334 	 -77.3422
| 18> H 	 -87.305 	 -42.367 	 -76.4318
| 19> C 	 -88.6531 	 -41.1014 	 -75.2965
| 20> H 	 -89.3736 	 -40.3122 	 -75.5486
| 21> H 	 -89.1153 	 -41.9956 	 -74.8253
| 22> H 	 -88.0301 	 -40.8002 	 -74.3929
| 23> S 	 -81.5139 	 -40.9594 	 -72.7224
| 24> C 	 -80.7247 	 -42.4848 	 -72.3818
| 25> C 	 -81.5025 	 -43.4703 	 -72.8977
| 26> C 	 -82.6423 	 -43.0783 	 -73.6577
| 27> C 	 -82.8534 	 -41.738 	 -73.5759
| 28> H 	 -80.9782 	 -44.4076 	 -72.8201
| 29> C 	 -83.5452 	 -44.1317 	 -74.3429
| 30> H 	 -84.5492 	 -43.7545 	 -74.5941
| 31> H 	 -83.7744 	 -44.729 	 -73.4532
| 32> C 	 -82.9188 	 -44.9906 	 -75.479
| 33> H 	 -83.5343 	 -45.8294 	 -75.6198
| 34> H 	 -81.9557 	 -45.4303 	 -75.1386
| 35> C 	 -82.7322 	 -44.2044 	 -76.8251
| 36> H 	 -82.2573 	 -44.8018 	 -77.5669
| 37> H 	 -82.0586 	 -43.3621 	 -76.6979
| 38> H 	 -83.6604 	 -43.9467 	 -77.2529
| 39> H 	 -86.5107 	 -38.5602 	 -74.5341
| 40> H 	 -79.8888 	 -42.6902 	 -71.8046
| 41> *
| 42>
| 43>                          ****END OF INPUT****

CARTESIAN COORDINATES (ANGSTROEM)
---------------------------------
  S    -84.386900  -39.324100  -73.492700
  C    -85.740000  -39.223800  -74.562000
  C    -85.703000  -40.217400  -75.544500
  C    -84.668700  -41.135900  -75.268500
  C    -83.840100  -40.846200  -74.185300
  H    -84.450700  -42.006700  -75.845300
  C    -86.680900  -40.386100  -76.672200
  H    -86.021900  -40.607100  -77.464700
  H    -87.071000  -39.392700  -76.828100
  C    -87.759600  -41.386700  -76.513100
  H    -88.429800  -41.533400  -77.342200
  H    -87.305000  -42.367000  -76.431800
  C    -88.653100  -41.101400  -75.296500
  H    -89.373600  -40.312200  -75.548600
  H    -89.115300  -41.995600  -74.825300
  H    -88.030100  -40.800200  -74.392900
  S    -81.513900  -40.959400  -72.722400
  C    -80.724700  -42.484800  -72.381800
  C    -81.502500  -43.470300  -72.897700
  C    -82.642300  -43.078300  -73.657700
  C    -82.853400  -41.738000  -73.575900
  H    -80.978200  -44.407600  -72.820100
  C    -83.545200  -44.131700  -74.342900
  H    -84.549200  -43.754500  -74.594100
  H    -83.774400  -44.729000  -73.453200
  C    -82.918800  -44.990600  -75.479000
  H    -83.534300  -45.829400  -75.619800
  H    -81.955700  -45.430300  -75.138600
  C    -82.732200  -44.204400  -76.825100
  H    -82.257300  -44.801800  -77.566900
  H    -82.058600  -43.362100  -76.697900
  H    -83.660400  -43.946700  -77.252900
  H    -86.510700  -38.560200  -74.534100
  H    -79.888800  -42.690200  -71.804600

 Total Charge           Charge          ....    0
 Multiplicity           Mult            ....    1
 Number of Electrons    NEL             ....  134
 Basis Dimension        Dim             ....  322

ORBITAL ENERGIES
----------------

  NO   OCC          E(Eh)            E(eV)
   0   2.0000     -88.968528     -2420.9567
   1   2.0000     -88.959929     -2420.7227
   2   2.0000     -10.331043      -281.1220
   3   2.0000     -10.329085      -281.0687
   4   2.0000     -10.310894      -280.5737
   5   2.0000     -10.308178      -280.4998
   6   2.0000     -10.305045      -280.4145
   7   2.0000     -10.297911      -280.2204
   8   2.0000     -10.297870      -280.2193
   9   2.0000     -10.293339      -280.0960
  10   2.0000     -10.289054      -279.9794
  11   2.0000     -10.288628      -279.9678
  12   2.0000     -10.285277      -279.8766
  13   2.0000     -10.283771      -279.8356
  14   2.0000     -10.281345      -279.7696
  15   2.0000     -10.275744      -279.6172
  16   2.0000      -8.083088      -219.9520
  17   2.0000      -8.074785      -219.7261
  18   2.0000      -6.041594      -164.4001
  19   2.0000      -6.037501      -164.2888
  20   2.0000      -6.033985      -164.1931
  21   2.0000      -6.033446      -164.1784
  22   2.0000      -6.029271      -164.0648
  23   2.0000      -6.025380      -163.9589
  24   2.0000      -1.008704       -27.4482
  25   2.0000      -0.988199       -26.8903
  26   2.0000      -0.921767       -25.0825
  27   2.0000      -0.903565       -24.5873
  28   2.0000      -0.872985       -23.7551
  29   2.0000      -0.851465       -23.1695
  30   2.0000      -0.843841       -22.9621
  31   2.0000      -0.818454       -22.2713
  32   2.0000      -0.785846       -21.3840
  33   2.0000      -0.781128       -21.2556
  34   2.0000      -0.717575       -19.5262
  35   2.0000      -0.704812       -19.1789
  36   2.0000      -0.702347       -19.1118
  37   2.0000      -0.659760       -17.9530
  38   2.0000      -0.641968       -17.4688
  39   2.0000      -0.625686       -17.0258
  40   2.0000      -0.596310       -16.2264
  41   2.0000      -0.571849       -15.5608
  42   2.0000      -0.560474       -15.2513
  43   2.0000      -0.552805       -15.0426
  44   2.0000      -0.550491       -14.9796
  45   2.0000      -0.540208       -14.6998
  46   2.0000      -0.523783       -14.2529
  47   2.0000      -0.514152       -13.9908
  48   2.0000      -0.510697       -13.8968
  49   2.0000      -0.497767       -13.5449
  50   2.0000      -0.484929       -13.1956
  51   2.0000      -0.478153       -13.0112
  52   2.0000      -0.475552       -12.9404
  53   2.0000      -0.471119       -12.8198
  54   2.0000      -0.459709       -12.5093
  55   2.0000      -0.445010       -12.1093
  56   2.0000      -0.441410       -12.0114
  57   2.0000      -0.437564       -11.9067
  58   2.0000      -0.433204       -11.7881
  59   2.0000      -0.425837       -11.5876
  60   2.0000      -0.422996       -11.5103
  61   2.0000      -0.416879       -11.3438
  62   2.0000      -0.407333       -11.0841
  63   2.0000      -0.360718        -9.8156
  64   2.0000      -0.334171        -9.0933
  65   2.0000      -0.327693        -8.9170
  66   2.0000      -0.285115        -7.7584
  67   0.0000       0.023721         0.6455
  68   0.0000       0.079961         2.1759
  69   0.0000       0.108380         2.9492
  70   0.0000       0.123252         3.3539
  71   0.0000       0.129661         3.5282

MULLIKEN ATOMIC CHARGES
-----------------------
   0 S :    0.120299
   1 C :   -0.073034
   2 C :   -0.131859
   3 C :   -0.006736
   4 C :   -0.098464
   5 H :   -0.023569
   6 C :    0.134103
   7 H :    0.019461
   8 H :    0.009243
   9 C :   -0.019756
  10 H :    0.027922
  11 H :    0.011737
  12 C :   -0.107291
  13 H :    0.041741
  14 H :    0.037347
  15 H :    0.043202
  16 S :    0.076099
  17 C :   -0.060364
  18 C :   -0.045873
  19 C :   -0.051522
  20 C :   -0.113294
  21 H :    0.015770
  22 C :    0.024805
  23 H :    0.024875
  24 H :    0.036549
  25 C :   -0.042873
  26 H :    0.019796
  27 H :    0.027799
  28 C :   -0.027822
  29 H :    0.022365
  30 H :    0.044458
  31 H :    0.028901
  32 H :    0.003535
  33 H :    0.032450
Sum of atomic charges:    0.0000000

LOEWDIN ATOMIC CHARGES
----------------------
   0 S :    0.417830
   1 C :   -0.187228
   2 C :   -0.058873
   3 C :   -0.062603
   4 C :   -0.191315
   5 H :    0.021987
   6 C :   -0.026673
   7 H :    0.031301
   8 H :    0.028364
   9 C :   -0.042679
  10 H :    0.025712
  11 H :    0.021799
  12 C :   -0.079008
  13 H :    0.025781
  14 H :    0.030851
  15 H :    0.033440
  16 S :    0.382026
  17 C :   -0.170155
  18 C :   -0.075494
  19 C :   -0.063555
  20 C :   -0.180729
  21 H :    0.030795
  22 C :   -0.035039
  23 H :    0.029280
  24 H :    0.038850
  25 C :   -0.029999
  26 H :    0.018128
  27 H :    0.026526
  28 C :   -0.060405
  29 H :    0.024522
  30 H :    0.030775
  31 H :    0.017149
  32 H :    0.007534
  33 H :    0.021106

  Mayer bond orders larger than 0.100000
B(  0-S ,  1-C ) :   1.1611 B(  0-S ,  4-C ) :   1.1438 B(  1-C ,  2-C ) :   1.5660
B(  1-C ,  4-C ) :   0.1009 B(  1-C , 32-H ) :   0.9751 B(  2-C ,  3-C ) :   1.2712
B(  2-C ,  6-C ) :   1.0125 B(  3-C ,  4-C ) :   1.5544 B(  3-C ,  5-H ) :   0.9939
B(  4-C , 20-C ) :   1.0518 B(  6-C ,  7-H ) :   0.9284 B(  6-C ,  8-H ) :   0.9342
B(  6-C ,  9-C ) :   1.0796 B(  9-C , 10-H ) :   0.9548 B(  9-C , 11-H ) :   0.9505
B(  9-C , 12-C ) :   1.0689 B( 12-C , 13-H ) :   0.9768 B( 12-C , 14-H ) :   0.9728
B( 12-C , 15-H ) :   0.9727 B( 16-S , 17-C ) :   1.1322 B( 16-S , 20-C ) :   1.1214
B( 17-C , 18-C ) :   1.6609 B( 17-C , 33-H ) :   0.9727 B( 18-C , 19-C ) :   1.2067
B( 18-C , 21-H ) :   0.9851 B( 19-C , 20-C ) :   1.6338 B( 19-C , 22-C ) :   1.0077
B( 22-C , 23-H ) :   0.9441 B( 22-C , 24-H ) :   0.9347 B( 22-C , 25-C ) :   1.0711
B( 25-C , 26-H ) :   0.9542 B( 25-C , 27-H ) :   0.9574 B( 25-C , 28-C ) :   1.0773
B( 28-C , 29-H ) :   0.9706 B( 28-C , 30-H ) :   0.9762 B( 28-C , 31-H ) :   0.9676

Dispersion correction           -0.015133785
FINAL SINGLE POINT ENERGY     -1339.868631246575

DIPOLE MOMENT
-------------
                                X             Y             Z
Electronic contribution:     15.88208      16.25812      17.18874
Nuclear contribution   :    -16.15046     -16.95857     -17.62653
                        -----------------------------------------
Total Dipole Moment    :     -0.26838      -0.70045      -0.43779
                        -----------------------------------------
Magnitude (a.u.)       :      0.86851
Magnitude (Debye)      :      2.20758

Rotational constants in cm-1:     0.019029     0.009652     0.007036
Rotational constants in MHz :   570.464224   289.358224   210.935605

                             ****ORCA TERMINATED NORMALLY****
TOTAL RUN TIME: 0 days 0 hours 0 minutes 22 seconds 515 msec
