                         Program Version 4.2.1 -  RELEASE  -
|  1> ! wB97X-D3 SP def2-SVP
|  2> %pal
|  3> nprocs 24
|  4> end
|  5>
|  6> * xyz 0 1
|  7> S 	 -58.2222 	 -54.8894 	 -86.2568
|  8> C 	 -59.4877 	 -53.8954 	 -85.6902
|  9> C 	 -60.5454 	 -54.6002 	 -85.1417
| 10> C 	 -60.2296 	 -55.9866 	 -85.1723
| 11> C 	 -59.01 	 -56.3036 	 -85.6469
| 12> H 	 -60.8511 	 -56.7665 	 -84.7533
| 13> C 	 -61.8139 	 -53.8866 	 -84.698
| 14> H 	 -61.9169 	 -52.8829 	 -85.1431
| 15> H 	 -61.8019 	 -53.7292 	 -83.6141
| 16> C 	 -63.1136 	 -54.6082 	 -84.9372
| 17> H 	 -63.1724 	 -54.6943 	 -85.9749
| 18> H 	 -63.2014 	 -55.6282 	 -84.5198
| 19> C 	 -64.3101 	 -53.6917 	 -84.6014
| 20> H 	 -64.0802 	 -53.3602 	 -83.6246
| 21> H 	 -64.4607 	 -52.7834 	 -85.1467
| 22> H 	 -65.148 	 -54.4146 	 -84.5565
| 23> S 	 -56.7703 	 -57.6555 	 -84.868
| 24> C 	 -56.5525 	 -59.2997 	 -85.455
| 25> C 	 -57.7183 	 -59.769 	 -86.1217
| 26> C 	 -58.7504 	 -58.7802 	 -86.2122
| 27> C 	 -58.3484 	 -57.5857 	 -85.6463
| 28> H 	 -57.7314 	 -60.7848 	 -86.453
| 29> C 	 -60.0424 	 -58.963 	 -86.9624
| 30> H 	 -59.8573 	 -59.354 	 -87.9658
| 31> H 	 -60.5923 	 -58.0165 	 -87.0261
| 32> C 	 -61.0094 	 -59.807 	 -86.0862
| 33> H 	 -61.1767 	 -59.2923 	 -85.2026
| 34> H 	 -60.5502 	 -60.815 	 -85.8796
| 35> C 	 -62.3008 	 -60.1065 	 -86.819
| 36> H 	 -62.7781 	 -59.1598 	 -87.1668
| 37> H 	 -62.9359 	 -60.6714 	 -86.094
| 38> H 	 -62.0905 	 -60.6741 	 -87.7113
| 39> H 	 -59.4526 	 -52.8366 	 -85.8337
| 40> H 	 -55.7819 	 -59.9065 	 -85.0911
| 41> *
| 42>
| 43>                          ****END OF INPUT****

CARTESIAN COORDINATES (ANGSTROEM)
---------------------------------
  S    -58.222200  -54.889400  -86.256800
  C    -59.487700  -53.895400  -85.690200
  C    -60.545400  -54.600200  -85.141700
  C    -60.229600  -55.986600  -85.172300
  C    -59.010000  -56.303600  -85.646900
  H    -60.851100  -56.766500  -84.753300
  C    -61.813900  -53.886600  -84.698000
  H    -61.916900  -52.882900  -85.143100
  H    -61.801900  -53.729200  -83.614100
  C    -63.113600  -54.608200  -84.937200
  H    -63.172400  -54.694300  -85.974900
  H    -63.201400  -55.628200  -84.519800
  C    -64.310100  -53.691700  -84.601400
  H    -64.080200  -53.360200  -83.624600
  H    -64.460700  -52.783400  -85.146700
  H    -65.148000  -54.414600  -84.556500
  S    -56.770300  -57.655500  -84.868000
  C    -56.552500  -59.299700  -85.455000
  C    -57.718300  -59.769000  -86.121700
  C    -58.750400  -58.780200  -86.212200
  C    -58.348400  -57.585700  -85.646300
  H    -57.731400  -60.784800  -86.453000
  C    -60.042400  -58.963000  -86.962400
  H    -59.857300  -59.354000  -87.965800
  H    -60.592300  -58.016500  -87.026100
  C    -61.009400  -59.807000  -86.086200
  H    -61.176700  -59.292300  -85.202600
  H    -60.550200  -60.815000  -85.879600
  C    -62.300800  -60.106500  -86.819000
  H    -62.778100  -59.159800  -87.166800
  H    -62.935900  -60.671400  -86.094000
  H    -62.090500  -60.674100  -87.711300
  H    -59.452600  -52.836600  -85.833700
  H    -55.781900  -59.906500  -85.091100

 Total Charge           Charge          ....    0
 Multiplicity           Mult            ....    1
 Number of Electrons    NEL             ....  134
 Basis Dimension        Dim             ....  322

ORBITAL ENERGIES
----------------

  NO   OCC          E(Eh)            E(eV)
   0   2.0000     -88.965825     -2420.8832
   1   2.0000     -88.962369     -2420.7891
   2   2.0000     -10.322796      -280.8976
   3   2.0000     -10.319481      -280.8073
   4   2.0000     -10.317175      -280.7446
   5   2.0000     -10.306119      -280.4438
   6   2.0000     -10.302620      -280.3485
   7   2.0000     -10.299816      -280.2722
   8   2.0000     -10.298059      -280.2244
   9   2.0000     -10.292882      -280.0836
  10   2.0000     -10.290532      -280.0196
  11   2.0000     -10.289792      -279.9995
  12   2.0000     -10.283520      -279.8288
  13   2.0000     -10.280531      -279.7475
  14   2.0000     -10.280414      -279.7443
  15   2.0000     -10.276059      -279.6258
  16   2.0000      -8.080237      -219.8744
  17   2.0000      -8.078578      -219.8293
  18   2.0000      -6.038644      -164.3199
  19   2.0000      -6.036858      -164.2713
  20   2.0000      -6.034807      -164.2155
  21   2.0000      -6.032905      -164.1637
  22   2.0000      -6.031105      -164.1147
  23   2.0000      -6.029459      -164.0699
  24   2.0000      -1.012672       -27.5562
  25   2.0000      -0.983889       -26.7730
  26   2.0000      -0.918625       -24.9970
  27   2.0000      -0.912756       -24.8374
  28   2.0000      -0.871421       -23.7126
  29   2.0000      -0.855111       -23.2688
  30   2.0000      -0.848574       -23.0909
  31   2.0000      -0.815150       -22.1814
  32   2.0000      -0.782163       -21.2837
  33   2.0000      -0.769289       -20.9334
  34   2.0000      -0.709020       -19.2934
  35   2.0000      -0.695273       -18.9193
  36   2.0000      -0.690982       -18.8026
  37   2.0000      -0.664242       -18.0749
  38   2.0000      -0.649579       -17.6759
  39   2.0000      -0.623698       -16.9717
  40   2.0000      -0.597471       -16.2580
  41   2.0000      -0.577065       -15.7027
  42   2.0000      -0.572916       -15.5898
  43   2.0000      -0.565703       -15.3936
  44   2.0000      -0.531819       -14.4715
  45   2.0000      -0.526856       -14.3365
  46   2.0000      -0.520024       -14.1506
  47   2.0000      -0.509779       -13.8718
  48   2.0000      -0.506188       -13.7741
  49   2.0000      -0.494273       -13.4498
  50   2.0000      -0.491891       -13.3850
  51   2.0000      -0.486613       -13.2414
  52   2.0000      -0.471602       -12.8329
  53   2.0000      -0.465043       -12.6545
  54   2.0000      -0.460551       -12.5322
  55   2.0000      -0.449165       -12.2224
  56   2.0000      -0.447640       -12.1809
  57   2.0000      -0.440554       -11.9881
  58   2.0000      -0.439260       -11.9529
  59   2.0000      -0.423736       -11.5304
  60   2.0000      -0.422043       -11.4844
  61   2.0000      -0.415245       -11.2994
  62   2.0000      -0.409633       -11.1467
  63   2.0000      -0.345183        -9.3929
  64   2.0000      -0.333751        -9.0818
  65   2.0000      -0.326167        -8.8755
  66   2.0000      -0.292342        -7.9550
  67   0.0000       0.035555         0.9675
  68   0.0000       0.068620         1.8673
  69   0.0000       0.116942         3.1821
  70   0.0000       0.123603         3.3634
  71   0.0000       0.126790         3.4501

MULLIKEN ATOMIC CHARGES
-----------------------
   0 S :    0.125829
   1 C :   -0.134430
   2 C :   -0.048389
   3 C :    0.022353
   4 C :   -0.158735
   5 H :   -0.001172
   6 C :    0.061652
   7 H :    0.023971
   8 H :    0.032644
   9 C :   -0.103432
  10 H :    0.015655
  11 H :    0.041566
  12 C :   -0.017117
  13 H :    0.003038
  14 H :    0.037432
  15 H :    0.039027
  16 S :    0.112319
  17 C :   -0.084559
  18 C :   -0.038977
  19 C :   -0.000070
  20 C :   -0.176862
  21 H :    0.014386
  22 C :    0.066938
  23 H :    0.035253
  24 H :    0.023554
  25 C :   -0.100044
  26 H :    0.016998
  27 H :    0.031811
  28 C :   -0.025490
  29 H :    0.027597
  30 H :    0.045651
  31 H :    0.027309
  32 H :    0.038463
  33 H :    0.045830
Sum of atomic charges:   -0.0000000

LOEWDIN ATOMIC CHARGES
----------------------
   0 S :    0.431452
   1 C :   -0.201780
   2 C :   -0.064116
   3 C :   -0.066967
   4 C :   -0.203726
   5 H :    0.027611
   6 C :   -0.033331
   7 H :    0.034481
   8 H :    0.030061
   9 C :   -0.042461
  10 H :    0.015369
  11 H :    0.026916
  12 C :   -0.057852
  13 H :    0.015204
  14 H :    0.024700
  15 H :    0.034537
  16 S :    0.401436
  17 C :   -0.176594
  18 C :   -0.061616
  19 C :   -0.051972
  20 C :   -0.196830
  21 H :    0.027511
  22 C :   -0.028106
  23 H :    0.031279
  24 H :    0.031388
  25 C :   -0.034221
  26 H :    0.011364
  27 H :    0.026176
  28 C :   -0.065992
  29 H :    0.025059
  30 H :    0.032192
  31 H :    0.022343
  32 H :    0.020384
  33 H :    0.016101

  Mayer bond orders larger than 0.100000
B(  0-S ,  1-C ) :   1.1613 B(  0-S ,  4-C ) :   1.1583 B(  1-C ,  2-C ) :   1.5938
B(  1-C , 32-H ) :   0.9730 B(  2-C ,  3-C ) :   1.2531 B(  2-C ,  6-C ) :   1.0169
B(  3-C ,  4-C ) :   1.5778 B(  3-C ,  5-H ) :   0.9977 B(  4-C , 20-C ) :   1.0279
B(  6-C ,  7-H ) :   0.9474 B(  6-C ,  8-H ) :   0.9262 B(  6-C ,  9-C ) :   1.0721
B(  9-C , 10-H ) :   0.9560 B(  9-C , 11-H ) :   0.9514 B(  9-C , 12-C ) :   1.0785
B( 12-C , 13-H ) :   0.9735 B( 12-C , 14-H ) :   0.9747 B( 12-C , 15-H ) :   0.9727
B( 16-S , 17-C ) :   1.1545 B( 16-S , 20-C ) :   1.1506 B( 17-C , 18-C ) :   1.5965
B( 17-C , 20-C ) :   0.1059 B( 17-C , 33-H ) :   0.9737 B( 18-C , 19-C ) :   1.2283
B( 18-C , 21-H ) :   0.9938 B( 19-C , 20-C ) :   1.5920 B( 19-C , 22-C ) :   1.0526
B( 22-C , 23-H ) :   0.9398 B( 22-C , 24-H ) :   0.9242 B( 22-C , 25-C ) :   1.0581
B( 25-C , 26-H ) :   0.9541 B( 25-C , 27-H ) :   0.9582 B( 25-C , 28-C ) :   1.0873
B( 28-C , 29-H ) :   0.9696 B( 28-C , 30-H ) :   0.9729 B( 28-C , 31-H ) :   0.9734

Dispersion correction           -0.013928946
FINAL SINGLE POINT ENERGY     -1339.878916646208

DIPOLE MOMENT
-------------
                                X             Y             Z
Electronic contribution:     31.73280       3.38100       0.37083
Nuclear contribution   :    -32.33092      -3.55576      -0.35912
                        -----------------------------------------
Total Dipole Moment    :     -0.59811      -0.17476       0.01171
                        -----------------------------------------
Magnitude (a.u.)       :      0.62323
Magnitude (Debye)      :      1.58412

Rotational constants in cm-1:     0.017553     0.009143     0.006487
Rotational constants in MHz :   526.230564   274.088729   194.463472

                             ****ORCA TERMINATED NORMALLY****
TOTAL RUN TIME: 0 days 0 hours 0 minutes 20 seconds 412 msec
