                         Program Version 4.2.1 -  RELEASE  -
|  1> ! wB97X-D3 SP def2-SVP
|  2> %pal
|  3> nprocs 24
|  4> end
|  5>
|  6> * xyz 0 1
|  7> S 	 -43.3789 	 8.84559 	 28.7344
|  8> C 	 -45.1384 	 9.14594 	 28.6678
|  9> C 	 -45.3894 	 9.85478 	 27.5473
| 10> C 	 -44.2604 	 10.3017 	 26.8105
| 11> C 	 -43.0607 	 9.86448 	 27.3619
| 12> H 	 -44.2766 	 10.8835 	 25.9485
| 13> C 	 -46.7769 	 10.1816 	 27.1553
| 14> H 	 -47.396 	 9.45233 	 27.6539
| 15> H 	 -46.9012 	 9.95089 	 26.0549
| 16> C 	 -47.1389 	 11.59 	 27.5585
| 17> H 	 -48.1671 	 11.7801 	 27.7578
| 18> H 	 -46.8019 	 11.7309 	 28.5369
| 19> C 	 -46.4922 	 12.7154 	 26.6356
| 20> H 	 -46.9056 	 13.6908 	 26.8884
| 21> H 	 -45.407 	 12.7928 	 26.7736
| 22> H 	 -46.6917 	 12.485 	 25.5705
| 23> S 	 -40.7249 	 8.57322 	 26.3817
| 24> C 	 -39.506 	 9.59563 	 25.7047
| 25> C 	 -39.8885 	 10.8998 	 25.6127
| 26> C 	 -41.2006 	 11.1678 	 26.1517
| 27> C 	 -41.7501 	 10.0338 	 26.705
| 28> H 	 -39.1046 	 11.5362 	 25.1674
| 29> C 	 -41.6908 	 12.601 	 26.0837
| 30> H 	 -41.1917 	 13.0953 	 26.9292
| 31> H 	 -42.7372 	 12.4915 	 26.3711
| 32> C 	 -41.4247 	 13.4057 	 24.8227
| 33> H 	 -40.3608 	 13.4546 	 24.7028
| 34> H 	 -41.7565 	 14.4385 	 24.9391
| 35> C 	 -42.0409 	 12.8765 	 23.4938
| 36> H 	 -42.0794 	 13.5752 	 22.6231
| 37> H 	 -43.09 	 12.6141 	 23.6472
| 38> H 	 -41.6291 	 11.9531 	 23.2079
| 39> H 	 -45.8422 	 8.61186 	 29.2829
| 40> H 	 -38.5881 	 9.21908 	 25.3382
| 41> *
| 42>
| 43>                          ****END OF INPUT****

CARTESIAN COORDINATES (ANGSTROEM)
---------------------------------
  S    -43.378900    8.845590   28.734400
  C    -45.138400    9.145940   28.667800
  C    -45.389400    9.854780   27.547300
  C    -44.260400   10.301700   26.810500
  C    -43.060700    9.864480   27.361900
  H    -44.276600   10.883500   25.948500
  C    -46.776900   10.181600   27.155300
  H    -47.396000    9.452330   27.653900
  H    -46.901200    9.950890   26.054900
  C    -47.138900   11.590000   27.558500
  H    -48.167100   11.780100   27.757800
  H    -46.801900   11.730900   28.536900
  C    -46.492200   12.715400   26.635600
  H    -46.905600   13.690800   26.888400
  H    -45.407000   12.792800   26.773600
  H    -46.691700   12.485000   25.570500
  S    -40.724900    8.573220   26.381700
  C    -39.506000    9.595630   25.704700
  C    -39.888500   10.899800   25.612700
  C    -41.200600   11.167800   26.151700
  C    -41.750100   10.033800   26.705000
  H    -39.104600   11.536200   25.167400
  C    -41.690800   12.601000   26.083700
  H    -41.191700   13.095300   26.929200
  H    -42.737200   12.491500   26.371100
  C    -41.424700   13.405700   24.822700
  H    -40.360800   13.454600   24.702800
  H    -41.756500   14.438500   24.939100
  C    -42.040900   12.876500   23.493800
  H    -42.079400   13.575200   22.623100
  H    -43.090000   12.614100   23.647200
  H    -41.629100   11.953100   23.207900
  H    -45.842200    8.611860   29.282900
  H    -38.588100    9.219080   25.338200

 Total Charge           Charge          ....    0
 Multiplicity           Mult            ....    1
 Number of Electrons    NEL             ....  134
 Basis Dimension        Dim             ....  322

ORBITAL ENERGIES
----------------

  NO   OCC          E(Eh)            E(eV)
   0   2.0000     -88.964276     -2420.8410
   1   2.0000     -88.963349     -2420.8158
   2   2.0000     -10.332560      -281.1632
   3   2.0000     -10.331699      -281.1398
   4   2.0000     -10.311770      -280.5975
   5   2.0000     -10.311401      -280.5875
   6   2.0000     -10.307303      -280.4760
   7   2.0000     -10.294972      -280.1404
   8   2.0000     -10.293770      -280.1077
   9   2.0000     -10.292187      -280.0646
  10   2.0000     -10.291391      -280.0430
  11   2.0000     -10.288719      -279.9703
  12   2.0000     -10.287994      -279.9505
  13   2.0000     -10.284251      -279.8487
  14   2.0000     -10.280576      -279.7487
  15   2.0000     -10.277609      -279.6680
  16   2.0000      -8.078705      -219.8327
  17   2.0000      -8.077837      -219.8091
  18   2.0000      -6.037296      -164.2832
  19   2.0000      -6.036414      -164.2592
  20   2.0000      -6.033414      -164.1775
  21   2.0000      -6.032330      -164.1480
  22   2.0000      -6.029244      -164.0641
  23   2.0000      -6.028577      -164.0459
  24   2.0000      -1.005323       -27.3562
  25   2.0000      -0.985519       -26.8173
  26   2.0000      -0.916098       -24.9283
  27   2.0000      -0.911316       -24.7982
  28   2.0000      -0.868960       -23.6456
  29   2.0000      -0.848180       -23.0802
  30   2.0000      -0.838712       -22.8225
  31   2.0000      -0.817834       -22.2544
  32   2.0000      -0.788464       -21.4552
  33   2.0000      -0.775210       -21.0945
  34   2.0000      -0.714210       -19.4346
  35   2.0000      -0.709342       -19.3022
  36   2.0000      -0.700717       -19.0675
  37   2.0000      -0.655886       -17.8476
  38   2.0000      -0.643888       -17.5211
  39   2.0000      -0.619304       -16.8521
  40   2.0000      -0.595896       -16.2152
  41   2.0000      -0.571904       -15.5623
  42   2.0000      -0.553961       -15.0740
  43   2.0000      -0.550268       -14.9736
  44   2.0000      -0.546690       -14.8762
  45   2.0000      -0.535878       -14.5820
  46   2.0000      -0.517967       -14.0946
  47   2.0000      -0.515842       -14.0368
  48   2.0000      -0.502897       -13.6845
  49   2.0000      -0.495917       -13.4946
  50   2.0000      -0.492118       -13.3912
  51   2.0000      -0.482127       -13.1193
  52   2.0000      -0.468566       -12.7503
  53   2.0000      -0.467995       -12.7348
  54   2.0000      -0.458790       -12.4843
  55   2.0000      -0.449591       -12.2340
  56   2.0000      -0.445946       -12.1348
  57   2.0000      -0.439524       -11.9601
  58   2.0000      -0.434031       -11.8106
  59   2.0000      -0.426625       -11.6091
  60   2.0000      -0.424697       -11.5566
  61   2.0000      -0.413807       -11.2603
  62   2.0000      -0.408770       -11.1232
  63   2.0000      -0.349975        -9.5233
  64   2.0000      -0.330686        -8.9984
  65   2.0000      -0.329316        -8.9612
  66   2.0000      -0.293886        -7.9970
  67   0.0000       0.028720         0.7815
  68   0.0000       0.074110         2.0166
  69   0.0000       0.109566         2.9814
  70   0.0000       0.121219         3.2985
  71   0.0000       0.128263         3.4902

MULLIKEN ATOMIC CHARGES
-----------------------
   0 S :    0.093566
   1 C :   -0.124764
   2 C :   -0.100635
   3 C :    0.054404
   4 C :   -0.149587
   5 H :   -0.016066
   6 C :    0.070890
   7 H :    0.005750
   8 H :    0.039084
   9 C :   -0.010997
  10 H :    0.016394
  11 H :    0.001792
  12 C :   -0.074949
  13 H :    0.034534
  14 H :    0.044386
  15 H :    0.036497
  16 S :    0.100983
  17 C :   -0.081234
  18 C :   -0.057007
  19 C :   -0.056091
  20 C :   -0.147271
  21 H :    0.031893
  22 C :    0.102399
  23 H :    0.048012
  24 H :    0.004731
  25 C :   -0.051071
  26 H :    0.024570
  27 H :    0.033987
  28 C :   -0.050549
  29 H :    0.043430
  30 H :    0.017020
  31 H :    0.025960
  32 H :    0.050230
  33 H :    0.039706
Sum of atomic charges:   -0.0000000

LOEWDIN ATOMIC CHARGES
----------------------
   0 S :    0.392680
   1 C :   -0.186501
   2 C :   -0.062519
   3 C :   -0.059091
   4 C :   -0.188530
   5 H :    0.018098
   6 C :   -0.032519
   7 H :    0.027221
   8 H :    0.035718
   9 C :   -0.035943
  10 H :    0.021071
  11 H :    0.020358
  12 C :   -0.065027
  13 H :    0.026390
  14 H :    0.024296
  15 H :    0.025418
  16 S :    0.380462
  17 C :   -0.177091
  18 C :   -0.081770
  19 C :   -0.052105
  20 C :   -0.179504
  21 H :    0.038742
  22 C :   -0.031129
  23 H :    0.044870
  24 H :    0.025641
  25 C :   -0.036577
  26 H :    0.019887
  27 H :    0.030519
  28 C :   -0.068334
  29 H :    0.033103
  30 H :    0.023690
  31 H :    0.018452
  32 H :    0.029157
  33 H :    0.020866

  Mayer bond orders larger than 0.100000
B(  0-S ,  1-C ) :   1.1112 B(  0-S ,  4-C ) :   1.1694 B(  1-C ,  2-C ) :   1.6204
B(  1-C , 32-H ) :   0.9721 B(  2-C ,  3-C ) :   1.2435 B(  2-C ,  6-C ) :   1.0316
B(  3-C ,  4-C ) :   1.5375 B(  3-C ,  5-H ) :   1.0013 B(  4-C , 20-C ) :   1.0423
B(  6-C ,  7-H ) :   0.9302 B(  6-C ,  8-H ) :   0.9439 B(  6-C ,  9-C ) :   1.0652
B(  9-C , 10-H ) :   0.9568 B(  9-C , 11-H ) :   0.9431 B(  9-C , 12-C ) :   1.0719
B( 12-C , 13-H ) :   0.9722 B( 12-C , 14-H ) :   0.9735 B( 12-C , 15-H ) :   0.9777
B( 16-S , 17-C ) :   1.1448 B( 16-S , 20-C ) :   1.1165 B( 17-C , 18-C ) :   1.6649
B( 17-C , 33-H ) :   0.9668 B( 18-C , 19-C ) :   1.1810 B( 18-C , 21-H ) :   0.9848
B( 19-C , 20-C ) :   1.6421 B( 19-C , 22-C ) :   1.0229 B( 22-C , 23-H ) :   0.9251
B( 22-C , 24-H ) :   0.9292 B( 22-C , 25-C ) :   1.0802 B( 25-C , 26-H ) :   0.9480
B( 25-C , 27-H ) :   0.9525 B( 25-C , 28-C ) :   1.0704 B( 28-C , 29-H ) :   0.9765
B( 28-C , 30-H ) :   0.9739 B( 28-C , 31-H ) :   0.9740

Dispersion correction           -0.015224372
FINAL SINGLE POINT ENERGY     -1339.878299417073

DIPOLE MOMENT
-------------
                                X             Y             Z
Electronic contribution:     13.85111     -23.00403      12.09127
Nuclear contribution   :    -14.09928      23.52854     -12.42649
                        -----------------------------------------
Total Dipole Moment    :     -0.24816       0.52451      -0.33522
                        -----------------------------------------
Magnitude (a.u.)       :      0.67013
Magnitude (Debye)      :      1.70333

Rotational constants in cm-1:     0.017660     0.010297     0.007004
Rotational constants in MHz :   529.419895   308.684406   209.977968

                             ****ORCA TERMINATED NORMALLY****
TOTAL RUN TIME: 0 days 0 hours 0 minutes 22 seconds 679 msec
