                         Program Version 4.2.1 -  RELEASE  -
|  1> ! wB97X-D3 SP def2-SVP
|  2> %pal
|  3> nprocs 24
|  4> end
|  5>
|  6> * xyz 0 1
|  7> S 	 -115.644 	 60.5556 	 -78.9081
|  8> C 	 -116.943 	 61.7832 	 -78.9882
|  9> C 	 -116.826 	 62.7064 	 -77.9902
| 10> C 	 -115.664 	 62.4772 	 -77.1691
| 11> C 	 -114.996 	 61.3527 	 -77.4645
| 12> H 	 -115.319 	 62.9264 	 -76.3038
| 13> C 	 -117.776 	 63.8813 	 -77.7224
| 14> H 	 -118.369 	 64.1097 	 -78.6047
| 15> H 	 -117.328 	 64.8434 	 -77.4966
| 16> C 	 -118.868 	 63.7413 	 -76.6083
| 17> H 	 -119.579 	 64.5831 	 -76.5196
| 18> H 	 -119.537 	 62.8926 	 -76.8063
| 19> C 	 -118.241 	 63.4503 	 -75.2553
| 20> H 	 -117.845 	 62.4501 	 -75.1567
| 21> H 	 -117.451 	 64.1263 	 -74.9648
| 22> H 	 -119.021 	 63.5343 	 -74.5471
| 23> S 	 -112.259 	 61.0531 	 -77.7667
| 24> C 	 -111.367 	 60.3962 	 -76.3912
| 25> C 	 -112.159 	 60.1074 	 -75.333
| 26> C 	 -113.479 	 60.5528 	 -75.5206
| 27> C 	 -113.745 	 60.9286 	 -76.84
| 28> H 	 -111.728 	 59.6525 	 -74.511
| 29> C 	 -114.528 	 60.537 	 -74.3991
| 30> H 	 -114.991 	 61.5281 	 -74.1905
| 31> H 	 -114.119 	 60.0903 	 -73.4854
| 32> C 	 -115.742 	 59.7168 	 -74.7032
| 33> H 	 -115.362 	 58.7101 	 -74.9363
| 34> H 	 -116.236 	 60.0756 	 -75.6542
| 35> C 	 -116.812 	 59.7864 	 -73.6574
| 36> H 	 -117.486 	 58.8992 	 -73.7667
| 37> H 	 -117.439 	 60.6818 	 -73.725
| 38> H 	 -116.331 	 59.8518 	 -72.6693
| 39> H 	 -117.803 	 61.8324 	 -79.6851
| 40> H 	 -110.35 	 60.2032 	 -76.4214
| 41> *
| 42>
| 43>                          ****END OF INPUT****

CARTESIAN COORDINATES (ANGSTROEM)
---------------------------------
  S    -115.644000   60.555600  -78.908100
  C    -116.943000   61.783200  -78.988200
  C    -116.826000   62.706400  -77.990200
  C    -115.664000   62.477200  -77.169100
  C    -114.996000   61.352700  -77.464500
  H    -115.319000   62.926400  -76.303800
  C    -117.776000   63.881300  -77.722400
  H    -118.369000   64.109700  -78.604700
  H    -117.328000   64.843400  -77.496600
  C    -118.868000   63.741300  -76.608300
  H    -119.579000   64.583100  -76.519600
  H    -119.537000   62.892600  -76.806300
  C    -118.241000   63.450300  -75.255300
  H    -117.845000   62.450100  -75.156700
  H    -117.451000   64.126300  -74.964800
  H    -119.021000   63.534300  -74.547100
  S    -112.259000   61.053100  -77.766700
  C    -111.367000   60.396200  -76.391200
  C    -112.159000   60.107400  -75.333000
  C    -113.479000   60.552800  -75.520600
  C    -113.745000   60.928600  -76.840000
  H    -111.728000   59.652500  -74.511000
  C    -114.528000   60.537000  -74.399100
  H    -114.991000   61.528100  -74.190500
  H    -114.119000   60.090300  -73.485400
  C    -115.742000   59.716800  -74.703200
  H    -115.362000   58.710100  -74.936300
  H    -116.236000   60.075600  -75.654200
  C    -116.812000   59.786400  -73.657400
  H    -117.486000   58.899200  -73.766700
  H    -117.439000   60.681800  -73.725000
  H    -116.331000   59.851800  -72.669300
  H    -117.803000   61.832400  -79.685100
  H    -110.350000   60.203200  -76.421400

 Total Charge           Charge          ....    0
 Multiplicity           Mult            ....    1
 Number of Electrons    NEL             ....  134
 Basis Dimension        Dim             ....  322

ORBITAL ENERGIES
----------------

  NO   OCC          E(Eh)            E(eV)
   0   2.0000     -88.967722     -2420.9348
   1   2.0000     -88.966468     -2420.9007
   2   2.0000     -10.326380      -280.9951
   3   2.0000     -10.326164      -280.9892
   4   2.0000     -10.321220      -280.8547
   5   2.0000     -10.311112      -280.5796
   6   2.0000     -10.307198      -280.4731
   7   2.0000     -10.305295      -280.4213
   8   2.0000     -10.294898      -280.1384
   9   2.0000     -10.292292      -280.0675
  10   2.0000     -10.290188      -280.0103
  11   2.0000     -10.286816      -279.9185
  12   2.0000     -10.286113      -279.8994
  13   2.0000     -10.278310      -279.6870
  14   2.0000     -10.276844      -279.6471
  15   2.0000     -10.269649      -279.4514
  16   2.0000      -8.081481      -219.9083
  17   2.0000      -8.080999      -219.8952
  18   2.0000      -6.040140      -164.3606
  19   2.0000      -6.039489      -164.3429
  20   2.0000      -6.036233      -164.2542
  21   2.0000      -6.035596      -164.2369
  22   2.0000      -6.032008      -164.1393
  23   2.0000      -6.031729      -164.1317
  24   2.0000      -1.008181       -27.4340
  25   2.0000      -0.985206       -26.8088
  26   2.0000      -0.914803       -24.8931
  27   2.0000      -0.908745       -24.7282
  28   2.0000      -0.874748       -23.8031
  29   2.0000      -0.851722       -23.1765
  30   2.0000      -0.845636       -23.0109
  31   2.0000      -0.822192       -22.3730
  32   2.0000      -0.785829       -21.3835
  33   2.0000      -0.773186       -21.0395
  34   2.0000      -0.707328       -19.2474
  35   2.0000      -0.699942       -19.0464
  36   2.0000      -0.681684       -18.5496
  37   2.0000      -0.667238       -18.1565
  38   2.0000      -0.647687       -17.6245
  39   2.0000      -0.617092       -16.7919
  40   2.0000      -0.603432       -16.4202
  41   2.0000      -0.577398       -15.7118
  42   2.0000      -0.573022       -15.5927
  43   2.0000      -0.546644       -14.8749
  44   2.0000      -0.543378       -14.7861
  45   2.0000      -0.522754       -14.2248
  46   2.0000      -0.515078       -14.0160
  47   2.0000      -0.512356       -13.9419
  48   2.0000      -0.507741       -13.8163
  49   2.0000      -0.497910       -13.5488
  50   2.0000      -0.492143       -13.3919
  51   2.0000      -0.481103       -13.0915
  52   2.0000      -0.478430       -13.0188
  53   2.0000      -0.468216       -12.7408
  54   2.0000      -0.464886       -12.6502
  55   2.0000      -0.446421       -12.1477
  56   2.0000      -0.440301       -11.9812
  57   2.0000      -0.434594       -11.8259
  58   2.0000      -0.431435       -11.7400
  59   2.0000      -0.424154       -11.5418
  60   2.0000      -0.421407       -11.4671
  61   2.0000      -0.417279       -11.3547
  62   2.0000      -0.403826       -10.9887
  63   2.0000      -0.346151        -9.4192
  64   2.0000      -0.331796        -9.0286
  65   2.0000      -0.329579        -8.9683
  66   2.0000      -0.301120        -8.1939
  67   0.0000       0.035086         0.9547
  68   0.0000       0.061870         1.6836
  69   0.0000       0.113721         3.0945
  70   0.0000       0.118374         3.2211
  71   0.0000       0.125080         3.4036

MULLIKEN ATOMIC CHARGES
-----------------------
   0 S :    0.107335
   1 C :   -0.122747
   2 C :   -0.045524
   3 C :    0.076626
   4 C :   -0.189922
   5 H :   -0.020280
   6 C :    0.068651
   7 H :    0.011940
   8 H :    0.030951
   9 C :   -0.089341
  10 H :    0.035085
  11 H :    0.022285
  12 C :   -0.040709
  13 H :    0.034589
  14 H :    0.022040
  15 H :    0.017721
  16 S :    0.115728
  17 C :   -0.065999
  18 C :   -0.003942
  19 C :   -0.007345
  20 C :   -0.166707
  21 H :   -0.009120
  22 C :    0.078152
  23 H :    0.026722
  24 H :    0.016786
  25 C :   -0.131913
  26 H :    0.025302
  27 H :    0.054088
  28 C :   -0.030141
  29 H :    0.046877
  30 H :    0.028407
  31 H :    0.020049
  32 H :    0.055823
  33 H :    0.028532
Sum of atomic charges:    0.0000000

LOEWDIN ATOMIC CHARGES
----------------------
   0 S :    0.375919
   1 C :   -0.181748
   2 C :   -0.059455
   3 C :   -0.051988
   4 C :   -0.183449
   5 H :    0.021964
   6 C :   -0.033710
   7 H :    0.027923
   8 H :    0.031371
   9 C :   -0.039707
  10 H :    0.027173
  11 H :    0.023540
  12 C :   -0.065873
  13 H :    0.021983
  14 H :    0.019457
  15 H :    0.021338
  16 S :    0.401909
  17 C :   -0.160242
  18 C :   -0.061508
  19 C :   -0.049338
  20 C :   -0.198912
  21 H :    0.023970
  22 C :   -0.033839
  23 H :    0.032045
  24 H :    0.028703
  25 C :   -0.055694
  26 H :    0.021505
  27 H :    0.030000
  28 C :   -0.068112
  29 H :    0.036677
  30 H :    0.023538
  31 H :    0.022096
  32 H :    0.038507
  33 H :    0.013955

  Mayer bond orders larger than 0.100000
B(  0-S ,  1-C ) :   1.1145 B(  0-S ,  4-C ) :   1.1149 B(  1-C ,  2-C ) :   1.6771
B(  1-C , 32-H ) :   0.9577 B(  2-C ,  3-C ) :   1.1650 B(  2-C ,  6-C ) :   1.0214
B(  3-C ,  4-C ) :   1.6495 B(  3-C ,  5-H ) :   1.0021 B(  4-C , 20-C ) :   1.0198
B(  6-C ,  7-H ) :   0.9382 B(  6-C ,  8-H ) :   0.9493 B(  6-C ,  9-C ) :   1.0693
B(  9-C , 10-H ) :   0.9599 B(  9-C , 11-H ) :   0.9516 B(  9-C , 12-C ) :   1.0876
B( 12-C , 13-H ) :   0.9664 B( 12-C , 14-H ) :   0.9715 B( 12-C , 15-H ) :   0.9702
B( 16-S , 17-C ) :   1.1501 B( 16-S , 20-C ) :   1.1499 B( 17-C , 18-C ) :   1.6231
B( 17-C , 20-C ) :   0.1023 B( 17-C , 33-H ) :   0.9717 B( 18-C , 19-C ) :   1.2348
B( 18-C , 21-H ) :   1.0044 B( 19-C , 20-C ) :   1.5914 B( 19-C , 22-C ) :   1.0449
B( 22-C , 23-H ) :   0.9311 B( 22-C , 24-H ) :   0.9324 B( 22-C , 25-C ) :   1.0645
B( 25-C , 26-H ) :   0.9546 B( 25-C , 27-H ) :   0.9459 B( 25-C , 28-C ) :   1.0842
B( 28-C , 29-H ) :   0.9704 B( 28-C , 30-H ) :   0.9680 B( 28-C , 31-H ) :   0.9684

Dispersion correction           -0.016312869
FINAL SINGLE POINT ENERGY     -1339.874308817853

DIPOLE MOMENT
-------------
                                X             Y             Z
Electronic contribution:     21.39028      -5.97271     -20.41016
Nuclear contribution   :    -21.69784       6.17468      20.91767
                        -----------------------------------------
Total Dipole Moment    :     -0.30756       0.20197       0.50751
                        -----------------------------------------
Magnitude (a.u.)       :      0.62686
Magnitude (Debye)      :      1.59334

Rotational constants in cm-1:     0.018785     0.010249     0.007857
Rotational constants in MHz :   563.165516   307.262133   235.532029

                             ****ORCA TERMINATED NORMALLY****
TOTAL RUN TIME: 0 days 0 hours 0 minutes 23 seconds 341 msec
