                         Program Version 4.2.1 -  RELEASE  -
|  1> ! wB97X-D3 SP def2-SVP
|  2> %pal
|  3> nprocs 24
|  4> end
|  5>
|  6> * xyz 0 1
|  7> S 	 -104.086 	 47.4359 	 -8.72051
|  8> C 	 -105.202 	 48.6706 	 -9.25225
|  9> C 	 -106.21 	 48.0419 	 -10.0152
| 10> C 	 -105.982 	 46.6654 	 -10.2754
| 11> C 	 -104.9 	 46.1496 	 -9.6223
| 12> H 	 -106.54 	 45.9422 	 -10.8794
| 13> C 	 -107.356 	 48.6942 	 -10.6759
| 14> H 	 -107.583 	 48.1399 	 -11.5876
| 15> H 	 -107.06 	 49.6299 	 -11.148
| 16> C 	 -108.625 	 48.8034 	 -9.79686
| 17> H 	 -109.552 	 49.0418 	 -10.3293
| 18> H 	 -108.985 	 47.8639 	 -9.37533
| 19> C 	 -108.492 	 49.8649 	 -8.71194
| 20> H 	 -107.829 	 49.6512 	 -7.87756
| 21> H 	 -108.164 	 50.7782 	 -9.06804
| 22> H 	 -109.519 	 49.9301 	 -8.29063
| 23> S 	 -102.515 	 44.8507 	 -9.6476
| 24> C 	 -102.478 	 43.1314 	 -9.61562
| 25> C 	 -103.793 	 42.6072 	 -9.82563
| 26> C 	 -104.808 	 43.6217 	 -9.92257
| 27> C 	 -104.241 	 44.884 	 -9.73909
| 28> H 	 -103.782 	 41.5207 	 -9.79663
| 29> C 	 -106.235 	 43.2056 	 -9.9182
| 30> H 	 -106.834 	 44.0084 	 -9.41117
| 31> H 	 -106.42 	 42.251 	 -9.37493
| 32> C 	 -106.786 	 42.9839 	 -11.3182
| 33> H 	 -106.526 	 42.0297 	 -11.7301
| 34> H 	 -106.438 	 43.8433 	 -11.9386
| 35> C 	 -108.351 	 42.8345 	 -11.452
| 36> H 	 -108.478 	 42.5907 	 -12.5719
| 37> H 	 -108.9 	 43.7503 	 -11.2512
| 38> H 	 -108.77 	 42.0412 	 -10.9453
| 39> H 	 -105.262 	 49.7262 	 -8.94162
| 40> H 	 -101.549 	 42.5307 	 -9.54897
| 41> *
| 42>
| 43>                          ****END OF INPUT****

CARTESIAN COORDINATES (ANGSTROEM)
---------------------------------
  S    -104.086000   47.435900   -8.720510
  C    -105.202000   48.670600   -9.252250
  C    -106.210000   48.041900  -10.015200
  C    -105.982000   46.665400  -10.275400
  C    -104.900000   46.149600   -9.622300
  H    -106.540000   45.942200  -10.879400
  C    -107.356000   48.694200  -10.675900
  H    -107.583000   48.139900  -11.587600
  H    -107.060000   49.629900  -11.148000
  C    -108.625000   48.803400   -9.796860
  H    -109.552000   49.041800  -10.329300
  H    -108.985000   47.863900   -9.375330
  C    -108.492000   49.864900   -8.711940
  H    -107.829000   49.651200   -7.877560
  H    -108.164000   50.778200   -9.068040
  H    -109.519000   49.930100   -8.290630
  S    -102.515000   44.850700   -9.647600
  C    -102.478000   43.131400   -9.615620
  C    -103.793000   42.607200   -9.825630
  C    -104.808000   43.621700   -9.922570
  C    -104.241000   44.884000   -9.739090
  H    -103.782000   41.520700   -9.796630
  C    -106.235000   43.205600   -9.918200
  H    -106.834000   44.008400   -9.411170
  H    -106.420000   42.251000   -9.374930
  C    -106.786000   42.983900  -11.318200
  H    -106.526000   42.029700  -11.730100
  H    -106.438000   43.843300  -11.938600
  C    -108.351000   42.834500  -11.452000
  H    -108.478000   42.590700  -12.571900
  H    -108.900000   43.750300  -11.251200
  H    -108.770000   42.041200  -10.945300
  H    -105.262000   49.726200   -8.941620
  H    -101.549000   42.530700   -9.548970

 Total Charge           Charge          ....    0
 Multiplicity           Mult            ....    1
 Number of Electrons    NEL             ....  134
 Basis Dimension        Dim             ....  322

ORBITAL ENERGIES
----------------

  NO   OCC          E(Eh)            E(eV)
   0   2.0000     -88.968617     -2420.9591
   1   2.0000     -88.964527     -2420.8478
   2   2.0000     -10.327031      -281.0128
   3   2.0000     -10.326800      -281.0065
   4   2.0000     -10.320175      -280.8262
   5   2.0000     -10.319303      -280.8025
   6   2.0000     -10.307090      -280.4702
   7   2.0000     -10.301482      -280.3176
   8   2.0000     -10.299579      -280.2658
   9   2.0000     -10.295806      -280.1631
  10   2.0000     -10.292425      -280.0711
  11   2.0000     -10.290516      -280.0192
  12   2.0000     -10.287572      -279.9391
  13   2.0000     -10.287051      -279.9249
  14   2.0000     -10.281305      -279.7685
  15   2.0000     -10.270373      -279.4710
  16   2.0000      -8.084011      -219.9771
  17   2.0000      -8.079014      -219.8411
  18   2.0000      -6.042414      -164.4224
  19   2.0000      -6.038320      -164.3110
  20   2.0000      -6.037650      -164.2928
  21   2.0000      -6.034947      -164.2192
  22   2.0000      -6.033405      -164.1773
  23   2.0000      -6.029782      -164.0787
  24   2.0000      -1.011584       -27.5266
  25   2.0000      -0.984377       -26.7863
  26   2.0000      -0.914047       -24.8725
  27   2.0000      -0.911606       -24.8061
  28   2.0000      -0.869228       -23.6529
  29   2.0000      -0.856154       -23.2971
  30   2.0000      -0.847761       -23.0687
  31   2.0000      -0.813545       -22.1377
  32   2.0000      -0.784697       -21.3527
  33   2.0000      -0.772253       -21.0141
  34   2.0000      -0.709529       -19.3073
  35   2.0000      -0.701396       -19.0859
  36   2.0000      -0.692215       -18.8361
  37   2.0000      -0.665316       -18.1042
  38   2.0000      -0.640225       -17.4214
  39   2.0000      -0.619486       -16.8571
  40   2.0000      -0.595247       -16.1975
  41   2.0000      -0.575837       -15.6693
  42   2.0000      -0.567838       -15.4516
  43   2.0000      -0.549155       -14.9433
  44   2.0000      -0.533700       -14.5227
  45   2.0000      -0.528506       -14.3814
  46   2.0000      -0.525156       -14.2902
  47   2.0000      -0.510403       -13.8888
  48   2.0000      -0.506297       -13.7770
  49   2.0000      -0.501696       -13.6518
  50   2.0000      -0.492202       -13.3935
  51   2.0000      -0.484509       -13.1842
  52   2.0000      -0.473885       -12.8951
  53   2.0000      -0.468109       -12.7379
  54   2.0000      -0.459691       -12.5088
  55   2.0000      -0.446956       -12.1623
  56   2.0000      -0.444889       -12.1060
  57   2.0000      -0.435649       -11.8546
  58   2.0000      -0.429963       -11.6999
  59   2.0000      -0.426600       -11.6084
  60   2.0000      -0.413842       -11.2612
  61   2.0000      -0.411589       -11.1999
  62   2.0000      -0.408592       -11.1184
  63   2.0000      -0.357650        -9.7322
  64   2.0000      -0.331736        -9.0270
  65   2.0000      -0.329264        -8.9597
  66   2.0000      -0.282806        -7.6955
  67   0.0000       0.020319         0.5529
  68   0.0000       0.077489         2.1086
  69   0.0000       0.110229         2.9995
  70   0.0000       0.115518         3.1434
  71   0.0000       0.127994         3.4829

MULLIKEN ATOMIC CHARGES
-----------------------
   0 S :    0.093438
   1 C :   -0.114290
   2 C :   -0.085492
   3 C :    0.016341
   4 C :   -0.139244
   5 H :    0.001618
   6 C :    0.059658
   7 H :    0.014653
   8 H :    0.024144
   9 C :   -0.050468
  10 H :    0.020802
  11 H :    0.017973
  12 C :   -0.035579
  13 H :    0.032979
  14 H :    0.008552
  15 H :    0.032199
  16 S :    0.129310
  17 C :   -0.132747
  18 C :   -0.046534
  19 C :   -0.002916
  20 C :   -0.130736
  21 H :    0.022873
  22 C :    0.047763
  23 H :    0.035290
  24 H :    0.033653
  25 C :   -0.108226
  26 H :    0.028137
  27 H :    0.044869
  28 C :   -0.048022
  29 H :    0.038830
  30 H :    0.032872
  31 H :    0.021929
  32 H :    0.063199
  33 H :    0.073174
Sum of atomic charges:    0.0000000

LOEWDIN ATOMIC CHARGES
----------------------
   0 S :    0.397151
   1 C :   -0.206492
   2 C :   -0.061373
   3 C :   -0.068810
   4 C :   -0.179453
   5 H :    0.034014
   6 C :   -0.039408
   7 H :    0.031603
   8 H :    0.031258
   9 C :   -0.040841
  10 H :    0.025543
  11 H :    0.025097
  12 C :   -0.061693
  13 H :    0.022947
  14 H :    0.010346
  15 H :    0.033112
  16 S :    0.434291
  17 C :   -0.209058
  18 C :   -0.067162
  19 C :   -0.057136
  20 C :   -0.206212
  21 H :    0.032454
  22 C :   -0.041201
  23 H :    0.034458
  24 H :    0.036641
  25 C :   -0.040758
  26 H :    0.022853
  27 H :    0.025914
  28 C :   -0.061904
  29 H :    0.038256
  30 H :    0.019686
  31 H :    0.011155
  32 H :    0.038284
  33 H :    0.036440

  Mayer bond orders larger than 0.100000
B(  0-S ,  1-C ) :   1.1331 B(  0-S ,  4-C ) :   1.1394 B(  1-C ,  2-C ) :   1.5815
B(  1-C , 32-H ) :   0.9669 B(  2-C ,  3-C ) :   1.2505 B(  2-C ,  6-C ) :   1.0309
B(  3-C ,  4-C ) :   1.5705 B(  3-C ,  5-H ) :   0.9851 B(  4-C , 20-C ) :   1.0766
B(  6-C ,  7-H ) :   0.9372 B(  6-C ,  8-H ) :   0.9458 B(  6-C ,  9-C ) :   1.0633
B(  9-C , 10-H ) :   0.9560 B(  9-C , 11-H ) :   0.9529 B(  9-C , 12-C ) :   1.0782
B( 12-C , 13-H ) :   0.9746 B( 12-C , 14-H ) :   0.9762 B( 12-C , 15-H ) :   0.9731
B( 16-S , 17-C ) :   1.1652 B( 16-S , 20-C ) :   1.1582 B( 17-C , 18-C ) :   1.5881
B( 17-C , 20-C ) :   0.1009 B( 17-C , 33-H ) :   0.9652 B( 18-C , 19-C ) :   1.2401
B( 18-C , 21-H ) :   0.9944 B( 19-C , 20-C ) :   1.5404 B( 19-C , 22-C ) :   1.0607
B( 22-C , 23-H ) :   0.9340 B( 22-C , 24-H ) :   0.9343 B( 22-C , 25-C ) :   1.0559
B( 25-C , 26-H ) :   0.9569 B( 25-C , 27-H ) :   0.9559 B( 25-C , 28-C ) :   1.0764
B( 28-C , 29-H ) :   0.9773 B( 28-C , 30-H ) :   0.9767 B( 28-C , 31-H ) :   0.9757

Dispersion correction           -0.014333977
FINAL SINGLE POINT ENERGY     -1339.868360901454

DIPOLE MOMENT
-------------
                                X             Y             Z
Electronic contribution:     29.25835      -0.37185       6.76418
Nuclear contribution   :    -29.80052       0.09840      -6.98877
                        -----------------------------------------
Total Dipole Moment    :     -0.54217      -0.27345      -0.22459
                        -----------------------------------------
Magnitude (a.u.)       :      0.64743
Magnitude (Debye)      :      1.64563

Rotational constants in cm-1:     0.018236     0.009409     0.006515
Rotational constants in MHz :   546.711870   282.083915   195.326727

                             ****ORCA TERMINATED NORMALLY****
TOTAL RUN TIME: 0 days 0 hours 0 minutes 21 seconds 756 msec
