                         Program Version 4.2.1 -  RELEASE  -
|  1> ! wB97X-D3 SP def2-SVP
|  2> %pal
|  3> nprocs 24
|  4> end
|  5>
|  6> * xyz 0 1
|  7> S 	 -106.584 	 2.17842 	 -108.368
|  8> C 	 -106.037 	 3.63499 	 -108.991
|  9> C 	 -105.343 	 4.37003 	 -108.017
| 10> C 	 -105.459 	 3.80181 	 -106.673
| 11> C 	 -105.934 	 2.47749 	 -106.718
| 12> H 	 -105.012 	 4.0828 	 -105.779
| 13> C 	 -104.676 	 5.71446 	 -108.117
| 14> H 	 -104.943 	 6.22747 	 -107.238
| 15> H 	 -105.146 	 6.39618 	 -108.781
| 16> C 	 -103.159 	 5.56132 	 -108.207
| 17> H 	 -102.903 	 4.93648 	 -107.352
| 18> H 	 -102.845 	 5.10673 	 -109.148
| 19> C 	 -102.524 	 6.98097 	 -107.911
| 20> H 	 -101.535 	 6.85556 	 -107.451
| 21> H 	 -102.35 	 7.61736 	 -108.786
| 22> H 	 -103.194 	 7.58002 	 -107.279
| 23> S 	 -104.172 	 1.58057 	 -104.794
| 24> C 	 -104.242 	 -0.083079 	 -104.385
| 25> C 	 -105.31 	 -0.718938 	 -104.939
| 26> C 	 -106.181 	 0.105527 	 -105.69
| 27> C 	 -105.66 	 1.38818 	 -105.739
| 28> H 	 -105.469 	 -1.77944 	 -104.834
| 29> C 	 -107.262 	 -0.496695 	 -106.524
| 30> H 	 -106.95 	 -0.626662 	 -107.572
| 31> H 	 -108.108 	 0.205153 	 -106.485
| 32> C 	 -107.846 	 -1.86782 	 -106.049
| 33> H 	 -108.184 	 -1.70134 	 -105.039
| 34> H 	 -107.049 	 -2.56586 	 -106.007
| 35> C 	 -109.054 	 -2.29914 	 -106.873
| 36> H 	 -109.95 	 -1.95452 	 -106.405
| 37> H 	 -109.081 	 -3.46805 	 -106.875
| 38> H 	 -108.96 	 -2.00912 	 -107.901
| 39> H 	 -106.078 	 3.91518 	 -110.013
| 40> H 	 -103.51 	 -0.619561 	 -103.839
| 41> *
| 42>
| 43>                          ****END OF INPUT****

CARTESIAN COORDINATES (ANGSTROEM)
---------------------------------
  S    -106.584000    2.178420  -108.368000
  C    -106.037000    3.634990  -108.991000
  C    -105.343000    4.370030  -108.017000
  C    -105.459000    3.801810  -106.673000
  C    -105.934000    2.477490  -106.718000
  H    -105.012000    4.082800  -105.779000
  C    -104.676000    5.714460  -108.117000
  H    -104.943000    6.227470  -107.238000
  H    -105.146000    6.396180  -108.781000
  C    -103.159000    5.561320  -108.207000
  H    -102.903000    4.936480  -107.352000
  H    -102.845000    5.106730  -109.148000
  C    -102.524000    6.980970  -107.911000
  H    -101.535000    6.855560  -107.451000
  H    -102.350000    7.617360  -108.786000
  H    -103.194000    7.580020  -107.279000
  S    -104.172000    1.580570  -104.794000
  C    -104.242000   -0.083079  -104.385000
  C    -105.310000   -0.718938  -104.939000
  C    -106.181000    0.105527  -105.690000
  C    -105.660000    1.388180  -105.739000
  H    -105.469000   -1.779440  -104.834000
  C    -107.262000   -0.496695  -106.524000
  H    -106.950000   -0.626662  -107.572000
  H    -108.108000    0.205153  -106.485000
  C    -107.846000   -1.867820  -106.049000
  H    -108.184000   -1.701340  -105.039000
  H    -107.049000   -2.565860  -106.007000
  C    -109.054000   -2.299140  -106.873000
  H    -109.950000   -1.954520  -106.405000
  H    -109.081000   -3.468050  -106.875000
  H    -108.960000   -2.009120  -107.901000
  H    -106.078000    3.915180  -110.013000
  H    -103.510000   -0.619561  -103.839000

 Total Charge           Charge          ....    0
 Multiplicity           Mult            ....    1
 Number of Electrons    NEL             ....  134
 Basis Dimension        Dim             ....  322

ORBITAL ENERGIES
----------------

  NO   OCC          E(Eh)            E(eV)
   0   2.0000     -88.969903     -2420.9941
   1   2.0000     -88.963316     -2420.8149
   2   2.0000     -10.334198      -281.2078
   3   2.0000     -10.330700      -281.1126
   4   2.0000     -10.311343      -280.5859
   5   2.0000     -10.308357      -280.5046
   6   2.0000     -10.302126      -280.3351
   7   2.0000     -10.300478      -280.2903
   8   2.0000     -10.294043      -280.1151
   9   2.0000     -10.290429      -280.0168
  10   2.0000     -10.287944      -279.9492
  11   2.0000     -10.287424      -279.9350
  12   2.0000     -10.284549      -279.8568
  13   2.0000     -10.283538      -279.8293
  14   2.0000     -10.279873      -279.7296
  15   2.0000     -10.278010      -279.6789
  16   2.0000      -8.084800      -219.9986
  17   2.0000      -8.078139      -219.8173
  18   2.0000      -6.043289      -164.4462
  19   2.0000      -6.039444      -164.3416
  20   2.0000      -6.036703      -164.2670
  21   2.0000      -6.035424      -164.2322
  22   2.0000      -6.032417      -164.1504
  23   2.0000      -6.029076      -164.0595
  24   2.0000      -1.007291       -27.4098
  25   2.0000      -0.985037       -26.8042
  26   2.0000      -0.913985       -24.8708
  27   2.0000      -0.909694       -24.7540
  28   2.0000      -0.869482       -23.6598
  29   2.0000      -0.858439       -23.3593
  30   2.0000      -0.840880       -22.8815
  31   2.0000      -0.811132       -22.0720
  32   2.0000      -0.781210       -21.2578
  33   2.0000      -0.766219       -20.8499
  34   2.0000      -0.708641       -19.2831
  35   2.0000      -0.705016       -19.1845
  36   2.0000      -0.695550       -18.9269
  37   2.0000      -0.663775       -18.0622
  38   2.0000      -0.642158       -17.4740
  39   2.0000      -0.613775       -16.7017
  40   2.0000      -0.603807       -16.4304
  41   2.0000      -0.578571       -15.7437
  42   2.0000      -0.568014       -15.4564
  43   2.0000      -0.557195       -15.1621
  44   2.0000      -0.524554       -14.2738
  45   2.0000      -0.522861       -14.2278
  46   2.0000      -0.518479       -14.1085
  47   2.0000      -0.510415       -13.8891
  48   2.0000      -0.508033       -13.8243
  49   2.0000      -0.498844       -13.5742
  50   2.0000      -0.486746       -13.2450
  51   2.0000      -0.480529       -13.0759
  52   2.0000      -0.474225       -12.9043
  53   2.0000      -0.463876       -12.6227
  54   2.0000      -0.459554       -12.5051
  55   2.0000      -0.453811       -12.3488
  56   2.0000      -0.448517       -12.2048
  57   2.0000      -0.436592       -11.8803
  58   2.0000      -0.430802       -11.7227
  59   2.0000      -0.427929       -11.6445
  60   2.0000      -0.419964       -11.4278
  61   2.0000      -0.415997       -11.3198
  62   2.0000      -0.405404       -11.0316
  63   2.0000      -0.358023        -9.7423
  64   2.0000      -0.335905        -9.1404
  65   2.0000      -0.324097        -8.8191
  66   2.0000      -0.279580        -7.6077
  67   0.0000       0.021524         0.5857
  68   0.0000       0.077337         2.1044
  69   0.0000       0.106020         2.8849
  70   0.0000       0.120049         3.2667
  71   0.0000       0.134830         3.6689

MULLIKEN ATOMIC CHARGES
-----------------------
   0 S :    0.084485
   1 C :   -0.068018
   2 C :   -0.128414
   3 C :    0.030871
   4 C :   -0.134871
   5 H :   -0.003394
   6 C :    0.072884
   7 H :    0.002613
   8 H :    0.008410
   9 C :   -0.048644
  10 H :    0.031136
  11 H :    0.040979
  12 C :   -0.065445
  13 H :    0.038287
  14 H :    0.033362
  15 H :    0.027814
  16 S :    0.101956
  17 C :   -0.054035
  18 C :   -0.052128
  19 C :   -0.039319
  20 C :   -0.120365
  21 H :    0.013941
  22 C :    0.007493
  23 H :    0.055950
  24 H :    0.035202
  25 C :   -0.091870
  26 H :    0.028689
  27 H :    0.029966
  28 C :   -0.028683
  29 H :    0.039203
  30 H :    0.038887
  31 H :    0.034017
  32 H :    0.040174
  33 H :    0.038864
Sum of atomic charges:    0.0000000

LOEWDIN ATOMIC CHARGES
----------------------
   0 S :    0.419770
   1 C :   -0.221064
   2 C :   -0.053779
   3 C :   -0.068401
   4 C :   -0.170958
   5 H :    0.013167
   6 C :   -0.038930
   7 H :    0.025475
   8 H :    0.022542
   9 C :   -0.028432
  10 H :    0.027079
  11 H :    0.026435
  12 C :   -0.070789
  13 H :    0.026650
  14 H :    0.024797
  15 H :    0.024323
  16 S :    0.416042
  17 C :   -0.187083
  18 C :   -0.069765
  19 C :   -0.059958
  20 C :   -0.185293
  21 H :    0.028564
  22 C :   -0.041030
  23 H :    0.031466
  24 H :    0.032945
  25 C :   -0.038635
  26 H :    0.025070
  27 H :    0.013043
  28 C :   -0.060218
  29 H :    0.025157
  30 H :    0.039506
  31 H :    0.022279
  32 H :    0.026012
  33 H :    0.024013

  Mayer bond orders larger than 0.100000
B(  0-S ,  1-C ) :   1.1449 B(  0-S ,  4-C ) :   1.1464 B(  1-C ,  2-C ) :   1.5933
B(  1-C , 32-H ) :   0.9751 B(  2-C ,  3-C ) :   1.2439 B(  2-C ,  6-C ) :   1.0293
B(  3-C ,  4-C ) :   1.5564 B(  3-C ,  5-H ) :   0.9891 B(  4-C , 20-C ) :   1.0698
B(  6-C ,  7-H ) :   0.9359 B(  6-C ,  8-H ) :   0.9437 B(  6-C ,  9-C ) :   1.0521
B(  9-C , 10-H ) :   0.9590 B(  9-C , 11-H ) :   0.9614 B(  9-C , 12-C ) :   1.0609
B( 12-C , 13-H ) :   0.9785 B( 12-C , 14-H ) :   0.9773 B( 12-C , 15-H ) :   0.9772
B( 16-S , 17-C ) :   1.1513 B( 16-S , 20-C ) :   1.1357 B( 17-C , 18-C ) :   1.6166
B( 17-C , 33-H ) :   0.9656 B( 18-C , 19-C ) :   1.2534 B( 18-C , 21-H ) :   0.9869
B( 19-C , 20-C ) :   1.5766 B( 19-C , 22-C ) :   1.0448 B( 22-C , 23-H ) :   0.9227
B( 22-C , 24-H ) :   0.9331 B( 22-C , 25-C ) :   1.0759 B( 25-C , 26-H ) :   0.9621
B( 25-C , 27-H ) :   0.9507 B( 25-C , 28-C ) :   1.0775 B( 28-C , 29-H ) :   0.9769
B( 28-C , 30-H ) :   0.9742 B( 28-C , 31-H ) :   0.9745

Dispersion correction           -0.013512925
FINAL SINGLE POINT ENERGY     -1339.861393576758

DIPOLE MOMENT
-------------
                                X             Y             Z
Electronic contribution:      1.29667      -2.18339       4.96341
Nuclear contribution   :     -1.14432       1.98042      -5.06861
                        -----------------------------------------
Total Dipole Moment    :      0.15235      -0.20297      -0.10520
                        -----------------------------------------
Magnitude (a.u.)       :      0.27473
Magnitude (Debye)      :      0.69830

Rotational constants in cm-1:     0.024617     0.007406     0.005868
Rotational constants in MHz :   737.986192   222.023820   175.912852

                             ****ORCA TERMINATED NORMALLY****
TOTAL RUN TIME: 0 days 0 hours 0 minutes 21 seconds 596 msec
