                         Program Version 4.2.1 -  RELEASE  -
|  1> ! wB97X-D3 SP def2-SVP
|  2> %pal
|  3> nprocs 24
|  4> end
|  5>
|  6> * xyz 0 1
|  7> S 	 -65.7311 	 19.7614 	 -116.84
|  8> C 	 -64.2454 	 18.8838 	 -117.063
|  9> C 	 -64.4922 	 17.6595 	 -117.694
| 10> C 	 -65.9242 	 17.4756 	 -117.931
| 11> C 	 -66.6847 	 18.3977 	 -117.192
| 12> H 	 -66.3825 	 16.6177 	 -118.354
| 13> C 	 -63.5064 	 16.8426 	 -118.492
| 14> H 	 -62.5038 	 17.09 	 -118.266
| 15> H 	 -63.7857 	 17.0997 	 -119.489
| 16> C 	 -63.7055 	 15.3646 	 -118.377
| 17> H 	 -63.7317 	 14.9855 	 -117.376
| 18> H 	 -64.6133 	 15.1365 	 -118.8
| 19> C 	 -62.7241 	 14.5032 	 -119.169
| 20> H 	 -63.0336 	 14.3891 	 -120.234
| 21> H 	 -61.6949 	 14.8173 	 -119.095
| 22> H 	 -62.7319 	 13.5454 	 -118.769
| 23> S 	 -69.0389 	 19.859 	 -117.691
| 24> C 	 -70.5668 	 18.929 	 -117.842
| 25> C 	 -70.4055 	 17.7288 	 -117.205
| 26> C 	 -69.021 	 17.4324 	 -116.862
| 27> C 	 -68.1456 	 18.4254 	 -117.138
| 28> H 	 -71.2493 	 17.0652 	 -117.113
| 29> C 	 -68.5405 	 15.9965 	 -116.506
| 30> H 	 -67.6648 	 16.0194 	 -115.97
| 31> H 	 -68.2669 	 15.4603 	 -117.44
| 32> C 	 -69.4793 	 15.0305 	 -115.82
| 33> H 	 -70.4124 	 15.0345 	 -116.406
| 34> H 	 -69.7249 	 15.4685 	 -114.89
| 35> C 	 -68.8783 	 13.6618 	 -115.642
| 36> H 	 -68.5332 	 13.3745 	 -116.612
| 37> H 	 -69.5308 	 12.919 	 -115.228
| 38> H 	 -67.9939 	 13.7141 	 -115.089
| 39> H 	 -63.276 	 19.3128 	 -116.986
| 40> H 	 -71.4616 	 19.4064 	 -118.272
| 41> *
| 42>
| 43>                          ****END OF INPUT****

CARTESIAN COORDINATES (ANGSTROEM)
---------------------------------
  S    -65.731100   19.761400  -116.840000
  C    -64.245400   18.883800  -117.063000
  C    -64.492200   17.659500  -117.694000
  C    -65.924200   17.475600  -117.931000
  C    -66.684700   18.397700  -117.192000
  H    -66.382500   16.617700  -118.354000
  C    -63.506400   16.842600  -118.492000
  H    -62.503800   17.090000  -118.266000
  H    -63.785700   17.099700  -119.489000
  C    -63.705500   15.364600  -118.377000
  H    -63.731700   14.985500  -117.376000
  H    -64.613300   15.136500  -118.800000
  C    -62.724100   14.503200  -119.169000
  H    -63.033600   14.389100  -120.234000
  H    -61.694900   14.817300  -119.095000
  H    -62.731900   13.545400  -118.769000
  S    -69.038900   19.859000  -117.691000
  C    -70.566800   18.929000  -117.842000
  C    -70.405500   17.728800  -117.205000
  C    -69.021000   17.432400  -116.862000
  C    -68.145600   18.425400  -117.138000
  H    -71.249300   17.065200  -117.113000
  C    -68.540500   15.996500  -116.506000
  H    -67.664800   16.019400  -115.970000
  H    -68.266900   15.460300  -117.440000
  C    -69.479300   15.030500  -115.820000
  H    -70.412400   15.034500  -116.406000
  H    -69.724900   15.468500  -114.890000
  C    -68.878300   13.661800  -115.642000
  H    -68.533200   13.374500  -116.612000
  H    -69.530800   12.919000  -115.228000
  H    -67.993900   13.714100  -115.089000
  H    -63.276000   19.312800  -116.986000
  H    -71.461600   19.406400  -118.272000

 Total Charge           Charge          ....    0
 Multiplicity           Mult            ....    1
 Number of Electrons    NEL             ....  134
 Basis Dimension        Dim             ....  322

ORBITAL ENERGIES
----------------

  NO   OCC          E(Eh)            E(eV)
   0   2.0000     -88.965270     -2420.8681
   1   2.0000     -88.959020     -2420.6980
   2   2.0000     -10.329821      -281.0887
   3   2.0000     -10.326456      -280.9971
   4   2.0000     -10.326365      -280.9947
   5   2.0000     -10.312079      -280.6059
   6   2.0000     -10.306652      -280.4583
   7   2.0000     -10.304661      -280.4041
   8   2.0000     -10.300331      -280.2863
   9   2.0000     -10.295139      -280.1450
  10   2.0000     -10.285996      -279.8962
  11   2.0000     -10.285018      -279.8696
  12   2.0000     -10.278990      -279.7055
  13   2.0000     -10.273259      -279.5496
  14   2.0000     -10.272563      -279.5307
  15   2.0000     -10.270363      -279.4708
  16   2.0000      -8.081096      -219.8978
  17   2.0000      -8.073450      -219.6898
  18   2.0000      -6.039561      -164.3448
  19   2.0000      -6.035638      -164.2381
  20   2.0000      -6.032233      -164.1454
  21   2.0000      -6.031658      -164.1298
  22   2.0000      -6.028131      -164.0338
  23   2.0000      -6.023796      -163.9158
  24   2.0000      -1.008705       -27.4483
  25   2.0000      -0.983593       -26.7649
  26   2.0000      -0.923053       -25.1176
  27   2.0000      -0.915790       -24.9199
  28   2.0000      -0.873623       -23.7725
  29   2.0000      -0.854064       -23.2403
  30   2.0000      -0.842808       -22.9340
  31   2.0000      -0.816320       -22.2132
  32   2.0000      -0.785975       -21.3875
  33   2.0000      -0.778595       -21.1866
  34   2.0000      -0.712134       -19.3781
  35   2.0000      -0.704953       -19.1827
  36   2.0000      -0.695147       -18.9159
  37   2.0000      -0.656393       -17.8614
  38   2.0000      -0.643583       -17.5128
  39   2.0000      -0.622483       -16.9386
  40   2.0000      -0.602296       -16.3893
  41   2.0000      -0.581313       -15.8183
  42   2.0000      -0.576546       -15.6886
  43   2.0000      -0.566923       -15.4268
  44   2.0000      -0.533104       -14.5065
  45   2.0000      -0.527506       -14.3542
  46   2.0000      -0.518195       -14.1008
  47   2.0000      -0.516866       -14.0647
  48   2.0000      -0.508131       -13.8269
  49   2.0000      -0.501026       -13.6336
  50   2.0000      -0.492353       -13.3976
  51   2.0000      -0.482869       -13.1395
  52   2.0000      -0.480303       -13.0697
  53   2.0000      -0.471103       -12.8194
  54   2.0000      -0.458751       -12.4833
  55   2.0000      -0.455881       -12.4052
  56   2.0000      -0.444419       -12.0933
  57   2.0000      -0.437724       -11.9111
  58   2.0000      -0.429598       -11.6900
  59   2.0000      -0.427177       -11.6241
  60   2.0000      -0.421317       -11.4646
  61   2.0000      -0.420587       -11.4448
  62   2.0000      -0.412052       -11.2125
  63   2.0000      -0.351493        -9.5646
  64   2.0000      -0.327897        -8.9225
  65   2.0000      -0.322417        -8.7734
  66   2.0000      -0.293384        -7.9834
  67   0.0000       0.025845         0.7033
  68   0.0000       0.066664         1.8140
  69   0.0000       0.097138         2.6433
  70   0.0000       0.114457         3.1145
  71   0.0000       0.127816         3.4780

MULLIKEN ATOMIC CHARGES
-----------------------
   0 S :    0.109359
   1 C :   -0.095728
   2 C :   -0.102686
   3 C :    0.017368
   4 C :   -0.155205
   5 H :    0.011771
   6 C :    0.127619
   7 H :    0.004968
   8 H :    0.032050
   9 C :   -0.083031
  10 H :    0.023456
  11 H :    0.002445
  12 C :   -0.019506
  13 H :    0.034425
  14 H :    0.022424
  15 H :    0.012160
  16 S :    0.069702
  17 C :   -0.113332
  18 C :   -0.018176
  19 C :   -0.026950
  20 C :   -0.111987
  21 H :    0.024904
  22 C :    0.019541
  23 H :    0.012332
  24 H :    0.032646
  25 C :   -0.061068
  26 H :    0.023000
  27 H :    0.016297
  28 C :    0.021511
  29 H :    0.003884
  30 H :    0.038092
  31 H :    0.011906
  32 H :    0.039239
  33 H :    0.076571
Sum of atomic charges:    0.0000000

LOEWDIN ATOMIC CHARGES
----------------------
   0 S :    0.429820
   1 C :   -0.201431
   2 C :   -0.053982
   3 C :   -0.055575
   4 C :   -0.200407
   5 H :    0.020875
   6 C :   -0.020452
   7 H :    0.020941
   8 H :    0.038443
   9 C :   -0.037705
  10 H :    0.022371
  11 H :    0.012664
  12 C :   -0.058201
  13 H :    0.029615
  14 H :    0.021016
  15 H :    0.018835
  16 S :    0.354623
  17 C :   -0.159995
  18 C :   -0.070146
  19 C :   -0.054053
  20 C :   -0.184984
  21 H :    0.030417
  22 C :   -0.027047
  23 H :    0.017025
  24 H :    0.030499
  25 C :   -0.038966
  26 H :    0.021088
  27 H :    0.016461
  28 C :   -0.051094
  29 H :    0.021512
  30 H :    0.028189
  31 H :    0.020507
  32 H :    0.022176
  33 H :    0.036960

  Mayer bond orders larger than 0.100000
B(  0-S ,  1-C ) :   1.1407 B(  0-S ,  4-C ) :   1.1715 B(  1-C ,  2-C ) :   1.5954
B(  1-C , 32-H ) :   0.9746 B(  2-C ,  3-C ) :   1.2393 B(  2-C ,  6-C ) :   1.0383
B(  3-C ,  4-C ) :   1.5424 B(  3-C ,  5-H ) :   0.9876 B(  4-C , 20-C ) :   1.0521
B(  6-C ,  7-H ) :   0.9415 B(  6-C ,  8-H ) :   0.9342 B(  6-C ,  9-C ) :   1.0669
B(  9-C , 10-H ) :   0.9622 B(  9-C , 11-H ) :   0.9483 B(  9-C , 12-C ) :   1.0948
B( 12-C , 13-H ) :   0.9759 B( 12-C , 14-H ) :   0.9739 B( 12-C , 15-H ) :   0.9711
B( 16-S , 17-C ) :   1.1361 B( 16-S , 20-C ) :   1.1002 B( 17-C , 18-C ) :   1.6382
B( 17-C , 33-H ) :   0.9670 B( 18-C , 19-C ) :   1.1851 B( 18-C , 21-H ) :   0.9935
B( 19-C , 20-C ) :   1.6725 B( 19-C , 22-C ) :   1.0368 B( 22-C , 23-H ) :   0.9333
B( 22-C , 24-H ) :   0.9330 B( 22-C , 25-C ) :   1.0699 B( 25-C , 26-H ) :   0.9467
B( 25-C , 27-H ) :   0.9537 B( 25-C , 28-C ) :   1.0890 B( 28-C , 29-H ) :   0.9684
B( 28-C , 30-H ) :   0.9708 B( 28-C , 31-H ) :   0.9699

Dispersion correction           -0.013506238
FINAL SINGLE POINT ENERGY     -1339.851993629057

DIPOLE MOMENT
-------------
                                X             Y             Z
Electronic contribution:     -8.46032      31.51006       1.87554
Nuclear contribution   :      8.51457     -32.28946      -2.16072
                        -----------------------------------------
Total Dipole Moment    :      0.05425      -0.77940      -0.28518
                        -----------------------------------------
Magnitude (a.u.)       :      0.83170
Magnitude (Debye)      :      2.11402

Rotational constants in cm-1:     0.015696     0.009336     0.006463
Rotational constants in MHz :   470.549730   279.877696   193.769774

                             ****ORCA TERMINATED NORMALLY****
TOTAL RUN TIME: 0 days 0 hours 0 minutes 21 seconds 506 msec
