                         Program Version 4.2.1 -  RELEASE  -
|  1> ! wB97X-D3 SP def2-SVP
|  2> %pal
|  3> nprocs 24
|  4> end
|  5>
|  6> * xyz 0 1
|  7> S 	 -123.683 	 65.2121 	 -37.7324
|  8> C 	 -122.255 	 65.8046 	 -38.6422
|  9> C 	 -122.721 	 66.7075 	 -39.5653
| 10> C 	 -124.085 	 67.1438 	 -39.3625
| 11> C 	 -124.694 	 66.405 	 -38.433
| 12> H 	 -124.584 	 67.8498 	 -40.0854
| 13> C 	 -121.97 	 67.1168 	 -40.799
| 14> H 	 -122.436 	 66.7122 	 -41.7008
| 15> H 	 -120.941 	 66.8181 	 -40.7159
| 16> C 	 -121.998 	 68.6755 	 -40.9539
| 17> H 	 -121.256 	 68.9118 	 -41.6579
| 18> H 	 -122.88 	 68.8816 	 -41.4906
| 19> C 	 -121.799 	 69.4762 	 -39.5926
| 20> H 	 -122.814 	 69.3256 	 -39.0298
| 21> H 	 -121.071 	 69.1296 	 -38.8408
| 22> H 	 -121.664 	 70.5109 	 -39.7557
| 23> S 	 -127.067 	 65.1052 	 -38.711
| 24> C 	 -128.522 	 65.8262 	 -37.9754
| 25> C 	 -128.296 	 67.0969 	 -37.4422
| 26> C 	 -126.938 	 67.4997 	 -37.5545
| 27> C 	 -126.154 	 66.4589 	 -38.1423
| 28> H 	 -129.11 	 67.6023 	 -37.0126
| 29> C 	 -126.436 	 68.721 	 -36.8999
| 30> H 	 -125.396 	 68.864 	 -37.2282
| 31> H 	 -126.401 	 68.5234 	 -35.7811
| 32> C 	 -127.081 	 70.1051 	 -37.0864
| 33> H 	 -128.148 	 69.9131 	 -36.9387
| 34> H 	 -126.956 	 70.4283 	 -38.1297
| 35> C 	 -126.489 	 71.134 	 -36.0758
| 36> H 	 -125.373 	 71.3001 	 -36.2002
| 37> H 	 -126.866 	 71.0545 	 -35.0759
| 38> H 	 -126.811 	 72.1326 	 -36.4395
| 39> H 	 -121.378 	 65.1863 	 -38.7115
| 40> H 	 -129.492 	 65.3852 	 -37.9484
| 41> *
| 42>
| 43>                          ****END OF INPUT****

CARTESIAN COORDINATES (ANGSTROEM)
---------------------------------
  S    -123.683000   65.212100  -37.732400
  C    -122.255000   65.804600  -38.642200
  C    -122.721000   66.707500  -39.565300
  C    -124.085000   67.143800  -39.362500
  C    -124.694000   66.405000  -38.433000
  H    -124.584000   67.849800  -40.085400
  C    -121.970000   67.116800  -40.799000
  H    -122.436000   66.712200  -41.700800
  H    -120.941000   66.818100  -40.715900
  C    -121.998000   68.675500  -40.953900
  H    -121.256000   68.911800  -41.657900
  H    -122.880000   68.881600  -41.490600
  C    -121.799000   69.476200  -39.592600
  H    -122.814000   69.325600  -39.029800
  H    -121.071000   69.129600  -38.840800
  H    -121.664000   70.510900  -39.755700
  S    -127.067000   65.105200  -38.711000
  C    -128.522000   65.826200  -37.975400
  C    -128.296000   67.096900  -37.442200
  C    -126.938000   67.499700  -37.554500
  C    -126.154000   66.458900  -38.142300
  H    -129.110000   67.602300  -37.012600
  C    -126.436000   68.721000  -36.899900
  H    -125.396000   68.864000  -37.228200
  H    -126.401000   68.523400  -35.781100
  C    -127.081000   70.105100  -37.086400
  H    -128.148000   69.913100  -36.938700
  H    -126.956000   70.428300  -38.129700
  C    -126.489000   71.134000  -36.075800
  H    -125.373000   71.300100  -36.200200
  H    -126.866000   71.054500  -35.075900
  H    -126.811000   72.132600  -36.439500
  H    -121.378000   65.186300  -38.711500
  H    -129.492000   65.385200  -37.948400

 Total Charge           Charge          ....    0
 Multiplicity           Mult            ....    1
 Number of Electrons    NEL             ....  134
 Basis Dimension        Dim             ....  322

ORBITAL ENERGIES
----------------

  NO   OCC          E(Eh)            E(eV)
   0   2.0000     -88.970287     -2421.0046
   1   2.0000     -88.959902     -2420.7220
   2   2.0000     -10.327819      -281.0342
   3   2.0000     -10.325016      -280.9580
   4   2.0000     -10.316659      -280.7306
   5   2.0000     -10.311720      -280.5962
   6   2.0000     -10.304656      -280.4039
   7   2.0000     -10.299955      -280.2760
   8   2.0000     -10.292296      -280.0676
   9   2.0000     -10.291856      -280.0556
  10   2.0000     -10.291138      -280.0361
  11   2.0000     -10.289430      -279.9896
  12   2.0000     -10.287775      -279.9446
  13   2.0000     -10.287004      -279.9236
  14   2.0000     -10.283830      -279.8372
  15   2.0000     -10.283713      -279.8340
  16   2.0000      -8.084548      -219.9917
  17   2.0000      -8.075087      -219.7343
  18   2.0000      -6.042982      -164.4379
  19   2.0000      -6.039157      -164.3338
  20   2.0000      -6.035387      -164.2312
  21   2.0000      -6.033732      -164.1862
  22   2.0000      -6.029628      -164.0745
  23   2.0000      -6.025565      -163.9640
  24   2.0000      -1.007394       -27.4126
  25   2.0000      -0.981961       -26.7205
  26   2.0000      -0.910269       -24.7697
  27   2.0000      -0.906414       -24.6648
  28   2.0000      -0.864570       -23.5261
  29   2.0000      -0.850495       -23.1432
  30   2.0000      -0.835359       -22.7313
  31   2.0000      -0.816137       -22.2082
  32   2.0000      -0.781566       -21.2675
  33   2.0000      -0.768527       -20.9127
  34   2.0000      -0.709387       -19.3034
  35   2.0000      -0.699982       -19.0475
  36   2.0000      -0.692881       -18.8543
  37   2.0000      -0.657157       -17.8822
  38   2.0000      -0.637062       -17.3353
  39   2.0000      -0.624794       -17.0015
  40   2.0000      -0.594865       -16.1871
  41   2.0000      -0.569953       -15.5092
  42   2.0000      -0.560183       -15.2434
  43   2.0000      -0.554378       -15.0854
  44   2.0000      -0.533760       -14.5244
  45   2.0000      -0.517873       -14.0920
  46   2.0000      -0.514032       -13.9875
  47   2.0000      -0.508206       -13.8290
  48   2.0000      -0.504113       -13.7176
  49   2.0000      -0.498511       -13.5652
  50   2.0000      -0.487690       -13.2707
  51   2.0000      -0.479699       -13.0533
  52   2.0000      -0.468266       -12.7422
  53   2.0000      -0.462765       -12.5925
  54   2.0000      -0.458122       -12.4661
  55   2.0000      -0.450427       -12.2567
  56   2.0000      -0.442053       -12.0289
  57   2.0000      -0.438967       -11.9449
  58   2.0000      -0.433207       -11.7882
  59   2.0000      -0.428467       -11.6592
  60   2.0000      -0.418780       -11.3956
  61   2.0000      -0.410484       -11.1699
  62   2.0000      -0.407072       -11.0770
  63   2.0000      -0.341094        -9.2816
  64   2.0000      -0.329405        -8.9636
  65   2.0000      -0.322722        -8.7817
  66   2.0000      -0.298103        -8.1118
  67   0.0000       0.037697         1.0258
  68   0.0000       0.064811         1.7636
  69   0.0000       0.106126         2.8878
  70   0.0000       0.114549         3.1170
  71   0.0000       0.123283         3.3547

MULLIKEN ATOMIC CHARGES
-----------------------
   0 S :    0.088571
   1 C :   -0.116074
   2 C :   -0.143291
   3 C :    0.029204
   4 C :   -0.145817
   5 H :    0.040918
   6 C :    0.097599
   7 H :    0.045926
   8 H :    0.013540
   9 C :   -0.078401
  10 H :    0.015756
  11 H :    0.016291
  12 C :   -0.061719
  13 H :    0.040308
  14 H :    0.046133
  15 H :    0.033700
  16 S :    0.124928
  17 C :   -0.088175
  18 C :   -0.030868
  19 C :    0.027606
  20 C :   -0.177426
  21 H :    0.005233
  22 C :    0.005302
  23 H :    0.022371
  24 H :    0.050813
  25 C :   -0.076134
  26 H :    0.023854
  27 H :    0.033267
  28 C :   -0.058205
  29 H :    0.046416
  30 H :    0.045582
  31 H :    0.024698
  32 H :    0.054558
  33 H :    0.043536
Sum of atomic charges:    0.0000000

LOEWDIN ATOMIC CHARGES
----------------------
   0 S :    0.393148
   1 C :   -0.192491
   2 C :   -0.055134
   3 C :   -0.076463
   4 C :   -0.201601
   5 H :    0.044587
   6 C :   -0.023489
   7 H :    0.036528
   8 H :    0.024490
   9 C :   -0.036266
  10 H :    0.016163
  11 H :    0.015576
  12 C :   -0.074072
  13 H :    0.038955
  14 H :    0.031592
  15 H :    0.017667
  16 S :    0.412909
  17 C :   -0.174355
  18 C :   -0.060838
  19 C :   -0.057412
  20 C :   -0.203937
  21 H :    0.024776
  22 C :   -0.048783
  23 H :    0.029027
  24 H :    0.042868
  25 C :   -0.038603
  26 H :    0.020120
  27 H :    0.025801
  28 C :   -0.071302
  29 H :    0.037362
  30 H :    0.025078
  31 H :    0.030151
  32 H :    0.026250
  33 H :    0.021699

  Mayer bond orders larger than 0.100000
B(  0-S ,  1-C ) :   1.0988 B(  0-S ,  4-C ) :   1.1677 B(  1-C ,  2-C ) :   1.6565
B(  1-C , 32-H ) :   0.9685 B(  2-C ,  3-C ) :   1.1954 B(  2-C ,  6-C ) :   1.0386
B(  3-C ,  4-C ) :   1.6123 B(  3-C ,  5-H ) :   0.9833 B(  4-C , 20-C ) :   0.9817
B(  6-C ,  7-H ) :   0.9427 B(  6-C ,  8-H ) :   0.9386 B(  6-C ,  9-C ) :   1.0603
B(  9-C , 10-H ) :   0.9601 B(  9-C , 11-H ) :   0.9540 B(  9-C , 12-C ) :   1.0659
B( 12-C , 13-H ) :   0.9650 B( 12-C , 14-H ) :   0.9766 B( 12-C , 15-H ) :   0.9765
B( 16-S , 17-C ) :   1.1449 B( 16-S , 20-C ) :   1.1734 B( 17-C , 18-C ) :   1.6200
B( 17-C , 20-C ) :   0.1047 B( 17-C , 33-H ) :   0.9692 B( 18-C , 19-C ) :   1.2275
B( 18-C , 21-H ) :   0.9959 B( 19-C , 20-C ) :   1.5686 B( 19-C , 22-C ) :   1.0611
B( 22-C , 23-H ) :   0.9259 B( 22-C , 24-H ) :   0.9379 B( 22-C , 25-C ) :   1.0534
B( 25-C , 26-H ) :   0.9569 B( 25-C , 27-H ) :   0.9564 B( 25-C , 28-C ) :   1.0825
B( 28-C , 29-H ) :   0.9721 B( 28-C , 30-H ) :   0.9750 B( 28-C , 31-H ) :   0.9717

Dispersion correction           -0.014488682
FINAL SINGLE POINT ENERGY     -1339.859499026976

DIPOLE MOMENT
-------------
                                X             Y             Z
Electronic contribution:     -6.83000     -27.63870       1.05588
Nuclear contribution   :      6.77480      28.14584      -1.37481
                        -----------------------------------------
Total Dipole Moment    :     -0.05520       0.50715      -0.31893
                        -----------------------------------------
Magnitude (a.u.)       :      0.60163
Magnitude (Debye)      :      1.52923

Rotational constants in cm-1:     0.016020     0.009973     0.007115
Rotational constants in MHz :   480.282250   298.993119   213.289514

                             ****ORCA TERMINATED NORMALLY****
TOTAL RUN TIME: 0 days 0 hours 0 minutes 21 seconds 891 msec
