                         Program Version 4.2.1 -  RELEASE  -
|  1> ! wB97X-D3 SP def2-SVP
|  2> %pal
|  3> nprocs 24
|  4> end
|  5>
|  6> * xyz 0 1
|  7> S 	 -106.663 	 58.4344 	 -7.48714
|  8> C 	 -105.612 	 59.7926 	 -6.93745
|  9> C 	 -106.382 	 60.8402 	 -6.63245
| 10> C 	 -107.773 	 60.4265 	 -6.53826
| 11> C 	 -108.056 	 59.1101 	 -6.85661
| 12> H 	 -108.676 	 61.1089 	 -6.28753
| 13> C 	 -105.845 	 62.2204 	 -6.32563
| 14> H 	 -105.051 	 62.5251 	 -6.99586
| 15> H 	 -105.319 	 62.2017 	 -5.38008
| 16> C 	 -106.826 	 63.3932 	 -6.25876
| 17> H 	 -107.369 	 63.4288 	 -7.2258
| 18> H 	 -107.551 	 63.1163 	 -5.48256
| 19> C 	 -106.153 	 64.6986 	 -5.86213
| 20> H 	 -106.723 	 65.5585 	 -6.21869
| 21> H 	 -106.185 	 64.7884 	 -4.72904
| 22> H 	 -105.124 	 64.6832 	 -6.20005
| 23> S 	 -109.808 	 57.8343 	 -8.49677
| 24> C 	 -111.392 	 57.3685 	 -7.90915
| 25> C 	 -111.696 	 57.96 	 -6.67188
| 26> C 	 -110.57 	 58.7065 	 -6.15468
| 27> C 	 -109.435 	 58.5942 	 -6.98095
| 28> H 	 -112.656 	 57.8846 	 -6.19
| 29> C 	 -110.892 	 59.6628 	 -5.00852
| 30> H 	 -109.962 	 59.971 	 -4.34937
| 31> H 	 -111.469 	 59.0721 	 -4.2737
| 32> C 	 -111.706 	 60.7641 	 -5.50382
| 33> H 	 -112.556 	 60.4261 	 -5.96833
| 34> H 	 -111.062 	 61.2283 	 -6.27805
| 35> C 	 -112.134 	 61.8791 	 -4.49424
| 36> H 	 -111.317 	 62.5177 	 -4.12394
| 37> H 	 -112.58 	 61.5128 	 -3.5032
| 38> H 	 -112.921 	 62.4746 	 -4.87221
| 39> H 	 -104.551 	 59.8102 	 -6.98711
| 40> H 	 -112.073 	 56.6856 	 -8.42683
| 41> *
| 42>
| 43>                          ****END OF INPUT****

CARTESIAN COORDINATES (ANGSTROEM)
---------------------------------
  S    -106.663000   58.434400   -7.487140
  C    -105.612000   59.792600   -6.937450
  C    -106.382000   60.840200   -6.632450
  C    -107.773000   60.426500   -6.538260
  C    -108.056000   59.110100   -6.856610
  H    -108.676000   61.108900   -6.287530
  C    -105.845000   62.220400   -6.325630
  H    -105.051000   62.525100   -6.995860
  H    -105.319000   62.201700   -5.380080
  C    -106.826000   63.393200   -6.258760
  H    -107.369000   63.428800   -7.225800
  H    -107.551000   63.116300   -5.482560
  C    -106.153000   64.698600   -5.862130
  H    -106.723000   65.558500   -6.218690
  H    -106.185000   64.788400   -4.729040
  H    -105.124000   64.683200   -6.200050
  S    -109.808000   57.834300   -8.496770
  C    -111.392000   57.368500   -7.909150
  C    -111.696000   57.960000   -6.671880
  C    -110.570000   58.706500   -6.154680
  C    -109.435000   58.594200   -6.980950
  H    -112.656000   57.884600   -6.190000
  C    -110.892000   59.662800   -5.008520
  H    -109.962000   59.971000   -4.349370
  H    -111.469000   59.072100   -4.273700
  C    -111.706000   60.764100   -5.503820
  H    -112.556000   60.426100   -5.968330
  H    -111.062000   61.228300   -6.278050
  C    -112.134000   61.879100   -4.494240
  H    -111.317000   62.517700   -4.123940
  H    -112.580000   61.512800   -3.503200
  H    -112.921000   62.474600   -4.872210
  H    -104.551000   59.810200   -6.987110
  H    -112.073000   56.685600   -8.426830

 Total Charge           Charge          ....    0
 Multiplicity           Mult            ....    1
 Number of Electrons    NEL             ....  134
 Basis Dimension        Dim             ....  322

ORBITAL ENERGIES
----------------

  NO   OCC          E(Eh)            E(eV)
   0   2.0000     -88.968804     -2420.9642
   1   2.0000     -88.963046     -2420.8076
   2   2.0000     -10.332783      -281.1693
   3   2.0000     -10.326467      -280.9974
   4   2.0000     -10.321218      -280.8546
   5   2.0000     -10.311693      -280.5954
   6   2.0000     -10.307976      -280.4943
   7   2.0000     -10.302692      -280.3505
   8   2.0000     -10.298761      -280.2435
   9   2.0000     -10.298638      -280.2402
  10   2.0000     -10.298294      -280.2308
  11   2.0000     -10.291174      -280.0371
  12   2.0000     -10.287956      -279.9495
  13   2.0000     -10.285486      -279.8823
  14   2.0000     -10.284232      -279.8482
  15   2.0000     -10.282603      -279.8039
  16   2.0000      -8.083642      -219.9671
  17   2.0000      -8.078690      -219.8323
  18   2.0000      -6.042127      -164.4146
  19   2.0000      -6.038199      -164.3077
  20   2.0000      -6.037264      -164.2823
  21   2.0000      -6.034369      -164.2035
  22   2.0000      -6.033194      -164.1715
  23   2.0000      -6.029159      -164.0617
  24   2.0000      -1.012088       -27.5403
  25   2.0000      -0.986603       -26.8468
  26   2.0000      -0.920619       -25.0513
  27   2.0000      -0.916224       -24.9317
  28   2.0000      -0.874590       -23.7988
  29   2.0000      -0.847381       -23.0584
  30   2.0000      -0.840946       -22.8833
  31   2.0000      -0.809792       -22.0356
  32   2.0000      -0.784383       -21.3442
  33   2.0000      -0.777720       -21.1628
  34   2.0000      -0.709895       -19.3172
  35   2.0000      -0.698579       -19.0093
  36   2.0000      -0.688017       -18.7219
  37   2.0000      -0.664795       -18.0900
  38   2.0000      -0.641178       -17.4473
  39   2.0000      -0.612562       -16.6687
  40   2.0000      -0.597225       -16.2513
  41   2.0000      -0.573778       -15.6133
  42   2.0000      -0.570995       -15.5376
  43   2.0000      -0.567898       -15.4533
  44   2.0000      -0.529628       -14.4119
  45   2.0000      -0.526203       -14.3187
  46   2.0000      -0.519186       -14.1278
  47   2.0000      -0.506425       -13.7805
  48   2.0000      -0.505120       -13.7450
  49   2.0000      -0.501760       -13.6536
  50   2.0000      -0.494371       -13.4525
  51   2.0000      -0.482117       -13.1191
  52   2.0000      -0.467944       -12.7334
  53   2.0000      -0.465188       -12.6584
  54   2.0000      -0.458470       -12.4756
  55   2.0000      -0.455384       -12.3916
  56   2.0000      -0.452288       -12.3074
  57   2.0000      -0.437583       -11.9072
  58   2.0000      -0.428613       -11.6631
  59   2.0000      -0.423410       -11.5216
  60   2.0000      -0.421068       -11.4579
  61   2.0000      -0.413576       -11.2540
  62   2.0000      -0.410724       -11.1764
  63   2.0000      -0.349830        -9.5194
  64   2.0000      -0.331065        -9.0087
  65   2.0000      -0.326184        -8.8759
  66   2.0000      -0.289973        -7.8906
  67   0.0000       0.026771         0.7285
  68   0.0000       0.072705         1.9784
  69   0.0000       0.099980         2.7206
  70   0.0000       0.118625         3.2279
  71   0.0000       0.125186         3.4065

MULLIKEN ATOMIC CHARGES
-----------------------
   0 S :    0.089015
   1 C :   -0.125077
   2 C :   -0.021567
   3 C :   -0.058408
   4 C :   -0.079375
   5 H :    0.040548
   6 C :    0.038995
   7 H :    0.020998
   8 H :    0.030729
   9 C :   -0.114709
  10 H :    0.041138
  11 H :    0.035732
  12 C :   -0.032708
  13 H :    0.040105
  14 H :    0.039744
  15 H :    0.032960
  16 S :    0.113140
  17 C :   -0.100693
  18 C :   -0.041453
  19 C :   -0.036981
  20 C :   -0.166089
  21 H :    0.025015
  22 C :    0.010806
  23 H :    0.048363
  24 H :    0.018335
  25 C :   -0.024910
  26 H :    0.008433
  27 H :    0.030021
  28 C :   -0.048630
  29 H :    0.034774
  30 H :    0.024613
  31 H :    0.030145
  32 H :    0.032896
  33 H :    0.064094
Sum of atomic charges:   -0.0000000

LOEWDIN ATOMIC CHARGES
----------------------
   0 S :    0.410065
   1 C :   -0.168425
   2 C :   -0.061539
   3 C :   -0.081277
   4 C :   -0.222469
   5 H :    0.039511
   6 C :   -0.036964
   7 H :    0.027425
   8 H :    0.033161
   9 C :   -0.048251
  10 H :    0.025779
  11 H :    0.023481
  12 C :   -0.064199
  13 H :    0.030233
  14 H :    0.035140
  15 H :    0.023250
  16 S :    0.413689
  17 C :   -0.189923
  18 C :   -0.064000
  19 C :   -0.055044
  20 C :   -0.195114
  21 H :    0.031695
  22 C :   -0.044398
  23 H :    0.040281
  24 H :    0.026966
  25 C :   -0.038168
  26 H :    0.015224
  27 H :    0.030481
  28 C :   -0.069318
  29 H :    0.026200
  30 H :    0.029983
  31 H :    0.021179
  32 H :    0.024253
  33 H :    0.031094

  Mayer bond orders larger than 0.100000
B(  0-S ,  1-C ) :   1.1194 B(  0-S ,  4-C ) :   1.1591 B(  1-C ,  2-C ) :   1.6241
B(  1-C , 32-H ) :   0.9826 B(  2-C ,  3-C ) :   1.2345 B(  2-C ,  6-C ) :   1.0108
B(  3-C ,  4-C ) :   1.5535 B(  3-C ,  5-H ) :   0.9739 B(  4-C , 20-C ) :   1.0288
B(  6-C ,  7-H ) :   0.9361 B(  6-C ,  8-H ) :   0.9371 B(  6-C ,  9-C ) :   1.0787
B(  9-C , 10-H ) :   0.9607 B(  9-C , 11-H ) :   0.9492 B(  9-C , 12-C ) :   1.0757
B( 12-C , 13-H ) :   0.9723 B( 12-C , 14-H ) :   0.9739 B( 12-C , 15-H ) :   0.9763
B( 16-S , 17-C ) :   1.1537 B( 16-S , 20-C ) :   1.1552 B( 17-C , 18-C ) :   1.5955
B( 17-C , 33-H ) :   0.9677 B( 18-C , 19-C ) :   1.2387 B( 18-C , 21-H ) :   0.9891
B( 19-C , 20-C ) :   1.5987 B( 19-C , 22-C ) :   1.0499 B( 22-C , 23-H ) :   0.9379
B( 22-C , 24-H ) :   0.9233 B( 22-C , 25-C ) :   1.0702 B( 25-C , 26-H ) :   0.9461
B( 25-C , 27-H ) :   0.9472 B( 25-C , 28-C ) :   1.0763 B( 28-C , 29-H ) :   0.9757
B( 28-C , 30-H ) :   0.9732 B( 28-C , 31-H ) :   0.9761

Dispersion correction           -0.013886151
FINAL SINGLE POINT ENERGY     -1339.855174796976

DIPOLE MOMENT
-------------
                                X             Y             Z
Electronic contribution:      5.33285     -28.33313     -15.67958
Nuclear contribution   :     -5.56867      29.01228      15.95999
                        -----------------------------------------
Total Dipole Moment    :     -0.23581       0.67914       0.28041
                        -----------------------------------------
Magnitude (a.u.)       :      0.77167
Magnitude (Debye)      :      1.96142

Rotational constants in cm-1:     0.016358     0.009590     0.006475
Rotational constants in MHz :   490.407093   287.504601   194.103050

                             ****ORCA TERMINATED NORMALLY****
TOTAL RUN TIME: 0 days 0 hours 0 minutes 21 seconds 583 msec
