                         Program Version 4.2.1 -  RELEASE  -
|  1> ! wB97X-D3 SP def2-SVP
|  2> %pal
|  3> nprocs 24
|  4> end
|  5>
|  6> * xyz 0 1
|  7> S 	 -101 	 3.5536 	 -120.443
|  8> C 	 -101.415 	 3.14042 	 -122.045
|  9> C 	 -100.4 	 2.34546 	 -122.614
| 10> C 	 -99.3763 	 2.08344 	 -121.671
| 11> C 	 -99.426 	 2.83832 	 -120.5
| 12> H 	 -98.6049 	 1.38373 	 -121.834
| 13> C 	 -100.408 	 1.86642 	 -124.064
| 14> H 	 -99.8966 	 2.54635 	 -124.716
| 15> H 	 -101.458 	 1.89269 	 -124.443
| 16> C 	 -99.7079 	 0.442607 	 -124.192
| 17> H 	 -98.6792 	 0.437154 	 -123.928
| 18> H 	 -100.203 	 -0.359817 	 -123.592
| 19> C 	 -99.8128 	 -0.0483482 	 -125.676
| 20> H 	 -100.853 	 -0.0324686 	 -125.98
| 21> H 	 -99.2089 	 0.618552 	 -126.321
| 22> H 	 -99.3483 	 -0.986536 	 -125.723
| 23> S 	 -98.8475 	 2.55958 	 -117.875
| 24> C 	 -97.2022 	 2.4619 	 -117.285
| 25> C 	 -96.2827 	 2.55423 	 -118.301
| 26> C 	 -96.9386 	 2.79667 	 -119.566
| 27> C 	 -98.3684 	 2.88065 	 -119.477
| 28> H 	 -95.183 	 2.64856 	 -118.141
| 29> C 	 -96.1871 	 3.0835 	 -120.811
| 30> H 	 -96.7667 	 3.03902 	 -121.708
| 31> H 	 -95.462 	 2.27118 	 -120.832
| 32> C 	 -95.5934 	 4.48742 	 -120.83
| 33> H 	 -94.9111 	 4.64408 	 -120.032
| 34> H 	 -96.4256 	 5.22301 	 -120.791
| 35> C 	 -94.6623 	 4.68593 	 -122.086
| 36> H 	 -93.9763 	 3.85823 	 -122.214
| 37> H 	 -93.9934 	 5.58648 	 -122.097
| 38> H 	 -95.2323 	 4.71885 	 -122.978
| 39> H 	 -102.328 	 3.46418 	 -122.525
| 40> H 	 -96.8624 	 2.3477 	 -116.239
| 41> *
| 42>
| 43>                          ****END OF INPUT****

CARTESIAN COORDINATES (ANGSTROEM)
---------------------------------
  S    -101.000000    3.553600  -120.443000
  C    -101.415000    3.140420  -122.045000
  C    -100.400000    2.345460  -122.614000
  C    -99.376300    2.083440  -121.671000
  C    -99.426000    2.838320  -120.500000
  H    -98.604900    1.383730  -121.834000
  C    -100.408000    1.866420  -124.064000
  H    -99.896600    2.546350  -124.716000
  H    -101.458000    1.892690  -124.443000
  C    -99.707900    0.442607  -124.192000
  H    -98.679200    0.437154  -123.928000
  H    -100.203000   -0.359817  -123.592000
  C    -99.812800   -0.048348  -125.676000
  H    -100.853000   -0.032469  -125.980000
  H    -99.208900    0.618552  -126.321000
  H    -99.348300   -0.986536  -125.723000
  S    -98.847500    2.559580  -117.875000
  C    -97.202200    2.461900  -117.285000
  C    -96.282700    2.554230  -118.301000
  C    -96.938600    2.796670  -119.566000
  C    -98.368400    2.880650  -119.477000
  H    -95.183000    2.648560  -118.141000
  C    -96.187100    3.083500  -120.811000
  H    -96.766700    3.039020  -121.708000
  H    -95.462000    2.271180  -120.832000
  C    -95.593400    4.487420  -120.830000
  H    -94.911100    4.644080  -120.032000
  H    -96.425600    5.223010  -120.791000
  C    -94.662300    4.685930  -122.086000
  H    -93.976300    3.858230  -122.214000
  H    -93.993400    5.586480  -122.097000
  H    -95.232300    4.718850  -122.978000
  H    -102.328000    3.464180  -122.525000
  H    -96.862400    2.347700  -116.239000

 Total Charge           Charge          ....    0
 Multiplicity           Mult            ....    1
 Number of Electrons    NEL             ....  134
 Basis Dimension        Dim             ....  322

ORBITAL ENERGIES
----------------

  NO   OCC          E(Eh)            E(eV)
   0   2.0000     -88.966048     -2420.8892
   1   2.0000     -88.965504     -2420.8744
   2   2.0000     -10.330111      -281.0966
   3   2.0000     -10.328622      -281.0561
   4   2.0000     -10.320364      -280.8314
   5   2.0000     -10.312796      -280.6254
   6   2.0000     -10.306560      -280.4558
   7   2.0000     -10.301397      -280.3153
   8   2.0000     -10.299849      -280.2731
   9   2.0000     -10.299763      -280.2708
  10   2.0000     -10.292357      -280.0693
  11   2.0000     -10.288108      -279.9536
  12   2.0000     -10.286292      -279.9042
  13   2.0000     -10.283525      -279.8289
  14   2.0000     -10.276490      -279.6375
  15   2.0000     -10.276371      -279.6343
  16   2.0000      -8.081645      -219.9127
  17   2.0000      -8.081043      -219.8964
  18   2.0000      -6.040052      -164.3582
  19   2.0000      -6.039522      -164.3438
  20   2.0000      -6.035836      -164.2435
  21   2.0000      -6.035281      -164.2283
  22   2.0000      -6.032659      -164.1570
  23   2.0000      -6.031939      -164.1374
  24   2.0000      -1.010176       -27.4883
  25   2.0000      -0.988557       -26.9000
  26   2.0000      -0.911612       -24.8062
  27   2.0000      -0.904356       -24.6088
  28   2.0000      -0.871368       -23.7111
  29   2.0000      -0.849163       -23.1069
  30   2.0000      -0.844382       -22.9768
  31   2.0000      -0.816788       -22.2259
  32   2.0000      -0.778029       -21.1713
  33   2.0000      -0.765588       -20.8327
  34   2.0000      -0.711147       -19.3513
  35   2.0000      -0.700494       -19.0614
  36   2.0000      -0.690133       -18.7795
  37   2.0000      -0.659220       -17.9383
  38   2.0000      -0.641954       -17.4685
  39   2.0000      -0.623366       -16.9627
  40   2.0000      -0.596862       -16.2414
  41   2.0000      -0.570511       -15.5244
  42   2.0000      -0.565612       -15.3911
  43   2.0000      -0.563834       -15.3427
  44   2.0000      -0.530213       -14.4278
  45   2.0000      -0.518713       -14.1149
  46   2.0000      -0.513511       -13.9733
  47   2.0000      -0.508116       -13.8265
  48   2.0000      -0.504727       -13.7343
  49   2.0000      -0.503124       -13.6907
  50   2.0000      -0.495367       -13.4796
  51   2.0000      -0.479941       -13.0599
  52   2.0000      -0.470998       -12.8165
  53   2.0000      -0.464598       -12.6424
  54   2.0000      -0.460385       -12.5277
  55   2.0000      -0.449349       -12.2274
  56   2.0000      -0.446384       -12.1467
  57   2.0000      -0.441037       -12.0012
  58   2.0000      -0.436541       -11.8789
  59   2.0000      -0.429410       -11.6848
  60   2.0000      -0.421555       -11.4711
  61   2.0000      -0.416219       -11.3259
  62   2.0000      -0.407494       -11.0885
  63   2.0000      -0.353536        -9.6202
  64   2.0000      -0.329397        -8.9633
  65   2.0000      -0.323378        -8.7996
  66   2.0000      -0.286619        -7.7993
  67   0.0000       0.026363         0.7174
  68   0.0000       0.077308         2.1036
  69   0.0000       0.112430         3.0594
  70   0.0000       0.121763         3.3133
  71   0.0000       0.137462         3.7405

MULLIKEN ATOMIC CHARGES
-----------------------
   0 S :    0.119492
   1 C :   -0.124398
   2 C :   -0.083487
   3 C :    0.022245
   4 C :   -0.137043
   5 H :    0.000824
   6 C :    0.074929
   7 H :    0.035354
   8 H :    0.025326
   9 C :   -0.138888
  10 H :    0.036586
  11 H :    0.045944
  12 C :   -0.020991
  13 H :    0.035499
  14 H :    0.025783
  15 H :    0.024208
  16 S :    0.108817
  17 C :   -0.097590
  18 C :   -0.035566
  19 C :   -0.086692
  20 C :   -0.119371
  21 H :    0.041569
  22 C :    0.062320
  23 H :    0.012961
  24 H :    0.022346
  25 C :   -0.054752
  26 H :    0.018140
  27 H :    0.046156
  28 C :   -0.054306
  29 H :    0.019129
  30 H :    0.039382
  31 H :    0.019940
  32 H :    0.049329
  33 H :    0.066804
Sum of atomic charges:   -0.0000000

LOEWDIN ATOMIC CHARGES
----------------------
   0 S :    0.435711
   1 C :   -0.214255
   2 C :   -0.065869
   3 C :   -0.060673
   4 C :   -0.209666
   5 H :    0.021323
   6 C :   -0.027340
   7 H :    0.029335
   8 H :    0.033753
   9 C :   -0.037117
  10 H :    0.017127
  11 H :    0.029839
  12 C :   -0.058160
  13 H :    0.024073
  14 H :    0.024300
  15 H :    0.018119
  16 S :    0.430555
  17 C :   -0.190722
  18 C :   -0.077062
  19 C :   -0.052710
  20 C :   -0.217728
  21 H :    0.042410
  22 C :   -0.037168
  23 H :    0.025745
  24 H :    0.030835
  25 C :   -0.028831
  26 H :    0.015663
  27 H :    0.032833
  28 C :   -0.069455
  29 H :    0.021774
  30 H :    0.030648
  31 H :    0.015930
  32 H :    0.028710
  33 H :    0.038072

  Mayer bond orders larger than 0.100000
B(  0-S ,  1-C ) :   1.1685 B(  0-S ,  4-C ) :   1.1742 B(  1-C ,  2-C ) :   1.5498
B(  1-C ,  4-C ) :   0.1060 B(  1-C , 32-H ) :   0.9750 B(  2-C ,  3-C ) :   1.2975
B(  2-C ,  6-C ) :   1.0200 B(  3-C ,  4-C ) :   1.5095 B(  3-C ,  5-H ) :   0.9995
B(  4-C , 20-C ) :   1.0328 B(  6-C ,  7-H ) :   0.9374 B(  6-C ,  8-H ) :   0.9456
B(  6-C ,  9-C ) :   1.0576 B(  9-C , 10-H ) :   0.9517 B(  9-C , 11-H ) :   0.9641
B(  9-C , 12-C ) :   1.0874 B( 12-C , 13-H ) :   0.9777 B( 12-C , 14-H ) :   0.9752
B( 12-C , 15-H ) :   0.9737 B( 16-S , 17-C ) :   1.1705 B( 16-S , 20-C ) :   1.1540
B( 17-C , 18-C ) :   1.5927 B( 17-C , 33-H ) :   0.9620 B( 18-C , 19-C ) :   1.2687
B( 18-C , 21-H ) :   0.9801 B( 19-C , 20-C ) :   1.5542 B( 19-C , 22-C ) :   1.0587
B( 22-C , 23-H ) :   0.9384 B( 22-C , 24-H ) :   0.9260 B( 22-C , 25-C ) :   1.0640
B( 25-C , 26-H ) :   0.9597 B( 25-C , 27-H ) :   0.9561 B( 25-C , 28-C ) :   1.0684
B( 28-C , 29-H ) :   0.9743 B( 28-C , 30-H ) :   0.9776 B( 28-C , 31-H ) :   0.9775

Dispersion correction           -0.013639923
FINAL SINGLE POINT ENERGY     -1339.875795492246

DIPOLE MOMENT
-------------
                                X             Y             Z
Electronic contribution:    -14.99767       4.22636      26.10725
Nuclear contribution   :     15.46326      -4.40893     -26.62165
                        -----------------------------------------
Total Dipole Moment    :      0.46559      -0.18256      -0.51440
                        -----------------------------------------
Magnitude (a.u.)       :      0.71743
Magnitude (Debye)      :      1.82356

Rotational constants in cm-1:     0.016292     0.008730     0.006776
Rotational constants in MHz :   488.413918   261.715793   203.152501

                             ****ORCA TERMINATED NORMALLY****
TOTAL RUN TIME: 0 days 0 hours 0 minutes 21 seconds 244 msec
