                         Program Version 4.2.1 -  RELEASE  -
|  1> ! wB97X-D3 SP def2-SVP
|  2> %pal
|  3> nprocs 24
|  4> end
|  5>
|  6> * xyz 0 1
|  7> S 	 28.0232 	 -9.61407 	 -116.602
|  8> C 	 29.6606 	 -9.21984 	 -117.039
|  9> C 	 30.4927 	 -8.99437 	 -115.896
| 10> C 	 29.7918 	 -9.35058 	 -114.685
| 11> C 	 28.3969 	 -9.53896 	 -114.879
| 12> H 	 30.3054 	 -9.285 	 -113.755
| 13> C 	 31.9667 	 -8.70409 	 -115.925
| 14> H 	 32.0237 	 -7.81952 	 -115.355
| 15> H 	 32.3397 	 -8.40448 	 -116.919
| 16> C 	 32.8812 	 -9.76227 	 -115.305
| 17> H 	 33.8993 	 -9.48205 	 -115.556
| 18> H 	 32.8475 	 -9.77871 	 -114.232
| 19> C 	 32.6854 	 -11.1875 	 -115.821
| 20> H 	 33.4874 	 -11.7957 	 -115.495
| 21> H 	 31.7681 	 -11.6627 	 -115.419
| 22> H 	 32.7365 	 -11.0017 	 -116.902
| 23> S 	 25.9098 	 -10.7888 	 -114.364
| 24> C 	 25.2927 	 -10.8855 	 -112.764
| 25> C 	 26.0926 	 -10.1434 	 -111.896
| 26> C 	 27.2651 	 -9.65554 	 -112.515
| 27> C 	 27.3732 	 -9.87766 	 -113.869
| 28> H 	 25.9498 	 -10.0886 	 -110.752
| 29> C 	 28.3892 	 -9.11217 	 -111.63
| 30> H 	 28.1316 	 -8.5279 	 -110.796
| 31> H 	 28.7957 	 -8.32765 	 -112.35
| 32> C 	 29.3825 	 -10.1409 	 -111.273
| 33> H 	 29.6016 	 -10.7675 	 -112.135
| 34> H 	 29.003 	 -10.6706 	 -110.383
| 35> C 	 30.6246 	 -9.3699 	 -110.888
| 36> H 	 30.5235 	 -8.8319 	 -109.908
| 37> H 	 30.8488 	 -8.59629 	 -111.646
| 38> H 	 31.491 	 -10.0352 	 -110.783
| 39> H 	 29.9912 	 -9.10867 	 -118.084
| 40> H 	 24.4155 	 -11.5082 	 -112.499
| 41> *
| 42>
| 43>                          ****END OF INPUT****

CARTESIAN COORDINATES (ANGSTROEM)
---------------------------------
  S     28.023200   -9.614070  -116.602000
  C     29.660600   -9.219840  -117.039000
  C     30.492700   -8.994370  -115.896000
  C     29.791800   -9.350580  -114.685000
  C     28.396900   -9.538960  -114.879000
  H     30.305400   -9.285000  -113.755000
  C     31.966700   -8.704090  -115.925000
  H     32.023700   -7.819520  -115.355000
  H     32.339700   -8.404480  -116.919000
  C     32.881200   -9.762270  -115.305000
  H     33.899300   -9.482050  -115.556000
  H     32.847500   -9.778710  -114.232000
  C     32.685400  -11.187500  -115.821000
  H     33.487400  -11.795700  -115.495000
  H     31.768100  -11.662700  -115.419000
  H     32.736500  -11.001700  -116.902000
  S     25.909800  -10.788800  -114.364000
  C     25.292700  -10.885500  -112.764000
  C     26.092600  -10.143400  -111.896000
  C     27.265100   -9.655540  -112.515000
  C     27.373200   -9.877660  -113.869000
  H     25.949800  -10.088600  -110.752000
  C     28.389200   -9.112170  -111.630000
  H     28.131600   -8.527900  -110.796000
  H     28.795700   -8.327650  -112.350000
  C     29.382500  -10.140900  -111.273000
  H     29.601600  -10.767500  -112.135000
  H     29.003000  -10.670600  -110.383000
  C     30.624600   -9.369900  -110.888000
  H     30.523500   -8.831900  -109.908000
  H     30.848800   -8.596290  -111.646000
  H     31.491000  -10.035200  -110.783000
  H     29.991200   -9.108670  -118.084000
  H     24.415500  -11.508200  -112.499000

 Total Charge           Charge          ....    0
 Multiplicity           Mult            ....    1
 Number of Electrons    NEL             ....  134
 Basis Dimension        Dim             ....  322

ORBITAL ENERGIES
----------------

  NO   OCC          E(Eh)            E(eV)
   0   2.0000     -88.971072     -2421.0259
   1   2.0000     -88.964913     -2420.8584
   2   2.0000     -10.341801      -281.4147
   3   2.0000     -10.331464      -281.1334
   4   2.0000     -10.322685      -280.8945
   5   2.0000     -10.319703      -280.8134
   6   2.0000     -10.306833      -280.4632
   7   2.0000     -10.299981      -280.2767
   8   2.0000     -10.299804      -280.2719
   9   2.0000     -10.299077      -280.2521
  10   2.0000     -10.290907      -280.0298
  11   2.0000     -10.285757      -279.8897
  12   2.0000     -10.284344      -279.8512
  13   2.0000     -10.284022      -279.8425
  14   2.0000     -10.283365      -279.8246
  15   2.0000     -10.273280      -279.5502
  16   2.0000      -8.085331      -220.0130
  17   2.0000      -8.079695      -219.8597
  18   2.0000      -6.043904      -164.4630
  19   2.0000      -6.039863      -164.3530
  20   2.0000      -6.038237      -164.3088
  21   2.0000      -6.036115      -164.2510
  22   2.0000      -6.034136      -164.1972
  23   2.0000      -6.030475      -164.0976
  24   2.0000      -1.004084       -27.3225
  25   2.0000      -0.981521       -26.7086
  26   2.0000      -0.924983       -25.1701
  27   2.0000      -0.915916       -24.9233
  28   2.0000      -0.864488       -23.5239
  29   2.0000      -0.854083       -23.2408
  30   2.0000      -0.845823       -23.0160
  31   2.0000      -0.810653       -22.0590
  32   2.0000      -0.781761       -21.2728
  33   2.0000      -0.770993       -20.9798
  34   2.0000      -0.705172       -19.1887
  35   2.0000      -0.697209       -18.9720
  36   2.0000      -0.692082       -18.8325
  37   2.0000      -0.662839       -18.0368
  38   2.0000      -0.633996       -17.2519
  39   2.0000      -0.626039       -17.0354
  40   2.0000      -0.600759       -16.3475
  41   2.0000      -0.578612       -15.7448
  42   2.0000      -0.566671       -15.4199
  43   2.0000      -0.558063       -15.1857
  44   2.0000      -0.541530       -14.7358
  45   2.0000      -0.527121       -14.3437
  46   2.0000      -0.514754       -14.0072
  47   2.0000      -0.510465       -13.8905
  48   2.0000      -0.509529       -13.8650
  49   2.0000      -0.498211       -13.5570
  50   2.0000      -0.491546       -13.3757
  51   2.0000      -0.477618       -12.9966
  52   2.0000      -0.469279       -12.7697
  53   2.0000      -0.461411       -12.5556
  54   2.0000      -0.460713       -12.5366
  55   2.0000      -0.449644       -12.2354
  56   2.0000      -0.444366       -12.0918
  57   2.0000      -0.443213       -12.0605
  58   2.0000      -0.439528       -11.9602
  59   2.0000      -0.423028       -11.5112
  60   2.0000      -0.420336       -11.4379
  61   2.0000      -0.413083       -11.2406
  62   2.0000      -0.402588       -10.9550
  63   2.0000      -0.357883        -9.7385
  64   2.0000      -0.333373        -9.0715
  65   2.0000      -0.329426        -8.9641
  66   2.0000      -0.279957        -7.6180
  67   0.0000       0.018975         0.5163
  68   0.0000       0.078869         2.1461
  69   0.0000       0.099975         2.7205
  70   0.0000       0.115058         3.1309
  71   0.0000       0.124472         3.3870

MULLIKEN ATOMIC CHARGES
-----------------------
   0 S :    0.112332
   1 C :   -0.130208
   2 C :   -0.108283
   3 C :    0.014316
   4 C :   -0.101182
   5 H :   -0.026714
   6 C :    0.092851
   7 H :    0.021542
   8 H :    0.019393
   9 C :   -0.088649
  10 H :    0.023579
  11 H :    0.019418
  12 C :   -0.033756
  13 H :    0.026392
  14 H :    0.050498
  15 H :    0.030609
  16 S :    0.091135
  17 C :   -0.107719
  18 C :   -0.036493
  19 C :   -0.059209
  20 C :   -0.119545
  21 H :    0.046195
  22 C :   -0.007031
  23 H :    0.007960
  24 H :    0.034145
  25 C :   -0.025277
  26 H :    0.045802
  27 H :    0.037787
  28 C :   -0.073137
  29 H :    0.034416
  30 H :    0.035112
  31 H :    0.034746
  32 H :    0.060519
  33 H :    0.078456
Sum of atomic charges:   -0.0000000

LOEWDIN ATOMIC CHARGES
----------------------
   0 S :    0.410640
   1 C :   -0.210161
   2 C :   -0.055407
   3 C :   -0.067554
   4 C :   -0.178888
   5 H :    0.022040
   6 C :   -0.034534
   7 H :    0.031450
   8 H :    0.032226
   9 C :   -0.040299
  10 H :    0.025441
  11 H :    0.015451
  12 C :   -0.061365
  13 H :    0.020197
  14 H :    0.031737
  15 H :    0.028906
  16 S :    0.397637
  17 C :   -0.194063
  18 C :   -0.087601
  19 C :   -0.060162
  20 C :   -0.190180
  21 H :    0.045172
  22 C :   -0.035383
  23 H :    0.020876
  24 H :    0.035333
  25 C :   -0.041394
  26 H :    0.028282
  27 H :    0.033176
  28 C :   -0.068182
  29 H :    0.030258
  30 H :    0.021474
  31 H :    0.023385
  32 H :    0.031862
  33 H :    0.039629

  Mayer bond orders larger than 0.100000
B(  0-S ,  1-C ) :   1.1497 B(  0-S ,  4-C ) :   1.1595 B(  1-C ,  2-C ) :   1.5694
B(  1-C ,  4-C ) :   0.1007 B(  1-C , 32-H ) :   0.9634 B(  2-C ,  3-C ) :   1.2752
B(  2-C ,  6-C ) :   1.0342 B(  3-C ,  4-C ) :   1.5188 B(  3-C ,  5-H ) :   0.9843
B(  4-C , 20-C ) :   1.0809 B(  6-C ,  7-H ) :   0.9232 B(  6-C ,  8-H ) :   0.9417
B(  6-C ,  9-C ) :   1.0815 B(  9-C , 10-H ) :   0.9547 B(  9-C , 11-H ) :   0.9501
B(  9-C , 12-C ) :   1.0806 B( 12-C , 13-H ) :   0.9729 B( 12-C , 14-H ) :   0.9707
B( 12-C , 15-H ) :   0.9788 B( 16-S , 17-C ) :   1.1827 B( 16-S , 20-C ) :   1.1155
B( 17-C , 18-C ) :   1.5587 B( 17-C , 20-C ) :   0.1005 B( 17-C , 33-H ) :   0.9647
B( 18-C , 19-C ) :   1.2853 B( 18-C , 21-H ) :   0.9768 B( 19-C , 20-C ) :   1.5872
B( 19-C , 22-C ) :   1.0263 B( 22-C , 23-H ) :   0.9390 B( 22-C , 24-H ) :   0.9422
B( 22-C , 25-C ) :   1.0642 B( 25-C , 26-H ) :   0.9517 B( 25-C , 27-H ) :   0.9443
B( 25-C , 28-C ) :   1.0835 B( 28-C , 29-H ) :   0.9678 B( 28-C , 30-H ) :   0.9705
B( 28-C , 31-H ) :   0.9728

Dispersion correction           -0.015362256
FINAL SINGLE POINT ENERGY     -1339.872847370074

DIPOLE MOMENT
-------------
                                X             Y             Z
Electronic contribution:    -27.57554      -1.32529     -12.53066
Nuclear contribution   :     28.18331       1.35413      13.03363
                        -----------------------------------------
Total Dipole Moment    :      0.60777       0.02884       0.50297
                        -----------------------------------------
Magnitude (a.u.)       :      0.78942
Magnitude (Debye)      :      2.00656

Rotational constants in cm-1:     0.018668     0.010172     0.007244
Rotational constants in MHz :   559.645735   304.953317   217.182448

                             ****ORCA TERMINATED NORMALLY****
TOTAL RUN TIME: 0 days 0 hours 0 minutes 22 seconds 960 msec
