                         Program Version 4.2.1 -  RELEASE  -
|  1> ! wB97X-D3 SP def2-SVP
|  2> %pal
|  3> nprocs 24
|  4> end
|  5>
|  6> * xyz 0 1
|  7> S 	 38.0567 	 -18.3579 	 -110.312
|  8> C 	 36.5259 	 -18.6904 	 -111.042
|  9> C 	 36.0918 	 -19.8981 	 -110.588
| 10> C 	 36.8824 	 -20.4478 	 -109.57
| 11> C 	 38.0512 	 -19.7853 	 -109.272
| 12> H 	 36.5504 	 -21.3022 	 -108.975
| 13> C 	 34.7745 	 -20.5395 	 -110.963
| 14> H 	 34.155 	 -20.3456 	 -110.101
| 15> H 	 34.9629 	 -21.5721 	 -111.008
| 16> C 	 33.9625 	 -19.9691 	 -112.144
| 17> H 	 33.6715 	 -18.9325 	 -111.857
| 18> H 	 34.577 	 -19.8829 	 -113.029
| 19> C 	 32.7558 	 -20.7758 	 -112.694
| 20> H 	 32.6049 	 -20.4813 	 -113.751
| 21> H 	 32.9485 	 -21.8068 	 -112.771
| 22> H 	 31.8312 	 -20.7118 	 -112.122
| 23> S 	 39.9007 	 -18.6337 	 -107.78
| 24> C 	 41.0181 	 -19.6326 	 -106.838
| 25> C 	 40.8425 	 -20.9747 	 -107.051
| 26> C 	 39.7256 	 -21.2069 	 -107.886
| 27> C 	 39.0878 	 -20.0529 	 -108.331
| 28> H 	 41.493 	 -21.7301 	 -106.594
| 29> C 	 39.2535 	 -22.6051 	 -108.101
| 30> H 	 39.9861 	 -23.3637 	 -108.168
| 31> H 	 38.7417 	 -22.706 	 -109.044
| 32> C 	 38.265 	 -22.9976 	 -106.967
| 33> H 	 37.5391 	 -22.1123 	 -106.827
| 34> H 	 38.8325 	 -23.1595 	 -106.005
| 35> C 	 37.5946 	 -24.3513 	 -107.336
| 36> H 	 36.8907 	 -24.4054 	 -108.137
| 37> H 	 37.1036 	 -24.7102 	 -106.43
| 38> H 	 38.4225 	 -25.0696 	 -107.489
| 39> H 	 35.9806 	 -18.0046 	 -111.709
| 40> H 	 41.6727 	 -19.2533 	 -106.126
| 41> *
| 42>
| 43>                          ****END OF INPUT****

CARTESIAN COORDINATES (ANGSTROEM)
---------------------------------
  S     38.056700  -18.357900  -110.312000
  C     36.525900  -18.690400  -111.042000
  C     36.091800  -19.898100  -110.588000
  C     36.882400  -20.447800  -109.570000
  C     38.051200  -19.785300  -109.272000
  H     36.550400  -21.302200  -108.975000
  C     34.774500  -20.539500  -110.963000
  H     34.155000  -20.345600  -110.101000
  H     34.962900  -21.572100  -111.008000
  C     33.962500  -19.969100  -112.144000
  H     33.671500  -18.932500  -111.857000
  H     34.577000  -19.882900  -113.029000
  C     32.755800  -20.775800  -112.694000
  H     32.604900  -20.481300  -113.751000
  H     32.948500  -21.806800  -112.771000
  H     31.831200  -20.711800  -112.122000
  S     39.900700  -18.633700  -107.780000
  C     41.018100  -19.632600  -106.838000
  C     40.842500  -20.974700  -107.051000
  C     39.725600  -21.206900  -107.886000
  C     39.087800  -20.052900  -108.331000
  H     41.493000  -21.730100  -106.594000
  C     39.253500  -22.605100  -108.101000
  H     39.986100  -23.363700  -108.168000
  H     38.741700  -22.706000  -109.044000
  C     38.265000  -22.997600  -106.967000
  H     37.539100  -22.112300  -106.827000
  H     38.832500  -23.159500  -106.005000
  C     37.594600  -24.351300  -107.336000
  H     36.890700  -24.405400  -108.137000
  H     37.103600  -24.710200  -106.430000
  H     38.422500  -25.069600  -107.489000
  H     35.980600  -18.004600  -111.709000
  H     41.672700  -19.253300  -106.126000

 Total Charge           Charge          ....    0
 Multiplicity           Mult            ....    1
 Number of Electrons    NEL             ....  134
 Basis Dimension        Dim             ....  322

ORBITAL ENERGIES
----------------

  NO   OCC          E(Eh)            E(eV)
   0   2.0000     -88.965688     -2420.8794
   1   2.0000     -88.959426     -2420.7091
   2   2.0000     -10.328939      -281.0647
   3   2.0000     -10.324568      -280.9458
   4   2.0000     -10.314436      -280.6701
   5   2.0000     -10.309461      -280.5347
   6   2.0000     -10.302898      -280.3561
   7   2.0000     -10.300015      -280.2777
   8   2.0000     -10.295235      -280.1476
   9   2.0000     -10.293869      -280.1104
  10   2.0000     -10.291833      -280.0550
  11   2.0000     -10.288286      -279.9585
  12   2.0000     -10.285493      -279.8825
  13   2.0000     -10.284156      -279.8461
  14   2.0000     -10.281302      -279.7684
  15   2.0000     -10.279433      -279.7176
  16   2.0000      -8.080795      -219.8896
  17   2.0000      -8.074495      -219.7182
  18   2.0000      -6.039292      -164.3375
  19   2.0000      -6.035251      -164.2275
  20   2.0000      -6.033113      -164.1693
  21   2.0000      -6.031526      -164.1262
  22   2.0000      -6.028851      -164.0534
  23   2.0000      -6.025201      -163.9541
  24   2.0000      -1.014028       -27.5931
  25   2.0000      -0.989837       -26.9348
  26   2.0000      -0.913028       -24.8447
  27   2.0000      -0.908821       -24.7303
  28   2.0000      -0.875952       -23.8359
  29   2.0000      -0.852067       -23.1859
  30   2.0000      -0.847140       -23.0519
  31   2.0000      -0.818708       -22.2782
  32   2.0000      -0.783133       -21.3101
  33   2.0000      -0.771967       -21.0063
  34   2.0000      -0.714691       -19.4477
  35   2.0000      -0.701887       -19.0993
  36   2.0000      -0.693677       -18.8759
  37   2.0000      -0.672082       -18.2883
  38   2.0000      -0.636676       -17.3248
  39   2.0000      -0.617218       -16.7954
  40   2.0000      -0.603049       -16.4098
  41   2.0000      -0.572937       -15.5904
  42   2.0000      -0.568217       -15.4620
  43   2.0000      -0.564379       -15.3575
  44   2.0000      -0.528941       -14.3932
  45   2.0000      -0.520707       -14.1692
  46   2.0000      -0.517949       -14.0941
  47   2.0000      -0.513449       -13.9717
  48   2.0000      -0.510159       -13.8821
  49   2.0000      -0.503848       -13.7104
  50   2.0000      -0.496038       -13.4979
  51   2.0000      -0.485055       -13.1990
  52   2.0000      -0.477710       -12.9992
  53   2.0000      -0.467921       -12.7328
  54   2.0000      -0.461053       -12.5459
  55   2.0000      -0.450728       -12.2649
  56   2.0000      -0.439459       -11.9583
  57   2.0000      -0.437035       -11.8923
  58   2.0000      -0.429381       -11.6840
  59   2.0000      -0.427072       -11.6212
  60   2.0000      -0.423917       -11.5354
  61   2.0000      -0.419053       -11.4030
  62   2.0000      -0.406491       -11.0612
  63   2.0000      -0.360678        -9.8145
  64   2.0000      -0.333427        -9.0730
  65   2.0000      -0.324905        -8.8411
  66   2.0000      -0.282912        -7.6984
  67   0.0000       0.022789         0.6201
  68   0.0000       0.081298         2.2122
  69   0.0000       0.108829         2.9614
  70   0.0000       0.128573         3.4987
  71   0.0000       0.131199         3.5701

MULLIKEN ATOMIC CHARGES
-----------------------
   0 S :    0.088906
   1 C :   -0.143496
   2 C :   -0.083031
   3 C :   -0.025801
   4 C :   -0.088109
   5 H :    0.006950
   6 C :    0.097021
   7 H :    0.035348
   8 H :    0.014735
   9 C :   -0.110662
  10 H :    0.034864
  11 H :    0.028263
  12 C :   -0.025466
  13 H :    0.034220
  14 H :    0.015221
  15 H :    0.036649
  16 S :    0.098749
  17 C :   -0.060249
  18 C :   -0.030090
  19 C :   -0.032906
  20 C :   -0.141335
  21 H :    0.029311
  22 C :    0.085156
  23 H :    0.004078
  24 H :    0.014043
  25 C :   -0.133117
  26 H :    0.052361
  27 H :    0.038794
  28 C :   -0.028821
  29 H :    0.037617
  30 H :    0.030338
  31 H :    0.026811
  32 H :    0.061517
  33 H :    0.032130
Sum of atomic charges:    0.0000000

LOEWDIN ATOMIC CHARGES
----------------------
   0 S :    0.396199
   1 C :   -0.211057
   2 C :   -0.068450
   3 C :   -0.078519
   4 C :   -0.181582
   5 H :    0.030569
   6 C :   -0.030002
   7 H :    0.037460
   8 H :    0.022267
   9 C :   -0.044349
  10 H :    0.027114
  11 H :    0.021916
  12 C :   -0.062304
  13 H :    0.033786
  14 H :    0.018781
  15 H :    0.024327
  16 S :    0.411992
  17 C :   -0.161539
  18 C :   -0.065915
  19 C :   -0.048504
  20 C :   -0.204774
  21 H :    0.039479
  22 C :   -0.034300
  23 H :    0.021728
  24 H :    0.026481
  25 C :   -0.039735
  26 H :    0.029612
  27 H :    0.029624
  28 C :   -0.068038
  29 H :    0.019662
  30 H :    0.027302
  31 H :    0.028930
  32 H :    0.037073
  33 H :    0.014768

  Mayer bond orders larger than 0.100000
B(  0-S ,  1-C ) :   1.1266 B(  0-S ,  4-C ) :   1.1408 B(  1-C ,  2-C ) :   1.5996
B(  1-C , 32-H ) :   0.9642 B(  2-C ,  3-C ) :   1.2723 B(  2-C ,  6-C ) :   1.0100
B(  3-C ,  4-C ) :   1.5503 B(  3-C ,  5-H ) :   0.9990 B(  4-C , 20-C ) :   1.0922
B(  6-C ,  7-H ) :   0.9349 B(  6-C ,  8-H ) :   0.9385 B(  6-C ,  9-C ) :   1.0749
B(  9-C , 10-H ) :   0.9487 B(  9-C , 11-H ) :   0.9621 B(  9-C , 12-C ) :   1.0785
B( 12-C , 13-H ) :   0.9769 B( 12-C , 14-H ) :   0.9728 B( 12-C , 15-H ) :   0.9769
B( 16-S , 17-C ) :   1.1552 B( 16-S , 20-C ) :   1.1328 B( 17-C , 18-C ) :   1.5983
B( 17-C , 20-C ) :   0.1010 B( 17-C , 33-H ) :   0.9752 B( 18-C , 19-C ) :   1.2485
B( 18-C , 21-H ) :   0.9903 B( 19-C , 20-C ) :   1.5590 B( 19-C , 22-C ) :   1.0686
B( 22-C , 23-H ) :   0.9280 B( 22-C , 24-H ) :   0.9299 B( 22-C , 25-C ) :   1.0480
B( 25-C , 26-H ) :   0.9566 B( 25-C , 27-H ) :   0.9540 B( 25-C , 28-C ) :   1.0711
B( 28-C , 29-H ) :   0.9791 B( 28-C , 30-H ) :   0.9736 B( 28-C , 31-H ) :   0.9689

Dispersion correction           -0.013839386
FINAL SINGLE POINT ENERGY     -1339.878231900461

DIPOLE MOMENT
-------------
                                X             Y             Z
Electronic contribution:     20.84642      21.97774       4.81032
Nuclear contribution   :    -21.15013     -22.66267      -4.64063
                        -----------------------------------------
Total Dipole Moment    :     -0.30371      -0.68493       0.16968
                        -----------------------------------------
Magnitude (a.u.)       :      0.76822
Magnitude (Debye)      :      1.95267

Rotational constants in cm-1:     0.020053     0.008119     0.005940
Rotational constants in MHz :   601.161774   243.415535   178.063674

                             ****ORCA TERMINATED NORMALLY****
TOTAL RUN TIME: 0 days 0 hours 0 minutes 21 seconds 343 msec
