                         Program Version 4.2.1 -  RELEASE  -
|  1> ! wB97X-D3 SP def2-SVP
|  2> %pal
|  3> nprocs 24
|  4> end
|  5>
|  6> * xyz 0 1
|  7> S 	 -112.369 	 56.503 	 -100.352
|  8> C 	 -114.085 	 56.2786 	 -100.411
|  9> C 	 -114.719 	 57.4569 	 -100.018
| 10> C 	 -113.768 	 58.4789 	 -99.6189
| 11> C 	 -112.484 	 58.1116 	 -99.7017
| 12> H 	 -114.084 	 59.4493 	 -99.1601
| 13> C 	 -116.242 	 57.6045 	 -99.9123
| 14> H 	 -116.528 	 58.5279 	 -99.3797
| 15> H 	 -116.613 	 56.8161 	 -99.2946
| 16> C 	 -117.037 	 57.6114 	 -101.255
| 17> H 	 -116.571 	 58.1815 	 -102.046
| 18> H 	 -117.029 	 56.5736 	 -101.615
| 19> C 	 -118.413 	 58.2342 	 -101.16
| 20> H 	 -118.892 	 57.8893 	 -100.305
| 21> H 	 -118.35 	 59.2875 	 -101.108
| 22> H 	 -119.071 	 58.0817 	 -102.03
| 23> S 	 -110.52 	 58.2887 	 -97.7787
| 24> C 	 -109.434 	 59.6555 	 -97.8429
| 25> C 	 -109.776 	 60.4895 	 -98.8693
| 26> C 	 -110.859 	 60.0113 	 -99.651
| 27> C 	 -111.363 	 58.8242 	 -99.2015
| 28> H 	 -109.311 	 61.4395 	 -98.8633
| 29> C 	 -111.41 	 60.7454 	 -100.842
| 30> H 	 -111.179 	 61.7309 	 -100.757
| 31> H 	 -112.491 	 60.5764 	 -100.682
| 32> C 	 -111.096 	 60.2232 	 -102.163
| 33> H 	 -111.407 	 59.1763 	 -102.286
| 34> H 	 -110.01 	 60.1788 	 -102.217
| 35> C 	 -111.611 	 60.9991 	 -103.36
| 36> H 	 -112.675 	 60.822 	 -103.667
| 37> H 	 -111.04 	 60.797 	 -104.276
| 38> H 	 -111.358 	 62.0083 	 -103.172
| 39> H 	 -114.496 	 55.3317 	 -100.733
| 40> H 	 -108.672 	 59.9999 	 -97.1208
| 41> *
| 42>
| 43>                          ****END OF INPUT****

CARTESIAN COORDINATES (ANGSTROEM)
---------------------------------
  S    -112.369000   56.503000  -100.352000
  C    -114.085000   56.278600  -100.411000
  C    -114.719000   57.456900  -100.018000
  C    -113.768000   58.478900  -99.618900
  C    -112.484000   58.111600  -99.701700
  H    -114.084000   59.449300  -99.160100
  C    -116.242000   57.604500  -99.912300
  H    -116.528000   58.527900  -99.379700
  H    -116.613000   56.816100  -99.294600
  C    -117.037000   57.611400  -101.255000
  H    -116.571000   58.181500  -102.046000
  H    -117.029000   56.573600  -101.615000
  C    -118.413000   58.234200  -101.160000
  H    -118.892000   57.889300  -100.305000
  H    -118.350000   59.287500  -101.108000
  H    -119.071000   58.081700  -102.030000
  S    -110.520000   58.288700  -97.778700
  C    -109.434000   59.655500  -97.842900
  C    -109.776000   60.489500  -98.869300
  C    -110.859000   60.011300  -99.651000
  C    -111.363000   58.824200  -99.201500
  H    -109.311000   61.439500  -98.863300
  C    -111.410000   60.745400  -100.842000
  H    -111.179000   61.730900  -100.757000
  H    -112.491000   60.576400  -100.682000
  C    -111.096000   60.223200  -102.163000
  H    -111.407000   59.176300  -102.286000
  H    -110.010000   60.178800  -102.217000
  C    -111.611000   60.999100  -103.360000
  H    -112.675000   60.822000  -103.667000
  H    -111.040000   60.797000  -104.276000
  H    -111.358000   62.008300  -103.172000
  H    -114.496000   55.331700  -100.733000
  H    -108.672000   59.999900  -97.120800

 Total Charge           Charge          ....    0
 Multiplicity           Mult            ....    1
 Number of Electrons    NEL             ....  134
 Basis Dimension        Dim             ....  322

ORBITAL ENERGIES
----------------

  NO   OCC          E(Eh)            E(eV)
   0   2.0000     -88.965559     -2420.8759
   1   2.0000     -88.962905     -2420.8037
   2   2.0000     -10.321455      -280.8611
   3   2.0000     -10.317132      -280.7434
   4   2.0000     -10.316849      -280.7357
   5   2.0000     -10.316070      -280.7145
   6   2.0000     -10.307376      -280.4780
   7   2.0000     -10.296615      -280.1851
   8   2.0000     -10.296214      -280.1742
   9   2.0000     -10.294335      -280.1231
  10   2.0000     -10.286141      -279.9001
  11   2.0000     -10.284837      -279.8646
  12   2.0000     -10.273849      -279.5657
  13   2.0000     -10.273507      -279.5563
  14   2.0000     -10.273300      -279.5507
  15   2.0000     -10.270051      -279.4623
  16   2.0000      -8.080408      -219.8791
  17   2.0000      -8.078403      -219.8245
  18   2.0000      -6.038960      -164.3284
  19   2.0000      -6.036871      -164.2716
  20   2.0000      -6.034812      -164.2156
  21   2.0000      -6.032689      -164.1578
  22   2.0000      -6.031193      -164.1171
  23   2.0000      -6.029259      -164.0645
  24   2.0000      -1.015055       -27.6211
  25   2.0000      -0.989123       -26.9154
  26   2.0000      -0.919527       -25.0216
  27   2.0000      -0.909755       -24.7557
  28   2.0000      -0.877757       -23.8850
  29   2.0000      -0.852813       -23.2062
  30   2.0000      -0.848151       -23.0794
  31   2.0000      -0.821110       -22.3435
  32   2.0000      -0.785568       -21.3764
  33   2.0000      -0.772475       -21.0201
  34   2.0000      -0.707594       -19.2546
  35   2.0000      -0.704142       -19.1607
  36   2.0000      -0.690861       -18.7993
  37   2.0000      -0.663399       -18.0520
  38   2.0000      -0.649180       -17.6651
  39   2.0000      -0.619686       -16.8625
  40   2.0000      -0.593957       -16.1624
  41   2.0000      -0.577319       -15.7096
  42   2.0000      -0.567958       -15.4549
  43   2.0000      -0.562297       -15.3009
  44   2.0000      -0.533454       -14.5160
  45   2.0000      -0.524986       -14.2856
  46   2.0000      -0.520430       -14.1616
  47   2.0000      -0.512737       -13.9523
  48   2.0000      -0.507673       -13.8145
  49   2.0000      -0.501862       -13.6563
  50   2.0000      -0.494558       -13.4576
  51   2.0000      -0.488734       -13.2991
  52   2.0000      -0.473394       -12.8817
  53   2.0000      -0.468634       -12.7522
  54   2.0000      -0.461171       -12.5491
  55   2.0000      -0.453288       -12.3346
  56   2.0000      -0.443469       -12.0674
  57   2.0000      -0.434312       -11.8182
  58   2.0000      -0.431627       -11.7452
  59   2.0000      -0.420819       -11.4511
  60   2.0000      -0.416953       -11.3459
  61   2.0000      -0.413277       -11.2458
  62   2.0000      -0.405837       -11.0434
  63   2.0000      -0.344951        -9.3866
  64   2.0000      -0.331622        -9.0239
  65   2.0000      -0.325209        -8.8494
  66   2.0000      -0.303134        -8.2487
  67   0.0000       0.039174         1.0660
  68   0.0000       0.064351         1.7511
  69   0.0000       0.123091         3.3495
  70   0.0000       0.124935         3.3996
  71   0.0000       0.128494         3.4965

MULLIKEN ATOMIC CHARGES
-----------------------
   0 S :    0.113042
   1 C :   -0.134532
   2 C :   -0.077825
   3 C :    0.042296
   4 C :   -0.199361
   5 H :    0.035323
   6 C :    0.056980
   7 H :    0.015170
   8 H :    0.033916
   9 C :   -0.071286
  10 H :    0.026061
  11 H :    0.025767
  12 C :   -0.025876
  13 H :    0.014422
  14 H :    0.021383
  15 H :    0.034634
  16 S :    0.125362
  17 C :   -0.100984
  18 C :   -0.040940
  19 C :   -0.050198
  20 C :   -0.156263
  21 H :    0.004976
  22 C :    0.182859
  23 H :   -0.020757
  24 H :    0.006693
  25 C :   -0.073288
  26 H :    0.026263
  27 H :    0.013462
  28 C :   -0.027971
  29 H :    0.046116
  30 H :    0.024959
  31 H :    0.010164
  32 H :    0.055724
  33 H :    0.063710
Sum of atomic charges:   -0.0000000

LOEWDIN ATOMIC CHARGES
----------------------
   0 S :    0.416697
   1 C :   -0.196347
   2 C :   -0.060774
   3 C :   -0.062930
   4 C :   -0.204905
   5 H :    0.040992
   6 C :   -0.031653
   7 H :    0.028146
   8 H :    0.030420
   9 C :   -0.039971
  10 H :    0.023298
  11 H :    0.021347
  12 C :   -0.060404
  13 H :    0.013680
  14 H :    0.021389
  15 H :    0.032565
  16 S :    0.416463
  17 C :   -0.190350
  18 C :   -0.074533
  19 C :   -0.046390
  20 C :   -0.210189
  21 H :    0.026933
  22 C :   -0.027525
  23 H :    0.013034
  24 H :    0.036475
  25 C :   -0.044696
  26 H :    0.024956
  27 H :    0.022847
  28 C :   -0.065639
  29 H :    0.031671
  30 H :    0.029773
  31 H :    0.017222
  32 H :    0.028160
  33 H :    0.040238

  Mayer bond orders larger than 0.100000
B(  0-S ,  1-C ) :   1.1495 B(  0-S ,  4-C ) :   1.1419 B(  1-C ,  2-C ) :   1.5866
B(  1-C , 32-H ) :   0.9787 B(  2-C ,  3-C ) :   1.2491 B(  2-C ,  6-C ) :   1.0211
B(  3-C ,  4-C ) :   1.6070 B(  3-C ,  5-H ) :   0.9788 B(  4-C , 20-C ) :   1.0261
B(  6-C ,  7-H ) :   0.9502 B(  6-C ,  8-H ) :   0.9381 B(  6-C ,  9-C ) :   1.0495
B(  9-C , 10-H ) :   0.9632 B(  9-C , 11-H ) :   0.9565 B(  9-C , 12-C ) :   1.0864
B( 12-C , 13-H ) :   0.9751 B( 12-C , 14-H ) :   0.9732 B( 12-C , 15-H ) :   0.9714
B( 16-S , 17-C ) :   1.1546 B( 16-S , 20-C ) :   1.1388 B( 17-C , 18-C ) :   1.6272
B( 17-C , 33-H ) :   0.9588 B( 18-C , 19-C ) :   1.2371 B( 18-C , 21-H ) :   0.9948
B( 19-C , 20-C ) :   1.6040 B( 19-C , 22-C ) :   1.0397 B( 22-C , 23-H ) :   0.9142
B( 22-C , 24-H ) :   0.9064 B( 22-C , 25-C ) :   1.0912 B( 25-C , 26-H ) :   0.9474
B( 25-C , 27-H ) :   0.9457 B( 25-C , 28-C ) :   1.0906 B( 28-C , 29-H ) :   0.9754
B( 28-C , 30-H ) :   0.9713 B( 28-C , 31-H ) :   0.9697

Dispersion correction           -0.014092876
FINAL SINGLE POINT ENERGY     -1339.876099965490

DIPOLE MOMENT
-------------
                                X             Y             Z
Electronic contribution:     19.87007     -11.83577      17.03577
Nuclear contribution   :    -20.28607      12.27218     -17.13556
                        -----------------------------------------
Total Dipole Moment    :     -0.41600       0.43641      -0.09979
                        -----------------------------------------
Magnitude (a.u.)       :      0.61112
Magnitude (Debye)      :      1.55335

Rotational constants in cm-1:     0.019219     0.008183     0.006781
Rotational constants in MHz :   576.171485   245.331123   203.295060

                             ****ORCA TERMINATED NORMALLY****
TOTAL RUN TIME: 0 days 0 hours 0 minutes 21 seconds 418 msec
