                         Program Version 4.2.1 -  RELEASE  -
|  1> ! wB97X-D3 SP def2-SVP
|  2> %pal
|  3> nprocs 24
|  4> end
|  5>
|  6> * xyz 0 1
|  7> S 	 40.0424 	 -29.6374 	 -119.714
|  8> C 	 38.9151 	 -29.0999 	 -120.99
|  9> C 	 39.2647 	 -29.5997 	 -122.207
| 10> C 	 40.4351 	 -30.3867 	 -122.134
| 11> C 	 40.8298 	 -30.7282 	 -120.827
| 12> H 	 40.878 	 -30.8207 	 -123.026
| 13> C 	 38.6385 	 -29.2498 	 -123.553
| 14> H 	 37.5356 	 -29.2237 	 -123.455
| 15> H 	 38.8725 	 -30.0677 	 -124.257
| 16> C 	 39.1086 	 -27.9553 	 -124.157
| 17> H 	 40.1871 	 -27.7728 	 -124.21
| 18> H 	 38.8667 	 -28.0959 	 -125.145
| 19> C 	 38.4433 	 -26.6528 	 -123.6
| 20> H 	 38.7844 	 -25.8506 	 -124.263
| 21> H 	 37.3505 	 -26.6428 	 -123.492
| 22> H 	 38.4806 	 -26.5454 	 -122.463
| 23> S 	 43.1418 	 -31.0347 	 -119.476
| 24> C 	 43.6503 	 -32.5992 	 -119.048
| 25> C 	 42.8101 	 -33.6141 	 -119.531
| 26> C 	 41.6783 	 -33.0516 	 -120.181
| 27> C 	 41.8083 	 -31.6966 	 -120.32
| 28> H 	 42.9666 	 -34.652 	 -119.234
| 29> C 	 40.5464 	 -33.8666 	 -120.746
| 30> H 	 40.9525 	 -34.6264 	 -121.431
| 31> H 	 39.8258 	 -33.3295 	 -121.369
| 32> C 	 39.7688 	 -34.517 	 -119.6
| 33> H 	 39.1725 	 -33.7578 	 -119.085
| 34> H 	 40.4465 	 -34.9977 	 -118.843
| 35> C 	 38.8731 	 -35.6189 	 -120.089
| 36> H 	 39.2845 	 -36.2333 	 -120.922
| 37> H 	 37.9482 	 -35.0046 	 -120.351
| 38> H 	 38.4638 	 -36.1867 	 -119.238
| 39> H 	 38.2265 	 -28.2379 	 -121.044
| 40> H 	 44.4552 	 -32.7253 	 -118.424
| 41> *
| 42>
| 43>                          ****END OF INPUT****

CARTESIAN COORDINATES (ANGSTROEM)
---------------------------------
  S     40.042400  -29.637400  -119.714000
  C     38.915100  -29.099900  -120.990000
  C     39.264700  -29.599700  -122.207000
  C     40.435100  -30.386700  -122.134000
  C     40.829800  -30.728200  -120.827000
  H     40.878000  -30.820700  -123.026000
  C     38.638500  -29.249800  -123.553000
  H     37.535600  -29.223700  -123.455000
  H     38.872500  -30.067700  -124.257000
  C     39.108600  -27.955300  -124.157000
  H     40.187100  -27.772800  -124.210000
  H     38.866700  -28.095900  -125.145000
  C     38.443300  -26.652800  -123.600000
  H     38.784400  -25.850600  -124.263000
  H     37.350500  -26.642800  -123.492000
  H     38.480600  -26.545400  -122.463000
  S     43.141800  -31.034700  -119.476000
  C     43.650300  -32.599200  -119.048000
  C     42.810100  -33.614100  -119.531000
  C     41.678300  -33.051600  -120.181000
  C     41.808300  -31.696600  -120.320000
  H     42.966600  -34.652000  -119.234000
  C     40.546400  -33.866600  -120.746000
  H     40.952500  -34.626400  -121.431000
  H     39.825800  -33.329500  -121.369000
  C     39.768800  -34.517000  -119.600000
  H     39.172500  -33.757800  -119.085000
  H     40.446500  -34.997700  -118.843000
  C     38.873100  -35.618900  -120.089000
  H     39.284500  -36.233300  -120.922000
  H     37.948200  -35.004600  -120.351000
  H     38.463800  -36.186700  -119.238000
  H     38.226500  -28.237900  -121.044000
  H     44.455200  -32.725300  -118.424000

 Total Charge           Charge          ....    0
 Multiplicity           Mult            ....    1
 Number of Electrons    NEL             ....  134
 Basis Dimension        Dim             ....  322

ORBITAL ENERGIES
----------------

  NO   OCC          E(Eh)            E(eV)
   0   2.0000     -88.965165     -2420.8652
   1   2.0000     -88.964944     -2420.8592
   2   2.0000     -10.329304      -281.0747
   3   2.0000     -10.317293      -280.7478
   4   2.0000     -10.310603      -280.5658
   5   2.0000     -10.310544      -280.5642
   6   2.0000     -10.300600      -280.2936
   7   2.0000     -10.296223      -280.1745
   8   2.0000     -10.295974      -280.1677
   9   2.0000     -10.292985      -280.0864
  10   2.0000     -10.291534      -280.0469
  11   2.0000     -10.289415      -279.9892
  12   2.0000     -10.288306      -279.9590
  13   2.0000     -10.283375      -279.8249
  14   2.0000     -10.282803      -279.8093
  15   2.0000     -10.280468      -279.7458
  16   2.0000      -8.081798      -219.9169
  17   2.0000      -8.078977      -219.8402
  18   2.0000      -6.039931      -164.3549
  19   2.0000      -6.037554      -164.2902
  20   2.0000      -6.036041      -164.2490
  21   2.0000      -6.033636      -164.1836
  22   2.0000      -6.032843      -164.1620
  23   2.0000      -6.029637      -164.0748
  24   2.0000      -1.013007       -27.5653
  25   2.0000      -0.986008       -26.8307
  26   2.0000      -0.915039       -24.8995
  27   2.0000      -0.914332       -24.8802
  28   2.0000      -0.866983       -23.5918
  29   2.0000      -0.856873       -23.3167
  30   2.0000      -0.840705       -22.8767
  31   2.0000      -0.808247       -21.9935
  32   2.0000      -0.786011       -21.3884
  33   2.0000      -0.775309       -21.0972
  34   2.0000      -0.709046       -19.2941
  35   2.0000      -0.698370       -19.0036
  36   2.0000      -0.688903       -18.7460
  37   2.0000      -0.664497       -18.0819
  38   2.0000      -0.630939       -17.1687
  39   2.0000      -0.619400       -16.8547
  40   2.0000      -0.605767       -16.4838
  41   2.0000      -0.571917       -15.5626
  42   2.0000      -0.564887       -15.3713
  43   2.0000      -0.549980       -14.9657
  44   2.0000      -0.532328       -14.4854
  45   2.0000      -0.529522       -14.4090
  46   2.0000      -0.523095       -14.2341
  47   2.0000      -0.516638       -14.0584
  48   2.0000      -0.506400       -13.7798
  49   2.0000      -0.496203       -13.5024
  50   2.0000      -0.485737       -13.2176
  51   2.0000      -0.477001       -12.9798
  52   2.0000      -0.471824       -12.8390
  53   2.0000      -0.460369       -12.5273
  54   2.0000      -0.457696       -12.4545
  55   2.0000      -0.453778       -12.3479
  56   2.0000      -0.448133       -12.1943
  57   2.0000      -0.440519       -11.9871
  58   2.0000      -0.430345       -11.7103
  59   2.0000      -0.424649       -11.5553
  60   2.0000      -0.419825       -11.4240
  61   2.0000      -0.403599       -10.9825
  62   2.0000      -0.402381       -10.9494
  63   2.0000      -0.335142        -9.1197
  64   2.0000      -0.329077        -8.9546
  65   2.0000      -0.326686        -8.8896
  66   2.0000      -0.300423        -8.1749
  67   0.0000       0.037390         1.0174
  68   0.0000       0.062821         1.7094
  69   0.0000       0.111689         3.0392
  70   0.0000       0.122680         3.3383
  71   0.0000       0.132566         3.6073

MULLIKEN ATOMIC CHARGES
-----------------------
   0 S :    0.109531
   1 C :   -0.107504
   2 C :   -0.111211
   3 C :    0.048259
   4 C :   -0.166285
   5 H :    0.006010
   6 C :    0.036767
   7 H :    0.034694
   8 H :    0.025182
   9 C :   -0.007064
  10 H :    0.032305
  11 H :    0.007137
  12 C :   -0.081412
  13 H :    0.055263
  14 H :    0.014880
  15 H :    0.029806
  16 S :    0.124624
  17 C :   -0.070139
  18 C :   -0.027931
  19 C :   -0.002611
  20 C :   -0.183745
  21 H :    0.026375
  22 C :    0.081960
  23 H :    0.028668
  24 H :    0.026321
  25 C :   -0.127019
  26 H :    0.038764
  27 H :    0.031644
  28 C :   -0.054031
  29 H :    0.051085
  30 H :    0.029271
  31 H :    0.035255
  32 H :    0.039453
  33 H :    0.025694
Sum of atomic charges:   -0.0000000

LOEWDIN ATOMIC CHARGES
----------------------
   0 S :    0.394220
   1 C :   -0.203295
   2 C :   -0.069864
   3 C :   -0.062887
   4 C :   -0.192298
   5 H :    0.027612
   6 C :   -0.029754
   7 H :    0.036042
   8 H :    0.033176
   9 C :   -0.037183
  10 H :    0.030640
  11 H :    0.015945
  12 C :   -0.083245
  13 H :    0.033705
  14 H :    0.023240
  15 H :    0.033814
  16 S :    0.446721
  17 C :   -0.181097
  18 C :   -0.067156
  19 C :   -0.046771
  20 C :   -0.225900
  21 H :    0.034043
  22 C :   -0.029342
  23 H :    0.031865
  24 H :    0.031933
  25 C :   -0.046562
  26 H :    0.028604
  27 H :    0.021161
  28 C :   -0.078405
  29 H :    0.029239
  30 H :    0.034688
  31 H :    0.028012
  32 H :    0.031065
  33 H :    0.008034

  Mayer bond orders larger than 0.100000
B(  0-S ,  1-C ) :   1.1199 B(  0-S ,  4-C ) :   1.1571 B(  1-C ,  2-C ) :   1.6324
B(  1-C ,  4-C ) :   0.1043 B(  1-C , 32-H ) :   0.9556 B(  2-C ,  3-C ) :   1.2643
B(  2-C ,  6-C ) :   1.0254 B(  3-C ,  4-C ) :   1.5613 B(  3-C ,  5-H ) :   0.9920
B(  4-C , 20-C ) :   1.0095 B(  6-C ,  7-H ) :   0.9403 B(  6-C ,  8-H ) :   0.9395
B(  6-C ,  9-C ) :   1.0760 B(  9-C , 10-H ) :   0.9533 B(  9-C , 11-H ) :   0.9494
B(  9-C , 12-C ) :   1.0689 B( 12-C , 13-H ) :   0.9739 B( 12-C , 14-H ) :   0.9708
B( 12-C , 15-H ) :   0.9676 B( 16-S , 17-C ) :   1.1889 B( 16-S , 20-C ) :   1.1622
B( 17-C , 18-C ) :   1.5733 B( 17-C , 33-H ) :   0.9798 B( 18-C , 19-C ) :   1.2516
B( 18-C , 21-H ) :   0.9893 B( 19-C , 20-C ) :   1.5998 B( 19-C , 22-C ) :   1.0421
B( 22-C , 23-H ) :   0.9404 B( 22-C , 24-H ) :   0.9315 B( 22-C , 25-C ) :   1.0514
B( 25-C , 26-H ) :   0.9549 B( 25-C , 27-H ) :   0.9646 B( 25-C , 28-C ) :   1.0770
B( 28-C , 29-H ) :   0.9734 B( 28-C , 30-H ) :   0.9736 B( 28-C , 31-H ) :   0.9710

Dispersion correction           -0.014150053
FINAL SINGLE POINT ENERGY     -1339.852117480046

DIPOLE MOMENT
-------------
                                X             Y             Z
Electronic contribution:     16.97030       4.80338      13.97925
Nuclear contribution   :    -17.15980      -5.05056     -14.39242
                        -----------------------------------------
Total Dipole Moment    :     -0.18950      -0.24718      -0.41317
                        -----------------------------------------
Magnitude (a.u.)       :      0.51741
Magnitude (Debye)      :      1.31516

Rotational constants in cm-1:     0.021055     0.007838     0.006501
Rotational constants in MHz :   631.208763   234.965780   194.906836

                             ****ORCA TERMINATED NORMALLY****
TOTAL RUN TIME: 0 days 0 hours 0 minutes 21 seconds 384 msec
