                         Program Version 4.2.1 -  RELEASE  -
|  1> ! wB97X-D3 SP def2-SVP
|  2> %pal
|  3> nprocs 24
|  4> end
|  5>
|  6> * xyz 0 1
|  7> S 	 -53.211 	 23.6663 	 29.6258
|  8> C 	 -51.5847 	 24.1146 	 29.6156
|  9> C 	 -50.9242 	 23.729 	 30.7999
| 10> C 	 -51.8847 	 23.0825 	 31.6516
| 11> C 	 -53.123 	 22.8986 	 31.1864
| 12> H 	 -51.6774 	 22.549 	 32.5259
| 13> C 	 -49.4519 	 23.9206 	 31.1632
| 14> H 	 -49.4075 	 24.0875 	 32.2759
| 15> H 	 -49.1593 	 24.8104 	 30.6802
| 16> C 	 -48.6278 	 22.7428 	 30.7691
| 17> H 	 -48.7756 	 22.4417 	 29.8157
| 18> H 	 -47.6158 	 23.0945 	 30.8087
| 19> C 	 -48.7557 	 21.4996 	 31.6261
| 20> H 	 -48.3133 	 20.6197 	 31.1609
| 21> H 	 -48.228 	 21.5939 	 32.6402
| 22> H 	 -49.8029 	 21.3307 	 31.8565
| 23> S 	 -54.9296 	 23.1283 	 33.2464
| 24> C 	 -55.8312 	 21.7125 	 33.778
| 25> C 	 -55.5448 	 20.5873 	 33.0491
| 26> C 	 -54.7981 	 20.9062 	 31.8522
| 27> C 	 -54.2419 	 22.1955 	 31.8848
| 28> H 	 -56.0033 	 19.7058 	 33.2724
| 29> C 	 -54.4921 	 19.9248 	 30.7197
| 30> H 	 -53.8916 	 19.1405 	 31.1615
| 31> H 	 -53.8495 	 20.3403 	 29.9455
| 32> C 	 -55.7461 	 19.3007 	 30.0061
| 33> H 	 -56.4011 	 20.1595 	 29.9324
| 34> H 	 -56.3055 	 18.6813 	 30.6323
| 35> C 	 -55.493 	 18.6734 	 28.6553
| 36> H 	 -54.8153 	 19.3105 	 28.0626
| 37> H 	 -56.5168 	 18.5648 	 28.2001
| 38> H 	 -55.0723 	 17.7444 	 28.9506
| 39> H 	 -51.2092 	 24.6343 	 28.7142
| 40> H 	 -56.5445 	 21.7524 	 34.5729
| 41> *
| 42>
| 43>                          ****END OF INPUT****

CARTESIAN COORDINATES (ANGSTROEM)
---------------------------------
  S    -53.211000   23.666300   29.625800
  C    -51.584700   24.114600   29.615600
  C    -50.924200   23.729000   30.799900
  C    -51.884700   23.082500   31.651600
  C    -53.123000   22.898600   31.186400
  H    -51.677400   22.549000   32.525900
  C    -49.451900   23.920600   31.163200
  H    -49.407500   24.087500   32.275900
  H    -49.159300   24.810400   30.680200
  C    -48.627800   22.742800   30.769100
  H    -48.775600   22.441700   29.815700
  H    -47.615800   23.094500   30.808700
  C    -48.755700   21.499600   31.626100
  H    -48.313300   20.619700   31.160900
  H    -48.228000   21.593900   32.640200
  H    -49.802900   21.330700   31.856500
  S    -54.929600   23.128300   33.246400
  C    -55.831200   21.712500   33.778000
  C    -55.544800   20.587300   33.049100
  C    -54.798100   20.906200   31.852200
  C    -54.241900   22.195500   31.884800
  H    -56.003300   19.705800   33.272400
  C    -54.492100   19.924800   30.719700
  H    -53.891600   19.140500   31.161500
  H    -53.849500   20.340300   29.945500
  C    -55.746100   19.300700   30.006100
  H    -56.401100   20.159500   29.932400
  H    -56.305500   18.681300   30.632300
  C    -55.493000   18.673400   28.655300
  H    -54.815300   19.310500   28.062600
  H    -56.516800   18.564800   28.200100
  H    -55.072300   17.744400   28.950600
  H    -51.209200   24.634300   28.714200
  H    -56.544500   21.752400   34.572900

 Total Charge           Charge          ....    0
 Multiplicity           Mult            ....    1
 Number of Electrons    NEL             ....  134
 Basis Dimension        Dim             ....  322

ORBITAL ENERGIES
----------------

  NO   OCC          E(Eh)            E(eV)
   0   2.0000     -88.962535     -2420.7937
   1   2.0000     -88.960647     -2420.7423
   2   2.0000     -10.331629      -281.1379
   3   2.0000     -10.322947      -280.9017
   4   2.0000     -10.318322      -280.7758
   5   2.0000     -10.315277      -280.6930
   6   2.0000     -10.312243      -280.6104
   7   2.0000     -10.303074      -280.3609
   8   2.0000     -10.291694      -280.0512
   9   2.0000     -10.290942      -280.0308
  10   2.0000     -10.290106      -280.0080
  11   2.0000     -10.282418      -279.7988
  12   2.0000     -10.279659      -279.7237
  13   2.0000     -10.277994      -279.6784
  14   2.0000     -10.276628      -279.6413
  15   2.0000     -10.271086      -279.4905
  16   2.0000      -8.076865      -219.7827
  17   2.0000      -8.076750      -219.7795
  18   2.0000      -6.035216      -164.2266
  19   2.0000      -6.035153      -164.2249
  20   2.0000      -6.031343      -164.1212
  21   2.0000      -6.031018      -164.1123
  22   2.0000      -6.027910      -164.0278
  23   2.0000      -6.027566      -164.0184
  24   2.0000      -1.007491       -27.4152
  25   2.0000      -0.983173       -26.7535
  26   2.0000      -0.919029       -25.0081
  27   2.0000      -0.906029       -24.6543
  28   2.0000      -0.870769       -23.6948
  29   2.0000      -0.850486       -23.1429
  30   2.0000      -0.846322       -23.0296
  31   2.0000      -0.819777       -22.3073
  32   2.0000      -0.783096       -21.3091
  33   2.0000      -0.768774       -20.9194
  34   2.0000      -0.703032       -19.1305
  35   2.0000      -0.699796       -19.0424
  36   2.0000      -0.690370       -18.7859
  37   2.0000      -0.662594       -18.0301
  38   2.0000      -0.652935       -17.7673
  39   2.0000      -0.617181       -16.7943
  40   2.0000      -0.597353       -16.2548
  41   2.0000      -0.578543       -15.7430
  42   2.0000      -0.568771       -15.4770
  43   2.0000      -0.555556       -15.1174
  44   2.0000      -0.540136       -14.6979
  45   2.0000      -0.525597       -14.3022
  46   2.0000      -0.521984       -14.2039
  47   2.0000      -0.516374       -14.0512
  48   2.0000      -0.502697       -13.6791
  49   2.0000      -0.495097       -13.4723
  50   2.0000      -0.485398       -13.2084
  51   2.0000      -0.479610       -13.0508
  52   2.0000      -0.474470       -12.9110
  53   2.0000      -0.470566       -12.8047
  54   2.0000      -0.456165       -12.4129
  55   2.0000      -0.447237       -12.1699
  56   2.0000      -0.445368       -12.1191
  57   2.0000      -0.438166       -11.9231
  58   2.0000      -0.431876       -11.7520
  59   2.0000      -0.424107       -11.5405
  60   2.0000      -0.419409       -11.4127
  61   2.0000      -0.411479       -11.1969
  62   2.0000      -0.409745       -11.1497
  63   2.0000      -0.339068        -9.2265
  64   2.0000      -0.332421        -9.0456
  65   2.0000      -0.319459        -8.6929
  66   2.0000      -0.304765        -8.2931
  67   0.0000       0.044895         1.2217
  68   0.0000       0.060642         1.6502
  69   0.0000       0.115649         3.1470
  70   0.0000       0.118640         3.2284
  71   0.0000       0.132847         3.6149

MULLIKEN ATOMIC CHARGES
-----------------------
   0 S :    0.113097
   1 C :   -0.152001
   2 C :   -0.108722
   3 C :    0.054641
   4 C :   -0.169421
   5 H :   -0.006176
   6 C :    0.097485
   7 H :    0.035675
   8 H :    0.011317
   9 C :    0.008440
  10 H :   -0.001527
  11 H :    0.018232
  12 C :   -0.074693
  13 H :    0.036058
  14 H :    0.031484
  15 H :    0.028345
  16 S :    0.099815
  17 C :   -0.083804
  18 C :    0.018908
  19 C :   -0.032246
  20 C :   -0.175272
  21 H :   -0.014312
  22 C :    0.076842
  23 H :    0.025497
  24 H :    0.017122
  25 C :   -0.100423
  26 H :    0.019952
  27 H :    0.009662
  28 C :   -0.024268
  29 H :    0.043156
  30 H :    0.049517
  31 H :    0.030049
  32 H :    0.065163
  33 H :    0.052405
Sum of atomic charges:   -0.0000000

LOEWDIN ATOMIC CHARGES
----------------------
   0 S :    0.430463
   1 C :   -0.218351
   2 C :   -0.063667
   3 C :   -0.063663
   4 C :   -0.212813
   5 H :    0.021476
   6 C :   -0.022443
   7 H :    0.039618
   8 H :    0.025992
   9 C :   -0.035429
  10 H :    0.011806
  11 H :    0.024341
  12 C :   -0.065448
  13 H :    0.027061
  14 H :    0.029801
  15 H :    0.022397
  16 S :    0.386988
  17 C :   -0.164275
  18 C :   -0.061440
  19 C :   -0.041674
  20 C :   -0.188985
  21 H :    0.016116
  22 C :   -0.030759
  23 H :    0.028005
  24 H :    0.027080
  25 C :   -0.042658
  26 H :    0.020009
  27 H :    0.011390
  28 C :   -0.058480
  29 H :    0.029128
  30 H :    0.038879
  31 H :    0.022647
  32 H :    0.032904
  33 H :    0.023983

  Mayer bond orders larger than 0.100000
B(  0-S ,  1-C ) :   1.1887 B(  0-S ,  4-C ) :   1.1420 B(  1-C ,  2-C ) :   1.5632
B(  1-C , 32-H ) :   0.9683 B(  2-C ,  3-C ) :   1.2524 B(  2-C ,  6-C ) :   1.0177
B(  3-C ,  4-C ) :   1.6131 B(  3-C ,  5-H ) :   0.9928 B(  4-C , 20-C ) :   0.9854
B(  6-C ,  7-H ) :   0.9424 B(  6-C ,  8-H ) :   0.9319 B(  6-C ,  9-C ) :   1.0788
B(  9-C , 10-H ) :   0.9494 B(  9-C , 11-H ) :   0.9492 B(  9-C , 12-C ) :   1.0795
B( 12-C , 13-H ) :   0.9728 B( 12-C , 14-H ) :   0.9735 B( 12-C , 15-H ) :   0.9750
B( 16-S , 17-C ) :   1.1577 B( 16-S , 20-C ) :   1.1341 B( 17-C , 18-C ) :   1.6216
B( 17-C , 33-H ) :   0.9696 B( 18-C , 19-C ) :   1.2159 B( 18-C , 21-H ) :   1.0026
B( 19-C , 20-C ) :   1.6165 B( 19-C , 22-C ) :   1.0502 B( 22-C , 23-H ) :   0.9315
B( 22-C , 24-H ) :   0.9404 B( 22-C , 25-C ) :   1.0404 B( 25-C , 26-H ) :   0.9597
B( 25-C , 27-H ) :   0.9551 B( 25-C , 28-C ) :   1.0824 B( 28-C , 29-H ) :   0.9746
B( 28-C , 30-H ) :   0.9726 B( 28-C , 31-H ) :   0.9778

Dispersion correction           -0.014128405
FINAL SINGLE POINT ENERGY     -1339.862088392882

DIPOLE MOMENT
-------------
                                X             Y             Z
Electronic contribution:    -12.27047      16.89635       6.53146
Nuclear contribution   :     12.52481     -17.35152      -6.55981
                        -----------------------------------------
Total Dipole Moment    :      0.25434      -0.45517      -0.02836
                        -----------------------------------------
Magnitude (a.u.)       :      0.52218
Magnitude (Debye)      :      1.32728

Rotational constants in cm-1:     0.017323     0.008305     0.007271
Rotational constants in MHz :   519.333133   248.964299   217.976202

                             ****ORCA TERMINATED NORMALLY****
TOTAL RUN TIME: 0 days 0 hours 0 minutes 21 seconds 324 msec
