                         Program Version 4.2.1 -  RELEASE  -
|  1> ! wB97X-D3 SP def2-SVP
|  2> %pal
|  3> nprocs 24
|  4> end
|  5>
|  6> * xyz 0 1
|  7> S 	 -42.3801 	 -52.2789 	 -70.0914
|  8> C 	 -40.6875 	 -51.9256 	 -69.6143
|  9> C 	 -39.8324 	 -52.4183 	 -70.6285
| 10> C 	 -40.5202 	 -53.1898 	 -71.5671
| 11> C 	 -41.8358 	 -53.3631 	 -71.2478
| 12> H 	 -40.0957 	 -53.5975 	 -72.4656
| 13> C 	 -38.3527 	 -52.0759 	 -70.7117
| 14> H 	 -37.9483 	 -51.7909 	 -69.7254
| 15> H 	 -38.2705 	 -51.266 	 -71.4113
| 16> C 	 -37.4738 	 -53.2234 	 -71.2214
| 17> H 	 -37.8386 	 -53.5353 	 -72.2413
| 18> H 	 -36.478 	 -52.8423 	 -71.434
| 19> C 	 -37.4731 	 -54.4994 	 -70.303
| 20> H 	 -38.2668 	 -55.2815 	 -70.4061
| 21> H 	 -36.532 	 -54.8396 	 -70.5011
| 22> H 	 -37.4029 	 -54.1874 	 -69.2656
| 23> S 	 -43.7955 	 -53.2283 	 -73.1612
| 24> C 	 -44.2155 	 -54.5839 	 -74.1463
| 25> C 	 -43.5768 	 -55.7268 	 -73.6716
| 26> C 	 -42.6314 	 -55.5006 	 -72.66
| 27> C 	 -42.7564 	 -54.1873 	 -72.083
| 28> H 	 -43.6811 	 -56.6649 	 -74.232
| 29> C 	 -41.7327 	 -56.6006 	 -72.1687
| 30> H 	 -42.3413 	 -57.4635 	 -71.8526
| 31> H 	 -41.2025 	 -56.2232 	 -71.2885
| 32> C 	 -40.7889 	 -57.1194 	 -73.1759
| 33> H 	 -40.5514 	 -56.2724 	 -73.7845
| 34> H 	 -41.2066 	 -57.9756 	 -73.802
| 35> C 	 -39.4661 	 -57.759 	 -72.6596
| 36> H 	 -39.0234 	 -58.3875 	 -73.4748
| 37> H 	 -39.6209 	 -58.5598 	 -71.9135
| 38> H 	 -38.6616 	 -57.0694 	 -72.3542
| 39> H 	 -40.3209 	 -51.221 	 -68.9122
| 40> H 	 -44.983 	 -54.5527 	 -74.9237
| 41> *
| 42>
| 43>                          ****END OF INPUT****

CARTESIAN COORDINATES (ANGSTROEM)
---------------------------------
  S    -42.380100  -52.278900  -70.091400
  C    -40.687500  -51.925600  -69.614300
  C    -39.832400  -52.418300  -70.628500
  C    -40.520200  -53.189800  -71.567100
  C    -41.835800  -53.363100  -71.247800
  H    -40.095700  -53.597500  -72.465600
  C    -38.352700  -52.075900  -70.711700
  H    -37.948300  -51.790900  -69.725400
  H    -38.270500  -51.266000  -71.411300
  C    -37.473800  -53.223400  -71.221400
  H    -37.838600  -53.535300  -72.241300
  H    -36.478000  -52.842300  -71.434000
  C    -37.473100  -54.499400  -70.303000
  H    -38.266800  -55.281500  -70.406100
  H    -36.532000  -54.839600  -70.501100
  H    -37.402900  -54.187400  -69.265600
  S    -43.795500  -53.228300  -73.161200
  C    -44.215500  -54.583900  -74.146300
  C    -43.576800  -55.726800  -73.671600
  C    -42.631400  -55.500600  -72.660000
  C    -42.756400  -54.187300  -72.083000
  H    -43.681100  -56.664900  -74.232000
  C    -41.732700  -56.600600  -72.168700
  H    -42.341300  -57.463500  -71.852600
  H    -41.202500  -56.223200  -71.288500
  C    -40.788900  -57.119400  -73.175900
  H    -40.551400  -56.272400  -73.784500
  H    -41.206600  -57.975600  -73.802000
  C    -39.466100  -57.759000  -72.659600
  H    -39.023400  -58.387500  -73.474800
  H    -39.620900  -58.559800  -71.913500
  H    -38.661600  -57.069400  -72.354200
  H    -40.320900  -51.221000  -68.912200
  H    -44.983000  -54.552700  -74.923700

 Total Charge           Charge          ....    0
 Multiplicity           Mult            ....    1
 Number of Electrons    NEL             ....  134
 Basis Dimension        Dim             ....  322

ORBITAL ENERGIES
----------------

  NO   OCC          E(Eh)            E(eV)
   0   2.0000     -88.968554     -2420.9574
   1   2.0000     -88.964505     -2420.8473
   2   2.0000     -10.332435      -281.1599
   3   2.0000     -10.324689      -280.9491
   4   2.0000     -10.320218      -280.8274
   5   2.0000     -10.312835      -280.6265
   6   2.0000     -10.307896      -280.4921
   7   2.0000     -10.300243      -280.2839
   8   2.0000     -10.293524      -280.1010
   9   2.0000     -10.292981      -280.0863
  10   2.0000     -10.292389      -280.0701
  11   2.0000     -10.288026      -279.9514
  12   2.0000     -10.286634      -279.9135
  13   2.0000     -10.285860      -279.8925
  14   2.0000     -10.285263      -279.8762
  15   2.0000     -10.274464      -279.5824
  16   2.0000      -8.083752      -219.9701
  17   2.0000      -8.079222      -219.8468
  18   2.0000      -6.042100      -164.4139
  19   2.0000      -6.038415      -164.3136
  20   2.0000      -6.037666      -164.2932
  21   2.0000      -6.034418      -164.2049
  22   2.0000      -6.033507      -164.1801
  23   2.0000      -6.030267      -164.0919
  24   2.0000      -1.010415       -27.4948
  25   2.0000      -0.985660       -26.8212
  26   2.0000      -0.916418       -24.9370
  27   2.0000      -0.912038       -24.8178
  28   2.0000      -0.863604       -23.4999
  29   2.0000      -0.849516       -23.1165
  30   2.0000      -0.845392       -23.0043
  31   2.0000      -0.812318       -22.1043
  32   2.0000      -0.786914       -21.4130
  33   2.0000      -0.775175       -21.0936
  34   2.0000      -0.705925       -19.2092
  35   2.0000      -0.694662       -18.9027
  36   2.0000      -0.691792       -18.8246
  37   2.0000      -0.652481       -17.7549
  38   2.0000      -0.636218       -17.3124
  39   2.0000      -0.625369       -17.0172
  40   2.0000      -0.599726       -16.3194
  41   2.0000      -0.574628       -15.6364
  42   2.0000      -0.564206       -15.3528
  43   2.0000      -0.557024       -15.1574
  44   2.0000      -0.541036       -14.7223
  45   2.0000      -0.521923       -14.2022
  46   2.0000      -0.514214       -13.9925
  47   2.0000      -0.508606       -13.8399
  48   2.0000      -0.505693       -13.7606
  49   2.0000      -0.499956       -13.6045
  50   2.0000      -0.490854       -13.3568
  51   2.0000      -0.487112       -13.2550
  52   2.0000      -0.468946       -12.7607
  53   2.0000      -0.467258       -12.7147
  54   2.0000      -0.459581       -12.5058
  55   2.0000      -0.455280       -12.3888
  56   2.0000      -0.442958       -12.0535
  57   2.0000      -0.429850       -11.6968
  58   2.0000      -0.425833       -11.5875
  59   2.0000      -0.422510       -11.4971
  60   2.0000      -0.419750       -11.4220
  61   2.0000      -0.416968       -11.3463
  62   2.0000      -0.414353       -11.2751
  63   2.0000      -0.338815        -9.2196
  64   2.0000      -0.331148        -9.0110
  65   2.0000      -0.326100        -8.8736
  66   2.0000      -0.295093        -8.0299
  67   0.0000       0.029377         0.7994
  68   0.0000       0.058428         1.5899
  69   0.0000       0.105374         2.8674
  70   0.0000       0.114268         3.1094
  71   0.0000       0.125927         3.4266

MULLIKEN ATOMIC CHARGES
-----------------------
   0 S :    0.118155
   1 C :   -0.098663
   2 C :   -0.103734
   3 C :    0.022574
   4 C :   -0.144688
   5 H :    0.004316
   6 C :    0.087856
   7 H :    0.024932
   8 H :    0.038644
   9 C :   -0.122660
  10 H :    0.025716
  11 H :    0.028168
  12 C :   -0.016562
  13 H :    0.065285
  14 H :    0.008775
  15 H :    0.019537
  16 S :    0.093684
  17 C :   -0.097806
  18 C :   -0.028122
  19 C :   -0.086672
  20 C :   -0.123718
  21 H :    0.027715
  22 C :    0.106566
  23 H :    0.034588
  24 H :    0.026818
  25 C :   -0.105636
  26 H :    0.029545
  27 H :    0.040900
  28 C :   -0.079323
  29 H :    0.028440
  30 H :    0.030773
  31 H :    0.046069
  32 H :    0.031721
  33 H :    0.066804
Sum of atomic charges:   -0.0000000

LOEWDIN ATOMIC CHARGES
----------------------
   0 S :    0.429298
   1 C :   -0.193026
   2 C :   -0.053543
   3 C :   -0.067026
   4 C :   -0.219948
   5 H :    0.028579
   6 C :   -0.030621
   7 H :    0.029856
   8 H :    0.033236
   9 C :   -0.041457
  10 H :    0.023113
  11 H :    0.023463
  12 C :   -0.064598
  13 H :    0.034732
  14 H :    0.016002
  15 H :    0.025568
  16 S :    0.410911
  17 C :   -0.190202
  18 C :   -0.079078
  19 C :   -0.051734
  20 C :   -0.196988
  21 H :    0.034867
  22 C :   -0.038852
  23 H :    0.037859
  24 H :    0.033050
  25 C :   -0.047971
  26 H :    0.021195
  27 H :    0.033524
  28 C :   -0.076082
  29 H :    0.031035
  30 H :    0.026275
  31 H :    0.025401
  32 H :    0.020294
  33 H :    0.032868

  Mayer bond orders larger than 0.100000
B(  0-S ,  1-C ) :   1.1302 B(  0-S ,  4-C ) :   1.1871 B(  1-C ,  2-C ) :   1.5862
B(  1-C ,  4-C ) :   0.1026 B(  1-C , 32-H ) :   0.9740 B(  2-C ,  3-C ) :   1.2703
B(  2-C ,  6-C ) :   1.0159 B(  3-C ,  4-C ) :   1.5254 B(  3-C ,  5-H ) :   1.0042
B(  4-C , 20-C ) :   0.9864 B(  6-C ,  7-H ) :   0.9446 B(  6-C ,  8-H ) :   0.9320
B(  6-C ,  9-C ) :   1.0906 B(  9-C , 10-H ) :   0.9476 B(  9-C , 11-H ) :   0.9595
B(  9-C , 12-C ) :   1.0550 B( 12-C , 13-H ) :   0.9715 B( 12-C , 14-H ) :   0.9727
B( 12-C , 15-H ) :   0.9743 B( 16-S , 17-C ) :   1.1900 B( 16-S , 20-C ) :   1.1555
B( 17-C , 18-C ) :   1.5603 B( 17-C , 20-C ) :   0.1130 B( 17-C , 33-H ) :   0.9656
B( 18-C , 19-C ) :   1.2799 B( 18-C , 21-H ) :   0.9871 B( 19-C , 20-C ) :   1.5482
B( 19-C , 22-C ) :   1.0636 B( 22-C , 23-H ) :   0.9275 B( 22-C , 24-H ) :   0.9373
B( 22-C , 25-C ) :   1.0540 B( 25-C , 26-H ) :   0.9610 B( 25-C , 27-H ) :   0.9505
B( 25-C , 28-C ) :   1.0882 B( 28-C , 29-H ) :   0.9741 B( 28-C , 30-H ) :   0.9719
B( 28-C , 31-H ) :   0.9742

Dispersion correction           -0.015266076
FINAL SINGLE POINT ENERGY     -1339.856131984628

DIPOLE MOMENT
-------------
                                X             Y             Z
Electronic contribution:    -26.83602      17.35164       1.24100
Nuclear contribution   :     27.49313     -17.63431      -1.60930
                        -----------------------------------------
Total Dipole Moment    :      0.65711      -0.28267      -0.36830
                        -----------------------------------------
Magnitude (a.u.)       :      0.80458
Magnitude (Debye)      :      2.04507

Rotational constants in cm-1:     0.016029     0.011197     0.007324
Rotational constants in MHz :   480.531180   335.681224   219.560902

                             ****ORCA TERMINATED NORMALLY****
TOTAL RUN TIME: 0 days 0 hours 0 minutes 22 seconds 716 msec
