                         Program Version 4.2.1 -  RELEASE  -
|  1> ! wB97X-D3 SP def2-SVP
|  2> %pal
|  3> nprocs 24
|  4> end
|  5>
|  6> * xyz 0 1
|  7> S 	 -46.9078 	 -2.23257 	 20.766
|  8> C 	 -47.5854 	 -0.991446 	 19.7869
|  9> C 	 -48.3933 	 -1.55095 	 18.824
| 10> C 	 -48.5499 	 -2.96717 	 18.9561
| 11> C 	 -47.7591 	 -3.5126 	 19.9645
| 12> H 	 -49.1742 	 -3.55401 	 18.2718
| 13> C 	 -48.8683 	 -0.719515 	 17.6251
| 14> H 	 -48.212 	 0.142739 	 17.507
| 15> H 	 -49.8037 	 -0.209366 	 17.9802
| 16> C 	 -49.0313 	 -1.47061 	 16.3001
| 17> H 	 -48.1284 	 -2.06684 	 16.3575
| 18> H 	 -49.9997 	 -2.10014 	 16.3886
| 19> C 	 -49.2579 	 -0.543834 	 15.0303
| 20> H 	 -50.245 	 -0.124554 	 14.9769
| 21> H 	 -48.564 	 0.323005 	 15.0146
| 22> H 	 -49.1409 	 -1.17742 	 14.1289
| 23> S 	 -48.0748 	 -6.20618 	 19.2623
| 24> C 	 -47.8894 	 -7.42127 	 20.4412
| 25> C 	 -47.5019 	 -6.90155 	 21.6487
| 26> C 	 -47.4769 	 -5.46976 	 21.6654
| 27> C 	 -47.8629 	 -4.85207 	 20.4522
| 28> H 	 -47.2014 	 -7.59884 	 22.4452
| 29> C 	 -47.0945 	 -4.68181 	 22.9211
| 30> H 	 -47.8449 	 -3.88784 	 23.025
| 31> H 	 -46.1953 	 -4.11174 	 22.9479
| 32> C 	 -47.0323 	 -5.36529 	 24.275
| 33> H 	 -46.2763 	 -6.16832 	 24.2135
| 34> H 	 -48.0259 	 -5.65441 	 24.5741
| 35> C 	 -46.515 	 -4.42806 	 25.3026
| 36> H 	 -47.1099 	 -3.51554 	 25.2894
| 37> H 	 -45.498 	 -4.08276 	 25.1018
| 38> H 	 -46.6648 	 -4.71395 	 26.312
| 39> H 	 -47.3034 	 0.032538 	 19.8572
| 40> H 	 -47.9505 	 -8.50548 	 20.1935
| 41> *
| 42>
| 43>                          ****END OF INPUT****

CARTESIAN COORDINATES (ANGSTROEM)
---------------------------------
  S    -46.907800   -2.232570   20.766000
  C    -47.585400   -0.991446   19.786900
  C    -48.393300   -1.550950   18.824000
  C    -48.549900   -2.967170   18.956100
  C    -47.759100   -3.512600   19.964500
  H    -49.174200   -3.554010   18.271800
  C    -48.868300   -0.719515   17.625100
  H    -48.212000    0.142739   17.507000
  H    -49.803700   -0.209366   17.980200
  C    -49.031300   -1.470610   16.300100
  H    -48.128400   -2.066840   16.357500
  H    -49.999700   -2.100140   16.388600
  C    -49.257900   -0.543834   15.030300
  H    -50.245000   -0.124554   14.976900
  H    -48.564000    0.323005   15.014600
  H    -49.140900   -1.177420   14.128900
  S    -48.074800   -6.206180   19.262300
  C    -47.889400   -7.421270   20.441200
  C    -47.501900   -6.901550   21.648700
  C    -47.476900   -5.469760   21.665400
  C    -47.862900   -4.852070   20.452200
  H    -47.201400   -7.598840   22.445200
  C    -47.094500   -4.681810   22.921100
  H    -47.844900   -3.887840   23.025000
  H    -46.195300   -4.111740   22.947900
  C    -47.032300   -5.365290   24.275000
  H    -46.276300   -6.168320   24.213500
  H    -48.025900   -5.654410   24.574100
  C    -46.515000   -4.428060   25.302600
  H    -47.109900   -3.515540   25.289400
  H    -45.498000   -4.082760   25.101800
  H    -46.664800   -4.713950   26.312000
  H    -47.303400    0.032538   19.857200
  H    -47.950500   -8.505480   20.193500

 Total Charge           Charge          ....    0
 Multiplicity           Mult            ....    1
 Number of Electrons    NEL             ....  134
 Basis Dimension        Dim             ....  322

ORBITAL ENERGIES
----------------

  NO   OCC          E(Eh)            E(eV)
   0   2.0000     -88.967677     -2420.9336
   1   2.0000     -88.963357     -2420.8160
   2   2.0000     -10.331892      -281.1451
   3   2.0000     -10.330415      -281.1049
   4   2.0000     -10.318411      -280.7782
   5   2.0000     -10.310763      -280.5701
   6   2.0000     -10.308983      -280.5217
   7   2.0000     -10.300204      -280.2828
   8   2.0000     -10.297945      -280.2213
   9   2.0000     -10.295229      -280.1474
  10   2.0000     -10.294597      -280.1302
  11   2.0000     -10.292272      -280.0670
  12   2.0000     -10.287603      -279.9399
  13   2.0000     -10.284818      -279.8641
  14   2.0000     -10.281002      -279.7603
  15   2.0000     -10.270024      -279.4616
  16   2.0000      -8.082569      -219.9379
  17   2.0000      -8.078075      -219.8156
  18   2.0000      -6.041136      -164.3877
  19   2.0000      -6.036828      -164.2704
  20   2.0000      -6.036667      -164.2660
  21   2.0000      -6.033485      -164.1795
  22   2.0000      -6.032520      -164.1532
  23   2.0000      -6.028820      -164.0525
  24   2.0000      -1.008956       -27.4551
  25   2.0000      -0.986160       -26.8348
  26   2.0000      -0.918798       -25.0018
  27   2.0000      -0.907165       -24.6852
  28   2.0000      -0.874190       -23.7879
  29   2.0000      -0.853327       -23.2202
  30   2.0000      -0.841712       -22.9041
  31   2.0000      -0.813136       -22.1265
  32   2.0000      -0.782616       -21.2961
  33   2.0000      -0.772024       -21.0078
  34   2.0000      -0.713994       -19.4288
  35   2.0000      -0.700625       -19.0650
  36   2.0000      -0.685986       -18.6666
  37   2.0000      -0.657051       -17.8793
  38   2.0000      -0.631455       -17.1828
  39   2.0000      -0.619450       -16.8561
  40   2.0000      -0.603736       -16.4285
  41   2.0000      -0.582978       -15.8636
  42   2.0000      -0.568111       -15.4591
  43   2.0000      -0.563674       -15.3384
  44   2.0000      -0.523820       -14.2539
  45   2.0000      -0.519915       -14.1476
  46   2.0000      -0.516740       -14.0612
  47   2.0000      -0.512787       -13.9536
  48   2.0000      -0.507055       -13.7977
  49   2.0000      -0.498348       -13.5607
  50   2.0000      -0.487219       -13.2579
  51   2.0000      -0.482950       -13.1417
  52   2.0000      -0.473143       -12.8749
  53   2.0000      -0.468796       -12.7566
  54   2.0000      -0.458839       -12.4857
  55   2.0000      -0.452996       -12.3266
  56   2.0000      -0.450165       -12.2496
  57   2.0000      -0.431933       -11.7535
  58   2.0000      -0.427320       -11.6280
  59   2.0000      -0.420749       -11.4492
  60   2.0000      -0.418778       -11.3955
  61   2.0000      -0.414648       -11.2831
  62   2.0000      -0.406471       -11.0606
  63   2.0000      -0.361971        -9.8497
  64   2.0000      -0.329437        -8.9644
  65   2.0000      -0.327293        -8.9061
  66   2.0000      -0.280958        -7.6453
  67   0.0000       0.018303         0.4981
  68   0.0000       0.084221         2.2918
  69   0.0000       0.110947         3.0190
  70   0.0000       0.128151         3.4872
  71   0.0000       0.132641         3.6093

MULLIKEN ATOMIC CHARGES
-----------------------
   0 S :    0.099184
   1 C :   -0.115775
   2 C :   -0.084878
   3 C :   -0.013210
   4 C :   -0.109625
   5 H :    0.023861
   6 C :    0.047471
   7 H :    0.014462
   8 H :    0.034557
   9 C :   -0.120072
  10 H :    0.049844
  11 H :    0.052531
  12 C :   -0.043571
  13 H :    0.033050
  14 H :    0.035814
  15 H :    0.045929
  16 S :    0.082676
  17 C :   -0.090219
  18 C :   -0.052200
  19 C :   -0.025389
  20 C :   -0.108956
  21 H :    0.032648
  22 C :   -0.005683
  23 H :    0.029999
  24 H :    0.023324
  25 C :   -0.043796
  26 H :    0.033159
  27 H :    0.027702
  28 C :   -0.034197
  29 H :    0.008301
  30 H :    0.031469
  31 H :    0.024254
  32 H :    0.042313
  33 H :    0.075023
Sum of atomic charges:   -0.0000000

LOEWDIN ATOMIC CHARGES
----------------------
   0 S :    0.443016
   1 C :   -0.204765
   2 C :   -0.064996
   3 C :   -0.070993
   4 C :   -0.199253
   5 H :    0.031550
   6 C :   -0.042068
   7 H :    0.024826
   8 H :    0.033214
   9 C :   -0.048424
  10 H :    0.027622
  11 H :    0.036055
  12 C :   -0.065204
  13 H :    0.024253
  14 H :    0.026301
  15 H :    0.033072
  16 S :    0.400639
  17 C :   -0.197894
  18 C :   -0.084691
  19 C :   -0.051608
  20 C :   -0.178319
  21 H :    0.038558
  22 C :   -0.048573
  23 H :    0.031108
  24 H :    0.021935
  25 C :   -0.038651
  26 H :    0.025347
  27 H :    0.023674
  28 C :   -0.064346
  29 H :    0.023998
  30 H :    0.025520
  31 H :    0.023153
  32 H :    0.024915
  33 H :    0.041029

  Mayer bond orders larger than 0.100000
B(  0-S ,  1-C ) :   1.1513 B(  0-S ,  4-C ) :   1.1622 B(  1-C ,  2-C ) :   1.5776
B(  1-C , 32-H ) :   0.9751 B(  2-C ,  3-C ) :   1.2955 B(  2-C ,  6-C ) :   1.0059
B(  3-C ,  4-C ) :   1.4868 B(  3-C ,  5-H ) :   0.9894 B(  4-C , 20-C ) :   1.1063
B(  6-C ,  7-H ) :   0.9497 B(  6-C ,  8-H ) :   0.9278 B(  6-C ,  9-C ) :   1.0593
B(  9-C , 10-H ) :   0.9634 B(  9-C , 11-H ) :   0.9465 B(  9-C , 12-C ) :   1.0708
B( 12-C , 13-H ) :   0.9759 B( 12-C , 14-H ) :   0.9777 B( 12-C , 15-H ) :   0.9763
B( 16-S , 17-C ) :   1.1775 B( 16-S , 20-C ) :   1.1183 B( 17-C , 18-C ) :   1.5808
B( 17-C , 33-H ) :   0.9571 B( 18-C , 19-C ) :   1.2647 B( 18-C , 21-H ) :   0.9889
B( 19-C , 20-C ) :   1.5533 B( 19-C , 22-C ) :   1.0084 B( 22-C , 23-H ) :   0.9350
B( 22-C , 24-H ) :   0.9382 B( 22-C , 25-C ) :   1.0870 B( 25-C , 26-H ) :   0.9426
B( 25-C , 27-H ) :   0.9495 B( 25-C , 28-C ) :   1.1046 B( 28-C , 29-H ) :   0.9661
B( 28-C , 30-H ) :   0.9687 B( 28-C , 31-H ) :   0.9683

Dispersion correction           -0.013235442
FINAL SINGLE POINT ENERGY     -1339.872666133549

DIPOLE MOMENT
-------------
                                X             Y             Z
Electronic contribution:      2.57915      -9.72312      -1.30490
Nuclear contribution   :     -2.59959       9.90197       1.35169
                        -----------------------------------------
Total Dipole Moment    :     -0.02044       0.17885       0.04679
                        -----------------------------------------
Magnitude (a.u.)       :      0.18600
Magnitude (Debye)      :      0.47278

Rotational constants in cm-1:     0.023229     0.007316     0.005683
Rotational constants in MHz :   696.377892   219.322857   170.377385

                             ****ORCA TERMINATED NORMALLY****
TOTAL RUN TIME: 0 days 0 hours 0 minutes 21 seconds 866 msec
