                         Program Version 4.2.1 -  RELEASE  -
|  1> ! wB97X-D3 SP def2-SVP
|  2> %pal
|  3> nprocs 24
|  4> end
|  5>
|  6> * xyz 0 1
|  7> S 	 -126.357 	 68.2644 	 -47.6963
|  8> C 	 -125.848 	 69.9891 	 -47.4494
|  9> C 	 -126.79 	 70.8685 	 -47.967
| 10> C 	 -127.652 	 70.1284 	 -48.8792
| 11> C 	 -127.39 	 68.7941 	 -48.9411
| 12> H 	 -128.257 	 70.6117 	 -49.6058
| 13> C 	 -126.77 	 72.3487 	 -47.8802
| 14> H 	 -126.407 	 72.527 	 -46.8595
| 15> H 	 -127.767 	 72.7144 	 -47.9922
| 16> C 	 -125.891 	 73.0848 	 -48.8845
| 17> H 	 -124.871 	 73.0571 	 -48.5813
| 18> H 	 -125.946 	 72.5795 	 -49.9068
| 19> C 	 -126.533 	 74.5203 	 -49.0567
| 20> H 	 -126.368 	 75.2246 	 -48.2216
| 21> H 	 -126.083 	 75.0681 	 -49.9123
| 22> H 	 -127.564 	 74.5652 	 -49.1791
| 23> S 	 -127.232 	 67.4311 	 -51.3314
| 24> C 	 -128.519 	 66.4334 	 -51.8381
| 25> C 	 -129.577 	 66.4602 	 -50.9581
| 26> C 	 -129.235 	 67.2114 	 -49.7677
| 27> C 	 -128.037 	 67.8286 	 -49.8563
| 28> H 	 -130.45 	 65.7517 	 -51.0582
| 29> C 	 -130.179 	 67.3002 	 -48.6234
| 30> H 	 -131.272 	 67.3458 	 -48.9078
| 31> H 	 -129.952 	 68.2109 	 -48.049
| 32> C 	 -129.953 	 66.1648 	 -47.6737
| 33> H 	 -128.946 	 66.1268 	 -47.3023
| 34> H 	 -130.092 	 65.2471 	 -48.1504
| 35> C 	 -130.956 	 66.2355 	 -46.4389
| 36> H 	 -131.014 	 65.1984 	 -46.0537
| 37> H 	 -131.958 	 66.4409 	 -46.7895
| 38> H 	 -130.668 	 66.8945 	 -45.7162
| 39> H 	 -125.017 	 70.3723 	 -46.8527
| 40> H 	 -128.636 	 65.7732 	 -52.6685
| 41> *
| 42>
| 43>                          ****END OF INPUT****

CARTESIAN COORDINATES (ANGSTROEM)
---------------------------------
  S    -126.357000   68.264400  -47.696300
  C    -125.848000   69.989100  -47.449400
  C    -126.790000   70.868500  -47.967000
  C    -127.652000   70.128400  -48.879200
  C    -127.390000   68.794100  -48.941100
  H    -128.257000   70.611700  -49.605800
  C    -126.770000   72.348700  -47.880200
  H    -126.407000   72.527000  -46.859500
  H    -127.767000   72.714400  -47.992200
  C    -125.891000   73.084800  -48.884500
  H    -124.871000   73.057100  -48.581300
  H    -125.946000   72.579500  -49.906800
  C    -126.533000   74.520300  -49.056700
  H    -126.368000   75.224600  -48.221600
  H    -126.083000   75.068100  -49.912300
  H    -127.564000   74.565200  -49.179100
  S    -127.232000   67.431100  -51.331400
  C    -128.519000   66.433400  -51.838100
  C    -129.577000   66.460200  -50.958100
  C    -129.235000   67.211400  -49.767700
  C    -128.037000   67.828600  -49.856300
  H    -130.450000   65.751700  -51.058200
  C    -130.179000   67.300200  -48.623400
  H    -131.272000   67.345800  -48.907800
  H    -129.952000   68.210900  -48.049000
  C    -129.953000   66.164800  -47.673700
  H    -128.946000   66.126800  -47.302300
  H    -130.092000   65.247100  -48.150400
  C    -130.956000   66.235500  -46.438900
  H    -131.014000   65.198400  -46.053700
  H    -131.958000   66.440900  -46.789500
  H    -130.668000   66.894500  -45.716200
  H    -125.017000   70.372300  -46.852700
  H    -128.636000   65.773200  -52.668500

 Total Charge           Charge          ....    0
 Multiplicity           Mult            ....    1
 Number of Electrons    NEL             ....  134
 Basis Dimension        Dim             ....  322

ORBITAL ENERGIES
----------------

  NO   OCC          E(Eh)            E(eV)
   0   2.0000     -88.965697     -2420.8797
   1   2.0000     -88.964328     -2420.8424
   2   2.0000     -10.323158      -280.9074
   3   2.0000     -10.317089      -280.7423
   4   2.0000     -10.316882      -280.7366
   5   2.0000     -10.310574      -280.5650
   6   2.0000     -10.301378      -280.3147
   7   2.0000     -10.296644      -280.1859
   8   2.0000     -10.294928      -280.1392
   9   2.0000     -10.293108      -280.0897
  10   2.0000     -10.289874      -280.0017
  11   2.0000     -10.289519      -279.9921
  12   2.0000     -10.284938      -279.8674
  13   2.0000     -10.281289      -279.7681
  14   2.0000     -10.274147      -279.5738
  15   2.0000     -10.269395      -279.4444
  16   2.0000      -8.080288      -219.8758
  17   2.0000      -8.080131      -219.8715
  18   2.0000      -6.038849      -164.3254
  19   2.0000      -6.038628      -164.3194
  20   2.0000      -6.035147      -164.2247
  21   2.0000      -6.034440      -164.2055
  22   2.0000      -6.030886      -164.1088
  23   2.0000      -6.030660      -164.1026
  24   2.0000      -1.011739       -27.5308
  25   2.0000      -0.987248       -26.8644
  26   2.0000      -0.917695       -24.9717
  27   2.0000      -0.911936       -24.8150
  28   2.0000      -0.865872       -23.5616
  29   2.0000      -0.846216       -23.0267
  30   2.0000      -0.843929       -22.9645
  31   2.0000      -0.813898       -22.1473
  32   2.0000      -0.782768       -21.3002
  33   2.0000      -0.771691       -20.9988
  34   2.0000      -0.713306       -19.4100
  35   2.0000      -0.702755       -19.1229
  36   2.0000      -0.694134       -18.8884
  37   2.0000      -0.658958       -17.9312
  38   2.0000      -0.637389       -17.3442
  39   2.0000      -0.619466       -16.8565
  40   2.0000      -0.596185       -16.2230
  41   2.0000      -0.577483       -15.7141
  42   2.0000      -0.566193       -15.4069
  43   2.0000      -0.559451       -15.2234
  44   2.0000      -0.525046       -14.2872
  45   2.0000      -0.518260       -14.1026
  46   2.0000      -0.514786       -14.0080
  47   2.0000      -0.511480       -13.9181
  48   2.0000      -0.500899       -13.6301
  49   2.0000      -0.498380       -13.5616
  50   2.0000      -0.491418       -13.3722
  51   2.0000      -0.477722       -12.9995
  52   2.0000      -0.471381       -12.8269
  53   2.0000      -0.467392       -12.7184
  54   2.0000      -0.462538       -12.5863
  55   2.0000      -0.449645       -12.2355
  56   2.0000      -0.441140       -12.0040
  57   2.0000      -0.440534       -11.9875
  58   2.0000      -0.436164       -11.8686
  59   2.0000      -0.428696       -11.6654
  60   2.0000      -0.419995       -11.4286
  61   2.0000      -0.416574       -11.3356
  62   2.0000      -0.411707       -11.2031
  63   2.0000      -0.332737        -9.0542
  64   2.0000      -0.324851        -8.8396
  65   2.0000      -0.319681        -8.6990
  66   2.0000      -0.315068        -8.5734
  67   0.0000       0.043482         1.1832
  68   0.0000       0.063937         1.7398
  69   0.0000       0.093301         2.5389
  70   0.0000       0.125524         3.4157
  71   0.0000       0.134631         3.6635

MULLIKEN ATOMIC CHARGES
-----------------------
   0 S :    0.115809
   1 C :   -0.129080
   2 C :   -0.097913
   3 C :    0.066139
   4 C :   -0.176081
   5 H :    0.001267
   6 C :    0.076985
   7 H :    0.030735
   8 H :    0.017682
   9 C :   -0.054166
  10 H :    0.030797
  11 H :    0.047330
  12 C :   -0.066025
  13 H :    0.029464
  14 H :    0.034809
  15 H :    0.021633
  16 S :    0.131305
  17 C :   -0.067997
  18 C :   -0.067428
  19 C :   -0.024101
  20 C :   -0.184819
  21 H :    0.040380
  22 C :    0.066650
  23 H :    0.032063
  24 H :    0.023026
  25 C :   -0.067298
  26 H :    0.017404
  27 H :    0.003932
  28 C :   -0.010267
  29 H :    0.030016
  30 H :    0.016554
  31 H :    0.026758
  32 H :    0.041869
  33 H :    0.042569
Sum of atomic charges:    0.0000000

LOEWDIN ATOMIC CHARGES
----------------------
   0 S :    0.394999
   1 C :   -0.181074
   2 C :   -0.056264
   3 C :   -0.054873
   4 C :   -0.206782
   5 H :    0.025534
   6 C :   -0.035436
   7 H :    0.036274
   8 H :    0.028781
   9 C :   -0.029609
  10 H :    0.021789
  11 H :    0.034765
  12 C :   -0.069747
  13 H :    0.027881
  14 H :    0.029265
  15 H :    0.014652
  16 S :    0.435872
  17 C :   -0.197253
  18 C :   -0.081969
  19 C :   -0.055129
  20 C :   -0.217810
  21 H :    0.039935
  22 C :   -0.038225
  23 H :    0.034974
  24 H :    0.031690
  25 C :   -0.029226
  26 H :    0.019464
  27 H :    0.011436
  28 C :   -0.052673
  29 H :    0.030949
  30 H :    0.020574
  31 H :    0.010992
  32 H :    0.026697
  33 H :    0.029547

  Mayer bond orders larger than 0.100000
B(  0-S ,  1-C ) :   1.1117 B(  0-S ,  4-C ) :   1.1488 B(  1-C ,  2-C ) :   1.6443
B(  1-C , 32-H ) :   0.9695 B(  2-C ,  3-C ) :   1.1861 B(  2-C ,  6-C ) :   1.0450
B(  3-C ,  4-C ) :   1.6350 B(  3-C ,  5-H ) :   0.9981 B(  4-C , 20-C ) :   0.9774
B(  6-C ,  7-H ) :   0.9270 B(  6-C ,  8-H ) :   0.9427 B(  6-C ,  9-C ) :   1.0549
B(  9-C , 10-H ) :   0.9562 B(  9-C , 11-H ) :   0.9629 B(  9-C , 12-C ) :   1.0626
B( 12-C , 13-H ) :   0.9760 B( 12-C , 14-H ) :   0.9764 B( 12-C , 15-H ) :   0.9797
B( 16-S , 17-C ) :   1.1663 B( 16-S , 20-C ) :   1.1344 B( 17-C , 18-C ) :   1.6280
B( 17-C , 33-H ) :   0.9646 B( 18-C , 19-C ) :   1.2323 B( 18-C , 21-H ) :   0.9757
B( 19-C , 20-C ) :   1.6468 B( 19-C , 22-C ) :   1.0536 B( 22-C , 23-H ) :   0.9364
B( 22-C , 24-H ) :   0.9215 B( 22-C , 25-C ) :   1.0739 B( 25-C , 26-H ) :   0.9496
B( 25-C , 27-H ) :   0.9583 B( 25-C , 28-C ) :   1.0770 B( 28-C , 29-H ) :   0.9769
B( 28-C , 30-H ) :   0.9739 B( 28-C , 31-H ) :   0.9803

Dispersion correction           -0.014280397
FINAL SINGLE POINT ENERGY     -1339.859955495825

DIPOLE MOMENT
-------------
                                X             Y             Z
Electronic contribution:     10.23704     -13.75174      -9.59469
Nuclear contribution   :    -10.51724      14.11979       9.67503
                        -----------------------------------------
Total Dipole Moment    :     -0.28020       0.36805       0.08034
                        -----------------------------------------
Magnitude (a.u.)       :      0.46950
Magnitude (Debye)      :      1.19337

Rotational constants in cm-1:     0.019552     0.007820     0.006735
Rotational constants in MHz :   586.140282   234.430600   201.919893

                             ****ORCA TERMINATED NORMALLY****
TOTAL RUN TIME: 0 days 0 hours 0 minutes 21 seconds 320 msec
