                         Program Version 4.2.1 -  RELEASE  -
|  1> ! wB97X-D3 SP def2-SVP
|  2> %pal
|  3> nprocs 24
|  4> end
|  5>
|  6> * xyz 0 1
|  7> S 	 -87.6347 	 -30.2072 	 -77.4924
|  8> C 	 -86.6776 	 -30.5993 	 -78.9108
|  9> C 	 -86.8371 	 -31.9081 	 -79.2907
| 10> C 	 -87.762 	 -32.622 	 -78.4578
| 11> C 	 -88.1688 	 -31.8655 	 -77.3489
| 12> H 	 -88.1579 	 -33.5958 	 -78.55
| 13> C 	 -86.3239 	 -32.5129 	 -80.5879
| 14> H 	 -86.4421 	 -33.6054 	 -80.4897
| 15> H 	 -85.1798 	 -32.4352 	 -80.5551
| 16> C 	 -87.0077 	 -31.88 	 -81.8521
| 17> H 	 -86.8562 	 -32.4319 	 -82.6956
| 18> H 	 -88.0856 	 -31.7565 	 -81.728
| 19> C 	 -86.5067 	 -30.5124 	 -82.2039
| 20> H 	 -86.9008 	 -29.8182 	 -81.4844
| 21> H 	 -85.4054 	 -30.5771 	 -82.2452
| 22> H 	 -86.9671 	 -30.2669 	 -83.1827
| 23> S 	 -87.9966 	 -32.7353 	 -74.7924
| 24> C 	 -89.3916 	 -33.5103 	 -74.1447
| 25> C 	 -90.4251 	 -33.7291 	 -75.0354
| 26> C 	 -90.169 	 -33.035 	 -76.2633
| 27> C 	 -88.8892 	 -32.4187 	 -76.227
| 28> H 	 -91.3167 	 -34.3005 	 -74.6897
| 29> C 	 -91.0334 	 -33.2476 	 -77.406
| 30> H 	 -91.0985 	 -34.2877 	 -77.6377
| 31> H 	 -90.6544 	 -32.7301 	 -78.2538
| 32> C 	 -92.5171 	 -32.7199 	 -77.104
| 33> H 	 -92.4482 	 -31.8382 	 -76.5163
| 34> H 	 -93.0345 	 -33.4839 	 -76.4865
| 35> C 	 -93.3909 	 -32.6319 	 -78.4273
| 36> H 	 -94.3836 	 -32.1849 	 -78.2259
| 37> H 	 -93.5517 	 -33.672 	 -78.7502
| 38> H 	 -92.8619 	 -32.1485 	 -79.2794
| 39> H 	 -85.9004 	 -29.9836 	 -79.4236
| 40> H 	 -89.3502 	 -33.9601 	 -73.1722
| 41> *
| 42>
| 43>                          ****END OF INPUT****

CARTESIAN COORDINATES (ANGSTROEM)
---------------------------------
  S    -87.634700  -30.207200  -77.492400
  C    -86.677600  -30.599300  -78.910800
  C    -86.837100  -31.908100  -79.290700
  C    -87.762000  -32.622000  -78.457800
  C    -88.168800  -31.865500  -77.348900
  H    -88.157900  -33.595800  -78.550000
  C    -86.323900  -32.512900  -80.587900
  H    -86.442100  -33.605400  -80.489700
  H    -85.179800  -32.435200  -80.555100
  C    -87.007700  -31.880000  -81.852100
  H    -86.856200  -32.431900  -82.695600
  H    -88.085600  -31.756500  -81.728000
  C    -86.506700  -30.512400  -82.203900
  H    -86.900800  -29.818200  -81.484400
  H    -85.405400  -30.577100  -82.245200
  H    -86.967100  -30.266900  -83.182700
  S    -87.996600  -32.735300  -74.792400
  C    -89.391600  -33.510300  -74.144700
  C    -90.425100  -33.729100  -75.035400
  C    -90.169000  -33.035000  -76.263300
  C    -88.889200  -32.418700  -76.227000
  H    -91.316700  -34.300500  -74.689700
  C    -91.033400  -33.247600  -77.406000
  H    -91.098500  -34.287700  -77.637700
  H    -90.654400  -32.730100  -78.253800
  C    -92.517100  -32.719900  -77.104000
  H    -92.448200  -31.838200  -76.516300
  H    -93.034500  -33.483900  -76.486500
  C    -93.390900  -32.631900  -78.427300
  H    -94.383600  -32.184900  -78.225900
  H    -93.551700  -33.672000  -78.750200
  H    -92.861900  -32.148500  -79.279400
  H    -85.900400  -29.983600  -79.423600
  H    -89.350200  -33.960100  -73.172200

 Total Charge           Charge          ....    0
 Multiplicity           Mult            ....    1
 Number of Electrons    NEL             ....  134
 Basis Dimension        Dim             ....  322

ORBITAL ENERGIES
----------------

  NO   OCC          E(Eh)            E(eV)
   0   2.0000     -88.967379     -2420.9255
   1   2.0000     -88.966759     -2420.9086
   2   2.0000     -10.323749      -280.9235
   3   2.0000     -10.320589      -280.8375
   4   2.0000     -10.312498      -280.6173
   5   2.0000     -10.311735      -280.5966
   6   2.0000     -10.301714      -280.3239
   7   2.0000     -10.300138      -280.2810
   8   2.0000     -10.297539      -280.2103
   9   2.0000     -10.295213      -280.1470
  10   2.0000     -10.291072      -280.0343
  11   2.0000     -10.289893      -280.0022
  12   2.0000     -10.286279      -279.9039
  13   2.0000     -10.283790      -279.8362
  14   2.0000     -10.278618      -279.6954
  15   2.0000     -10.275245      -279.6036
  16   2.0000      -8.083217      -219.9555
  17   2.0000      -8.081106      -219.8981
  18   2.0000      -6.041443      -164.3960
  19   2.0000      -6.039580      -164.3453
  20   2.0000      -6.037741      -164.2953
  21   2.0000      -6.035669      -164.2389
  22   2.0000      -6.034044      -164.1947
  23   2.0000      -6.031938      -164.1374
  24   2.0000      -1.007946       -27.4276
  25   2.0000      -0.983452       -26.7611
  26   2.0000      -0.911561       -24.8048
  27   2.0000      -0.908364       -24.7178
  28   2.0000      -0.868779       -23.6407
  29   2.0000      -0.850512       -23.1436
  30   2.0000      -0.847245       -23.0547
  31   2.0000      -0.808903       -22.0114
  32   2.0000      -0.780441       -21.2369
  33   2.0000      -0.767411       -20.8823
  34   2.0000      -0.705845       -19.2070
  35   2.0000      -0.697591       -18.9824
  36   2.0000      -0.692781       -18.8515
  37   2.0000      -0.656083       -17.8529
  38   2.0000      -0.638432       -17.3726
  39   2.0000      -0.613477       -16.6936
  40   2.0000      -0.596906       -16.2426
  41   2.0000      -0.576396       -15.6845
  42   2.0000      -0.564176       -15.3520
  43   2.0000      -0.546284       -14.8652
  44   2.0000      -0.545238       -14.8367
  45   2.0000      -0.520305       -14.1582
  46   2.0000      -0.519040       -14.1238
  47   2.0000      -0.509483       -13.8637
  48   2.0000      -0.498966       -13.5775
  49   2.0000      -0.490938       -13.3591
  50   2.0000      -0.487041       -13.2531
  51   2.0000      -0.474579       -12.9139
  52   2.0000      -0.471696       -12.8355
  53   2.0000      -0.465963       -12.6795
  54   2.0000      -0.455163       -12.3856
  55   2.0000      -0.448012       -12.1910
  56   2.0000      -0.444692       -12.1007
  57   2.0000      -0.437429       -11.9031
  58   2.0000      -0.435733       -11.8569
  59   2.0000      -0.428230       -11.6527
  60   2.0000      -0.422999       -11.5104
  61   2.0000      -0.418465       -11.3870
  62   2.0000      -0.417568       -11.3626
  63   2.0000      -0.338712        -9.2168
  64   2.0000      -0.327595        -8.9143
  65   2.0000      -0.320681        -8.7262
  66   2.0000      -0.297203        -8.0873
  67   0.0000       0.036447         0.9918
  68   0.0000       0.063316         1.7229
  69   0.0000       0.108400         2.9497
  70   0.0000       0.121403         3.3035
  71   0.0000       0.130003         3.5376

MULLIKEN ATOMIC CHARGES
-----------------------
   0 S :    0.124429
   1 C :   -0.138297
   2 C :   -0.102841
   3 C :    0.059462
   4 C :   -0.201777
   5 H :   -0.000104
   6 C :    0.031397
   7 H :    0.023647
   8 H :    0.040289
   9 C :   -0.020320
  10 H :    0.008945
  11 H :    0.030041
  12 C :   -0.063030
  13 H :    0.036974
  14 H :    0.033418
  15 H :    0.034803
  16 S :    0.136787
  17 C :   -0.091979
  18 C :   -0.051822
  19 C :   -0.037690
  20 C :   -0.163671
  21 H :    0.041013
  22 C :    0.095997
  23 H :    0.031414
  24 H :    0.014536
  25 C :   -0.114519
  26 H :    0.038119
  27 H :    0.033952
  28 C :   -0.059172
  29 H :    0.048008
  30 H :    0.025990
  31 H :    0.042011
  32 H :    0.067398
  33 H :    0.046590
Sum of atomic charges:    0.0000000

LOEWDIN ATOMIC CHARGES
----------------------
   0 S :    0.407367
   1 C :   -0.211678
   2 C :   -0.069135
   3 C :   -0.053425
   4 C :   -0.204208
   5 H :    0.024609
   6 C :   -0.038134
   7 H :    0.029892
   8 H :    0.038024
   9 C :   -0.032819
  10 H :    0.010148
  11 H :    0.029534
  12 C :   -0.061710
  13 H :    0.019832
  14 H :    0.024535
  15 H :    0.031219
  16 S :    0.440467
  17 C :   -0.188582
  18 C :   -0.072889
  19 C :   -0.050005
  20 C :   -0.222901
  21 H :    0.041691
  22 C :   -0.029432
  23 H :    0.031762
  24 H :    0.023721
  25 C :   -0.030889
  26 H :    0.017770
  27 H :    0.024005
  28 C :   -0.071742
  29 H :    0.029989
  30 H :    0.025501
  31 H :    0.026862
  32 H :    0.040107
  33 H :    0.020512

  Mayer bond orders larger than 0.100000
B(  0-S ,  1-C ) :   1.1299 B(  0-S ,  4-C ) :   1.1576 B(  1-C ,  2-C ) :   1.6282
B(  1-C , 32-H ) :   0.9516 B(  2-C ,  3-C ) :   1.2417 B(  2-C ,  6-C ) :   1.0205
B(  3-C ,  4-C ) :   1.5640 B(  3-C ,  5-H ) :   0.9989 B(  4-C , 20-C ) :   1.0329
B(  6-C ,  7-H ) :   0.9440 B(  6-C ,  8-H ) :   0.9426 B(  6-C ,  9-C ) :   1.0468
B(  9-C , 10-H ) :   0.9582 B(  9-C , 11-H ) :   0.9553 B(  9-C , 12-C ) :   1.0868
B( 12-C , 13-H ) :   0.9703 B( 12-C , 14-H ) :   0.9759 B( 12-C , 15-H ) :   0.9694
B( 16-S , 17-C ) :   1.1723 B( 16-S , 20-C ) :   1.1659 B( 17-C , 18-C ) :   1.6130
B( 17-C , 33-H ) :   0.9667 B( 18-C , 19-C ) :   1.2248 B( 18-C , 21-H ) :   0.9851
B( 19-C , 20-C ) :   1.5597 B( 19-C , 22-C ) :   1.0880 B( 22-C , 23-H ) :   0.9301
B( 22-C , 24-H ) :   0.9244 B( 22-C , 25-C ) :   1.0363 B( 25-C , 26-H ) :   0.9696
B( 25-C , 27-H ) :   0.9566 B( 25-C , 28-C ) :   1.0697 B( 28-C , 29-H ) :   0.9763
B( 28-C , 30-H ) :   0.9740 B( 28-C , 31-H ) :   0.9791

Dispersion correction           -0.014313408
FINAL SINGLE POINT ENERGY     -1339.866558408794

DIPOLE MOMENT
-------------
                                X             Y             Z
Electronic contribution:     11.39391       3.73214      23.54190
Nuclear contribution   :    -11.63904      -4.27719     -23.95218
                        -----------------------------------------
Total Dipole Moment    :     -0.24513      -0.54505      -0.41028
                        -----------------------------------------
Magnitude (a.u.)       :      0.72491
Magnitude (Debye)      :      1.84258

Rotational constants in cm-1:     0.018616     0.008427     0.006630
Rotational constants in MHz :   558.091062   252.623998   198.768324

                             ****ORCA TERMINATED NORMALLY****
TOTAL RUN TIME: 0 days 0 hours 0 minutes 21 seconds 569 msec
