                         Program Version 4.2.1 -  RELEASE  -
|  1> ! wB97X-D3 SP def2-SVP
|  2> %pal
|  3> nprocs 24
|  4> end
|  5>
|  6> * xyz 0 1
|  7> S 	 -53.5958 	 -48.6162 	 -75.3614
|  8> C 	 -54.4003 	 -47.0904 	 -75.4814
|  9> C 	 -53.6143 	 -46.0802 	 -74.9922
| 10> C 	 -52.3058 	 -46.5549 	 -74.5865
| 11> C 	 -52.2169 	 -47.9606 	 -74.6644
| 12> H 	 -51.4156 	 -46.0173 	 -74.2343
| 13> C 	 -53.9793 	 -44.6602 	 -74.9034
| 14> H 	 -53.5893 	 -44.3087 	 -73.9695
| 15> H 	 -55.0739 	 -44.6191 	 -74.7258
| 16> C 	 -53.6272 	 -43.6523 	 -75.981
| 17> H 	 -53.875 	 -44.2081 	 -76.8406
| 18> H 	 -54.1693 	 -42.7513 	 -75.8473
| 19> C 	 -52.1331 	 -43.4511 	 -76.0476
| 20> H 	 -51.8591 	 -42.7807 	 -76.8276
| 21> H 	 -51.8516 	 -42.8139 	 -75.1251
| 22> H 	 -51.5378 	 -44.3239 	 -76.0686
| 23> S 	 -50.4552 	 -49.4704 	 -76.0351
| 24> C 	 -49.0133 	 -50.1166 	 -75.2921
| 25> C 	 -48.8652 	 -49.5615 	 -73.9919
| 26> C 	 -50.0393 	 -48.9172 	 -73.5736
| 27> C 	 -50.9821 	 -48.7504 	 -74.5304
| 28> H 	 -48.1256 	 -49.9201 	 -73.2509
| 29> C 	 -50.0384 	 -48.2715 	 -72.1677
| 30> H 	 -50.6547 	 -47.3673 	 -72.1945
| 31> H 	 -49.0647 	 -47.8014 	 -72.0204
| 32> C 	 -50.4855 	 -49.1991 	 -71.042
| 33> H 	 -50.2107 	 -50.2285 	 -71.1017
| 34> H 	 -51.5201 	 -49.2698 	 -71.1443
| 35> C 	 -50.0479 	 -48.6367 	 -69.6013
| 36> H 	 -49.7365 	 -47.5683 	 -69.6315
| 37> H 	 -49.2634 	 -49.1864 	 -69.0814
| 38> H 	 -50.8751 	 -48.5433 	 -68.9256
| 39> H 	 -55.5018 	 -47.0139 	 -75.6327
| 40> H 	 -48.3253 	 -50.9362 	 -75.7073
| 41> *
| 42>
| 43>                          ****END OF INPUT****

CARTESIAN COORDINATES (ANGSTROEM)
---------------------------------
  S    -53.595800  -48.616200  -75.361400
  C    -54.400300  -47.090400  -75.481400
  C    -53.614300  -46.080200  -74.992200
  C    -52.305800  -46.554900  -74.586500
  C    -52.216900  -47.960600  -74.664400
  H    -51.415600  -46.017300  -74.234300
  C    -53.979300  -44.660200  -74.903400
  H    -53.589300  -44.308700  -73.969500
  H    -55.073900  -44.619100  -74.725800
  C    -53.627200  -43.652300  -75.981000
  H    -53.875000  -44.208100  -76.840600
  H    -54.169300  -42.751300  -75.847300
  C    -52.133100  -43.451100  -76.047600
  H    -51.859100  -42.780700  -76.827600
  H    -51.851600  -42.813900  -75.125100
  H    -51.537800  -44.323900  -76.068600
  S    -50.455200  -49.470400  -76.035100
  C    -49.013300  -50.116600  -75.292100
  C    -48.865200  -49.561500  -73.991900
  C    -50.039300  -48.917200  -73.573600
  C    -50.982100  -48.750400  -74.530400
  H    -48.125600  -49.920100  -73.250900
  C    -50.038400  -48.271500  -72.167700
  H    -50.654700  -47.367300  -72.194500
  H    -49.064700  -47.801400  -72.020400
  C    -50.485500  -49.199100  -71.042000
  H    -50.210700  -50.228500  -71.101700
  H    -51.520100  -49.269800  -71.144300
  C    -50.047900  -48.636700  -69.601300
  H    -49.736500  -47.568300  -69.631500
  H    -49.263400  -49.186400  -69.081400
  H    -50.875100  -48.543300  -68.925600
  H    -55.501800  -47.013900  -75.632700
  H    -48.325300  -50.936200  -75.707300

 Total Charge           Charge          ....    0
 Multiplicity           Mult            ....    1
 Number of Electrons    NEL             ....  134
 Basis Dimension        Dim             ....  322

ORBITAL ENERGIES
----------------

  NO   OCC          E(Eh)            E(eV)
   0   2.0000     -88.967061     -2420.9168
   1   2.0000     -88.964894     -2420.8578
   2   2.0000     -10.328206      -281.0448
   3   2.0000     -10.327194      -281.0172
   4   2.0000     -10.323470      -280.9159
   5   2.0000     -10.315233      -280.6918
   6   2.0000     -10.302793      -280.3532
   7   2.0000     -10.299081      -280.2522
   8   2.0000     -10.296954      -280.1944
   9   2.0000     -10.294844      -280.1370
  10   2.0000     -10.290841      -280.0280
  11   2.0000     -10.283170      -279.8193
  12   2.0000     -10.283058      -279.8162
  13   2.0000     -10.280330      -279.7420
  14   2.0000     -10.277799      -279.6731
  15   2.0000     -10.273764      -279.5633
  16   2.0000      -8.083548      -219.9645
  17   2.0000      -8.079772      -219.8618
  18   2.0000      -6.041825      -164.4064
  19   2.0000      -6.038240      -164.3089
  20   2.0000      -6.037630      -164.2923
  21   2.0000      -6.034606      -164.2100
  22   2.0000      -6.034162      -164.1979
  23   2.0000      -6.030629      -164.1018
  24   2.0000      -1.015345       -27.6289
  25   2.0000      -0.989919       -26.9371
  26   2.0000      -0.923578       -25.1318
  27   2.0000      -0.902167       -24.5492
  28   2.0000      -0.870956       -23.6999
  29   2.0000      -0.849729       -23.1223
  30   2.0000      -0.844952       -22.9923
  31   2.0000      -0.810351       -22.0508
  32   2.0000      -0.782943       -21.3050
  33   2.0000      -0.773681       -21.0529
  34   2.0000      -0.712363       -19.3844
  35   2.0000      -0.707010       -19.2387
  36   2.0000      -0.690929       -18.8011
  37   2.0000      -0.666005       -18.1229
  38   2.0000      -0.643862       -17.5204
  39   2.0000      -0.612140       -16.6572
  40   2.0000      -0.594205       -16.1692
  41   2.0000      -0.579304       -15.7637
  42   2.0000      -0.556474       -15.1424
  43   2.0000      -0.551154       -14.9977
  44   2.0000      -0.540458       -14.7066
  45   2.0000      -0.522109       -14.2073
  46   2.0000      -0.517480       -14.0813
  47   2.0000      -0.509414       -13.8619
  48   2.0000      -0.502251       -13.6669
  49   2.0000      -0.500978       -13.6323
  50   2.0000      -0.492169       -13.3926
  51   2.0000      -0.479619       -13.0511
  52   2.0000      -0.471187       -12.8216
  53   2.0000      -0.466593       -12.6966
  54   2.0000      -0.459661       -12.5080
  55   2.0000      -0.450008       -12.2453
  56   2.0000      -0.446426       -12.1479
  57   2.0000      -0.441675       -12.0186
  58   2.0000      -0.432836       -11.7781
  59   2.0000      -0.424846       -11.5607
  60   2.0000      -0.416053       -11.3214
  61   2.0000      -0.411000       -11.1839
  62   2.0000      -0.408483       -11.1154
  63   2.0000      -0.341745        -9.2994
  64   2.0000      -0.334670        -9.1068
  65   2.0000      -0.328513        -8.9393
  66   2.0000      -0.298779        -8.1302
  67   0.0000       0.032378         0.8810
  68   0.0000       0.065405         1.7798
  69   0.0000       0.110000         2.9932
  70   0.0000       0.119789         3.2596
  71   0.0000       0.130520         3.5516

MULLIKEN ATOMIC CHARGES
-----------------------
   0 S :    0.120449
   1 C :   -0.133361
   2 C :   -0.101957
   3 C :    0.028990
   4 C :   -0.163817
   5 H :    0.030072
   6 C :    0.050981
   7 H :    0.003344
   8 H :    0.015396
   9 C :    0.023319
  10 H :    0.011696
  11 H :    0.030653
  12 C :   -0.068834
  13 H :    0.026072
  14 H :    0.019279
  15 H :    0.040294
  16 S :    0.108961
  17 C :   -0.130588
  18 C :   -0.034224
  19 C :   -0.075089
  20 C :   -0.140014
  21 H :    0.038038
  22 C :    0.047583
  23 H :    0.014652
  24 H :    0.025828
  25 C :   -0.014268
  26 H :    0.024704
  27 H :    0.017188
  28 C :   -0.071702
  29 H :    0.027422
  30 H :    0.042827
  31 H :    0.024894
  32 H :    0.069302
  33 H :    0.091910
Sum of atomic charges:    0.0000000

LOEWDIN ATOMIC CHARGES
----------------------
   0 S :    0.450059
   1 C :   -0.213444
   2 C :   -0.064611
   3 C :   -0.064153
   4 C :   -0.223132
   5 H :    0.034692
   6 C :   -0.037648
   7 H :    0.023022
   8 H :    0.032526
   9 C :   -0.027161
  10 H :    0.020687
  11 H :    0.025014
  12 C :   -0.063285
  13 H :    0.021307
  14 H :    0.029500
  15 H :    0.020778
  16 S :    0.412345
  17 C :   -0.199627
  18 C :   -0.078848
  19 C :   -0.067043
  20 C :   -0.202191
  21 H :    0.037261
  22 C :   -0.029050
  23 H :    0.027739
  24 H :    0.028295
  25 C :   -0.031646
  26 H :    0.022620
  27 H :    0.021445
  28 C :   -0.071891
  29 H :    0.028381
  30 H :    0.026571
  31 H :    0.023024
  32 H :    0.039399
  33 H :    0.049065

  Mayer bond orders larger than 0.100000
B(  0-S ,  1-C ) :   1.1475 B(  0-S ,  4-C ) :   1.1957 B(  1-C ,  2-C ) :   1.5913
B(  1-C , 32-H ) :   0.9609 B(  2-C ,  3-C ) :   1.2447 B(  2-C ,  6-C ) :   1.0430
B(  3-C ,  4-C ) :   1.5397 B(  3-C ,  5-H ) :   0.9847 B(  4-C , 20-C ) :   0.9893
B(  6-C ,  7-H ) :   0.9299 B(  6-C ,  8-H ) :   0.9318 B(  6-C ,  9-C ) :   1.0676
B(  9-C , 10-H ) :   0.9463 B(  9-C , 11-H ) :   0.9521 B(  9-C , 12-C ) :   1.0925
B( 12-C , 13-H ) :   0.9713 B( 12-C , 14-H ) :   0.9723 B( 12-C , 15-H ) :   0.9730
B( 16-S , 17-C ) :   1.1732 B( 16-S , 20-C ) :   1.1400 B( 17-C , 18-C ) :   1.5741
B( 17-C , 20-C ) :   0.1060 B( 17-C , 33-H ) :   0.9578 B( 18-C , 19-C ) :   1.2860
B( 18-C , 21-H ) :   0.9725 B( 19-C , 20-C ) :   1.6336 B( 19-C , 22-C ) :   1.0257
B( 22-C , 23-H ) :   0.9338 B( 22-C , 24-H ) :   0.9511 B( 22-C , 25-C ) :   1.0490
B( 25-C , 26-H ) :   0.9683 B( 25-C , 27-H ) :   0.9559 B( 25-C , 28-C ) :   1.0499
B( 28-C , 29-H ) :   0.9789 B( 28-C , 30-H ) :   0.9821 B( 28-C , 31-H ) :   0.9778

Dispersion correction           -0.013946332
FINAL SINGLE POINT ENERGY     -1339.857080921876

DIPOLE MOMENT
-------------
                                X             Y             Z
Electronic contribution:     -3.19564     -18.03235     -16.14951
Nuclear contribution   :      3.20425      18.40079      16.52481
                        -----------------------------------------
Total Dipole Moment    :      0.00860       0.36844       0.37530
                        -----------------------------------------
Magnitude (a.u.)       :      0.52599
Magnitude (Debye)      :      1.33696

Rotational constants in cm-1:     0.017551     0.008344     0.007139
Rotational constants in MHz :   526.155775   250.152010   214.023507

                             ****ORCA TERMINATED NORMALLY****
TOTAL RUN TIME: 0 days 0 hours 0 minutes 21 seconds 365 msec
