                         Program Version 4.2.1 -  RELEASE  -
|  1> ! wB97X-D3 SP def2-SVP
|  2> %pal
|  3> nprocs 24
|  4> end
|  5>
|  6> * xyz 0 1
|  7> S 	 -125.274 	 68.031 	 -43.0721
|  8> C 	 -126.826 	 68.1243 	 -42.3706
|  9> C 	 -127.097 	 69.3222 	 -41.7935
| 10> C 	 -126.051 	 70.2876 	 -42.0175
| 11> C 	 -124.961 	 69.7418 	 -42.6519
| 12> H 	 -126.049 	 71.3082 	 -41.6457
| 13> C 	 -128.436 	 69.7019 	 -41.1569
| 14> H 	 -129.252 	 69.2598 	 -41.7946
| 15> H 	 -128.645 	 70.7885 	 -41.3878
| 16> C 	 -128.808 	 69.2507 	 -39.7037
| 17> H 	 -128.813 	 68.1834 	 -39.6945
| 18> H 	 -128.013 	 69.4907 	 -39.113
| 19> C 	 -130.062 	 69.8787 	 -39.0354
| 20> H 	 -130.234 	 70.8043 	 -39.498
| 21> H 	 -130.964 	 69.2665 	 -39.2231
| 22> H 	 -129.915 	 69.9061 	 -37.9163
| 23> S 	 -122.262 	 70.1139 	 -41.8448
| 24> C 	 -121.332 	 71.4217 	 -42.5417
| 25> C 	 -121.989 	 71.8662 	 -43.6997
| 26> C 	 -123.326 	 71.3847 	 -43.8099
| 27> C 	 -123.693 	 70.4435 	 -42.8679
| 28> H 	 -121.567 	 72.5884 	 -44.3642
| 29> C 	 -124.335 	 71.8597 	 -44.8892
| 30> H 	 -125.321 	 71.7179 	 -44.5362
| 31> H 	 -124.23 	 71.1451 	 -45.7237
| 32> C 	 -124.256 	 73.3556 	 -45.2943
| 33> H 	 -123.248 	 73.5991 	 -45.5314
| 34> H 	 -124.577 	 74.0283 	 -44.559
| 35> C 	 -125.08 	 73.7226 	 -46.552
| 36> H 	 -126.113 	 73.5082 	 -46.3769
| 37> H 	 -124.644 	 73.2515 	 -47.4511
| 38> H 	 -125.054 	 74.7706 	 -46.6668
| 39> H 	 -127.54 	 67.2937 	 -42.2837
| 40> H 	 -120.326 	 71.6685 	 -42.3171
| 41> *
| 42>
| 43>                          ****END OF INPUT****

CARTESIAN COORDINATES (ANGSTROEM)
---------------------------------
  S    -125.274000   68.031000  -43.072100
  C    -126.826000   68.124300  -42.370600
  C    -127.097000   69.322200  -41.793500
  C    -126.051000   70.287600  -42.017500
  C    -124.961000   69.741800  -42.651900
  H    -126.049000   71.308200  -41.645700
  C    -128.436000   69.701900  -41.156900
  H    -129.252000   69.259800  -41.794600
  H    -128.645000   70.788500  -41.387800
  C    -128.808000   69.250700  -39.703700
  H    -128.813000   68.183400  -39.694500
  H    -128.013000   69.490700  -39.113000
  C    -130.062000   69.878700  -39.035400
  H    -130.234000   70.804300  -39.498000
  H    -130.964000   69.266500  -39.223100
  H    -129.915000   69.906100  -37.916300
  S    -122.262000   70.113900  -41.844800
  C    -121.332000   71.421700  -42.541700
  C    -121.989000   71.866200  -43.699700
  C    -123.326000   71.384700  -43.809900
  C    -123.693000   70.443500  -42.867900
  H    -121.567000   72.588400  -44.364200
  C    -124.335000   71.859700  -44.889200
  H    -125.321000   71.717900  -44.536200
  H    -124.230000   71.145100  -45.723700
  C    -124.256000   73.355600  -45.294300
  H    -123.248000   73.599100  -45.531400
  H    -124.577000   74.028300  -44.559000
  C    -125.080000   73.722600  -46.552000
  H    -126.113000   73.508200  -46.376900
  H    -124.644000   73.251500  -47.451100
  H    -125.054000   74.770600  -46.666800
  H    -127.540000   67.293700  -42.283700
  H    -120.326000   71.668500  -42.317100

 Total Charge           Charge          ....    0
 Multiplicity           Mult            ....    1
 Number of Electrons    NEL             ....  134
 Basis Dimension        Dim             ....  322

ORBITAL ENERGIES
----------------

  NO   OCC          E(Eh)            E(eV)
   0   2.0000     -88.968503     -2420.9560
   1   2.0000     -88.962528     -2420.7935
   2   2.0000     -10.331237      -281.1273
   3   2.0000     -10.325532      -280.9720
   4   2.0000     -10.319764      -280.8151
   5   2.0000     -10.312011      -280.6041
   6   2.0000     -10.302994      -280.3587
   7   2.0000     -10.300178      -280.2821
   8   2.0000     -10.299863      -280.2735
   9   2.0000     -10.296649      -280.1861
  10   2.0000     -10.294065      -280.1158
  11   2.0000     -10.288507      -279.9645
  12   2.0000     -10.283180      -279.8196
  13   2.0000     -10.279539      -279.7205
  14   2.0000     -10.279097      -279.7084
  15   2.0000     -10.272796      -279.5370
  16   2.0000      -8.083404      -219.9606
  17   2.0000      -8.076673      -219.7774
  18   2.0000      -6.041899      -164.4084
  19   2.0000      -6.037940      -164.3007
  20   2.0000      -6.035272      -164.2281
  21   2.0000      -6.034099      -164.1962
  22   2.0000      -6.031168      -164.1164
  23   2.0000      -6.027446      -164.0151
  24   2.0000      -1.004110       -27.3232
  25   2.0000      -0.983028       -26.7495
  26   2.0000      -0.903379       -24.5822
  27   2.0000      -0.902700       -24.5637
  28   2.0000      -0.870663       -23.6919
  29   2.0000      -0.851594       -23.1730
  30   2.0000      -0.846262       -23.0280
  31   2.0000      -0.814216       -22.1559
  32   2.0000      -0.779775       -21.2188
  33   2.0000      -0.769539       -20.9402
  34   2.0000      -0.706710       -19.2305
  35   2.0000      -0.703859       -19.1530
  36   2.0000      -0.701873       -19.0989
  37   2.0000      -0.655621       -17.8404
  38   2.0000      -0.643208       -17.5026
  39   2.0000      -0.615469       -16.7478
  40   2.0000      -0.595309       -16.1992
  41   2.0000      -0.568683       -15.4747
  42   2.0000      -0.568272       -15.4635
  43   2.0000      -0.554506       -15.0889
  44   2.0000      -0.528509       -14.3815
  45   2.0000      -0.525064       -14.2877
  46   2.0000      -0.514426       -13.9982
  47   2.0000      -0.510268       -13.8851
  48   2.0000      -0.506450       -13.7812
  49   2.0000      -0.498874       -13.5751
  50   2.0000      -0.494473       -13.4553
  51   2.0000      -0.475262       -12.9325
  52   2.0000      -0.471700       -12.8356
  53   2.0000      -0.465704       -12.6725
  54   2.0000      -0.458212       -12.4686
  55   2.0000      -0.451009       -12.2726
  56   2.0000      -0.446274       -12.1437
  57   2.0000      -0.439116       -11.9490
  58   2.0000      -0.436107       -11.8671
  59   2.0000      -0.427353       -11.6289
  60   2.0000      -0.420787       -11.4502
  61   2.0000      -0.412078       -11.2132
  62   2.0000      -0.406757       -11.0684
  63   2.0000      -0.340887        -9.2760
  64   2.0000      -0.327279        -8.9057
  65   2.0000      -0.325259        -8.8507
  66   2.0000      -0.305539        -8.3141
  67   0.0000       0.041521         1.1299
  68   0.0000       0.051193         1.3930
  69   0.0000       0.117059         3.1853
  70   0.0000       0.122769         3.3407
  71   0.0000       0.129228         3.5165

MULLIKEN ATOMIC CHARGES
-----------------------
   0 S :    0.126084
   1 C :   -0.113214
   2 C :   -0.071137
   3 C :    0.048860
   4 C :   -0.184731
   5 H :    0.022163
   6 C :   -0.013619
   7 H :    0.028009
   8 H :    0.026770
   9 C :   -0.013592
  10 H :    0.016018
  11 H :    0.006006
  12 C :   -0.050305
  13 H :    0.023952
  14 H :    0.034590
  15 H :    0.052073
  16 S :    0.101880
  17 C :   -0.080315
  18 C :   -0.033197
  19 C :   -0.034760
  20 C :   -0.175214
  21 H :    0.013134
  22 C :    0.106218
  23 H :    0.010751
  24 H :    0.039678
  25 C :   -0.078551
  26 H :    0.015941
  27 H :    0.021694
  28 C :   -0.031515
  29 H :    0.024109
  30 H :    0.038747
  31 H :    0.018273
  32 H :    0.053332
  33 H :    0.051872
Sum of atomic charges:    0.0000000

LOEWDIN ATOMIC CHARGES
----------------------
   0 S :    0.409744
   1 C :   -0.203898
   2 C :   -0.074446
   3 C :   -0.046904
   4 C :   -0.189512
   5 H :    0.036573
   6 C :   -0.044237
   7 H :    0.032832
   8 H :    0.031791
   9 C :   -0.035674
  10 H :    0.020468
  11 H :    0.010773
  12 C :   -0.060461
  13 H :    0.017877
  14 H :    0.027649
  15 H :    0.038519
  16 S :    0.391615
  17 C :   -0.175465
  18 C :   -0.071945
  19 C :   -0.050757
  20 C :   -0.198676
  21 H :    0.025376
  22 C :   -0.025696
  23 H :    0.023317
  24 H :    0.038069
  25 C :   -0.033058
  26 H :    0.014261
  27 H :    0.019114
  28 C :   -0.055826
  29 H :    0.020515
  30 H :    0.028227
  31 H :    0.020115
  32 H :    0.034723
  33 H :    0.024996

  Mayer bond orders larger than 0.100000
B(  0-S ,  1-C ) :   1.1458 B(  0-S ,  4-C ) :   1.1318 B(  1-C ,  2-C ) :   1.6400
B(  1-C , 32-H ) :   0.9583 B(  2-C ,  3-C ) :   1.2346 B(  2-C ,  6-C ) :   1.0134
B(  3-C ,  4-C ) :   1.5974 B(  3-C ,  5-H ) :   0.9924 B(  4-C , 20-C ) :   1.0380
B(  6-C ,  7-H ) :   0.9480 B(  6-C ,  8-H ) :   0.9463 B(  6-C ,  9-C ) :   1.0493
B(  9-C , 10-H ) :   0.9543 B(  9-C , 11-H ) :   0.9594 B(  9-C , 12-C ) :   1.0699
B( 12-C , 13-H ) :   0.9780 B( 12-C , 14-H ) :   0.9778 B( 12-C , 15-H ) :   0.9778
B( 16-S , 17-C ) :   1.1723 B( 16-S , 20-C ) :   1.1250 B( 17-C , 18-C ) :   1.5801
B( 17-C , 20-C ) :   0.1063 B( 17-C , 33-H ) :   0.9710 B( 18-C , 19-C ) :   1.2613
B( 18-C , 21-H ) :   0.9892 B( 19-C , 20-C ) :   1.6065 B( 19-C , 22-C ) :   1.0267
B( 22-C , 23-H ) :   0.9320 B( 22-C , 24-H ) :   0.9354 B( 22-C , 25-C ) :   1.0580
B( 25-C , 26-H ) :   0.9565 B( 25-C , 27-H ) :   0.9591 B( 25-C , 28-C ) :   1.0953
B( 28-C , 29-H ) :   0.9750 B( 28-C , 30-H ) :   0.9770 B( 28-C , 31-H ) :   0.9731

Dispersion correction           -0.013354537
FINAL SINGLE POINT ENERGY     -1339.869663150549

DIPOLE MOMENT
-------------
                                X             Y             Z
Electronic contribution:     21.26476     -14.90813       1.79054
Nuclear contribution   :    -21.66362      15.34051      -1.87424
                        -----------------------------------------
Total Dipole Moment    :     -0.39886       0.43238      -0.08370
                        -----------------------------------------
Magnitude (a.u.)       :      0.59418
Magnitude (Debye)      :      1.51029

Rotational constants in cm-1:     0.017732     0.007174     0.006129
Rotational constants in MHz :   531.595399   215.084827   183.731397

                             ****ORCA TERMINATED NORMALLY****
TOTAL RUN TIME: 0 days 0 hours 0 minutes 20 seconds 439 msec
