                         Program Version 4.2.1 -  RELEASE  -
|  1> ! wB97X-D3 SP def2-SVP
|  2> %pal
|  3> nprocs 24
|  4> end
|  5>
|  6> * xyz 0 1
|  7> S 	 -39.373 	 14.2968 	 13.9358
|  8> C 	 -40.3862 	 14.2964 	 15.3308
|  9> C 	 -40.8418 	 15.545 	 15.6262
| 10> C 	 -40.5262 	 16.5119 	 14.5596
| 11> C 	 -39.6197 	 15.956 	 13.5813
| 12> H 	 -40.9738 	 17.4731 	 14.3275
| 13> C 	 -41.7685 	 15.9547 	 16.7396
| 14> H 	 -41.4929 	 17.0338 	 16.994
| 15> H 	 -41.3891 	 15.527 	 17.6181
| 16> C 	 -43.2907 	 15.9356 	 16.4452
| 17> H 	 -43.6051 	 16.1929 	 15.4092
| 18> H 	 -43.6494 	 14.9868 	 16.7707
| 19> C 	 -44.0868 	 16.7859 	 17.4322
| 20> H 	 -45.0064 	 17.1266 	 16.9217
| 21> H 	 -44.3427 	 16.2977 	 18.3258
| 22> H 	 -43.6679 	 17.7595 	 17.6806
| 23> S 	 -40.377 	 16.1812 	 11.0352
| 24> C 	 -39.6955 	 17.466 	 10.1112
| 25> C 	 -38.7261 	 18.1407 	 10.7531
| 26> C 	 -38.48 	 17.6991 	 12.0523
| 27> C 	 -39.3253 	 16.5975 	 12.3643
| 28> H 	 -38.1948 	 18.9731 	 10.3007
| 29> C 	 -37.5017 	 18.4231 	 12.9645
| 30> H 	 -38.0082 	 19.0192 	 13.681
| 31> H 	 -36.9347 	 19.0614 	 12.2746
| 32> C 	 -36.3989 	 17.5889 	 13.6688
| 33> H 	 -36.8564 	 16.9038 	 14.4501
| 34> H 	 -35.705 	 18.2012 	 14.2127
| 35> C 	 -35.5233 	 16.7521 	 12.8
| 36> H 	 -36.0065 	 15.8543 	 12.4082
| 37> H 	 -34.6839 	 16.4326 	 13.3452
| 38> H 	 -35.1024 	 17.3028 	 11.9671
| 39> H 	 -40.6322 	 13.3012 	 15.6796
| 40> H 	 -39.9512 	 17.7546 	 9.09873
| 41> *
| 42>
| 43>                          ****END OF INPUT****

CARTESIAN COORDINATES (ANGSTROEM)
---------------------------------
  S    -39.373000   14.296800   13.935800
  C    -40.386200   14.296400   15.330800
  C    -40.841800   15.545000   15.626200
  C    -40.526200   16.511900   14.559600
  C    -39.619700   15.956000   13.581300
  H    -40.973800   17.473100   14.327500
  C    -41.768500   15.954700   16.739600
  H    -41.492900   17.033800   16.994000
  H    -41.389100   15.527000   17.618100
  C    -43.290700   15.935600   16.445200
  H    -43.605100   16.192900   15.409200
  H    -43.649400   14.986800   16.770700
  C    -44.086800   16.785900   17.432200
  H    -45.006400   17.126600   16.921700
  H    -44.342700   16.297700   18.325800
  H    -43.667900   17.759500   17.680600
  S    -40.377000   16.181200   11.035200
  C    -39.695500   17.466000   10.111200
  C    -38.726100   18.140700   10.753100
  C    -38.480000   17.699100   12.052300
  C    -39.325300   16.597500   12.364300
  H    -38.194800   18.973100   10.300700
  C    -37.501700   18.423100   12.964500
  H    -38.008200   19.019200   13.681000
  H    -36.934700   19.061400   12.274600
  C    -36.398900   17.588900   13.668800
  H    -36.856400   16.903800   14.450100
  H    -35.705000   18.201200   14.212700
  C    -35.523300   16.752100   12.800000
  H    -36.006500   15.854300   12.408200
  H    -34.683900   16.432600   13.345200
  H    -35.102400   17.302800   11.967100
  H    -40.632200   13.301200   15.679600
  H    -39.951200   17.754600    9.098730

 Total Charge           Charge          ....    0
 Multiplicity           Mult            ....    1
 Number of Electrons    NEL             ....  134
 Basis Dimension        Dim             ....  322

ORBITAL ENERGIES
----------------

  NO   OCC          E(Eh)            E(eV)
   0   2.0000     -88.966552     -2420.9030
   1   2.0000     -88.960581     -2420.7405
   2   2.0000     -10.322167      -280.8804
   3   2.0000     -10.319953      -280.8202
   4   2.0000     -10.311569      -280.5921
   5   2.0000     -10.308285      -280.5027
   6   2.0000     -10.303966      -280.3852
   7   2.0000     -10.300968      -280.3036
   8   2.0000     -10.298762      -280.2435
   9   2.0000     -10.290912      -280.0300
  10   2.0000     -10.289759      -279.9986
  11   2.0000     -10.289579      -279.9937
  12   2.0000     -10.283055      -279.8161
  13   2.0000     -10.280188      -279.7381
  14   2.0000     -10.272649      -279.5330
  15   2.0000     -10.261483      -279.2291
  16   2.0000      -8.081826      -219.9177
  17   2.0000      -8.076683      -219.7777
  18   2.0000      -6.040192      -164.3620
  19   2.0000      -6.036227      -164.2541
  20   2.0000      -6.035023      -164.2213
  21   2.0000      -6.032721      -164.1587
  22   2.0000      -6.030774      -164.1057
  23   2.0000      -6.027771      -164.0240
  24   2.0000      -1.009834       -27.4790
  25   2.0000      -0.985848       -26.8263
  26   2.0000      -0.911361       -24.7994
  27   2.0000      -0.906836       -24.6763
  28   2.0000      -0.876992       -23.8642
  29   2.0000      -0.853281       -23.2190
  30   2.0000      -0.848825       -23.0977
  31   2.0000      -0.808480       -21.9999
  32   2.0000      -0.783893       -21.3308
  33   2.0000      -0.772056       -21.0087
  34   2.0000      -0.708732       -19.2856
  35   2.0000      -0.703744       -19.1498
  36   2.0000      -0.683737       -18.6054
  37   2.0000      -0.658701       -17.9242
  38   2.0000      -0.650242       -17.6940
  39   2.0000      -0.609133       -16.5753
  40   2.0000      -0.590666       -16.0729
  41   2.0000      -0.566206       -15.4072
  42   2.0000      -0.563370       -15.3301
  43   2.0000      -0.555491       -15.1157
  44   2.0000      -0.548356       -14.9215
  45   2.0000      -0.530363       -14.4319
  46   2.0000      -0.515085       -14.0162
  47   2.0000      -0.506896       -13.7933
  48   2.0000      -0.505277       -13.7493
  49   2.0000      -0.500558       -13.6209
  50   2.0000      -0.482266       -13.1231
  51   2.0000      -0.480764       -13.0822
  52   2.0000      -0.471608       -12.8331
  53   2.0000      -0.463020       -12.5994
  54   2.0000      -0.457849       -12.4587
  55   2.0000      -0.446145       -12.1402
  56   2.0000      -0.441686       -12.0189
  57   2.0000      -0.440013       -11.9734
  58   2.0000      -0.436082       -11.8664
  59   2.0000      -0.421851       -11.4792
  60   2.0000      -0.419102       -11.4043
  61   2.0000      -0.407994       -11.1021
  62   2.0000      -0.405522       -11.0348
  63   2.0000      -0.340941        -9.2775
  64   2.0000      -0.323812        -8.8114
  65   2.0000      -0.318512        -8.6671
  66   2.0000      -0.301028        -8.1914
  67   0.0000       0.038292         1.0420
  68   0.0000       0.059938         1.6310
  69   0.0000       0.111431         3.0322
  70   0.0000       0.123301         3.3552
  71   0.0000       0.132842         3.6148

MULLIKEN ATOMIC CHARGES
-----------------------
   0 S :    0.104675
   1 C :   -0.142160
   2 C :   -0.061691
   3 C :    0.024967
   4 C :   -0.183791
   5 H :    0.025117
   6 C :    0.063729
   7 H :    0.018023
   8 H :    0.011821
   9 C :   -0.026891
  10 H :    0.050187
  11 H :    0.024119
  12 C :   -0.056858
  13 H :    0.026163
  14 H :    0.028301
  15 H :    0.017013
  16 S :    0.137225
  17 C :   -0.072676
  18 C :   -0.049030
  19 C :   -0.019755
  20 C :   -0.203873
  21 H :    0.012743
  22 C :    0.122999
  23 H :    0.035048
  24 H :    0.007486
  25 C :   -0.095845
  26 H :    0.041690
  27 H :    0.019021
  28 C :   -0.024221
  29 H :    0.035099
  30 H :    0.015576
  31 H :    0.013702
  32 H :    0.057628
  33 H :    0.044460
Sum of atomic charges:    0.0000000

LOEWDIN ATOMIC CHARGES
----------------------
   0 S :    0.427102
   1 C :   -0.201099
   2 C :   -0.065489
   3 C :   -0.052693
   4 C :   -0.228098
   5 H :    0.031490
   6 C :   -0.038448
   7 H :    0.035533
   8 H :    0.024497
   9 C :   -0.035740
  10 H :    0.034698
  11 H :    0.026536
  12 C :   -0.065210
  13 H :    0.031774
  14 H :    0.017008
  15 H :    0.018876
  16 S :    0.432967
  17 C :   -0.194079
  18 C :   -0.078187
  19 C :   -0.048094
  20 C :   -0.212420
  21 H :    0.032371
  22 C :   -0.022793
  23 H :    0.030765
  24 H :    0.029696
  25 C :   -0.044850
  26 H :    0.030817
  27 H :    0.021547
  28 C :   -0.063608
  29 H :    0.025862
  30 H :    0.021301
  31 H :    0.020647
  32 H :    0.027942
  33 H :    0.029380

  Mayer bond orders larger than 0.100000
B(  0-S ,  1-C ) :   1.1565 B(  0-S ,  4-C ) :   1.1650 B(  1-C ,  2-C ) :   1.5847
B(  1-C , 32-H ) :   0.9792 B(  2-C ,  3-C ) :   1.2351 B(  2-C ,  6-C ) :   1.0312
B(  3-C ,  4-C ) :   1.5509 B(  3-C ,  5-H ) :   0.9897 B(  4-C , 20-C ) :   1.0596
B(  6-C ,  7-H ) :   0.9442 B(  6-C ,  8-H ) :   0.9362 B(  6-C ,  9-C ) :   1.0447
B(  9-C , 10-H ) :   0.9657 B(  9-C , 11-H ) :   0.9559 B(  9-C , 12-C ) :   1.0708
B( 12-C , 13-H ) :   0.9738 B( 12-C , 14-H ) :   0.9830 B( 12-C , 15-H ) :   0.9741
B( 16-S , 17-C ) :   1.1594 B( 16-S , 20-C ) :   1.1643 B( 17-C , 18-C ) :   1.6105
B( 17-C , 20-C ) :   0.1017 B( 17-C , 33-H ) :   0.9604 B( 18-C , 19-C ) :   1.2855
B( 18-C , 21-H ) :   0.9844 B( 19-C , 20-C ) :   1.5448 B( 19-C , 22-C ) :   1.0263
B( 22-C , 23-H ) :   0.9322 B( 22-C , 24-H ) :   0.9327 B( 22-C , 25-C ) :   1.0773
B( 25-C , 26-H ) :   0.9502 B( 25-C , 27-H ) :   0.9573 B( 25-C , 28-C ) :   1.0907
B( 28-C , 29-H ) :   0.9701 B( 28-C , 30-H ) :   0.9708 B( 28-C , 31-H ) :   0.9718

Dispersion correction           -0.014471993
FINAL SINGLE POINT ENERGY     -1339.858204715534

DIPOLE MOMENT
-------------
                                X             Y             Z
Electronic contribution:      0.09912     -10.12550     -15.85797
Nuclear contribution   :     -0.33149      10.50441      16.12107
                        -----------------------------------------
Total Dipole Moment    :     -0.23237       0.37891       0.26310
                        -----------------------------------------
Magnitude (a.u.)       :      0.51652
Magnitude (Debye)      :      1.31288

Rotational constants in cm-1:     0.020272     0.007882     0.007215
Rotational constants in MHz :   607.750234   236.302726   216.295891

                             ****ORCA TERMINATED NORMALLY****
TOTAL RUN TIME: 0 days 0 hours 0 minutes 21 seconds 545 msec
