                         Program Version 4.2.1 -  RELEASE  -
|  1> ! wB97X-D3 SP def2-SVP
|  2> %pal
|  3> nprocs 24
|  4> end
|  5>
|  6> * xyz 0 1
|  7> S 	 -43.6241 	 -3.44816 	 -8.21819
|  8> C 	 -44.9981 	 -3.03523 	 -7.16667
|  9> C 	 -46.0277 	 -2.49253 	 -7.8673
| 10> C 	 -45.6733 	 -2.29753 	 -9.26133
| 11> C 	 -44.4627 	 -2.88117 	 -9.62304
| 12> H 	 -46.2947 	 -1.89555 	 -10.0969
| 13> C 	 -47.4155 	 -2.10033 	 -7.40365
| 14> H 	 -48.0267 	 -1.80976 	 -8.18543
| 15> H 	 -47.446 	 -1.27882 	 -6.74264
| 16> C 	 -48.053 	 -3.25346 	 -6.65362
| 17> H 	 -47.3984 	 -3.73043 	 -5.88804
| 18> H 	 -48.9007 	 -2.82526 	 -6.14336
| 19> C 	 -48.5857 	 -4.37125 	 -7.44289
| 20> H 	 -49.3647 	 -4.0585 	 -8.13614
| 21> H 	 -47.8451 	 -4.83762 	 -8.00799
| 22> H 	 -48.956 	 -5.18186 	 -6.86522
| 23> S 	 -42.3087 	 -2.31375 	 -11.2412
| 24> C 	 -42.4828 	 -2.64376 	 -12.9384
| 25> C 	 -43.7157 	 -3.12968 	 -13.2945
| 26> C 	 -44.5575 	 -3.33159 	 -12.1757
| 27> C 	 -43.9403 	 -2.9819 	 -10.9709
| 28> H 	 -43.8912 	 -3.3449 	 -14.3368
| 29> C 	 -45.9618 	 -3.86115 	 -12.3742
| 30> H 	 -46.5881 	 -3.03749 	 -12.7922
| 31> H 	 -46.3068 	 -4.08431 	 -11.3534
| 32> C 	 -46.0527 	 -5.19964 	 -13.2509
| 33> H 	 -45.3043 	 -5.8479 	 -12.9811
| 34> H 	 -45.8281 	 -4.83787 	 -14.2512
| 35> C 	 -47.3597 	 -5.98121 	 -13.2415
| 36> H 	 -47.7571 	 -6.02204 	 -12.2262
| 37> H 	 -47.2501 	 -6.98788 	 -13.6793
| 38> H 	 -48.1258 	 -5.38197 	 -13.866
| 39> H 	 -45.0759 	 -3.31393 	 -6.10128
| 40> H 	 -41.6995 	 -2.47995 	 -13.6563
| 41> *
| 42>
| 43>                          ****END OF INPUT****

CARTESIAN COORDINATES (ANGSTROEM)
---------------------------------
  S    -43.624100   -3.448160   -8.218190
  C    -44.998100   -3.035230   -7.166670
  C    -46.027700   -2.492530   -7.867300
  C    -45.673300   -2.297530   -9.261330
  C    -44.462700   -2.881170   -9.623040
  H    -46.294700   -1.895550  -10.096900
  C    -47.415500   -2.100330   -7.403650
  H    -48.026700   -1.809760   -8.185430
  H    -47.446000   -1.278820   -6.742640
  C    -48.053000   -3.253460   -6.653620
  H    -47.398400   -3.730430   -5.888040
  H    -48.900700   -2.825260   -6.143360
  C    -48.585700   -4.371250   -7.442890
  H    -49.364700   -4.058500   -8.136140
  H    -47.845100   -4.837620   -8.007990
  H    -48.956000   -5.181860   -6.865220
  S    -42.308700   -2.313750  -11.241200
  C    -42.482800   -2.643760  -12.938400
  C    -43.715700   -3.129680  -13.294500
  C    -44.557500   -3.331590  -12.175700
  C    -43.940300   -2.981900  -10.970900
  H    -43.891200   -3.344900  -14.336800
  C    -45.961800   -3.861150  -12.374200
  H    -46.588100   -3.037490  -12.792200
  H    -46.306800   -4.084310  -11.353400
  C    -46.052700   -5.199640  -13.250900
  H    -45.304300   -5.847900  -12.981100
  H    -45.828100   -4.837870  -14.251200
  C    -47.359700   -5.981210  -13.241500
  H    -47.757100   -6.022040  -12.226200
  H    -47.250100   -6.987880  -13.679300
  H    -48.125800   -5.381970  -13.866000
  H    -45.075900   -3.313930   -6.101280
  H    -41.699500   -2.479950  -13.656300

 Total Charge           Charge          ....    0
 Multiplicity           Mult            ....    1
 Number of Electrons    NEL             ....  134
 Basis Dimension        Dim             ....  322

ORBITAL ENERGIES
----------------

  NO   OCC          E(Eh)            E(eV)
   0   2.0000     -88.965881     -2420.8847
   1   2.0000     -88.965684     -2420.8793
   2   2.0000     -10.328077      -281.0413
   3   2.0000     -10.326490      -280.9981
   4   2.0000     -10.315685      -280.7040
   5   2.0000     -10.314598      -280.6745
   6   2.0000     -10.305520      -280.4274
   7   2.0000     -10.301880      -280.3284
   8   2.0000     -10.298268      -280.2301
   9   2.0000     -10.295455      -280.1536
  10   2.0000     -10.290086      -280.0075
  11   2.0000     -10.286820      -279.9186
  12   2.0000     -10.283536      -279.8292
  13   2.0000     -10.283312      -279.8231
  14   2.0000     -10.280160      -279.7374
  15   2.0000     -10.261289      -279.2239
  16   2.0000      -8.080526      -219.8823
  17   2.0000      -8.080308      -219.8764
  18   2.0000      -6.038953      -164.3283
  19   2.0000      -6.038904      -164.3269
  20   2.0000      -6.035169      -164.2253
  21   2.0000      -6.034887      -164.2176
  22   2.0000      -6.031261      -164.1190
  23   2.0000      -6.030918      -164.1096
  24   2.0000      -1.005318       -27.3561
  25   2.0000      -0.983254       -26.7557
  26   2.0000      -0.922822       -25.1113
  27   2.0000      -0.903240       -24.5784
  28   2.0000      -0.871363       -23.7110
  29   2.0000      -0.854398       -23.2494
  30   2.0000      -0.846209       -23.0265
  31   2.0000      -0.811478       -22.0814
  32   2.0000      -0.791913       -21.5490
  33   2.0000      -0.772116       -21.0103
  34   2.0000      -0.706952       -19.2371
  35   2.0000      -0.703226       -19.1358
  36   2.0000      -0.693151       -18.8616
  37   2.0000      -0.658395       -17.9158
  38   2.0000      -0.637781       -17.3549
  39   2.0000      -0.610063       -16.6007
  40   2.0000      -0.594523       -16.1778
  41   2.0000      -0.582075       -15.8391
  42   2.0000      -0.565943       -15.4001
  43   2.0000      -0.558037       -15.1850
  44   2.0000      -0.542767       -14.7694
  45   2.0000      -0.526813       -14.3353
  46   2.0000      -0.520455       -14.1623
  47   2.0000      -0.514624       -14.0036
  48   2.0000      -0.501419       -13.6443
  49   2.0000      -0.497327       -13.5329
  50   2.0000      -0.486685       -13.2434
  51   2.0000      -0.482132       -13.1195
  52   2.0000      -0.472123       -12.8471
  53   2.0000      -0.465829       -12.6759
  54   2.0000      -0.464506       -12.6398
  55   2.0000      -0.450191       -12.2503
  56   2.0000      -0.443885       -12.0787
  57   2.0000      -0.438156       -11.9228
  58   2.0000      -0.430741       -11.7211
  59   2.0000      -0.425863       -11.5883
  60   2.0000      -0.423978       -11.5370
  61   2.0000      -0.414718       -11.2851
  62   2.0000      -0.409733       -11.1494
  63   2.0000      -0.345693        -9.4068
  64   2.0000      -0.333610        -9.0780
  65   2.0000      -0.329186        -8.9576
  66   2.0000      -0.291969        -7.9449
  67   0.0000       0.029912         0.8139
  68   0.0000       0.072163         1.9637
  69   0.0000       0.108078         2.9409
  70   0.0000       0.119922         3.2632
  71   0.0000       0.132853         3.6151

MULLIKEN ATOMIC CHARGES
-----------------------
   0 S :    0.108754
   1 C :   -0.142625
   2 C :   -0.093038
   3 C :    0.012334
   4 C :   -0.170545
   5 H :    0.028917
   6 C :    0.176790
   7 H :   -0.008571
   8 H :    0.023183
   9 C :   -0.111438
  10 H :    0.027268
  11 H :    0.015856
  12 C :    0.000580
  13 H :    0.017543
  14 H :    0.009953
  15 H :    0.019849
  16 S :    0.105323
  17 C :   -0.083225
  18 C :   -0.040542
  19 C :   -0.032797
  20 C :   -0.151455
  21 H :    0.019205
  22 C :    0.038993
  23 H :    0.050896
  24 H :    0.027876
  25 C :   -0.060931
  26 H :    0.019380
  27 H :    0.024942
  28 C :   -0.062559
  29 H :    0.035924
  30 H :    0.050484
  31 H :    0.035374
  32 H :    0.059002
  33 H :    0.049299
Sum of atomic charges:    0.0000000

LOEWDIN ATOMIC CHARGES
----------------------
   0 S :    0.399109
   1 C :   -0.194836
   2 C :   -0.058906
   3 C :   -0.069303
   4 C :   -0.204683
   5 H :    0.037441
   6 C :   -0.016034
   7 H :    0.021216
   8 H :    0.031235
   9 C :   -0.040342
  10 H :    0.026577
  11 H :    0.020762
  12 C :   -0.060609
  13 H :    0.022684
  14 H :    0.016755
  15 H :    0.024848
  16 S :    0.396680
  17 C :   -0.177684
  18 C :   -0.073781
  19 C :   -0.052431
  20 C :   -0.192345
  21 H :    0.032768
  22 C :   -0.032993
  23 H :    0.036682
  24 H :    0.027304
  25 C :   -0.034992
  26 H :    0.014543
  27 H :    0.020395
  28 C :   -0.068758
  29 H :    0.025051
  30 H :    0.032207
  31 H :    0.032289
  32 H :    0.034113
  33 H :    0.025041

  Mayer bond orders larger than 0.100000
B(  0-S ,  1-C ) :   1.1172 B(  0-S ,  4-C ) :   1.1532 B(  1-C ,  2-C ) :   1.6451
B(  1-C , 32-H ) :   0.9609 B(  2-C ,  3-C ) :   1.2111 B(  2-C ,  6-C ) :   1.0179
B(  3-C ,  4-C ) :   1.5844 B(  3-C ,  5-H ) :   0.9854 B(  4-C , 20-C ) :   1.0378
B(  6-C ,  7-H ) :   0.9351 B(  6-C ,  8-H ) :   0.9285 B(  6-C ,  9-C ) :   1.0748
B(  9-C , 10-H ) :   0.9568 B(  9-C , 11-H ) :   0.9512 B(  9-C , 12-C ) :   1.0971
B( 12-C , 13-H ) :   0.9686 B( 12-C , 14-H ) :   0.9689 B( 12-C , 15-H ) :   0.9666
B( 16-S , 17-C ) :   1.1573 B( 16-S , 20-C ) :   1.1338 B( 17-C , 18-C ) :   1.6261
B( 17-C , 33-H ) :   0.9653 B( 18-C , 19-C ) :   1.2199 B( 18-C , 21-H ) :   0.9943
B( 19-C , 20-C ) :   1.6048 B( 19-C , 22-C ) :   1.0462 B( 22-C , 23-H ) :   0.9348
B( 22-C , 24-H ) :   0.9316 B( 22-C , 25-C ) :   1.0492 B( 25-C , 26-H ) :   0.9613
B( 25-C , 27-H ) :   0.9530 B( 25-C , 28-C ) :   1.0904 B( 28-C , 29-H ) :   0.9745
B( 28-C , 30-H ) :   0.9738 B( 28-C , 31-H ) :   0.9751

Dispersion correction           -0.014076490
FINAL SINGLE POINT ENERGY     -1339.877448379232

DIPOLE MOMENT
-------------
                                X             Y             Z
Electronic contribution:     28.62036      10.68390       2.58798
Nuclear contribution   :    -29.29026     -10.79063      -2.84396
                        -----------------------------------------
Total Dipole Moment    :     -0.66990      -0.10674      -0.25598
                        -----------------------------------------
Magnitude (a.u.)       :      0.72504
Magnitude (Debye)      :      1.84291

Rotational constants in cm-1:     0.016914     0.009468     0.006646
Rotational constants in MHz :   507.082364   283.830641   199.235981

                             ****ORCA TERMINATED NORMALLY****
TOTAL RUN TIME: 0 days 0 hours 0 minutes 21 seconds 747 msec
