                         Program Version 4.2.1 -  RELEASE  -
|  1> ! wB97X-D3 SP def2-SVP
|  2> %pal
|  3> nprocs 24
|  4> end
|  5>
|  6> * xyz 0 1
|  7> S 	 -54.737 	 -57.5947 	 -81.6727
|  8> C 	 -54.1232 	 -56.2247 	 -80.7572
|  9> C 	 -55.1308 	 -55.3144 	 -80.5663
| 10> C 	 -56.4224 	 -55.8458 	 -80.8344
| 11> C 	 -56.375 	 -57.1374 	 -81.3479
| 12> H 	 -57.3228 	 -55.3243 	 -80.5658
| 13> C 	 -54.9509 	 -53.9267 	 -80.0416
| 14> H 	 -55.3821 	 -53.2221 	 -80.7559
| 15> H 	 -53.9012 	 -53.6831 	 -80.1775
| 16> C 	 -55.3037 	 -53.7857 	 -78.517
| 17> H 	 -56.3574 	 -54.2307 	 -78.4015
| 18> H 	 -54.5674 	 -54.4129 	 -77.969
| 19> C 	 -55.1738 	 -52.3197 	 -78.091
| 20> H 	 -55.9722 	 -51.6887 	 -78.4508
| 21> H 	 -55.1367 	 -52.1945 	 -77.0012
| 22> H 	 -54.1947 	 -51.9399 	 -78.4891
| 23> S 	 -57.0721 	 -59.6829 	 -80.9457
| 24> C 	 -58.6666 	 -60.2893 	 -81.3411
| 25> C 	 -59.3879 	 -59.2639 	 -81.9016
| 26> C 	 -58.6252 	 -58.0647 	 -82.1553
| 27> C 	 -57.408 	 -58.0853 	 -81.5686
| 28> H 	 -60.4289 	 -59.5662 	 -82.0192
| 29> C 	 -59.3181 	 -56.9732 	 -82.9848
| 30> H 	 -59.1227 	 -56.0223 	 -82.5241
| 31> H 	 -60.4015 	 -56.9892 	 -82.9288
| 32> C 	 -58.7872 	 -56.9676 	 -84.4815
| 33> H 	 -59.4336 	 -56.3295 	 -85.1512
| 34> H 	 -58.9659 	 -58.0003 	 -84.7827
| 35> C 	 -57.3089 	 -56.6162 	 -84.6101
| 36> H 	 -56.761 	 -57.481 	 -84.2825
| 37> H 	 -57.1146 	 -55.7558 	 -84.0228
| 38> H 	 -56.9561 	 -56.472 	 -85.7011
| 39> H 	 -53.0623 	 -56.0624 	 -80.5931
| 40> H 	 -59.1376 	 -61.2548 	 -81.1325
| 41> *
| 42>
| 43>                          ****END OF INPUT****

CARTESIAN COORDINATES (ANGSTROEM)
---------------------------------
  S    -54.737000  -57.594700  -81.672700
  C    -54.123200  -56.224700  -80.757200
  C    -55.130800  -55.314400  -80.566300
  C    -56.422400  -55.845800  -80.834400
  C    -56.375000  -57.137400  -81.347900
  H    -57.322800  -55.324300  -80.565800
  C    -54.950900  -53.926700  -80.041600
  H    -55.382100  -53.222100  -80.755900
  H    -53.901200  -53.683100  -80.177500
  C    -55.303700  -53.785700  -78.517000
  H    -56.357400  -54.230700  -78.401500
  H    -54.567400  -54.412900  -77.969000
  C    -55.173800  -52.319700  -78.091000
  H    -55.972200  -51.688700  -78.450800
  H    -55.136700  -52.194500  -77.001200
  H    -54.194700  -51.939900  -78.489100
  S    -57.072100  -59.682900  -80.945700
  C    -58.666600  -60.289300  -81.341100
  C    -59.387900  -59.263900  -81.901600
  C    -58.625200  -58.064700  -82.155300
  C    -57.408000  -58.085300  -81.568600
  H    -60.428900  -59.566200  -82.019200
  C    -59.318100  -56.973200  -82.984800
  H    -59.122700  -56.022300  -82.524100
  H    -60.401500  -56.989200  -82.928800
  C    -58.787200  -56.967600  -84.481500
  H    -59.433600  -56.329500  -85.151200
  H    -58.965900  -58.000300  -84.782700
  C    -57.308900  -56.616200  -84.610100
  H    -56.761000  -57.481000  -84.282500
  H    -57.114600  -55.755800  -84.022800
  H    -56.956100  -56.472000  -85.701100
  H    -53.062300  -56.062400  -80.593100
  H    -59.137600  -61.254800  -81.132500

 Total Charge           Charge          ....    0
 Multiplicity           Mult            ....    1
 Number of Electrons    NEL             ....  134
 Basis Dimension        Dim             ....  322

ORBITAL ENERGIES
----------------

  NO   OCC          E(Eh)            E(eV)
   0   2.0000     -88.963757     -2420.8269
   1   2.0000     -88.961048     -2420.7532
   2   2.0000     -10.327960      -281.0381
   3   2.0000     -10.323374      -280.9133
   4   2.0000     -10.314970      -280.6846
   5   2.0000     -10.311807      -280.5985
   6   2.0000     -10.305090      -280.4158
   7   2.0000     -10.299746      -280.2703
   8   2.0000     -10.296904      -280.1930
   9   2.0000     -10.292946      -280.0853
  10   2.0000     -10.292280      -280.0672
  11   2.0000     -10.291684      -280.0510
  12   2.0000     -10.290133      -280.0088
  13   2.0000     -10.287962      -279.9497
  14   2.0000     -10.283283      -279.8224
  15   2.0000     -10.271485      -279.5013
  16   2.0000      -8.078807      -219.8355
  17   2.0000      -8.075992      -219.7589
  18   2.0000      -6.037307      -164.2835
  19   2.0000      -6.034683      -164.2121
  20   2.0000      -6.033336      -164.1754
  21   2.0000      -6.030318      -164.0933
  22   2.0000      -6.029480      -164.0705
  23   2.0000      -6.026643      -163.9933
  24   2.0000      -1.013938       -27.5907
  25   2.0000      -0.987089       -26.8601
  26   2.0000      -0.911854       -24.8128
  27   2.0000      -0.900866       -24.5138
  28   2.0000      -0.873804       -23.7774
  29   2.0000      -0.848650       -23.0929
  30   2.0000      -0.840040       -22.8587
  31   2.0000      -0.817195       -22.2370
  32   2.0000      -0.780346       -21.2343
  33   2.0000      -0.771990       -21.0069
  34   2.0000      -0.710476       -19.3330
  35   2.0000      -0.697741       -18.9865
  36   2.0000      -0.688869       -18.7451
  37   2.0000      -0.660342       -17.9688
  38   2.0000      -0.640051       -17.4167
  39   2.0000      -0.626967       -17.0607
  40   2.0000      -0.593501       -16.1500
  41   2.0000      -0.566883       -15.4257
  42   2.0000      -0.558401       -15.1949
  43   2.0000      -0.544020       -14.8035
  44   2.0000      -0.541126       -14.7248
  45   2.0000      -0.524156       -14.2630
  46   2.0000      -0.518294       -14.1035
  47   2.0000      -0.511166       -13.9095
  48   2.0000      -0.508155       -13.8276
  49   2.0000      -0.504175       -13.7193
  50   2.0000      -0.495251       -13.4765
  51   2.0000      -0.477176       -12.9846
  52   2.0000      -0.463137       -12.6026
  53   2.0000      -0.461925       -12.5696
  54   2.0000      -0.456662       -12.4264
  55   2.0000      -0.451582       -12.2882
  56   2.0000      -0.436081       -11.8664
  57   2.0000      -0.433123       -11.7859
  58   2.0000      -0.428950       -11.6723
  59   2.0000      -0.424296       -11.5457
  60   2.0000      -0.417634       -11.3644
  61   2.0000      -0.415594       -11.3089
  62   2.0000      -0.408981       -11.1289
  63   2.0000      -0.348746        -9.4899
  64   2.0000      -0.330362        -8.9896
  65   2.0000      -0.324688        -8.8352
  66   2.0000      -0.293265        -7.9801
  67   0.0000       0.026048         0.7088
  68   0.0000       0.074850         2.0368
  69   0.0000       0.102677         2.7940
  70   0.0000       0.120946         3.2911
  71   0.0000       0.139704         3.8015

MULLIKEN ATOMIC CHARGES
-----------------------
   0 S :    0.109182
   1 C :   -0.129615
   2 C :   -0.101038
   3 C :    0.047141
   4 C :   -0.152560
   5 H :    0.008046
   6 C :    0.055270
   7 H :    0.032608
   8 H :    0.001966
   9 C :   -0.093122
  10 H :    0.046078
  11 H :    0.041450
  12 C :   -0.037075
  13 H :    0.036168
  14 H :    0.037932
  15 H :    0.030264
  16 S :    0.102333
  17 C :   -0.099032
  18 C :   -0.065738
  19 C :   -0.026816
  20 C :   -0.141522
  21 H :    0.025378
  22 C :    0.087702
  23 H :    0.006484
  24 H :    0.020888
  25 C :   -0.085736
  26 H :    0.036199
  27 H :    0.023400
  28 C :   -0.037828
  29 H :    0.035377
  30 H :    0.032759
  31 H :    0.043901
  32 H :    0.049036
  33 H :    0.060519
Sum of atomic charges:    0.0000000

LOEWDIN ATOMIC CHARGES
----------------------
   0 S :    0.408758
   1 C :   -0.193810
   2 C :   -0.064740
   3 C :   -0.059447
   4 C :   -0.191052
   5 H :    0.028276
   6 C :   -0.040094
   7 H :    0.033001
   8 H :    0.025137
   9 C :   -0.039534
  10 H :    0.030490
  11 H :    0.031094
  12 C :   -0.069999
  13 H :    0.024235
  14 H :    0.026909
  15 H :    0.029926
  16 S :    0.404212
  17 C :   -0.190787
  18 C :   -0.077630
  19 C :   -0.056733
  20 C :   -0.200833
  21 H :    0.035343
  22 C :   -0.028248
  23 H :    0.020034
  24 H :    0.030573
  25 C :   -0.038856
  26 H :    0.024703
  27 H :    0.021367
  28 C :   -0.066580
  29 H :    0.023095
  30 H :    0.019127
  31 H :    0.037006
  32 H :    0.027607
  33 H :    0.037447

  Mayer bond orders larger than 0.100000
B(  0-S ,  1-C ) :   1.1270 B(  0-S ,  4-C ) :   1.1619 B(  1-C ,  2-C ) :   1.6060
B(  1-C , 32-H ) :   0.9711 B(  2-C ,  3-C ) :   1.2395 B(  2-C ,  6-C ) :   1.0355
B(  3-C ,  4-C ) :   1.5598 B(  3-C ,  5-H ) :   0.9988 B(  4-C , 20-C ) :   1.0593
B(  6-C ,  7-H ) :   0.9407 B(  6-C ,  8-H ) :   0.9311 B(  6-C ,  9-C ) :   1.0434
B(  9-C , 10-H ) :   0.9620 B(  9-C , 11-H ) :   0.9536 B(  9-C , 12-C ) :   1.0734
B( 12-C , 13-H ) :   0.9768 B( 12-C , 14-H ) :   0.9753 B( 12-C , 15-H ) :   0.9709
B( 16-S , 17-C ) :   1.1366 B( 16-S , 20-C ) :   1.1269 B( 17-C , 18-C ) :   1.6559
B( 17-C , 33-H ) :   0.9643 B( 18-C , 19-C ) :   1.1897 B( 18-C , 21-H ) :   0.9896
B( 19-C , 20-C ) :   1.6232 B( 19-C , 22-C ) :   1.0325 B( 22-C , 23-H ) :   0.9377
B( 22-C , 24-H ) :   0.9390 B( 22-C , 25-C ) :   1.0531 B( 25-C , 26-H ) :   0.9594
B( 25-C , 27-H ) :   0.9572 B( 25-C , 28-C ) :   1.0769 B( 28-C , 29-H ) :   0.9690
B( 28-C , 30-H ) :   0.9762 B( 28-C , 31-H ) :   0.9715

Dispersion correction           -0.015177607
FINAL SINGLE POINT ENERGY     -1339.874593310524

DIPOLE MOMENT
-------------
                                X             Y             Z
Electronic contribution:      3.74639     -22.92839       0.57713
Nuclear contribution   :     -4.05537      23.43989      -0.50205
                        -----------------------------------------
Total Dipole Moment    :     -0.30898       0.51150       0.07509
                        -----------------------------------------
Magnitude (a.u.)       :      0.60228
Magnitude (Debye)      :      1.53087

Rotational constants in cm-1:     0.021218     0.007996     0.007375
Rotational constants in MHz :   636.103677   239.712611   221.090725

                             ****ORCA TERMINATED NORMALLY****
TOTAL RUN TIME: 0 days 0 hours 0 minutes 21 seconds 24 msec
