                         Program Version 4.2.1 -  RELEASE  -
|  1> ! wB97X-D3 SP def2-SVP
|  2> %pal
|  3> nprocs 24
|  4> end
|  5>
|  6> * xyz 0 1
|  7> S 	 9.83143 	 -18.5933 	 -114.614
|  8> C 	 8.81171 	 -18.2107 	 -115.966
|  9> C 	 7.62599 	 -18.9247 	 -115.818
| 10> C 	 7.56275 	 -19.6142 	 -114.604
| 11> C 	 8.69364 	 -19.5903 	 -113.844
| 12> H 	 6.79214 	 -20.1886 	 -114.169
| 13> C 	 6.45167 	 -18.9131 	 -116.725
| 14> H 	 6.79454 	 -18.3463 	 -117.566
| 15> H 	 5.66582 	 -18.1533 	 -116.383
| 16> C 	 5.98182 	 -20.2672 	 -117.369
| 17> H 	 6.7609 	 -20.9941 	 -117.505
| 18> H 	 5.38565 	 -20.7757 	 -116.54
| 19> C 	 5.31729 	 -20.1614 	 -118.69
| 20> H 	 5.09141 	 -21.1305 	 -119.051
| 21> H 	 4.41116 	 -19.6734 	 -118.748
| 22> H 	 5.91259 	 -19.7171 	 -119.399
| 23> S 	 8.60214 	 -21.8204 	 -112.304
| 24> C 	 8.91113 	 -21.8148 	 -110.62
| 25> C 	 9.35363 	 -20.5902 	 -110.264
| 26> C 	 9.26715 	 -19.5557 	 -111.267
| 27> C 	 8.88733 	 -20.1449 	 -112.465
| 28> H 	 9.49876 	 -20.4917 	 -109.192
| 29> C 	 9.52049 	 -18.0161 	 -111.065
| 30> H 	 9.79078 	 -17.4006 	 -111.921
| 31> H 	 10.2922 	 -17.9152 	 -110.363
| 32> C 	 8.28157 	 -17.2251 	 -110.453
| 33> H 	 8.62062 	 -16.2797 	 -110.162
| 34> H 	 8.09751 	 -17.7914 	 -109.543
| 35> C 	 7.0523 	 -17.1153 	 -111.319
| 36> H 	 6.58121 	 -18.0403 	 -111.548
| 37> H 	 7.274 	 -16.5438 	 -112.24
| 38> H 	 6.25343 	 -16.4656 	 -110.819
| 39> H 	 8.97704 	 -17.5953 	 -116.907
| 40> H 	 8.81528 	 -22.676 	 -109.951
| 41> *
| 42>
| 43>                          ****END OF INPUT****

CARTESIAN COORDINATES (ANGSTROEM)
---------------------------------
  S      9.831430  -18.593300  -114.614000
  C      8.811710  -18.210700  -115.966000
  C      7.625990  -18.924700  -115.818000
  C      7.562750  -19.614200  -114.604000
  C      8.693640  -19.590300  -113.844000
  H      6.792140  -20.188600  -114.169000
  C      6.451670  -18.913100  -116.725000
  H      6.794540  -18.346300  -117.566000
  H      5.665820  -18.153300  -116.383000
  C      5.981820  -20.267200  -117.369000
  H      6.760900  -20.994100  -117.505000
  H      5.385650  -20.775700  -116.540000
  C      5.317290  -20.161400  -118.690000
  H      5.091410  -21.130500  -119.051000
  H      4.411160  -19.673400  -118.748000
  H      5.912590  -19.717100  -119.399000
  S      8.602140  -21.820400  -112.304000
  C      8.911130  -21.814800  -110.620000
  C      9.353630  -20.590200  -110.264000
  C      9.267150  -19.555700  -111.267000
  C      8.887330  -20.144900  -112.465000
  H      9.498760  -20.491700  -109.192000
  C      9.520490  -18.016100  -111.065000
  H      9.790780  -17.400600  -111.921000
  H     10.292200  -17.915200  -110.363000
  C      8.281570  -17.225100  -110.453000
  H      8.620620  -16.279700  -110.162000
  H      8.097510  -17.791400  -109.543000
  C      7.052300  -17.115300  -111.319000
  H      6.581210  -18.040300  -111.548000
  H      7.274000  -16.543800  -112.240000
  H      6.253430  -16.465600  -110.819000
  H      8.977040  -17.595300  -116.907000
  H      8.815280  -22.676000  -109.951000

 Total Charge           Charge          ....    0
 Multiplicity           Mult            ....    1
 Number of Electrons    NEL             ....  134
 Basis Dimension        Dim             ....  322

ORBITAL ENERGIES
----------------

  NO   OCC          E(Eh)            E(eV)
   0   2.0000     -88.966007     -2420.8881
   1   2.0000     -88.963432     -2420.8180
   2   2.0000     -10.327779      -281.0332
   3   2.0000     -10.323255      -280.9101
   4   2.0000     -10.318030      -280.7679
   5   2.0000     -10.312832      -280.6264
   6   2.0000     -10.311312      -280.5851
   7   2.0000     -10.295698      -280.1602
   8   2.0000     -10.293355      -280.0964
   9   2.0000     -10.292009      -280.0598
  10   2.0000     -10.291267      -280.0396
  11   2.0000     -10.289740      -279.9981
  12   2.0000     -10.280620      -279.7499
  13   2.0000     -10.278820      -279.7009
  14   2.0000     -10.274148      -279.5738
  15   2.0000     -10.260681      -279.2073
  16   2.0000      -8.081214      -219.9010
  17   2.0000      -8.079751      -219.8612
  18   2.0000      -6.039630      -164.3467
  19   2.0000      -6.038061      -164.3040
  20   2.0000      -6.035411      -164.2319
  21   2.0000      -6.033965      -164.1925
  22   2.0000      -6.032252      -164.1459
  23   2.0000      -6.030682      -164.1032
  24   2.0000      -1.016607       -27.6633
  25   2.0000      -0.996522       -27.1167
  26   2.0000      -0.912854       -24.8400
  27   2.0000      -0.900599       -24.5065
  28   2.0000      -0.874002       -23.7828
  29   2.0000      -0.856424       -23.3045
  30   2.0000      -0.844733       -22.9864
  31   2.0000      -0.820508       -22.3271
  32   2.0000      -0.785418       -21.3723
  33   2.0000      -0.776348       -21.1255
  34   2.0000      -0.712339       -19.3837
  35   2.0000      -0.697555       -18.9814
  36   2.0000      -0.687685       -18.7129
  37   2.0000      -0.660601       -17.9759
  38   2.0000      -0.638470       -17.3736
  39   2.0000      -0.622673       -16.9438
  40   2.0000      -0.598610       -16.2890
  41   2.0000      -0.573988       -15.6190
  42   2.0000      -0.556741       -15.1497
  43   2.0000      -0.550581       -14.9821
  44   2.0000      -0.543867       -14.7994
  45   2.0000      -0.531923       -14.4744
  46   2.0000      -0.515797       -14.0356
  47   2.0000      -0.504932       -13.7399
  48   2.0000      -0.503249       -13.6941
  49   2.0000      -0.497837       -13.5468
  50   2.0000      -0.495395       -13.4804
  51   2.0000      -0.481596       -13.1049
  52   2.0000      -0.474431       -12.9099
  53   2.0000      -0.471264       -12.8237
  54   2.0000      -0.465917       -12.6782
  55   2.0000      -0.445623       -12.1260
  56   2.0000      -0.441470       -12.0130
  57   2.0000      -0.436354       -11.8738
  58   2.0000      -0.435530       -11.8514
  59   2.0000      -0.425541       -11.5796
  60   2.0000      -0.419004       -11.4017
  61   2.0000      -0.405583       -11.0365
  62   2.0000      -0.398963       -10.8563
  63   2.0000      -0.347334        -9.4514
  64   2.0000      -0.332337        -9.0433
  65   2.0000      -0.328167        -8.9299
  66   2.0000      -0.300418        -8.1748
  67   0.0000       0.037775         1.0279
  68   0.0000       0.079392         2.1604
  69   0.0000       0.122299         3.3279
  70   0.0000       0.127016         3.4563
  71   0.0000       0.135822         3.6959

MULLIKEN ATOMIC CHARGES
-----------------------
   0 S :    0.122929
   1 C :   -0.136091
   2 C :   -0.107760
   3 C :    0.046289
   4 C :   -0.139434
   5 H :   -0.013770
   6 C :    0.071596
   7 H :   -0.021942
   8 H :    0.055478
   9 C :   -0.076000
  10 H :    0.026624
  11 H :    0.034780
  12 C :    0.028795
  13 H :    0.015107
  14 H :    0.008692
  15 H :    0.010555
  16 S :    0.115168
  17 C :   -0.106802
  18 C :   -0.043480
  19 C :   -0.019056
  20 C :   -0.175999
  21 H :    0.020110
  22 C :    0.082707
  23 H :    0.026787
  24 H :    0.009740
  25 C :   -0.052230
  26 H :    0.014593
  27 H :    0.015495
  28 C :   -0.053034
  29 H :    0.035789
  30 H :    0.032598
  31 H :    0.034905
  32 H :    0.071236
  33 H :    0.065626
Sum of atomic charges:    0.0000000

LOEWDIN ATOMIC CHARGES
----------------------
   0 S :    0.447763
   1 C :   -0.221245
   2 C :   -0.071806
   3 C :   -0.066489
   4 C :   -0.212110
   5 H :    0.021900
   6 C :   -0.046178
   7 H :    0.019529
   8 H :    0.046637
   9 C :   -0.038469
  10 H :    0.027686
  11 H :    0.028891
  12 C :   -0.052656
  13 H :    0.028682
  14 H :    0.016811
  15 H :    0.017773
  16 S :    0.439467
  17 C :   -0.202531
  18 C :   -0.077037
  19 C :   -0.057204
  20 C :   -0.206339
  21 H :    0.031575
  22 C :   -0.022725
  23 H :    0.022659
  24 H :    0.022591
  25 C :   -0.033091
  26 H :    0.015460
  27 H :    0.019763
  28 C :   -0.068748
  29 H :    0.020547
  30 H :    0.028121
  31 H :    0.034182
  32 H :    0.049260
  33 H :    0.037330

  Mayer bond orders larger than 0.100000
B(  0-S ,  1-C ) :   1.1542 B(  0-S ,  4-C ) :   1.1740 B(  1-C ,  2-C ) :   1.5788
B(  1-C , 32-H ) :   0.9566 B(  2-C ,  3-C ) :   1.2509 B(  2-C ,  6-C ) :   1.0447
B(  3-C ,  4-C ) :   1.5731 B(  3-C ,  5-H ) :   1.0022 B(  4-C , 20-C ) :   0.9703
B(  6-C ,  7-H ) :   0.9270 B(  6-C ,  8-H ) :   0.9309 B(  6-C ,  9-C ) :   1.0381
B(  9-C , 10-H ) :   0.9571 B(  9-C , 11-H ) :   0.9528 B(  9-C , 12-C ) :   1.1005
B( 12-C , 13-H ) :   0.9666 B( 12-C , 14-H ) :   0.9702 B( 12-C , 15-H ) :   0.9668
B( 16-S , 17-C ) :   1.1518 B( 16-S , 20-C ) :   1.1830 B( 17-C , 18-C ) :   1.6264
B( 17-C , 33-H ) :   0.9667 B( 18-C , 19-C ) :   1.2332 B( 18-C , 21-H ) :   0.9831
B( 19-C , 20-C ) :   1.5876 B( 19-C , 22-C ) :   1.0323 B( 22-C , 23-H ) :   0.9446
B( 22-C , 24-H ) :   0.9312 B( 22-C , 25-C ) :   1.0739 B( 25-C , 26-H ) :   0.9553
B( 25-C , 27-H ) :   0.9556 B( 25-C , 28-C ) :   1.0847 B( 28-C , 29-H ) :   0.9757
B( 28-C , 30-H ) :   0.9724 B( 28-C , 31-H ) :   0.9706

Dispersion correction           -0.014832200
FINAL SINGLE POINT ENERGY     -1339.858102308355

DIPOLE MOMENT
-------------
                                X             Y             Z
Electronic contribution:     16.02346     -10.02509       6.83656
Nuclear contribution   :    -16.38908      10.20058      -6.83328
                        -----------------------------------------
Total Dipole Moment    :     -0.36563       0.17549       0.00328
                        -----------------------------------------
Magnitude (a.u.)       :      0.40557
Magnitude (Debye)      :      1.03088

Rotational constants in cm-1:     0.021056     0.008066     0.007075
Rotational constants in MHz :   631.238873   241.824308   212.104342

                             ****ORCA TERMINATED NORMALLY****
TOTAL RUN TIME: 0 days 0 hours 0 minutes 20 seconds 518 msec
