                         Program Version 4.2.1 -  RELEASE  -
|  1> ! wB97X-D3 SP def2-SVP
|  2> %pal
|  3> nprocs 24
|  4> end
|  5>
|  6> * xyz 0 1
|  7> S 	 -56.9118 	 1.98379 	 -24.9961
|  8> C 	 -55.3925 	 2.60595 	 -24.3009
|  9> C 	 -54.3655 	 1.66142 	 -24.5727
| 10> C 	 -54.9049 	 0.518457 	 -25.1922
| 11> C 	 -56.2127 	 0.477296 	 -25.4798
| 12> H 	 -54.1802 	 -0.21969 	 -25.6167
| 13> C 	 -52.9241 	 1.8847 	 -24.241
| 14> H 	 -52.6742 	 0.985619 	 -23.6477
| 15> H 	 -52.8871 	 2.80052 	 -23.716
| 16> C 	 -51.8528 	 2.17102 	 -25.2903
| 17> H 	 -51.7523 	 1.29192 	 -25.9519
| 18> H 	 -52.1784 	 3.07217 	 -25.8431
| 19> C 	 -50.5211 	 2.51107 	 -24.6582
| 20> H 	 -50.3903 	 3.5382 	 -24.2748
| 21> H 	 -50.2816 	 1.86712 	 -23.8413
| 22> H 	 -49.7687 	 2.27272 	 -25.4328
| 23> S 	 -57.0979 	 -2.15633 	 -25.402
| 24> C 	 -57.844 	 -2.76509 	 -26.8309
| 25> C 	 -57.9479 	 -1.79553 	 -27.8172
| 26> C 	 -57.4936 	 -0.526408 	 -27.4627
| 27> C 	 -56.9029 	 -0.541824 	 -26.2231
| 28> H 	 -58.3937 	 -2.09144 	 -28.7725
| 29> C 	 -57.6401 	 0.609709 	 -28.3884
| 30> H 	 -57.0859 	 1.42066 	 -27.981
| 31> H 	 -58.616 	 0.906068 	 -28.5262
| 32> C 	 -56.9962 	 0.276244 	 -29.7588
| 33> H 	 -57.1112 	 1.1834 	 -30.4064
| 34> H 	 -57.6091 	 -0.415057 	 -30.246
| 35> C 	 -55.5452 	 -0.130175 	 -29.6751
| 36> H 	 -54.902 	 -0.275504 	 -30.5584
| 37> H 	 -55.4579 	 -1.05276 	 -29.0135
| 38> H 	 -54.9408 	 0.556436 	 -29.0831
| 39> H 	 -55.1625 	 3.54129 	 -23.8609
| 40> H 	 -58.2242 	 -3.71667 	 -27.0177
| 41> *
| 42>
| 43>                          ****END OF INPUT****

CARTESIAN COORDINATES (ANGSTROEM)
---------------------------------
  S    -56.911800    1.983790  -24.996100
  C    -55.392500    2.605950  -24.300900
  C    -54.365500    1.661420  -24.572700
  C    -54.904900    0.518457  -25.192200
  C    -56.212700    0.477296  -25.479800
  H    -54.180200   -0.219690  -25.616700
  C    -52.924100    1.884700  -24.241000
  H    -52.674200    0.985619  -23.647700
  H    -52.887100    2.800520  -23.716000
  C    -51.852800    2.171020  -25.290300
  H    -51.752300    1.291920  -25.951900
  H    -52.178400    3.072170  -25.843100
  C    -50.521100    2.511070  -24.658200
  H    -50.390300    3.538200  -24.274800
  H    -50.281600    1.867120  -23.841300
  H    -49.768700    2.272720  -25.432800
  S    -57.097900   -2.156330  -25.402000
  C    -57.844000   -2.765090  -26.830900
  C    -57.947900   -1.795530  -27.817200
  C    -57.493600   -0.526408  -27.462700
  C    -56.902900   -0.541824  -26.223100
  H    -58.393700   -2.091440  -28.772500
  C    -57.640100    0.609709  -28.388400
  H    -57.085900    1.420660  -27.981000
  H    -58.616000    0.906068  -28.526200
  C    -56.996200    0.276244  -29.758800
  H    -57.111200    1.183400  -30.406400
  H    -57.609100   -0.415057  -30.246000
  C    -55.545200   -0.130175  -29.675100
  H    -54.902000   -0.275504  -30.558400
  H    -55.457900   -1.052760  -29.013500
  H    -54.940800    0.556436  -29.083100
  H    -55.162500    3.541290  -23.860900
  H    -58.224200   -3.716670  -27.017700

 Total Charge           Charge          ....    0
 Multiplicity           Mult            ....    1
 Number of Electrons    NEL             ....  134
 Basis Dimension        Dim             ....  322

ORBITAL ENERGIES
----------------

  NO   OCC          E(Eh)            E(eV)
   0   2.0000     -88.967109     -2420.9181
   1   2.0000     -88.966147     -2420.8919
   2   2.0000     -10.327026      -281.0127
   3   2.0000     -10.322395      -280.8867
   4   2.0000     -10.316817      -280.7349
   5   2.0000     -10.312254      -280.6107
   6   2.0000     -10.298835      -280.2455
   7   2.0000     -10.297914      -280.2205
   8   2.0000     -10.290558      -280.0203
   9   2.0000     -10.288021      -279.9513
  10   2.0000     -10.287684      -279.9421
  11   2.0000     -10.286949      -279.9221
  12   2.0000     -10.285191      -279.8743
  13   2.0000     -10.280867      -279.7566
  14   2.0000     -10.279566      -279.7212
  15   2.0000     -10.277403      -279.6623
  16   2.0000      -8.081177      -219.9000
  17   2.0000      -8.080206      -219.8736
  18   2.0000      -6.039673      -164.3479
  19   2.0000      -6.038740      -164.3225
  20   2.0000      -6.035856      -164.2440
  21   2.0000      -6.034716      -164.2130
  22   2.0000      -6.031915      -164.1367
  23   2.0000      -6.031036      -164.1128
  24   2.0000      -1.008878       -27.4530
  25   2.0000      -0.986176       -26.8352
  26   2.0000      -0.918654       -24.9978
  27   2.0000      -0.917670       -24.9711
  28   2.0000      -0.872418       -23.7397
  29   2.0000      -0.848861       -23.0987
  30   2.0000      -0.847468       -23.0608
  31   2.0000      -0.813894       -22.1472
  32   2.0000      -0.788843       -21.4655
  33   2.0000      -0.774606       -21.0781
  34   2.0000      -0.712947       -19.4003
  35   2.0000      -0.704303       -19.1651
  36   2.0000      -0.696617       -18.9559
  37   2.0000      -0.664783       -18.0897
  38   2.0000      -0.631727       -17.1902
  39   2.0000      -0.622301       -16.9337
  40   2.0000      -0.604354       -16.4453
  41   2.0000      -0.576696       -15.6927
  42   2.0000      -0.568996       -15.4832
  43   2.0000      -0.564417       -15.3586
  44   2.0000      -0.536323       -14.5941
  45   2.0000      -0.525506       -14.2998
  46   2.0000      -0.518802       -14.1173
  47   2.0000      -0.514030       -13.9875
  48   2.0000      -0.503306       -13.6957
  49   2.0000      -0.502214       -13.6659
  50   2.0000      -0.495350       -13.4791
  51   2.0000      -0.476727       -12.9724
  52   2.0000      -0.466995       -12.7076
  53   2.0000      -0.465113       -12.6564
  54   2.0000      -0.458221       -12.4688
  55   2.0000      -0.451474       -12.2852
  56   2.0000      -0.446379       -12.1466
  57   2.0000      -0.439938       -11.9713
  58   2.0000      -0.430631       -11.7181
  59   2.0000      -0.423668       -11.5286
  60   2.0000      -0.422379       -11.4935
  61   2.0000      -0.413065       -11.2401
  62   2.0000      -0.409110       -11.1324
  63   2.0000      -0.340587        -9.2678
  64   2.0000      -0.332296        -9.0422
  65   2.0000      -0.325853        -8.8669
  66   2.0000      -0.297840        -8.1046
  67   0.0000       0.035383         0.9628
  68   0.0000       0.061981         1.6866
  69   0.0000       0.108142         2.9427
  70   0.0000       0.118122         3.2143
  71   0.0000       0.128022         3.4837

MULLIKEN ATOMIC CHARGES
-----------------------
   0 S :    0.111605
   1 C :   -0.105415
   2 C :   -0.112089
   3 C :    0.020021
   4 C :   -0.148088
   5 H :    0.020939
   6 C :    0.063624
   7 H :    0.041680
   8 H :   -0.002409
   9 C :   -0.070894
  10 H :    0.031958
  11 H :    0.034610
  12 C :   -0.045980
  13 H :    0.042083
  14 H :    0.017996
  15 H :    0.037230
  16 S :    0.119451
  17 C :   -0.049225
  18 C :   -0.069531
  19 C :   -0.022523
  20 C :   -0.197055
  21 H :    0.018969
  22 C :    0.173575
  23 H :    0.005860
  24 H :    0.020430
  25 C :   -0.084533
  26 H :    0.029937
  27 H :    0.016529
  28 C :   -0.062105
  29 H :    0.042354
  30 H :    0.042860
  31 H :    0.017949
  32 H :    0.031834
  33 H :    0.028354
Sum of atomic charges:   -0.0000000

LOEWDIN ATOMIC CHARGES
----------------------
   0 S :    0.408671
   1 C :   -0.188709
   2 C :   -0.062463
   3 C :   -0.074617
   4 C :   -0.210137
   5 H :    0.036161
   6 C :   -0.037917
   7 H :    0.037580
   8 H :    0.025453
   9 C :   -0.040202
  10 H :    0.022897
  11 H :    0.030060
  12 C :   -0.067388
  13 H :    0.028960
  14 H :    0.019572
  15 H :    0.034514
  16 S :    0.396373
  17 C :   -0.179293
  18 C :   -0.074092
  19 C :   -0.052259
  20 C :   -0.177142
  21 H :    0.031973
  22 C :   -0.012873
  23 H :    0.023184
  24 H :    0.026535
  25 C :   -0.035455
  26 H :    0.029244
  27 H :    0.011011
  28 C :   -0.079696
  29 H :    0.029512
  30 H :    0.035376
  31 H :    0.024799
  32 H :    0.021585
  33 H :    0.018782

  Mayer bond orders larger than 0.100000
B(  0-S ,  1-C ) :   1.1427 B(  0-S ,  4-C ) :   1.1351 B(  1-C ,  2-C ) :   1.5780
B(  1-C , 32-H ) :   0.9698 B(  2-C ,  3-C ) :   1.2784 B(  2-C ,  6-C ) :   1.0350
B(  3-C ,  4-C ) :   1.5744 B(  3-C ,  5-H ) :   0.9837 B(  4-C , 20-C ) :   1.0251
B(  6-C ,  7-H ) :   0.9325 B(  6-C ,  8-H ) :   0.9350 B(  6-C ,  9-C ) :   1.0735
B(  9-C , 10-H ) :   0.9549 B(  9-C , 11-H ) :   0.9526 B(  9-C , 12-C ) :   1.0839
B( 12-C , 13-H ) :   0.9739 B( 12-C , 14-H ) :   0.9730 B( 12-C , 15-H ) :   0.9731
B( 16-S , 17-C ) :   1.1553 B( 16-S , 20-C ) :   1.1318 B( 17-C , 18-C ) :   1.6235
B( 17-C , 20-C ) :   0.1032 B( 17-C , 33-H ) :   0.9695 B( 18-C , 19-C ) :   1.2209
B( 18-C , 21-H ) :   0.9875 B( 19-C , 20-C ) :   1.5962 B( 19-C , 22-C ) :   1.0519
B( 22-C , 23-H ) :   0.9178 B( 22-C , 24-H ) :   0.9245 B( 22-C , 25-C ) :   1.0757
B( 25-C , 26-H ) :   0.9540 B( 25-C , 27-H ) :   0.9556 B( 25-C , 28-C ) :   1.0669
B( 28-C , 29-H ) :   0.9760 B( 28-C , 30-H ) :   0.9650 B( 28-C , 31-H ) :   0.9718

Dispersion correction           -0.014723380
FINAL SINGLE POINT ENERGY     -1339.867052128185

DIPOLE MOMENT
-------------
                                X             Y             Z
Electronic contribution:    -20.92050      -8.26199      12.05246
Nuclear contribution   :     21.33483       8.39656     -12.48652
                        -----------------------------------------
Total Dipole Moment    :      0.41434       0.13457      -0.43406
                        -----------------------------------------
Magnitude (a.u.)       :      0.61497
Magnitude (Debye)      :      1.56313

Rotational constants in cm-1:     0.019988     0.007809     0.007213
Rotational constants in MHz :   599.232113   234.121172   216.234825

                             ****ORCA TERMINATED NORMALLY****
TOTAL RUN TIME: 0 days 0 hours 0 minutes 23 seconds 74 msec
