                         Program Version 4.2.1 -  RELEASE  -
|  1> ! wB97X-D3 SP def2-SVP
|  2> %pal
|  3> nprocs 24
|  4> end
|  5>
|  6> * xyz 0 1
|  7> S 	 -109.525 	 53.0294 	 -85.5969
|  8> C 	 -109.246 	 51.5477 	 -84.7754
|  9> C 	 -110.023 	 50.564 	 -85.2609
| 10> C 	 -110.912 	 51.0651 	 -86.2336
| 11> C 	 -110.708 	 52.3135 	 -86.6416
| 12> H 	 -111.502 	 50.3241 	 -86.7124
| 13> C 	 -110.098 	 49.1542 	 -84.8449
| 14> H 	 -111.125 	 48.7133 	 -84.9208
| 15> H 	 -109.803 	 49.1715 	 -83.8397
| 16> C 	 -109.151 	 48.2271 	 -85.4948
| 17> H 	 -109.328 	 48.1459 	 -86.5878
| 18> H 	 -108.098 	 48.5212 	 -85.37
| 19> C 	 -109.374 	 46.8406 	 -84.9116
| 20> H 	 -108.989 	 46.1134 	 -85.5697
| 21> H 	 -108.874 	 46.6306 	 -83.9569
| 22> H 	 -110.376 	 46.3775 	 -84.7477
| 23> S 	 -113.138 	 52.4201 	 -87.9464
| 24> C 	 -113.31 	 53.4559 	 -89.3288
| 25> C 	 -112.271 	 54.3802 	 -89.4072
| 26> C 	 -111.282 	 54.1319 	 -88.3974
| 27> C 	 -111.459 	 53.0094 	 -87.7054
| 28> H 	 -112.219 	 55.2099 	 -90.0793
| 29> C 	 -110.123 	 55.0765 	 -88.2468
| 30> H 	 -109.302 	 54.6288 	 -87.6987
| 31> H 	 -110.418 	 55.8469 	 -87.6582
| 32> C 	 -109.45 	 55.6558 	 -89.4744
| 33> H 	 -110.193 	 56.286 	 -89.9805
| 34> H 	 -109.188 	 54.8319 	 -90.1627
| 35> C 	 -108.033 	 56.3138 	 -89.2025
| 36> H 	 -107.107 	 55.7423 	 -89.399
| 37> H 	 -107.857 	 56.7194 	 -88.199
| 38> H 	 -107.943 	 57.111 	 -89.9632
| 39> H 	 -108.321 	 51.4054 	 -84.2545
| 40> H 	 -114.119 	 53.4732 	 -90.0276
| 41> *
| 42>
| 43>                          ****END OF INPUT****

CARTESIAN COORDINATES (ANGSTROEM)
---------------------------------
  S    -109.525000   53.029400  -85.596900
  C    -109.246000   51.547700  -84.775400
  C    -110.023000   50.564000  -85.260900
  C    -110.912000   51.065100  -86.233600
  C    -110.708000   52.313500  -86.641600
  H    -111.502000   50.324100  -86.712400
  C    -110.098000   49.154200  -84.844900
  H    -111.125000   48.713300  -84.920800
  H    -109.803000   49.171500  -83.839700
  C    -109.151000   48.227100  -85.494800
  H    -109.328000   48.145900  -86.587800
  H    -108.098000   48.521200  -85.370000
  C    -109.374000   46.840600  -84.911600
  H    -108.989000   46.113400  -85.569700
  H    -108.874000   46.630600  -83.956900
  H    -110.376000   46.377500  -84.747700
  S    -113.138000   52.420100  -87.946400
  C    -113.310000   53.455900  -89.328800
  C    -112.271000   54.380200  -89.407200
  C    -111.282000   54.131900  -88.397400
  C    -111.459000   53.009400  -87.705400
  H    -112.219000   55.209900  -90.079300
  C    -110.123000   55.076500  -88.246800
  H    -109.302000   54.628800  -87.698700
  H    -110.418000   55.846900  -87.658200
  C    -109.450000   55.655800  -89.474400
  H    -110.193000   56.286000  -89.980500
  H    -109.188000   54.831900  -90.162700
  C    -108.033000   56.313800  -89.202500
  H    -107.107000   55.742300  -89.399000
  H    -107.857000   56.719400  -88.199000
  H    -107.943000   57.111000  -89.963200
  H    -108.321000   51.405400  -84.254500
  H    -114.119000   53.473200  -90.027600

 Total Charge           Charge          ....    0
 Multiplicity           Mult            ....    1
 Number of Electrons    NEL             ....  134
 Basis Dimension        Dim             ....  322

ORBITAL ENERGIES
----------------

  NO   OCC          E(Eh)            E(eV)
   0   2.0000     -88.962953     -2420.8050
   1   2.0000     -88.961726     -2420.7716
   2   2.0000     -10.325194      -280.9628
   3   2.0000     -10.324617      -280.9471
   4   2.0000     -10.318214      -280.7729
   5   2.0000     -10.303137      -280.3626
   6   2.0000     -10.296706      -280.1876
   7   2.0000     -10.293083      -280.0890
   8   2.0000     -10.291829      -280.0549
   9   2.0000     -10.288227      -279.9569
  10   2.0000     -10.287673      -279.9418
  11   2.0000     -10.285359      -279.8789
  12   2.0000     -10.281796      -279.7819
  13   2.0000     -10.277616      -279.6682
  14   2.0000     -10.277354      -279.6610
  15   2.0000     -10.274502      -279.5834
  16   2.0000      -8.077321      -219.7951
  17   2.0000      -8.077304      -219.7946
  18   2.0000      -6.035982      -164.2474
  19   2.0000      -6.035913      -164.2455
  20   2.0000      -6.032106      -164.1420
  21   2.0000      -6.031604      -164.1283
  22   2.0000      -6.028000      -164.0302
  23   2.0000      -6.027711      -164.0223
  24   2.0000      -1.016870       -27.6704
  25   2.0000      -0.992414       -27.0050
  26   2.0000      -0.925807       -25.1925
  27   2.0000      -0.910353       -24.7720
  28   2.0000      -0.873377       -23.7658
  29   2.0000      -0.855017       -23.2662
  30   2.0000      -0.846054       -23.0223
  31   2.0000      -0.816451       -22.2168
  32   2.0000      -0.785718       -21.3805
  33   2.0000      -0.777710       -21.1626
  34   2.0000      -0.708569       -19.2811
  35   2.0000      -0.704962       -19.1830
  36   2.0000      -0.697883       -18.9904
  37   2.0000      -0.669977       -18.2310
  38   2.0000      -0.643082       -17.4992
  39   2.0000      -0.624842       -17.0028
  40   2.0000      -0.604099       -16.4384
  41   2.0000      -0.578956       -15.7542
  42   2.0000      -0.567427       -15.4405
  43   2.0000      -0.565074       -15.3764
  44   2.0000      -0.529140       -14.3986
  45   2.0000      -0.525288       -14.2938
  46   2.0000      -0.519427       -14.1343
  47   2.0000      -0.516772       -14.0621
  48   2.0000      -0.503280       -13.6949
  49   2.0000      -0.499220       -13.5845
  50   2.0000      -0.484082       -13.1725
  51   2.0000      -0.482241       -13.1224
  52   2.0000      -0.478769       -13.0280
  53   2.0000      -0.466950       -12.7063
  54   2.0000      -0.459371       -12.5001
  55   2.0000      -0.453595       -12.3430
  56   2.0000      -0.446428       -12.1479
  57   2.0000      -0.441461       -12.0128
  58   2.0000      -0.431904       -11.7527
  59   2.0000      -0.424888       -11.5618
  60   2.0000      -0.416483       -11.3331
  61   2.0000      -0.412871       -11.2348
  62   2.0000      -0.403668       -10.9844
  63   2.0000      -0.358089        -9.7441
  64   2.0000      -0.329846        -8.9756
  65   2.0000      -0.328733        -8.9453
  66   2.0000      -0.291608        -7.9350
  67   0.0000       0.027242         0.7413
  68   0.0000       0.085223         2.3190
  69   0.0000       0.104039         2.8310
  70   0.0000       0.124472         3.3871
  71   0.0000       0.133043         3.6203

MULLIKEN ATOMIC CHARGES
-----------------------
   0 S :    0.087717
   1 C :   -0.114309
   2 C :   -0.076371
   3 C :   -0.016975
   4 C :   -0.071573
   5 H :   -0.003031
   6 C :    0.074035
   7 H :    0.035465
   8 H :    0.005954
   9 C :   -0.058596
  10 H :    0.030578
  11 H :    0.033147
  12 C :   -0.056051
  13 H :    0.012938
  14 H :    0.028847
  15 H :    0.027971
  16 S :    0.088672
  17 C :   -0.060684
  18 C :   -0.025875
  19 C :   -0.067772
  20 C :   -0.113854
  21 H :    0.007758
  22 C :    0.100899
  23 H :    0.015742
  24 H :    0.014415
  25 C :   -0.105662
  26 H :    0.037063
  27 H :    0.039786
  28 C :   -0.071675
  29 H :    0.040106
  30 H :    0.036963
  31 H :    0.032024
  32 H :    0.044866
  33 H :    0.047480
Sum of atomic charges:    0.0000000

LOEWDIN ATOMIC CHARGES
----------------------
   0 S :    0.424072
   1 C :   -0.204794
   2 C :   -0.061768
   3 C :   -0.074990
   4 C :   -0.187130
   5 H :    0.022098
   6 C :   -0.035133
   7 H :    0.039495
   8 H :    0.027962
   9 C :   -0.036256
  10 H :    0.026566
  11 H :    0.029392
  12 C :   -0.077200
  13 H :    0.019909
  14 H :    0.026041
  15 H :    0.030923
  16 S :    0.391436
  17 C :   -0.174972
  18 C :   -0.066084
  19 C :   -0.057259
  20 C :   -0.168813
  21 H :    0.026391
  22 C :   -0.034516
  23 H :    0.019868
  24 H :    0.021678
  25 C :   -0.039771
  26 H :    0.019600
  27 H :    0.031687
  28 C :   -0.075907
  29 H :    0.031203
  30 H :    0.024514
  31 H :    0.031502
  32 H :    0.024498
  33 H :    0.025757

  Mayer bond orders larger than 0.100000
B(  0-S ,  1-C ) :   1.1355 B(  0-S ,  4-C ) :   1.1362 B(  1-C ,  2-C ) :   1.6280
B(  1-C , 32-H ) :   0.9590 B(  2-C ,  3-C ) :   1.2701 B(  2-C ,  6-C ) :   1.0184
B(  3-C ,  4-C ) :   1.5505 B(  3-C ,  5-H ) :   0.9964 B(  4-C , 20-C ) :   1.0565
B(  6-C ,  7-H ) :   0.9448 B(  6-C ,  8-H ) :   0.9267 B(  6-C ,  9-C ) :   1.0800
B(  9-C , 10-H ) :   0.9547 B(  9-C , 11-H ) :   0.9489 B(  9-C , 12-C ) :   1.0766
B( 12-C , 13-H ) :   0.9717 B( 12-C , 14-H ) :   0.9735 B( 12-C , 15-H ) :   0.9730
B( 16-S , 17-C ) :   1.1520 B( 16-S , 20-C ) :   1.1002 B( 17-C , 18-C ) :   1.6147
B( 17-C , 33-H ) :   0.9693 B( 18-C , 19-C ) :   1.2101 B( 18-C , 21-H ) :   0.9943
B( 19-C , 20-C ) :   1.6671 B( 19-C , 22-C ) :   1.0391 B( 22-C , 23-H ) :   0.9313
B( 22-C , 24-H ) :   0.9121 B( 22-C , 25-C ) :   1.0721 B( 25-C , 26-H ) :   0.9565
B( 25-C , 27-H ) :   0.9608 B( 25-C , 28-C ) :   1.0598 B( 28-C , 29-H ) :   0.9782
B( 28-C , 30-H ) :   0.9794 B( 28-C , 31-H ) :   0.9755

Dispersion correction           -0.013281899
FINAL SINGLE POINT ENERGY     -1339.854493015218

DIPOLE MOMENT
-------------
                                X             Y             Z
Electronic contribution:    -14.46124       6.68121       1.96955
Nuclear contribution   :     14.76523      -6.83130      -2.16558
                        -----------------------------------------
Total Dipole Moment    :      0.30399      -0.15008      -0.19603
                        -----------------------------------------
Magnitude (a.u.)       :      0.39162
Magnitude (Debye)      :      0.99541

Rotational constants in cm-1:     0.021059     0.007472     0.006054
Rotational constants in MHz :   631.346338   224.007830   181.488118

                             ****ORCA TERMINATED NORMALLY****
TOTAL RUN TIME: 0 days 0 hours 0 minutes 20 seconds 845 msec
