                         Program Version 4.2.1 -  RELEASE  -
|  1> ! wB97X-D3 SP def2-SVP
|  2> %pal
|  3> nprocs 24
|  4> end
|  5>
|  6> * xyz 0 1
|  7> S 	 -139.545 	 7.49069 	 3.08182
|  8> C 	 -139.82 	 8.41628 	 1.64822
|  9> C 	 -141.158 	 8.2919 	 1.20486
| 10> C 	 -141.943 	 7.56098 	 2.1933
| 11> C 	 -141.202 	 7.11216 	 3.26805
| 12> H 	 -143.044 	 7.3892 	 2.17883
| 13> C 	 -141.735 	 8.98223 	 -0.0678046
| 14> H 	 -142.141 	 9.85007 	 0.445377
| 15> H 	 -142.453 	 8.37159 	 -0.600174
| 16> C 	 -140.723 	 9.50294 	 -1.17288
| 17> H 	 -140.009 	 10.2415 	 -0.853963
| 18> H 	 -140.085 	 8.59917 	 -1.4011
| 19> C 	 -141.277 	 10.0694 	 -2.58218
| 20> H 	 -142.035 	 10.8228 	 -2.38729
| 21> H 	 -140.617 	 10.7378 	 -3.06002
| 22> H 	 -141.664 	 9.31538 	 -3.32477
| 23> S 	 -140.698 	 7.00686 	 5.92284
| 24> C 	 -141.759 	 6.20783 	 7.04596
| 25> C 	 -142.957 	 5.89511 	 6.44809
| 26> C 	 -142.913 	 6.11745 	 5.02979
| 27> C 	 -141.735 	 6.64671 	 4.55974
| 28> H 	 -143.673 	 5.46721 	 7.06366
| 29> C 	 -144.118 	 5.61389 	 4.22983
| 30> H 	 -144.258 	 4.46798 	 4.36207
| 31> H 	 -143.846 	 5.55734 	 3.17217
| 32> C 	 -145.365 	 6.52436 	 4.30455
| 33> H 	 -145.106 	 7.42586 	 3.86236
| 34> H 	 -145.674 	 6.6855 	 5.36962
| 35> C 	 -146.558 	 5.79917 	 3.65026
| 36> H 	 -147.412 	 6.49237 	 3.69641
| 37> H 	 -146.684 	 4.87177 	 4.2565
| 38> H 	 -146.257 	 5.56663 	 2.60232
| 39> H 	 -139.037 	 9.01303 	 1.17739
| 40> H 	 -141.585 	 6.0937 	 8.11912
| 41> *
| 42>
| 43>                          ****END OF INPUT****

CARTESIAN COORDINATES (ANGSTROEM)
---------------------------------
  S    -139.545000    7.490690    3.081820
  C    -139.820000    8.416280    1.648220
  C    -141.158000    8.291900    1.204860
  C    -141.943000    7.560980    2.193300
  C    -141.202000    7.112160    3.268050
  H    -143.044000    7.389200    2.178830
  C    -141.735000    8.982230   -0.067805
  H    -142.141000    9.850070    0.445377
  H    -142.453000    8.371590   -0.600174
  C    -140.723000    9.502940   -1.172880
  H    -140.009000   10.241500   -0.853963
  H    -140.085000    8.599170   -1.401100
  C    -141.277000   10.069400   -2.582180
  H    -142.035000   10.822800   -2.387290
  H    -140.617000   10.737800   -3.060020
  H    -141.664000    9.315380   -3.324770
  S    -140.698000    7.006860    5.922840
  C    -141.759000    6.207830    7.045960
  C    -142.957000    5.895110    6.448090
  C    -142.913000    6.117450    5.029790
  C    -141.735000    6.646710    4.559740
  H    -143.673000    5.467210    7.063660
  C    -144.118000    5.613890    4.229830
  H    -144.258000    4.467980    4.362070
  H    -143.846000    5.557340    3.172170
  C    -145.365000    6.524360    4.304550
  H    -145.106000    7.425860    3.862360
  H    -145.674000    6.685500    5.369620
  C    -146.558000    5.799170    3.650260
  H    -147.412000    6.492370    3.696410
  H    -146.684000    4.871770    4.256500
  H    -146.257000    5.566630    2.602320
  H    -139.037000    9.013030    1.177390
  H    -141.585000    6.093700    8.119120

 Total Charge           Charge          ....    0
 Multiplicity           Mult            ....    1
 Number of Electrons    NEL             ....  134
 Basis Dimension        Dim             ....  322

ORBITAL ENERGIES
----------------

  NO   OCC          E(Eh)            E(eV)
   0   2.0000     -88.967644     -2420.9327
   1   2.0000     -88.960922     -2420.7497
   2   2.0000     -10.330187      -281.0987
   3   2.0000     -10.329488      -281.0796
   4   2.0000     -10.316468      -280.7254
   5   2.0000     -10.315536      -280.7000
   6   2.0000     -10.313954      -280.6570
   7   2.0000     -10.303738      -280.3790
   8   2.0000     -10.303467      -280.3716
   9   2.0000     -10.301354      -280.3141
  10   2.0000     -10.300992      -280.3042
  11   2.0000     -10.297199      -280.2010
  12   2.0000     -10.287565      -279.9389
  13   2.0000     -10.286925      -279.9215
  14   2.0000     -10.286142      -279.9002
  15   2.0000     -10.286036      -279.8973
  16   2.0000      -8.083315      -219.9582
  17   2.0000      -8.076172      -219.7638
  18   2.0000      -6.041738      -164.4040
  19   2.0000      -6.037661      -164.2931
  20   2.0000      -6.034807      -164.2154
  21   2.0000      -6.034130      -164.1970
  22   2.0000      -6.030525      -164.0989
  23   2.0000      -6.026830      -163.9984
  24   2.0000      -1.011575       -27.5263
  25   2.0000      -0.985975       -26.8297
  26   2.0000      -0.908366       -24.7179
  27   2.0000      -0.900064       -24.4920
  28   2.0000      -0.866716       -23.5845
  29   2.0000      -0.852468       -23.1968
  30   2.0000      -0.842803       -22.9338
  31   2.0000      -0.815847       -22.2003
  32   2.0000      -0.782313       -21.2878
  33   2.0000      -0.768173       -20.9030
  34   2.0000      -0.710843       -19.3430
  35   2.0000      -0.699630       -19.0379
  36   2.0000      -0.690360       -18.7856
  37   2.0000      -0.666822       -18.1451
  38   2.0000      -0.637910       -17.3584
  39   2.0000      -0.613911       -16.7054
  40   2.0000      -0.593876       -16.1602
  41   2.0000      -0.575373       -15.6567
  42   2.0000      -0.566730       -15.4215
  43   2.0000      -0.561392       -15.2762
  44   2.0000      -0.528336       -14.3767
  45   2.0000      -0.522695       -14.2233
  46   2.0000      -0.515916       -14.0388
  47   2.0000      -0.508556       -13.8385
  48   2.0000      -0.507585       -13.8121
  49   2.0000      -0.499432       -13.5902
  50   2.0000      -0.491029       -13.3616
  51   2.0000      -0.476764       -12.9734
  52   2.0000      -0.472548       -12.8587
  53   2.0000      -0.464449       -12.6383
  54   2.0000      -0.453566       -12.3422
  55   2.0000      -0.451310       -12.2808
  56   2.0000      -0.444944       -12.1075
  57   2.0000      -0.442397       -12.0382
  58   2.0000      -0.435797       -11.8586
  59   2.0000      -0.430690       -11.7197
  60   2.0000      -0.414661       -11.2835
  61   2.0000      -0.411793       -11.2055
  62   2.0000      -0.406127       -11.0513
  63   2.0000      -0.359705        -9.7881
  64   2.0000      -0.330063        -8.9815
  65   2.0000      -0.326357        -8.8806
  66   2.0000      -0.285941        -7.7809
  67   0.0000       0.024299         0.6612
  68   0.0000       0.087391         2.3780
  69   0.0000       0.105783         2.8785
  70   0.0000       0.114631         3.1193
  71   0.0000       0.130233         3.5438

MULLIKEN ATOMIC CHARGES
-----------------------
   0 S :    0.117879
   1 C :   -0.145974
   2 C :   -0.096634
   3 C :   -0.018113
   4 C :   -0.105789
   5 H :    0.023306
   6 C :    0.082559
   7 H :    0.051148
   8 H :    0.043830
   9 C :   -0.130706
  10 H :    0.031621
  11 H :    0.041715
  12 C :   -0.048636
  13 H :    0.020005
  14 H :    0.019939
  15 H :    0.054875
  16 S :    0.080396
  17 C :   -0.095717
  18 C :   -0.005228
  19 C :   -0.039751
  20 C :   -0.094155
  21 H :   -0.004293
  22 C :   -0.030731
  23 H :    0.046292
  24 H :    0.005796
  25 C :   -0.052083
  26 H :    0.018769
  27 H :    0.033932
  28 C :   -0.047914
  29 H :    0.045947
  30 H :    0.042920
  31 H :    0.033545
  32 H :    0.060108
  33 H :    0.061142
Sum of atomic charges:   -0.0000000

LOEWDIN ATOMIC CHARGES
----------------------
   0 S :    0.430884
   1 C :   -0.215028
   2 C :   -0.054521
   3 C :   -0.073079
   4 C :   -0.205452
   5 H :    0.035855
   6 C :   -0.029820
   7 H :    0.040517
   8 H :    0.032903
   9 C :   -0.047691
  10 H :    0.019476
  11 H :    0.029522
  12 C :   -0.074359
  13 H :    0.025854
  14 H :    0.023523
  15 H :    0.033577
  16 S :    0.398904
  17 C :   -0.185197
  18 C :   -0.062300
  19 C :   -0.064674
  20 C :   -0.186215
  21 H :    0.022274
  22 C :   -0.046554
  23 H :    0.040724
  24 H :    0.021226
  25 C :   -0.033943
  26 H :    0.012574
  27 H :    0.026442
  28 C :   -0.063702
  29 H :    0.027949
  30 H :    0.031639
  31 H :    0.025452
  32 H :    0.030262
  33 H :    0.032977

  Mayer bond orders larger than 0.100000
B(  0-S ,  1-C ) :   1.1449 B(  0-S ,  4-C ) :   1.1603 B(  1-C ,  2-C ) :   1.5868
B(  1-C , 32-H ) :   0.9676 B(  2-C ,  3-C ) :   1.2582 B(  2-C ,  6-C ) :   0.9997
B(  3-C ,  4-C ) :   1.5663 B(  3-C ,  5-H ) :   0.9822 B(  4-C , 20-C ) :   1.0476
B(  6-C ,  7-H ) :   0.9361 B(  6-C ,  8-H ) :   0.9522 B(  6-C ,  9-C ) :   1.0611
B(  9-C , 10-H ) :   0.9563 B(  9-C , 11-H ) :   0.9631 B(  9-C , 12-C ) :   1.0723
B( 12-C , 13-H ) :   0.9722 B( 12-C , 14-H ) :   0.9742 B( 12-C , 15-H ) :   0.9786
B( 16-S , 17-C ) :   1.1509 B( 16-S , 20-C ) :   1.1272 B( 17-C , 18-C ) :   1.6251
B( 17-C , 33-H ) :   0.9653 B( 18-C , 19-C ) :   1.2138 B( 18-C , 21-H ) :   1.0059
B( 19-C , 20-C ) :   1.6213 B( 19-C , 22-C ) :   1.0341 B( 22-C , 23-H ) :   0.9469
B( 22-C , 24-H ) :   0.9357 B( 22-C , 25-C ) :   1.0471 B( 25-C , 26-H ) :   0.9516
B( 25-C , 27-H ) :   0.9607 B( 25-C , 28-C ) :   1.0729 B( 28-C , 29-H ) :   0.9743
B( 28-C , 30-H ) :   0.9773 B( 28-C , 31-H ) :   0.9740

Dispersion correction           -0.013333868
FINAL SINGLE POINT ENERGY     -1339.856280939977

DIPOLE MOMENT
-------------
                                X             Y             Z
Electronic contribution:     20.46198      -4.41276      21.27423
Nuclear contribution   :    -20.99836       4.63485     -21.57057
                        -----------------------------------------
Total Dipole Moment    :     -0.53638       0.22209      -0.29633
                        -----------------------------------------
Magnitude (a.u.)       :      0.65180
Magnitude (Debye)      :      1.65674

Rotational constants in cm-1:     0.018933     0.007635     0.005583
Rotational constants in MHz :   567.602996   228.892169   167.381703

                             ****ORCA TERMINATED NORMALLY****
TOTAL RUN TIME: 0 days 0 hours 0 minutes 19 seconds 533 msec
