                         Program Version 4.2.1 -  RELEASE  -
|  1> ! wB97X-D3 SP def2-SVP
|  2> %pal
|  3> nprocs 24
|  4> end
|  5>
|  6> * xyz 0 1
|  7> S 	 -108.208 	 64.6442 	 -14.8518
|  8> C 	 -109.691 	 64.9225 	 -13.9103
|  9> C 	 -109.939 	 63.8927 	 -13.049
| 10> C 	 -109.103 	 62.8129 	 -13.3196
| 11> C 	 -108.053 	 63.0356 	 -14.2056
| 12> H 	 -109.07 	 61.9094 	 -12.7883
| 13> C 	 -111.037 	 63.9643 	 -11.9077
| 14> H 	 -110.906 	 64.8299 	 -11.2742
| 15> H 	 -110.77 	 63.093 	 -11.2841
| 16> C 	 -112.467 	 63.9635 	 -12.4068
| 17> H 	 -112.68 	 64.8646 	 -12.9842
| 18> H 	 -112.536 	 63.108 	 -13.0078
| 19> C 	 -113.445 	 63.7813 	 -11.1938
| 20> H 	 -113.559 	 64.6904 	 -10.532
| 21> H 	 -114.473 	 63.4446 	 -11.5306
| 22> H 	 -112.967 	 62.9419 	 -10.6973
| 23> S 	 -105.258 	 63.0876 	 -14.2452
| 24> C 	 -104.435 	 61.5589 	 -14.3178
| 25> C 	 -105.307 	 60.5112 	 -14.0514
| 26> C 	 -106.712 	 60.8055 	 -14.1889
| 27> C 	 -106.83 	 62.2183 	 -14.3313
| 28> H 	 -104.863 	 59.5517 	 -13.8295
| 29> C 	 -107.835 	 59.8001 	 -13.9378
| 30> H 	 -108.531 	 59.8587 	 -14.7277
| 31> H 	 -108.446 	 60.1716 	 -13.0618
| 32> C 	 -107.369 	 58.3236 	 -13.7508
| 33> H 	 -108.299 	 57.8209 	 -13.4523
| 34> H 	 -106.677 	 58.3046 	 -12.8879
| 35> C 	 -106.819 	 57.5669 	 -14.9363
| 36> H 	 -105.9 	 57.8842 	 -15.275
| 37> H 	 -107.621 	 57.4776 	 -15.6737
| 38> H 	 -106.792 	 56.5412 	 -14.5808
| 39> H 	 -110.268 	 65.8792 	 -13.9172
| 40> H 	 -103.374 	 61.4389 	 -14.167
| 41> *
| 42>
| 43>                          ****END OF INPUT****

CARTESIAN COORDINATES (ANGSTROEM)
---------------------------------
  S    -108.208000   64.644200  -14.851800
  C    -109.691000   64.922500  -13.910300
  C    -109.939000   63.892700  -13.049000
  C    -109.103000   62.812900  -13.319600
  C    -108.053000   63.035600  -14.205600
  H    -109.070000   61.909400  -12.788300
  C    -111.037000   63.964300  -11.907700
  H    -110.906000   64.829900  -11.274200
  H    -110.770000   63.093000  -11.284100
  C    -112.467000   63.963500  -12.406800
  H    -112.680000   64.864600  -12.984200
  H    -112.536000   63.108000  -13.007800
  C    -113.445000   63.781300  -11.193800
  H    -113.559000   64.690400  -10.532000
  H    -114.473000   63.444600  -11.530600
  H    -112.967000   62.941900  -10.697300
  S    -105.258000   63.087600  -14.245200
  C    -104.435000   61.558900  -14.317800
  C    -105.307000   60.511200  -14.051400
  C    -106.712000   60.805500  -14.188900
  C    -106.830000   62.218300  -14.331300
  H    -104.863000   59.551700  -13.829500
  C    -107.835000   59.800100  -13.937800
  H    -108.531000   59.858700  -14.727700
  H    -108.446000   60.171600  -13.061800
  C    -107.369000   58.323600  -13.750800
  H    -108.299000   57.820900  -13.452300
  H    -106.677000   58.304600  -12.887900
  C    -106.819000   57.566900  -14.936300
  H    -105.900000   57.884200  -15.275000
  H    -107.621000   57.477600  -15.673700
  H    -106.792000   56.541200  -14.580800
  H    -110.268000   65.879200  -13.917200
  H    -103.374000   61.438900  -14.167000

 Total Charge           Charge          ....    0
 Multiplicity           Mult            ....    1
 Number of Electrons    NEL             ....  134
 Basis Dimension        Dim             ....  322

ORBITAL ENERGIES
----------------

  NO   OCC          E(Eh)            E(eV)
   0   2.0000     -88.968581     -2420.9582
   1   2.0000     -88.966172     -2420.8926
   2   2.0000     -10.334902      -281.2270
   3   2.0000     -10.328994      -281.0662
   4   2.0000     -10.315528      -280.6998
   5   2.0000     -10.313506      -280.6448
   6   2.0000     -10.310045      -280.5506
   7   2.0000     -10.300066      -280.2790
   8   2.0000     -10.298829      -280.2454
   9   2.0000     -10.297658      -280.2135
  10   2.0000     -10.295318      -280.1498
  11   2.0000     -10.293051      -280.0882
  12   2.0000     -10.289790      -279.9994
  13   2.0000     -10.287441      -279.9355
  14   2.0000     -10.285149      -279.8731
  15   2.0000     -10.274455      -279.5821
  16   2.0000      -8.082596      -219.9386
  17   2.0000      -8.080510      -219.8818
  18   2.0000      -6.041129      -164.3875
  19   2.0000      -6.038979      -164.3290
  20   2.0000      -6.037459      -164.2876
  21   2.0000      -6.035050      -164.2221
  22   2.0000      -6.033103      -164.1691
  23   2.0000      -6.031361      -164.1217
  24   2.0000      -1.003642       -27.3105
  25   2.0000      -0.980223       -26.6732
  26   2.0000      -0.912184       -24.8218
  27   2.0000      -0.910801       -24.7842
  28   2.0000      -0.866583       -23.5809
  29   2.0000      -0.855235       -23.2721
  30   2.0000      -0.841795       -22.9064
  31   2.0000      -0.810071       -22.0432
  32   2.0000      -0.789063       -21.4715
  33   2.0000      -0.771586       -20.9959
  34   2.0000      -0.704227       -19.1630
  35   2.0000      -0.702181       -19.1073
  36   2.0000      -0.693907       -18.8822
  37   2.0000      -0.652859       -17.7652
  38   2.0000      -0.638555       -17.3760
  39   2.0000      -0.621702       -16.9174
  40   2.0000      -0.601144       -16.3580
  41   2.0000      -0.574008       -15.6195
  42   2.0000      -0.562104       -15.2956
  43   2.0000      -0.552296       -15.0287
  44   2.0000      -0.547320       -14.8933
  45   2.0000      -0.519943       -14.1484
  46   2.0000      -0.518288       -14.1033
  47   2.0000      -0.506890       -13.7932
  48   2.0000      -0.502575       -13.6758
  49   2.0000      -0.494666       -13.4606
  50   2.0000      -0.489325       -13.3152
  51   2.0000      -0.479283       -13.0419
  52   2.0000      -0.475024       -12.9261
  53   2.0000      -0.467075       -12.7098
  54   2.0000      -0.461951       -12.5703
  55   2.0000      -0.448948       -12.2165
  56   2.0000      -0.443453       -12.0670
  57   2.0000      -0.440597       -11.9892
  58   2.0000      -0.433070       -11.7844
  59   2.0000      -0.430265       -11.7081
  60   2.0000      -0.426998       -11.6192
  61   2.0000      -0.414785       -11.2869
  62   2.0000      -0.413941       -11.2639
  63   2.0000      -0.349527        -9.5111
  64   2.0000      -0.335508        -9.1296
  65   2.0000      -0.330002        -8.9798
  66   2.0000      -0.280921        -7.6442
  67   0.0000       0.019320         0.5257
  68   0.0000       0.072482         1.9723
  69   0.0000       0.099454         2.7063
  70   0.0000       0.121449         3.3048
  71   0.0000       0.131377         3.5750

MULLIKEN ATOMIC CHARGES
-----------------------
   0 S :    0.101349
   1 C :   -0.145160
   2 C :   -0.068552
   3 C :    0.032440
   4 C :   -0.145258
   5 H :   -0.039384
   6 C :    0.048270
   7 H :    0.031611
   8 H :    0.022665
   9 C :   -0.039500
  10 H :    0.034925
  11 H :    0.020247
  12 C :   -0.083356
  13 H :    0.052266
  14 H :    0.045812
  15 H :    0.027428
  16 S :    0.105961
  17 C :   -0.073611
  18 C :   -0.077330
  19 C :   -0.042840
  20 C :   -0.132684
  21 H :    0.020355
  22 C :    0.061656
  23 H :    0.020167
  24 H :    0.055545
  25 C :   -0.110337
  26 H :    0.026121
  27 H :    0.034184
  28 C :    0.016516
  29 H :    0.030513
  30 H :    0.025104
  31 H :    0.026656
  32 H :    0.062591
  33 H :    0.055632
Sum of atomic charges:    0.0000000

LOEWDIN ATOMIC CHARGES
----------------------
   0 S :    0.398922
   1 C :   -0.192289
   2 C :   -0.066355
   3 C :   -0.066573
   4 C :   -0.197335
   5 H :    0.015582
   6 C :   -0.023703
   7 H :    0.028277
   8 H :    0.028945
   9 C :   -0.035455
  10 H :    0.023251
  11 H :    0.019564
  12 C :   -0.071931
  13 H :    0.031343
  14 H :    0.031399
  15 H :    0.023939
  16 S :    0.395459
  17 C :   -0.198037
  18 C :   -0.068962
  19 C :   -0.054052
  20 C :   -0.178326
  21 H :    0.026827
  22 C :   -0.034176
  23 H :    0.027321
  24 H :    0.039359
  25 C :   -0.042252
  26 H :    0.029702
  27 H :    0.023217
  28 C :   -0.053868
  29 H :    0.012155
  30 H :    0.030609
  31 H :    0.033481
  32 H :    0.035984
  33 H :    0.027978

  Mayer bond orders larger than 0.100000
B(  0-S ,  1-C ) :   1.1414 B(  0-S ,  4-C ) :   1.1566 B(  1-C ,  2-C ) :   1.6000
B(  1-C , 32-H ) :   0.9632 B(  2-C ,  3-C ) :   1.2928 B(  2-C ,  6-C ) :   0.9944
B(  3-C ,  4-C ) :   1.5332 B(  3-C ,  5-H ) :   0.9896 B(  4-C , 20-C ) :   1.0661
B(  6-C ,  7-H ) :   0.9460 B(  6-C ,  8-H ) :   0.9426 B(  6-C ,  9-C ) :   1.0686
B(  9-C , 10-H ) :   0.9567 B(  9-C , 11-H ) :   0.9547 B(  9-C , 12-C ) :   1.0694
B( 12-C , 13-H ) :   0.9768 B( 12-C , 14-H ) :   0.9765 B( 12-C , 15-H ) :   0.9759
B( 16-S , 17-C ) :   1.1401 B( 16-S , 20-C ) :   1.1541 B( 17-C , 18-C ) :   1.6241
B( 17-C , 33-H ) :   0.9619 B( 18-C , 19-C ) :   1.2484 B( 18-C , 21-H ) :   0.9763
B( 19-C , 20-C ) :   1.5669 B( 19-C , 22-C ) :   1.0275 B( 22-C , 23-H ) :   0.9221
B( 22-C , 24-H ) :   0.9253 B( 22-C , 25-C ) :   1.0829 B( 25-C , 26-H ) :   0.9505
B( 25-C , 27-H ) :   0.9492 B( 25-C , 28-C ) :   1.0884 B( 28-C , 29-H ) :   0.9769
B( 28-C , 30-H ) :   0.9676 B( 28-C , 31-H ) :   0.9674

Dispersion correction           -0.013430922
FINAL SINGLE POINT ENERGY     -1339.859608456438

DIPOLE MOMENT
-------------
                                X             Y             Z
Electronic contribution:     20.11877      17.54171     -10.78108
Nuclear contribution   :    -20.50594     -18.07853      11.36726
                        -----------------------------------------
Total Dipole Moment    :     -0.38717      -0.53681       0.58618
                        -----------------------------------------
Magnitude (a.u.)       :      0.88413
Magnitude (Debye)      :      2.24727

Rotational constants in cm-1:     0.019120     0.007610     0.005808
Rotational constants in MHz :   573.203757   228.141904   174.105437

                             ****ORCA TERMINATED NORMALLY****
TOTAL RUN TIME: 0 days 0 hours 0 minutes 20 seconds 971 msec
