                         Program Version 4.2.1 -  RELEASE  -
|  1> ! wB97X-D3 SP def2-SVP
|  2> %pal
|  3> nprocs 24
|  4> end
|  5>
|  6> * xyz 0 1
|  7> S 	 -59.1877 	 11.141 	 -106.806
|  8> C 	 -60.9275 	 11.5656 	 -106.864
|  9> C 	 -61.4673 	 11.75 	 -105.617
| 10> C 	 -60.4382 	 11.7403 	 -104.623
| 11> C 	 -59.1402 	 11.432 	 -105.079
| 12> H 	 -60.5348 	 12.0104 	 -103.588
| 13> C 	 -62.9458 	 12.2303 	 -105.432
| 14> H 	 -62.8295 	 12.6263 	 -104.439
| 15> H 	 -63.6738 	 11.4049 	 -105.503
| 16> C 	 -63.4056 	 13.3683 	 -106.383
| 17> H 	 -62.6283 	 14.1591 	 -106.336
| 18> H 	 -63.3815 	 13.0612 	 -107.418
| 19> C 	 -64.8134 	 13.9297 	 -105.827
| 20> H 	 -64.6301 	 14.2612 	 -104.835
| 21> H 	 -65.2831 	 14.6459 	 -106.459
| 22> H 	 -65.5212 	 13.0942 	 -105.609
| 23> S 	 -56.8364 	 10.0567 	 -104.463
| 24> C 	 -55.6899 	 10.8467 	 -103.366
| 25> C 	 -56.1009 	 12.1258 	 -102.961
| 26> C 	 -57.3304 	 12.4969 	 -103.588
| 27> C 	 -57.8968 	 11.4421 	 -104.299
| 28> H 	 -55.4371 	 12.581 	 -102.284
| 29> C 	 -58.0194 	 13.8188 	 -103.445
| 30> H 	 -58.7732 	 14.0758 	 -104.168
| 31> H 	 -57.2642 	 14.4916 	 -103.636
| 32> C 	 -58.6123 	 14.0211 	 -102.021
| 33> H 	 -57.8019 	 14.0186 	 -101.267
| 34> H 	 -59.2667 	 13.2502 	 -101.726
| 35> C 	 -59.255 	 15.3917 	 -101.778
| 36> H 	 -58.5465 	 16.1444 	 -101.525
| 37> H 	 -59.9642 	 15.2822 	 -101.028
| 38> H 	 -59.8405 	 15.769 	 -102.626
| 39> H 	 -61.5439 	 11.5492 	 -107.797
| 40> H 	 -54.7899 	 10.3452 	 -103.001
| 41> *
| 42>
| 43>                          ****END OF INPUT****

CARTESIAN COORDINATES (ANGSTROEM)
---------------------------------
  S    -59.187700   11.141000  -106.806000
  C    -60.927500   11.565600  -106.864000
  C    -61.467300   11.750000  -105.617000
  C    -60.438200   11.740300  -104.623000
  C    -59.140200   11.432000  -105.079000
  H    -60.534800   12.010400  -103.588000
  C    -62.945800   12.230300  -105.432000
  H    -62.829500   12.626300  -104.439000
  H    -63.673800   11.404900  -105.503000
  C    -63.405600   13.368300  -106.383000
  H    -62.628300   14.159100  -106.336000
  H    -63.381500   13.061200  -107.418000
  C    -64.813400   13.929700  -105.827000
  H    -64.630100   14.261200  -104.835000
  H    -65.283100   14.645900  -106.459000
  H    -65.521200   13.094200  -105.609000
  S    -56.836400   10.056700  -104.463000
  C    -55.689900   10.846700  -103.366000
  C    -56.100900   12.125800  -102.961000
  C    -57.330400   12.496900  -103.588000
  C    -57.896800   11.442100  -104.299000
  H    -55.437100   12.581000  -102.284000
  C    -58.019400   13.818800  -103.445000
  H    -58.773200   14.075800  -104.168000
  H    -57.264200   14.491600  -103.636000
  C    -58.612300   14.021100  -102.021000
  H    -57.801900   14.018600  -101.267000
  H    -59.266700   13.250200  -101.726000
  C    -59.255000   15.391700  -101.778000
  H    -58.546500   16.144400  -101.525000
  H    -59.964200   15.282200  -101.028000
  H    -59.840500   15.769000  -102.626000
  H    -61.543900   11.549200  -107.797000
  H    -54.789900   10.345200  -103.001000

 Total Charge           Charge          ....    0
 Multiplicity           Mult            ....    1
 Number of Electrons    NEL             ....  134
 Basis Dimension        Dim             ....  322

ORBITAL ENERGIES
----------------

  NO   OCC          E(Eh)            E(eV)
   0   2.0000     -88.966740     -2420.9081
   1   2.0000     -88.965509     -2420.8746
   2   2.0000     -10.330180      -281.0985
   3   2.0000     -10.325441      -280.9695
   4   2.0000     -10.322018      -280.8764
   5   2.0000     -10.316672      -280.7309
   6   2.0000     -10.306558      -280.4557
   7   2.0000     -10.302794      -280.3533
   8   2.0000     -10.299044      -280.2512
   9   2.0000     -10.297625      -280.2126
  10   2.0000     -10.296780      -280.1896
  11   2.0000     -10.295837      -280.1640
  12   2.0000     -10.285089      -279.8715
  13   2.0000     -10.284349      -279.8514
  14   2.0000     -10.282764      -279.8082
  15   2.0000     -10.269894      -279.4580
  16   2.0000      -8.081147      -219.8992
  17   2.0000      -8.079462      -219.8533
  18   2.0000      -6.039539      -164.3442
  19   2.0000      -6.037991      -164.3021
  20   2.0000      -6.035768      -164.2416
  21   2.0000      -6.034112      -164.1965
  22   2.0000      -6.031996      -164.1390
  23   2.0000      -6.030216      -164.0905
  24   2.0000      -1.001399       -27.2494
  25   2.0000      -0.978040       -26.6138
  26   2.0000      -0.910285       -24.7701
  27   2.0000      -0.904653       -24.6169
  28   2.0000      -0.863778       -23.5046
  29   2.0000      -0.854841       -23.2614
  30   2.0000      -0.840628       -22.8746
  31   2.0000      -0.811973       -22.0949
  32   2.0000      -0.784399       -21.3446
  33   2.0000      -0.770711       -20.9721
  34   2.0000      -0.711399       -19.3582
  35   2.0000      -0.706782       -19.2325
  36   2.0000      -0.694603       -18.9011
  37   2.0000      -0.663255       -18.0481
  38   2.0000      -0.635286       -17.2870
  39   2.0000      -0.615150       -16.7391
  40   2.0000      -0.596225       -16.2241
  41   2.0000      -0.571136       -15.5414
  42   2.0000      -0.566306       -15.4100
  43   2.0000      -0.560694       -15.2573
  44   2.0000      -0.531418       -14.4606
  45   2.0000      -0.525569       -14.3014
  46   2.0000      -0.521011       -14.1774
  47   2.0000      -0.504816       -13.7368
  48   2.0000      -0.498490       -13.5646
  49   2.0000      -0.492526       -13.4023
  50   2.0000      -0.489976       -13.3329
  51   2.0000      -0.478727       -13.0268
  52   2.0000      -0.473981       -12.8977
  53   2.0000      -0.463776       -12.6200
  54   2.0000      -0.461301       -12.5526
  55   2.0000      -0.450843       -12.2681
  56   2.0000      -0.445046       -12.1103
  57   2.0000      -0.440344       -11.9824
  58   2.0000      -0.436126       -11.8676
  59   2.0000      -0.427816       -11.6415
  60   2.0000      -0.425409       -11.5760
  61   2.0000      -0.416449       -11.3322
  62   2.0000      -0.414494       -11.2790
  63   2.0000      -0.340933        -9.2773
  64   2.0000      -0.333928        -9.0866
  65   2.0000      -0.330116        -8.9829
  66   2.0000      -0.291181        -7.9234
  67   0.0000       0.032289         0.8786
  68   0.0000       0.063110         1.7173
  69   0.0000       0.108001         2.9389
  70   0.0000       0.125960         3.4275
  71   0.0000       0.127825         3.4783

MULLIKEN ATOMIC CHARGES
-----------------------
   0 S :    0.112151
   1 C :   -0.156461
   2 C :   -0.066511
   3 C :    0.018453
   4 C :   -0.147801
   5 H :   -0.001419
   6 C :    0.058206
   7 H :    0.017055
   8 H :    0.051296
   9 C :   -0.097675
  10 H :    0.037140
  11 H :    0.032414
  12 C :   -0.031870
  13 H :    0.020715
  14 H :    0.043480
  15 H :    0.028094
  16 S :    0.107414
  17 C :   -0.111401
  18 C :   -0.019692
  19 C :   -0.018383
  20 C :   -0.174364
  21 H :    0.006048
  22 C :    0.128738
  23 H :    0.028024
  24 H :    0.000849
  25 C :   -0.096887
  26 H :    0.024346
  27 H :    0.022489
  28 C :   -0.005560
  29 H :    0.030488
  30 H :    0.014356
  31 H :    0.018447
  32 H :    0.065335
  33 H :    0.062484
Sum of atomic charges:    0.0000000

LOEWDIN ATOMIC CHARGES
----------------------
   0 S :    0.388110
   1 C :   -0.190220
   2 C :   -0.069461
   3 C :   -0.065903
   4 C :   -0.194276
   5 H :    0.025370
   6 C :   -0.025610
   7 H :    0.027129
   8 H :    0.034495
   9 C :   -0.036539
  10 H :    0.027315
  11 H :    0.017073
  12 C :   -0.060987
  13 H :    0.021926
  14 H :    0.022493
  15 H :    0.029951
  16 S :    0.394753
  17 C :   -0.174032
  18 C :   -0.062974
  19 C :   -0.044610
  20 C :   -0.202015
  21 H :    0.027870
  22 C :   -0.024264
  23 H :    0.030841
  24 H :    0.023179
  25 C :   -0.032650
  26 H :    0.027287
  27 H :    0.014854
  28 C :   -0.059047
  29 H :    0.022284
  30 H :    0.019130
  31 H :    0.023865
  32 H :    0.035362
  33 H :    0.029302

  Mayer bond orders larger than 0.100000
B(  0-S ,  1-C ) :   1.1360 B(  0-S ,  4-C ) :   1.1495 B(  1-C ,  2-C ) :   1.6153
B(  1-C , 32-H ) :   0.9616 B(  2-C ,  3-C ) :   1.2420 B(  2-C ,  6-C ) :   0.9950
B(  3-C ,  4-C ) :   1.5743 B(  3-C ,  5-H ) :   0.9964 B(  4-C , 20-C ) :   1.0410
B(  6-C ,  7-H ) :   0.9509 B(  6-C ,  8-H ) :   0.9375 B(  6-C ,  9-C ) :   1.0670
B(  9-C , 10-H ) :   0.9609 B(  9-C , 11-H ) :   0.9573 B(  9-C , 12-C ) :   1.0597
B( 12-C , 13-H ) :   0.9762 B( 12-C , 14-H ) :   0.9777 B( 12-C , 15-H ) :   0.9763
B( 16-S , 17-C ) :   1.1533 B( 16-S , 20-C ) :   1.1369 B( 17-C , 18-C ) :   1.6224
B( 17-C , 33-H ) :   0.9649 B( 18-C , 19-C ) :   1.2008 B( 18-C , 21-H ) :   1.0038
B( 19-C , 20-C ) :   1.5969 B( 19-C , 22-C ) :   1.0510 B( 22-C , 23-H ) :   0.9301
B( 22-C , 24-H ) :   0.9170 B( 22-C , 25-C ) :   1.0586 B( 25-C , 26-H ) :   0.9547
B( 25-C , 27-H ) :   0.9633 B( 25-C , 28-C ) :   1.0815 B( 28-C , 29-H ) :   0.9783
B( 28-C , 30-H ) :   0.9726 B( 28-C , 31-H ) :   0.9726

Dispersion correction           -0.014102932
FINAL SINGLE POINT ENERGY     -1339.867168456014

DIPOLE MOMENT
-------------
                                X             Y             Z
Electronic contribution:     21.78638     -22.25560      -9.92081
Nuclear contribution   :    -22.06896      22.83463      10.31870
                        -----------------------------------------
Total Dipole Moment    :     -0.28258       0.57902       0.39788
                        -----------------------------------------
Magnitude (a.u.)       :      0.75725
Magnitude (Debye)      :      1.92478

Rotational constants in cm-1:     0.018777     0.008517     0.006207
Rotational constants in MHz :   562.919520   255.326822   186.079372

                             ****ORCA TERMINATED NORMALLY****
TOTAL RUN TIME: 0 days 0 hours 0 minutes 21 seconds 421 msec
