                         Program Version 4.2.1 -  RELEASE  -
|  1> ! wB97X-D3 SP def2-SVP
|  2> %pal
|  3> nprocs 24
|  4> end
|  5>
|  6> * xyz 0 1
|  7> S 	 -136.724 	 5.63014 	 0.0967353
|  8> C 	 -136.482 	 5.71751 	 1.88999
|  9> C 	 -136.683 	 6.98253 	 2.38167
| 10> C 	 -136.943 	 7.97688 	 1.37813
| 11> C 	 -136.792 	 7.42299 	 0.117932
| 12> H 	 -136.969 	 9.02168 	 1.51191
| 13> C 	 -136.51 	 7.39444 	 3.85152
| 14> H 	 -136.712 	 8.49625 	 3.84577
| 15> H 	 -135.462 	 7.27813 	 4.18284
| 16> C 	 -137.541 	 6.91051 	 4.91019
| 17> H 	 -137.022 	 7.10197 	 5.852
| 18> H 	 -138.443 	 7.49792 	 4.99261
| 19> C 	 -137.978 	 5.45262 	 4.72105
| 20> H 	 -137.021 	 4.91337 	 4.85659
| 21> H 	 -138.587 	 5.21588 	 5.54763
| 22> H 	 -138.451 	 5.24879 	 3.79765
| 23> S 	 -135.138 	 7.77318 	 -2.0686
| 24> C 	 -135.355 	 9.16684 	 -3.10826
| 25> C 	 -136.395 	 9.94662 	 -2.67349
| 26> C 	 -137.158 	 9.3689 	 -1.5709
| 27> C 	 -136.502 	 8.22148 	 -1.09791
| 28> H 	 -136.51 	 10.9964 	 -3.00636
| 29> C 	 -138.304 	 10.0103 	 -0.824775
| 30> H 	 -137.872 	 10.621 	 -0.031123
| 31> H 	 -138.832 	 9.22722 	 -0.326996
| 32> C 	 -139.299 	 10.9078 	 -1.5375
| 33> H 	 -139.687 	 10.3448 	 -2.38089
| 34> H 	 -138.754 	 11.8299 	 -1.76716
| 35> C 	 -140.475 	 11.2358 	 -0.592358
| 36> H 	 -141.01 	 10.3628 	 -0.315951
| 37> H 	 -141.333 	 11.7738 	 -1.04705
| 38> H 	 -140.128 	 11.8346 	 0.294945
| 39> H 	 -136.296 	 4.90771 	 2.55554
| 40> H 	 -134.583 	 9.49522 	 -3.75275
| 41> *
| 42>
| 43>                          ****END OF INPUT****

CARTESIAN COORDINATES (ANGSTROEM)
---------------------------------
  S    -136.724000    5.630140    0.096735
  C    -136.482000    5.717510    1.889990
  C    -136.683000    6.982530    2.381670
  C    -136.943000    7.976880    1.378130
  C    -136.792000    7.422990    0.117932
  H    -136.969000    9.021680    1.511910
  C    -136.510000    7.394440    3.851520
  H    -136.712000    8.496250    3.845770
  H    -135.462000    7.278130    4.182840
  C    -137.541000    6.910510    4.910190
  H    -137.022000    7.101970    5.852000
  H    -138.443000    7.497920    4.992610
  C    -137.978000    5.452620    4.721050
  H    -137.021000    4.913370    4.856590
  H    -138.587000    5.215880    5.547630
  H    -138.451000    5.248790    3.797650
  S    -135.138000    7.773180   -2.068600
  C    -135.355000    9.166840   -3.108260
  C    -136.395000    9.946620   -2.673490
  C    -137.158000    9.368900   -1.570900
  C    -136.502000    8.221480   -1.097910
  H    -136.510000   10.996400   -3.006360
  C    -138.304000   10.010300   -0.824775
  H    -137.872000   10.621000   -0.031123
  H    -138.832000    9.227220   -0.326996
  C    -139.299000   10.907800   -1.537500
  H    -139.687000   10.344800   -2.380890
  H    -138.754000   11.829900   -1.767160
  C    -140.475000   11.235800   -0.592358
  H    -141.010000   10.362800   -0.315951
  H    -141.333000   11.773800   -1.047050
  H    -140.128000   11.834600    0.294945
  H    -136.296000    4.907710    2.555540
  H    -134.583000    9.495220   -3.752750

 Total Charge           Charge          ....    0
 Multiplicity           Mult            ....    1
 Number of Electrons    NEL             ....  134
 Basis Dimension        Dim             ....  322

ORBITAL ENERGIES
----------------

  NO   OCC          E(Eh)            E(eV)
   0   2.0000     -88.969628     -2420.9867
   1   2.0000     -88.964411     -2420.8447
   2   2.0000     -10.335155      -281.2339
   3   2.0000     -10.326186      -280.9898
   4   2.0000     -10.313306      -280.6393
   5   2.0000     -10.312676      -280.6222
   6   2.0000     -10.304870      -280.4098
   7   2.0000     -10.302201      -280.3371
   8   2.0000     -10.298599      -280.2391
   9   2.0000     -10.297336      -280.2048
  10   2.0000     -10.294658      -280.1319
  11   2.0000     -10.288455      -279.9631
  12   2.0000     -10.286517      -279.9104
  13   2.0000     -10.286005      -279.8964
  14   2.0000     -10.282180      -279.7923
  15   2.0000     -10.270605      -279.4774
  16   2.0000      -8.082638      -219.9398
  17   2.0000      -8.079390      -219.8514
  18   2.0000      -6.041328      -164.3929
  19   2.0000      -6.037865      -164.2986
  20   2.0000      -6.037694      -164.2940
  21   2.0000      -6.033862      -164.1897
  22   2.0000      -6.033012      -164.1666
  23   2.0000      -6.030162      -164.0891
  24   2.0000      -1.001591       -27.2547
  25   2.0000      -0.977356       -26.5952
  26   2.0000      -0.913665       -24.8621
  27   2.0000      -0.906949       -24.6793
  28   2.0000      -0.864505       -23.5244
  29   2.0000      -0.852514       -23.1981
  30   2.0000      -0.843851       -22.9623
  31   2.0000      -0.812246       -22.1023
  32   2.0000      -0.784735       -21.3537
  33   2.0000      -0.774371       -21.0717
  34   2.0000      -0.705634       -19.2013
  35   2.0000      -0.698925       -19.0187
  36   2.0000      -0.695915       -18.9368
  37   2.0000      -0.650298       -17.6955
  38   2.0000      -0.638417       -17.3722
  39   2.0000      -0.615230       -16.7413
  40   2.0000      -0.596516       -16.2320
  41   2.0000      -0.582899       -15.8615
  42   2.0000      -0.565484       -15.3876
  43   2.0000      -0.552278       -15.0283
  44   2.0000      -0.540516       -14.7082
  45   2.0000      -0.519617       -14.1395
  46   2.0000      -0.516492       -14.0545
  47   2.0000      -0.514693       -14.0055
  48   2.0000      -0.501567       -13.6483
  49   2.0000      -0.493765       -13.4360
  50   2.0000      -0.490829       -13.3561
  51   2.0000      -0.479226       -13.0404
  52   2.0000      -0.473943       -12.8966
  53   2.0000      -0.466545       -12.6953
  54   2.0000      -0.455480       -12.3943
  55   2.0000      -0.453213       -12.3325
  56   2.0000      -0.448919       -12.2157
  57   2.0000      -0.436625       -11.8812
  58   2.0000      -0.433699       -11.8015
  59   2.0000      -0.423733       -11.5304
  60   2.0000      -0.421481       -11.4691
  61   2.0000      -0.417371       -11.3572
  62   2.0000      -0.401328       -10.9207
  63   2.0000      -0.348080        -9.4717
  64   2.0000      -0.332366        -9.0441
  65   2.0000      -0.326626        -8.8879
  66   2.0000      -0.288917        -7.8618
  67   0.0000       0.024741         0.6732
  68   0.0000       0.068654         1.8682
  69   0.0000       0.102090         2.7780
  70   0.0000       0.117389         3.1943
  71   0.0000       0.126925         3.4538

MULLIKEN ATOMIC CHARGES
-----------------------
   0 S :    0.103880
   1 C :   -0.108528
   2 C :   -0.082678
   3 C :    0.045837
   4 C :   -0.151247
   5 H :    0.004535
   6 C :    0.020518
   7 H :    0.024359
   8 H :    0.056541
   9 C :   -0.078003
  10 H :    0.026845
  11 H :    0.024699
  12 C :   -0.036890
  13 H :    0.026136
  14 H :    0.024205
  15 H :    0.053736
  16 S :    0.107565
  17 C :   -0.082395
  18 C :   -0.045412
  19 C :   -0.036462
  20 C :   -0.150985
  21 H :    0.036351
  22 C :    0.012900
  23 H :    0.034419
  24 H :    0.021652
  25 C :   -0.038272
  26 H :    0.036411
  27 H :    0.034369
  28 C :   -0.064142
  29 H :    0.021801
  30 H :    0.033476
  31 H :    0.039658
  32 H :    0.033284
  33 H :    0.051838
Sum of atomic charges:   -0.0000000

LOEWDIN ATOMIC CHARGES
----------------------
   0 S :    0.357390
   1 C :   -0.174415
   2 C :   -0.060642
   3 C :   -0.052724
   4 C :   -0.165156
   5 H :    0.026106
   6 C :   -0.039989
   7 H :    0.036950
   8 H :    0.036948
   9 C :   -0.039133
  10 H :    0.026360
  11 H :    0.018486
  12 C :   -0.059564
  13 H :    0.026494
  14 H :    0.020835
  15 H :    0.022283
  16 S :    0.412149
  17 C :   -0.186513
  18 C :   -0.070846
  19 C :   -0.059064
  20 C :   -0.202635
  21 H :    0.036632
  22 C :   -0.039255
  23 H :    0.030596
  24 H :    0.027305
  25 C :   -0.035911
  26 H :    0.027632
  27 H :    0.025364
  28 C :   -0.070536
  29 H :    0.020247
  30 H :    0.030252
  31 H :    0.030358
  32 H :    0.020950
  33 H :    0.023044

  Mayer bond orders larger than 0.100000
B(  0-S ,  1-C ) :   1.0922 B(  0-S ,  4-C ) :   1.1363 B(  1-C ,  2-C ) :   1.6612
B(  1-C , 32-H ) :   0.9690 B(  2-C ,  3-C ) :   1.2102 B(  2-C ,  6-C ) :   1.0115
B(  3-C ,  4-C ) :   1.5928 B(  3-C ,  5-H ) :   0.9907 B(  4-C , 20-C ) :   1.0407
B(  6-C ,  7-H ) :   0.9427 B(  6-C ,  8-H ) :   0.9504 B(  6-C ,  9-C ) :   1.0579
B(  9-C , 10-H ) :   0.9551 B(  9-C , 11-H ) :   0.9597 B(  9-C , 12-C ) :   1.0934
B( 12-C , 13-H ) :   0.9746 B( 12-C , 14-H ) :   0.9704 B( 12-C , 15-H ) :   0.9681
B( 16-S , 17-C ) :   1.1452 B( 16-S , 20-C ) :   1.1525 B( 17-C , 18-C ) :   1.6256
B( 17-C , 33-H ) :   0.9689 B( 18-C , 19-C ) :   1.2285 B( 18-C , 21-H ) :   0.9792
B( 19-C , 20-C ) :   1.5862 B( 19-C , 22-C ) :   1.0544 B( 22-C , 23-H ) :   0.9273
B( 22-C , 24-H ) :   0.9277 B( 22-C , 25-C ) :   1.0676 B( 25-C , 26-H ) :   0.9571
B( 25-C , 27-H ) :   0.9481 B( 25-C , 28-C ) :   1.0915 B( 28-C , 29-H ) :   0.9724
B( 28-C , 30-H ) :   0.9730 B( 28-C , 31-H ) :   0.9736

Dispersion correction           -0.013857741
FINAL SINGLE POINT ENERGY     -1339.863338416952

DIPOLE MOMENT
-------------
                                X             Y             Z
Electronic contribution:     16.35045     -11.84525     -18.97721
Nuclear contribution   :    -16.48532      12.45478      19.56772
                        -----------------------------------------
Total Dipole Moment    :     -0.13487       0.60953       0.59051
                        -----------------------------------------
Magnitude (a.u.)       :      0.85932
Magnitude (Debye)      :      2.18421

Rotational constants in cm-1:     0.018112     0.008419     0.006340
Rotational constants in MHz :   542.996015   252.403714   190.071857

                             ****ORCA TERMINATED NORMALLY****
TOTAL RUN TIME: 0 days 0 hours 0 minutes 21 seconds 322 msec
