                         Program Version 4.2.1 -  RELEASE  -
|  1> ! wB97X-D3 SP def2-SVP
|  2> %pal
|  3> nprocs 24
|  4> end
|  5>
|  6> * xyz 0 1
|  7> S 	 -35.0946 	 8.46628 	 1.332
|  8> C 	 -36.503 	 8.11116 	 2.26783
|  9> C 	 -36.1731 	 7.39214 	 3.4201
| 10> C 	 -34.77 	 7.02974 	 3.46095
| 11> C 	 -34.0539 	 7.65566 	 2.46246
| 12> H 	 -34.3066 	 6.33037 	 4.20053
| 13> C 	 -37.1257 	 6.8404 	 4.48538
| 14> H 	 -36.8885 	 5.75598 	 4.6429
| 15> H 	 -38.0626 	 6.89324 	 3.97025
| 16> C 	 -37.1622 	 7.52511 	 5.8779
| 17> H 	 -37.1902 	 8.68163 	 5.70839
| 18> H 	 -38.0836 	 7.19248 	 6.34152
| 19> C 	 -35.9853 	 7.16447 	 6.80675
| 20> H 	 -35.9333 	 6.06795 	 6.99264
| 21> H 	 -35.1061 	 7.48956 	 6.28542
| 22> H 	 -36.08 	 7.74375 	 7.68123
| 23> S 	 -31.9648 	 6.53803 	 1.06493
| 24> C 	 -30.3166 	 6.86436 	 1.55122
| 25> C 	 -30.2204 	 7.93596 	 2.46666
| 26> C 	 -31.5588 	 8.31812 	 2.91279
| 27> C 	 -32.5893 	 7.62031 	 2.26979
| 28> H 	 -29.2958 	 8.28852 	 2.79717
| 29> C 	 -31.8562 	 9.26986 	 4.08844
| 30> H 	 -32.9392 	 9.36912 	 4.35714
| 31> H 	 -31.4073 	 10.1711 	 3.78127
| 32> C 	 -31.2567 	 8.85914 	 5.42553
| 33> H 	 -31.5923 	 9.64471 	 6.10399
| 34> H 	 -30.1524 	 8.65732 	 5.35335
| 35> C 	 -31.8386 	 7.52043 	 5.85595
| 36> H 	 -31.2889 	 6.77546 	 5.30175
| 37> H 	 -32.9233 	 7.4199 	 5.62825
| 38> H 	 -31.6925 	 7.35802 	 6.93312
| 39> H 	 -37.5805 	 8.34336 	 1.98114
| 40> H 	 -29.4776 	 6.42435 	 1.04069
| 41> *
| 42>
| 43>                          ****END OF INPUT****

CARTESIAN COORDINATES (ANGSTROEM)
---------------------------------
  S    -35.094600    8.466280    1.332000
  C    -36.503000    8.111160    2.267830
  C    -36.173100    7.392140    3.420100
  C    -34.770000    7.029740    3.460950
  C    -34.053900    7.655660    2.462460
  H    -34.306600    6.330370    4.200530
  C    -37.125700    6.840400    4.485380
  H    -36.888500    5.755980    4.642900
  H    -38.062600    6.893240    3.970250
  C    -37.162200    7.525110    5.877900
  H    -37.190200    8.681630    5.708390
  H    -38.083600    7.192480    6.341520
  C    -35.985300    7.164470    6.806750
  H    -35.933300    6.067950    6.992640
  H    -35.106100    7.489560    6.285420
  H    -36.080000    7.743750    7.681230
  S    -31.964800    6.538030    1.064930
  C    -30.316600    6.864360    1.551220
  C    -30.220400    7.935960    2.466660
  C    -31.558800    8.318120    2.912790
  C    -32.589300    7.620310    2.269790
  H    -29.295800    8.288520    2.797170
  C    -31.856200    9.269860    4.088440
  H    -32.939200    9.369120    4.357140
  H    -31.407300   10.171100    3.781270
  C    -31.256700    8.859140    5.425530
  H    -31.592300    9.644710    6.103990
  H    -30.152400    8.657320    5.353350
  C    -31.838600    7.520430    5.855950
  H    -31.288900    6.775460    5.301750
  H    -32.923300    7.419900    5.628250
  H    -31.692500    7.358020    6.933120
  H    -37.580500    8.343360    1.981140
  H    -29.477600    6.424350    1.040690

 Total Charge           Charge          ....    0
 Multiplicity           Mult            ....    1
 Number of Electrons    NEL             ....  134
 Basis Dimension        Dim             ....  322

ORBITAL ENERGIES
----------------

  NO   OCC          E(Eh)            E(eV)
   0   2.0000     -88.968111     -2420.9454
   1   2.0000     -88.965452     -2420.8730
   2   2.0000     -10.328454      -281.0515
   3   2.0000     -10.324236      -280.9367
   4   2.0000     -10.322132      -280.8795
   5   2.0000     -10.320223      -280.8275
   6   2.0000     -10.309655      -280.5400
   7   2.0000     -10.303280      -280.3665
   8   2.0000     -10.301258      -280.3115
   9   2.0000     -10.298048      -280.2241
  10   2.0000     -10.295101      -280.1439
  11   2.0000     -10.293467      -280.0995
  12   2.0000     -10.287017      -279.9240
  13   2.0000     -10.285021      -279.8696
  14   2.0000     -10.276868      -279.6478
  15   2.0000     -10.272061      -279.5170
  16   2.0000      -8.083199      -219.9550
  17   2.0000      -8.080467      -219.8807
  18   2.0000      -6.041717      -164.4035
  19   2.0000      -6.038897      -164.3267
  20   2.0000      -6.037553      -164.2902
  21   2.0000      -6.034856      -164.2168
  22   2.0000      -6.034033      -164.1944
  23   2.0000      -6.031388      -164.1224
  24   2.0000      -1.004848       -27.3433
  25   2.0000      -0.981966       -26.7206
  26   2.0000      -0.912172       -24.8215
  27   2.0000      -0.906418       -24.6649
  28   2.0000      -0.865829       -23.5604
  29   2.0000      -0.846801       -23.0426
  30   2.0000      -0.843738       -22.9593
  31   2.0000      -0.814473       -22.1629
  32   2.0000      -0.782033       -21.2802
  33   2.0000      -0.770750       -20.9732
  34   2.0000      -0.697452       -18.9786
  35   2.0000      -0.693090       -18.8599
  36   2.0000      -0.686191       -18.6722
  37   2.0000      -0.658235       -17.9115
  38   2.0000      -0.637222       -17.3397
  39   2.0000      -0.614636       -16.7251
  40   2.0000      -0.597864       -16.2687
  41   2.0000      -0.571441       -15.5497
  42   2.0000      -0.558834       -15.2066
  43   2.0000      -0.549898       -14.9635
  44   2.0000      -0.548208       -14.9175
  45   2.0000      -0.539058       -14.6685
  46   2.0000      -0.516691       -14.0599
  47   2.0000      -0.511972       -13.9315
  48   2.0000      -0.499426       -13.5901
  49   2.0000      -0.490019       -13.3341
  50   2.0000      -0.487223       -13.2580
  51   2.0000      -0.480194       -13.0667
  52   2.0000      -0.467211       -12.7135
  53   2.0000      -0.461710       -12.5638
  54   2.0000      -0.460526       -12.5316
  55   2.0000      -0.446799       -12.1580
  56   2.0000      -0.445000       -12.1091
  57   2.0000      -0.435878       -11.8608
  58   2.0000      -0.431582       -11.7439
  59   2.0000      -0.424583       -11.5535
  60   2.0000      -0.422107       -11.4861
  61   2.0000      -0.412386       -11.2216
  62   2.0000      -0.409221       -11.1355
  63   2.0000      -0.337297        -9.1783
  64   2.0000      -0.327768        -8.9190
  65   2.0000      -0.320772        -8.7287
  66   2.0000      -0.308529        -8.3955
  67   0.0000       0.044722         1.2170
  68   0.0000       0.055443         1.5087
  69   0.0000       0.112948         3.0735
  70   0.0000       0.119001         3.2382
  71   0.0000       0.129323         3.5191

MULLIKEN ATOMIC CHARGES
-----------------------
   0 S :    0.130924
   1 C :   -0.143030
   2 C :   -0.116809
   3 C :    0.024222
   4 C :   -0.169678
   5 H :    0.045823
   6 C :    0.056470
   7 H :    0.033908
   8 H :    0.010567
   9 C :   -0.094128
  10 H :    0.043651
  11 H :    0.032626
  12 C :   -0.021165
  13 H :    0.039177
  14 H :    0.019560
  15 H :    0.031514
  16 S :    0.117663
  17 C :   -0.098175
  18 C :   -0.013166
  19 C :   -0.035297
  20 C :   -0.190280
  21 H :    0.002620
  22 C :    0.080867
  23 H :    0.046002
  24 H :    0.018873
  25 C :   -0.095598
  26 H :    0.037324
  27 H :    0.038285
  28 C :   -0.050905
  29 H :    0.034681
  30 H :    0.015004
  31 H :    0.035438
  32 H :    0.073276
  33 H :    0.059753
Sum of atomic charges:    0.0000000

LOEWDIN ATOMIC CHARGES
----------------------
   0 S :    0.426064
   1 C :   -0.222118
   2 C :   -0.068452
   3 C :   -0.066238
   4 C :   -0.205571
   5 H :    0.041110
   6 C :   -0.037099
   7 H :    0.035168
   8 H :    0.025078
   9 C :   -0.041494
  10 H :    0.034663
  11 H :    0.021003
  12 C :   -0.061132
  13 H :    0.029914
  14 H :    0.019338
  15 H :    0.023109
  16 S :    0.416329
  17 C :   -0.178752
  18 C :   -0.063716
  19 C :   -0.046285
  20 C :   -0.218411
  21 H :    0.021785
  22 C :   -0.029770
  23 H :    0.039406
  24 H :    0.023769
  25 C :   -0.043495
  26 H :    0.025813
  27 H :    0.027044
  28 C :   -0.068231
  29 H :    0.025562
  30 H :    0.019322
  31 H :    0.026123
  32 H :    0.044821
  33 H :    0.025343

  Mayer bond orders larger than 0.100000
B(  0-S ,  1-C ) :   1.1440 B(  0-S ,  4-C ) :   1.1683 B(  1-C ,  2-C ) :   1.6158
B(  1-C , 32-H ) :   0.9555 B(  2-C ,  3-C ) :   1.2345 B(  2-C ,  6-C ) :   1.0220
B(  3-C ,  4-C ) :   1.5893 B(  3-C ,  5-H ) :   0.9768 B(  4-C , 20-C ) :   0.9938
B(  6-C ,  7-H ) :   0.9434 B(  6-C ,  8-H ) :   0.9380 B(  6-C ,  9-C ) :   1.0587
B(  9-C , 10-H ) :   0.9540 B(  9-C , 11-H ) :   0.9563 B(  9-C , 12-C ) :   1.0805
B( 12-C , 13-H ) :   0.9724 B( 12-C , 14-H ) :   0.9750 B( 12-C , 15-H ) :   0.9673
B( 16-S , 17-C ) :   1.1755 B( 16-S , 20-C ) :   1.1522 B( 17-C , 18-C ) :   1.5900
B( 17-C , 33-H ) :   0.9685 B( 18-C , 19-C ) :   1.2265 B( 18-C , 21-H ) :   1.0026
B( 19-C , 20-C ) :   1.6056 B( 19-C , 22-C ) :   1.0330 B( 22-C , 23-H ) :   0.9416
B( 22-C , 24-H ) :   0.9258 B( 22-C , 25-C ) :   1.0784 B( 25-C , 26-H ) :   0.9559
B( 25-C , 27-H ) :   0.9555 B( 25-C , 28-C ) :   1.0725 B( 28-C , 29-H ) :   0.9684
B( 28-C , 30-H ) :   0.9685 B( 28-C , 31-H ) :   0.9712

Dispersion correction           -0.016344646
FINAL SINGLE POINT ENERGY     -1339.881242102043

DIPOLE MOMENT
-------------
                                X             Y             Z
Electronic contribution:      4.02640      -0.63096     -28.72256
Nuclear contribution   :     -4.01876       0.62224      29.25722
                        -----------------------------------------
Total Dipole Moment    :      0.00764      -0.00871       0.53467
                        -----------------------------------------
Magnitude (a.u.)       :      0.53479
Magnitude (Debye)      :      1.35933

Rotational constants in cm-1:     0.018738     0.010245     0.007615
Rotational constants in MHz :   561.742727   307.132801   228.279485

                             ****ORCA TERMINATED NORMALLY****
TOTAL RUN TIME: 0 days 0 hours 0 minutes 21 seconds 974 msec
