                         Program Version 4.2.1 -  RELEASE  -
|  1> ! wB97X-D3 SP def2-SVP
|  2> %pal
|  3> nprocs 24
|  4> end
|  5>
|  6> * xyz 0 1
|  7> S 	 -64.5328 	 15.1513 	 -124.244
|  8> C 	 -63.0258 	 14.5559 	 -124.79
|  9> C 	 -62.7617 	 13.2708 	 -124.329
| 10> C 	 -63.612 	 12.9156 	 -123.264
| 11> C 	 -64.66 	 13.7876 	 -123.087
| 12> H 	 -63.6381 	 12.0559 	 -122.693
| 13> C 	 -61.6751 	 12.3954 	 -124.931
| 14> H 	 -60.819 	 13.0141 	 -125.221
| 15> H 	 -61.931 	 11.8115 	 -125.843
| 16> C 	 -60.9883 	 11.4263 	 -123.899
| 17> H 	 -60.8091 	 12.048 	 -122.948
| 18> H 	 -61.6666 	 10.5191 	 -123.834
| 19> C 	 -59.5841 	 10.9723 	 -124.389
| 20> H 	 -58.9967 	 11.9025 	 -124.423
| 21> H 	 -59.0924 	 10.3209 	 -123.726
| 22> H 	 -59.5297 	 10.5808 	 -125.505
| 23> S 	 -67.2957 	 14.297 	 -122.446
| 24> C 	 -67.7064 	 14.3567 	 -120.704
| 25> C 	 -66.7047 	 13.9659 	 -119.955
| 26> C 	 -65.5284 	 13.5884 	 -120.634
| 27> C 	 -65.6386 	 13.7541 	 -121.999
| 28> H 	 -66.885 	 14.0734 	 -118.882
| 29> C 	 -64.3046 	 13.0964 	 -119.837
| 30> H 	 -63.7997 	 12.3829 	 -120.454
| 31> H 	 -64.6446 	 12.435 	 -119.082
| 32> C 	 -63.4732 	 14.2456 	 -119.301
| 33> H 	 -63.9244 	 14.899 	 -118.55
| 34> H 	 -63.2208 	 14.9157 	 -120.061
| 35> C 	 -62.2688 	 13.7647 	 -118.507
| 36> H 	 -61.5924 	 13.0723 	 -118.946
| 37> H 	 -62.6111 	 13.1762 	 -117.679
| 38> H 	 -61.5555 	 14.4646 	 -118.129
| 39> H 	 -62.4754 	 14.9288 	 -125.625
| 40> H 	 -68.6084 	 14.6546 	 -120.168
| 41> *
| 42>
| 43>                          ****END OF INPUT****

CARTESIAN COORDINATES (ANGSTROEM)
---------------------------------
  S    -64.532800   15.151300  -124.244000
  C    -63.025800   14.555900  -124.790000
  C    -62.761700   13.270800  -124.329000
  C    -63.612000   12.915600  -123.264000
  C    -64.660000   13.787600  -123.087000
  H    -63.638100   12.055900  -122.693000
  C    -61.675100   12.395400  -124.931000
  H    -60.819000   13.014100  -125.221000
  H    -61.931000   11.811500  -125.843000
  C    -60.988300   11.426300  -123.899000
  H    -60.809100   12.048000  -122.948000
  H    -61.666600   10.519100  -123.834000
  C    -59.584100   10.972300  -124.389000
  H    -58.996700   11.902500  -124.423000
  H    -59.092400   10.320900  -123.726000
  H    -59.529700   10.580800  -125.505000
  S    -67.295700   14.297000  -122.446000
  C    -67.706400   14.356700  -120.704000
  C    -66.704700   13.965900  -119.955000
  C    -65.528400   13.588400  -120.634000
  C    -65.638600   13.754100  -121.999000
  H    -66.885000   14.073400  -118.882000
  C    -64.304600   13.096400  -119.837000
  H    -63.799700   12.382900  -120.454000
  H    -64.644600   12.435000  -119.082000
  C    -63.473200   14.245600  -119.301000
  H    -63.924400   14.899000  -118.550000
  H    -63.220800   14.915700  -120.061000
  C    -62.268800   13.764700  -118.507000
  H    -61.592400   13.072300  -118.946000
  H    -62.611100   13.176200  -117.679000
  H    -61.555500   14.464600  -118.129000
  H    -62.475400   14.928800  -125.625000
  H    -68.608400   14.654600  -120.168000

 Total Charge           Charge          ....    0
 Multiplicity           Mult            ....    1
 Number of Electrons    NEL             ....  134
 Basis Dimension        Dim             ....  322

ORBITAL ENERGIES
----------------

  NO   OCC          E(Eh)            E(eV)
   0   2.0000     -88.968583     -2420.9582
   1   2.0000     -88.962606     -2420.7956
   2   2.0000     -10.330984      -281.1204
   3   2.0000     -10.330717      -281.1131
   4   2.0000     -10.310325      -280.5582
   5   2.0000     -10.309520      -280.5363
   6   2.0000     -10.303249      -280.3657
   7   2.0000     -10.302020      -280.3322
   8   2.0000     -10.301362      -280.3143
   9   2.0000     -10.296792      -280.1900
  10   2.0000     -10.290346      -280.0146
  11   2.0000     -10.287991      -279.9505
  12   2.0000     -10.287767      -279.9444
  13   2.0000     -10.283140      -279.8185
  14   2.0000     -10.282106      -279.7903
  15   2.0000     -10.267042      -279.3804
  16   2.0000      -8.083106      -219.9525
  17   2.0000      -8.076232      -219.7654
  18   2.0000      -6.041558      -164.3992
  19   2.0000      -6.037696      -164.2941
  20   2.0000      -6.035003      -164.2208
  21   2.0000      -6.033868      -164.1899
  22   2.0000      -6.031086      -164.1142
  23   2.0000      -6.026591      -163.9919
  24   2.0000      -1.006469       -27.3874
  25   2.0000      -0.986160       -26.8348
  26   2.0000      -0.911797       -24.8113
  27   2.0000      -0.905954       -24.6523
  28   2.0000      -0.874247       -23.7895
  29   2.0000      -0.853217       -23.2172
  30   2.0000      -0.845772       -23.0146
  31   2.0000      -0.821825       -22.3630
  32   2.0000      -0.783004       -21.3066
  33   2.0000      -0.770000       -20.9528
  34   2.0000      -0.717648       -19.5282
  35   2.0000      -0.707036       -19.2394
  36   2.0000      -0.683803       -18.6072
  37   2.0000      -0.656549       -17.8656
  38   2.0000      -0.645512       -17.5653
  39   2.0000      -0.623829       -16.9752
  40   2.0000      -0.594813       -16.1857
  41   2.0000      -0.573560       -15.6074
  42   2.0000      -0.566464       -15.4143
  43   2.0000      -0.561407       -15.2767
  44   2.0000      -0.535061       -14.5597
  45   2.0000      -0.523786       -14.2529
  46   2.0000      -0.509929       -13.8759
  47   2.0000      -0.506611       -13.7856
  48   2.0000      -0.504181       -13.7195
  49   2.0000      -0.498656       -13.5691
  50   2.0000      -0.492858       -13.4113
  51   2.0000      -0.484411       -13.1815
  52   2.0000      -0.471809       -12.8386
  53   2.0000      -0.465942       -12.6789
  54   2.0000      -0.458487       -12.4761
  55   2.0000      -0.447380       -12.1738
  56   2.0000      -0.443082       -12.0569
  57   2.0000      -0.439573       -11.9614
  58   2.0000      -0.428566       -11.6619
  59   2.0000      -0.427345       -11.6286
  60   2.0000      -0.419599       -11.4179
  61   2.0000      -0.413696       -11.2572
  62   2.0000      -0.411391       -11.1945
  63   2.0000      -0.356049        -9.6886
  64   2.0000      -0.335591        -9.1319
  65   2.0000      -0.330913        -9.0046
  66   2.0000      -0.287069        -7.8115
  67   0.0000       0.026783         0.7288
  68   0.0000       0.067151         1.8273
  69   0.0000       0.108060         2.9405
  70   0.0000       0.126101         3.4314
  71   0.0000       0.132417         3.6033

MULLIKEN ATOMIC CHARGES
-----------------------
   0 S :    0.123512
   1 C :   -0.098125
   2 C :   -0.070599
   3 C :    0.021674
   4 C :   -0.106812
   5 H :   -0.010450
   6 C :    0.044584
   7 H :    0.015310
   8 H :    0.052873
   9 C :   -0.148625
  10 H :    0.056645
  11 H :    0.051995
  12 C :   -0.061529
  13 H :    0.027216
  14 H :    0.035992
  15 H :    0.045432
  16 S :    0.075963
  17 C :   -0.070696
  18 C :   -0.046667
  19 C :   -0.041432
  20 C :   -0.176555
  21 H :    0.020909
  22 C :    0.124110
  23 H :   -0.000457
  24 H :    0.006387
  25 C :   -0.021631
  26 H :    0.028395
  27 H :    0.024221
  28 C :   -0.026953
  29 H :    0.003524
  30 H :    0.009913
  31 H :    0.025018
  32 H :    0.039930
  33 H :    0.046925
Sum of atomic charges:   -0.0000000

LOEWDIN ATOMIC CHARGES
----------------------
   0 S :    0.410275
   1 C :   -0.203123
   2 C :   -0.064034
   3 C :   -0.054300
   4 C :   -0.179107
   5 H :    0.020103
   6 C :   -0.039380
   7 H :    0.028338
   8 H :    0.036469
   9 C :   -0.052053
  10 H :    0.037599
  11 H :    0.027646
  12 C :   -0.074854
  13 H :    0.024387
  14 H :    0.018015
  15 H :    0.036658
  16 S :    0.352829
  17 C :   -0.170927
  18 C :   -0.079064
  19 C :   -0.051408
  20 C :   -0.173949
  21 H :    0.037834
  22 C :   -0.019362
  23 H :    0.026238
  24 H :    0.027680
  25 C :   -0.031107
  26 H :    0.032177
  27 H :    0.021125
  28 C :   -0.069504
  29 H :    0.016614
  30 H :    0.022145
  31 H :    0.024658
  32 H :    0.024085
  33 H :    0.037296

  Mayer bond orders larger than 0.100000
B(  0-S ,  1-C ) :   1.1555 B(  0-S ,  4-C ) :   1.1329 B(  1-C ,  2-C ) :   1.6070
B(  1-C ,  4-C ) :   0.1002 B(  1-C , 32-H ) :   0.9653 B(  2-C ,  3-C ) :   1.2359
B(  2-C ,  6-C ) :   1.0171 B(  3-C ,  4-C ) :   1.5721 B(  3-C ,  5-H ) :   1.0113
B(  4-C , 20-C ) :   1.0509 B(  6-C ,  7-H ) :   0.9466 B(  6-C ,  8-H ) :   0.9350
B(  6-C ,  9-C ) :   1.0601 B(  9-C , 10-H ) :   0.9588 B(  9-C , 11-H ) :   0.9498
B(  9-C , 12-C ) :   1.0752 B( 12-C , 13-H ) :   0.9725 B( 12-C , 14-H ) :   0.9754
B( 12-C , 15-H ) :   0.9729 B( 16-S , 17-C ) :   1.1030 B( 16-S , 20-C ) :   1.1104
B( 17-C , 18-C ) :   1.7119 B( 17-C , 33-H ) :   0.9553 B( 18-C , 19-C ) :   1.1996
B( 18-C , 21-H ) :   0.9823 B( 19-C , 20-C ) :   1.6370 B( 19-C , 22-C ) :   1.0296
B( 22-C , 23-H ) :   0.9352 B( 22-C , 24-H ) :   0.9268 B( 22-C , 25-C ) :   1.0543
B( 25-C , 26-H ) :   0.9558 B( 25-C , 27-H ) :   0.9576 B( 25-C , 28-C ) :   1.0733
B( 28-C , 29-H ) :   0.9721 B( 28-C , 30-H ) :   0.9709 B( 28-C , 31-H ) :   0.9740

Dispersion correction           -0.013883533
FINAL SINGLE POINT ENERGY     -1339.850079411670

DIPOLE MOMENT
-------------
                                X             Y             Z
Electronic contribution:    -27.32621      12.93325     -10.47544
Nuclear contribution   :     27.88120     -13.22459      10.86901
                        -----------------------------------------
Total Dipole Moment    :      0.55499      -0.29134       0.39357
                        -----------------------------------------
Magnitude (a.u.)       :      0.74013
Magnitude (Debye)      :      1.88127

Rotational constants in cm-1:     0.017482     0.008927     0.006642
Rotational constants in MHz :   524.084861   267.632123   199.110576

                             ****ORCA TERMINATED NORMALLY****
TOTAL RUN TIME: 0 days 0 hours 0 minutes 21 seconds 825 msec
