                         Program Version 4.2.1 -  RELEASE  -
|  1> ! wB97X-D3 SP def2-SVP
|  2> %pal
|  3> nprocs 24
|  4> end
|  5>
|  6> * xyz 0 1
|  7> S 	 -57.2715 	 -1.93658 	 -30.4925
|  8> C 	 -57.9981 	 -2.55714 	 -29.0549
|  9> C 	 -57.3398 	 -2.16406 	 -27.9178
| 10> C 	 -56.2864 	 -1.17632 	 -28.1802
| 11> C 	 -56.1314 	 -0.904332 	 -29.5598
| 12> H 	 -55.7079 	 -0.586763 	 -27.3978
| 13> C 	 -57.8168 	 -2.43065 	 -26.4648
| 14> H 	 -58.9099 	 -2.39898 	 -26.54
| 15> H 	 -57.6305 	 -1.46892 	 -25.8698
| 16> C 	 -57.287 	 -3.68299 	 -25.8454
| 17> H 	 -57.5668 	 -4.49709 	 -26.5523
| 18> H 	 -56.2172 	 -3.68583 	 -25.8017
| 19> C 	 -57.931 	 -3.97039 	 -24.4257
| 20> H 	 -57.3206 	 -4.76356 	 -24.0232
| 21> H 	 -57.8745 	 -3.21477 	 -23.6039
| 22> H 	 -58.9425 	 -4.34743 	 -24.5253
| 23> S 	 -54.5106 	 -0.43899 	 -31.7169
| 24> C 	 -53.8106 	 1.09175 	 -31.9239
| 25> C 	 -53.9972 	 1.86015 	 -30.7639
| 26> C 	 -54.817 	 1.28891 	 -29.801
| 27> C 	 -55.174 	 0.00758755 	 -30.1487
| 28> H 	 -53.5616 	 2.82379 	 -30.5585
| 29> C 	 -54.9007 	 1.91664 	 -28.4292
| 30> H 	 -54.1014 	 2.6405 	 -28.3898
| 31> H 	 -54.6768 	 1.23101 	 -27.6532
| 32> C 	 -56.2251 	 2.70906 	 -28.0924
| 33> H 	 -56.0904 	 3.31612 	 -27.2684
| 34> H 	 -57.0291 	 2.01288 	 -27.912
| 35> C 	 -56.6768 	 3.52575 	 -29.2656
| 36> H 	 -56.0359 	 4.36507 	 -29.5602
| 37> H 	 -57.6138 	 3.98031 	 -29.1001
| 38> H 	 -56.8082 	 2.92754 	 -30.1544
| 39> H 	 -58.565 	 -3.49462 	 -29.0664
| 40> H 	 -53.1883 	 1.28509 	 -32.771
| 41> *
| 42>
| 43>                          ****END OF INPUT****

CARTESIAN COORDINATES (ANGSTROEM)
---------------------------------
  S    -57.271500   -1.936580  -30.492500
  C    -57.998100   -2.557140  -29.054900
  C    -57.339800   -2.164060  -27.917800
  C    -56.286400   -1.176320  -28.180200
  C    -56.131400   -0.904332  -29.559800
  H    -55.707900   -0.586763  -27.397800
  C    -57.816800   -2.430650  -26.464800
  H    -58.909900   -2.398980  -26.540000
  H    -57.630500   -1.468920  -25.869800
  C    -57.287000   -3.682990  -25.845400
  H    -57.566800   -4.497090  -26.552300
  H    -56.217200   -3.685830  -25.801700
  C    -57.931000   -3.970390  -24.425700
  H    -57.320600   -4.763560  -24.023200
  H    -57.874500   -3.214770  -23.603900
  H    -58.942500   -4.347430  -24.525300
  S    -54.510600   -0.438990  -31.716900
  C    -53.810600    1.091750  -31.923900
  C    -53.997200    1.860150  -30.763900
  C    -54.817000    1.288910  -29.801000
  C    -55.174000    0.007588  -30.148700
  H    -53.561600    2.823790  -30.558500
  C    -54.900700    1.916640  -28.429200
  H    -54.101400    2.640500  -28.389800
  H    -54.676800    1.231010  -27.653200
  C    -56.225100    2.709060  -28.092400
  H    -56.090400    3.316120  -27.268400
  H    -57.029100    2.012880  -27.912000
  C    -56.676800    3.525750  -29.265600
  H    -56.035900    4.365070  -29.560200
  H    -57.613800    3.980310  -29.100100
  H    -56.808200    2.927540  -30.154400
  H    -58.565000   -3.494620  -29.066400
  H    -53.188300    1.285090  -32.771000

 Total Charge           Charge          ....    0
 Multiplicity           Mult            ....    1
 Number of Electrons    NEL             ....  134
 Basis Dimension        Dim             ....  322

ORBITAL ENERGIES
----------------

  NO   OCC          E(Eh)            E(eV)
   0   2.0000     -88.967616     -2420.9319
   1   2.0000     -88.965936     -2420.8862
   2   2.0000     -10.335480      -281.2427
   3   2.0000     -10.325273      -280.9650
   4   2.0000     -10.316889      -280.7368
   5   2.0000     -10.310459      -280.5619
   6   2.0000     -10.303230      -280.3652
   7   2.0000     -10.302980      -280.3583
   8   2.0000     -10.297588      -280.2116
   9   2.0000     -10.295204      -280.1468
  10   2.0000     -10.291610      -280.0490
  11   2.0000     -10.291256      -280.0393
  12   2.0000     -10.290767      -280.0260
  13   2.0000     -10.282816      -279.8097
  14   2.0000     -10.278074      -279.6806
  15   2.0000     -10.263592      -279.2865
  16   2.0000      -8.083320      -219.9583
  17   2.0000      -8.080224      -219.8741
  18   2.0000      -6.041561      -164.3992
  19   2.0000      -6.038920      -164.3274
  20   2.0000      -6.037556      -164.2902
  21   2.0000      -6.034708      -164.2127
  22   2.0000      -6.034445      -164.2056
  23   2.0000      -6.030897      -164.1091
  24   2.0000      -1.010563       -27.4988
  25   2.0000      -0.982150       -26.7257
  26   2.0000      -0.913414       -24.8553
  27   2.0000      -0.906924       -24.6786
  28   2.0000      -0.869281       -23.6543
  29   2.0000      -0.858666       -23.3655
  30   2.0000      -0.840318       -22.8662
  31   2.0000      -0.806497       -21.9459
  32   2.0000      -0.787566       -21.4308
  33   2.0000      -0.771646       -20.9976
  34   2.0000      -0.709547       -19.3078
  35   2.0000      -0.701370       -19.0853
  36   2.0000      -0.693137       -18.8612
  37   2.0000      -0.672147       -18.2901
  38   2.0000      -0.632962       -17.2238
  39   2.0000      -0.613077       -16.6827
  40   2.0000      -0.598098       -16.2751
  41   2.0000      -0.564533       -15.3617
  42   2.0000      -0.560635       -15.2556
  43   2.0000      -0.556417       -15.1409
  44   2.0000      -0.548037       -14.9129
  45   2.0000      -0.523471       -14.2444
  46   2.0000      -0.511702       -13.9241
  47   2.0000      -0.508127       -13.8268
  48   2.0000      -0.502723       -13.6798
  49   2.0000      -0.497093       -13.5266
  50   2.0000      -0.490166       -13.3381
  51   2.0000      -0.478973       -13.0335
  52   2.0000      -0.470484       -12.8025
  53   2.0000      -0.466492       -12.6939
  54   2.0000      -0.459566       -12.5054
  55   2.0000      -0.450097       -12.2478
  56   2.0000      -0.443755       -12.0752
  57   2.0000      -0.438818       -11.9408
  58   2.0000      -0.438371       -11.9287
  59   2.0000      -0.426657       -11.6099
  60   2.0000      -0.419793       -11.4232
  61   2.0000      -0.412679       -11.2296
  62   2.0000      -0.408536       -11.1168
  63   2.0000      -0.353611        -9.6222
  64   2.0000      -0.336298        -9.1511
  65   2.0000      -0.327418        -8.9095
  66   2.0000      -0.285360        -7.7650
  67   0.0000       0.019952         0.5429
  68   0.0000       0.073906         2.0111
  69   0.0000       0.104659         2.8479
  70   0.0000       0.111625         3.0375
  71   0.0000       0.135017         3.6740

MULLIKEN ATOMIC CHARGES
-----------------------
   0 S :    0.101306
   1 C :   -0.106785
   2 C :   -0.108970
   3 C :   -0.008740
   4 C :   -0.118877
   5 H :    0.037294
   6 C :    0.016385
   7 H :    0.028891
   8 H :    0.032222
   9 C :   -0.053688
  10 H :    0.031241
  11 H :    0.028870
  12 C :   -0.054418
  13 H :    0.025679
  14 H :    0.041136
  15 H :    0.038567
  16 S :    0.115801
  17 C :   -0.088655
  18 C :   -0.016444
  19 C :   -0.038305
  20 C :   -0.176667
  21 H :    0.009831
  22 C :    0.051268
  23 H :    0.009351
  24 H :    0.023448
  25 C :   -0.007897
  26 H :    0.014180
  27 H :    0.030237
  28 C :   -0.054773
  29 H :    0.018487
  30 H :    0.015884
  31 H :    0.040640
  32 H :    0.065878
  33 H :    0.057623
Sum of atomic charges:   -0.0000000

LOEWDIN ATOMIC CHARGES
----------------------
   0 S :    0.391932
   1 C :   -0.217718
   2 C :   -0.063972
   3 C :   -0.073321
   4 C :   -0.179427
   5 H :    0.040331
   6 C :   -0.041028
   7 H :    0.030907
   8 H :    0.034582
   9 C :   -0.038311
  10 H :    0.031454
  11 H :    0.021961
  12 C :   -0.071030
  13 H :    0.025424
  14 H :    0.030328
  15 H :    0.025517
  16 S :    0.434484
  17 C :   -0.197987
  18 C :   -0.066952
  19 C :   -0.058927
  20 C :   -0.195310
  21 H :    0.027192
  22 C :   -0.019110
  23 H :    0.028838
  24 H :    0.021611
  25 C :   -0.025424
  26 H :    0.014118
  27 H :    0.025672
  28 C :   -0.065194
  29 H :    0.021661
  30 H :    0.019831
  31 H :    0.027551
  32 H :    0.034866
  33 H :    0.025450

  Mayer bond orders larger than 0.100000
B(  0-S ,  1-C ) :   1.1304 B(  0-S ,  4-C ) :   1.1388 B(  1-C ,  2-C ) :   1.6458
B(  1-C , 32-H ) :   0.9509 B(  2-C ,  3-C ) :   1.2409 B(  2-C ,  6-C ) :   1.0001
B(  3-C ,  4-C ) :   1.5642 B(  3-C ,  5-H ) :   0.9769 B(  4-C , 20-C ) :   1.0779
B(  6-C ,  7-H ) :   0.9517 B(  6-C ,  8-H ) :   0.9485 B(  6-C ,  9-C ) :   1.0574
B(  9-C , 10-H ) :   0.9534 B(  9-C , 11-H ) :   0.9596 B(  9-C , 12-C ) :   1.0703
B( 12-C , 13-H ) :   0.9754 B( 12-C , 14-H ) :   0.9774 B( 12-C , 15-H ) :   0.9765
B( 16-S , 17-C ) :   1.1908 B( 16-S , 20-C ) :   1.1575 B( 17-C , 18-C ) :   1.5202
B( 17-C , 20-C ) :   0.1074 B( 17-C , 33-H ) :   0.9765 B( 18-C , 19-C ) :   1.3118
B( 18-C , 21-H ) :   0.9841 B( 19-C , 20-C ) :   1.5439 B( 19-C , 22-C ) :   1.0227
B( 22-C , 23-H ) :   0.9356 B( 22-C , 24-H ) :   0.9499 B( 22-C , 25-C ) :   1.0601
B( 25-C , 26-H ) :   0.9560 B( 25-C , 27-H ) :   0.9520 B( 25-C , 28-C ) :   1.1003
B( 28-C , 29-H ) :   0.9743 B( 28-C , 30-H ) :   0.9700 B( 28-C , 31-H ) :   0.9634

Dispersion correction           -0.014417484
FINAL SINGLE POINT ENERGY     -1339.871667331901

DIPOLE MOMENT
-------------
                                X             Y             Z
Electronic contribution:      7.23752      -5.24466     -25.63420
Nuclear contribution   :     -7.11048       5.43475      26.22612
                        -----------------------------------------
Total Dipole Moment    :      0.12704       0.19008       0.59192
                        -----------------------------------------
Magnitude (a.u.)       :      0.63454
Magnitude (Debye)      :      1.61286

Rotational constants in cm-1:     0.021031     0.007846     0.006489
Rotational constants in MHz :   630.508207   235.213924   194.544081

                             ****ORCA TERMINATED NORMALLY****
TOTAL RUN TIME: 0 days 0 hours 0 minutes 20 seconds 393 msec
