                         Program Version 4.2.1 -  RELEASE  -
|  1> ! wB97X-D3 SP def2-SVP
|  2> %pal
|  3> nprocs 24
|  4> end
|  5>
|  6> * xyz 0 1
|  7> S 	 -55.8452 	 -47.5485 	 -79.1671
|  8> C 	 -56.0661 	 -45.8369 	 -79.057
|  9> C 	 -56.4482 	 -45.3177 	 -80.2927
| 10> C 	 -56.6036 	 -46.2895 	 -81.3149
| 11> C 	 -56.3477 	 -47.5649 	 -80.8752
| 12> H 	 -57.0077 	 -46.0024 	 -82.27
| 13> C 	 -56.8586 	 -43.8579 	 -80.5446
| 14> H 	 -56.4066 	 -43.5769 	 -81.498
| 15> H 	 -56.2997 	 -43.2621 	 -79.7746
| 16> C 	 -58.3228 	 -43.6352 	 -80.5226
| 17> H 	 -58.8743 	 -44.2991 	 -79.8605
| 18> H 	 -58.4732 	 -42.5912 	 -80.1885
| 19> C 	 -58.9667 	 -43.69 	 -81.9539
| 20> H 	 -60.0212 	 -43.5278 	 -81.9497
| 21> H 	 -58.5092 	 -42.9526 	 -82.6315
| 22> H 	 -58.8784 	 -44.6369 	 -82.2728
| 23> S 	 -57.2664 	 -48.8705 	 -83.1483
| 24> C 	 -56.9116 	 -50.5321 	 -83.3535
| 25> C 	 -56.0262 	 -50.9654 	 -82.4237
| 26> C 	 -55.6621 	 -50.0789 	 -81.3953
| 27> C 	 -56.3112 	 -48.8582 	 -81.6144
| 28> H 	 -55.6588 	 -51.9402 	 -82.5691
| 29> C 	 -54.819 	 -50.614 	 -80.2269
| 30> H 	 -54.8712 	 -51.6399 	 -80.0436
| 31> H 	 -55.2076 	 -50.0921 	 -79.3626
| 32> C 	 -53.4042 	 -50.1339 	 -80.2817
| 33> H 	 -52.7884 	 -50.3265 	 -79.4536
| 34> H 	 -53.4794 	 -49.0698 	 -80.2898
| 35> C 	 -52.5751 	 -50.7829 	 -81.3904
| 36> H 	 -52.8453 	 -51.8461 	 -81.3584
| 37> H 	 -51.5586 	 -50.6477 	 -81.1947
| 38> H 	 -52.7549 	 -50.3847 	 -82.4346
| 39> H 	 -55.7953 	 -45.2209 	 -78.1685
| 40> H 	 -57.1768 	 -51.1155 	 -84.1865
| 41> *
| 42>
| 43>                          ****END OF INPUT****

CARTESIAN COORDINATES (ANGSTROEM)
---------------------------------
  S    -55.845200  -47.548500  -79.167100
  C    -56.066100  -45.836900  -79.057000
  C    -56.448200  -45.317700  -80.292700
  C    -56.603600  -46.289500  -81.314900
  C    -56.347700  -47.564900  -80.875200
  H    -57.007700  -46.002400  -82.270000
  C    -56.858600  -43.857900  -80.544600
  H    -56.406600  -43.576900  -81.498000
  H    -56.299700  -43.262100  -79.774600
  C    -58.322800  -43.635200  -80.522600
  H    -58.874300  -44.299100  -79.860500
  H    -58.473200  -42.591200  -80.188500
  C    -58.966700  -43.690000  -81.953900
  H    -60.021200  -43.527800  -81.949700
  H    -58.509200  -42.952600  -82.631500
  H    -58.878400  -44.636900  -82.272800
  S    -57.266400  -48.870500  -83.148300
  C    -56.911600  -50.532100  -83.353500
  C    -56.026200  -50.965400  -82.423700
  C    -55.662100  -50.078900  -81.395300
  C    -56.311200  -48.858200  -81.614400
  H    -55.658800  -51.940200  -82.569100
  C    -54.819000  -50.614000  -80.226900
  H    -54.871200  -51.639900  -80.043600
  H    -55.207600  -50.092100  -79.362600
  C    -53.404200  -50.133900  -80.281700
  H    -52.788400  -50.326500  -79.453600
  H    -53.479400  -49.069800  -80.289800
  C    -52.575100  -50.782900  -81.390400
  H    -52.845300  -51.846100  -81.358400
  H    -51.558600  -50.647700  -81.194700
  H    -52.754900  -50.384700  -82.434600
  H    -55.795300  -45.220900  -78.168500
  H    -57.176800  -51.115500  -84.186500

 Total Charge           Charge          ....    0
 Multiplicity           Mult            ....    1
 Number of Electrons    NEL             ....  134
 Basis Dimension        Dim             ....  322

ORBITAL ENERGIES
----------------

  NO   OCC          E(Eh)            E(eV)
   0   2.0000     -88.968369     -2420.9524
   1   2.0000     -88.966295     -2420.8960
   2   2.0000     -10.337520      -281.2982
   3   2.0000     -10.337292      -281.2920
   4   2.0000     -10.315687      -280.7041
   5   2.0000     -10.307593      -280.4839
   6   2.0000     -10.307286      -280.4755
   7   2.0000     -10.299050      -280.2514
   8   2.0000     -10.292541      -280.0743
   9   2.0000     -10.291795      -280.0540
  10   2.0000     -10.286790      -279.9178
  11   2.0000     -10.285149      -279.8731
  12   2.0000     -10.282153      -279.7916
  13   2.0000     -10.271183      -279.4931
  14   2.0000     -10.270665      -279.4790
  15   2.0000     -10.268993      -279.4335
  16   2.0000      -8.082395      -219.9332
  17   2.0000      -8.080863      -219.8915
  18   2.0000      -6.040969      -164.3831
  19   2.0000      -6.039359      -164.3393
  20   2.0000      -6.037004      -164.2752
  21   2.0000      -6.035551      -164.2357
  22   2.0000      -6.033163      -164.1707
  23   2.0000      -6.031518      -164.1260
  24   2.0000      -1.006039       -27.3757
  25   2.0000      -0.986913       -26.8553
  26   2.0000      -0.918401       -24.9910
  27   2.0000      -0.913580       -24.8598
  28   2.0000      -0.866629       -23.5822
  29   2.0000      -0.853954       -23.2373
  30   2.0000      -0.845573       -23.0092
  31   2.0000      -0.814576       -22.1657
  32   2.0000      -0.790215       -21.5028
  33   2.0000      -0.776109       -21.1190
  34   2.0000      -0.708480       -19.2787
  35   2.0000      -0.700109       -19.0509
  36   2.0000      -0.690109       -18.7788
  37   2.0000      -0.666254       -18.1297
  38   2.0000      -0.636585       -17.3224
  39   2.0000      -0.620059       -16.8727
  40   2.0000      -0.601842       -16.3769
  41   2.0000      -0.572915       -15.5898
  42   2.0000      -0.565734       -15.3944
  43   2.0000      -0.555451       -15.1146
  44   2.0000      -0.547172       -14.8893
  45   2.0000      -0.538755       -14.6603
  46   2.0000      -0.517020       -14.0688
  47   2.0000      -0.512621       -13.9491
  48   2.0000      -0.498944       -13.5769
  49   2.0000      -0.496968       -13.5232
  50   2.0000      -0.487524       -13.2662
  51   2.0000      -0.484833       -13.1930
  52   2.0000      -0.472882       -12.8678
  53   2.0000      -0.470210       -12.7951
  54   2.0000      -0.464095       -12.6287
  55   2.0000      -0.448047       -12.1920
  56   2.0000      -0.447098       -12.1662
  57   2.0000      -0.440838       -11.9958
  58   2.0000      -0.430040       -11.7020
  59   2.0000      -0.425733       -11.5848
  60   2.0000      -0.415477       -11.3057
  61   2.0000      -0.408067       -11.1041
  62   2.0000      -0.405682       -11.0392
  63   2.0000      -0.361443        -9.8354
  64   2.0000      -0.336894        -9.1674
  65   2.0000      -0.331253        -9.0138
  66   2.0000      -0.281916        -7.6713
  67   0.0000       0.019551         0.5320
  68   0.0000       0.085244         2.3196
  69   0.0000       0.106105         2.8873
  70   0.0000       0.116278         3.1641
  71   0.0000       0.134992         3.6733

MULLIKEN ATOMIC CHARGES
-----------------------
   0 S :    0.080598
   1 C :   -0.126596
   2 C :   -0.121938
   3 C :    0.005503
   4 C :   -0.097884
   5 H :    0.013180
   6 C :    0.054360
   7 H :    0.025443
   8 H :    0.026181
   9 C :   -0.052968
  10 H :    0.039362
  11 H :    0.030199
  12 C :   -0.020718
  13 H :    0.023638
  14 H :    0.036082
  15 H :    0.000041
  16 S :    0.091536
  17 C :   -0.052825
  18 C :   -0.041255
  19 C :   -0.030182
  20 C :   -0.144062
  21 H :   -0.006912
  22 C :    0.112554
  23 H :    0.015256
  24 H :    0.021450
  25 C :   -0.051276
  26 H :    0.012268
  27 H :    0.015936
  28 C :   -0.050480
  29 H :    0.021194
  30 H :    0.023386
  31 H :    0.045844
  32 H :    0.066173
  33 H :    0.036913
Sum of atomic charges:   -0.0000000

LOEWDIN ATOMIC CHARGES
----------------------
   0 S :    0.411719
   1 C :   -0.218320
   2 C :   -0.060968
   3 C :   -0.076062
   4 C :   -0.169990
   5 H :    0.027537
   6 C :   -0.034932
   7 H :    0.030185
   8 H :    0.033538
   9 C :   -0.037721
  10 H :    0.027767
  11 H :    0.027984
  12 C :   -0.052833
  13 H :    0.024971
  14 H :    0.028356
  15 H :    0.004051
  16 S :    0.398011
  17 C :   -0.186548
  18 C :   -0.068541
  19 C :   -0.049046
  20 C :   -0.172461
  21 H :    0.022557
  22 C :   -0.020162
  23 H :    0.021699
  24 H :    0.023580
  25 C :   -0.039281
  26 H :    0.019631
  27 H :    0.015957
  28 C :   -0.063254
  29 H :    0.024042
  30 H :    0.016366
  31 H :    0.030733
  32 H :    0.038892
  33 H :    0.022543

  Mayer bond orders larger than 0.100000
B(  0-S ,  1-C ) :   1.1317 B(  0-S ,  4-C ) :   1.1522 B(  1-C ,  2-C ) :   1.6108
B(  1-C , 32-H ) :   0.9614 B(  2-C ,  3-C ) :   1.2683 B(  2-C ,  6-C ) :   1.0293
B(  3-C ,  4-C ) :   1.5477 B(  3-C ,  5-H ) :   0.9854 B(  4-C , 20-C ) :   1.0562
B(  6-C ,  7-H ) :   0.9391 B(  6-C ,  8-H ) :   0.9418 B(  6-C ,  9-C ) :   1.0526
B(  9-C , 10-H ) :   0.9584 B(  9-C , 11-H ) :   0.9560 B(  9-C , 12-C ) :   1.0777
B( 12-C , 13-H ) :   0.9690 B( 12-C , 14-H ) :   0.9768 B( 12-C , 15-H ) :   0.9748
B( 16-S , 17-C ) :   1.1432 B( 16-S , 20-C ) :   1.1456 B( 17-C , 18-C ) :   1.6310
B( 17-C , 33-H ) :   0.9685 B( 18-C , 19-C ) :   1.2354 B( 18-C , 21-H ) :   0.9954
B( 19-C , 20-C ) :   1.5763 B( 19-C , 22-C ) :   1.0180 B( 22-C , 23-H ) :   0.9436
B( 22-C , 24-H ) :   0.9239 B( 22-C , 25-C ) :   1.0863 B( 25-C , 26-H ) :   0.9563
B( 25-C , 27-H ) :   0.9488 B( 25-C , 28-C ) :   1.0690 B( 28-C , 29-H ) :   0.9734
B( 28-C , 30-H ) :   0.9787 B( 28-C , 31-H ) :   0.9739

Dispersion correction           -0.014665681
FINAL SINGLE POINT ENERGY     -1339.866075996612

DIPOLE MOMENT
-------------
                                X             Y             Z
Electronic contribution:     -4.59502      -7.17887      -0.37419
Nuclear contribution   :      4.70808       7.27278       0.38335
                        -----------------------------------------
Total Dipole Moment    :      0.11306       0.09391       0.00917
                        -----------------------------------------
Magnitude (a.u.)       :      0.14726
Magnitude (Debye)      :      0.37430

Rotational constants in cm-1:     0.022628     0.008504     0.006658
Rotational constants in MHz :   678.357157   254.957507   199.610241

                             ****ORCA TERMINATED NORMALLY****
TOTAL RUN TIME: 0 days 0 hours 0 minutes 21 seconds 753 msec
