                         Program Version 4.2.1 -  RELEASE  -
|  1> ! wB97X-D3 SP def2-SVP
|  2> %pal
|  3> nprocs 24
|  4> end
|  5>
|  6> * xyz 0 1
|  7> S 	 -56.0805 	 12.5973 	 -98.175
|  8> C 	 -54.555 	 13.327 	 -98.6933
|  9> C 	 -54.2268 	 14.4477 	 -97.9207
| 10> C 	 -55.2735 	 14.7732 	 -97.0215
| 11> C 	 -56.412 	 13.9426 	 -97.0998
| 12> H 	 -55.2416 	 15.5931 	 -96.3505
| 13> C 	 -53.0902 	 15.3464 	 -98.1375
| 14> H 	 -52.2994 	 15.1232 	 -97.4112
| 15> H 	 -53.442 	 16.3953 	 -97.9563
| 16> C 	 -52.6035 	 15.4277 	 -99.571
| 17> H 	 -52.2379 	 14.4801 	 -99.9557
| 18> H 	 -53.4448 	 15.6632 	 -100.178
| 19> C 	 -51.7023 	 16.542 	 -99.8366
| 20> H 	 -51.5688 	 16.5813 	 -100.92
| 21> H 	 -52.0701 	 17.5052 	 -99.4662
| 22> H 	 -50.6943 	 16.4083 	 -99.4413
| 23> S 	 -59.107 	 14.4579 	 -97.0753
| 24> C 	 -60.0411 	 14.0305 	 -95.5917
| 25> C 	 -59.1405 	 13.7459 	 -94.5201
| 26> C 	 -57.7857 	 13.6698 	 -94.9392
| 27> C 	 -57.6113 	 13.9602 	 -96.2868
| 28> H 	 -59.5928 	 13.5012 	 -93.5345
| 29> C 	 -56.7148 	 13.0261 	 -94.0295
| 30> H 	 -55.8768 	 12.5427 	 -94.5984
| 31> H 	 -57.2716 	 12.1696 	 -93.6257
| 32> C 	 -56.1756 	 13.8649 	 -92.9003
| 33> H 	 -57.0193 	 14.1892 	 -92.2586
| 34> H 	 -55.637 	 14.7241 	 -93.1692
| 35> C 	 -55.2412 	 13.0005 	 -92.0971
| 36> H 	 -54.3881 	 12.7959 	 -92.7587
| 37> H 	 -55.6692 	 12.0835 	 -91.8192
| 38> H 	 -54.978 	 13.5254 	 -91.1799
| 39> H 	 -53.8545 	 12.8031 	 -99.3313
| 40> H 	 -61.1013 	 14.0839 	 -95.5155
| 41> *
| 42>
| 43>                          ****END OF INPUT****

CARTESIAN COORDINATES (ANGSTROEM)
---------------------------------
  S    -56.080500   12.597300  -98.175000
  C    -54.555000   13.327000  -98.693300
  C    -54.226800   14.447700  -97.920700
  C    -55.273500   14.773200  -97.021500
  C    -56.412000   13.942600  -97.099800
  H    -55.241600   15.593100  -96.350500
  C    -53.090200   15.346400  -98.137500
  H    -52.299400   15.123200  -97.411200
  H    -53.442000   16.395300  -97.956300
  C    -52.603500   15.427700  -99.571000
  H    -52.237900   14.480100  -99.955700
  H    -53.444800   15.663200  -100.178000
  C    -51.702300   16.542000  -99.836600
  H    -51.568800   16.581300  -100.920000
  H    -52.070100   17.505200  -99.466200
  H    -50.694300   16.408300  -99.441300
  S    -59.107000   14.457900  -97.075300
  C    -60.041100   14.030500  -95.591700
  C    -59.140500   13.745900  -94.520100
  C    -57.785700   13.669800  -94.939200
  C    -57.611300   13.960200  -96.286800
  H    -59.592800   13.501200  -93.534500
  C    -56.714800   13.026100  -94.029500
  H    -55.876800   12.542700  -94.598400
  H    -57.271600   12.169600  -93.625700
  C    -56.175600   13.864900  -92.900300
  H    -57.019300   14.189200  -92.258600
  H    -55.637000   14.724100  -93.169200
  C    -55.241200   13.000500  -92.097100
  H    -54.388100   12.795900  -92.758700
  H    -55.669200   12.083500  -91.819200
  H    -54.978000   13.525400  -91.179900
  H    -53.854500   12.803100  -99.331300
  H    -61.101300   14.083900  -95.515500

 Total Charge           Charge          ....    0
 Multiplicity           Mult            ....    1
 Number of Electrons    NEL             ....  134
 Basis Dimension        Dim             ....  322

ORBITAL ENERGIES
----------------

  NO   OCC          E(Eh)            E(eV)
   0   2.0000     -88.965643     -2420.8782
   1   2.0000     -88.965128     -2420.8642
   2   2.0000     -10.328405      -281.0502
   3   2.0000     -10.324646      -280.9479
   4   2.0000     -10.324561      -280.9456
   5   2.0000     -10.315183      -280.6904
   6   2.0000     -10.304936      -280.4116
   7   2.0000     -10.302676      -280.3501
   8   2.0000     -10.297905      -280.2202
   9   2.0000     -10.293047      -280.0881
  10   2.0000     -10.292697      -280.0785
  11   2.0000     -10.290913      -280.0300
  12   2.0000     -10.278248      -279.6853
  13   2.0000     -10.277110      -279.6544
  14   2.0000     -10.274068      -279.5716
  15   2.0000     -10.269849      -279.4568
  16   2.0000      -8.079814      -219.8629
  17   2.0000      -8.078810      -219.8356
  18   2.0000      -6.038193      -164.3076
  19   2.0000      -6.037313      -164.2836
  20   2.0000      -6.034368      -164.2035
  21   2.0000      -6.033479      -164.1793
  22   2.0000      -6.030776      -164.1058
  23   2.0000      -6.029629      -164.0746
  24   2.0000      -0.999328       -27.1931
  25   2.0000      -0.976265       -26.5655
  26   2.0000      -0.924552       -25.1583
  27   2.0000      -0.913860       -24.8674
  28   2.0000      -0.869796       -23.6684
  29   2.0000      -0.850808       -23.1517
  30   2.0000      -0.850416       -23.1410
  31   2.0000      -0.809341       -22.0233
  32   2.0000      -0.779781       -21.2189
  33   2.0000      -0.766306       -20.8522
  34   2.0000      -0.709374       -19.3030
  35   2.0000      -0.699144       -19.0247
  36   2.0000      -0.692074       -18.8323
  37   2.0000      -0.660525       -17.9738
  38   2.0000      -0.641457       -17.4549
  39   2.0000      -0.614399       -16.7187
  40   2.0000      -0.594950       -16.1894
  41   2.0000      -0.582944       -15.8627
  42   2.0000      -0.569828       -15.5058
  43   2.0000      -0.563964       -15.3462
  44   2.0000      -0.530289       -14.4299
  45   2.0000      -0.527154       -14.3446
  46   2.0000      -0.521147       -14.1811
  47   2.0000      -0.513198       -13.9648
  48   2.0000      -0.503678       -13.7058
  49   2.0000      -0.502482       -13.6732
  50   2.0000      -0.488290       -13.2870
  51   2.0000      -0.476240       -12.9591
  52   2.0000      -0.470503       -12.8030
  53   2.0000      -0.461042       -12.5456
  54   2.0000      -0.453840       -12.3496
  55   2.0000      -0.452923       -12.3246
  56   2.0000      -0.442691       -12.0462
  57   2.0000      -0.440867       -11.9966
  58   2.0000      -0.430234       -11.7073
  59   2.0000      -0.421964       -11.4822
  60   2.0000      -0.421034       -11.4569
  61   2.0000      -0.417634       -11.3644
  62   2.0000      -0.411133       -11.1875
  63   2.0000      -0.334701        -9.1077
  64   2.0000      -0.327395        -8.9089
  65   2.0000      -0.322445        -8.7742
  66   2.0000      -0.300996        -8.1905
  67   0.0000       0.032837         0.8936
  68   0.0000       0.055633         1.5139
  69   0.0000       0.115080         3.1315
  70   0.0000       0.116627         3.1736
  71   0.0000       0.123656         3.3649

MULLIKEN ATOMIC CHARGES
-----------------------
   0 S :    0.117215
   1 C :   -0.126491
   2 C :   -0.080127
   3 C :    0.056081
   4 C :   -0.171299
   5 H :   -0.004666
   6 C :    0.056751
   7 H :    0.043216
   8 H :    0.026267
   9 C :   -0.080369
  10 H :    0.022575
  11 H :    0.023321
  12 C :   -0.024171
  13 H :    0.028812
  14 H :    0.027113
  15 H :    0.021887
  16 S :    0.105833
  17 C :   -0.100959
  18 C :   -0.056134
  19 C :    0.044819
  20 C :   -0.194656
  21 H :    0.038349
  22 C :    0.009081
  23 H :    0.035750
  24 H :    0.027967
  25 C :   -0.050540
  26 H :    0.022553
  27 H :    0.019200
  28 C :   -0.010145
  29 H :    0.029400
  30 H :    0.009126
  31 H :    0.030594
  32 H :    0.050698
  33 H :    0.052948
Sum of atomic charges:    0.0000000

LOEWDIN ATOMIC CHARGES
----------------------
   0 S :    0.406444
   1 C :   -0.194869
   2 C :   -0.066406
   3 C :   -0.049869
   4 C :   -0.200759
   5 H :    0.024304
   6 C :   -0.035766
   7 H :    0.035266
   8 H :    0.037350
   9 C :   -0.045570
  10 H :    0.020631
  11 H :    0.027194
  12 C :   -0.060537
  13 H :    0.030081
  14 H :    0.024942
  15 H :    0.021193
  16 S :    0.384995
  17 C :   -0.165179
  18 C :   -0.072025
  19 C :   -0.054734
  20 C :   -0.206009
  21 H :    0.038528
  22 C :   -0.031439
  23 H :    0.034415
  24 H :    0.034026
  25 C :   -0.038364
  26 H :    0.024369
  27 H :    0.017433
  28 C :   -0.054736
  29 H :    0.028155
  30 H :    0.014085
  31 H :    0.026048
  32 H :    0.025055
  33 H :    0.021746

  Mayer bond orders larger than 0.100000
B(  0-S ,  1-C ) :   1.1462 B(  0-S ,  4-C ) :   1.1637 B(  1-C ,  2-C ) :   1.5811
B(  1-C ,  4-C ) :   0.1060 B(  1-C , 32-H ) :   0.9661 B(  2-C ,  3-C ) :   1.2690
B(  2-C ,  6-C ) :   1.0252 B(  3-C ,  4-C ) :   1.5528 B(  3-C ,  5-H ) :   1.0045
B(  4-C , 20-C ) :   1.0263 B(  6-C ,  7-H ) :   0.9171 B(  6-C ,  8-H ) :   0.9511
B(  6-C ,  9-C ) :   1.0850 B(  9-C , 10-H ) :   0.9401 B(  9-C , 11-H ) :   0.9523
B(  9-C , 12-C ) :   1.1090 B( 12-C , 13-H ) :   0.9695 B( 12-C , 14-H ) :   0.9688
B( 12-C , 15-H ) :   0.9696 B( 16-S , 17-C ) :   1.1510 B( 16-S , 20-C ) :   1.1428
B( 17-C , 18-C ) :   1.6037 B( 17-C , 20-C ) :   0.1096 B( 17-C , 33-H ) :   0.9739
B( 18-C , 19-C ) :   1.2368 B( 18-C , 21-H ) :   0.9814 B( 19-C , 20-C ) :   1.5987
B( 19-C , 22-C ) :   1.0139 B( 22-C , 23-H ) :   0.9416 B( 22-C , 24-H ) :   0.9428
B( 22-C , 25-C ) :   1.0709 B( 25-C , 26-H ) :   0.9505 B( 25-C , 27-H ) :   0.9529
B( 25-C , 28-C ) :   1.0928 B( 28-C , 29-H ) :   0.9725 B( 28-C , 30-H ) :   0.9726
B( 28-C , 31-H ) :   0.9716

Dispersion correction           -0.013637345
FINAL SINGLE POINT ENERGY     -1339.876277548089

DIPOLE MOMENT
-------------
                                X             Y             Z
Electronic contribution:    -22.58521      -6.56104      -9.17680
Nuclear contribution   :     23.00641       6.66703       9.56693
                        -----------------------------------------
Total Dipole Moment    :      0.42121       0.10599       0.39013
                        -----------------------------------------
Magnitude (a.u.)       :      0.58382
Magnitude (Debye)      :      1.48396

Rotational constants in cm-1:     0.019081     0.007688     0.006294
Rotational constants in MHz :   572.027377   230.475669   188.688283

                             ****ORCA TERMINATED NORMALLY****
TOTAL RUN TIME: 0 days 0 hours 0 minutes 21 seconds 271 msec
