                         Program Version 4.2.1 -  RELEASE  -
|  1> ! wB97X-D3 SP def2-SVP
|  2> %pal
|  3> nprocs 24
|  4> end
|  5>
|  6> * xyz 0 1
|  7> S 	 27.1112 	 -3.27734 	 -106.814
|  8> C 	 28.0703 	 -3.49469 	 -108.257
|  9> C 	 27.8276 	 -2.5815 	 -109.269
| 10> C 	 26.8292 	 -1.67525 	 -108.764
| 11> C 	 26.2805 	 -1.90658 	 -107.533
| 12> H 	 26.4376 	 -0.806266 	 -109.299
| 13> C 	 28.6174 	 -2.42563 	 -110.496
| 14> H 	 28.167 	 -1.50752 	 -110.919
| 15> H 	 28.4573 	 -3.20893 	 -111.22
| 16> C 	 30.0721 	 -2.08003 	 -110.397
| 17> H 	 30.5152 	 -3.05287 	 -110.097
| 18> H 	 30.4288 	 -1.71938 	 -111.357
| 19> C 	 30.4618 	 -1.13969 	 -109.239
| 20> H 	 31.5737 	 -1.17589 	 -109.136
| 21> H 	 30.2612 	 -0.0311554 	 -109.423
| 22> H 	 30.1063 	 -1.41251 	 -108.281
| 23> S 	 25.0723 	 0.382106 	 -106.546
| 24> C 	 23.4308 	 0.243449 	 -105.984
| 25> C 	 22.9772 	 -1.0187 	 -106.047
| 26> C 	 23.9149 	 -1.89493 	 -106.656
| 27> C 	 25.1569 	 -1.33965 	 -106.965
| 28> H 	 22.033 	 -1.22048 	 -105.644
| 29> C 	 23.4276 	 -3.35948 	 -106.802
| 30> H 	 22.7769 	 -3.52028 	 -105.893
| 31> H 	 24.3427 	 -3.96421 	 -106.796
| 32> C 	 22.6035 	 -3.67803 	 -108.062
| 33> H 	 23.1412 	 -3.28122 	 -108.938
| 34> H 	 21.7093 	 -3.06842 	 -107.891
| 35> C 	 22.3222 	 -5.22878 	 -108.189
| 36> H 	 23.1774 	 -5.83626 	 -108.429
| 37> H 	 21.5781 	 -5.37712 	 -108.993
| 38> H 	 21.9369 	 -5.56968 	 -107.227
| 39> H 	 28.8837 	 -4.18947 	 -108.251
| 40> H 	 22.8124 	 1.04795 	 -105.619
| 41> *
| 42>
| 43>                          ****END OF INPUT****

CARTESIAN COORDINATES (ANGSTROEM)
---------------------------------
  S     27.111200   -3.277340  -106.814000
  C     28.070300   -3.494690  -108.257000
  C     27.827600   -2.581500  -109.269000
  C     26.829200   -1.675250  -108.764000
  C     26.280500   -1.906580  -107.533000
  H     26.437600   -0.806266  -109.299000
  C     28.617400   -2.425630  -110.496000
  H     28.167000   -1.507520  -110.919000
  H     28.457300   -3.208930  -111.220000
  C     30.072100   -2.080030  -110.397000
  H     30.515200   -3.052870  -110.097000
  H     30.428800   -1.719380  -111.357000
  C     30.461800   -1.139690  -109.239000
  H     31.573700   -1.175890  -109.136000
  H     30.261200   -0.031155  -109.423000
  H     30.106300   -1.412510  -108.281000
  S     25.072300    0.382106  -106.546000
  C     23.430800    0.243449  -105.984000
  C     22.977200   -1.018700  -106.047000
  C     23.914900   -1.894930  -106.656000
  C     25.156900   -1.339650  -106.965000
  H     22.033000   -1.220480  -105.644000
  C     23.427600   -3.359480  -106.802000
  H     22.776900   -3.520280  -105.893000
  H     24.342700   -3.964210  -106.796000
  C     22.603500   -3.678030  -108.062000
  H     23.141200   -3.281220  -108.938000
  H     21.709300   -3.068420  -107.891000
  C     22.322200   -5.228780  -108.189000
  H     23.177400   -5.836260  -108.429000
  H     21.578100   -5.377120  -108.993000
  H     21.936900   -5.569680  -107.227000
  H     28.883700   -4.189470  -108.251000
  H     22.812400    1.047950  -105.619000

 Total Charge           Charge          ....    0
 Multiplicity           Mult            ....    1
 Number of Electrons    NEL             ....  134
 Basis Dimension        Dim             ....  322

ORBITAL ENERGIES
----------------

  NO   OCC          E(Eh)            E(eV)
   0   2.0000     -88.966804     -2420.9098
   1   2.0000     -88.963113     -2420.8094
   2   2.0000     -10.322862      -280.8994
   3   2.0000     -10.321691      -280.8675
   4   2.0000     -10.314856      -280.6815
   5   2.0000     -10.311756      -280.5972
   6   2.0000     -10.302314      -280.3402
   7   2.0000     -10.301392      -280.3151
   8   2.0000     -10.295284      -280.1489
   9   2.0000     -10.290765      -280.0259
  10   2.0000     -10.289683      -279.9965
  11   2.0000     -10.288076      -279.9528
  12   2.0000     -10.286970      -279.9227
  13   2.0000     -10.282647      -279.8050
  14   2.0000     -10.279868      -279.7294
  15   2.0000     -10.279802      -279.7276
  16   2.0000      -8.081364      -219.9051
  17   2.0000      -8.077761      -219.8070
  18   2.0000      -6.039793      -164.3511
  19   2.0000      -6.036339      -164.2571
  20   2.0000      -6.035817      -164.2429
  21   2.0000      -6.032274      -164.1465
  22   2.0000      -6.032271      -164.1464
  23   2.0000      -6.028465      -164.0429
  24   2.0000      -1.010691       -27.5023
  25   2.0000      -0.986853       -26.8536
  26   2.0000      -0.923347       -25.1255
  27   2.0000      -0.898825       -24.4583
  28   2.0000      -0.879216       -23.9247
  29   2.0000      -0.848588       -23.0913
  30   2.0000      -0.841309       -22.8932
  31   2.0000      -0.815633       -22.1945
  32   2.0000      -0.787985       -21.4422
  33   2.0000      -0.769213       -20.9313
  34   2.0000      -0.712862       -19.3980
  35   2.0000      -0.705006       -19.1842
  36   2.0000      -0.688183       -18.7264
  37   2.0000      -0.663563       -18.0565
  38   2.0000      -0.642583       -17.4856
  39   2.0000      -0.613410       -16.6917
  40   2.0000      -0.588274       -16.0078
  41   2.0000      -0.580983       -15.8094
  42   2.0000      -0.564878       -15.3711
  43   2.0000      -0.557088       -15.1591
  44   2.0000      -0.550100       -14.9690
  45   2.0000      -0.519164       -14.1272
  46   2.0000      -0.515993       -14.0409
  47   2.0000      -0.509681       -13.8691
  48   2.0000      -0.506309       -13.7774
  49   2.0000      -0.503852       -13.7105
  50   2.0000      -0.488608       -13.2957
  51   2.0000      -0.477992       -13.0068
  52   2.0000      -0.469756       -12.7827
  53   2.0000      -0.462476       -12.5846
  54   2.0000      -0.459878       -12.5139
  55   2.0000      -0.449540       -12.2326
  56   2.0000      -0.441046       -12.0015
  57   2.0000      -0.438049       -11.9199
  58   2.0000      -0.431359       -11.7379
  59   2.0000      -0.428927       -11.6717
  60   2.0000      -0.420959       -11.4549
  61   2.0000      -0.406311       -11.0563
  62   2.0000      -0.399947       -10.8831
  63   2.0000      -0.343961        -9.3597
  64   2.0000      -0.333362        -9.0712
  65   2.0000      -0.328677        -8.9437
  66   2.0000      -0.295417        -8.0387
  67   0.0000       0.032456         0.8832
  68   0.0000       0.065058         1.7703
  69   0.0000       0.108788         2.9603
  70   0.0000       0.118026         3.2117
  71   0.0000       0.127005         3.4560

MULLIKEN ATOMIC CHARGES
-----------------------
   0 S :    0.116907
   1 C :   -0.126359
   2 C :   -0.091754
   3 C :    0.029736
   4 C :   -0.181179
   5 H :    0.010965
   6 C :    0.096363
   7 H :    0.010915
   8 H :    0.041803
   9 C :   -0.069738
  10 H :    0.024224
  11 H :    0.039653
  12 C :   -0.069822
  13 H :    0.031726
  14 H :    0.040202
  15 H :    0.038278
  16 S :    0.102860
  17 C :   -0.079604
  18 C :   -0.018287
  19 C :   -0.033377
  20 C :   -0.150467
  21 H :   -0.001594
  22 C :    0.037832
  23 H :    0.033464
  24 H :    0.014556
  25 C :   -0.069155
  26 H :    0.038222
  27 H :    0.023558
  28 C :   -0.035188
  29 H :    0.037952
  30 H :    0.040269
  31 H :    0.026193
  32 H :    0.040336
  33 H :    0.050511
Sum of atomic charges:    0.0000000

LOEWDIN ATOMIC CHARGES
----------------------
   0 S :    0.414635
   1 C :   -0.181535
   2 C :   -0.066553
   3 C :   -0.050143
   4 C :   -0.204774
   5 H :    0.030352
   6 C :   -0.041532
   7 H :    0.033468
   8 H :    0.034823
   9 C :   -0.036286
  10 H :    0.024688
  11 H :    0.028926
  12 C :   -0.071365
  13 H :    0.030810
  14 H :    0.030293
  15 H :    0.020168
  16 S :    0.396842
  17 C :   -0.177014
  18 C :   -0.074332
  19 C :   -0.047853
  20 C :   -0.205477
  21 H :    0.024953
  22 C :   -0.036459
  23 H :    0.033269
  24 H :    0.015449
  25 C :   -0.039204
  26 H :    0.026763
  27 H :    0.022464
  28 C :   -0.062613
  29 H :    0.024912
  30 H :    0.029456
  31 H :    0.024117
  32 H :    0.018187
  33 H :    0.030562

  Mayer bond orders larger than 0.100000
B(  0-S ,  1-C ) :   1.1619 B(  0-S ,  4-C ) :   1.1222 B(  1-C ,  2-C ) :   1.5810
B(  1-C , 32-H ) :   0.9715 B(  2-C ,  3-C ) :   1.2483 B(  2-C ,  6-C ) :   1.0210
B(  3-C ,  4-C ) :   1.5974 B(  3-C ,  5-H ) :   0.9837 B(  4-C , 20-C ) :   1.0843
B(  6-C ,  7-H ) :   0.9308 B(  6-C ,  8-H ) :   0.9325 B(  6-C ,  9-C ) :   1.0747
B(  9-C , 10-H ) :   0.9519 B(  9-C , 11-H ) :   0.9566 B(  9-C , 12-C ) :   1.0871
B( 12-C , 13-H ) :   0.9736 B( 12-C , 14-H ) :   0.9756 B( 12-C , 15-H ) :   0.9674
B( 16-S , 17-C ) :   1.1557 B( 16-S , 20-C ) :   1.1109 B( 17-C , 18-C ) :   1.6279
B( 17-C , 33-H ) :   0.9620 B( 18-C , 19-C ) :   1.2305 B( 18-C , 21-H ) :   0.9995
B( 19-C , 20-C ) :   1.5917 B( 19-C , 22-C ) :   1.0325 B( 22-C , 23-H ) :   0.9392
B( 22-C , 24-H ) :   0.9287 B( 22-C , 25-C ) :   1.0659 B( 25-C , 26-H ) :   0.9568
B( 25-C , 27-H ) :   0.9559 B( 25-C , 28-C ) :   1.0713 B( 28-C , 29-H ) :   0.9773
B( 28-C , 30-H ) :   0.9769 B( 28-C , 31-H ) :   0.9742

Dispersion correction           -0.014577733
FINAL SINGLE POINT ENERGY     -1339.874601557946

DIPOLE MOMENT
-------------
                                X             Y             Z
Electronic contribution:     -1.56445       9.72884      13.08539
Nuclear contribution   :      1.51499      -9.87563     -13.42517
                        -----------------------------------------
Total Dipole Moment    :     -0.04946      -0.14679      -0.33978
                        -----------------------------------------
Magnitude (a.u.)       :      0.37343
Magnitude (Debye)      :      0.94917

Rotational constants in cm-1:     0.019900     0.008507     0.006793
Rotational constants in MHz :   596.600058   255.037418   203.647590

                             ****ORCA TERMINATED NORMALLY****
TOTAL RUN TIME: 0 days 0 hours 0 minutes 21 seconds 530 msec
