                         Program Version 4.2.1 -  RELEASE  -
|  1> ! wB97X-D3 SP def2-SVP
|  2> %pal
|  3> nprocs 24
|  4> end
|  5>
|  6> * xyz 0 1
|  7> S 	 -51.288 	 19.9685 	 27.0688
|  8> C 	 -50.6598 	 18.3595 	 26.721
|  9> C 	 -50.8684 	 17.424 	 27.7314
| 10> C 	 -51.442 	 18.0939 	 28.8453
| 11> C 	 -51.7996 	 19.4386 	 28.6423
| 12> H 	 -51.5627 	 17.6056 	 29.7578
| 13> C 	 -50.3328 	 16.0267 	 27.765
| 14> H 	 -50.5346 	 15.5584 	 28.7081
| 15> H 	 -49.2253 	 16.0506 	 27.7445
| 16> C 	 -50.8301 	 15.0382 	 26.7669
| 17> H 	 -50.7842 	 15.4281 	 25.7484
| 18> H 	 -50.1758 	 14.1608 	 26.6998
| 19> C 	 -52.2929 	 14.5747 	 26.8837
| 20> H 	 -52.6236 	 14.2062 	 27.9305
| 21> H 	 -52.9782 	 15.3649 	 26.6779
| 22> H 	 -52.5705 	 13.7223 	 26.2071
| 23> S 	 -51.3816 	 21.631 	 30.3081
| 24> C 	 -52.7038 	 22.1341 	 31.2608
| 25> C 	 -53.7728 	 21.2743 	 31.1705
| 26> C 	 -53.6278 	 20.2802 	 30.1696
| 27> C 	 -52.3968 	 20.3415 	 29.5991
| 28> H 	 -54.6117 	 21.4498 	 31.8122
| 29> C 	 -54.6516 	 19.2452 	 29.841
| 30> H 	 -54.7972 	 18.6729 	 30.7602
| 31> H 	 -54.4847 	 18.4957 	 28.9883
| 32> C 	 -55.9528 	 20.0219 	 29.6172
| 33> H 	 -55.7902 	 20.8042 	 28.8407
| 34> H 	 -56.201 	 20.5189 	 30.5042
| 35> C 	 -57.0897 	 19.0667 	 29.1713
| 36> H 	 -56.8724 	 18.3283 	 28.4106
| 37> H 	 -58.0199 	 19.6787 	 29.0283
| 38> H 	 -57.3672 	 18.4513 	 30.0072
| 39> H 	 -50.187 	 17.9788 	 25.8152
| 40> H 	 -52.6467 	 22.9622 	 31.9911
| 41> *
| 42>
| 43>                          ****END OF INPUT****

CARTESIAN COORDINATES (ANGSTROEM)
---------------------------------
  S    -51.288000   19.968500   27.068800
  C    -50.659800   18.359500   26.721000
  C    -50.868400   17.424000   27.731400
  C    -51.442000   18.093900   28.845300
  C    -51.799600   19.438600   28.642300
  H    -51.562700   17.605600   29.757800
  C    -50.332800   16.026700   27.765000
  H    -50.534600   15.558400   28.708100
  H    -49.225300   16.050600   27.744500
  C    -50.830100   15.038200   26.766900
  H    -50.784200   15.428100   25.748400
  H    -50.175800   14.160800   26.699800
  C    -52.292900   14.574700   26.883700
  H    -52.623600   14.206200   27.930500
  H    -52.978200   15.364900   26.677900
  H    -52.570500   13.722300   26.207100
  S    -51.381600   21.631000   30.308100
  C    -52.703800   22.134100   31.260800
  C    -53.772800   21.274300   31.170500
  C    -53.627800   20.280200   30.169600
  C    -52.396800   20.341500   29.599100
  H    -54.611700   21.449800   31.812200
  C    -54.651600   19.245200   29.841000
  H    -54.797200   18.672900   30.760200
  H    -54.484700   18.495700   28.988300
  C    -55.952800   20.021900   29.617200
  H    -55.790200   20.804200   28.840700
  H    -56.201000   20.518900   30.504200
  C    -57.089700   19.066700   29.171300
  H    -56.872400   18.328300   28.410600
  H    -58.019900   19.678700   29.028300
  H    -57.367200   18.451300   30.007200
  H    -50.187000   17.978800   25.815200
  H    -52.646700   22.962200   31.991100

 Total Charge           Charge          ....    0
 Multiplicity           Mult            ....    1
 Number of Electrons    NEL             ....  134
 Basis Dimension        Dim             ....  322

ORBITAL ENERGIES
----------------

  NO   OCC          E(Eh)            E(eV)
   0   2.0000     -88.970193     -2421.0020
   1   2.0000     -88.961880     -2420.7758
   2   2.0000     -10.324762      -280.9511
   3   2.0000     -10.318044      -280.7682
   4   2.0000     -10.315853      -280.7086
   5   2.0000     -10.313503      -280.6447
   6   2.0000     -10.298827      -280.2453
   7   2.0000     -10.297834      -280.2183
   8   2.0000     -10.293203      -280.0923
   9   2.0000     -10.292316      -280.0681
  10   2.0000     -10.290087      -280.0075
  11   2.0000     -10.289050      -279.9793
  12   2.0000     -10.287819      -279.9458
  13   2.0000     -10.284042      -279.8430
  14   2.0000     -10.282312      -279.7959
  15   2.0000     -10.276712      -279.6435
  16   2.0000      -8.084421      -219.9883
  17   2.0000      -8.077228      -219.7925
  18   2.0000      -6.042833      -164.4338
  19   2.0000      -6.038931      -164.3277
  20   2.0000      -6.035587      -164.2367
  21   2.0000      -6.035391      -164.2313
  22   2.0000      -6.031777      -164.1330
  23   2.0000      -6.027979      -164.0297
  24   2.0000      -1.007700       -27.4209
  25   2.0000      -0.985151       -26.8073
  26   2.0000      -0.917870       -24.9765
  27   2.0000      -0.914408       -24.8823
  28   2.0000      -0.867596       -23.6085
  29   2.0000      -0.851562       -23.1722
  30   2.0000      -0.845091       -22.9961
  31   2.0000      -0.808136       -21.9905
  32   2.0000      -0.786393       -21.3988
  33   2.0000      -0.773668       -21.0526
  34   2.0000      -0.704878       -19.1807
  35   2.0000      -0.703144       -19.1335
  36   2.0000      -0.697373       -18.9765
  37   2.0000      -0.656214       -17.8565
  38   2.0000      -0.635673       -17.2975
  39   2.0000      -0.616850       -16.7853
  40   2.0000      -0.601669       -16.3723
  41   2.0000      -0.577560       -15.7162
  42   2.0000      -0.565623       -15.3914
  43   2.0000      -0.556064       -15.1313
  44   2.0000      -0.541172       -14.7261
  45   2.0000      -0.521640       -14.1945
  46   2.0000      -0.511625       -13.9220
  47   2.0000      -0.506764       -13.7897
  48   2.0000      -0.502732       -13.6800
  49   2.0000      -0.495118       -13.4728
  50   2.0000      -0.487047       -13.2532
  51   2.0000      -0.475904       -12.9500
  52   2.0000      -0.471838       -12.8394
  53   2.0000      -0.464868       -12.6497
  54   2.0000      -0.460808       -12.5392
  55   2.0000      -0.449052       -12.2193
  56   2.0000      -0.445700       -12.1281
  57   2.0000      -0.439268       -11.9531
  58   2.0000      -0.439145       -11.9497
  59   2.0000      -0.426203       -11.5976
  60   2.0000      -0.420459       -11.4413
  61   2.0000      -0.412949       -11.2369
  62   2.0000      -0.412325       -11.2199
  63   2.0000      -0.336142        -9.1469
  64   2.0000      -0.329434        -8.9643
  65   2.0000      -0.328042        -8.9265
  66   2.0000      -0.298319        -8.1177
  67   0.0000       0.037363         1.0167
  68   0.0000       0.064561         1.7568
  69   0.0000       0.117380         3.1941
  70   0.0000       0.118137         3.2147
  71   0.0000       0.126477         3.4416

MULLIKEN ATOMIC CHARGES
-----------------------
   0 S :    0.136134
   1 C :   -0.115054
   2 C :   -0.095053
   3 C :    0.069810
   4 C :   -0.192759
   5 H :   -0.018308
   6 C :    0.085869
   7 H :    0.006508
   8 H :    0.047210
   9 C :   -0.062575
  10 H :    0.019990
  11 H :    0.027838
  12 C :   -0.091865
  13 H :    0.026825
  14 H :    0.034948
  15 H :    0.043038
  16 S :    0.112427
  17 C :   -0.094321
  18 C :   -0.052352
  19 C :    0.011984
  20 C :   -0.186220
  21 H :    0.013198
  22 C :    0.079168
  23 H :    0.027456
  24 H :    0.055674
  25 C :   -0.121892
  26 H :    0.044559
  27 H :    0.019640
  28 C :   -0.017881
  29 H :    0.034898
  30 H :    0.038151
  31 H :    0.007519
  32 H :    0.040410
  33 H :    0.065026
Sum of atomic charges:   -0.0000000

LOEWDIN ATOMIC CHARGES
----------------------
   0 S :    0.420813
   1 C :   -0.195633
   2 C :   -0.067198
   3 C :   -0.046745
   4 C :   -0.207120
   5 H :    0.018596
   6 C :   -0.034528
   7 H :    0.028341
   8 H :    0.043358
   9 C :   -0.046385
  10 H :    0.023252
  11 H :    0.027368
  12 C :   -0.075403
  13 H :    0.026362
  14 H :    0.020054
  15 H :    0.032642
  16 S :    0.402400
  17 C :   -0.192716
  18 C :   -0.076811
  19 C :   -0.048203
  20 C :   -0.199770
  21 H :    0.027176
  22 C :   -0.032054
  23 H :    0.033376
  24 H :    0.042387
  25 C :   -0.035797
  26 H :    0.028629
  27 H :    0.014237
  28 C :   -0.071415
  29 H :    0.024840
  30 H :    0.033143
  31 H :    0.020333
  32 H :    0.027211
  33 H :    0.035262

  Mayer bond orders larger than 0.100000
B(  0-S ,  1-C ) :   1.1529 B(  0-S ,  4-C ) :   1.1580 B(  1-C ,  2-C ) :   1.5962
B(  1-C ,  4-C ) :   0.1021 B(  1-C , 32-H ) :   0.9596 B(  2-C ,  3-C ) :   1.2694
B(  2-C ,  6-C ) :   1.0198 B(  3-C ,  4-C ) :   1.5462 B(  3-C ,  5-H ) :   1.0030
B(  4-C , 20-C ) :   1.0396 B(  6-C ,  7-H ) :   0.9376 B(  6-C ,  8-H ) :   0.9347
B(  6-C ,  9-C ) :   1.0781 B(  9-C , 10-H ) :   0.9539 B(  9-C , 11-H ) :   0.9523
B(  9-C , 12-C ) :   1.0697 B( 12-C , 13-H ) :   0.9745 B( 12-C , 14-H ) :   0.9767
B( 12-C , 15-H ) :   0.9751 B( 16-S , 17-C ) :   1.1666 B( 16-S , 20-C ) :   1.1262
B( 17-C , 18-C ) :   1.6241 B( 17-C , 33-H ) :   0.9613 B( 18-C , 19-C ) :   1.2091
B( 18-C , 21-H ) :   0.9922 B( 19-C , 20-C ) :   1.6310 B( 19-C , 22-C ) :   1.0426
B( 22-C , 23-H ) :   0.9220 B( 22-C , 24-H ) :   0.9422 B( 22-C , 25-C ) :   1.0480
B( 25-C , 26-H ) :   0.9628 B( 25-C , 27-H ) :   0.9517 B( 25-C , 28-C ) :   1.0874
B( 28-C , 29-H ) :   0.9749 B( 28-C , 30-H ) :   0.9719 B( 28-C , 31-H ) :   0.9673

Dispersion correction           -0.013982627
FINAL SINGLE POINT ENERGY     -1339.878970809780

DIPOLE MOMENT
-------------
                                X             Y             Z
Electronic contribution:     16.36917      23.19628       2.98001
Nuclear contribution   :    -16.63092     -23.72054      -2.71730
                        -----------------------------------------
Total Dipole Moment    :     -0.26175      -0.52426       0.26272
                        -----------------------------------------
Magnitude (a.u.)       :      0.64217
Magnitude (Debye)      :      1.63227

Rotational constants in cm-1:     0.018069     0.008644     0.006649
Rotational constants in MHz :   541.708981   259.140035   199.328244

                             ****ORCA TERMINATED NORMALLY****
TOTAL RUN TIME: 0 days 0 hours 0 minutes 21 seconds 518 msec
