                         Program Version 4.2.1 -  RELEASE  -
|  1> ! wB97X-D3 SP def2-SVP
|  2> %pal
|  3> nprocs 24
|  4> end
|  5>
|  6> * xyz 0 1
|  7> S 	 -91.3809 	 -32.0526 	 -73.1383
|  8> C 	 -91.7838 	 -32.6755 	 -74.6663
|  9> C 	 -91.5652 	 -31.7111 	 -75.6291
| 10> C 	 -91.2369 	 -30.4359 	 -75.0503
| 11> C 	 -91.3109 	 -30.4544 	 -73.6869
| 12> H 	 -91.1145 	 -29.5025 	 -75.6457
| 13> C 	 -91.6958 	 -31.877 	 -77.1159
| 14> H 	 -90.911 	 -32.6341 	 -77.2999
| 15> H 	 -91.4252 	 -30.9642 	 -77.7006
| 16> C 	 -92.9276 	 -32.3594 	 -77.6983
| 17> H 	 -92.8113 	 -32.4903 	 -78.7596
| 18> H 	 -93.2076 	 -33.3307 	 -77.1944
| 19> C 	 -94.1036 	 -31.4327 	 -77.5485
| 20> H 	 -93.8011 	 -30.3691 	 -77.7487
| 21> H 	 -94.899 	 -31.8142 	 -78.2024
| 22> H 	 -94.4632 	 -31.5374 	 -76.517
| 23> S 	 -91.0104 	 -29.5879 	 -71.0892
| 24> C 	 -91.3228 	 -27.8882 	 -70.6747
| 25> C 	 -91.6857 	 -27.1799 	 -71.778
| 26> C 	 -91.7931 	 -27.9724 	 -72.9526
| 27> C 	 -91.4282 	 -29.2894 	 -72.7828
| 28> H 	 -91.9483 	 -26.1354 	 -71.6686
| 29> C 	 -92.3427 	 -27.2707 	 -74.1931
| 30> H 	 -93.3772 	 -26.8048 	 -74.0284
| 31> H 	 -92.6073 	 -28.0158 	 -74.9798
| 32> C 	 -91.452 	 -26.2304 	 -74.8333
| 33> H 	 -90.5051 	 -26.6984 	 -74.9346
| 34> H 	 -91.3822 	 -25.2329 	 -74.3025
| 35> C 	 -91.8605 	 -25.9746 	 -76.33
| 36> H 	 -92.844 	 -25.6238 	 -76.4735
| 37> H 	 -91.8405 	 -26.9018 	 -76.9278
| 38> H 	 -91.1334 	 -25.2108 	 -76.7328
| 39> H 	 -92.1393 	 -33.6368 	 -75.0462
| 40> H 	 -91.323 	 -27.452 	 -69.6399
| 41> *
| 42>
| 43>                          ****END OF INPUT****

CARTESIAN COORDINATES (ANGSTROEM)
---------------------------------
  S    -91.380900  -32.052600  -73.138300
  C    -91.783800  -32.675500  -74.666300
  C    -91.565200  -31.711100  -75.629100
  C    -91.236900  -30.435900  -75.050300
  C    -91.310900  -30.454400  -73.686900
  H    -91.114500  -29.502500  -75.645700
  C    -91.695800  -31.877000  -77.115900
  H    -90.911000  -32.634100  -77.299900
  H    -91.425200  -30.964200  -77.700600
  C    -92.927600  -32.359400  -77.698300
  H    -92.811300  -32.490300  -78.759600
  H    -93.207600  -33.330700  -77.194400
  C    -94.103600  -31.432700  -77.548500
  H    -93.801100  -30.369100  -77.748700
  H    -94.899000  -31.814200  -78.202400
  H    -94.463200  -31.537400  -76.517000
  S    -91.010400  -29.587900  -71.089200
  C    -91.322800  -27.888200  -70.674700
  C    -91.685700  -27.179900  -71.778000
  C    -91.793100  -27.972400  -72.952600
  C    -91.428200  -29.289400  -72.782800
  H    -91.948300  -26.135400  -71.668600
  C    -92.342700  -27.270700  -74.193100
  H    -93.377200  -26.804800  -74.028400
  H    -92.607300  -28.015800  -74.979800
  C    -91.452000  -26.230400  -74.833300
  H    -90.505100  -26.698400  -74.934600
  H    -91.382200  -25.232900  -74.302500
  C    -91.860500  -25.974600  -76.330000
  H    -92.844000  -25.623800  -76.473500
  H    -91.840500  -26.901800  -76.927800
  H    -91.133400  -25.210800  -76.732800
  H    -92.139300  -33.636800  -75.046200
  H    -91.323000  -27.452000  -69.639900

 Total Charge           Charge          ....    0
 Multiplicity           Mult            ....    1
 Number of Electrons    NEL             ....  134
 Basis Dimension        Dim             ....  322

ORBITAL ENERGIES
----------------

  NO   OCC          E(Eh)            E(eV)
   0   2.0000     -88.968125     -2420.9458
   1   2.0000     -88.963973     -2420.8328
   2   2.0000     -10.334299      -281.2106
   3   2.0000     -10.327735      -281.0320
   4   2.0000     -10.322081      -280.8781
   5   2.0000     -10.310485      -280.5626
   6   2.0000     -10.304828      -280.4086
   7   2.0000     -10.299187      -280.2551
   8   2.0000     -10.297887      -280.2197
   9   2.0000     -10.293920      -280.1118
  10   2.0000     -10.291557      -280.0475
  11   2.0000     -10.290409      -280.0163
  12   2.0000     -10.289131      -279.9815
  13   2.0000     -10.283220      -279.8207
  14   2.0000     -10.281969      -279.7866
  15   2.0000     -10.278099      -279.6813
  16   2.0000      -8.084617      -219.9936
  17   2.0000      -8.078373      -219.8237
  18   2.0000      -6.043216      -164.4443
  19   2.0000      -6.038897      -164.3267
  20   2.0000      -6.037095      -164.2777
  21   2.0000      -6.035144      -164.2246
  22   2.0000      -6.033009      -164.1665
  23   2.0000      -6.028861      -164.0536
  24   2.0000      -1.018656       -27.7190
  25   2.0000      -0.990125       -26.9427
  26   2.0000      -0.929276       -25.2869
  27   2.0000      -0.908469       -24.7207
  28   2.0000      -0.873309       -23.7639
  29   2.0000      -0.854358       -23.2483
  30   2.0000      -0.845129       -22.9971
  31   2.0000      -0.818200       -22.2643
  32   2.0000      -0.784650       -21.3514
  33   2.0000      -0.773460       -21.0469
  34   2.0000      -0.705811       -19.2061
  35   2.0000      -0.698455       -19.0059
  36   2.0000      -0.691085       -18.8054
  37   2.0000      -0.663711       -18.0605
  38   2.0000      -0.632249       -17.2044
  39   2.0000      -0.615597       -16.7513
  40   2.0000      -0.596731       -16.2379
  41   2.0000      -0.587864       -15.9966
  42   2.0000      -0.566427       -15.4133
  43   2.0000      -0.562846       -15.3158
  44   2.0000      -0.552501       -15.0343
  45   2.0000      -0.526274       -14.3206
  46   2.0000      -0.513509       -13.9733
  47   2.0000      -0.510726       -13.8976
  48   2.0000      -0.504489       -13.7278
  49   2.0000      -0.502472       -13.6729
  50   2.0000      -0.492909       -13.4127
  51   2.0000      -0.478164       -13.0115
  52   2.0000      -0.471396       -12.8273
  53   2.0000      -0.467202       -12.7132
  54   2.0000      -0.461492       -12.5578
  55   2.0000      -0.450841       -12.2680
  56   2.0000      -0.443224       -12.0607
  57   2.0000      -0.442821       -12.0498
  58   2.0000      -0.432191       -11.7605
  59   2.0000      -0.419788       -11.4230
  60   2.0000      -0.417373       -11.3573
  61   2.0000      -0.412892       -11.2354
  62   2.0000      -0.410580       -11.1724
  63   2.0000      -0.361171        -9.8280
  64   2.0000      -0.336001        -9.1431
  65   2.0000      -0.325045        -8.8449
  66   2.0000      -0.286327        -7.7914
  67   0.0000       0.021246         0.5781
  68   0.0000       0.083830         2.2811
  69   0.0000       0.093857         2.5540
  70   0.0000       0.113172         3.0796
  71   0.0000       0.126406         3.4397

MULLIKEN ATOMIC CHARGES
-----------------------
   0 S :    0.129012
   1 C :   -0.100384
   2 C :   -0.122632
   3 C :   -0.017495
   4 C :   -0.094274
   5 H :    0.019657
   6 C :    0.051545
   7 H :    0.041341
   8 H :    0.022443
   9 C :   -0.073319
  10 H :    0.026730
  11 H :    0.020460
  12 C :   -0.057361
  13 H :    0.031931
  14 H :    0.038302
  15 H :    0.040007
  16 S :    0.074189
  17 C :   -0.097762
  18 C :   -0.024695
  19 C :   -0.038073
  20 C :   -0.103819
  21 H :    0.021340
  22 C :    0.001147
  23 H :    0.040917
  24 H :    0.016370
  25 C :   -0.065562
  26 H :    0.027658
  27 H :    0.049034
  28 C :   -0.068502
  29 H :    0.020924
  30 H :    0.027253
  31 H :    0.047034
  32 H :    0.040737
  33 H :    0.075845
Sum of atomic charges:    0.0000000

LOEWDIN ATOMIC CHARGES
----------------------
   0 S :    0.449013
   1 C :   -0.225639
   2 C :   -0.061898
   3 C :   -0.073578
   4 C :   -0.206114
   5 H :    0.034327
   6 C :   -0.043759
   7 H :    0.041293
   8 H :    0.032517
   9 C :   -0.050032
  10 H :    0.024445
  11 H :    0.025069
  12 C :   -0.066799
  13 H :    0.025989
  14 H :    0.028651
  15 H :    0.027679
  16 S :    0.372639
  17 C :   -0.177106
  18 C :   -0.070090
  19 C :   -0.062852
  20 C :   -0.176338
  21 H :    0.034752
  22 C :   -0.044470
  23 H :    0.037709
  24 H :    0.028298
  25 C :   -0.041822
  26 H :    0.021970
  27 H :    0.031346
  28 C :   -0.065519
  29 H :    0.014059
  30 H :    0.023169
  31 H :    0.034282
  32 H :    0.035594
  33 H :    0.043217

  Mayer bond orders larger than 0.100000
B(  0-S ,  1-C ) :   1.1351 B(  0-S ,  4-C ) :   1.1698 B(  1-C ,  2-C ) :   1.6061
B(  1-C , 32-H ) :   0.9676 B(  2-C ,  3-C ) :   1.2528 B(  2-C ,  6-C ) :   1.0082
B(  3-C ,  4-C ) :   1.5473 B(  3-C ,  5-H ) :   0.9917 B(  4-C , 20-C ) :   1.0419
B(  6-C ,  7-H ) :   0.9251 B(  6-C ,  8-H ) :   0.9421 B(  6-C ,  9-C ) :   1.1116
B(  9-C , 10-H ) :   0.9486 B(  9-C , 11-H ) :   0.9447 B(  9-C , 12-C ) :   1.0782
B( 12-C , 13-H ) :   0.9725 B( 12-C , 14-H ) :   0.9736 B( 12-C , 15-H ) :   0.9738
B( 16-S , 17-C ) :   1.1341 B( 16-S , 20-C ) :   1.1174 B( 17-C , 18-C ) :   1.6425
B( 17-C , 33-H ) :   0.9594 B( 18-C , 19-C ) :   1.2199 B( 18-C , 21-H ) :   0.9904
B( 19-C , 20-C ) :   1.6318 B( 19-C , 22-C ) :   1.0377 B( 22-C , 23-H ) :   0.9335
B( 22-C , 24-H ) :   0.9403 B( 22-C , 25-C ) :   1.0608 B( 25-C , 26-H ) :   0.9527
B( 25-C , 27-H ) :   0.9528 B( 25-C , 28-C ) :   1.0835 B( 28-C , 29-H ) :   0.9762
B( 28-C , 30-H ) :   0.9735 B( 28-C , 31-H ) :   0.9758

Dispersion correction           -0.014301835
FINAL SINGLE POINT ENERGY     -1339.867177537631

DIPOLE MOMENT
-------------
                                X             Y             Z
Electronic contribution:      9.41790     -10.97924      28.10391
Nuclear contribution   :     -9.70671      11.34915     -28.70310
                        -----------------------------------------
Total Dipole Moment    :     -0.28881       0.36990      -0.59919
                        -----------------------------------------
Magnitude (a.u.)       :      0.76109
Magnitude (Debye)      :      1.93454

Rotational constants in cm-1:     0.017208     0.009934     0.006716
Rotational constants in MHz :   515.868734   297.814971   201.354687

                             ****ORCA TERMINATED NORMALLY****
TOTAL RUN TIME: 0 days 0 hours 0 minutes 22 seconds 129 msec
