                         Program Version 4.2.1 -  RELEASE  -
|  1> ! wB97X-D3 SP def2-SVP
|  2> %pal
|  3> nprocs 24
|  4> end
|  5>
|  6> * xyz 0 1
|  7> S 	 -121.857 	 22.2602 	 -15.1533
|  8> C 	 -120.77 	 21.8333 	 -16.4022
|  9> C 	 -120.208 	 22.9987 	 -17.0145
| 10> C 	 -120.661 	 24.1945 	 -16.3728
| 11> C 	 -121.466 	 23.9779 	 -15.305
| 12> H 	 -120.436 	 25.2917 	 -16.4888
| 13> C 	 -119.405 	 23.0219 	 -18.2929
| 14> H 	 -120.049 	 23.3884 	 -19.0125
| 15> H 	 -119.151 	 22.0352 	 -18.6421
| 16> C 	 -118.048 	 23.6857 	 -18.1522
| 17> H 	 -117.616 	 23.8415 	 -19.147
| 18> H 	 -118.246 	 24.633 	 -17.6753
| 19> C 	 -116.999 	 22.8411 	 -17.4731
| 20> H 	 -117.2 	 22.85 	 -16.3721
| 21> H 	 -117.1 	 21.8354 	 -17.9338
| 22> H 	 -116.061 	 23.2329 	 -17.7025
| 23> S 	 -120.801 	 25.7735 	 -13.3239
| 24> C 	 -122.035 	 26.8825 	 -12.7133
| 25> C 	 -123.283 	 26.6644 	 -13.2867
| 26> C 	 -123.238 	 25.6191 	 -14.1815
| 27> C 	 -121.968 	 25.0222 	 -14.3846
| 28> H 	 -124.056 	 27.32 	 -13.097
| 29> C 	 -124.327 	 25.1065 	 -15.1525
| 30> H 	 -124.499 	 24.0469 	 -15.1013
| 31> H 	 -124.077 	 25.1485 	 -16.2019
| 32> C 	 -125.683 	 25.934 	 -14.9685
| 33> H 	 -126.378 	 25.7107 	 -15.8344
| 34> H 	 -125.582 	 27.0326 	 -14.9852
| 35> C 	 -126.494 	 25.4862 	 -13.8057
| 36> H 	 -125.986 	 25.6001 	 -12.8613
| 37> H 	 -126.748 	 24.435 	 -13.9736
| 38> H 	 -127.423 	 26.0292 	 -13.7692
| 39> H 	 -120.703 	 20.8573 	 -16.8156
| 40> H 	 -121.947 	 27.5857 	 -11.8976
| 41> *
| 42>
| 43>                          ****END OF INPUT****

CARTESIAN COORDINATES (ANGSTROEM)
---------------------------------
  S    -121.857000   22.260200  -15.153300
  C    -120.770000   21.833300  -16.402200
  C    -120.208000   22.998700  -17.014500
  C    -120.661000   24.194500  -16.372800
  C    -121.466000   23.977900  -15.305000
  H    -120.436000   25.291700  -16.488800
  C    -119.405000   23.021900  -18.292900
  H    -120.049000   23.388400  -19.012500
  H    -119.151000   22.035200  -18.642100
  C    -118.048000   23.685700  -18.152200
  H    -117.616000   23.841500  -19.147000
  H    -118.246000   24.633000  -17.675300
  C    -116.999000   22.841100  -17.473100
  H    -117.200000   22.850000  -16.372100
  H    -117.100000   21.835400  -17.933800
  H    -116.061000   23.232900  -17.702500
  S    -120.801000   25.773500  -13.323900
  C    -122.035000   26.882500  -12.713300
  C    -123.283000   26.664400  -13.286700
  C    -123.238000   25.619100  -14.181500
  C    -121.968000   25.022200  -14.384600
  H    -124.056000   27.320000  -13.097000
  C    -124.327000   25.106500  -15.152500
  H    -124.499000   24.046900  -15.101300
  H    -124.077000   25.148500  -16.201900
  C    -125.683000   25.934000  -14.968500
  H    -126.378000   25.710700  -15.834400
  H    -125.582000   27.032600  -14.985200
  C    -126.494000   25.486200  -13.805700
  H    -125.986000   25.600100  -12.861300
  H    -126.748000   24.435000  -13.973600
  H    -127.423000   26.029200  -13.769200
  H    -120.703000   20.857300  -16.815600
  H    -121.947000   27.585700  -11.897600

 Total Charge           Charge          ....    0
 Multiplicity           Mult            ....    1
 Number of Electrons    NEL             ....  134
 Basis Dimension        Dim             ....  322

ORBITAL ENERGIES
----------------

  NO   OCC          E(Eh)            E(eV)
   0   2.0000     -88.970579     -2421.0125
   1   2.0000     -88.966956     -2420.9139
   2   2.0000     -10.328314      -281.0477
   3   2.0000     -10.326026      -280.9855
   4   2.0000     -10.319690      -280.8130
   5   2.0000     -10.316416      -280.7239
   6   2.0000     -10.307775      -280.4888
   7   2.0000     -10.304844      -280.4090
   8   2.0000     -10.297414      -280.2069
   9   2.0000     -10.290830      -280.0277
  10   2.0000     -10.290339      -280.0144
  11   2.0000     -10.288226      -279.9569
  12   2.0000     -10.281325      -279.7691
  13   2.0000     -10.278859      -279.7020
  14   2.0000     -10.273902      -279.5671
  15   2.0000     -10.267950      -279.4051
  16   2.0000      -8.084560      -219.9921
  17   2.0000      -8.081876      -219.9190
  18   2.0000      -6.042834      -164.4339
  19   2.0000      -6.040291      -164.3647
  20   2.0000      -6.039000      -164.3295
  21   2.0000      -6.036274      -164.2554
  22   2.0000      -6.035788      -164.2421
  23   2.0000      -6.032810      -164.1611
  24   2.0000      -1.006566       -27.3901
  25   2.0000      -0.986054       -26.8319
  26   2.0000      -0.918242       -24.9866
  27   2.0000      -0.902636       -24.5620
  28   2.0000      -0.873300       -23.7637
  29   2.0000      -0.851486       -23.1701
  30   2.0000      -0.849315       -23.1110
  31   2.0000      -0.821233       -22.3469
  32   2.0000      -0.782610       -21.2959
  33   2.0000      -0.767909       -20.8959
  34   2.0000      -0.703407       -19.1407
  35   2.0000      -0.693757       -18.8781
  36   2.0000      -0.689289       -18.7565
  37   2.0000      -0.661145       -17.9907
  38   2.0000      -0.644738       -17.5442
  39   2.0000      -0.621621       -16.9152
  40   2.0000      -0.602138       -16.3850
  41   2.0000      -0.576463       -15.6863
  42   2.0000      -0.565358       -15.3842
  43   2.0000      -0.547533       -14.8991
  44   2.0000      -0.541661       -14.7394
  45   2.0000      -0.536687       -14.6040
  46   2.0000      -0.520834       -14.1726
  47   2.0000      -0.512288       -13.9401
  48   2.0000      -0.503468       -13.7001
  49   2.0000      -0.495433       -13.4814
  50   2.0000      -0.482252       -13.1227
  51   2.0000      -0.478366       -13.0170
  52   2.0000      -0.472943       -12.8694
  53   2.0000      -0.469769       -12.7831
  54   2.0000      -0.463020       -12.5994
  55   2.0000      -0.449779       -12.2391
  56   2.0000      -0.444675       -12.1002
  57   2.0000      -0.438204       -11.9241
  58   2.0000      -0.433530       -11.7970
  59   2.0000      -0.423228       -11.5166
  60   2.0000      -0.422172       -11.4879
  61   2.0000      -0.407012       -11.0754
  62   2.0000      -0.401389       -10.9223
  63   2.0000      -0.342589        -9.3223
  64   2.0000      -0.341071        -9.2810
  65   2.0000      -0.321017        -8.7353
  66   2.0000      -0.297944        -8.1075
  67   0.0000       0.034061         0.9268
  68   0.0000       0.056500         1.5374
  69   0.0000       0.113645         3.0925
  70   0.0000       0.122295         3.3278
  71   0.0000       0.131661         3.5827

MULLIKEN ATOMIC CHARGES
-----------------------
   0 S :    0.119909
   1 C :   -0.098116
   2 C :   -0.117069
   3 C :    0.024156
   4 C :   -0.183695
   5 H :    0.040831
   6 C :    0.125823
   7 H :    0.024967
   8 H :   -0.009439
   9 C :   -0.097585
  10 H :    0.022551
  11 H :    0.024713
  12 C :   -0.025366
  13 H :    0.051467
  14 H :    0.024298
  15 H :    0.025662
  16 S :    0.127737
  17 C :   -0.085023
  18 C :   -0.044708
  19 C :    0.022807
  20 C :   -0.189559
  21 H :   -0.002921
  22 C :    0.082605
  23 H :    0.013214
  24 H :    0.032634
  25 C :   -0.121856
  26 H :    0.027053
  27 H :    0.034518
  28 C :   -0.027303
  29 H :    0.027638
  30 H :    0.026177
  31 H :    0.027854
  32 H :    0.044100
  33 H :    0.051926
Sum of atomic charges:   -0.0000000

LOEWDIN ATOMIC CHARGES
----------------------
   0 S :    0.416856
   1 C :   -0.204740
   2 C :   -0.058536
   3 C :   -0.070489
   4 C :   -0.199030
   5 H :    0.046871
   6 C :   -0.027269
   7 H :    0.025594
   8 H :    0.022671
   9 C :   -0.040903
  10 H :    0.024468
  11 H :    0.017561
  12 C :   -0.056753
  13 H :    0.033696
  14 H :    0.027880
  15 H :    0.017519
  16 S :    0.420513
  17 C :   -0.177620
  18 C :   -0.067540
  19 C :   -0.050680
  20 C :   -0.207774
  21 H :    0.023772
  22 C :   -0.029753
  23 H :    0.025894
  24 H :    0.033038
  25 C :   -0.050415
  26 H :    0.029656
  27 H :    0.021255
  28 C :   -0.066042
  29 H :    0.017812
  30 H :    0.026724
  31 H :    0.023877
  32 H :    0.023158
  33 H :    0.028729

  Mayer bond orders larger than 0.100000
B(  0-S ,  1-C ) :   1.1629 B(  0-S ,  4-C ) :   1.1419 B(  1-C ,  2-C ) :   1.5810
B(  1-C , 32-H ) :   0.9729 B(  2-C ,  3-C ) :   1.2221 B(  2-C ,  6-C ) :   1.0255
B(  3-C ,  4-C ) :   1.6149 B(  3-C ,  5-H ) :   0.9774 B(  4-C , 20-C ) :   1.0052
B(  6-C ,  7-H ) :   0.9374 B(  6-C ,  8-H ) :   0.9340 B(  6-C ,  9-C ) :   1.0712
B(  9-C , 10-H ) :   0.9550 B(  9-C , 11-H ) :   0.9587 B(  9-C , 12-C ) :   1.0783
B( 12-C , 13-H ) :   0.9750 B( 12-C , 14-H ) :   0.9704 B( 12-C , 15-H ) :   0.9757
B( 16-S , 17-C ) :   1.1818 B( 16-S , 20-C ) :   1.1629 B( 17-C , 18-C ) :   1.5611
B( 17-C , 20-C ) :   0.1205 B( 17-C , 33-H ) :   0.9615 B( 18-C , 19-C ) :   1.2978
B( 18-C , 21-H ) :   1.0024 B( 19-C , 20-C ) :   1.5489 B( 19-C , 22-C ) :   1.0187
B( 22-C , 23-H ) :   0.9320 B( 22-C , 24-H ) :   0.9370 B( 22-C , 25-C ) :   1.0699
B( 25-C , 26-H ) :   0.9561 B( 25-C , 27-H ) :   0.9568 B( 25-C , 28-C ) :   1.0821
B( 28-C , 29-H ) :   0.9766 B( 28-C , 30-H ) :   0.9716 B( 28-C , 31-H ) :   0.9715

Dispersion correction           -0.014347002
FINAL SINGLE POINT ENERGY     -1339.862404912754

DIPOLE MOMENT
-------------
                                X             Y             Z
Electronic contribution:      3.16816      -1.58926      12.04049
Nuclear contribution   :     -3.30015       1.78403     -12.50902
                        -----------------------------------------
Total Dipole Moment    :     -0.13198       0.19477      -0.46853
                        -----------------------------------------
Magnitude (a.u.)       :      0.52429
Magnitude (Debye)      :      1.33263

Rotational constants in cm-1:     0.023913     0.007432     0.006470
Rotational constants in MHz :   716.884649   222.794932   193.979359

                             ****ORCA TERMINATED NORMALLY****
TOTAL RUN TIME: 0 days 0 hours 0 minutes 21 seconds 367 msec
