                         Program Version 4.2.1 -  RELEASE  -
|  1> ! wB97X-D3 SP def2-SVP
|  2> %pal
|  3> nprocs 24
|  4> end
|  5>
|  6> * xyz 0 1
|  7> S 	 -94.7843 	 2.90285 	 -3.94275
|  8> C 	 -93.1281 	 2.30778 	 -4.15546
|  9> C 	 -92.6278 	 1.9247 	 -2.9062
| 10> C 	 -93.4645 	 2.35033 	 -1.81698
| 11> C 	 -94.6562 	 3.0156 	 -2.18741
| 12> H 	 -93.262 	 2.33291 	 -0.82381
| 13> C 	 -91.2795 	 1.26929 	 -2.64659
| 14> H 	 -91.2841 	 0.30304 	 -3.21017
| 15> H 	 -91.2687 	 0.897759 	 -1.62894
| 16> C 	 -90.0327 	 2.09936 	 -2.98819
| 17> H 	 -89.9595 	 2.47229 	 -3.97791
| 18> H 	 -90.124 	 3.04518 	 -2.46485
| 19> C 	 -88.6645 	 1.37733 	 -2.74446
| 20> H 	 -88.6152 	 0.339941 	 -2.30901
| 21> H 	 -88.0029 	 1.54024 	 -3.61741
| 22> H 	 -88.1671 	 1.94603 	 -2.03572
| 23> S 	 -96.9835 	 4.42882 	 -2.1795
| 24> C 	 -97.791 	 4.85238 	 -0.721453
| 25> C 	 -97.1769 	 4.20949 	 0.308741
| 26> C 	 -95.9818 	 3.499 	 -0.0239261
| 27> C 	 -95.6532 	 3.64309 	 -1.35789
| 28> H 	 -97.5855 	 4.35106 	 1.29845
| 29> C 	 -95.1009 	 2.96679 	 1.06375
| 30> H 	 -95.2927 	 3.50396 	 1.96073
| 31> H 	 -94.0477 	 3.15283 	 0.85285
| 32> C 	 -95.3318 	 1.43646 	 1.38078
| 33> H 	 -96.1984 	 1.35755 	 2.04402
| 34> H 	 -94.5645 	 1.04387 	 1.98915
| 35> C 	 -95.5311 	 0.439159 	 0.255707
| 36> H 	 -94.6938 	 0.635121 	 -0.309666
| 37> H 	 -96.4783 	 0.520292 	 -0.290286
| 38> H 	 -95.5416 	 -0.561297 	 0.657243
| 39> H 	 -92.7186 	 2.06736 	 -5.14995
| 40> H 	 -98.6957 	 5.42463 	 -0.742771
| 41> *
| 42>
| 43>                          ****END OF INPUT****

CARTESIAN COORDINATES (ANGSTROEM)
---------------------------------
  S    -94.784300    2.902850   -3.942750
  C    -93.128100    2.307780   -4.155460
  C    -92.627800    1.924700   -2.906200
  C    -93.464500    2.350330   -1.816980
  C    -94.656200    3.015600   -2.187410
  H    -93.262000    2.332910   -0.823810
  C    -91.279500    1.269290   -2.646590
  H    -91.284100    0.303040   -3.210170
  H    -91.268700    0.897759   -1.628940
  C    -90.032700    2.099360   -2.988190
  H    -89.959500    2.472290   -3.977910
  H    -90.124000    3.045180   -2.464850
  C    -88.664500    1.377330   -2.744460
  H    -88.615200    0.339941   -2.309010
  H    -88.002900    1.540240   -3.617410
  H    -88.167100    1.946030   -2.035720
  S    -96.983500    4.428820   -2.179500
  C    -97.791000    4.852380   -0.721453
  C    -97.176900    4.209490    0.308741
  C    -95.981800    3.499000   -0.023926
  C    -95.653200    3.643090   -1.357890
  H    -97.585500    4.351060    1.298450
  C    -95.100900    2.966790    1.063750
  H    -95.292700    3.503960    1.960730
  H    -94.047700    3.152830    0.852850
  C    -95.331800    1.436460    1.380780
  H    -96.198400    1.357550    2.044020
  H    -94.564500    1.043870    1.989150
  C    -95.531100    0.439159    0.255707
  H    -94.693800    0.635121   -0.309666
  H    -96.478300    0.520292   -0.290286
  H    -95.541600   -0.561297    0.657243
  H    -92.718600    2.067360   -5.149950
  H    -98.695700    5.424630   -0.742771

 Total Charge           Charge          ....    0
 Multiplicity           Mult            ....    1
 Number of Electrons    NEL             ....  134
 Basis Dimension        Dim             ....  322

ORBITAL ENERGIES
----------------

  NO   OCC          E(Eh)            E(eV)
   0   2.0000     -88.964813     -2420.8556
   1   2.0000     -88.961578     -2420.7676
   2   2.0000     -10.334732      -281.2224
   3   2.0000     -10.329191      -281.0716
   4   2.0000     -10.319150      -280.7983
   5   2.0000     -10.315349      -280.6949
   6   2.0000     -10.306623      -280.4575
   7   2.0000     -10.304793      -280.4077
   8   2.0000     -10.294763      -280.1348
   9   2.0000     -10.293474      -280.0997
  10   2.0000     -10.293160      -280.0911
  11   2.0000     -10.289740      -279.9981
  12   2.0000     -10.285911      -279.8939
  13   2.0000     -10.280394      -279.7437
  14   2.0000     -10.278817      -279.7008
  15   2.0000     -10.262278      -279.2508
  16   2.0000      -8.078808      -219.8355
  17   2.0000      -8.077433      -219.7981
  18   2.0000      -6.037456      -164.2875
  19   2.0000      -6.035921      -164.2458
  20   2.0000      -6.033387      -164.1768
  21   2.0000      -6.031733      -164.1318
  22   2.0000      -6.029497      -164.0710
  23   2.0000      -6.028197      -164.0356
  24   2.0000      -1.011712       -27.5301
  25   2.0000      -0.982380       -26.7319
  26   2.0000      -0.910463       -24.7749
  27   2.0000      -0.906972       -24.6800
  28   2.0000      -0.872213       -23.7341
  29   2.0000      -0.854813       -23.2606
  30   2.0000      -0.844153       -22.9706
  31   2.0000      -0.816493       -22.2179
  32   2.0000      -0.786652       -21.4059
  33   2.0000      -0.775313       -21.0973
  34   2.0000      -0.709845       -19.3159
  35   2.0000      -0.708036       -19.2666
  36   2.0000      -0.694353       -18.8943
  37   2.0000      -0.667901       -18.1745
  38   2.0000      -0.643262       -17.5040
  39   2.0000      -0.619609       -16.8604
  40   2.0000      -0.598123       -16.2758
  41   2.0000      -0.566968       -15.4280
  42   2.0000      -0.561601       -15.2819
  43   2.0000      -0.551840       -15.0163
  44   2.0000      -0.548298       -14.9199
  45   2.0000      -0.527785       -14.3618
  46   2.0000      -0.523333       -14.2406
  47   2.0000      -0.512219       -13.9382
  48   2.0000      -0.506492       -13.7823
  49   2.0000      -0.501488       -13.6462
  50   2.0000      -0.496589       -13.5129
  51   2.0000      -0.481680       -13.1072
  52   2.0000      -0.472999       -12.8709
  53   2.0000      -0.464102       -12.6289
  54   2.0000      -0.461329       -12.5534
  55   2.0000      -0.450816       -12.2673
  56   2.0000      -0.445811       -12.1311
  57   2.0000      -0.439795       -11.9674
  58   2.0000      -0.433588       -11.7985
  59   2.0000      -0.420523       -11.4430
  60   2.0000      -0.412559       -11.2263
  61   2.0000      -0.407677       -11.0935
  62   2.0000      -0.402784       -10.9603
  63   2.0000      -0.365394        -9.9429
  64   2.0000      -0.333257        -9.0684
  65   2.0000      -0.324801        -8.8383
  66   2.0000      -0.280944        -7.6449
  67   0.0000       0.011825         0.3218
  68   0.0000       0.088072         2.3966
  69   0.0000       0.095297         2.5932
  70   0.0000       0.120911         3.2902
  71   0.0000       0.140847         3.8326

MULLIKEN ATOMIC CHARGES
-----------------------
   0 S :    0.091264
   1 C :   -0.130428
   2 C :   -0.083590
   3 C :    0.048013
   4 C :   -0.117766
   5 H :   -0.050052
   6 C :    0.071284
   7 H :    0.034877
   8 H :    0.015954
   9 C :   -0.048939
  10 H :    0.014724
  11 H :    0.025956
  12 C :   -0.051236
  13 H :    0.049848
  14 H :    0.033847
  15 H :    0.009874
  16 S :    0.077697
  17 C :   -0.075811
  18 C :   -0.026191
  19 C :   -0.045127
  20 C :   -0.104802
  21 H :    0.015304
  22 C :    0.049900
  23 H :    0.016933
  24 H :    0.036024
  25 C :   -0.087485
  26 H :    0.014773
  27 H :    0.014501
  28 C :    0.008960
  29 H :    0.000626
  30 H :    0.043674
  31 H :    0.024912
  32 H :    0.064710
  33 H :    0.057772
Sum of atomic charges:    0.0000000

LOEWDIN ATOMIC CHARGES
----------------------
   0 S :    0.389303
   1 C :   -0.194528
   2 C :   -0.058588
   3 C :   -0.063457
   4 C :   -0.175373
   5 H :    0.004049
   6 C :   -0.034812
   7 H :    0.035929
   8 H :    0.027764
   9 C :   -0.038684
  10 H :    0.020545
  11 H :    0.025926
  12 C :   -0.076125
  13 H :    0.036000
  14 H :    0.032991
  15 H :    0.018430
  16 S :    0.411692
  17 C :   -0.182754
  18 C :   -0.071239
  19 C :   -0.055953
  20 C :   -0.190902
  21 H :    0.030280
  22 C :   -0.027722
  23 H :    0.030794
  24 H :    0.029058
  25 C :   -0.037589
  26 H :    0.019046
  27 H :    0.017819
  28 C :   -0.056639
  29 H :    0.012611
  30 H :    0.030137
  31 H :    0.027278
  32 H :    0.035127
  33 H :    0.029587

  Mayer bond orders larger than 0.100000
B(  0-S ,  1-C ) :   1.1329 B(  0-S ,  4-C ) :   1.1494 B(  1-C ,  2-C ) :   1.5794
B(  1-C ,  4-C ) :   0.1030 B(  1-C , 32-H ) :   0.9713 B(  2-C ,  3-C ) :   1.2550
B(  2-C ,  6-C ) :   1.0285 B(  3-C ,  4-C ) :   1.5392 B(  3-C ,  5-H ) :   0.9990
B(  4-C , 20-C ) :   1.1138 B(  6-C ,  7-H ) :   0.9343 B(  6-C ,  8-H ) :   0.9435
B(  6-C ,  9-C ) :   1.0580 B(  9-C , 10-H ) :   0.9619 B(  9-C , 11-H ) :   0.9604
B(  9-C , 12-C ) :   1.0545 B( 12-C , 13-H ) :   0.9786 B( 12-C , 14-H ) :   0.9794
B( 12-C , 15-H ) :   0.9739 B( 16-S , 17-C ) :   1.1634 B( 16-S , 20-C ) :   1.1371
B( 17-C , 18-C ) :   1.5852 B( 17-C , 33-H ) :   0.9756 B( 18-C , 19-C ) :   1.2519
B( 18-C , 21-H ) :   0.9937 B( 19-C , 20-C ) :   1.5532 B( 19-C , 22-C ) :   1.0337
B( 22-C , 23-H ) :   0.9373 B( 22-C , 24-H ) :   0.9475 B( 22-C , 25-C ) :   1.0560
B( 25-C , 26-H ) :   0.9544 B( 25-C , 27-H ) :   0.9569 B( 25-C , 28-C ) :   1.0869
B( 28-C , 29-H ) :   0.9742 B( 28-C , 30-H ) :   0.9696 B( 28-C , 31-H ) :   0.9672

Dispersion correction           -0.014764037
FINAL SINGLE POINT ENERGY     -1339.856509982480

DIPOLE MOMENT
-------------
                                X             Y             Z
Electronic contribution:    -21.70564      14.48568     -12.29740
Nuclear contribution   :     22.05761     -14.65700      12.87600
                        -----------------------------------------
Total Dipole Moment    :      0.35197      -0.17132       0.57860
                        -----------------------------------------
Magnitude (a.u.)       :      0.69858
Magnitude (Debye)      :      1.77565

Rotational constants in cm-1:     0.021887     0.008168     0.006613
Rotational constants in MHz :   656.146591   244.883268   198.258601

                             ****ORCA TERMINATED NORMALLY****
TOTAL RUN TIME: 0 days 0 hours 0 minutes 21 seconds 21 msec
