                         Program Version 4.2.1 -  RELEASE  -
|  1> ! wB97X-D3 SP def2-SVP
|  2> %pal
|  3> nprocs 24
|  4> end
|  5>
|  6> * xyz 0 1
|  7> S 	 23.238 	 -0.267298 	 -111.754
|  8> C 	 22.7452 	 -0.284462 	 -113.427
|  9> C 	 23.1441 	 0.817051 	 -114.143
| 10> C 	 23.8231 	 1.72236 	 -113.27
| 11> C 	 23.7744 	 1.41271 	 -111.924
| 12> H 	 24.2281 	 2.68991 	 -113.575
| 13> C 	 23.0976 	 1.08152 	 -115.692
| 14> H 	 23.0476 	 0.0981329 	 -116.182
| 15> H 	 23.9381 	 1.65926 	 -116.018
| 16> C 	 21.8092 	 1.98664 	 -116.002
| 17> H 	 20.9686 	 1.52501 	 -115.554
| 18> H 	 21.883 	 2.94971 	 -115.613
| 19> C 	 21.4766 	 2.30429 	 -117.468
| 20> H 	 20.4579 	 2.14303 	 -117.702
| 21> H 	 21.8082 	 3.27609 	 -117.768
| 22> H 	 22.0531 	 1.64996 	 -118.083
| 23> S 	 25.6047 	 1.69855 	 -109.889
| 24> C 	 25.4104 	 3.05416 	 -108.839
| 25> C 	 24.2841 	 3.79325 	 -109.124
| 26> C 	 23.6366 	 3.36114 	 -110.284
| 27> C 	 24.2375 	 2.17568 	 -110.786
| 28> H 	 24.0541 	 4.6615 	 -108.499
| 29> C 	 22.3579 	 4.00799 	 -110.757
| 30> H 	 22.067 	 4.48813 	 -109.821
| 31> H 	 21.7681 	 3.1136 	 -110.861
| 32> C 	 22.3567 	 4.89067 	 -111.987
| 33> H 	 22.5185 	 4.16598 	 -112.802
| 34> H 	 23.1803 	 5.63136 	 -111.998
| 35> C 	 20.9963 	 5.55185 	 -112.218
| 36> H 	 20.1852 	 4.9303 	 -112.643
| 37> H 	 21.0605 	 6.49625 	 -112.778
| 38> H 	 20.636 	 5.80079 	 -111.211
| 39> H 	 22.2234 	 -1.06449 	 -113.926
| 40> H 	 26.0501 	 3.158 	 -107.986
| 41> *
| 42>
| 43>                          ****END OF INPUT****

CARTESIAN COORDINATES (ANGSTROEM)
---------------------------------
  S     23.238000   -0.267298  -111.754000
  C     22.745200   -0.284462  -113.427000
  C     23.144100    0.817051  -114.143000
  C     23.823100    1.722360  -113.270000
  C     23.774400    1.412710  -111.924000
  H     24.228100    2.689910  -113.575000
  C     23.097600    1.081520  -115.692000
  H     23.047600    0.098133  -116.182000
  H     23.938100    1.659260  -116.018000
  C     21.809200    1.986640  -116.002000
  H     20.968600    1.525010  -115.554000
  H     21.883000    2.949710  -115.613000
  C     21.476600    2.304290  -117.468000
  H     20.457900    2.143030  -117.702000
  H     21.808200    3.276090  -117.768000
  H     22.053100    1.649960  -118.083000
  S     25.604700    1.698550  -109.889000
  C     25.410400    3.054160  -108.839000
  C     24.284100    3.793250  -109.124000
  C     23.636600    3.361140  -110.284000
  C     24.237500    2.175680  -110.786000
  H     24.054100    4.661500  -108.499000
  C     22.357900    4.007990  -110.757000
  H     22.067000    4.488130  -109.821000
  H     21.768100    3.113600  -110.861000
  C     22.356700    4.890670  -111.987000
  H     22.518500    4.165980  -112.802000
  H     23.180300    5.631360  -111.998000
  C     20.996300    5.551850  -112.218000
  H     20.185200    4.930300  -112.643000
  H     21.060500    6.496250  -112.778000
  H     20.636000    5.800790  -111.211000
  H     22.223400   -1.064490  -113.926000
  H     26.050100    3.158000  -107.986000

 Total Charge           Charge          ....    0
 Multiplicity           Mult            ....    1
 Number of Electrons    NEL             ....  134
 Basis Dimension        Dim             ....  322

ORBITAL ENERGIES
----------------

  NO   OCC          E(Eh)            E(eV)
   0   2.0000     -88.967676     -2420.9336
   1   2.0000     -88.965806     -2420.8827
   2   2.0000     -10.326363      -280.9946
   3   2.0000     -10.319159      -280.7986
   4   2.0000     -10.311168      -280.5812
   5   2.0000     -10.311164      -280.5810
   6   2.0000     -10.304454      -280.3985
   7   2.0000     -10.302196      -280.3370
   8   2.0000     -10.298816      -280.2450
   9   2.0000     -10.293069      -280.0886
  10   2.0000     -10.289991      -280.0049
  11   2.0000     -10.288001      -279.9507
  12   2.0000     -10.284964      -279.8681
  13   2.0000     -10.279774      -279.7269
  14   2.0000     -10.279055      -279.7073
  15   2.0000     -10.268419      -279.4179
  16   2.0000      -8.083518      -219.9637
  17   2.0000      -8.080332      -219.8770
  18   2.0000      -6.041675      -164.4023
  19   2.0000      -6.038868      -164.3259
  20   2.0000      -6.037808      -164.2971
  21   2.0000      -6.035019      -164.2212
  22   2.0000      -6.034672      -164.2118
  23   2.0000      -6.030938      -164.1102
  24   2.0000      -1.010096       -27.4861
  25   2.0000      -0.986348       -26.8399
  26   2.0000      -0.912507       -24.8306
  27   2.0000      -0.903362       -24.5817
  28   2.0000      -0.870434       -23.6857
  29   2.0000      -0.855859       -23.2891
  30   2.0000      -0.847249       -23.0548
  31   2.0000      -0.812950       -22.1215
  32   2.0000      -0.784140       -21.3375
  33   2.0000      -0.770152       -20.9569
  34   2.0000      -0.707776       -19.2596
  35   2.0000      -0.703993       -19.1566
  36   2.0000      -0.693297       -18.8656
  37   2.0000      -0.661749       -18.0071
  38   2.0000      -0.641224       -17.4486
  39   2.0000      -0.616446       -16.7744
  40   2.0000      -0.593032       -16.1372
  41   2.0000      -0.574015       -15.6197
  42   2.0000      -0.565394       -15.3851
  43   2.0000      -0.556676       -15.1479
  44   2.0000      -0.527588       -14.3564
  45   2.0000      -0.521741       -14.1973
  46   2.0000      -0.515702       -14.0330
  47   2.0000      -0.513892       -13.9837
  48   2.0000      -0.508946       -13.8491
  49   2.0000      -0.497258       -13.5311
  50   2.0000      -0.494545       -13.4573
  51   2.0000      -0.479866       -13.0578
  52   2.0000      -0.469802       -12.7840
  53   2.0000      -0.466633       -12.6977
  54   2.0000      -0.461625       -12.5615
  55   2.0000      -0.448841       -12.2136
  56   2.0000      -0.443128       -12.0581
  57   2.0000      -0.437765       -11.9122
  58   2.0000      -0.430327       -11.7098
  59   2.0000      -0.427013       -11.6196
  60   2.0000      -0.423158       -11.5147
  61   2.0000      -0.420671       -11.4470
  62   2.0000      -0.411137       -11.1876
  63   2.0000      -0.342443        -9.3184
  64   2.0000      -0.330002        -8.9798
  65   2.0000      -0.327215        -8.9040
  66   2.0000      -0.294997        -8.0273
  67   0.0000       0.036372         0.9897
  68   0.0000       0.061113         1.6630
  69   0.0000       0.111933         3.0459
  70   0.0000       0.125094         3.4040
  71   0.0000       0.136133         3.7044

MULLIKEN ATOMIC CHARGES
-----------------------
   0 S :    0.113745
   1 C :   -0.104861
   2 C :   -0.104666
   3 C :    0.055803
   4 C :   -0.196338
   5 H :    0.017183
   6 C :    0.090108
   7 H :    0.034429
   8 H :    0.029485
   9 C :   -0.092759
  10 H :    0.020999
  11 H :    0.022875
  12 C :    0.003751
  13 H :    0.029235
  14 H :    0.021305
  15 H :    0.004798
  16 S :    0.134547
  17 C :   -0.102395
  18 C :   -0.041339
  19 C :   -0.048341
  20 C :   -0.179679
  21 H :    0.025858
  22 C :    0.077650
  23 H :    0.009542
  24 H :    0.036006
  25 C :   -0.047618
  26 H :    0.032005
  27 H :    0.035253
  28 C :   -0.049153
  29 H :    0.040933
  30 H :    0.037920
  31 H :    0.017155
  32 H :    0.027570
  33 H :    0.048995
Sum of atomic charges:    0.0000000

LOEWDIN ATOMIC CHARGES
----------------------
   0 S :    0.395612
   1 C :   -0.193150
   2 C :   -0.064210
   3 C :   -0.056848
   4 C :   -0.192686
   5 H :    0.029236
   6 C :   -0.014643
   7 H :    0.031601
   8 H :    0.028179
   9 C :   -0.035837
  10 H :    0.018708
  11 H :    0.017778
  12 C :   -0.058895
  13 H :    0.023948
  14 H :    0.021688
  15 H :    0.020040
  16 S :    0.445741
  17 C :   -0.192129
  18 C :   -0.076666
  19 C :   -0.050181
  20 C :   -0.233151
  21 H :    0.036647
  22 C :   -0.033238
  23 H :    0.027957
  24 H :    0.037521
  25 C :   -0.043135
  26 H :    0.027963
  27 H :    0.028378
  28 C :   -0.070903
  29 H :    0.029981
  30 H :    0.028305
  31 H :    0.023356
  32 H :    0.021064
  33 H :    0.021968

  Mayer bond orders larger than 0.100000
B(  0-S ,  1-C ) :   1.1407 B(  0-S ,  4-C ) :   1.1306 B(  1-C ,  2-C ) :   1.6377
B(  1-C , 32-H ) :   0.9651 B(  2-C ,  3-C ) :   1.2344 B(  2-C ,  6-C ) :   1.0181
B(  3-C ,  4-C ) :   1.6047 B(  3-C ,  5-H ) :   0.9805 B(  4-C , 20-C ) :   1.0384
B(  6-C ,  7-H ) :   0.9428 B(  6-C ,  8-H ) :   0.9462 B(  6-C ,  9-C ) :   1.0613
B(  9-C , 10-H ) :   0.9655 B(  9-C , 11-H ) :   0.9641 B(  9-C , 12-C ) :   1.0704
B( 12-C , 13-H ) :   0.9766 B( 12-C , 14-H ) :   0.9792 B( 12-C , 15-H ) :   0.9728
B( 16-S , 17-C ) :   1.1819 B( 16-S , 20-C ) :   1.1803 B( 17-C , 18-C ) :   1.5667
B( 17-C , 20-C ) :   0.1068 B( 17-C , 33-H ) :   0.9694 B( 18-C , 19-C ) :   1.2972
B( 18-C , 21-H ) :   0.9869 B( 19-C , 20-C ) :   1.5340 B( 19-C , 22-C ) :   1.0149
B( 22-C , 23-H ) :   0.9328 B( 22-C , 24-H ) :   0.9237 B( 22-C , 25-C ) :   1.0669
B( 25-C , 26-H ) :   0.9449 B( 25-C , 27-H ) :   0.9565 B( 25-C , 28-C ) :   1.0802
B( 28-C , 29-H ) :   0.9742 B( 28-C , 30-H ) :   0.9754 B( 28-C , 31-H ) :   0.9745

Dispersion correction           -0.014526602
FINAL SINGLE POINT ENERGY     -1339.869475701445

DIPOLE MOMENT
-------------
                                X             Y             Z
Electronic contribution:     17.24519     -17.43771      21.92773
Nuclear contribution   :    -17.46913      17.85577     -22.27191
                        -----------------------------------------
Total Dipole Moment    :     -0.22394       0.41806      -0.34419
                        -----------------------------------------
Magnitude (a.u.)       :      0.58599
Magnitude (Debye)      :      1.48947

Rotational constants in cm-1:     0.018306     0.009096     0.006718
Rotational constants in MHz :   548.803546   272.684990   201.413654

                             ****ORCA TERMINATED NORMALLY****
TOTAL RUN TIME: 0 days 0 hours 0 minutes 22 seconds 70 msec
