                         Program Version 4.2.1 -  RELEASE  -
|  1> ! wB97X-D3 SP def2-SVP
|  2> %pal
|  3> nprocs 24
|  4> end
|  5>
|  6> * xyz 0 1
|  7> S 	 -101.28 	 2.65349 	 -123.324
|  8> C 	 -102.364 	 3.0934 	 -122.1
|  9> C 	 -102.864 	 1.92067 	 -121.526
| 10> C 	 -102.196 	 0.730515 	 -121.901
| 11> C 	 -101.292 	 0.980366 	 -122.9
| 12> H 	 -102.396 	 -0.26327 	 -121.581
| 13> C 	 -104.024 	 1.82603 	 -120.52
| 14> H 	 -104.664 	 0.999455 	 -120.77
| 15> H 	 -104.61 	 2.73569 	 -120.612
| 16> C 	 -103.611 	 1.79352 	 -119.078
| 17> H 	 -103.068 	 0.865419 	 -118.86
| 18> H 	 -102.962 	 2.55959 	 -118.795
| 19> C 	 -104.785 	 1.93318 	 -118.11
| 20> H 	 -105.135 	 2.96481 	 -118.125
| 21> H 	 -105.57 	 1.12921 	 -118.136
| 22> H 	 -104.39 	 1.82963 	 -117.143
| 23> S 	 -100.882 	 0.11432 	 -125.453
| 24> C 	 -99.5222 	 -0.90863 	 -125.893
| 25> C 	 -98.8504 	 -1.14139 	 -124.709
| 26> C 	 -99.4953 	 -0.737853 	 -123.5
| 27> C 	 -100.576 	 0.0800744 	 -123.739
| 28> H 	 -97.9086 	 -1.64837 	 -124.763
| 29> C 	 -98.9583 	 -1.06632 	 -122.177
| 30> H 	 -98.267 	 -1.94103 	 -122.357
| 31> H 	 -99.7848 	 -1.40687 	 -121.478
| 32> C 	 -98.0771 	 0.00466458 	 -121.447
| 33> H 	 -97.8255 	 -0.647414 	 -120.588
| 34> H 	 -98.6647 	 0.846897 	 -121.052
| 35> C 	 -96.9497 	 0.611928 	 -122.246
| 36> H 	 -97.3875 	 1.279 	 -122.983
| 37> H 	 -96.3185 	 -0.0835646 	 -122.836
| 38> H 	 -96.2635 	 1.14645 	 -121.697
| 39> H 	 -102.95 	 4.02858 	 -122.127
| 40> H 	 -99.0167 	 -0.984071 	 -126.811
| 41> *
| 42>
| 43>                          ****END OF INPUT****

CARTESIAN COORDINATES (ANGSTROEM)
---------------------------------
  S    -101.280000    2.653490  -123.324000
  C    -102.364000    3.093400  -122.100000
  C    -102.864000    1.920670  -121.526000
  C    -102.196000    0.730515  -121.901000
  C    -101.292000    0.980366  -122.900000
  H    -102.396000   -0.263270  -121.581000
  C    -104.024000    1.826030  -120.520000
  H    -104.664000    0.999455  -120.770000
  H    -104.610000    2.735690  -120.612000
  C    -103.611000    1.793520  -119.078000
  H    -103.068000    0.865419  -118.860000
  H    -102.962000    2.559590  -118.795000
  C    -104.785000    1.933180  -118.110000
  H    -105.135000    2.964810  -118.125000
  H    -105.570000    1.129210  -118.136000
  H    -104.390000    1.829630  -117.143000
  S    -100.882000    0.114320  -125.453000
  C    -99.522200   -0.908630  -125.893000
  C    -98.850400   -1.141390  -124.709000
  C    -99.495300   -0.737853  -123.500000
  C    -100.576000    0.080074  -123.739000
  H    -97.908600   -1.648370  -124.763000
  C    -98.958300   -1.066320  -122.177000
  H    -98.267000   -1.941030  -122.357000
  H    -99.784800   -1.406870  -121.478000
  C    -98.077100    0.004665  -121.447000
  H    -97.825500   -0.647414  -120.588000
  H    -98.664700    0.846897  -121.052000
  C    -96.949700    0.611928  -122.246000
  H    -97.387500    1.279000  -122.983000
  H    -96.318500   -0.083565  -122.836000
  H    -96.263500    1.146450  -121.697000
  H    -102.950000    4.028580  -122.127000
  H    -99.016700   -0.984071  -126.811000

 Total Charge           Charge          ....    0
 Multiplicity           Mult            ....    1
 Number of Electrons    NEL             ....  134
 Basis Dimension        Dim             ....  322

ORBITAL ENERGIES
----------------

  NO   OCC          E(Eh)            E(eV)
   0   2.0000     -88.966240     -2420.8945
   1   2.0000     -88.961209     -2420.7576
   2   2.0000     -10.325309      -280.9659
   3   2.0000     -10.320859      -280.8449
   4   2.0000     -10.312355      -280.6134
   5   2.0000     -10.312055      -280.6053
   6   2.0000     -10.302397      -280.3425
   7   2.0000     -10.295585      -280.1571
   8   2.0000     -10.295189      -280.1463
   9   2.0000     -10.291695      -280.0513
  10   2.0000     -10.290354      -280.0148
  11   2.0000     -10.287251      -279.9303
  12   2.0000     -10.286375      -279.9065
  13   2.0000     -10.278033      -279.6795
  14   2.0000     -10.275833      -279.6196
  15   2.0000     -10.269619      -279.4505
  16   2.0000      -8.082350      -219.9319
  17   2.0000      -8.075980      -219.7586
  18   2.0000      -6.040705      -164.3759
  19   2.0000      -6.036510      -164.2618
  20   2.0000      -6.034575      -164.2091
  21   2.0000      -6.033302      -164.1745
  22   2.0000      -6.030285      -164.0924
  23   2.0000      -6.026787      -163.9972
  24   2.0000      -1.017950       -27.6998
  25   2.0000      -0.990496       -26.9528
  26   2.0000      -0.916333       -24.9347
  27   2.0000      -0.907577       -24.6964
  28   2.0000      -0.877254       -23.8713
  29   2.0000      -0.856129       -23.2965
  30   2.0000      -0.846926       -23.0460
  31   2.0000      -0.819087       -22.2885
  32   2.0000      -0.783889       -21.3307
  33   2.0000      -0.774024       -21.0623
  34   2.0000      -0.712201       -19.3800
  35   2.0000      -0.698411       -19.0047
  36   2.0000      -0.690286       -18.7836
  37   2.0000      -0.665222       -18.1016
  38   2.0000      -0.649853       -17.6834
  39   2.0000      -0.624187       -16.9850
  40   2.0000      -0.589187       -16.0326
  41   2.0000      -0.576126       -15.6772
  42   2.0000      -0.564899       -15.3717
  43   2.0000      -0.552188       -15.0258
  44   2.0000      -0.540080       -14.6963
  45   2.0000      -0.526543       -14.3280
  46   2.0000      -0.519994       -14.1497
  47   2.0000      -0.513812       -13.9815
  48   2.0000      -0.511323       -13.9138
  49   2.0000      -0.504684       -13.7331
  50   2.0000      -0.491112       -13.3638
  51   2.0000      -0.482032       -13.1168
  52   2.0000      -0.474413       -12.9094
  53   2.0000      -0.472042       -12.8449
  54   2.0000      -0.459788       -12.5115
  55   2.0000      -0.446858       -12.1596
  56   2.0000      -0.441266       -12.0075
  57   2.0000      -0.437904       -11.9160
  58   2.0000      -0.426849       -11.6151
  59   2.0000      -0.422769       -11.5041
  60   2.0000      -0.419428       -11.4132
  61   2.0000      -0.415604       -11.3092
  62   2.0000      -0.404791       -11.0149
  63   2.0000      -0.346093        -9.4177
  64   2.0000      -0.328873        -8.9491
  65   2.0000      -0.325165        -8.8482
  66   2.0000      -0.297735        -8.1018
  67   0.0000       0.027515         0.7487
  68   0.0000       0.063877         1.7382
  69   0.0000       0.116417         3.1679
  70   0.0000       0.122656         3.3376
  71   0.0000       0.134498         3.6599

MULLIKEN ATOMIC CHARGES
-----------------------
   0 S :    0.124006
   1 C :   -0.110461
   2 C :   -0.128188
   3 C :    0.057206
   4 C :   -0.156525
   5 H :    0.002674
   6 C :    0.094572
   7 H :    0.024335
   8 H :    0.001411
   9 C :   -0.057091
  10 H :    0.017156
  11 H :    0.012864
  12 C :   -0.038280
  13 H :    0.032025
  14 H :    0.038294
  15 H :    0.012247
  16 S :    0.094782
  17 C :   -0.059695
  18 C :   -0.067751
  19 C :   -0.013249
  20 C :   -0.160315
  21 H :    0.013112
  22 C :    0.012038
  23 H :    0.027026
  24 H :    0.043117
  25 C :   -0.067611
  26 H :    0.031566
  27 H :    0.042785
  28 C :   -0.019947
  29 H :    0.038953
  30 H :    0.017029
  31 H :    0.018523
  32 H :    0.071717
  33 H :    0.051674
Sum of atomic charges:    0.0000000

LOEWDIN ATOMIC CHARGES
----------------------
   0 S :    0.450612
   1 C :   -0.235498
   2 C :   -0.055571
   3 C :   -0.057091
   4 C :   -0.199035
   5 H :    0.029645
   6 C :   -0.029523
   7 H :    0.028907
   8 H :    0.025569
   9 C :   -0.037182
  10 H :    0.020834
  11 H :    0.019532
  12 C :   -0.065027
  13 H :    0.026199
  14 H :    0.029498
  15 H :    0.020151
  16 S :    0.407060
  17 C :   -0.190167
  18 C :   -0.064950
  19 C :   -0.069962
  20 C :   -0.204488
  21 H :    0.024792
  22 C :   -0.041766
  23 H :    0.035788
  24 H :    0.040040
  25 C :   -0.039304
  26 H :    0.026830
  27 H :    0.028354
  28 C :   -0.063624
  29 H :    0.031796
  30 H :    0.024413
  31 H :    0.017102
  32 H :    0.038624
  33 H :    0.027443

  Mayer bond orders larger than 0.100000
B(  0-S ,  1-C ) :   1.1538 B(  0-S ,  4-C ) :   1.1826 B(  1-C ,  2-C ) :   1.5831
B(  1-C ,  4-C ) :   0.1012 B(  1-C , 32-H ) :   0.9593 B(  2-C ,  3-C ) :   1.2609
B(  2-C ,  6-C ) :   1.0312 B(  3-C ,  4-C ) :   1.5378 B(  3-C ,  5-H ) :   1.0048
B(  4-C , 20-C ) :   1.0528 B(  6-C ,  7-H ) :   0.9403 B(  6-C ,  8-H ) :   0.9356
B(  6-C ,  9-C ) :   1.0754 B(  9-C , 10-H ) :   0.9525 B(  9-C , 11-H ) :   0.9501
B(  9-C , 12-C ) :   1.0957 B( 12-C , 13-H ) :   0.9729 B( 12-C , 14-H ) :   0.9739
B( 12-C , 15-H ) :   0.9697 B( 16-S , 17-C ) :   1.1433 B( 16-S , 20-C ) :   1.1508
B( 17-C , 18-C ) :   1.6120 B( 17-C , 33-H ) :   0.9671 B( 18-C , 19-C ) :   1.2571
B( 18-C , 21-H ) :   0.9840 B( 19-C , 20-C ) :   1.5546 B( 19-C , 22-C ) :   1.0611
B( 22-C , 23-H ) :   0.9312 B( 22-C , 24-H ) :   0.9339 B( 22-C , 25-C ) :   1.0607
B( 25-C , 26-H ) :   0.9588 B( 25-C , 27-H ) :   0.9556 B( 25-C , 28-C ) :   1.0741
B( 28-C , 29-H ) :   0.9671 B( 28-C , 30-H ) :   0.9743 B( 28-C , 31-H ) :   0.9722

Dispersion correction           -0.014694539
FINAL SINGLE POINT ENERGY     -1339.865505835033

DIPOLE MOMENT
-------------
                                X             Y             Z
Electronic contribution:     -0.63434       1.65480     -24.72846
Nuclear contribution   :      0.71479      -1.73272      25.22628
                        -----------------------------------------
Total Dipole Moment    :      0.08045      -0.07792       0.49781
                        -----------------------------------------
Magnitude (a.u.)       :      0.51026
Magnitude (Debye)      :      1.29697

Rotational constants in cm-1:     0.022326     0.007906     0.006896
Rotational constants in MHz :   669.316082   237.001964   206.726108

                             ****ORCA TERMINATED NORMALLY****
TOTAL RUN TIME: 0 days 0 hours 0 minutes 21 seconds 873 msec
