                         Program Version 4.2.1 -  RELEASE  -
|  1> ! wB97X-D3 SP def2-SVP
|  2> %pal
|  3> nprocs 24
|  4> end
|  5>
|  6> * xyz 0 1
|  7> S 	 -107.576 	 24.5104 	 -115.748
|  8> C 	 -107.085 	 26.0458 	 -115.021
|  9> C 	 -108.074 	 27.0322 	 -115.114
| 10> C 	 -109.109 	 26.5783 	 -115.979
| 11> C 	 -109.096 	 25.2317 	 -116.293
| 12> H 	 -109.852 	 27.1792 	 -116.353
| 13> C 	 -107.986 	 28.5015 	 -114.835
| 14> H 	 -108.478 	 28.9883 	 -115.719
| 15> H 	 -106.962 	 28.9323 	 -114.923
| 16> C 	 -108.792 	 29.0437 	 -113.599
| 17> H 	 -108.323 	 28.5755 	 -112.724
| 18> H 	 -108.543 	 30.0926 	 -113.534
| 19> C 	 -110.375 	 28.9975 	 -113.471
| 20> H 	 -110.718 	 27.9663 	 -113.434
| 21> H 	 -110.791 	 29.4201 	 -112.497
| 22> H 	 -110.789 	 29.4388 	 -114.412
| 23> S 	 -109.299 	 23.9021 	 -118.74
| 24> C 	 -110.785 	 23.398 	 -119.381
| 25> C 	 -111.716 	 23.5796 	 -118.345
| 26> C 	 -111.335 	 24.3021 	 -117.158
| 27> C 	 -109.981 	 24.4836 	 -117.22
| 28> H 	 -112.768 	 23.331 	 -118.497
| 29> C 	 -112.343 	 24.5443 	 -116.034
| 30> H 	 -112.834 	 25.5857 	 -115.964
| 31> H 	 -111.693 	 24.4045 	 -115.128
| 32> C 	 -113.485 	 23.4808 	 -115.899
| 33> H 	 -114.189 	 23.4698 	 -116.726
| 34> H 	 -114.085 	 23.7455 	 -115.04
| 35> C 	 -113.056 	 22.0609 	 -115.665
| 36> H 	 -112.685 	 22.1066 	 -114.637
| 37> H 	 -112.348 	 21.4918 	 -116.258
| 38> H 	 -113.955 	 21.4057 	 -115.695
| 39> H 	 -106.058 	 26.2607 	 -114.661
| 40> H 	 -110.98 	 22.9993 	 -120.368
| 41> *
| 42>
| 43>                          ****END OF INPUT****

CARTESIAN COORDINATES (ANGSTROEM)
---------------------------------
  S    -107.576000   24.510400  -115.748000
  C    -107.085000   26.045800  -115.021000
  C    -108.074000   27.032200  -115.114000
  C    -109.109000   26.578300  -115.979000
  C    -109.096000   25.231700  -116.293000
  H    -109.852000   27.179200  -116.353000
  C    -107.986000   28.501500  -114.835000
  H    -108.478000   28.988300  -115.719000
  H    -106.962000   28.932300  -114.923000
  C    -108.792000   29.043700  -113.599000
  H    -108.323000   28.575500  -112.724000
  H    -108.543000   30.092600  -113.534000
  C    -110.375000   28.997500  -113.471000
  H    -110.718000   27.966300  -113.434000
  H    -110.791000   29.420100  -112.497000
  H    -110.789000   29.438800  -114.412000
  S    -109.299000   23.902100  -118.740000
  C    -110.785000   23.398000  -119.381000
  C    -111.716000   23.579600  -118.345000
  C    -111.335000   24.302100  -117.158000
  C    -109.981000   24.483600  -117.220000
  H    -112.768000   23.331000  -118.497000
  C    -112.343000   24.544300  -116.034000
  H    -112.834000   25.585700  -115.964000
  H    -111.693000   24.404500  -115.128000
  C    -113.485000   23.480800  -115.899000
  H    -114.189000   23.469800  -116.726000
  H    -114.085000   23.745500  -115.040000
  C    -113.056000   22.060900  -115.665000
  H    -112.685000   22.106600  -114.637000
  H    -112.348000   21.491800  -116.258000
  H    -113.955000   21.405700  -115.695000
  H    -106.058000   26.260700  -114.661000
  H    -110.980000   22.999300  -120.368000

 Total Charge           Charge          ....    0
 Multiplicity           Mult            ....    1
 Number of Electrons    NEL             ....  134
 Basis Dimension        Dim             ....  322

ORBITAL ENERGIES
----------------

  NO   OCC          E(Eh)            E(eV)
   0   2.0000     -88.966504     -2420.9016
   1   2.0000     -88.963647     -2420.8239
   2   2.0000     -10.328936      -281.0646
   3   2.0000     -10.327521      -281.0261
   4   2.0000     -10.320658      -280.8394
   5   2.0000     -10.317655      -280.7577
   6   2.0000     -10.308014      -280.4953
   7   2.0000     -10.304695      -280.4050
   8   2.0000     -10.302383      -280.3421
   9   2.0000     -10.301615      -280.3212
  10   2.0000     -10.292070      -280.0615
  11   2.0000     -10.291920      -280.0574
  12   2.0000     -10.291701      -280.0514
  13   2.0000     -10.288553      -279.9658
  14   2.0000     -10.287855      -279.9468
  15   2.0000     -10.274336      -279.5789
  16   2.0000      -8.080550      -219.8829
  17   2.0000      -8.079125      -219.8442
  18   2.0000      -6.039036      -164.3305
  19   2.0000      -6.037597      -164.2914
  20   2.0000      -6.035171      -164.2253
  21   2.0000      -6.033336      -164.1754
  22   2.0000      -6.031366      -164.1218
  23   2.0000      -6.030039      -164.0857
  24   2.0000      -1.006150       -27.3787
  25   2.0000      -0.983670       -26.7670
  26   2.0000      -0.909846       -24.7582
  27   2.0000      -0.903047       -24.5732
  28   2.0000      -0.865523       -23.5521
  29   2.0000      -0.849696       -23.1214
  30   2.0000      -0.842093       -22.9145
  31   2.0000      -0.807868       -21.9832
  32   2.0000      -0.783315       -21.3151
  33   2.0000      -0.774571       -21.0772
  34   2.0000      -0.701982       -19.1019
  35   2.0000      -0.700103       -19.0508
  36   2.0000      -0.694117       -18.8879
  37   2.0000      -0.655723       -17.8431
  38   2.0000      -0.641184       -17.4475
  39   2.0000      -0.615621       -16.7519
  40   2.0000      -0.599961       -16.3258
  41   2.0000      -0.567943       -15.4545
  42   2.0000      -0.555189       -15.1075
  43   2.0000      -0.541573       -14.7370
  44   2.0000      -0.535925       -14.5833
  45   2.0000      -0.531940       -14.4748
  46   2.0000      -0.524033       -14.2597
  47   2.0000      -0.506683       -13.7875
  48   2.0000      -0.500414       -13.6170
  49   2.0000      -0.497823       -13.5464
  50   2.0000      -0.490307       -13.3419
  51   2.0000      -0.475681       -12.9439
  52   2.0000      -0.466131       -12.6841
  53   2.0000      -0.463788       -12.6203
  54   2.0000      -0.459642       -12.5075
  55   2.0000      -0.449173       -12.2226
  56   2.0000      -0.445893       -12.1334
  57   2.0000      -0.438859       -11.9419
  58   2.0000      -0.424979       -11.5643
  59   2.0000      -0.420058       -11.4304
  60   2.0000      -0.417410       -11.3583
  61   2.0000      -0.411213       -11.1897
  62   2.0000      -0.408274       -11.1097
  63   2.0000      -0.339312        -9.2332
  64   2.0000      -0.332486        -9.0474
  65   2.0000      -0.325958        -8.8698
  66   2.0000      -0.296411        -8.0658
  67   0.0000       0.032560         0.8860
  68   0.0000       0.065293         1.7767
  69   0.0000       0.110998         3.0204
  70   0.0000       0.120352         3.2749
  71   0.0000       0.128467         3.4958

MULLIKEN ATOMIC CHARGES
-----------------------
   0 S :    0.102955
   1 C :   -0.141970
   2 C :   -0.030455
   3 C :    0.053624
   4 C :   -0.163646
   5 H :   -0.020383
   6 C :   -0.003553
   7 H :    0.028645
   8 H :    0.040963
   9 C :   -0.070289
  10 H :    0.030010
  11 H :    0.028584
  12 C :   -0.080045
  13 H :    0.035771
  14 H :    0.055870
  15 H :    0.039759
  16 S :    0.119135
  17 C :   -0.088403
  18 C :   -0.047346
  19 C :   -0.019062
  20 C :   -0.169691
  21 H :    0.010880
  22 C :    0.047256
  23 H :    0.063090
  24 H :    0.040020
  25 C :   -0.080816
  26 H :    0.025873
  27 H :    0.029166
  28 C :   -0.071312
  29 H :    0.027397
  30 H :    0.048111
  31 H :    0.031146
  32 H :    0.063665
  33 H :    0.065052
Sum of atomic charges:   -0.0000000

LOEWDIN ATOMIC CHARGES
----------------------
   0 S :    0.390609
   1 C :   -0.191193
   2 C :   -0.069471
   3 C :   -0.044349
   4 C :   -0.191699
   5 H :    0.016386
   6 C :   -0.039686
   7 H :    0.035728
   8 H :    0.038582
   9 C :   -0.043146
  10 H :    0.022409
  11 H :    0.022216
  12 C :   -0.075933
  13 H :    0.022367
  14 H :    0.040497
  15 H :    0.028033
  16 S :    0.426484
  17 C :   -0.208014
  18 C :   -0.074420
  19 C :   -0.060915
  20 C :   -0.200597
  21 H :    0.022971
  22 C :   -0.035777
  23 H :    0.045226
  24 H :    0.040244
  25 C :   -0.045180
  26 H :    0.016753
  27 H :    0.030213
  28 C :   -0.073507
  29 H :    0.026824
  30 H :    0.025919
  31 H :    0.031696
  32 H :    0.034287
  33 H :    0.036443

  Mayer bond orders larger than 0.100000
B(  0-S ,  1-C ) :   1.1510 B(  0-S ,  4-C ) :   1.1356 B(  1-C ,  2-C ) :   1.5980
B(  1-C , 32-H ) :   0.9627 B(  2-C ,  3-C ) :   1.2379 B(  2-C ,  6-C ) :   1.0162
B(  3-C ,  4-C ) :   1.5983 B(  3-C ,  5-H ) :   0.9999 B(  4-C , 20-C ) :   1.0078
B(  6-C ,  7-H ) :   0.9463 B(  6-C ,  8-H ) :   0.9493 B(  6-C ,  9-C ) :   1.0576
B(  9-C , 10-H ) :   0.9584 B(  9-C , 11-H ) :   0.9578 B(  9-C , 12-C ) :   1.0659
B( 12-C , 13-H ) :   0.9763 B( 12-C , 14-H ) :   0.9731 B( 12-C , 15-H ) :   0.9744
B( 16-S , 17-C ) :   1.1655 B( 16-S , 20-C ) :   1.1619 B( 17-C , 18-C ) :   1.5677
B( 17-C , 33-H ) :   0.9735 B( 18-C , 19-C ) :   1.2692 B( 18-C , 21-H ) :   0.9775
B( 19-C , 20-C ) :   1.5952 B( 19-C , 22-C ) :   1.0154 B( 22-C , 23-H ) :   0.9345
B( 22-C , 24-H ) :   0.9386 B( 22-C , 25-C ) :   1.0808 B( 25-C , 26-H ) :   0.9533
B( 25-C , 27-H ) :   0.9514 B( 25-C , 28-C ) :   1.0705 B( 28-C , 29-H ) :   0.9771
B( 28-C , 30-H ) :   0.9771 B( 28-C , 31-H ) :   0.9714

Dispersion correction           -0.014148632
FINAL SINGLE POINT ENERGY     -1339.858698452844

DIPOLE MOMENT
-------------
                                X             Y             Z
Electronic contribution:     17.74428     -10.58226     -15.29633
Nuclear contribution   :    -18.19732      10.98917      15.39299
                        -----------------------------------------
Total Dipole Moment    :     -0.45304       0.40691       0.09666
                        -----------------------------------------
Magnitude (a.u.)       :      0.61658
Magnitude (Debye)      :      1.56722

Rotational constants in cm-1:     0.018567     0.008482     0.006802
Rotational constants in MHz :   556.632070   254.289570   203.926061

                             ****ORCA TERMINATED NORMALLY****
TOTAL RUN TIME: 0 days 0 hours 0 minutes 20 seconds 178 msec
