                         Program Version 4.2.1 -  RELEASE  -
|  1> ! wB97X-D3 SP def2-SVP
|  2> %pal
|  3> nprocs 24
|  4> end
|  5>
|  6> * xyz 0 1
|  7> S 	 -105.455 	 55.1465 	 -79.4395
|  8> C 	 -105.248 	 54.404 	 -81.0189
|  9> C 	 -106.085 	 55.0504 	 -81.9405
| 10> C 	 -106.984 	 55.9629 	 -81.3461
| 11> C 	 -106.812 	 56.149 	 -80.0228
| 12> H 	 -107.779 	 56.4092 	 -81.9041
| 13> C 	 -106.229 	 54.6647 	 -83.353
| 14> H 	 -107.321 	 54.7356 	 -83.6515
| 15> H 	 -105.986 	 53.6552 	 -83.4532
| 16> C 	 -105.206 	 55.2529 	 -84.383
| 17> H 	 -105.097 	 56.3012 	 -84.0088
| 18> H 	 -104.231 	 54.8132 	 -84.1607
| 19> C 	 -105.544 	 54.9477 	 -85.7909
| 20> H 	 -106.182 	 55.7212 	 -86.2004
| 21> H 	 -104.628 	 55.0029 	 -86.409
| 22> H 	 -105.812 	 53.8683 	 -85.9062
| 23> S 	 -106.754 	 57.7319 	 -77.8114
| 24> C 	 -108.123 	 58.8323 	 -77.4932
| 25> C 	 -109.228 	 58.2948 	 -78.0946
| 26> C 	 -108.965 	 57.2169 	 -79.0183
| 27> C 	 -107.599 	 56.942 	 -79.1229
| 28> H 	 -110.247 	 58.5841 	 -77.7989
| 29> C 	 -110.105 	 56.6788 	 -79.8592
| 30> H 	 -109.75 	 56.688 	 -80.8303
| 31> H 	 -110.975 	 57.3539 	 -79.8462
| 32> C 	 -110.612 	 55.225 	 -79.5184
| 33> H 	 -109.7 	 54.6427 	 -79.3552
| 34> H 	 -111.129 	 54.8197 	 -80.4093
| 35> C 	 -111.509 	 55.246 	 -78.252
| 36> H 	 -111.612 	 54.2611 	 -77.819
| 37> H 	 -112.421 	 55.7325 	 -78.4392
| 38> H 	 -110.914 	 55.8785 	 -77.5664
| 39> H 	 -104.533 	 53.603 	 -81.2765
| 40> H 	 -108.222 	 59.6378 	 -76.705
| 41> *
| 42>
| 43>                          ****END OF INPUT****

CARTESIAN COORDINATES (ANGSTROEM)
---------------------------------
  S    -105.455000   55.146500  -79.439500
  C    -105.248000   54.404000  -81.018900
  C    -106.085000   55.050400  -81.940500
  C    -106.984000   55.962900  -81.346100
  C    -106.812000   56.149000  -80.022800
  H    -107.779000   56.409200  -81.904100
  C    -106.229000   54.664700  -83.353000
  H    -107.321000   54.735600  -83.651500
  H    -105.986000   53.655200  -83.453200
  C    -105.206000   55.252900  -84.383000
  H    -105.097000   56.301200  -84.008800
  H    -104.231000   54.813200  -84.160700
  C    -105.544000   54.947700  -85.790900
  H    -106.182000   55.721200  -86.200400
  H    -104.628000   55.002900  -86.409000
  H    -105.812000   53.868300  -85.906200
  S    -106.754000   57.731900  -77.811400
  C    -108.123000   58.832300  -77.493200
  C    -109.228000   58.294800  -78.094600
  C    -108.965000   57.216900  -79.018300
  C    -107.599000   56.942000  -79.122900
  H    -110.247000   58.584100  -77.798900
  C    -110.105000   56.678800  -79.859200
  H    -109.750000   56.688000  -80.830300
  H    -110.975000   57.353900  -79.846200
  C    -110.612000   55.225000  -79.518400
  H    -109.700000   54.642700  -79.355200
  H    -111.129000   54.819700  -80.409300
  C    -111.509000   55.246000  -78.252000
  H    -111.612000   54.261100  -77.819000
  H    -112.421000   55.732500  -78.439200
  H    -110.914000   55.878500  -77.566400
  H    -104.533000   53.603000  -81.276500
  H    -108.222000   59.637800  -76.705000

 Total Charge           Charge          ....    0
 Multiplicity           Mult            ....    1
 Number of Electrons    NEL             ....  134
 Basis Dimension        Dim             ....  322

ORBITAL ENERGIES
----------------

  NO   OCC          E(Eh)            E(eV)
   0   2.0000     -88.967643     -2420.9327
   1   2.0000     -88.964316     -2420.8421
   2   2.0000     -10.330735      -281.1136
   3   2.0000     -10.330383      -281.1040
   4   2.0000     -10.323497      -280.9166
   5   2.0000     -10.320696      -280.8404
   6   2.0000     -10.306345      -280.4499
   7   2.0000     -10.298503      -280.2365
   8   2.0000     -10.295756      -280.1618
   9   2.0000     -10.289618      -279.9947
  10   2.0000     -10.288300      -279.9589
  11   2.0000     -10.287934      -279.9489
  12   2.0000     -10.286575      -279.9119
  13   2.0000     -10.285230      -279.8753
  14   2.0000     -10.282481      -279.8005
  15   2.0000     -10.273632      -279.5597
  16   2.0000      -8.081743      -219.9154
  17   2.0000      -8.078761      -219.8343
  18   2.0000      -6.040402      -164.3677
  19   2.0000      -6.037503      -164.2888
  20   2.0000      -6.036347      -164.2574
  21   2.0000      -6.033481      -164.1794
  22   2.0000      -6.032370      -164.1491
  23   2.0000      -6.029101      -164.0602
  24   2.0000      -1.008985       -27.4559
  25   2.0000      -0.984252       -26.7829
  26   2.0000      -0.916016       -24.9261
  27   2.0000      -0.904485       -24.6123
  28   2.0000      -0.874747       -23.8031
  29   2.0000      -0.855986       -23.2926
  30   2.0000      -0.843099       -22.9419
  31   2.0000      -0.820647       -22.3309
  32   2.0000      -0.781154       -21.2563
  33   2.0000      -0.769047       -20.9268
  34   2.0000      -0.710521       -19.3343
  35   2.0000      -0.698054       -18.9950
  36   2.0000      -0.689806       -18.7706
  37   2.0000      -0.662458       -18.0264
  38   2.0000      -0.640511       -17.4292
  39   2.0000      -0.628444       -17.1008
  40   2.0000      -0.592744       -16.1294
  41   2.0000      -0.567353       -15.4385
  42   2.0000      -0.564735       -15.3672
  43   2.0000      -0.551473       -15.0063
  44   2.0000      -0.543597       -14.7920
  45   2.0000      -0.525872       -14.3097
  46   2.0000      -0.519854       -14.1459
  47   2.0000      -0.512353       -13.9418
  48   2.0000      -0.510555       -13.8929
  49   2.0000      -0.506904       -13.7936
  50   2.0000      -0.491907       -13.3855
  51   2.0000      -0.477037       -12.9808
  52   2.0000      -0.472952       -12.8697
  53   2.0000      -0.465047       -12.6546
  54   2.0000      -0.463820       -12.6212
  55   2.0000      -0.453644       -12.3443
  56   2.0000      -0.441240       -12.0068
  57   2.0000      -0.432501       -11.7689
  58   2.0000      -0.428435       -11.6583
  59   2.0000      -0.422652       -11.5009
  60   2.0000      -0.419117       -11.4048
  61   2.0000      -0.416825       -11.3424
  62   2.0000      -0.404336       -11.0025
  63   2.0000      -0.357932        -9.7398
  64   2.0000      -0.334294        -9.0966
  65   2.0000      -0.322998        -8.7892
  66   2.0000      -0.284961        -7.7542
  67   0.0000       0.019067         0.5188
  68   0.0000       0.064264         1.7487
  69   0.0000       0.094401         2.5688
  70   0.0000       0.121201         3.2981
  71   0.0000       0.129313         3.5188

MULLIKEN ATOMIC CHARGES
-----------------------
   0 S :    0.100197
   1 C :   -0.123478
   2 C :   -0.077411
   3 C :   -0.004097
   4 C :   -0.088754
   5 H :    0.005936
   6 C :    0.038430
   7 H :    0.035840
   8 H :   -0.001497
   9 C :   -0.094234
  10 H :    0.034599
  11 H :    0.018218
  12 C :   -0.020351
  13 H :    0.044192
  14 H :    0.028329
  15 H :    0.038762
  16 S :    0.088546
  17 C :   -0.099794
  18 C :   -0.044621
  19 C :   -0.046373
  20 C :   -0.146046
  21 H :    0.028041
  22 C :    0.072836
  23 H :   -0.004018
  24 H :    0.019418
  25 C :   -0.085904
  26 H :    0.039327
  27 H :    0.033667
  28 C :   -0.023297
  29 H :    0.041004
  30 H :    0.023052
  31 H :    0.026997
  32 H :    0.062647
  33 H :    0.079835
Sum of atomic charges:    0.0000000

LOEWDIN ATOMIC CHARGES
----------------------
   0 S :    0.385460
   1 C :   -0.194671
   2 C :   -0.065659
   3 C :   -0.061275
   4 C :   -0.176337
   5 H :    0.029666
   6 C :   -0.041907
   7 H :    0.035574
   8 H :    0.020138
   9 C :   -0.045388
  10 H :    0.026523
  11 H :    0.021431
  12 C :   -0.070800
  13 H :    0.030054
  14 H :    0.031396
  15 H :    0.035228
  16 S :    0.387023
  17 C :   -0.186759
  18 C :   -0.074423
  19 C :   -0.058759
  20 C :   -0.189865
  21 H :    0.033016
  22 C :   -0.029388
  23 H :    0.018028
  24 H :    0.029576
  25 C :   -0.033820
  26 H :    0.026475
  27 H :    0.022402
  28 C :   -0.060497
  29 H :    0.026712
  30 H :    0.016644
  31 H :    0.030253
  32 H :    0.037245
  33 H :    0.046704

  Mayer bond orders larger than 0.100000
B(  0-S ,  1-C ) :   1.1333 B(  0-S ,  4-C ) :   1.1243 B(  1-C ,  2-C ) :   1.5968
B(  1-C ,  4-C ) :   0.1007 B(  1-C , 32-H ) :   0.9652 B(  2-C ,  3-C ) :   1.2388
B(  2-C ,  6-C ) :   1.0434 B(  3-C ,  4-C ) :   1.5813 B(  3-C ,  5-H ) :   1.0049
B(  4-C , 20-C ) :   1.0712 B(  6-C ,  7-H ) :   0.9514 B(  6-C ,  8-H ) :   0.9278
B(  6-C ,  9-C ) :   1.0346 B(  9-C , 10-H ) :   0.9619 B(  9-C , 11-H ) :   0.9565
B(  9-C , 12-C ) :   1.0832 B( 12-C , 13-H ) :   0.9744 B( 12-C , 14-H ) :   0.9705
B( 12-C , 15-H ) :   0.9643 B( 16-S , 17-C ) :   1.1269 B( 16-S , 20-C ) :   1.1281
B( 17-C , 18-C ) :   1.6267 B( 17-C , 20-C ) :   0.1033 B( 17-C , 33-H ) :   0.9603
B( 18-C , 19-C ) :   1.2362 B( 18-C , 21-H ) :   0.9797 B( 19-C , 20-C ) :   1.5719
B( 19-C , 22-C ) :   1.0395 B( 22-C , 23-H ) :   0.9295 B( 22-C , 24-H ) :   0.9405
B( 22-C , 25-C ) :   1.0607 B( 25-C , 26-H ) :   0.9608 B( 25-C , 27-H ) :   0.9588
B( 25-C , 28-C ) :   1.0660 B( 28-C , 29-H ) :   0.9751 B( 28-C , 30-H ) :   0.9766
B( 28-C , 31-H ) :   0.9778

Dispersion correction           -0.014024279
FINAL SINGLE POINT ENERGY     -1339.859531954379

DIPOLE MOMENT
-------------
                                X             Y             Z
Electronic contribution:     13.06798       7.92553      20.44602
Nuclear contribution   :    -13.51560      -8.09486     -20.97029
                        -----------------------------------------
Total Dipole Moment    :     -0.44762      -0.16934      -0.52427
                        -----------------------------------------
Magnitude (a.u.)       :      0.70986
Magnitude (Debye)      :      1.80433

Rotational constants in cm-1:     0.020267     0.007653     0.006518
Rotational constants in MHz :   607.581511   229.446156   195.403300

                             ****ORCA TERMINATED NORMALLY****
TOTAL RUN TIME: 0 days 0 hours 0 minutes 20 seconds 246 msec
