                         Program Version 4.2.1 -  RELEASE  -
|  1> ! wB97X-D3 SP def2-SVP
|  2> %pal
|  3> nprocs 24
|  4> end
|  5>
|  6> * xyz 0 1
|  7> S 	 24.467 	 -7.58376 	 -112.186
|  8> C 	 24.9266 	 -7.13014 	 -110.565
|  9> C 	 23.9126 	 -7.42472 	 -109.689
| 10> C 	 22.7801 	 -7.95691 	 -110.373
| 11> C 	 22.9257 	 -8.21717 	 -111.715
| 12> H 	 21.8456 	 -8.10561 	 -109.79
| 13> C 	 23.7727 	 -7.02654 	 -108.258
| 14> H 	 22.7481 	 -6.77969 	 -108.078
| 15> H 	 24.3556 	 -6.11681 	 -108.131
| 16> C 	 24.1001 	 -8.10013 	 -107.155
| 17> H 	 25.0685 	 -8.59813 	 -107.444
| 18> H 	 24.1097 	 -7.62401 	 -106.148
| 19> C 	 22.9302 	 -9.02194 	 -107.17
| 20> H 	 23.0522 	 -9.73373 	 -107.968
| 21> H 	 22.8685 	 -9.53836 	 -106.2
| 22> H 	 21.9777 	 -8.4828 	 -107.283
| 23> S 	 21.3232 	 -10.1704 	 -112.451
| 24> C 	 20.0025 	 -9.90306 	 -113.507
| 25> C 	 20.2263 	 -8.74917 	 -114.31
| 26> C 	 21.3442 	 -7.99988 	 -113.795
| 27> C 	 21.9577 	 -8.61328 	 -112.687
| 28> H 	 19.551 	 -8.56743 	 -115.17
| 29> C 	 21.7889 	 -6.70143 	 -114.444
| 30> H 	 22.398 	 -6.91328 	 -115.338
| 31> H 	 22.5583 	 -6.30671 	 -113.744
| 32> C 	 20.5722 	 -5.77137 	 -114.76
| 33> H 	 19.7528 	 -5.70934 	 -113.983
| 34> H 	 20.1099 	 -6.2079 	 -115.708
| 35> C 	 20.9722 	 -4.31661 	 -115.017
| 36> H 	 20.0638 	 -3.88014 	 -115.413
| 37> H 	 21.7827 	 -4.23899 	 -115.753
| 38> H 	 21.2217 	 -3.77358 	 -114.055
| 39> H 	 25.9713 	 -6.82007 	 -110.214
| 40> H 	 19.2649 	 -10.6054 	 -113.686
| 41> *
| 42>
| 43>                          ****END OF INPUT****

CARTESIAN COORDINATES (ANGSTROEM)
---------------------------------
  S     24.467000   -7.583760  -112.186000
  C     24.926600   -7.130140  -110.565000
  C     23.912600   -7.424720  -109.689000
  C     22.780100   -7.956910  -110.373000
  C     22.925700   -8.217170  -111.715000
  H     21.845600   -8.105610  -109.790000
  C     23.772700   -7.026540  -108.258000
  H     22.748100   -6.779690  -108.078000
  H     24.355600   -6.116810  -108.131000
  C     24.100100   -8.100130  -107.155000
  H     25.068500   -8.598130  -107.444000
  H     24.109700   -7.624010  -106.148000
  C     22.930200   -9.021940  -107.170000
  H     23.052200   -9.733730  -107.968000
  H     22.868500   -9.538360  -106.200000
  H     21.977700   -8.482800  -107.283000
  S     21.323200  -10.170400  -112.451000
  C     20.002500   -9.903060  -113.507000
  C     20.226300   -8.749170  -114.310000
  C     21.344200   -7.999880  -113.795000
  C     21.957700   -8.613280  -112.687000
  H     19.551000   -8.567430  -115.170000
  C     21.788900   -6.701430  -114.444000
  H     22.398000   -6.913280  -115.338000
  H     22.558300   -6.306710  -113.744000
  C     20.572200   -5.771370  -114.760000
  H     19.752800   -5.709340  -113.983000
  H     20.109900   -6.207900  -115.708000
  C     20.972200   -4.316610  -115.017000
  H     20.063800   -3.880140  -115.413000
  H     21.782700   -4.238990  -115.753000
  H     21.221700   -3.773580  -114.055000
  H     25.971300   -6.820070  -110.214000
  H     19.264900  -10.605400  -113.686000

 Total Charge           Charge          ....    0
 Multiplicity           Mult            ....    1
 Number of Electrons    NEL             ....  134
 Basis Dimension        Dim             ....  322

ORBITAL ENERGIES
----------------

  NO   OCC          E(Eh)            E(eV)
   0   2.0000     -88.965346     -2420.8701
   1   2.0000     -88.963343     -2420.8156
   2   2.0000     -10.327225      -281.0181
   3   2.0000     -10.320445      -280.8336
   4   2.0000     -10.319994      -280.8213
   5   2.0000     -10.311022      -280.5772
   6   2.0000     -10.305308      -280.4217
   7   2.0000     -10.299398      -280.2609
   8   2.0000     -10.296503      -280.1821
   9   2.0000     -10.295673      -280.1595
  10   2.0000     -10.293978      -280.1134
  11   2.0000     -10.291895      -280.0567
  12   2.0000     -10.290945      -280.0308
  13   2.0000     -10.286631      -279.9135
  14   2.0000     -10.279146      -279.7098
  15   2.0000     -10.272673      -279.5337
  16   2.0000      -8.080217      -219.8739
  17   2.0000      -8.079606      -219.8573
  18   2.0000      -6.038728      -164.3222
  19   2.0000      -6.037880      -164.2991
  20   2.0000      -6.034488      -164.2068
  21   2.0000      -6.033819      -164.1886
  22   2.0000      -6.031163      -164.1163
  23   2.0000      -6.030604      -164.1011
  24   2.0000      -1.014062       -27.5940
  25   2.0000      -0.989539       -26.9267
  26   2.0000      -0.918166       -24.9846
  27   2.0000      -0.902593       -24.5608
  28   2.0000      -0.874456       -23.7952
  29   2.0000      -0.850357       -23.1394
  30   2.0000      -0.845009       -22.9939
  31   2.0000      -0.812199       -22.1011
  32   2.0000      -0.779026       -21.1984
  33   2.0000      -0.767486       -20.8844
  34   2.0000      -0.702692       -19.1212
  35   2.0000      -0.697114       -18.9694
  36   2.0000      -0.692610       -18.8469
  37   2.0000      -0.654962       -17.8224
  38   2.0000      -0.634299       -17.2601
  39   2.0000      -0.619016       -16.8443
  40   2.0000      -0.592248       -16.1159
  41   2.0000      -0.579489       -15.7687
  42   2.0000      -0.557231       -15.1630
  43   2.0000      -0.552728       -15.0405
  44   2.0000      -0.546471       -14.8702
  45   2.0000      -0.531233       -14.4556
  46   2.0000      -0.520044       -14.1511
  47   2.0000      -0.513330       -13.9684
  48   2.0000      -0.501564       -13.6483
  49   2.0000      -0.495003       -13.4697
  50   2.0000      -0.485605       -13.2140
  51   2.0000      -0.474436       -12.9101
  52   2.0000      -0.469320       -12.7709
  53   2.0000      -0.465613       -12.6700
  54   2.0000      -0.462259       -12.5787
  55   2.0000      -0.442720       -12.0470
  56   2.0000      -0.437715       -11.9108
  57   2.0000      -0.436490       -11.8775
  58   2.0000      -0.429015       -11.6741
  59   2.0000      -0.423326       -11.5193
  60   2.0000      -0.419765       -11.4224
  61   2.0000      -0.415538       -11.3074
  62   2.0000      -0.408572       -11.1178
  63   2.0000      -0.341703        -9.2982
  64   2.0000      -0.330598        -8.9960
  65   2.0000      -0.323272        -8.7967
  66   2.0000      -0.294538        -8.0148
  67   0.0000       0.031254         0.8505
  68   0.0000       0.069656         1.8954
  69   0.0000       0.105521         2.8714
  70   0.0000       0.116895         3.1809
  71   0.0000       0.138523         3.7694

MULLIKEN ATOMIC CHARGES
-----------------------
   0 S :    0.106257
   1 C :   -0.146478
   2 C :   -0.094685
   3 C :    0.028984
   4 C :   -0.147160
   5 H :    0.020514
   6 C :    0.043563
   7 H :    0.013714
   8 H :    0.022161
   9 C :   -0.066863
  10 H :    0.044857
  11 H :    0.038616
  12 C :   -0.058632
  13 H :    0.044916
  14 H :    0.032369
  15 H :    0.025064
  16 S :    0.129531
  17 C :   -0.082620
  18 C :   -0.059211
  19 C :   -0.025957
  20 C :   -0.172389
  21 H :    0.039882
  22 C :    0.077051
  23 H :    0.045835
  24 H :    0.017610
  25 C :   -0.146146
  26 H :    0.049850
  27 H :    0.039648
  28 C :   -0.039929
  29 H :    0.028936
  30 H :    0.033732
  31 H :    0.049353
  32 H :    0.076050
  33 H :    0.031579
Sum of atomic charges:   -0.0000000

LOEWDIN ATOMIC CHARGES
----------------------
   0 S :    0.424217
   1 C :   -0.207831
   2 C :   -0.075821
   3 C :   -0.060210
   4 C :   -0.212565
   5 H :    0.034679
   6 C :   -0.029986
   7 H :    0.024734
   8 H :    0.027399
   9 C :   -0.039659
  10 H :    0.031427
  11 H :    0.028249
  12 C :   -0.068698
  13 H :    0.026245
  14 H :    0.026571
  15 H :    0.022738
  16 S :    0.458156
  17 C :   -0.190934
  18 C :   -0.073066
  19 C :   -0.053357
  20 C :   -0.229118
  21 H :    0.038919
  22 C :   -0.043552
  23 H :    0.038236
  24 H :    0.021477
  25 C :   -0.048833
  26 H :    0.032905
  27 H :    0.027770
  28 C :   -0.069334
  29 H :    0.024829
  30 H :    0.023301
  31 H :    0.033076
  32 H :    0.047287
  33 H :    0.010751

  Mayer bond orders larger than 0.100000
B(  0-S ,  1-C ) :   1.1531 B(  0-S ,  4-C ) :   1.1474 B(  1-C ,  2-C ) :   1.6005
B(  1-C , 32-H ) :   0.9549 B(  2-C ,  3-C ) :   1.2758 B(  2-C ,  6-C ) :   1.0176
B(  3-C ,  4-C ) :   1.5586 B(  3-C ,  5-H ) :   0.9825 B(  4-C , 20-C ) :   1.0167
B(  6-C ,  7-H ) :   0.9503 B(  6-C ,  8-H ) :   0.9434 B(  6-C ,  9-C ) :   1.0611
B(  9-C , 10-H ) :   0.9558 B(  9-C , 11-H ) :   0.9571 B(  9-C , 12-C ) :   1.0801
B( 12-C , 13-H ) :   0.9730 B( 12-C , 14-H ) :   0.9714 B( 12-C , 15-H ) :   0.9726
B( 16-S , 17-C ) :   1.1937 B( 16-S , 20-C ) :   1.1757 B( 17-C , 18-C ) :   1.5535
B( 17-C , 20-C ) :   0.1091 B( 17-C , 33-H ) :   0.9783 B( 18-C , 19-C ) :   1.2610
B( 18-C , 21-H ) :   0.9878 B( 19-C , 20-C ) :   1.5458 B( 19-C , 22-C ) :   1.0465
B( 22-C , 23-H ) :   0.9301 B( 22-C , 24-H ) :   0.9334 B( 22-C , 25-C ) :   1.0392
B( 25-C , 26-H ) :   0.9650 B( 25-C , 27-H ) :   0.9496 B( 25-C , 28-C ) :   1.0869
B( 28-C , 29-H ) :   0.9737 B( 28-C , 30-H ) :   0.9723 B( 28-C , 31-H ) :   0.9752

Dispersion correction           -0.014060532
FINAL SINGLE POINT ENERGY     -1339.868723971251

DIPOLE MOMENT
-------------
                                X             Y             Z
Electronic contribution:      4.75149     -13.38672      -7.89033
Nuclear contribution   :     -4.95844      13.66490       8.06707
                        -----------------------------------------
Total Dipole Moment    :     -0.20695       0.27818       0.17674
                        -----------------------------------------
Magnitude (a.u.)       :      0.38916
Magnitude (Debye)      :      0.98917

Rotational constants in cm-1:     0.019843     0.008216     0.006781
Rotational constants in MHz :   594.890471   246.309095   203.291085

                             ****ORCA TERMINATED NORMALLY****
TOTAL RUN TIME: 0 days 0 hours 0 minutes 21 seconds 367 msec
