                         Program Version 4.2.1 -  RELEASE  -
|  1> ! wB97X-D3 SP def2-SVP
|  2> %pal
|  3> nprocs 24
|  4> end
|  5>
|  6> * xyz 0 1
|  7> S 	 -54.3219 	 11.6337 	 -106.154
|  8> C 	 -52.8344 	 12.3644 	 -105.55
|  9> C 	 -52.6846 	 12.1168 	 -104.167
| 10> C 	 -53.7729 	 11.3672 	 -103.672
| 11> C 	 -54.6892 	 10.9988 	 -104.578
| 12> H 	 -53.9003 	 11.1162 	 -102.666
| 13> C 	 -51.5196 	 12.7487 	 -103.415
| 14> H 	 -51.8315 	 13.2811 	 -102.473
| 15> H 	 -51.2569 	 13.6033 	 -104.079
| 16> C 	 -50.3403 	 11.9492 	 -102.954
| 17> H 	 -49.9116 	 11.5652 	 -103.875
| 18> H 	 -49.5659 	 12.5983 	 -102.467
| 19> C 	 -50.8243 	 10.838 	 -101.935
| 20> H 	 -51.5681 	 10.1395 	 -102.369
| 21> H 	 -50.0404 	 10.2228 	 -101.612
| 22> H 	 -51.2224 	 11.2962 	 -101.029
| 23> S 	 -57.4596 	 11.083 	 -104.584
| 24> C 	 -58.3302 	 9.64583 	 -104.198
| 25> C 	 -57.4603 	 8.60402 	 -103.831
| 26> C 	 -56.0914 	 8.90362 	 -103.998
| 27> C 	 -55.8995 	 10.2402 	 -104.372
| 28> H 	 -57.8133 	 7.62135 	 -103.415
| 29> C 	 -54.9693 	 7.87891 	 -103.889
| 30> H 	 -55.0264 	 7.39773 	 -102.967
| 31> H 	 -54.006 	 8.46667 	 -103.994
| 32> C 	 -54.9709 	 6.81098 	 -105.006
| 33> H 	 -55.0656 	 7.21417 	 -106.025
| 34> H 	 -55.9391 	 6.30601 	 -104.973
| 35> C 	 -53.8694 	 5.74913 	 -104.895
| 36> H 	 -53.9405 	 5.43839 	 -103.817
| 37> H 	 -52.8364 	 6.11964 	 -104.911
| 38> H 	 -54.0341 	 4.8606 	 -105.525
| 39> H 	 -52.1273 	 12.9315 	 -106.116
| 40> H 	 -59.4016 	 9.41838 	 -104.284
| 41> *
| 42>
| 43>                          ****END OF INPUT****

CARTESIAN COORDINATES (ANGSTROEM)
---------------------------------
  S    -54.321900   11.633700  -106.154000
  C    -52.834400   12.364400  -105.550000
  C    -52.684600   12.116800  -104.167000
  C    -53.772900   11.367200  -103.672000
  C    -54.689200   10.998800  -104.578000
  H    -53.900300   11.116200  -102.666000
  C    -51.519600   12.748700  -103.415000
  H    -51.831500   13.281100  -102.473000
  H    -51.256900   13.603300  -104.079000
  C    -50.340300   11.949200  -102.954000
  H    -49.911600   11.565200  -103.875000
  H    -49.565900   12.598300  -102.467000
  C    -50.824300   10.838000  -101.935000
  H    -51.568100   10.139500  -102.369000
  H    -50.040400   10.222800  -101.612000
  H    -51.222400   11.296200  -101.029000
  S    -57.459600   11.083000  -104.584000
  C    -58.330200    9.645830  -104.198000
  C    -57.460300    8.604020  -103.831000
  C    -56.091400    8.903620  -103.998000
  C    -55.899500   10.240200  -104.372000
  H    -57.813300    7.621350  -103.415000
  C    -54.969300    7.878910  -103.889000
  H    -55.026400    7.397730  -102.967000
  H    -54.006000    8.466670  -103.994000
  C    -54.970900    6.810980  -105.006000
  H    -55.065600    7.214170  -106.025000
  H    -55.939100    6.306010  -104.973000
  C    -53.869400    5.749130  -104.895000
  H    -53.940500    5.438390  -103.817000
  H    -52.836400    6.119640  -104.911000
  H    -54.034100    4.860600  -105.525000
  H    -52.127300   12.931500  -106.116000
  H    -59.401600    9.418380  -104.284000

 Total Charge           Charge          ....    0
 Multiplicity           Mult            ....    1
 Number of Electrons    NEL             ....  134
 Basis Dimension        Dim             ....  322

ORBITAL ENERGIES
----------------

  NO   OCC          E(Eh)            E(eV)
   0   2.0000     -88.969740     -2420.9897
   1   2.0000     -88.966348     -2420.8974
   2   2.0000     -10.326187      -280.9898
   3   2.0000     -10.322117      -280.8791
   4   2.0000     -10.320138      -280.8252
   5   2.0000     -10.316980      -280.7393
   6   2.0000     -10.304154      -280.3903
   7   2.0000     -10.303496      -280.3724
   8   2.0000     -10.296927      -280.1936
   9   2.0000     -10.294451      -280.1262
  10   2.0000     -10.292959      -280.0856
  11   2.0000     -10.292217      -280.0655
  12   2.0000     -10.285815      -279.8913
  13   2.0000     -10.285657      -279.8870
  14   2.0000     -10.283120      -279.8179
  15   2.0000     -10.279229      -279.7120
  16   2.0000      -8.083969      -219.9760
  17   2.0000      -8.081087      -219.8975
  18   2.0000      -6.042458      -164.4236
  19   2.0000      -6.039491      -164.3429
  20   2.0000      -6.038481      -164.3154
  21   2.0000      -6.035528      -164.2351
  22   2.0000      -6.034850      -164.2166
  23   2.0000      -6.032010      -164.1393
  24   2.0000      -1.008374       -27.4392
  25   2.0000      -0.983594       -26.7650
  26   2.0000      -0.911977       -24.8162
  27   2.0000      -0.907198       -24.6861
  28   2.0000      -0.867375       -23.6025
  29   2.0000      -0.851495       -23.1703
  30   2.0000      -0.845249       -23.0004
  31   2.0000      -0.814050       -22.1514
  32   2.0000      -0.784276       -21.3412
  33   2.0000      -0.770333       -20.9618
  34   2.0000      -0.706567       -19.2267
  35   2.0000      -0.698123       -18.9969
  36   2.0000      -0.697055       -18.9678
  37   2.0000      -0.656791       -17.8722
  38   2.0000      -0.645928       -17.5766
  39   2.0000      -0.619803       -16.8657
  40   2.0000      -0.594182       -16.1685
  41   2.0000      -0.574994       -15.6464
  42   2.0000      -0.559119       -15.2144
  43   2.0000      -0.547551       -14.8996
  44   2.0000      -0.542141       -14.7524
  45   2.0000      -0.525139       -14.2898
  46   2.0000      -0.514296       -13.9947
  47   2.0000      -0.507504       -13.8099
  48   2.0000      -0.500526       -13.6200
  49   2.0000      -0.496406       -13.5079
  50   2.0000      -0.491515       -13.3748
  51   2.0000      -0.479739       -13.0544
  52   2.0000      -0.472167       -12.8483
  53   2.0000      -0.467729       -12.7275
  54   2.0000      -0.457993       -12.4626
  55   2.0000      -0.449695       -12.2368
  56   2.0000      -0.446504       -12.1500
  57   2.0000      -0.435572       -11.8525
  58   2.0000      -0.432352       -11.7649
  59   2.0000      -0.428287       -11.6543
  60   2.0000      -0.422437       -11.4951
  61   2.0000      -0.413706       -11.2575
  62   2.0000      -0.406564       -11.0632
  63   2.0000      -0.339826        -9.2471
  64   2.0000      -0.334257        -9.0956
  65   2.0000      -0.327065        -8.8999
  66   2.0000      -0.299184        -8.1412
  67   0.0000       0.033603         0.9144
  68   0.0000       0.060672         1.6510
  69   0.0000       0.117800         3.2055
  70   0.0000       0.119337         3.2473
  71   0.0000       0.126920         3.4537

MULLIKEN ATOMIC CHARGES
-----------------------
   0 S :    0.119148
   1 C :   -0.113674
   2 C :   -0.084818
   3 C :    0.075463
   4 C :   -0.177398
   5 H :   -0.014087
   6 C :    0.017067
   7 H :    0.028833
   8 H :    0.023014
   9 C :   -0.040102
  10 H :    0.022999
  11 H :    0.042699
  12 C :   -0.060284
  13 H :    0.044407
  14 H :    0.022598
  15 H :    0.029020
  16 S :    0.127382
  17 C :   -0.093233
  18 C :   -0.076561
  19 C :   -0.011935
  20 C :   -0.190521
  21 H :    0.034758
  22 C :    0.099018
  23 H :    0.011524
  24 H :    0.043617
  25 C :   -0.088956
  26 H :    0.029376
  27 H :    0.013662
  28 C :   -0.044075
  29 H :    0.015680
  30 H :    0.036472
  31 H :    0.050465
  32 H :    0.040627
  33 H :    0.067814
Sum of atomic charges:    0.0000000

LOEWDIN ATOMIC CHARGES
----------------------
   0 S :    0.409850
   1 C :   -0.185951
   2 C :   -0.060689
   3 C :   -0.054126
   4 C :   -0.203856
   5 H :    0.024774
   6 C :   -0.045280
   7 H :    0.032797
   8 H :    0.032764
   9 C :   -0.039081
  10 H :    0.020293
  11 H :    0.032211
  12 C :   -0.065156
  13 H :    0.030567
  14 H :    0.018023
  15 H :    0.025650
  16 S :    0.413308
  17 C :   -0.202387
  18 C :   -0.081779
  19 C :   -0.051025
  20 C :   -0.197823
  21 H :    0.037329
  22 C :   -0.024359
  23 H :    0.020610
  24 H :    0.039207
  25 C :   -0.047223
  26 H :    0.025159
  27 H :    0.021293
  28 C :   -0.072136
  29 H :    0.027986
  30 H :    0.026090
  31 H :    0.032032
  32 H :    0.022453
  33 H :    0.038478

  Mayer bond orders larger than 0.100000
B(  0-S ,  1-C ) :   1.1494 B(  0-S ,  4-C ) :   1.1490 B(  1-C ,  2-C ) :   1.5960
B(  1-C , 32-H ) :   0.9694 B(  2-C ,  3-C ) :   1.2413 B(  2-C ,  6-C ) :   1.0143
B(  3-C ,  4-C ) :   1.5858 B(  3-C ,  5-H ) :   1.0105 B(  4-C , 20-C ) :   1.0175
B(  6-C ,  7-H ) :   0.9436 B(  6-C ,  8-H ) :   0.9403 B(  6-C ,  9-C ) :   1.0694
B(  9-C , 10-H ) :   0.9531 B(  9-C , 11-H ) :   0.9535 B(  9-C , 12-C ) :   1.0693
B( 12-C , 13-H ) :   0.9734 B( 12-C , 14-H ) :   0.9744 B( 12-C , 15-H ) :   0.9748
B( 16-S , 17-C ) :   1.1671 B( 16-S , 20-C ) :   1.1457 B( 17-C , 18-C ) :   1.5876
B( 17-C , 20-C ) :   0.1104 B( 17-C , 33-H ) :   0.9629 B( 18-C , 19-C ) :   1.2686
B( 18-C , 21-H ) :   0.9769 B( 19-C , 20-C ) :   1.5811 B( 19-C , 22-C ) :   1.0463
B( 22-C , 23-H ) :   0.9243 B( 22-C , 24-H ) :   0.9320 B( 22-C , 25-C ) :   1.0635
B( 25-C , 26-H ) :   0.9538 B( 25-C , 27-H ) :   0.9515 B( 25-C , 28-C ) :   1.0775
B( 28-C , 29-H ) :   0.9692 B( 28-C , 30-H ) :   0.9761 B( 28-C , 31-H ) :   0.9739

Dispersion correction           -0.014329764
FINAL SINGLE POINT ENERGY     -1339.880771708212

DIPOLE MOMENT
-------------
                                X             Y             Z
Electronic contribution:    -20.63758      14.85198     -10.70525
Nuclear contribution   :     20.96970     -15.16128      11.05278
                        -----------------------------------------
Total Dipole Moment    :      0.33212      -0.30930       0.34752
                        -----------------------------------------
Magnitude (a.u.)       :      0.57161
Magnitude (Debye)      :      1.45292

Rotational constants in cm-1:     0.016927     0.009091     0.007147
Rotational constants in MHz :   507.456413   272.530337   214.256467

                             ****ORCA TERMINATED NORMALLY****
TOTAL RUN TIME: 0 days 0 hours 0 minutes 20 seconds 206 msec
