                         Program Version 4.2.1 -  RELEASE  -
|  1> ! wB97X-D3 SP def2-SVP
|  2> %pal
|  3> nprocs 24
|  4> end
|  5>
|  6> * xyz 0 1
|  7> S 	 -97.3344 	 15.9514 	 -117.455
|  8> C 	 -97.2763 	 15.2199 	 -115.843
|  9> C 	 -98.3065 	 14.3435 	 -115.638
| 10> C 	 -99.1512 	 14.2528 	 -116.795
| 11> C 	 -98.7627 	 14.947 	 -117.893
| 12> H 	 -100.076 	 13.8211 	 -116.76
| 13> C 	 -98.7063 	 13.6853 	 -114.371
| 14> H 	 -99.5527 	 14.3368 	 -114.033
| 15> H 	 -97.8112 	 13.7559 	 -113.687
| 16> C 	 -99.1588 	 12.1976 	 -114.64
| 17> H 	 -99.4172 	 11.7764 	 -113.618
| 18> H 	 -100.109 	 12.2632 	 -115.27
| 19> C 	 -98.0716 	 11.3881 	 -115.376
| 20> H 	 -98.4297 	 10.3898 	 -115.547
| 21> H 	 -97.7618 	 11.7917 	 -116.411
| 22> H 	 -97.1209 	 11.1722 	 -114.799
| 23> S 	 -99.2004 	 16.669 	 -119.952
| 24> C 	 -100.1 	 16.1342 	 -121.342
| 25> C 	 -100.544 	 14.8152 	 -121.227
| 26> C 	 -100.34 	 14.3197 	 -119.904
| 27> C 	 -99.4894 	 15.1355 	 -119.13
| 28> H 	 -100.95 	 14.2972 	 -122.04
| 29> C 	 -100.915 	 12.8909 	 -119.606
| 30> H 	 -102.009 	 12.7824 	 -119.832
| 31> H 	 -100.913 	 12.725 	 -118.545
| 32> C 	 -100.023 	 11.7964 	 -120.295
| 33> H 	 -98.9722 	 11.9575 	 -120.13
| 34> H 	 -100.091 	 11.9174 	 -121.421
| 35> C 	 -100.436 	 10.2931 	 -119.828
| 36> H 	 -100.046 	 10.1259 	 -118.756
| 37> H 	 -99.9864 	 9.5279 	 -120.489
| 38> H 	 -101.512 	 10.1671 	 -119.855
| 39> H 	 -96.5767 	 15.538 	 -115.133
| 40> H 	 -100.326 	 16.6939 	 -122.301
| 41> *
| 42>
| 43>                          ****END OF INPUT****

CARTESIAN COORDINATES (ANGSTROEM)
---------------------------------
  S    -97.334400   15.951400  -117.455000
  C    -97.276300   15.219900  -115.843000
  C    -98.306500   14.343500  -115.638000
  C    -99.151200   14.252800  -116.795000
  C    -98.762700   14.947000  -117.893000
  H    -100.076000   13.821100  -116.760000
  C    -98.706300   13.685300  -114.371000
  H    -99.552700   14.336800  -114.033000
  H    -97.811200   13.755900  -113.687000
  C    -99.158800   12.197600  -114.640000
  H    -99.417200   11.776400  -113.618000
  H    -100.109000   12.263200  -115.270000
  C    -98.071600   11.388100  -115.376000
  H    -98.429700   10.389800  -115.547000
  H    -97.761800   11.791700  -116.411000
  H    -97.120900   11.172200  -114.799000
  S    -99.200400   16.669000  -119.952000
  C    -100.100000   16.134200  -121.342000
  C    -100.544000   14.815200  -121.227000
  C    -100.340000   14.319700  -119.904000
  C    -99.489400   15.135500  -119.130000
  H    -100.950000   14.297200  -122.040000
  C    -100.915000   12.890900  -119.606000
  H    -102.009000   12.782400  -119.832000
  H    -100.913000   12.725000  -118.545000
  C    -100.023000   11.796400  -120.295000
  H    -98.972200   11.957500  -120.130000
  H    -100.091000   11.917400  -121.421000
  C    -100.436000   10.293100  -119.828000
  H    -100.046000   10.125900  -118.756000
  H    -99.986400    9.527900  -120.489000
  H    -101.512000   10.167100  -119.855000
  H    -96.576700   15.538000  -115.133000
  H    -100.326000   16.693900  -122.301000

 Total Charge           Charge          ....    0
 Multiplicity           Mult            ....    1
 Number of Electrons    NEL             ....  134
 Basis Dimension        Dim             ....  322

ORBITAL ENERGIES
----------------

  NO   OCC          E(Eh)            E(eV)
   0   2.0000     -88.969644     -2420.9871
   1   2.0000     -88.961816     -2420.7741
   2   2.0000     -10.332496      -281.1615
   3   2.0000     -10.331316      -281.1294
   4   2.0000     -10.321474      -280.8616
   5   2.0000     -10.311541      -280.5913
   6   2.0000     -10.308570      -280.5104
   7   2.0000     -10.306227      -280.4467
   8   2.0000     -10.302239      -280.3382
   9   2.0000     -10.300073      -280.2792
  10   2.0000     -10.298711      -280.2422
  11   2.0000     -10.296047      -280.1697
  12   2.0000     -10.292942      -280.0852
  13   2.0000     -10.291490      -280.0457
  14   2.0000     -10.287116      -279.9267
  15   2.0000     -10.281875      -279.7841
  16   2.0000      -8.084039      -219.9779
  17   2.0000      -8.075760      -219.7526
  18   2.0000      -6.042612      -164.4278
  19   2.0000      -6.038591      -164.3184
  20   2.0000      -6.034757      -164.2141
  21   2.0000      -6.034574      -164.2091
  22   2.0000      -6.030527      -164.0990
  23   2.0000      -6.026104      -163.9786
  24   2.0000      -1.004344       -27.3296
  25   2.0000      -0.981273       -26.7018
  26   2.0000      -0.909936       -24.7606
  27   2.0000      -0.895690       -24.3730
  28   2.0000      -0.868991       -23.6464
  29   2.0000      -0.844817       -22.9886
  30   2.0000      -0.836708       -22.7680
  31   2.0000      -0.813925       -22.1480
  32   2.0000      -0.778316       -21.1791
  33   2.0000      -0.768676       -20.9167
  34   2.0000      -0.709944       -19.3186
  35   2.0000      -0.697815       -18.9885
  36   2.0000      -0.693467       -18.8702
  37   2.0000      -0.662079       -18.0161
  38   2.0000      -0.641141       -17.4463
  39   2.0000      -0.629149       -17.1200
  40   2.0000      -0.590725       -16.0745
  41   2.0000      -0.561714       -15.2850
  42   2.0000      -0.554543       -15.0899
  43   2.0000      -0.547380       -14.8950
  44   2.0000      -0.535549       -14.5730
  45   2.0000      -0.519252       -14.1296
  46   2.0000      -0.518144       -14.0994
  47   2.0000      -0.505212       -13.7475
  48   2.0000      -0.501800       -13.6547
  49   2.0000      -0.494630       -13.4596
  50   2.0000      -0.487360       -13.2617
  51   2.0000      -0.482009       -13.1161
  52   2.0000      -0.468173       -12.7396
  53   2.0000      -0.461092       -12.5469
  54   2.0000      -0.454621       -12.3709
  55   2.0000      -0.450119       -12.2484
  56   2.0000      -0.447851       -12.1866
  57   2.0000      -0.439950       -11.9717
  58   2.0000      -0.436451       -11.8764
  59   2.0000      -0.421455       -11.4684
  60   2.0000      -0.419145       -11.4055
  61   2.0000      -0.416483       -11.3331
  62   2.0000      -0.411245       -11.1905
  63   2.0000      -0.359946        -9.7946
  64   2.0000      -0.333468        -9.0741
  65   2.0000      -0.323747        -8.8096
  66   2.0000      -0.280556        -7.6343
  67   0.0000       0.019910         0.5418
  68   0.0000       0.076740         2.0882
  69   0.0000       0.102764         2.7964
  70   0.0000       0.116074         3.1585
  71   0.0000       0.122975         3.3463

MULLIKEN ATOMIC CHARGES
-----------------------
   0 S :    0.073457
   1 C :   -0.114154
   2 C :   -0.077494
   3 C :    0.000954
   4 C :   -0.074476
   5 H :   -0.025919
   6 C :    0.051672
   7 H :    0.061540
   8 H :    0.032623
   9 C :   -0.110619
  10 H :    0.049006
  11 H :    0.045424
  12 C :   -0.079473
  13 H :    0.027182
  14 H :    0.067716
  15 H :    0.040604
  16 S :    0.110020
  17 C :   -0.106528
  18 C :   -0.027659
  19 C :   -0.052441
  20 C :   -0.139310
  21 H :    0.007213
  22 C :    0.066050
  23 H :    0.043724
  24 H :    0.000503
  25 C :   -0.102842
  26 H :    0.042071
  27 H :    0.034894
  28 C :   -0.081335
  29 H :    0.051682
  30 H :    0.046189
  31 H :    0.035772
  32 H :    0.026677
  33 H :    0.077279
Sum of atomic charges:   -0.0000000

LOEWDIN ATOMIC CHARGES
----------------------
   0 S :    0.358553
   1 C :   -0.180800
   2 C :   -0.064145
   3 C :   -0.060806
   4 C :   -0.166029
   5 H :    0.010959
   6 C :   -0.039244
   7 H :    0.044569
   8 H :    0.034824
   9 C :   -0.047022
  10 H :    0.032972
  11 H :    0.030328
  12 C :   -0.082495
  13 H :    0.021708
  14 H :    0.041139
  15 H :    0.032995
  16 S :    0.410145
  17 C :   -0.200807
  18 C :   -0.065059
  19 C :   -0.049871
  20 C :   -0.191829
  21 H :    0.023774
  22 C :   -0.032964
  23 H :    0.037777
  24 H :    0.018754
  25 C :   -0.039784
  26 H :    0.024854
  27 H :    0.025490
  28 C :   -0.073944
  29 H :    0.035113
  30 H :    0.029062
  31 H :    0.020835
  32 H :    0.016376
  33 H :    0.044572

  Mayer bond orders larger than 0.100000
B(  0-S ,  1-C ) :   1.1104 B(  0-S ,  4-C ) :   1.1129 B(  1-C ,  2-C ) :   1.6387
B(  1-C , 32-H ) :   0.9754 B(  2-C ,  3-C ) :   1.2029 B(  2-C ,  6-C ) :   1.0147
B(  3-C ,  4-C ) :   1.6074 B(  3-C ,  5-H ) :   1.0029 B(  4-C , 20-C ) :   1.0929
B(  6-C ,  7-H ) :   0.9394 B(  6-C ,  8-H ) :   0.9419 B(  6-C ,  9-C ) :   1.0579
B(  9-C , 10-H ) :   0.9578 B(  9-C , 11-H ) :   0.9491 B(  9-C , 12-C ) :   1.0722
B( 12-C , 13-H ) :   0.9723 B( 12-C , 14-H ) :   0.9653 B( 12-C , 15-H ) :   0.9733
B( 16-S , 17-C ) :   1.1564 B( 16-S , 20-C ) :   1.1314 B( 17-C , 18-C ) :   1.6047
B( 17-C , 33-H ) :   0.9582 B( 18-C , 19-C ) :   1.2509 B( 18-C , 21-H ) :   0.9966
B( 19-C , 20-C ) :   1.5689 B( 19-C , 22-C ) :   1.0371 B( 22-C , 23-H ) :   0.9406
B( 22-C , 24-H ) :   0.9422 B( 22-C , 25-C ) :   1.0411 B( 25-C , 26-H ) :   0.9604
B( 25-C , 27-H ) :   0.9613 B( 25-C , 28-C ) :   1.0601 B( 28-C , 29-H ) :   0.9770
B( 28-C , 30-H ) :   0.9773 B( 28-C , 31-H ) :   0.9784

Dispersion correction           -0.014832359
FINAL SINGLE POINT ENERGY     -1339.865752748291

DIPOLE MOMENT
-------------
                                X             Y             Z
Electronic contribution:      6.94707      29.24978      -7.50712
Nuclear contribution   :     -7.34576     -29.85862       7.65867
                        -----------------------------------------
Total Dipole Moment    :     -0.39869      -0.60884       0.15155
                        -----------------------------------------
Magnitude (a.u.)       :      0.74338
Magnitude (Debye)      :      1.88951

Rotational constants in cm-1:     0.016272     0.010855     0.007022
Rotational constants in MHz :   487.814992   325.424093   210.515701

                             ****ORCA TERMINATED NORMALLY****
TOTAL RUN TIME: 0 days 0 hours 0 minutes 21 seconds 141 msec
