                         Program Version 4.2.1 -  RELEASE  -
|  1> ! wB97X-D3 SP def2-SVP
|  2> %pal
|  3> nprocs 24
|  4> end
|  5>
|  6> * xyz 0 1
|  7> S 	 -116.421 	 17.1515 	 -109.073
|  8> C 	 -116.437 	 18.2173 	 -107.606
|  9> C 	 -117.548 	 17.9845 	 -106.827
| 10> C 	 -118.355 	 17.0427 	 -107.397
| 11> C 	 -117.923 	 16.4659 	 -108.561
| 12> H 	 -119.318 	 16.7039 	 -106.932
| 13> C 	 -117.999 	 18.7886 	 -105.657
| 14> H 	 -118.491 	 18.0552 	 -104.976
| 15> H 	 -118.663 	 19.533 	 -106.055
| 16> C 	 -116.919 	 19.3741 	 -104.74
| 17> H 	 -116.068 	 18.7175 	 -104.568
| 18> H 	 -116.516 	 20.2639 	 -105.207
| 19> C 	 -117.474 	 19.8162 	 -103.364
| 20> H 	 -116.638 	 20.0306 	 -102.762
| 21> H 	 -118.178 	 20.6466 	 -103.451
| 22> H 	 -117.942 	 19.0226 	 -102.813
| 23> S 	 -119.318 	 14.1619 	 -108.231
| 24> C 	 -120.088 	 13.4503 	 -109.536
| 25> C 	 -119.739 	 13.999 	 -110.772
| 26> C 	 -118.779 	 15.0286 	 -110.581
| 27> C 	 -118.658 	 15.4096 	 -109.238
| 28> H 	 -120.257 	 13.5984 	 -111.655
| 29> C 	 -118.179 	 15.7788 	 -111.708
| 30> H 	 -118.004 	 16.8345 	 -111.403
| 31> H 	 -119.046 	 15.8213 	 -112.445
| 32> C 	 -116.949 	 15.1391 	 -112.309
| 33> H 	 -117.342 	 14.1493 	 -112.65
| 34> H 	 -116.197 	 14.9616 	 -111.575
| 35> C 	 -116.366 	 15.7824 	 -113.606
| 36> H 	 -115.849 	 14.9925 	 -114.159
| 37> H 	 -115.624 	 16.6038 	 -113.449
| 38> H 	 -117.121 	 16.2326 	 -114.386
| 39> H 	 -115.92 	 19.1489 	 -107.551
| 40> H 	 -120.954 	 12.7912 	 -109.346
| 41> *
| 42>
| 43>                          ****END OF INPUT****

CARTESIAN COORDINATES (ANGSTROEM)
---------------------------------
  S    -116.421000   17.151500  -109.073000
  C    -116.437000   18.217300  -107.606000
  C    -117.548000   17.984500  -106.827000
  C    -118.355000   17.042700  -107.397000
  C    -117.923000   16.465900  -108.561000
  H    -119.318000   16.703900  -106.932000
  C    -117.999000   18.788600  -105.657000
  H    -118.491000   18.055200  -104.976000
  H    -118.663000   19.533000  -106.055000
  C    -116.919000   19.374100  -104.740000
  H    -116.068000   18.717500  -104.568000
  H    -116.516000   20.263900  -105.207000
  C    -117.474000   19.816200  -103.364000
  H    -116.638000   20.030600  -102.762000
  H    -118.178000   20.646600  -103.451000
  H    -117.942000   19.022600  -102.813000
  S    -119.318000   14.161900  -108.231000
  C    -120.088000   13.450300  -109.536000
  C    -119.739000   13.999000  -110.772000
  C    -118.779000   15.028600  -110.581000
  C    -118.658000   15.409600  -109.238000
  H    -120.257000   13.598400  -111.655000
  C    -118.179000   15.778800  -111.708000
  H    -118.004000   16.834500  -111.403000
  H    -119.046000   15.821300  -112.445000
  C    -116.949000   15.139100  -112.309000
  H    -117.342000   14.149300  -112.650000
  H    -116.197000   14.961600  -111.575000
  C    -116.366000   15.782400  -113.606000
  H    -115.849000   14.992500  -114.159000
  H    -115.624000   16.603800  -113.449000
  H    -117.121000   16.232600  -114.386000
  H    -115.920000   19.148900  -107.551000
  H    -120.954000   12.791200  -109.346000

 Total Charge           Charge          ....    0
 Multiplicity           Mult            ....    1
 Number of Electrons    NEL             ....  134
 Basis Dimension        Dim             ....  322

ORBITAL ENERGIES
----------------

  NO   OCC          E(Eh)            E(eV)
   0   2.0000     -88.968910     -2420.9671
   1   2.0000     -88.963571     -2420.8218
   2   2.0000     -10.326734      -281.0047
   3   2.0000     -10.322521      -280.8901
   4   2.0000     -10.312048      -280.6051
   5   2.0000     -10.310976      -280.5759
   6   2.0000     -10.302196      -280.3370
   7   2.0000     -10.296776      -280.1895
   8   2.0000     -10.292929      -280.0848
   9   2.0000     -10.292452      -280.0719
  10   2.0000     -10.290032      -280.0060
  11   2.0000     -10.288532      -279.9652
  12   2.0000     -10.287766      -279.9444
  13   2.0000     -10.286472      -279.9091
  14   2.0000     -10.285392      -279.8797
  15   2.0000     -10.274381      -279.5801
  16   2.0000      -8.082535      -219.9370
  17   2.0000      -8.080105      -219.8708
  18   2.0000      -6.041080      -164.3862
  19   2.0000      -6.038324      -164.3111
  20   2.0000      -6.037212      -164.2809
  21   2.0000      -6.034335      -164.2026
  22   2.0000      -6.033321      -164.1750
  23   2.0000      -6.031086      -164.1142
  24   2.0000      -1.014741       -27.6125
  25   2.0000      -0.991820       -26.9888
  26   2.0000      -0.916411       -24.9368
  27   2.0000      -0.911275       -24.7971
  28   2.0000      -0.870334       -23.6830
  29   2.0000      -0.854959       -23.2646
  30   2.0000      -0.847838       -23.0708
  31   2.0000      -0.809706       -22.0332
  32   2.0000      -0.785091       -21.3634
  33   2.0000      -0.771122       -20.9833
  34   2.0000      -0.713968       -19.4281
  35   2.0000      -0.699586       -19.0367
  36   2.0000      -0.689097       -18.7513
  37   2.0000      -0.664224       -18.0745
  38   2.0000      -0.627364       -17.0715
  39   2.0000      -0.617755       -16.8100
  40   2.0000      -0.594515       -16.1776
  41   2.0000      -0.577871       -15.7247
  42   2.0000      -0.569439       -15.4952
  43   2.0000      -0.559250       -15.2180
  44   2.0000      -0.531077       -14.4514
  45   2.0000      -0.523289       -14.2394
  46   2.0000      -0.520338       -14.1591
  47   2.0000      -0.508358       -13.8331
  48   2.0000      -0.507290       -13.8041
  49   2.0000      -0.496888       -13.5210
  50   2.0000      -0.484620       -13.1872
  51   2.0000      -0.482391       -13.1265
  52   2.0000      -0.471476       -12.8295
  53   2.0000      -0.462506       -12.5854
  54   2.0000      -0.457611       -12.4522
  55   2.0000      -0.450472       -12.2580
  56   2.0000      -0.443878       -12.0785
  57   2.0000      -0.441006       -12.0004
  58   2.0000      -0.435127       -11.8404
  59   2.0000      -0.423925       -11.5356
  60   2.0000      -0.420673       -11.4471
  61   2.0000      -0.417668       -11.3653
  62   2.0000      -0.406639       -11.0652
  63   2.0000      -0.344482        -9.3738
  64   2.0000      -0.337030        -9.1711
  65   2.0000      -0.330369        -8.9898
  66   2.0000      -0.286013        -7.7828
  67   0.0000       0.020725         0.5640
  68   0.0000       0.082341         2.2406
  69   0.0000       0.101718         2.7679
  70   0.0000       0.113756         3.0955
  71   0.0000       0.130460         3.5500

MULLIKEN ATOMIC CHARGES
-----------------------
   0 S :    0.101597
   1 C :   -0.125522
   2 C :   -0.055373
   3 C :   -0.044722
   4 C :   -0.102685
   5 H :    0.023508
   6 C :    0.054834
   7 H :    0.031979
   8 H :    0.052145
   9 C :   -0.096386
  10 H :    0.034683
  11 H :    0.021634
  12 C :   -0.020675
  13 H :    0.021378
  14 H :    0.035988
  15 H :    0.021106
  16 S :    0.118765
  17 C :   -0.111607
  18 C :   -0.047157
  19 C :   -0.036419
  20 C :   -0.144820
  21 H :    0.033390
  22 C :    0.006672
  23 H :    0.030707
  24 H :    0.031535
  25 C :   -0.041420
  26 H :    0.024467
  27 H :    0.030519
  28 C :   -0.084009
  29 H :    0.036806
  30 H :    0.043416
  31 H :    0.041835
  32 H :    0.044190
  33 H :    0.069641
Sum of atomic charges:    0.0000000

LOEWDIN ATOMIC CHARGES
----------------------
   0 S :    0.397457
   1 C :   -0.185058
   2 C :   -0.065078
   3 C :   -0.079598
   4 C :   -0.195591
   5 H :    0.033216
   6 C :   -0.029280
   7 H :    0.037819
   8 H :    0.038259
   9 C :   -0.040309
  10 H :    0.026937
  11 H :    0.019651
  12 C :   -0.058159
  13 H :    0.022832
  14 H :    0.026360
  15 H :    0.020780
  16 S :    0.451645
  17 C :   -0.214746
  18 C :   -0.076236
  19 C :   -0.057789
  20 C :   -0.200622
  21 H :    0.039914
  22 C :   -0.047263
  23 H :    0.022805
  24 H :    0.037515
  25 C :   -0.040034
  26 H :    0.029905
  27 H :    0.021506
  28 C :   -0.080385
  29 H :    0.026635
  30 H :    0.026832
  31 H :    0.036160
  32 H :    0.021968
  33 H :    0.031955

  Mayer bond orders larger than 0.100000
B(  0-S ,  1-C ) :   1.1200 B(  0-S ,  4-C ) :   1.1444 B(  1-C ,  2-C ) :   1.5927
B(  1-C , 32-H ) :   0.9641 B(  2-C ,  3-C ) :   1.2898 B(  2-C ,  6-C ) :   1.0101
B(  3-C ,  4-C ) :   1.5223 B(  3-C ,  5-H ) :   0.9896 B(  4-C , 20-C ) :   1.0627
B(  6-C ,  7-H ) :   0.9471 B(  6-C ,  8-H ) :   0.9345 B(  6-C ,  9-C ) :   1.0696
B(  9-C , 10-H ) :   0.9622 B(  9-C , 11-H ) :   0.9453 B(  9-C , 12-C ) :   1.0951
B( 12-C , 13-H ) :   0.9720 B( 12-C , 14-H ) :   0.9753 B( 12-C , 15-H ) :   0.9735
B( 16-S , 17-C ) :   1.1951 B( 16-S , 20-C ) :   1.1578 B( 17-C , 18-C ) :   1.5762
B( 17-C , 33-H ) :   0.9593 B( 18-C , 19-C ) :   1.2451 B( 18-C , 21-H ) :   0.9931
B( 19-C , 20-C ) :   1.5407 B( 19-C , 22-C ) :   1.0524 B( 22-C , 23-H ) :   0.9354
B( 22-C , 24-H ) :   0.9363 B( 22-C , 25-C ) :   1.0569 B( 25-C , 26-H ) :   0.9574
B( 25-C , 27-H ) :   0.9540 B( 25-C , 28-C ) :   1.0671 B( 28-C , 29-H ) :   0.9776
B( 28-C , 30-H ) :   0.9764 B( 28-C , 31-H ) :   0.9746

Dispersion correction           -0.013671968
FINAL SINGLE POINT ENERGY     -1339.869222436148

DIPOLE MOMENT
-------------
                                X             Y             Z
Electronic contribution:     -4.35536     -12.05551      -0.86916
Nuclear contribution   :      4.06746      12.32014       0.93203
                        -----------------------------------------
Total Dipole Moment    :     -0.28790       0.26463       0.06287
                        -----------------------------------------
Magnitude (a.u.)       :      0.39606
Magnitude (Debye)      :      1.00671

Rotational constants in cm-1:     0.023503     0.007304     0.005765
Rotational constants in MHz :   704.590075   218.963112   172.837565

                             ****ORCA TERMINATED NORMALLY****
TOTAL RUN TIME: 0 days 0 hours 0 minutes 20 seconds 955 msec
