                         Program Version 4.2.1 -  RELEASE  -
|  1> ! wB97X-D3 SP def2-SVP
|  2> %pal
|  3> nprocs 24
|  4> end
|  5>
|  6> * xyz 0 1
|  7> S 	 -116.622 	 17.2981 	 -109.575
|  8> C 	 -116.873 	 18.9961 	 -109.088
|  9> C 	 -118.2 	 19.2891 	 -109.083
| 10> C 	 -119.036 	 18.1839 	 -109.477
| 11> C 	 -118.287 	 17.0243 	 -109.784
| 12> H 	 -120.063 	 18.2003 	 -109.658
| 13> C 	 -118.787 	 20.5286 	 -108.514
| 14> H 	 -118.877 	 21.4049 	 -109.171
| 15> H 	 -118.017 	 20.8967 	 -107.754
| 16> C 	 -120.031 	 20.4241 	 -107.694
| 17> H 	 -120.775 	 19.9227 	 -108.205
| 18> H 	 -119.823 	 19.8924 	 -106.815
| 19> C 	 -120.512 	 21.7707 	 -107.085
| 20> H 	 -121.544 	 21.6211 	 -106.625
| 21> H 	 -119.853 	 22.2778 	 -106.354
| 22> H 	 -120.694 	 22.4868 	 -107.857
| 23> S 	 -119.496 	 14.6478 	 -109.091
| 24> C 	 -120.189 	 13.6686 	 -110.348
| 25> C 	 -119.821 	 14.0964 	 -111.628
| 26> C 	 -119.066 	 15.3271 	 -111.629
| 27> C 	 -118.778 	 15.7422 	 -110.308
| 28> H 	 -120.278 	 13.5928 	 -112.45
| 29> C 	 -118.59 	 16.0664 	 -112.858
| 30> H 	 -118.641 	 17.1187 	 -112.636
| 31> H 	 -119.306 	 15.9954 	 -113.715
| 32> C 	 -117.122 	 15.7662 	 -113.309
| 33> H 	 -117.06 	 14.6562 	 -113.349
| 34> H 	 -116.421 	 16.0126 	 -112.511
| 35> C 	 -116.62 	 16.2939 	 -114.672
| 36> H 	 -117.252 	 16.4459 	 -115.577
| 37> H 	 -115.788 	 15.6007 	 -115.041
| 38> H 	 -116.07 	 17.2884 	 -114.569
| 39> H 	 -116.174 	 19.6913 	 -108.656
| 40> H 	 -121.053 	 13.0308 	 -110.205
| 41> *
| 42>
| 43>                          ****END OF INPUT****

CARTESIAN COORDINATES (ANGSTROEM)
---------------------------------
  S    -116.622000   17.298100  -109.575000
  C    -116.873000   18.996100  -109.088000
  C    -118.200000   19.289100  -109.083000
  C    -119.036000   18.183900  -109.477000
  C    -118.287000   17.024300  -109.784000
  H    -120.063000   18.200300  -109.658000
  C    -118.787000   20.528600  -108.514000
  H    -118.877000   21.404900  -109.171000
  H    -118.017000   20.896700  -107.754000
  C    -120.031000   20.424100  -107.694000
  H    -120.775000   19.922700  -108.205000
  H    -119.823000   19.892400  -106.815000
  C    -120.512000   21.770700  -107.085000
  H    -121.544000   21.621100  -106.625000
  H    -119.853000   22.277800  -106.354000
  H    -120.694000   22.486800  -107.857000
  S    -119.496000   14.647800  -109.091000
  C    -120.189000   13.668600  -110.348000
  C    -119.821000   14.096400  -111.628000
  C    -119.066000   15.327100  -111.629000
  C    -118.778000   15.742200  -110.308000
  H    -120.278000   13.592800  -112.450000
  C    -118.590000   16.066400  -112.858000
  H    -118.641000   17.118700  -112.636000
  H    -119.306000   15.995400  -113.715000
  C    -117.122000   15.766200  -113.309000
  H    -117.060000   14.656200  -113.349000
  H    -116.421000   16.012600  -112.511000
  C    -116.620000   16.293900  -114.672000
  H    -117.252000   16.445900  -115.577000
  H    -115.788000   15.600700  -115.041000
  H    -116.070000   17.288400  -114.569000
  H    -116.174000   19.691300  -108.656000
  H    -121.053000   13.030800  -110.205000

 Total Charge           Charge          ....    0
 Multiplicity           Mult            ....    1
 Number of Electrons    NEL             ....  134
 Basis Dimension        Dim             ....  322

ORBITAL ENERGIES
----------------

  NO   OCC          E(Eh)            E(eV)
   0   2.0000     -88.968599     -2420.9587
   1   2.0000     -88.967729     -2420.9350
   2   2.0000     -10.331298      -281.1289
   3   2.0000     -10.331082      -281.1230
   4   2.0000     -10.318080      -280.7692
   5   2.0000     -10.313471      -280.6438
   6   2.0000     -10.312983      -280.6305
   7   2.0000     -10.299975      -280.2766
   8   2.0000     -10.296537      -280.1830
   9   2.0000     -10.294183      -280.1190
  10   2.0000     -10.293761      -280.1075
  11   2.0000     -10.291744      -280.0526
  12   2.0000     -10.291051      -280.0337
  13   2.0000     -10.289872      -280.0017
  14   2.0000     -10.284399      -279.8527
  15   2.0000     -10.275971      -279.6234
  16   2.0000      -8.083252      -219.9565
  17   2.0000      -8.082023      -219.9230
  18   2.0000      -6.041747      -164.4043
  19   2.0000      -6.040407      -164.3678
  20   2.0000      -6.037597      -164.2914
  21   2.0000      -6.036536      -164.2625
  22   2.0000      -6.034186      -164.1986
  23   2.0000      -6.032992      -164.1660
  24   2.0000      -1.004881       -27.3442
  25   2.0000      -0.981245       -26.7010
  26   2.0000      -0.919907       -25.0319
  27   2.0000      -0.899782       -24.4843
  28   2.0000      -0.870436       -23.6858
  29   2.0000      -0.845770       -23.0146
  30   2.0000      -0.844910       -22.9912
  31   2.0000      -0.812627       -22.1127
  32   2.0000      -0.782920       -21.3043
  33   2.0000      -0.771316       -20.9886
  34   2.0000      -0.713702       -19.4208
  35   2.0000      -0.697161       -18.9707
  36   2.0000      -0.690395       -18.7866
  37   2.0000      -0.659127       -17.9358
  38   2.0000      -0.643579       -17.5127
  39   2.0000      -0.621822       -16.9206
  40   2.0000      -0.594579       -16.1793
  41   2.0000      -0.576600       -15.6901
  42   2.0000      -0.569136       -15.4870
  43   2.0000      -0.551264       -15.0007
  44   2.0000      -0.523421       -14.2430
  45   2.0000      -0.521684       -14.1957
  46   2.0000      -0.511668       -13.9232
  47   2.0000      -0.507441       -13.8082
  48   2.0000      -0.505880       -13.7657
  49   2.0000      -0.497007       -13.5243
  50   2.0000      -0.496464       -13.5095
  51   2.0000      -0.476272       -12.9600
  52   2.0000      -0.471659       -12.8345
  53   2.0000      -0.461195       -12.5498
  54   2.0000      -0.453883       -12.3508
  55   2.0000      -0.452835       -12.3223
  56   2.0000      -0.448140       -12.1945
  57   2.0000      -0.433020       -11.7831
  58   2.0000      -0.429627       -11.6907
  59   2.0000      -0.426777       -11.6132
  60   2.0000      -0.425548       -11.5797
  61   2.0000      -0.415195       -11.2980
  62   2.0000      -0.402059       -10.9406
  63   2.0000      -0.336329        -9.1520
  64   2.0000      -0.329960        -8.9787
  65   2.0000      -0.319208        -8.6861
  66   2.0000      -0.311617        -8.4795
  67   0.0000       0.036249         0.9864
  68   0.0000       0.050912         1.3854
  69   0.0000       0.113450         3.0871
  70   0.0000       0.121044         3.2938
  71   0.0000       0.123602         3.3634

MULLIKEN ATOMIC CHARGES
-----------------------
   0 S :    0.120707
   1 C :   -0.113917
   2 C :   -0.047078
   3 C :    0.065657
   4 C :   -0.181079
   5 H :   -0.005860
   6 C :    0.022751
   7 H :    0.036368
   8 H :    0.019208
   9 C :   -0.036566
  10 H :    0.017575
  11 H :    0.023223
  12 C :   -0.082727
  13 H :    0.042403
  14 H :    0.043314
  15 H :    0.017781
  16 S :    0.114537
  17 C :   -0.105941
  18 C :   -0.031375
  19 C :   -0.011656
  20 C :   -0.184327
  21 H :    0.015357
  22 C :    0.079132
  23 H :    0.025299
  24 H :    0.025558
  25 C :   -0.057371
  26 H :    0.028915
  27 H :    0.029719
  28 C :   -0.103993
  29 H :    0.043969
  30 H :    0.040707
  31 H :    0.041675
  32 H :    0.040294
  33 H :    0.067742
Sum of atomic charges:    0.0000000

LOEWDIN ATOMIC CHARGES
----------------------
   0 S :    0.426535
   1 C :   -0.190438
   2 C :   -0.063351
   3 C :   -0.053101
   4 C :   -0.214072
   5 H :    0.021308
   6 C :   -0.041793
   7 H :    0.030662
   8 H :    0.037824
   9 C :   -0.034433
  10 H :    0.012185
  11 H :    0.023941
  12 C :   -0.066486
  13 H :    0.036915
  14 H :    0.028454
  15 H :    0.015226
  16 S :    0.405819
  17 C :   -0.193059
  18 C :   -0.069114
  19 C :   -0.042153
  20 C :   -0.200479
  21 H :    0.028594
  22 C :   -0.038072
  23 H :    0.029781
  24 H :    0.033839
  25 C :   -0.043465
  26 H :    0.026137
  27 H :    0.024086
  28 C :   -0.089262
  29 H :    0.028675
  30 H :    0.036418
  31 H :    0.031602
  32 H :    0.029278
  33 H :    0.031997

  Mayer bond orders larger than 0.100000
B(  0-S ,  1-C ) :   1.1280 B(  0-S ,  4-C ) :   1.1844 B(  1-C ,  2-C ) :   1.6319
B(  1-C , 32-H ) :   0.9671 B(  2-C ,  3-C ) :   1.2310 B(  2-C ,  6-C ) :   1.0146
B(  3-C ,  4-C ) :   1.5633 B(  3-C ,  5-H ) :   1.0045 B(  4-C , 20-C ) :   0.9930
B(  6-C ,  7-H ) :   0.9336 B(  6-C ,  8-H ) :   0.9483 B(  6-C ,  9-C ) :   1.0759
B(  9-C , 10-H ) :   0.9480 B(  9-C , 11-H ) :   0.9546 B(  9-C , 12-C ) :   1.0800
B( 12-C , 13-H ) :   0.9733 B( 12-C , 14-H ) :   0.9773 B( 12-C , 15-H ) :   0.9753
B( 16-S , 17-C ) :   1.1679 B( 16-S , 20-C ) :   1.1482 B( 17-C , 18-C ) :   1.6088
B( 17-C , 33-H ) :   0.9622 B( 18-C , 19-C ) :   1.2383 B( 18-C , 21-H ) :   0.9915
B( 19-C , 20-C ) :   1.5842 B( 19-C , 22-C ) :   1.0550 B( 22-C , 23-H ) :   0.9231
B( 22-C , 24-H ) :   0.9368 B( 22-C , 25-C ) :   1.0542 B( 25-C , 26-H ) :   0.9647
B( 25-C , 27-H ) :   0.9492 B( 25-C , 28-C ) :   1.0627 B( 28-C , 29-H ) :   0.9784
B( 28-C , 30-H ) :   0.9758 B( 28-C , 31-H ) :   0.9770

Dispersion correction           -0.014000916
FINAL SINGLE POINT ENERGY     -1339.863377670782

DIPOLE MOMENT
-------------
                                X             Y             Z
Electronic contribution:      3.24659     -17.42546       8.00616
Nuclear contribution   :     -3.65679      17.83248      -8.19542
                        -----------------------------------------
Total Dipole Moment    :     -0.41019       0.40703      -0.18926
                        -----------------------------------------
Magnitude (a.u.)       :      0.60807
Magnitude (Debye)      :      1.54559

Rotational constants in cm-1:     0.018386     0.007989     0.006585
Rotational constants in MHz :   551.207230   239.500223   197.419241

                             ****ORCA TERMINATED NORMALLY****
TOTAL RUN TIME: 0 days 0 hours 0 minutes 20 seconds 998 msec
