                         Program Version 4.2.1 -  RELEASE  -
|  1> ! wB97X-D3 SP def2-SVP
|  2> %pal
|  3> nprocs 24
|  4> end
|  5>
|  6> * xyz 0 1
|  7> S 	 -102.473 	 -2.85822 	 -113.342
|  8> C 	 -104.071 	 -3.19534 	 -113.962
|  9> C 	 -104.901 	 -3.68614 	 -112.996
| 10> C 	 -104.296 	 -3.64775 	 -111.722
| 11> C 	 -102.993 	 -3.33035 	 -111.705
| 12> H 	 -104.745 	 -3.97148 	 -110.8
| 13> C 	 -106.362 	 -3.93515 	 -113.271
| 14> H 	 -106.772 	 -3.17503 	 -114.021
| 15> H 	 -106.927 	 -3.73405 	 -112.339
| 16> C 	 -106.538 	 -5.39216 	 -113.618
| 17> H 	 -105.991 	 -5.749 	 -114.551
| 18> H 	 -106.021 	 -5.92321 	 -112.858
| 19> C 	 -108.018 	 -5.68656 	 -113.793
| 20> H 	 -108.227 	 -6.6777 	 -114.097
| 21> H 	 -108.679 	 -5.39428 	 -112.989
| 22> H 	 -108.489 	 -5.066 	 -114.639
| 23> S 	 -100.357 	 -3.52872 	 -110.824
| 24> C 	 -99.9044 	 -3.28722 	 -109.177
| 25> C 	 -101.057 	 -3.02899 	 -108.423
| 26> C 	 -102.295 	 -2.97841 	 -109.136
| 27> C 	 -102.077 	 -3.24417 	 -110.535
| 28> H 	 -100.914 	 -3.07022 	 -107.35
| 29> C 	 -103.584 	 -2.89248 	 -108.366
| 30> H 	 -103.894 	 -3.91467 	 -108.204
| 31> H 	 -104.32 	 -2.44672 	 -109.069
| 32> C 	 -103.604 	 -2.02392 	 -107.108
| 33> H 	 -102.834 	 -2.44176 	 -106.377
| 34> H 	 -104.615 	 -2.14331 	 -106.617
| 35> C 	 -103.321 	 -0.497824 	 -107.21
| 36> H 	 -103.59 	 0.00141453 	 -106.244
| 37> H 	 -103.802 	 -0.112175 	 -108.098
| 38> H 	 -102.249 	 -0.313372 	 -107.51
| 39> H 	 -104.424 	 -3.17368 	 -115.034
| 40> H 	 -98.9153 	 -3.45561 	 -108.816
| 41> *
| 42>
| 43>                          ****END OF INPUT****

CARTESIAN COORDINATES (ANGSTROEM)
---------------------------------
  S    -102.473000   -2.858220  -113.342000
  C    -104.071000   -3.195340  -113.962000
  C    -104.901000   -3.686140  -112.996000
  C    -104.296000   -3.647750  -111.722000
  C    -102.993000   -3.330350  -111.705000
  H    -104.745000   -3.971480  -110.800000
  C    -106.362000   -3.935150  -113.271000
  H    -106.772000   -3.175030  -114.021000
  H    -106.927000   -3.734050  -112.339000
  C    -106.538000   -5.392160  -113.618000
  H    -105.991000   -5.749000  -114.551000
  H    -106.021000   -5.923210  -112.858000
  C    -108.018000   -5.686560  -113.793000
  H    -108.227000   -6.677700  -114.097000
  H    -108.679000   -5.394280  -112.989000
  H    -108.489000   -5.066000  -114.639000
  S    -100.357000   -3.528720  -110.824000
  C    -99.904400   -3.287220  -109.177000
  C    -101.057000   -3.028990  -108.423000
  C    -102.295000   -2.978410  -109.136000
  C    -102.077000   -3.244170  -110.535000
  H    -100.914000   -3.070220  -107.350000
  C    -103.584000   -2.892480  -108.366000
  H    -103.894000   -3.914670  -108.204000
  H    -104.320000   -2.446720  -109.069000
  C    -103.604000   -2.023920  -107.108000
  H    -102.834000   -2.441760  -106.377000
  H    -104.615000   -2.143310  -106.617000
  C    -103.321000   -0.497824  -107.210000
  H    -103.590000    0.001415  -106.244000
  H    -103.802000   -0.112175  -108.098000
  H    -102.249000   -0.313372  -107.510000
  H    -104.424000   -3.173680  -115.034000
  H    -98.915300   -3.455610  -108.816000

 Total Charge           Charge          ....    0
 Multiplicity           Mult            ....    1
 Number of Electrons    NEL             ....  134
 Basis Dimension        Dim             ....  322

ORBITAL ENERGIES
----------------

  NO   OCC          E(Eh)            E(eV)
   0   2.0000     -88.967090     -2420.9176
   1   2.0000     -88.965733     -2420.8807
   2   2.0000     -10.338175      -281.3160
   3   2.0000     -10.331772      -281.1418
   4   2.0000     -10.317744      -280.7601
   5   2.0000     -10.314419      -280.6696
   6   2.0000     -10.311772      -280.5976
   7   2.0000     -10.299004      -280.2501
   8   2.0000     -10.297570      -280.2111
   9   2.0000     -10.296712      -280.1878
  10   2.0000     -10.295215      -280.1470
  11   2.0000     -10.294190      -280.1192
  12   2.0000     -10.288689      -279.9695
  13   2.0000     -10.288050      -279.9521
  14   2.0000     -10.285016      -279.8695
  15   2.0000     -10.278485      -279.6918
  16   2.0000      -8.081807      -219.9171
  17   2.0000      -8.080031      -219.8688
  18   2.0000      -6.040283      -164.3645
  19   2.0000      -6.038729      -164.3222
  20   2.0000      -6.036092      -164.2504
  21   2.0000      -6.034647      -164.2111
  22   2.0000      -6.032840      -164.1619
  23   2.0000      -6.030569      -164.1001
  24   2.0000      -1.006513       -27.3886
  25   2.0000      -0.985366       -26.8132
  26   2.0000      -0.917727       -24.9726
  27   2.0000      -0.910082       -24.7646
  28   2.0000      -0.867793       -23.6138
  29   2.0000      -0.851095       -23.1595
  30   2.0000      -0.842598       -22.9282
  31   2.0000      -0.816909       -22.2292
  32   2.0000      -0.784662       -21.3517
  33   2.0000      -0.770479       -20.9658
  34   2.0000      -0.706448       -19.2234
  35   2.0000      -0.700529       -19.0624
  36   2.0000      -0.694700       -18.9038
  37   2.0000      -0.653526       -17.7833
  38   2.0000      -0.638421       -17.3723
  39   2.0000      -0.623568       -16.9681
  40   2.0000      -0.598947       -16.2982
  41   2.0000      -0.572004       -15.5650
  42   2.0000      -0.559380       -15.2215
  43   2.0000      -0.555044       -15.1035
  44   2.0000      -0.533518       -14.5178
  45   2.0000      -0.527250       -14.3472
  46   2.0000      -0.519874       -14.1465
  47   2.0000      -0.517470       -14.0811
  48   2.0000      -0.500057       -13.6072
  49   2.0000      -0.497800       -13.5458
  50   2.0000      -0.491374       -13.3710
  51   2.0000      -0.482211       -13.1216
  52   2.0000      -0.470229       -12.7956
  53   2.0000      -0.460554       -12.5323
  54   2.0000      -0.457439       -12.4475
  55   2.0000      -0.455849       -12.4043
  56   2.0000      -0.444315       -12.0904
  57   2.0000      -0.442181       -12.0324
  58   2.0000      -0.432743       -11.7755
  59   2.0000      -0.424618       -11.5544
  60   2.0000      -0.416678       -11.3384
  61   2.0000      -0.409512       -11.1434
  62   2.0000      -0.408063       -11.1040
  63   2.0000      -0.357091        -9.7169
  64   2.0000      -0.333195        -9.0667
  65   2.0000      -0.330105        -8.9826
  66   2.0000      -0.285582        -7.7711
  67   0.0000       0.023735         0.6459
  68   0.0000       0.077199         2.1007
  69   0.0000       0.106680         2.9029
  70   0.0000       0.117826         3.2062
  71   0.0000       0.140604         3.8260

MULLIKEN ATOMIC CHARGES
-----------------------
   0 S :    0.103815
   1 C :   -0.126215
   2 C :   -0.087448
   3 C :   -0.008786
   4 C :   -0.090695
   5 H :    0.000535
   6 C :    0.020836
   7 H :    0.044689
   8 H :    0.025680
   9 C :   -0.063913
  10 H :    0.037004
  11 H :    0.022490
  12 C :   -0.020647
  13 H :    0.024807
  14 H :    0.023596
  15 H :    0.022429
  16 S :    0.101543
  17 C :   -0.090043
  18 C :   -0.056523
  19 C :   -0.039731
  20 C :   -0.157561
  21 H :    0.024482
  22 C :    0.052106
  23 H :    0.054307
  24 H :    0.033533
  25 C :   -0.118025
  26 H :    0.035276
  27 H :    0.040983
  28 C :   -0.055963
  29 H :    0.058439
  30 H :    0.028188
  31 H :    0.040326
  32 H :    0.064687
  33 H :    0.055800
Sum of atomic charges:   -0.0000000

LOEWDIN ATOMIC CHARGES
----------------------
   0 S :    0.386389
   1 C :   -0.200204
   2 C :   -0.071836
   3 C :   -0.071099
   4 C :   -0.176091
   5 H :    0.028487
   6 C :   -0.033255
   7 H :    0.036821
   8 H :    0.032461
   9 C :   -0.044042
  10 H :    0.033347
  11 H :    0.021893
  12 C :   -0.070627
  13 H :    0.018217
  14 H :    0.021834
  15 H :    0.033750
  16 S :    0.416258
  17 C :   -0.192097
  18 C :   -0.076917
  19 C :   -0.057625
  20 C :   -0.193213
  21 H :    0.030287
  22 C :   -0.040453
  23 H :    0.038118
  24 H :    0.034521
  25 C :   -0.051367
  26 H :    0.025008
  27 H :    0.031715
  28 C :   -0.073104
  29 H :    0.036740
  30 H :    0.023349
  31 H :    0.032827
  32 H :    0.043181
  33 H :    0.026727

  Mayer bond orders larger than 0.100000
B(  0-S ,  1-C ) :   1.1290 B(  0-S ,  4-C ) :   1.1256 B(  1-C ,  2-C ) :   1.6447
B(  1-C , 32-H ) :   0.9527 B(  2-C ,  3-C ) :   1.2281 B(  2-C ,  6-C ) :   1.0116
B(  3-C ,  4-C ) :   1.6101 B(  3-C ,  5-H ) :   0.9939 B(  4-C , 20-C ) :   1.0486
B(  6-C ,  7-H ) :   0.9513 B(  6-C ,  8-H ) :   0.9450 B(  6-C ,  9-C ) :   1.0447
B(  9-C , 10-H ) :   0.9552 B(  9-C , 11-H ) :   0.9547 B(  9-C , 12-C ) :   1.0779
B( 12-C , 13-H ) :   0.9738 B( 12-C , 14-H ) :   0.9732 B( 12-C , 15-H ) :   0.9685
B( 16-S , 17-C ) :   1.1726 B( 16-S , 20-C ) :   1.1654 B( 17-C , 18-C ) :   1.5700
B( 17-C , 20-C ) :   0.1106 B( 17-C , 33-H ) :   0.9727 B( 18-C , 19-C ) :   1.2729
B( 18-C , 21-H ) :   0.9858 B( 19-C , 20-C ) :   1.5288 B( 19-C , 22-C ) :   1.0347
B( 22-C , 23-H ) :   0.9332 B( 22-C , 24-H ) :   0.9249 B( 22-C , 25-C ) :   1.0769
B( 25-C , 26-H ) :   0.9482 B( 25-C , 27-H ) :   0.9541 B( 25-C , 28-C ) :   1.0712
B( 28-C , 29-H ) :   0.9740 B( 28-C , 30-H ) :   0.9740 B( 28-C , 31-H ) :   0.9703

Dispersion correction           -0.013650808
FINAL SINGLE POINT ENERGY     -1339.877082461377

DIPOLE MOMENT
-------------
                                X             Y             Z
Electronic contribution:     24.80453       0.94091      -9.21796
Nuclear contribution   :    -25.36422      -1.14408       9.62603
                        -----------------------------------------
Total Dipole Moment    :     -0.55970      -0.20317       0.40807
                        -----------------------------------------
Magnitude (a.u.)       :      0.72184
Magnitude (Debye)      :      1.83478

Rotational constants in cm-1:     0.019746     0.007555     0.006087
Rotational constants in MHz :   591.963905   226.506499   182.492832

                             ****ORCA TERMINATED NORMALLY****
TOTAL RUN TIME: 0 days 0 hours 0 minutes 21 seconds 125 msec
