                         Program Version 4.2.1 -  RELEASE  -
|  1> ! wB97X-D3 SP def2-SVP
|  2> %pal
|  3> nprocs 24
|  4> end
|  5>
|  6> * xyz 0 1
|  7> S 	 -131.154 	 58.4343 	 -64.5804
|  8> C 	 -129.63 	 58.3414 	 -65.3631
|  9> C 	 -128.619 	 58.063 	 -64.4597
| 10> C 	 -129.059 	 57.7093 	 -63.1842
| 11> C 	 -130.401 	 58.0492 	 -63.0804
| 12> H 	 -128.419 	 57.3811 	 -62.3724
| 13> C 	 -127.12 	 58.0243 	 -64.8103
| 14> H 	 -126.406 	 58.2316 	 -64.0504
| 15> H 	 -127.008 	 58.8711 	 -65.5353
| 16> C 	 -126.658 	 56.6806 	 -65.5048
| 17> H 	 -127.319 	 56.433 	 -66.2799
| 18> H 	 -125.688 	 56.8433 	 -65.9724
| 19> C 	 -126.586 	 55.4824 	 -64.5707
| 20> H 	 -125.962 	 55.7615 	 -63.7159
| 21> H 	 -127.512 	 55.2068 	 -64.1306
| 22> H 	 -126.238 	 54.5846 	 -65.0433
| 23> S 	 -131.647 	 59.746 	 -61.2545
| 24> C 	 -132.091 	 59.1235 	 -59.7149
| 25> C 	 -131.698 	 57.8387 	 -59.4945
| 26> C 	 -131.137 	 57.2406 	 -60.7166
| 27> C 	 -131.152 	 58.1218 	 -61.8112
| 28> H 	 -131.851 	 57.2143 	 -58.642
| 29> C 	 -130.621 	 55.8063 	 -60.6976
| 30> H 	 -130.116 	 55.6794 	 -59.7595
| 31> H 	 -129.896 	 55.7502 	 -61.4853
| 32> C 	 -131.736 	 54.8213 	 -60.8989
| 33> H 	 -131.225 	 53.9696 	 -61.3545
| 34> H 	 -132.535 	 55.2081 	 -61.4641
| 35> C 	 -132.294 	 54.1434 	 -59.5889
| 36> H 	 -132.948 	 53.3108 	 -59.8553
| 37> H 	 -132.901 	 54.9536 	 -59.1636
| 38> H 	 -131.545 	 53.786 	 -58.8552
| 39> H 	 -129.549 	 58.3183 	 -66.4319
| 40> H 	 -132.308 	 59.6846 	 -58.8753
| 41> *
| 42>
| 43>                          ****END OF INPUT****

CARTESIAN COORDINATES (ANGSTROEM)
---------------------------------
  S    -131.154000   58.434300  -64.580400
  C    -129.630000   58.341400  -65.363100
  C    -128.619000   58.063000  -64.459700
  C    -129.059000   57.709300  -63.184200
  C    -130.401000   58.049200  -63.080400
  H    -128.419000   57.381100  -62.372400
  C    -127.120000   58.024300  -64.810300
  H    -126.406000   58.231600  -64.050400
  H    -127.008000   58.871100  -65.535300
  C    -126.658000   56.680600  -65.504800
  H    -127.319000   56.433000  -66.279900
  H    -125.688000   56.843300  -65.972400
  C    -126.586000   55.482400  -64.570700
  H    -125.962000   55.761500  -63.715900
  H    -127.512000   55.206800  -64.130600
  H    -126.238000   54.584600  -65.043300
  S    -131.647000   59.746000  -61.254500
  C    -132.091000   59.123500  -59.714900
  C    -131.698000   57.838700  -59.494500
  C    -131.137000   57.240600  -60.716600
  C    -131.152000   58.121800  -61.811200
  H    -131.851000   57.214300  -58.642000
  C    -130.621000   55.806300  -60.697600
  H    -130.116000   55.679400  -59.759500
  H    -129.896000   55.750200  -61.485300
  C    -131.736000   54.821300  -60.898900
  H    -131.225000   53.969600  -61.354500
  H    -132.535000   55.208100  -61.464100
  C    -132.294000   54.143400  -59.588900
  H    -132.948000   53.310800  -59.855300
  H    -132.901000   54.953600  -59.163600
  H    -131.545000   53.786000  -58.855200
  H    -129.549000   58.318300  -66.431900
  H    -132.308000   59.684600  -58.875300

 Total Charge           Charge          ....    0
 Multiplicity           Mult            ....    1
 Number of Electrons    NEL             ....  134
 Basis Dimension        Dim             ....  322

ORBITAL ENERGIES
----------------

  NO   OCC          E(Eh)            E(eV)
   0   2.0000     -88.969776     -2420.9907
   1   2.0000     -88.963225     -2420.8124
   2   2.0000     -10.328208      -281.0448
   3   2.0000     -10.325562      -280.9728
   4   2.0000     -10.308754      -280.5155
   5   2.0000     -10.308136      -280.4987
   6   2.0000     -10.302369      -280.3417
   7   2.0000     -10.299896      -280.2744
   8   2.0000     -10.294228      -280.1202
   9   2.0000     -10.292745      -280.0798
  10   2.0000     -10.290626      -280.0222
  11   2.0000     -10.284840      -279.8647
  12   2.0000     -10.282762      -279.8082
  13   2.0000     -10.281584      -279.7761
  14   2.0000     -10.280080      -279.7352
  15   2.0000     -10.271438      -279.5000
  16   2.0000      -8.085468      -220.0168
  17   2.0000      -8.078000      -219.8136
  18   2.0000      -6.043666      -164.4565
  19   2.0000      -6.039879      -164.3535
  20   2.0000      -6.036553      -164.2630
  21   2.0000      -6.036478      -164.2609
  22   2.0000      -6.032601      -164.1554
  23   2.0000      -6.028612      -164.0469
  24   2.0000      -1.010822       -27.5059
  25   2.0000      -0.984588       -26.7920
  26   2.0000      -0.912077       -24.8189
  27   2.0000      -0.906873       -24.6773
  28   2.0000      -0.867081       -23.5945
  29   2.0000      -0.856233       -23.2993
  30   2.0000      -0.841694       -22.9037
  31   2.0000      -0.814065       -22.1518
  32   2.0000      -0.785327       -21.3698
  33   2.0000      -0.771307       -20.9883
  34   2.0000      -0.704089       -19.1592
  35   2.0000      -0.703714       -19.1490
  36   2.0000      -0.689316       -18.7572
  37   2.0000      -0.663688       -18.0599
  38   2.0000      -0.644672       -17.5424
  39   2.0000      -0.618720       -16.8362
  40   2.0000      -0.600723       -16.3465
  41   2.0000      -0.575522       -15.6607
  42   2.0000      -0.551723       -15.0131
  43   2.0000      -0.546037       -14.8584
  44   2.0000      -0.543454       -14.7881
  45   2.0000      -0.536791       -14.6068
  46   2.0000      -0.522793       -14.2259
  47   2.0000      -0.514836       -14.0094
  48   2.0000      -0.500683       -13.6243
  49   2.0000      -0.496678       -13.5153
  50   2.0000      -0.491547       -13.3757
  51   2.0000      -0.479715       -13.0537
  52   2.0000      -0.472775       -12.8649
  53   2.0000      -0.469544       -12.7769
  54   2.0000      -0.455980       -12.4078
  55   2.0000      -0.452671       -12.3178
  56   2.0000      -0.446154       -12.1405
  57   2.0000      -0.440693       -11.9919
  58   2.0000      -0.437316       -11.9000
  59   2.0000      -0.425697       -11.5838
  60   2.0000      -0.423085       -11.5127
  61   2.0000      -0.415763       -11.3135
  62   2.0000      -0.396532       -10.7902
  63   2.0000      -0.347223        -9.4484
  64   2.0000      -0.333946        -9.0871
  65   2.0000      -0.324922        -8.8416
  66   2.0000      -0.289415        -7.8754
  67   0.0000       0.033915         0.9229
  68   0.0000       0.064283         1.7492
  69   0.0000       0.111218         3.0264
  70   0.0000       0.119062         3.2398
  71   0.0000       0.124331         3.3832

MULLIKEN ATOMIC CHARGES
-----------------------
   0 S :    0.136184
   1 C :   -0.118671
   2 C :   -0.087061
   3 C :    0.043062
   4 C :   -0.187462
   5 H :    0.025633
   6 C :    0.034487
   7 H :    0.021563
   8 H :    0.032905
   9 C :   -0.040263
  10 H :    0.009226
  11 H :    0.028313
  12 C :   -0.035588
  13 H :    0.017447
  14 H :    0.019936
  15 H :    0.032496
  16 S :    0.100094
  17 C :   -0.033569
  18 C :   -0.028500
  19 C :   -0.129559
  20 C :   -0.121667
  21 H :    0.011564
  22 C :    0.121905
  23 H :    0.017378
  24 H :    0.006457
  25 C :   -0.053128
  26 H :    0.027801
  27 H :    0.039269
  28 C :   -0.083102
  29 H :    0.041923
  30 H :    0.030079
  31 H :    0.039628
  32 H :    0.046934
  33 H :    0.034288
Sum of atomic charges:   -0.0000000

LOEWDIN ATOMIC CHARGES
----------------------
   0 S :    0.443640
   1 C :   -0.213695
   2 C :   -0.059438
   3 C :   -0.060787
   4 C :   -0.202892
   5 H :    0.036000
   6 C :   -0.028946
   7 H :    0.022746
   8 H :    0.036656
   9 C :   -0.031967
  10 H :    0.013541
  11 H :    0.023575
  12 C :   -0.063907
  13 H :    0.022848
  14 H :    0.018947
  15 H :    0.025771
  16 S :    0.401674
  17 C :   -0.182786
  18 C :   -0.069501
  19 C :   -0.046619
  20 C :   -0.203989
  21 H :    0.025850
  22 C :   -0.027898
  23 H :    0.029050
  24 H :    0.025270
  25 C :   -0.031635
  26 H :    0.026883
  27 H :    0.023666
  28 C :   -0.069046
  29 H :    0.027107
  30 H :    0.022047
  31 H :    0.025921
  32 H :    0.023915
  33 H :    0.017998

  Mayer bond orders larger than 0.100000
B(  0-S ,  1-C ) :   1.1472 B(  0-S ,  4-C ) :   1.1964 B(  1-C ,  2-C ) :   1.5819
B(  1-C ,  4-C ) :   0.1041 B(  1-C , 32-H ) :   0.9721 B(  2-C ,  3-C ) :   1.2898
B(  2-C ,  6-C ) :   1.0138 B(  3-C ,  4-C ) :   1.5221 B(  3-C ,  5-H ) :   0.9901
B(  4-C , 20-C ) :   1.0037 B(  6-C ,  7-H ) :   0.9528 B(  6-C ,  8-H ) :   0.9427
B(  6-C ,  9-C ) :   1.0681 B(  9-C , 10-H ) :   0.9565 B(  9-C , 11-H ) :   0.9564
B(  9-C , 12-C ) :   1.0814 B( 12-C , 13-H ) :   0.9746 B( 12-C , 14-H ) :   0.9731
B( 12-C , 15-H ) :   0.9721 B( 16-S , 17-C ) :   1.1597 B( 16-S , 20-C ) :   1.1244
B( 17-C , 18-C ) :   1.6152 B( 17-C , 33-H ) :   0.9656 B( 18-C , 19-C ) :   1.2372
B( 18-C , 21-H ) :   0.9884 B( 19-C , 20-C ) :   1.6197 B( 19-C , 22-C ) :   1.0453
B( 22-C , 23-H ) :   0.9300 B( 22-C , 24-H ) :   0.9295 B( 22-C , 25-C ) :   1.0614
B( 25-C , 26-H ) :   0.9578 B( 25-C , 27-H ) :   0.9611 B( 25-C , 28-C ) :   1.0734
B( 28-C , 29-H ) :   0.9753 B( 28-C , 30-H ) :   0.9774 B( 28-C , 31-H ) :   0.9770

Dispersion correction           -0.014650178
FINAL SINGLE POINT ENERGY     -1339.863025093090

DIPOLE MOMENT
-------------
                                X             Y             Z
Electronic contribution:    -13.83936      22.69590      -2.54060
Nuclear contribution   :     14.35303     -23.18782       2.68400
                        -----------------------------------------
Total Dipole Moment    :      0.51366      -0.49192       0.14340
                        -----------------------------------------
Magnitude (a.u.)       :      0.72553
Magnitude (Debye)      :      1.84416

Rotational constants in cm-1:     0.018522     0.008751     0.006905
Rotational constants in MHz :   555.289089   262.350326   207.017535

                             ****ORCA TERMINATED NORMALLY****
TOTAL RUN TIME: 0 days 0 hours 0 minutes 21 seconds 934 msec
