                         Program Version 4.2.1 -  RELEASE  -
|  1> ! wB97X-D3 SP def2-SVP
|  2> %pal
|  3> nprocs 24
|  4> end
|  5>
|  6> * xyz 0 1
|  7> S 	 -130.101 	 58.8124 	 -58.3568
|  8> C 	 -131.501 	 58.8019 	 -59.341
|  9> C 	 -131.327 	 59.4302 	 -60.5806
| 10> C 	 -130.036 	 60.102 	 -60.615
| 11> C 	 -129.273 	 59.8572 	 -59.4652
| 12> H 	 -129.568 	 60.6039 	 -61.4472
| 13> C 	 -132.345 	 59.4823 	 -61.7292
| 14> H 	 -132.24 	 60.6019 	 -62.0883
| 15> H 	 -133.364 	 59.4641 	 -61.425
| 16> C 	 -131.977 	 58.4828 	 -62.8358
| 17> H 	 -130.944 	 58.5047 	 -63.0626
| 18> H 	 -132.09 	 57.402 	 -62.4475
| 19> C 	 -132.688 	 58.7453 	 -64.2157
| 20> H 	 -132.329 	 57.9556 	 -64.8859
| 21> H 	 -133.8 	 58.7104 	 -64.2249
| 22> H 	 -132.381 	 59.6784 	 -64.7924
| 23> S 	 -127.66 	 62.1753 	 -59.2376
| 24> C 	 -125.904 	 61.9442 	 -59.0517
| 25> C 	 -125.625 	 60.6041 	 -58.7708
| 26> C 	 -126.804 	 59.8139 	 -58.7564
| 27> C 	 -127.97 	 60.4502 	 -59.1
| 28> H 	 -124.59 	 60.298 	 -58.7105
| 29> C 	 -126.622 	 58.3483 	 -58.4097
| 30> H 	 -127.278 	 58.1644 	 -57.5946
| 31> H 	 -125.637 	 58.1078 	 -57.8959
| 32> C 	 -126.753 	 57.3016 	 -59.542
| 33> H 	 -126.02 	 57.4919 	 -60.3302
| 34> H 	 -127.695 	 57.4252 	 -60.1072
| 35> C 	 -126.829 	 55.8908 	 -59.064
| 36> H 	 -125.855 	 55.4765 	 -58.9269
| 37> H 	 -127.371 	 55.2118 	 -59.7177
| 38> H 	 -127.321 	 55.7112 	 -58.0943
| 39> H 	 -132.377 	 58.2267 	 -59.09
| 40> H 	 -125.248 	 62.7812 	 -58.9465
| 41> *
| 42>
| 43>                          ****END OF INPUT****

CARTESIAN COORDINATES (ANGSTROEM)
---------------------------------
  S    -130.101000   58.812400  -58.356800
  C    -131.501000   58.801900  -59.341000
  C    -131.327000   59.430200  -60.580600
  C    -130.036000   60.102000  -60.615000
  C    -129.273000   59.857200  -59.465200
  H    -129.568000   60.603900  -61.447200
  C    -132.345000   59.482300  -61.729200
  H    -132.240000   60.601900  -62.088300
  H    -133.364000   59.464100  -61.425000
  C    -131.977000   58.482800  -62.835800
  H    -130.944000   58.504700  -63.062600
  H    -132.090000   57.402000  -62.447500
  C    -132.688000   58.745300  -64.215700
  H    -132.329000   57.955600  -64.885900
  H    -133.800000   58.710400  -64.224900
  H    -132.381000   59.678400  -64.792400
  S    -127.660000   62.175300  -59.237600
  C    -125.904000   61.944200  -59.051700
  C    -125.625000   60.604100  -58.770800
  C    -126.804000   59.813900  -58.756400
  C    -127.970000   60.450200  -59.100000
  H    -124.590000   60.298000  -58.710500
  C    -126.622000   58.348300  -58.409700
  H    -127.278000   58.164400  -57.594600
  H    -125.637000   58.107800  -57.895900
  C    -126.753000   57.301600  -59.542000
  H    -126.020000   57.491900  -60.330200
  H    -127.695000   57.425200  -60.107200
  C    -126.829000   55.890800  -59.064000
  H    -125.855000   55.476500  -58.926900
  H    -127.371000   55.211800  -59.717700
  H    -127.321000   55.711200  -58.094300
  H    -132.377000   58.226700  -59.090000
  H    -125.248000   62.781200  -58.946500

 Total Charge           Charge          ....    0
 Multiplicity           Mult            ....    1
 Number of Electrons    NEL             ....  134
 Basis Dimension        Dim             ....  322

ORBITAL ENERGIES
----------------

  NO   OCC          E(Eh)            E(eV)
   0   2.0000     -88.967914     -2420.9400
   1   2.0000     -88.965421     -2420.8722
   2   2.0000     -10.331908      -281.1455
   3   2.0000     -10.327690      -281.0307
   4   2.0000     -10.319610      -280.8109
   5   2.0000     -10.312243      -280.6104
   6   2.0000     -10.307818      -280.4900
   7   2.0000     -10.301992      -280.3314
   8   2.0000     -10.300354      -280.2869
   9   2.0000     -10.298680      -280.2413
  10   2.0000     -10.296853      -280.1916
  11   2.0000     -10.295491      -280.1546
  12   2.0000     -10.290147      -280.0091
  13   2.0000     -10.289527      -279.9923
  14   2.0000     -10.281510      -279.7741
  15   2.0000     -10.269824      -279.4561
  16   2.0000      -8.083225      -219.9557
  17   2.0000      -8.079444      -219.8529
  18   2.0000      -6.041595      -164.4001
  19   2.0000      -6.038005      -164.3025
  20   2.0000      -6.037627      -164.2922
  21   2.0000      -6.034149      -164.1975
  22   2.0000      -6.033992      -164.1933
  23   2.0000      -6.030241      -164.0912
  24   2.0000      -1.005395       -27.3582
  25   2.0000      -0.983347       -26.7582
  26   2.0000      -0.906079       -24.6557
  27   2.0000      -0.903907       -24.5966
  28   2.0000      -0.865448       -23.5500
  29   2.0000      -0.852009       -23.1843
  30   2.0000      -0.844886       -22.9905
  31   2.0000      -0.812446       -22.1078
  32   2.0000      -0.780451       -21.2372
  33   2.0000      -0.769107       -20.9285
  34   2.0000      -0.706195       -19.2165
  35   2.0000      -0.700552       -19.0630
  36   2.0000      -0.689232       -18.7550
  37   2.0000      -0.667604       -18.1664
  38   2.0000      -0.643693       -17.5158
  39   2.0000      -0.616444       -16.7743
  40   2.0000      -0.596216       -16.2239
  41   2.0000      -0.566313       -15.4102
  42   2.0000      -0.558481       -15.1970
  43   2.0000      -0.546137       -14.8611
  44   2.0000      -0.525993       -14.3130
  45   2.0000      -0.522326       -14.2132
  46   2.0000      -0.514959       -14.0128
  47   2.0000      -0.511592       -13.9211
  48   2.0000      -0.507444       -13.8082
  49   2.0000      -0.499711       -13.5978
  50   2.0000      -0.488982       -13.3059
  51   2.0000      -0.481410       -13.0998
  52   2.0000      -0.468294       -12.7429
  53   2.0000      -0.466552       -12.6955
  54   2.0000      -0.460325       -12.5261
  55   2.0000      -0.448479       -12.2037
  56   2.0000      -0.446879       -12.1602
  57   2.0000      -0.438638       -11.9359
  58   2.0000      -0.428503       -11.6602
  59   2.0000      -0.420039       -11.4298
  60   2.0000      -0.418044       -11.3756
  61   2.0000      -0.413777       -11.2595
  62   2.0000      -0.400077       -10.8867
  63   2.0000      -0.345018        -9.3884
  64   2.0000      -0.333550        -9.0764
  65   2.0000      -0.328640        -8.9427
  66   2.0000      -0.291306        -7.9268
  67   0.0000       0.029927         0.8144
  68   0.0000       0.070160         1.9091
  69   0.0000       0.107959         2.9377
  70   0.0000       0.118372         3.2211
  71   0.0000       0.125996         3.4285

MULLIKEN ATOMIC CHARGES
-----------------------
   0 S :    0.121437
   1 C :   -0.114674
   2 C :   -0.095806
   3 C :    0.020011
   4 C :   -0.179474
   5 H :    0.019603
   6 C :    0.049538
   7 H :    0.041494
   8 H :    0.023743
   9 C :   -0.062808
  10 H :    0.022805
  11 H :    0.041335
  12 C :   -0.084469
  13 H :    0.033183
  14 H :    0.042460
  15 H :    0.044318
  16 S :    0.101955
  17 C :   -0.106323
  18 C :   -0.024702
  19 C :   -0.020743
  20 C :   -0.120877
  21 H :    0.027535
  22 C :    0.039994
  23 H :    0.016083
  24 H :    0.023342
  25 C :   -0.058198
  26 H :    0.026797
  27 H :    0.032576
  28 C :   -0.034265
  29 H :    0.018334
  30 H :    0.028111
  31 H :    0.024780
  32 H :    0.044558
  33 H :    0.058346
Sum of atomic charges:    0.0000000

LOEWDIN ATOMIC CHARGES
----------------------
   0 S :    0.435529
   1 C :   -0.211298
   2 C :   -0.060065
   3 C :   -0.063272
   4 C :   -0.194974
   5 H :    0.031900
   6 C :   -0.035812
   7 H :    0.043897
   8 H :    0.024005
   9 C :   -0.043155
  10 H :    0.021201
  11 H :    0.036003
  12 C :   -0.079583
  13 H :    0.027827
  14 H :    0.025478
  15 H :    0.033325
  16 S :    0.394670
  17 C :   -0.172202
  18 C :   -0.066283
  19 C :   -0.060008
  20 C :   -0.201044
  21 H :    0.034935
  22 C :   -0.037694
  23 H :    0.019531
  24 H :    0.036020
  25 C :   -0.047381
  26 H :    0.025863
  27 H :    0.026545
  28 C :   -0.068299
  29 H :    0.018778
  30 H :    0.027520
  31 H :    0.029239
  32 H :    0.024719
  33 H :    0.024085

  Mayer bond orders larger than 0.100000
B(  0-S ,  1-C ) :   1.1559 B(  0-S ,  4-C ) :   1.1690 B(  1-C ,  2-C ) :   1.6050
B(  1-C , 32-H ) :   0.9687 B(  2-C ,  3-C ) :   1.2372 B(  2-C ,  6-C ) :   1.0140
B(  3-C ,  4-C ) :   1.5758 B(  3-C ,  5-H ) :   0.9930 B(  4-C , 20-C ) :   1.0206
B(  6-C ,  7-H ) :   0.9475 B(  6-C ,  8-H ) :   0.9494 B(  6-C ,  9-C ) :   1.0481
B(  9-C , 10-H ) :   0.9581 B(  9-C , 11-H ) :   0.9532 B(  9-C , 12-C ) :   1.0689
B( 12-C , 13-H ) :   0.9745 B( 12-C , 14-H ) :   0.9779 B( 12-C , 15-H ) :   0.9756
B( 16-S , 17-C ) :   1.1618 B( 16-S , 20-C ) :   1.1330 B( 17-C , 18-C ) :   1.5808
B( 17-C , 33-H ) :   0.9700 B( 18-C , 19-C ) :   1.2636 B( 18-C , 21-H ) :   0.9957
B( 19-C , 20-C ) :   1.5826 B( 19-C , 22-C ) :   1.0288 B( 22-C , 23-H ) :   0.9350
B( 22-C , 24-H ) :   0.9412 B( 22-C , 25-C ) :   1.0552 B( 25-C , 26-H ) :   0.9541
B( 25-C , 27-H ) :   0.9590 B( 25-C , 28-C ) :   1.0753 B( 28-C , 29-H ) :   0.9736
B( 28-C , 30-H ) :   0.9750 B( 28-C , 31-H ) :   0.9718

Dispersion correction           -0.014527544
FINAL SINGLE POINT ENERGY     -1339.874800977248

DIPOLE MOMENT
-------------
                                X             Y             Z
Electronic contribution:      4.44762      17.65977      15.72760
Nuclear contribution   :     -4.37690     -18.01577     -16.06159
                        -----------------------------------------
Total Dipole Moment    :      0.07073      -0.35600      -0.33399
                        -----------------------------------------
Magnitude (a.u.)       :      0.49324
Magnitude (Debye)      :      1.25372

Rotational constants in cm-1:     0.018193     0.008259     0.006950
Rotational constants in MHz :   545.402968   247.609667   208.364163

                             ****ORCA TERMINATED NORMALLY****
TOTAL RUN TIME: 0 days 0 hours 0 minutes 22 seconds 316 msec
