                         Program Version 4.2.1 -  RELEASE  -
|  1> ! wB97X-D3 SP def2-SVP
|  2> %pal
|  3> nprocs 24
|  4> end
|  5>
|  6> * xyz 0 1
|  7> S 	 -125.708 	 67.1744 	 -51.2282
|  8> C 	 -125.962 	 66.6906 	 -52.9201
|  9> C 	 -126.177 	 67.7058 	 -53.788
| 10> C 	 -126.06 	 68.9768 	 -53.0957
| 11> C 	 -125.738 	 68.8835 	 -51.7391
| 12> H 	 -126.142 	 70.0514 	 -53.4175
| 13> C 	 -126.358 	 67.5371 	 -55.2727
| 14> H 	 -126.285 	 66.5377 	 -55.6116
| 15> H 	 -125.597 	 68.1646 	 -55.7385
| 16> C 	 -127.712 	 67.832 	 -55.8201
| 17> H 	 -127.853 	 68.9413 	 -55.7052
| 18> H 	 -127.695 	 67.592 	 -56.8691
| 19> C 	 -128.803 	 66.9903 	 -55.1955
| 20> H 	 -129.724 	 67.2045 	 -55.69
| 21> H 	 -128.595 	 65.9311 	 -55.2632
| 22> H 	 -129.046 	 67.2756 	 -54.1857
| 23> S 	 -126.973 	 70.8834 	 -50.2549
| 24> C 	 -126.055 	 71.898 	 -49.2111
| 25> C 	 -124.772 	 71.4478 	 -49.0647
| 26> C 	 -124.463 	 70.4441 	 -50.092
| 27> C 	 -125.558 	 69.9818 	 -50.7997
| 28> H 	 -124.067 	 71.9478 	 -48.4931
| 29> C 	 -123.021 	 70.0198 	 -50.3243
| 30> H 	 -122.963 	 69.0977 	 -50.8306
| 31> H 	 -122.559 	 69.8489 	 -49.3813
| 32> C 	 -122.09 	 70.9717 	 -51.1783
| 33> H 	 -121.867 	 71.8715 	 -50.6344
| 34> H 	 -122.63 	 71.1652 	 -52.1766
| 35> C 	 -120.743 	 70.3126 	 -51.451
| 36> H 	 -120.867 	 69.4163 	 -52.0485
| 37> H 	 -120.286 	 70.0803 	 -50.496
| 38> H 	 -120.056 	 70.8645 	 -52.0569
| 39> H 	 -125.721 	 65.6749 	 -53.2628
| 40> H 	 -126.459 	 72.8481 	 -48.8295
| 41> *
| 42>
| 43>                          ****END OF INPUT****

CARTESIAN COORDINATES (ANGSTROEM)
---------------------------------
  S    -125.708000   67.174400  -51.228200
  C    -125.962000   66.690600  -52.920100
  C    -126.177000   67.705800  -53.788000
  C    -126.060000   68.976800  -53.095700
  C    -125.738000   68.883500  -51.739100
  H    -126.142000   70.051400  -53.417500
  C    -126.358000   67.537100  -55.272700
  H    -126.285000   66.537700  -55.611600
  H    -125.597000   68.164600  -55.738500
  C    -127.712000   67.832000  -55.820100
  H    -127.853000   68.941300  -55.705200
  H    -127.695000   67.592000  -56.869100
  C    -128.803000   66.990300  -55.195500
  H    -129.724000   67.204500  -55.690000
  H    -128.595000   65.931100  -55.263200
  H    -129.046000   67.275600  -54.185700
  S    -126.973000   70.883400  -50.254900
  C    -126.055000   71.898000  -49.211100
  C    -124.772000   71.447800  -49.064700
  C    -124.463000   70.444100  -50.092000
  C    -125.558000   69.981800  -50.799700
  H    -124.067000   71.947800  -48.493100
  C    -123.021000   70.019800  -50.324300
  H    -122.963000   69.097700  -50.830600
  H    -122.559000   69.848900  -49.381300
  C    -122.090000   70.971700  -51.178300
  H    -121.867000   71.871500  -50.634400
  H    -122.630000   71.165200  -52.176600
  C    -120.743000   70.312600  -51.451000
  H    -120.867000   69.416300  -52.048500
  H    -120.286000   70.080300  -50.496000
  H    -120.056000   70.864500  -52.056900
  H    -125.721000   65.674900  -53.262800
  H    -126.459000   72.848100  -48.829500

 Total Charge           Charge          ....    0
 Multiplicity           Mult            ....    1
 Number of Electrons    NEL             ....  134
 Basis Dimension        Dim             ....  322

ORBITAL ENERGIES
----------------

  NO   OCC          E(Eh)            E(eV)
   0   2.0000     -88.964469     -2420.8463
   1   2.0000     -88.959685     -2420.7161
   2   2.0000     -10.332234      -281.1544
   3   2.0000     -10.324633      -280.9475
   4   2.0000     -10.319594      -280.8104
   5   2.0000     -10.314815      -280.6804
   6   2.0000     -10.307556      -280.4829
   7   2.0000     -10.304094      -280.3886
   8   2.0000     -10.303740      -280.3790
   9   2.0000     -10.291804      -280.0542
  10   2.0000     -10.290526      -280.0195
  11   2.0000     -10.285567      -279.8845
  12   2.0000     -10.283385      -279.8251
  13   2.0000     -10.283278      -279.8222
  14   2.0000     -10.272230      -279.5216
  15   2.0000     -10.269285      -279.4415
  16   2.0000      -8.078315      -219.8221
  17   2.0000      -8.075250      -219.7387
  18   2.0000      -6.036899      -164.2724
  19   2.0000      -6.033770      -164.1872
  20   2.0000      -6.033084      -164.1686
  21   2.0000      -6.029508      -164.0712
  22   2.0000      -6.028902      -164.0548
  23   2.0000      -6.026071      -163.9777
  24   2.0000      -1.002573       -27.2814
  25   2.0000      -0.981937       -26.7199
  26   2.0000      -0.922228       -25.0951
  27   2.0000      -0.903722       -24.5915
  28   2.0000      -0.871768       -23.7220
  29   2.0000      -0.848541       -23.0900
  30   2.0000      -0.843180       -22.9441
  31   2.0000      -0.814325       -22.1589
  32   2.0000      -0.788702       -21.4617
  33   2.0000      -0.772878       -21.0311
  34   2.0000      -0.704908       -19.1815
  35   2.0000      -0.694264       -18.8919
  36   2.0000      -0.687983       -18.7210
  37   2.0000      -0.663766       -18.0620
  38   2.0000      -0.639454       -17.4004
  39   2.0000      -0.616683       -16.7808
  40   2.0000      -0.598265       -16.2796
  41   2.0000      -0.574499       -15.6329
  42   2.0000      -0.566550       -15.4166
  43   2.0000      -0.562387       -15.3033
  44   2.0000      -0.545593       -14.8463
  45   2.0000      -0.523234       -14.2379
  46   2.0000      -0.517033       -14.0692
  47   2.0000      -0.509767       -13.8715
  48   2.0000      -0.504106       -13.7174
  49   2.0000      -0.495652       -13.4874
  50   2.0000      -0.484006       -13.1705
  51   2.0000      -0.481442       -13.1007
  52   2.0000      -0.473011       -12.8713
  53   2.0000      -0.463205       -12.6044
  54   2.0000      -0.460864       -12.5407
  55   2.0000      -0.446752       -12.1567
  56   2.0000      -0.439780       -11.9670
  57   2.0000      -0.437260       -11.8984
  58   2.0000      -0.427864       -11.6428
  59   2.0000      -0.421691       -11.4748
  60   2.0000      -0.420867       -11.4524
  61   2.0000      -0.416857       -11.3433
  62   2.0000      -0.414350       -11.2750
  63   2.0000      -0.332884        -9.0582
  64   2.0000      -0.328970        -8.9517
  65   2.0000      -0.323644        -8.8068
  66   2.0000      -0.310410        -8.4467
  67   0.0000       0.033864         0.9215
  68   0.0000       0.065395         1.7795
  69   0.0000       0.106252         2.8913
  70   0.0000       0.118861         3.2344
  71   0.0000       0.126621         3.4455

MULLIKEN ATOMIC CHARGES
-----------------------
   0 S :    0.107533
   1 C :   -0.133214
   2 C :   -0.061822
   3 C :    0.015108
   4 C :   -0.178839
   5 H :    0.033680
   6 C :    0.099726
   7 H :   -0.002927
   8 H :    0.035878
   9 C :   -0.089737
  10 H :    0.030901
  11 H :    0.028377
  12 C :   -0.024571
  13 H :    0.021214
  14 H :    0.026222
  15 H :    0.036308
  16 S :    0.102191
  17 C :   -0.103808
  18 C :    0.022790
  19 C :   -0.056360
  20 C :   -0.164571
  21 H :   -0.002305
  22 C :    0.083322
  23 H :    0.003465
  24 H :    0.010965
  25 C :   -0.080110
  26 H :    0.025284
  27 H :    0.043347
  28 C :   -0.037562
  29 H :    0.025392
  30 H :    0.026434
  31 H :    0.027901
  32 H :    0.055657
  33 H :    0.074132
Sum of atomic charges:   -0.0000000

LOEWDIN ATOMIC CHARGES
----------------------
   0 S :    0.373577
   1 C :   -0.181690
   2 C :   -0.063645
   3 C :   -0.060657
   4 C :   -0.188922
   5 H :    0.042243
   6 C :   -0.029955
   7 H :    0.023310
   8 H :    0.034686
   9 C :   -0.040326
  10 H :    0.024681
  11 H :    0.023649
  12 C :   -0.060806
  13 H :    0.025145
  14 H :    0.024170
  15 H :    0.027499
  16 S :    0.404400
  17 C :   -0.182302
  18 C :   -0.065108
  19 C :   -0.042907
  20 C :   -0.211380
  21 H :    0.019443
  22 C :   -0.029447
  23 H :    0.021178
  24 H :    0.024884
  25 C :   -0.034487
  26 H :    0.017029
  27 H :    0.032810
  28 C :   -0.065700
  29 H :    0.024257
  30 H :    0.023911
  31 H :    0.023249
  32 H :    0.030916
  33 H :    0.036293

  Mayer bond orders larger than 0.100000
B(  0-S ,  1-C ) :   1.1266 B(  0-S ,  4-C ) :   1.1191 B(  1-C ,  2-C ) :   1.6629
B(  1-C , 32-H ) :   0.9566 B(  2-C ,  3-C ) :   1.1720 B(  2-C ,  6-C ) :   1.0278
B(  3-C ,  4-C ) :   1.6306 B(  3-C ,  5-H ) :   0.9830 B(  4-C , 20-C ) :   1.0448
B(  6-C ,  7-H ) :   0.9379 B(  6-C ,  8-H ) :   0.9370 B(  6-C ,  9-C ) :   1.0777
B(  9-C , 10-H ) :   0.9534 B(  9-C , 11-H ) :   0.9566 B(  9-C , 12-C ) :   1.0827
B( 12-C , 13-H ) :   0.9698 B( 12-C , 14-H ) :   0.9729 B( 12-C , 15-H ) :   0.9698
B( 16-S , 17-C ) :   1.1729 B( 16-S , 20-C ) :   1.1182 B( 17-C , 18-C ) :   1.6006
B( 17-C , 33-H ) :   0.9631 B( 18-C , 19-C ) :   1.2271 B( 18-C , 21-H ) :   0.9987
B( 19-C , 20-C ) :   1.6137 B( 19-C , 22-C ) :   1.0601 B( 22-C , 23-H ) :   0.9326
B( 22-C , 24-H ) :   0.9297 B( 22-C , 25-C ) :   1.0593 B( 25-C , 26-H ) :   0.9567
B( 25-C , 27-H ) :   0.9558 B( 25-C , 28-C ) :   1.0850 B( 28-C , 29-H ) :   0.9737
B( 28-C , 30-H ) :   0.9732 B( 28-C , 31-H ) :   0.9730

Dispersion correction           -0.014093516
FINAL SINGLE POINT ENERGY     -1339.874646743410

DIPOLE MOMENT
-------------
                                X             Y             Z
Electronic contribution:     -9.71084       1.10943      16.28234
Nuclear contribution   :     10.07117      -0.91855     -16.70696
                        -----------------------------------------
Total Dipole Moment    :      0.36034       0.19089      -0.42462
                        -----------------------------------------
Magnitude (a.u.)       :      0.58871
Magnitude (Debye)      :      1.49639

Rotational constants in cm-1:     0.019424     0.007957     0.006698
Rotational constants in MHz :   582.305654   238.546206   200.793207

                             ****ORCA TERMINATED NORMALLY****
TOTAL RUN TIME: 0 days 0 hours 0 minutes 21 seconds 146 msec
