                         Program Version 4.2.1 -  RELEASE  -
|  1> ! wB97X-D3 SP def2-SVP
|  2> %pal
|  3> nprocs 24
|  4> end
|  5>
|  6> * xyz 0 1
|  7> S 	 -55.4942 	 1.54893 	 -30.9231
|  8> C 	 -56.8318 	 1.11989 	 -31.9856
|  9> C 	 -57.4914 	 2.22624 	 -32.555
| 10> C 	 -56.7799 	 3.46104 	 -32.2186
| 11> C 	 -55.8086 	 3.27524 	 -31.2298
| 12> H 	 -57.0458 	 4.46506 	 -32.6311
| 13> C 	 -58.718 	 2.09938 	 -33.4668
| 14> H 	 -59.3413 	 2.99662 	 -33.429
| 15> H 	 -59.3075 	 1.28893 	 -33.0006
| 16> C 	 -58.471 	 1.87405 	 -35.0121
| 17> H 	 -59.4647 	 2.04444 	 -35.5233
| 18> H 	 -57.8336 	 2.68299 	 -35.3134
| 19> C 	 -57.9054 	 0.533903 	 -35.2884
| 20> H 	 -56.9544 	 0.357776 	 -34.6906
| 21> H 	 -58.6052 	 -0.299358 	 -35.1131
| 22> H 	 -57.5759 	 0.627513 	 -36.3593
| 23> S 	 -53.2089 	 4.05276 	 -30.8589
| 24> C 	 -52.8581 	 5.56414 	 -29.9697
| 25> C 	 -54.022 	 6.21449 	 -29.5706
| 26> C 	 -55.2298 	 5.58215 	 -30.0221
| 27> C 	 -54.9654 	 4.29433 	 -30.6031
| 28> H 	 -53.8697 	 7.09019 	 -29.0905
| 29> C 	 -56.6425 	 6.10048 	 -29.7451
| 30> H 	 -56.7483 	 6.55626 	 -28.795
| 31> H 	 -57.3817 	 5.25011 	 -29.7241
| 32> C 	 -57.1412 	 7.13162 	 -30.8005
| 33> H 	 -57.0384 	 6.81778 	 -31.8388
| 34> H 	 -56.5113 	 7.93653 	 -30.6833
| 35> C 	 -58.5693 	 7.6252 	 -30.4979
| 36> H 	 -59.4173 	 6.94564 	 -30.6199
| 37> H 	 -58.8268 	 8.56822 	 -31.0006
| 38> H 	 -58.5477 	 7.81081 	 -29.5085
| 39> H 	 -57.2003 	 0.16567 	 -32.1935
| 40> H 	 -51.8951 	 6.06678 	 -29.8203
| 41> *
| 42>
| 43>                          ****END OF INPUT****

CARTESIAN COORDINATES (ANGSTROEM)
---------------------------------
  S    -55.494200    1.548930  -30.923100
  C    -56.831800    1.119890  -31.985600
  C    -57.491400    2.226240  -32.555000
  C    -56.779900    3.461040  -32.218600
  C    -55.808600    3.275240  -31.229800
  H    -57.045800    4.465060  -32.631100
  C    -58.718000    2.099380  -33.466800
  H    -59.341300    2.996620  -33.429000
  H    -59.307500    1.288930  -33.000600
  C    -58.471000    1.874050  -35.012100
  H    -59.464700    2.044440  -35.523300
  H    -57.833600    2.682990  -35.313400
  C    -57.905400    0.533903  -35.288400
  H    -56.954400    0.357776  -34.690600
  H    -58.605200   -0.299358  -35.113100
  H    -57.575900    0.627513  -36.359300
  S    -53.208900    4.052760  -30.858900
  C    -52.858100    5.564140  -29.969700
  C    -54.022000    6.214490  -29.570600
  C    -55.229800    5.582150  -30.022100
  C    -54.965400    4.294330  -30.603100
  H    -53.869700    7.090190  -29.090500
  C    -56.642500    6.100480  -29.745100
  H    -56.748300    6.556260  -28.795000
  H    -57.381700    5.250110  -29.724100
  C    -57.141200    7.131620  -30.800500
  H    -57.038400    6.817780  -31.838800
  H    -56.511300    7.936530  -30.683300
  C    -58.569300    7.625200  -30.497900
  H    -59.417300    6.945640  -30.619900
  H    -58.826800    8.568220  -31.000600
  H    -58.547700    7.810810  -29.508500
  H    -57.200300    0.165670  -32.193500
  H    -51.895100    6.066780  -29.820300

 Total Charge           Charge          ....    0
 Multiplicity           Mult            ....    1
 Number of Electrons    NEL             ....  134
 Basis Dimension        Dim             ....  322

ORBITAL ENERGIES
----------------

  NO   OCC          E(Eh)            E(eV)
   0   2.0000     -88.970953     -2421.0227
   1   2.0000     -88.967837     -2420.9379
   2   2.0000     -10.335325      -281.2385
   3   2.0000     -10.335156      -281.2339
   4   2.0000     -10.321906      -280.8733
   5   2.0000     -10.315164      -280.6899
   6   2.0000     -10.313836      -280.6537
   7   2.0000     -10.308060      -280.4966
   8   2.0000     -10.304756      -280.4067
   9   2.0000     -10.296257      -280.1754
  10   2.0000     -10.294589      -280.1300
  11   2.0000     -10.291348      -280.0418
  12   2.0000     -10.290242      -280.0117
  13   2.0000     -10.282686      -279.8061
  14   2.0000     -10.281927      -279.7854
  15   2.0000     -10.270796      -279.4826
  16   2.0000      -8.084663      -219.9949
  17   2.0000      -8.081117      -219.8984
  18   2.0000      -6.043301      -164.4466
  19   2.0000      -6.039718      -164.3491
  20   2.0000      -6.039389      -164.3401
  21   2.0000      -6.035821      -164.2430
  22   2.0000      -6.035272      -164.2281
  23   2.0000      -6.031857      -164.1352
  24   2.0000      -0.995202       -27.0808
  25   2.0000      -0.971796       -26.4439
  26   2.0000      -0.909484       -24.7483
  27   2.0000      -0.907279       -24.6883
  28   2.0000      -0.866977       -23.5916
  29   2.0000      -0.849234       -23.1088
  30   2.0000      -0.844287       -22.9742
  31   2.0000      -0.813455       -22.1352
  32   2.0000      -0.781140       -21.2559
  33   2.0000      -0.769513       -20.9395
  34   2.0000      -0.711406       -19.3583
  35   2.0000      -0.700144       -19.0519
  36   2.0000      -0.690086       -18.7782
  37   2.0000      -0.660543       -17.9743
  38   2.0000      -0.636406       -17.3175
  39   2.0000      -0.615826       -16.7575
  40   2.0000      -0.592710       -16.1285
  41   2.0000      -0.572933       -15.5903
  42   2.0000      -0.563317       -15.3286
  43   2.0000      -0.544639       -14.8204
  44   2.0000      -0.540361       -14.7040
  45   2.0000      -0.524786       -14.2802
  46   2.0000      -0.520042       -14.1511
  47   2.0000      -0.511648       -13.9226
  48   2.0000      -0.503660       -13.7053
  49   2.0000      -0.495293       -13.4776
  50   2.0000      -0.483786       -13.1645
  51   2.0000      -0.482021       -13.1165
  52   2.0000      -0.472022       -12.8444
  53   2.0000      -0.462487       -12.5849
  54   2.0000      -0.455619       -12.3980
  55   2.0000      -0.448988       -12.2176
  56   2.0000      -0.440161       -11.9774
  57   2.0000      -0.438404       -11.9296
  58   2.0000      -0.435859       -11.8603
  59   2.0000      -0.429005       -11.6738
  60   2.0000      -0.418892       -11.3986
  61   2.0000      -0.417446       -11.3593
  62   2.0000      -0.415009       -11.2930
  63   2.0000      -0.345778        -9.4091
  64   2.0000      -0.330004        -8.9799
  65   2.0000      -0.328188        -8.9304
  66   2.0000      -0.288181        -7.8418
  67   0.0000       0.023641         0.6433
  68   0.0000       0.062082         1.6893
  69   0.0000       0.104395         2.8407
  70   0.0000       0.114829         3.1246
  71   0.0000       0.126987         3.4555

MULLIKEN ATOMIC CHARGES
-----------------------
   0 S :    0.117293
   1 C :   -0.081392
   2 C :   -0.121982
   3 C :    0.033558
   4 C :   -0.157056
   5 H :    0.028773
   6 C :    0.030304
   7 H :    0.023780
   8 H :    0.031481
   9 C :   -0.058166
  10 H :    0.039879
  11 H :    0.026408
  12 C :   -0.077335
  13 H :    0.047801
  14 H :    0.041628
  15 H :    0.042064
  16 S :    0.097059
  17 C :   -0.097782
  18 C :    0.001210
  19 C :    0.002103
  20 C :   -0.152589
  21 H :   -0.023000
  22 C :    0.034679
  23 H :    0.014608
  24 H :    0.040803
  25 C :   -0.051574
  26 H :    0.029108
  27 H :    0.004771
  28 C :   -0.008888
  29 H :    0.031786
  30 H :    0.033807
  31 H :   -0.008771
  32 H :    0.022985
  33 H :    0.062647
Sum of atomic charges:   -0.0000000

LOEWDIN ATOMIC CHARGES
----------------------
   0 S :    0.393750
   1 C :   -0.188743
   2 C :   -0.059128
   3 C :   -0.059521
   4 C :   -0.192175
   5 H :    0.037825
   6 C :   -0.038541
   7 H :    0.029224
   8 H :    0.032105
   9 C :   -0.041228
  10 H :    0.031005
  11 H :    0.022511
  12 C :   -0.078490
  13 H :    0.033870
  14 H :    0.026757
  15 H :    0.034916
  16 S :    0.379275
  17 C :   -0.176728
  18 C :   -0.059762
  19 C :   -0.044763
  20 C :   -0.185722
  21 H :    0.014068
  22 C :   -0.029214
  23 H :    0.023312
  24 H :    0.036410
  25 C :   -0.028837
  26 H :    0.019369
  27 H :    0.013590
  28 C :   -0.059707
  29 H :    0.026746
  30 H :    0.030317
  31 H :    0.008443
  32 H :    0.013525
  33 H :    0.035541

  Mayer bond orders larger than 0.100000
B(  0-S ,  1-C ) :   1.1309 B(  0-S ,  4-C ) :   1.1343 B(  1-C ,  2-C ) :   1.6204
B(  1-C , 32-H ) :   0.9663 B(  2-C ,  3-C ) :   1.2256 B(  2-C ,  6-C ) :   1.0254
B(  3-C ,  4-C ) :   1.5810 B(  3-C ,  5-H ) :   0.9811 B(  4-C , 20-C ) :   1.0444
B(  6-C ,  7-H ) :   0.9422 B(  6-C ,  8-H ) :   0.9447 B(  6-C ,  9-C ) :   1.0581
B(  9-C , 10-H ) :   0.9524 B(  9-C , 11-H ) :   0.9543 B(  9-C , 12-C ) :   1.0870
B( 12-C , 13-H ) :   0.9675 B( 12-C , 14-H ) :   0.9739 B( 12-C , 15-H ) :   0.9699
B( 16-S , 17-C ) :   1.1379 B( 16-S , 20-C ) :   1.1406 B( 17-C , 18-C ) :   1.6308
B( 17-C , 20-C ) :   0.1054 B( 17-C , 33-H ) :   0.9624 B( 18-C , 19-C ) :   1.2202
B( 18-C , 21-H ) :   1.0047 B( 19-C , 20-C ) :   1.5738 B( 19-C , 22-C ) :   1.0461
B( 22-C , 23-H ) :   0.9387 B( 22-C , 24-H ) :   0.9436 B( 22-C , 25-C ) :   1.0515
B( 25-C , 26-H ) :   0.9579 B( 25-C , 27-H ) :   0.9511 B( 25-C , 28-C ) :   1.0792
B( 28-C , 29-H ) :   0.9762 B( 28-C , 30-H ) :   0.9736 B( 28-C , 31-H ) :   0.9672

Dispersion correction           -0.014126908
FINAL SINGLE POINT ENERGY     -1339.860450505960

DIPOLE MOMENT
-------------
                                X             Y             Z
Electronic contribution:     22.95941      -8.51273      11.60096
Nuclear contribution   :    -23.45052       9.02307     -11.80988
                        -----------------------------------------
Total Dipole Moment    :     -0.49110       0.51034      -0.20892
                        -----------------------------------------
Magnitude (a.u.)       :      0.73843
Magnitude (Debye)      :      1.87694

Rotational constants in cm-1:     0.017919     0.008581     0.006439
Rotational constants in MHz :   537.211870   257.239221   193.038996

                             ****ORCA TERMINATED NORMALLY****
TOTAL RUN TIME: 0 days 0 hours 0 minutes 21 seconds 181 msec
