                         Program Version 4.2.1 -  RELEASE  -
|  1> ! wB97X-D3 SP def2-SVP
|  2> %pal
|  3> nprocs 24
|  4> end
|  5>
|  6> * xyz 0 1
|  7> S 	 -46.1623 	 13.657 	 -99.1028
|  8> C 	 -46.6374 	 12.1634 	 -98.343
|  9> C 	 -47.8411 	 11.6692 	 -98.8799
| 10> C 	 -48.478 	 12.5795 	 -99.7693
| 11> C 	 -47.7852 	 13.7848 	 -99.8603
| 12> H 	 -49.3738 	 12.5334 	 -100.341
| 13> C 	 -48.3141 	 10.2724 	 -98.6507
| 14> H 	 -47.5834 	 9.59231 	 -98.306
| 15> H 	 -48.616 	 9.83442 	 -99.6318
| 16> C 	 -49.6343 	 10.0367 	 -97.7661
| 17> H 	 -50.3577 	 10.5471 	 -98.3926
| 18> H 	 -50.0663 	 9.02356 	 -97.6586
| 19> C 	 -49.4308 	 10.7351 	 -96.3867
| 20> H 	 -48.8418 	 10.1701 	 -95.7512
| 21> H 	 -48.9181 	 11.7039 	 -96.3877
| 22> H 	 -50.4039 	 10.7597 	 -95.8494
| 23> S 	 -48.5846 	 16.2976 	 -99.2108
| 24> C 	 -49.3942 	 17.2838 	 -100.36
| 25> C 	 -49.4465 	 16.6947 	 -101.617
| 26> C 	 -49.0129 	 15.3437 	 -101.563
| 27> C 	 -48.4493 	 14.9999 	 -100.321
| 28> H 	 -49.7936 	 17.3309 	 -102.361
| 29> C 	 -48.9941 	 14.5551 	 -102.845
| 30> H 	 -48.4762 	 13.6482 	 -102.608
| 31> H 	 -48.6287 	 15.0747 	 -103.698
| 32> C 	 -50.3403 	 14.0227 	 -103.237
| 33> H 	 -50.929 	 14.9099 	 -103.417
| 34> H 	 -50.7521 	 13.5122 	 -102.414
| 35> C 	 -50.395 	 13.2197 	 -104.551
| 36> H 	 -51.452 	 13.2227 	 -104.866
| 37> H 	 -50.0705 	 12.1568 	 -104.449
| 38> H 	 -49.737 	 13.6378 	 -105.276
| 39> H 	 -46.014 	 11.5537 	 -97.675
| 40> H 	 -49.7101 	 18.2674 	 -100.148
| 41> *
| 42>
| 43>                          ****END OF INPUT****

CARTESIAN COORDINATES (ANGSTROEM)
---------------------------------
  S    -46.162300   13.657000  -99.102800
  C    -46.637400   12.163400  -98.343000
  C    -47.841100   11.669200  -98.879900
  C    -48.478000   12.579500  -99.769300
  C    -47.785200   13.784800  -99.860300
  H    -49.373800   12.533400  -100.341000
  C    -48.314100   10.272400  -98.650700
  H    -47.583400    9.592310  -98.306000
  H    -48.616000    9.834420  -99.631800
  C    -49.634300   10.036700  -97.766100
  H    -50.357700   10.547100  -98.392600
  H    -50.066300    9.023560  -97.658600
  C    -49.430800   10.735100  -96.386700
  H    -48.841800   10.170100  -95.751200
  H    -48.918100   11.703900  -96.387700
  H    -50.403900   10.759700  -95.849400
  S    -48.584600   16.297600  -99.210800
  C    -49.394200   17.283800  -100.360000
  C    -49.446500   16.694700  -101.617000
  C    -49.012900   15.343700  -101.563000
  C    -48.449300   14.999900  -100.321000
  H    -49.793600   17.330900  -102.361000
  C    -48.994100   14.555100  -102.845000
  H    -48.476200   13.648200  -102.608000
  H    -48.628700   15.074700  -103.698000
  C    -50.340300   14.022700  -103.237000
  H    -50.929000   14.909900  -103.417000
  H    -50.752100   13.512200  -102.414000
  C    -50.395000   13.219700  -104.551000
  H    -51.452000   13.222700  -104.866000
  H    -50.070500   12.156800  -104.449000
  H    -49.737000   13.637800  -105.276000
  H    -46.014000   11.553700  -97.675000
  H    -49.710100   18.267400  -100.148000

 Total Charge           Charge          ....    0
 Multiplicity           Mult            ....    1
 Number of Electrons    NEL             ....  134
 Basis Dimension        Dim             ....  322

ORBITAL ENERGIES
----------------

  NO   OCC          E(Eh)            E(eV)
   0   2.0000     -88.972731     -2421.0711
   1   2.0000     -88.965544     -2420.8755
   2   2.0000     -10.333317      -281.1838
   3   2.0000     -10.326430      -280.9965
   4   2.0000     -10.320528      -280.8359
   5   2.0000     -10.310130      -280.5529
   6   2.0000     -10.307339      -280.4770
   7   2.0000     -10.303862      -280.3823
   8   2.0000     -10.296395      -280.1792
   9   2.0000     -10.291684      -280.0510
  10   2.0000     -10.291602      -280.0487
  11   2.0000     -10.288438      -279.9626
  12   2.0000     -10.279792      -279.7274
  13   2.0000     -10.278989      -279.7055
  14   2.0000     -10.275454      -279.6093
  15   2.0000     -10.269342      -279.4430
  16   2.0000      -8.086546      -220.0461
  17   2.0000      -8.081498      -219.9087
  18   2.0000      -6.045089      -164.4952
  19   2.0000      -6.041291      -164.3919
  20   2.0000      -6.039777      -164.3507
  21   2.0000      -6.037208      -164.2808
  22   2.0000      -6.035682      -164.2393
  23   2.0000      -6.032585      -164.1550
  24   2.0000      -1.009873       -27.4800
  25   2.0000      -0.985737       -26.8233
  26   2.0000      -0.918786       -25.0015
  27   2.0000      -0.902813       -24.5668
  28   2.0000      -0.870706       -23.6931
  29   2.0000      -0.853111       -23.2143
  30   2.0000      -0.845508       -23.0074
  31   2.0000      -0.815580       -22.1931
  32   2.0000      -0.782912       -21.3041
  33   2.0000      -0.771333       -20.9890
  34   2.0000      -0.709168       -19.2974
  35   2.0000      -0.697697       -18.9853
  36   2.0000      -0.693806       -18.8794
  37   2.0000      -0.666857       -18.1461
  38   2.0000      -0.644161       -17.5285
  39   2.0000      -0.621785       -16.9196
  40   2.0000      -0.599316       -16.3082
  41   2.0000      -0.582175       -15.8418
  42   2.0000      -0.566670       -15.4199
  43   2.0000      -0.544592       -14.8191
  44   2.0000      -0.536615       -14.6020
  45   2.0000      -0.526193       -14.3184
  46   2.0000      -0.521176       -14.1819
  47   2.0000      -0.509983       -13.8773
  48   2.0000      -0.503277       -13.6949
  49   2.0000      -0.496323       -13.5056
  50   2.0000      -0.492140       -13.3918
  51   2.0000      -0.480457       -13.0739
  52   2.0000      -0.476834       -12.9753
  53   2.0000      -0.466185       -12.6855
  54   2.0000      -0.461214       -12.5503
  55   2.0000      -0.453534       -12.3413
  56   2.0000      -0.443396       -12.0654
  57   2.0000      -0.439185       -11.9508
  58   2.0000      -0.434544       -11.8245
  59   2.0000      -0.426930       -11.6174
  60   2.0000      -0.419904       -11.4262
  61   2.0000      -0.409494       -11.1429
  62   2.0000      -0.405802       -11.0424
  63   2.0000      -0.348075        -9.4716
  64   2.0000      -0.330901        -9.0043
  65   2.0000      -0.325102        -8.8465
  66   2.0000      -0.290764        -7.9121
  67   0.0000       0.027461         0.7472
  68   0.0000       0.063133         1.7179
  69   0.0000       0.099659         2.7118
  70   0.0000       0.118685         3.2296
  71   0.0000       0.132494         3.6053

MULLIKEN ATOMIC CHARGES
-----------------------
   0 S :    0.126493
   1 C :   -0.120483
   2 C :   -0.063638
   3 C :    0.062550
   4 C :   -0.178848
   5 H :    0.004114
   6 C :    0.034295
   7 H :    0.014940
   8 H :    0.032860
   9 C :   -0.077473
  10 H :    0.020642
  11 H :    0.040767
  12 C :   -0.045695
  13 H :    0.003665
  14 H :    0.048225
  15 H :    0.033223
  16 S :    0.129259
  17 C :   -0.096690
  18 C :   -0.013968
  19 C :   -0.032882
  20 C :   -0.160228
  21 H :   -0.001815
  22 C :    0.120050
  23 H :    0.002696
  24 H :    0.018867
  25 C :   -0.097119
  26 H :    0.011538
  27 H :    0.015640
  28 C :   -0.028070
  29 H :    0.043213
  30 H :    0.035073
  31 H :    0.021353
  32 H :    0.058029
  33 H :    0.039419
Sum of atomic charges:   -0.0000000

LOEWDIN ATOMIC CHARGES
----------------------
   0 S :    0.395458
   1 C :   -0.199481
   2 C :   -0.062404
   3 C :   -0.046318
   4 C :   -0.183051
   5 H :    0.029156
   6 C :   -0.034142
   7 H :    0.018760
   8 H :    0.036621
   9 C :   -0.039293
  10 H :    0.017088
  11 H :    0.029536
  12 C :   -0.071180
  13 H :    0.011856
  14 H :    0.030633
  15 H :    0.029817
  16 S :    0.445301
  17 C :   -0.188092
  18 C :   -0.062116
  19 C :   -0.052480
  20 C :   -0.214517
  21 H :    0.024054
  22 C :   -0.028157
  23 H :    0.023952
  24 H :    0.026807
  25 C :   -0.037420
  26 H :    0.017661
  27 H :    0.013852
  28 C :   -0.063021
  29 H :    0.032648
  30 H :    0.027748
  31 H :    0.019639
  32 H :    0.033198
  33 H :    0.017888

  Mayer bond orders larger than 0.100000
B(  0-S ,  1-C ) :   1.1370 B(  0-S ,  4-C ) :   1.1451 B(  1-C ,  2-C ) :   1.5838
B(  1-C , 32-H ) :   0.9656 B(  2-C ,  3-C ) :   1.2296 B(  2-C ,  6-C ) :   1.0368
B(  3-C ,  4-C ) :   1.5617 B(  3-C ,  5-H ) :   0.9977 B(  4-C , 20-C ) :   1.0442
B(  6-C ,  7-H ) :   0.9514 B(  6-C ,  8-H ) :   0.9461 B(  6-C ,  9-C ) :   1.0444
B(  9-C , 10-H ) :   0.9631 B(  9-C , 11-H ) :   0.9607 B(  9-C , 12-C ) :   1.0670
B( 12-C , 13-H ) :   0.9745 B( 12-C , 14-H ) :   0.9747 B( 12-C , 15-H ) :   0.9746
B( 16-S , 17-C ) :   1.1819 B( 16-S , 20-C ) :   1.1649 B( 17-C , 18-C ) :   1.5846
B( 17-C , 33-H ) :   0.9717 B( 18-C , 19-C ) :   1.2376 B( 18-C , 21-H ) :   1.0081
B( 19-C , 20-C ) :   1.5564 B( 19-C , 22-C ) :   1.0630 B( 22-C , 23-H ) :   0.9190
B( 22-C , 24-H ) :   0.9364 B( 22-C , 25-C ) :   1.0697 B( 25-C , 26-H ) :   0.9565
B( 25-C , 27-H ) :   0.9517 B( 25-C , 28-C ) :   1.0820 B( 28-C , 29-H ) :   0.9755
B( 28-C , 30-H ) :   0.9747 B( 28-C , 31-H ) :   0.9709

Dispersion correction           -0.014276069
FINAL SINGLE POINT ENERGY     -1339.853088611617

DIPOLE MOMENT
-------------
                                X             Y             Z
Electronic contribution:     15.01783      18.39435       8.08475
Nuclear contribution   :    -15.31739     -18.63842      -8.36681
                        -----------------------------------------
Total Dipole Moment    :     -0.29956      -0.24407      -0.28207
                        -----------------------------------------
Magnitude (a.u.)       :      0.47840
Magnitude (Debye)      :      1.21600

Rotational constants in cm-1:     0.016972     0.008805     0.007108
Rotational constants in MHz :   508.807731   263.956564   213.080975

                             ****ORCA TERMINATED NORMALLY****
TOTAL RUN TIME: 0 days 0 hours 0 minutes 21 seconds 520 msec
