                         Program Version 4.2.1 -  RELEASE  -
|  1> ! wB97X-D3 SP def2-SVP
|  2> %pal
|  3> nprocs 24
|  4> end
|  5>
|  6> * xyz 0 1
|  7> S 	 -96.7271 	 39.3772 	 -81.9798
|  8> C 	 -96.6522 	 37.7501 	 -81.332
|  9> C 	 -96.9693 	 36.8304 	 -82.3146
| 10> C 	 -97.5874 	 37.4426 	 -83.4618
| 11> C 	 -97.6218 	 38.8415 	 -83.4477
| 12> H 	 -97.8985 	 36.9019 	 -84.3234
| 13> C 	 -96.7604 	 35.3196 	 -82.2184
| 14> H 	 -97.3582 	 34.972 	 -81.4286
| 15> H 	 -95.6745 	 35.1251 	 -81.9118
| 16> C 	 -96.9501 	 34.3621 	 -83.4456
| 17> H 	 -98.0246 	 34.1967 	 -83.5689
| 18> H 	 -96.488 	 34.7428 	 -84.3826
| 19> C 	 -96.3672 	 32.961 	 -83.1826
| 20> H 	 -95.285 	 32.86 	 -83.1732
| 21> H 	 -96.8052 	 32.5016 	 -82.2856
| 22> H 	 -96.7157 	 32.2478 	 -83.9099
| 23> S 	 -99.4799 	 40.943 	 -83.9758
| 24> C 	 -99.473 	 41.577 	 -85.6642
| 25> C 	 -98.6582 	 40.8775 	 -86.5057
| 26> C 	 -97.9086 	 39.8727 	 -85.783
| 27> C 	 -98.2596 	 39.7407 	 -84.4407
| 28> H 	 -98.5447 	 41.2676 	 -87.5029
| 29> C 	 -96.8454 	 38.9629 	 -86.463
| 30> H 	 -96.2214 	 38.4674 	 -85.7602
| 31> H 	 -96.2156 	 39.6578 	 -87.0697
| 32> C 	 -97.3553 	 37.9495 	 -87.4926
| 33> H 	 -98.0412 	 38.4718 	 -88.2057
| 34> H 	 -98.084 	 37.2626 	 -87.0349
| 35> C 	 -96.169 	 37.2472 	 -88.2004
| 36> H 	 -95.4485 	 36.7028 	 -87.5987
| 37> H 	 -95.6732 	 37.9698 	 -88.8198
| 38> H 	 -96.5694 	 36.5888 	 -88.9084
| 39> H 	 -96.2763 	 37.6099 	 -80.324
| 40> H 	 -100.195 	 42.3264 	 -85.9656
| 41> *
| 42>
| 43>                          ****END OF INPUT****

CARTESIAN COORDINATES (ANGSTROEM)
---------------------------------
  S    -96.727100   39.377200  -81.979800
  C    -96.652200   37.750100  -81.332000
  C    -96.969300   36.830400  -82.314600
  C    -97.587400   37.442600  -83.461800
  C    -97.621800   38.841500  -83.447700
  H    -97.898500   36.901900  -84.323400
  C    -96.760400   35.319600  -82.218400
  H    -97.358200   34.972000  -81.428600
  H    -95.674500   35.125100  -81.911800
  C    -96.950100   34.362100  -83.445600
  H    -98.024600   34.196700  -83.568900
  H    -96.488000   34.742800  -84.382600
  C    -96.367200   32.961000  -83.182600
  H    -95.285000   32.860000  -83.173200
  H    -96.805200   32.501600  -82.285600
  H    -96.715700   32.247800  -83.909900
  S    -99.479900   40.943000  -83.975800
  C    -99.473000   41.577000  -85.664200
  C    -98.658200   40.877500  -86.505700
  C    -97.908600   39.872700  -85.783000
  C    -98.259600   39.740700  -84.440700
  H    -98.544700   41.267600  -87.502900
  C    -96.845400   38.962900  -86.463000
  H    -96.221400   38.467400  -85.760200
  H    -96.215600   39.657800  -87.069700
  C    -97.355300   37.949500  -87.492600
  H    -98.041200   38.471800  -88.205700
  H    -98.084000   37.262600  -87.034900
  C    -96.169000   37.247200  -88.200400
  H    -95.448500   36.702800  -87.598700
  H    -95.673200   37.969800  -88.819800
  H    -96.569400   36.588800  -88.908400
  H    -96.276300   37.609900  -80.324000
  H    -100.195000   42.326400  -85.965600

 Total Charge           Charge          ....    0
 Multiplicity           Mult            ....    1
 Number of Electrons    NEL             ....  134
 Basis Dimension        Dim             ....  322

ORBITAL ENERGIES
----------------

  NO   OCC          E(Eh)            E(eV)
   0   2.0000     -88.965265     -2420.8679
   1   2.0000     -88.962233     -2420.7854
   2   2.0000     -10.334343      -281.2118
   3   2.0000     -10.330778      -281.1147
   4   2.0000     -10.322810      -280.8979
   5   2.0000     -10.315225      -280.6916
   6   2.0000     -10.310037      -280.5504
   7   2.0000     -10.304741      -280.4062
   8   2.0000     -10.298388      -280.2334
   9   2.0000     -10.296959      -280.1945
  10   2.0000     -10.295772      -280.1622
  11   2.0000     -10.293975      -280.1133
  12   2.0000     -10.291446      -280.0445
  13   2.0000     -10.290158      -280.0094
  14   2.0000     -10.280308      -279.7414
  15   2.0000     -10.275345      -279.6063
  16   2.0000      -8.078963      -219.8398
  17   2.0000      -8.076232      -219.7655
  18   2.0000      -6.037509      -164.2890
  19   2.0000      -6.034820      -164.2158
  20   2.0000      -6.033785      -164.1876
  21   2.0000      -6.030879      -164.1086
  22   2.0000      -6.029560      -164.0727
  23   2.0000      -6.026915      -164.0007
  24   2.0000      -0.995274       -27.0828
  25   2.0000      -0.976434       -26.5701
  26   2.0000      -0.904374       -24.6093
  27   2.0000      -0.904120       -24.6023
  28   2.0000      -0.868160       -23.6238
  29   2.0000      -0.846407       -23.0319
  30   2.0000      -0.843119       -22.9424
  31   2.0000      -0.816310       -22.2129
  32   2.0000      -0.781276       -21.2596
  33   2.0000      -0.769779       -20.9467
  34   2.0000      -0.709015       -19.2933
  35   2.0000      -0.698513       -19.0075
  36   2.0000      -0.690169       -18.7805
  37   2.0000      -0.656801       -17.8725
  38   2.0000      -0.641355       -17.4522
  39   2.0000      -0.619273       -16.8513
  40   2.0000      -0.595577       -16.2065
  41   2.0000      -0.573990       -15.6191
  42   2.0000      -0.566456       -15.4140
  43   2.0000      -0.558439       -15.1959
  44   2.0000      -0.523976       -14.2581
  45   2.0000      -0.520310       -14.1584
  46   2.0000      -0.512228       -13.9384
  47   2.0000      -0.510818       -13.9001
  48   2.0000      -0.501944       -13.6586
  49   2.0000      -0.495548       -13.4845
  50   2.0000      -0.488646       -13.2967
  51   2.0000      -0.482377       -13.1261
  52   2.0000      -0.471345       -12.8259
  53   2.0000      -0.466374       -12.6907
  54   2.0000      -0.457183       -12.4406
  55   2.0000      -0.449915       -12.2428
  56   2.0000      -0.446695       -12.1552
  57   2.0000      -0.438622       -11.9355
  58   2.0000      -0.434612       -11.8264
  59   2.0000      -0.421870       -11.4797
  60   2.0000      -0.418807       -11.3963
  61   2.0000      -0.416282       -11.3276
  62   2.0000      -0.412424       -11.2226
  63   2.0000      -0.341942        -9.3047
  64   2.0000      -0.329074        -8.9546
  65   2.0000      -0.324251        -8.8233
  66   2.0000      -0.296690        -8.0733
  67   0.0000       0.028170         0.7665
  68   0.0000       0.064614         1.7582
  69   0.0000       0.109448         2.9782
  70   0.0000       0.115640         3.1467
  71   0.0000       0.124947         3.4000

MULLIKEN ATOMIC CHARGES
-----------------------
   0 S :    0.100395
   1 C :   -0.150788
   2 C :   -0.045176
   3 C :    0.032120
   4 C :   -0.153571
   5 H :    0.004564
   6 C :    0.032292
   7 H :    0.029604
   8 H :    0.041819
   9 C :   -0.084425
  10 H :    0.037634
  11 H :    0.043258
  12 C :   -0.055943
  13 H :    0.040318
  14 H :    0.024307
  15 H :    0.023282
  16 S :    0.097350
  17 C :   -0.104302
  18 C :   -0.011514
  19 C :   -0.031865
  20 C :   -0.155857
  21 H :    0.027770
  22 C :    0.068266
  23 H :    0.026076
  24 H :    0.021496
  25 C :   -0.101652
  26 H :    0.024443
  27 H :    0.026202
  28 C :   -0.003710
  29 H :    0.039502
  30 H :    0.021530
  31 H :    0.017040
  32 H :    0.056878
  33 H :    0.062655
Sum of atomic charges:    0.0000000

LOEWDIN ATOMIC CHARGES
----------------------
   0 S :    0.382444
   1 C :   -0.191414
   2 C :   -0.064775
   3 C :   -0.058106
   4 C :   -0.179237
   5 H :    0.025226
   6 C :   -0.037218
   7 H :    0.026365
   8 H :    0.039983
   9 C :   -0.042011
  10 H :    0.026729
  11 H :    0.027500
  12 C :   -0.069538
  13 H :    0.024180
  14 H :    0.026747
  15 H :    0.026479
  16 S :    0.370691
  17 C :   -0.155352
  18 C :   -0.072640
  19 C :   -0.043716
  20 C :   -0.199223
  21 H :    0.036409
  22 C :   -0.029822
  23 H :    0.022614
  24 H :    0.032440
  25 C :   -0.043424
  26 H :    0.026177
  27 H :    0.019036
  28 C :   -0.058458
  29 H :    0.027485
  30 H :    0.025524
  31 H :    0.021579
  32 H :    0.028940
  33 H :    0.028386

  Mayer bond orders larger than 0.100000
B(  0-S ,  1-C ) :   1.1466 B(  0-S ,  4-C ) :   1.1430 B(  1-C ,  2-C ) :   1.5855
B(  1-C , 32-H ) :   0.9782 B(  2-C ,  3-C ) :   1.2586 B(  2-C ,  6-C ) :   0.9981
B(  3-C ,  4-C ) :   1.5556 B(  3-C ,  5-H ) :   0.9946 B(  4-C , 20-C ) :   1.0488
B(  6-C ,  7-H ) :   0.9380 B(  6-C ,  8-H ) :   0.9510 B(  6-C ,  9-C ) :   1.0721
B(  9-C , 10-H ) :   0.9492 B(  9-C , 11-H ) :   0.9556 B(  9-C , 12-C ) :   1.0900
B( 12-C , 13-H ) :   0.9757 B( 12-C , 14-H ) :   0.9723 B( 12-C , 15-H ) :   0.9705
B( 16-S , 17-C ) :   1.1433 B( 16-S , 20-C ) :   1.1159 B( 17-C , 18-C ) :   1.6491
B( 17-C , 33-H ) :   0.9630 B( 18-C , 19-C ) :   1.2009 B( 18-C , 21-H ) :   0.9891
B( 19-C , 20-C ) :   1.6253 B( 19-C , 22-C ) :   1.0420 B( 22-C , 23-H ) :   0.9359
B( 22-C , 24-H ) :   0.9350 B( 22-C , 25-C ) :   1.0580 B( 25-C , 26-H ) :   0.9526
B( 25-C , 27-H ) :   0.9547 B( 25-C , 28-C ) :   1.0745 B( 28-C , 29-H ) :   0.9773
B( 28-C , 30-H ) :   0.9720 B( 28-C , 31-H ) :   0.9705

Dispersion correction           -0.014010026
FINAL SINGLE POINT ENERGY     -1339.876232891140

DIPOLE MOMENT
-------------
                                X             Y             Z
Electronic contribution:     -9.58733      28.01748      15.05981
Nuclear contribution   :      9.73987     -28.60598     -15.60500
                        -----------------------------------------
Total Dipole Moment    :      0.15254      -0.58850      -0.54519
                        -----------------------------------------
Magnitude (a.u.)       :      0.81660
Magnitude (Debye)      :      2.07562

Rotational constants in cm-1:     0.016462     0.009062     0.006462
Rotational constants in MHz :   493.526777   271.663894   193.718682

                             ****ORCA TERMINATED NORMALLY****
TOTAL RUN TIME: 0 days 0 hours 0 minutes 21 seconds 272 msec
