                         Program Version 4.2.1 -  RELEASE  -
|  1> ! wB97X-D3 SP def2-SVP
|  2> %pal
|  3> nprocs 24
|  4> end
|  5>
|  6> * xyz 0 1
|  7> S 	 -98.8998 	 -23.9794 	 -63.8655
|  8> C 	 -100.343 	 -23.2553 	 -63.2401
|  9> C 	 -100.124 	 -21.9737 	 -62.6505
| 10> C 	 -98.681 	 -21.7922 	 -62.5631
| 11> C 	 -97.9074 	 -22.7258 	 -63.115
| 12> H 	 -98.3352 	 -20.9739 	 -62.0251
| 13> C 	 -101.089 	 -20.9455 	 -62.1429
| 14> H 	 -102.003 	 -21.4137 	 -62.1584
| 15> H 	 -101.194 	 -20.1899 	 -62.8502
| 16> C 	 -100.859 	 -20.4267 	 -60.7532
| 17> H 	 -100.81 	 -21.1738 	 -59.9591
| 18> H 	 -99.9195 	 -19.9466 	 -60.6154
| 19> C 	 -101.924 	 -19.4735 	 -60.2858
| 20> H 	 -101.756 	 -19.1708 	 -59.2435
| 21> H 	 -101.763 	 -18.5542 	 -60.8128
| 22> H 	 -102.877 	 -19.9044 	 -60.3531
| 23> S 	 -95.568 	 -22.4798 	 -64.5882
| 24> C 	 -94.0213 	 -22.4191 	 -63.8042
| 25> C 	 -94.1946 	 -22.5061 	 -62.419
| 26> C 	 -95.5755 	 -22.7275 	 -62.0311
| 27> C 	 -96.457 	 -22.7864 	 -63.1185
| 28> H 	 -93.3458 	 -22.3362 	 -61.7026
| 29> C 	 -95.9282 	 -22.5459 	 -60.5441
| 30> H 	 -95.4091 	 -23.3072 	 -59.8866
| 31> H 	 -96.9691 	 -22.6119 	 -60.5343
| 32> C 	 -95.3898 	 -21.2028 	 -59.9604
| 33> H 	 -95.5381 	 -20.5212 	 -60.7007
| 34> H 	 -94.282 	 -21.3054 	 -59.6574
| 35> C 	 -96.0242 	 -20.5838 	 -58.6869
| 36> H 	 -97.143 	 -20.5155 	 -58.7265
| 37> H 	 -95.5963 	 -19.6126 	 -58.3724
| 38> H 	 -95.7405 	 -21.1409 	 -57.7948
| 39> H 	 -101.33 	 -23.7667 	 -63.3811
| 40> H 	 -93.0854 	 -22.2811 	 -64.3982
| 41> *
| 42>
| 43>                          ****END OF INPUT****

CARTESIAN COORDINATES (ANGSTROEM)
---------------------------------
  S    -98.899800  -23.979400  -63.865500
  C    -100.343000  -23.255300  -63.240100
  C    -100.124000  -21.973700  -62.650500
  C    -98.681000  -21.792200  -62.563100
  C    -97.907400  -22.725800  -63.115000
  H    -98.335200  -20.973900  -62.025100
  C    -101.089000  -20.945500  -62.142900
  H    -102.003000  -21.413700  -62.158400
  H    -101.194000  -20.189900  -62.850200
  C    -100.859000  -20.426700  -60.753200
  H    -100.810000  -21.173800  -59.959100
  H    -99.919500  -19.946600  -60.615400
  C    -101.924000  -19.473500  -60.285800
  H    -101.756000  -19.170800  -59.243500
  H    -101.763000  -18.554200  -60.812800
  H    -102.877000  -19.904400  -60.353100
  S    -95.568000  -22.479800  -64.588200
  C    -94.021300  -22.419100  -63.804200
  C    -94.194600  -22.506100  -62.419000
  C    -95.575500  -22.727500  -62.031100
  C    -96.457000  -22.786400  -63.118500
  H    -93.345800  -22.336200  -61.702600
  C    -95.928200  -22.545900  -60.544100
  H    -95.409100  -23.307200  -59.886600
  H    -96.969100  -22.611900  -60.534300
  C    -95.389800  -21.202800  -59.960400
  H    -95.538100  -20.521200  -60.700700
  H    -94.282000  -21.305400  -59.657400
  C    -96.024200  -20.583800  -58.686900
  H    -97.143000  -20.515500  -58.726500
  H    -95.596300  -19.612600  -58.372400
  H    -95.740500  -21.140900  -57.794800
  H    -101.330000  -23.766700  -63.381100
  H    -93.085400  -22.281100  -64.398200

 Total Charge           Charge          ....    0
 Multiplicity           Mult            ....    1
 Number of Electrons    NEL             ....  134
 Basis Dimension        Dim             ....  322

ORBITAL ENERGIES
----------------

  NO   OCC          E(Eh)            E(eV)
   0   2.0000     -88.964244     -2420.8402
   1   2.0000     -88.963155     -2420.8105
   2   2.0000     -10.326591      -281.0008
   3   2.0000     -10.324237      -280.9368
   4   2.0000     -10.323528      -280.9175
   5   2.0000     -10.323176      -280.9079
   6   2.0000     -10.307012      -280.4681
   7   2.0000     -10.306429      -280.4522
   8   2.0000     -10.299767      -280.2709
   9   2.0000     -10.292878      -280.0835
  10   2.0000     -10.288625      -279.9677
  11   2.0000     -10.286881      -279.9203
  12   2.0000     -10.284899      -279.8663
  13   2.0000     -10.284084      -279.8442
  14   2.0000     -10.281913      -279.7851
  15   2.0000     -10.272930      -279.5406
  16   2.0000      -8.079354      -219.8504
  17   2.0000      -8.078384      -219.8240
  18   2.0000      -6.037866      -164.2987
  19   2.0000      -6.036934      -164.2733
  20   2.0000      -6.033850      -164.1894
  21   2.0000      -6.032708      -164.1583
  22   2.0000      -6.030046      -164.0859
  23   2.0000      -6.029181      -164.0623
  24   2.0000      -1.005746       -27.3677
  25   2.0000      -0.982309       -26.7300
  26   2.0000      -0.925218       -25.1765
  27   2.0000      -0.904017       -24.5996
  28   2.0000      -0.870896       -23.6983
  29   2.0000      -0.855382       -23.2761
  30   2.0000      -0.844077       -22.9685
  31   2.0000      -0.816940       -22.2301
  32   2.0000      -0.784827       -21.3562
  33   2.0000      -0.771102       -20.9828
  34   2.0000      -0.712945       -19.4002
  35   2.0000      -0.699033       -19.0216
  36   2.0000      -0.689462       -18.7612
  37   2.0000      -0.654768       -17.8171
  38   2.0000      -0.645826       -17.5738
  39   2.0000      -0.630294       -17.1512
  40   2.0000      -0.592633       -16.1264
  41   2.0000      -0.581237       -15.8163
  42   2.0000      -0.572305       -15.5732
  43   2.0000      -0.563331       -15.3290
  44   2.0000      -0.534742       -14.5511
  45   2.0000      -0.525467       -14.2987
  46   2.0000      -0.515837       -14.0366
  47   2.0000      -0.512352       -13.9418
  48   2.0000      -0.509061       -13.8523
  49   2.0000      -0.502518       -13.6742
  50   2.0000      -0.490940       -13.3591
  51   2.0000      -0.480009       -13.0617
  52   2.0000      -0.472948       -12.8696
  53   2.0000      -0.467464       -12.7203
  54   2.0000      -0.457166       -12.4401
  55   2.0000      -0.451320       -12.2810
  56   2.0000      -0.448697       -12.2097
  57   2.0000      -0.437042       -11.8925
  58   2.0000      -0.426976       -11.6186
  59   2.0000      -0.426036       -11.5930
  60   2.0000      -0.421440       -11.4680
  61   2.0000      -0.418775       -11.3954
  62   2.0000      -0.409557       -11.1446
  63   2.0000      -0.343238        -9.3400
  64   2.0000      -0.327424        -8.9097
  65   2.0000      -0.324696        -8.8354
  66   2.0000      -0.299559        -8.1514
  67   0.0000       0.040707         1.1077
  68   0.0000       0.061275         1.6674
  69   0.0000       0.113770         3.0958
  70   0.0000       0.119885         3.2622
  71   0.0000       0.121308         3.3010

MULLIKEN ATOMIC CHARGES
-----------------------
   0 S :    0.115302
   1 C :   -0.146655
   2 C :   -0.120430
   3 C :    0.056921
   4 C :   -0.151705
   5 H :   -0.023110
   6 C :    0.186712
   7 H :   -0.018670
   8 H :    0.022617
   9 C :   -0.100665
  10 H :    0.023170
  11 H :    0.015614
  12 C :   -0.021742
  13 H :    0.026375
  14 H :    0.023648
  15 H :    0.027095
  16 S :    0.105233
  17 C :   -0.118353
  18 C :   -0.045120
  19 C :   -0.064437
  20 C :   -0.138149
  21 H :    0.041853
  22 C :    0.105771
  23 H :    0.041169
  24 H :    0.011632
  25 C :   -0.098083
  26 H :    0.021052
  27 H :    0.042593
  28 C :   -0.061438
  29 H :    0.038490
  30 H :    0.033369
  31 H :    0.020614
  32 H :    0.067120
  33 H :    0.082208
Sum of atomic charges:    0.0000000

LOEWDIN ATOMIC CHARGES
----------------------
   0 S :    0.404428
   1 C :   -0.203776
   2 C :   -0.053843
   3 C :   -0.048665
   4 C :   -0.196740
   5 H :    0.017927
   6 C :   -0.023152
   7 H :    0.024306
   8 H :    0.031069
   9 C :   -0.041116
  10 H :    0.026192
  11 H :    0.016294
  12 C :   -0.054265
  13 H :    0.030054
  14 H :    0.023052
  15 H :    0.017630
  16 S :    0.416289
  17 C :   -0.196938
  18 C :   -0.078317
  19 C :   -0.053453
  20 C :   -0.211307
  21 H :    0.039525
  22 C :   -0.024882
  23 H :    0.039945
  24 H :    0.017976
  25 C :   -0.039586
  26 H :    0.007988
  27 H :    0.034315
  28 C :   -0.074402
  29 H :    0.025849
  30 H :    0.031212
  31 H :    0.021801
  32 H :    0.034206
  33 H :    0.040382

  Mayer bond orders larger than 0.100000
B(  0-S ,  1-C ) :   1.1604 B(  0-S ,  4-C ) :   1.1280 B(  1-C ,  2-C ) :   1.6015
B(  1-C , 32-H ) :   0.9611 B(  2-C ,  3-C ) :   1.2268 B(  2-C ,  6-C ) :   1.0284
B(  3-C ,  4-C ) :   1.6130 B(  3-C ,  5-H ) :   1.0085 B(  4-C , 20-C ) :   1.0049
B(  6-C ,  7-H ) :   0.9177 B(  6-C ,  8-H ) :   0.9230 B(  6-C ,  9-C ) :   1.0630
B(  9-C , 10-H ) :   0.9553 B(  9-C , 11-H ) :   0.9497 B(  9-C , 12-C ) :   1.1024
B( 12-C , 13-H ) :   0.9708 B( 12-C , 14-H ) :   0.9736 B( 12-C , 15-H ) :   0.9755
B( 16-S , 17-C ) :   1.1719 B( 16-S , 20-C ) :   1.1562 B( 17-C , 18-C ) :   1.5775
B( 17-C , 33-H ) :   0.9651 B( 18-C , 19-C ) :   1.2494 B( 18-C , 21-H ) :   0.9826
B( 19-C , 20-C ) :   1.5820 B( 19-C , 22-C ) :   1.0590 B( 22-C , 23-H ) :   0.9324
B( 22-C , 24-H ) :   0.9347 B( 22-C , 25-C ) :   1.0574 B( 25-C , 26-H ) :   0.9631
B( 25-C , 27-H ) :   0.9502 B( 25-C , 28-C ) :   1.0850 B( 28-C , 29-H ) :   0.9745
B( 28-C , 30-H ) :   0.9722 B( 28-C , 31-H ) :   0.9746

Dispersion correction           -0.014225208
FINAL SINGLE POINT ENERGY     -1339.856079345156

DIPOLE MOMENT
-------------
                                X             Y             Z
Electronic contribution:      8.69488     -17.69102     -26.81829
Nuclear contribution   :     -8.85200      18.27810      27.42741
                        -----------------------------------------
Total Dipole Moment    :     -0.15712       0.58708       0.60912
                        -----------------------------------------
Magnitude (a.u.)       :      0.86045
Magnitude (Debye)      :      2.18708

Rotational constants in cm-1:     0.016307     0.009598     0.006675
Rotational constants in MHz :   488.871791   287.731763   200.124074

                             ****ORCA TERMINATED NORMALLY****
TOTAL RUN TIME: 0 days 0 hours 0 minutes 21 seconds 671 msec
