                         Program Version 4.2.1 -  RELEASE  -
|  1> ! wB97X-D3 SP def2-SVP
|  2> %pal
|  3> nprocs 24
|  4> end
|  5>
|  6> * xyz 0 1
|  7> S 	 45.1619 	 -19.3902 	 -112.288
|  8> C 	 46.0939 	 -19.5013 	 -110.83
|  9> C 	 46.735 	 -20.7076 	 -110.795
| 10> C 	 46.5032 	 -21.4626 	 -111.932
| 11> C 	 45.7075 	 -20.8816 	 -112.902
| 12> H 	 46.7663 	 -22.4654 	 -112.122
| 13> C 	 47.6178 	 -21.209 	 -109.57
| 14> H 	 47.6394 	 -22.2871 	 -109.71
| 15> H 	 47.032 	 -20.9711 	 -108.71
| 16> C 	 48.9167 	 -20.4578 	 -109.334
| 17> H 	 48.7297 	 -19.3497 	 -109.21
| 18> H 	 49.5426 	 -20.8207 	 -108.46
| 19> C 	 49.8325 	 -20.5131 	 -110.602
| 20> H 	 50.6698 	 -19.7838 	 -110.626
| 21> H 	 50.2513 	 -21.5611 	 -110.531
| 22> H 	 49.3124 	 -20.4163 	 -111.532
| 23> S 	 43.5194 	 -22.3106 	 -113.727
| 24> C 	 43.4258 	 -22.8652 	 -115.354
| 25> C 	 44.531 	 -22.428 	 -116.147
| 26> C 	 45.4319 	 -21.6397 	 -115.375
| 27> C 	 45.0933 	 -21.5587 	 -114.053
| 28> H 	 44.6497 	 -22.6712 	 -117.195
| 29> C 	 46.6945 	 -20.8682 	 -115.891
| 30> H 	 47.1894 	 -21.5004 	 -116.579
| 31> H 	 47.424 	 -20.6668 	 -115.07
| 32> C 	 46.4698 	 -19.4289 	 -116.465
| 33> H 	 45.7709 	 -18.9471 	 -115.773
| 34> H 	 45.9416 	 -19.6663 	 -117.433
| 35> C 	 47.67 	 -18.4925 	 -116.799
| 36> H 	 48.3413 	 -18.7962 	 -117.548
| 37> H 	 48.2596 	 -18.2612 	 -115.938
| 38> H 	 47.3066 	 -17.4607 	 -117.107
| 39> H 	 46.075 	 -18.8058 	 -110.027
| 40> H 	 42.5798 	 -23.3851 	 -115.797
| 41> *
| 42>
| 43>                          ****END OF INPUT****

CARTESIAN COORDINATES (ANGSTROEM)
---------------------------------
  S     45.161900  -19.390200  -112.288000
  C     46.093900  -19.501300  -110.830000
  C     46.735000  -20.707600  -110.795000
  C     46.503200  -21.462600  -111.932000
  C     45.707500  -20.881600  -112.902000
  H     46.766300  -22.465400  -112.122000
  C     47.617800  -21.209000  -109.570000
  H     47.639400  -22.287100  -109.710000
  H     47.032000  -20.971100  -108.710000
  C     48.916700  -20.457800  -109.334000
  H     48.729700  -19.349700  -109.210000
  H     49.542600  -20.820700  -108.460000
  C     49.832500  -20.513100  -110.602000
  H     50.669800  -19.783800  -110.626000
  H     50.251300  -21.561100  -110.531000
  H     49.312400  -20.416300  -111.532000
  S     43.519400  -22.310600  -113.727000
  C     43.425800  -22.865200  -115.354000
  C     44.531000  -22.428000  -116.147000
  C     45.431900  -21.639700  -115.375000
  C     45.093300  -21.558700  -114.053000
  H     44.649700  -22.671200  -117.195000
  C     46.694500  -20.868200  -115.891000
  H     47.189400  -21.500400  -116.579000
  H     47.424000  -20.666800  -115.070000
  C     46.469800  -19.428900  -116.465000
  H     45.770900  -18.947100  -115.773000
  H     45.941600  -19.666300  -117.433000
  C     47.670000  -18.492500  -116.799000
  H     48.341300  -18.796200  -117.548000
  H     48.259600  -18.261200  -115.938000
  H     47.306600  -17.460700  -117.107000
  H     46.075000  -18.805800  -110.027000
  H     42.579800  -23.385100  -115.797000

 Total Charge           Charge          ....    0
 Multiplicity           Mult            ....    1
 Number of Electrons    NEL             ....  134
 Basis Dimension        Dim             ....  322

ORBITAL ENERGIES
----------------

  NO   OCC          E(Eh)            E(eV)
   0   2.0000     -88.968948     -2420.9681
   1   2.0000     -88.965939     -2420.8863
   2   2.0000     -10.325346      -280.9670
   3   2.0000     -10.323746      -280.9234
   4   2.0000     -10.323362      -280.9130
   5   2.0000     -10.310946      -280.5751
   6   2.0000     -10.307376      -280.4780
   7   2.0000     -10.300707      -280.2965
   8   2.0000     -10.299055      -280.2515
   9   2.0000     -10.297877      -280.2195
  10   2.0000     -10.295836      -280.1639
  11   2.0000     -10.292624      -280.0766
  12   2.0000     -10.291752      -280.0528
  13   2.0000     -10.285663      -279.8871
  14   2.0000     -10.278769      -279.6995
  15   2.0000     -10.276166      -279.6287
  16   2.0000      -8.083706      -219.9688
  17   2.0000      -8.081622      -219.9121
  18   2.0000      -6.042035      -164.4121
  19   2.0000      -6.039901      -164.3541
  20   2.0000      -6.038184      -164.3073
  21   2.0000      -6.035739      -164.2408
  22   2.0000      -6.034678      -164.2119
  23   2.0000      -6.032808      -164.1611
  24   2.0000      -1.014443       -27.6044
  25   2.0000      -0.988546       -26.8997
  26   2.0000      -0.907846       -24.7037
  27   2.0000      -0.896949       -24.4072
  28   2.0000      -0.866314       -23.5736
  29   2.0000      -0.849087       -23.1048
  30   2.0000      -0.845875       -23.0174
  31   2.0000      -0.811058       -22.0700
  32   2.0000      -0.784900       -21.3582
  33   2.0000      -0.775479       -21.1018
  34   2.0000      -0.701874       -19.0989
  35   2.0000      -0.694924       -18.9098
  36   2.0000      -0.689853       -18.7718
  37   2.0000      -0.664842       -18.0913
  38   2.0000      -0.649097       -17.6628
  39   2.0000      -0.611296       -16.6342
  40   2.0000      -0.590978       -16.0813
  41   2.0000      -0.572410       -15.5761
  42   2.0000      -0.561189       -15.2707
  43   2.0000      -0.549093       -14.9416
  44   2.0000      -0.545306       -14.8385
  45   2.0000      -0.518748       -14.1159
  46   2.0000      -0.513754       -13.9800
  47   2.0000      -0.510911       -13.9026
  48   2.0000      -0.503145       -13.6913
  49   2.0000      -0.499908       -13.6032
  50   2.0000      -0.488559       -13.2944
  51   2.0000      -0.478115       -13.0102
  52   2.0000      -0.474071       -12.9001
  53   2.0000      -0.468461       -12.7475
  54   2.0000      -0.462572       -12.5872
  55   2.0000      -0.451855       -12.2956
  56   2.0000      -0.441629       -12.0173
  57   2.0000      -0.435428       -11.8486
  58   2.0000      -0.433571       -11.7981
  59   2.0000      -0.423972       -11.5369
  60   2.0000      -0.414456       -11.2779
  61   2.0000      -0.406441       -11.0598
  62   2.0000      -0.402296       -10.9470
  63   2.0000      -0.340206        -9.2575
  64   2.0000      -0.332523        -9.0484
  65   2.0000      -0.321878        -8.7587
  66   2.0000      -0.313181        -8.5221
  67   0.0000       0.044094         1.1999
  68   0.0000       0.048291         1.3141
  69   0.0000       0.120018         3.2659
  70   0.0000       0.123410         3.3582
  71   0.0000       0.128877         3.5069

MULLIKEN ATOMIC CHARGES
-----------------------
   0 S :    0.121538
   1 C :   -0.119674
   2 C :   -0.093404
   3 C :    0.042167
   4 C :   -0.172812
   5 H :   -0.008285
   6 C :    0.118625
   7 H :    0.029067
   8 H :    0.024091
   9 C :   -0.102373
  10 H :    0.036435
  11 H :    0.051552
  12 C :   -0.085513
  13 H :    0.038984
  14 H :    0.028920
  15 H :    0.043141
  16 S :    0.130723
  17 C :   -0.098998
  18 C :   -0.044976
  19 C :   -0.007284
  20 C :   -0.194247
  21 H :    0.021118
  22 C :    0.063506
  23 H :    0.013300
  24 H :    0.031310
  25 C :   -0.085310
  26 H :    0.034466
  27 H :    0.029685
  28 C :   -0.036984
  29 H :    0.027252
  30 H :    0.024779
  31 H :    0.038532
  32 H :    0.035919
  33 H :    0.064752
Sum of atomic charges:   -0.0000000

LOEWDIN ATOMIC CHARGES
----------------------
   0 S :    0.441006
   1 C :   -0.195307
   2 C :   -0.066938
   3 C :   -0.062836
   4 C :   -0.222115
   5 H :    0.024943
   6 C :   -0.022136
   7 H :    0.030097
   8 H :    0.029789
   9 C :   -0.049028
  10 H :    0.027244
  11 H :    0.033739
  12 C :   -0.074963
  13 H :    0.025321
  14 H :    0.027952
  15 H :    0.020295
  16 S :    0.419736
  17 C :   -0.192428
  18 C :   -0.073289
  19 C :   -0.049529
  20 C :   -0.198609
  21 H :    0.032172
  22 C :   -0.029907
  23 H :    0.018328
  24 H :    0.032713
  25 C :   -0.042336
  26 H :    0.024912
  27 H :    0.025659
  28 C :   -0.067320
  29 H :    0.018129
  30 H :    0.021455
  31 H :    0.039013
  32 H :    0.023268
  33 H :    0.030970

  Mayer bond orders larger than 0.100000
B(  0-S ,  1-C ) :   1.1702 B(  0-S ,  4-C ) :   1.1855 B(  1-C ,  2-C ) :   1.5678
B(  1-C ,  4-C ) :   0.1050 B(  1-C , 32-H ) :   0.9763 B(  2-C ,  3-C ) :   1.2826
B(  2-C ,  6-C ) :   0.9902 B(  3-C ,  4-C ) :   1.5468 B(  3-C ,  5-H ) :   1.0063
B(  4-C , 20-C ) :   0.9951 B(  6-C ,  7-H ) :   0.9497 B(  6-C ,  8-H ) :   0.9372
B(  6-C ,  9-C ) :   1.0656 B(  9-C , 10-H ) :   0.9563 B(  9-C , 11-H ) :   0.9600
B(  9-C , 12-C ) :   1.0587 B( 12-C , 13-H ) :   0.9780 B( 12-C , 14-H ) :   0.9792
B( 12-C , 15-H ) :   0.9779 B( 16-S , 17-C ) :   1.1834 B( 16-S , 20-C ) :   1.1427
B( 17-C , 18-C ) :   1.5748 B( 17-C , 20-C ) :   0.1057 B( 17-C , 33-H ) :   0.9666
B( 18-C , 19-C ) :   1.2564 B( 18-C , 21-H ) :   0.9923 B( 19-C , 20-C ) :   1.6222
B( 19-C , 22-C ) :   1.0357 B( 22-C , 23-H ) :   0.9379 B( 22-C , 24-H ) :   0.9366
B( 22-C , 25-C ) :   1.0524 B( 25-C , 26-H ) :   0.9565 B( 25-C , 27-H ) :   0.9588
B( 25-C , 28-C ) :   1.0794 B( 28-C , 29-H ) :   0.9777 B( 28-C , 30-H ) :   0.9734
B( 28-C , 31-H ) :   0.9726

Dispersion correction           -0.014488733
FINAL SINGLE POINT ENERGY     -1339.870417848845

DIPOLE MOMENT
-------------
                                X             Y             Z
Electronic contribution:    -23.72432      -6.66713       1.38688
Nuclear contribution   :     23.99967       6.60826      -1.37140
                        -----------------------------------------
Total Dipole Moment    :      0.27535      -0.05888       0.01548
                        -----------------------------------------
Magnitude (a.u.)       :      0.28200
Magnitude (Debye)      :      0.71678

Rotational constants in cm-1:     0.018137     0.008767     0.007055
Rotational constants in MHz :   543.729745   262.827366   211.489511

                             ****ORCA TERMINATED NORMALLY****
TOTAL RUN TIME: 0 days 0 hours 0 minutes 21 seconds 413 msec
