                         Program Version 4.2.1 -  RELEASE  -
|  1> ! wB97X-D3 SP def2-SVP
|  2> %pal
|  3> nprocs 24
|  4> end
|  5>
|  6> * xyz 0 1
|  7> S 	 -46.339 	 13.2771 	 34.3022
|  8> C 	 -44.962 	 13.4589 	 35.3713
|  9> C 	 -44.4137 	 14.7161 	 35.2185
| 10> C 	 -45.0343 	 15.473 	 34.1884
| 11> C 	 -46.1862 	 14.8817 	 33.6627
| 12> H 	 -44.746 	 16.4575 	 33.8786
| 13> C 	 -43.2251 	 15.2079 	 35.8734
| 14> H 	 -42.4783 	 15.2168 	 35.0248
| 15> H 	 -42.7729 	 14.417 	 36.5233
| 16> C 	 -43.2891 	 16.6073 	 36.4616
| 17> H 	 -42.2797 	 16.8201 	 36.8564
| 18> H 	 -43.4594 	 17.4406 	 35.7719
| 19> C 	 -44.2964 	 16.6814 	 37.5748
| 20> H 	 -44.3486 	 17.6243 	 38.0253
| 21> H 	 -45.298 	 16.6176 	 37.2433
| 22> H 	 -44.1143 	 15.9035 	 38.3072
| 23> S 	 -47.378 	 14.3534 	 31.3501
| 24> C 	 -48.1339 	 15.5163 	 30.3688
| 25> C 	 -48.1896 	 16.7264 	 31.0183
| 26> C 	 -47.5998 	 16.6674 	 32.3354
| 27> C 	 -46.9873 	 15.4549 	 32.5891
| 28> H 	 -48.6942 	 17.5183 	 30.4424
| 29> C 	 -47.4382 	 17.9337 	 33.1742
| 30> H 	 -47.0953 	 17.7877 	 34.2394
| 31> H 	 -48.4395 	 18.3333 	 33.3789
| 32> C 	 -46.5109 	 19.0282 	 32.5496
| 33> H 	 -46.6195 	 19.9366 	 33.1832
| 34> H 	 -46.9025 	 19.3474 	 31.5732
| 35> C 	 -45.0331 	 18.5751 	 32.3416
| 36> H 	 -44.4278 	 18.6549 	 33.2948
| 37> H 	 -44.5968 	 19.2345 	 31.5561
| 38> H 	 -44.9309 	 17.591 	 32.0173
| 39> H 	 -44.397 	 12.6945 	 35.911
| 40> H 	 -48.5781 	 15.2313 	 29.3697
| 41> *
| 42>
| 43>                          ****END OF INPUT****

CARTESIAN COORDINATES (ANGSTROEM)
---------------------------------
  S    -46.339000   13.277100   34.302200
  C    -44.962000   13.458900   35.371300
  C    -44.413700   14.716100   35.218500
  C    -45.034300   15.473000   34.188400
  C    -46.186200   14.881700   33.662700
  H    -44.746000   16.457500   33.878600
  C    -43.225100   15.207900   35.873400
  H    -42.478300   15.216800   35.024800
  H    -42.772900   14.417000   36.523300
  C    -43.289100   16.607300   36.461600
  H    -42.279700   16.820100   36.856400
  H    -43.459400   17.440600   35.771900
  C    -44.296400   16.681400   37.574800
  H    -44.348600   17.624300   38.025300
  H    -45.298000   16.617600   37.243300
  H    -44.114300   15.903500   38.307200
  S    -47.378000   14.353400   31.350100
  C    -48.133900   15.516300   30.368800
  C    -48.189600   16.726400   31.018300
  C    -47.599800   16.667400   32.335400
  C    -46.987300   15.454900   32.589100
  H    -48.694200   17.518300   30.442400
  C    -47.438200   17.933700   33.174200
  H    -47.095300   17.787700   34.239400
  H    -48.439500   18.333300   33.378900
  C    -46.510900   19.028200   32.549600
  H    -46.619500   19.936600   33.183200
  H    -46.902500   19.347400   31.573200
  C    -45.033100   18.575100   32.341600
  H    -44.427800   18.654900   33.294800
  H    -44.596800   19.234500   31.556100
  H    -44.930900   17.591000   32.017300
  H    -44.397000   12.694500   35.911000
  H    -48.578100   15.231300   29.369700

 Total Charge           Charge          ....    0
 Multiplicity           Mult            ....    1
 Number of Electrons    NEL             ....  134
 Basis Dimension        Dim             ....  322

ORBITAL ENERGIES
----------------

  NO   OCC          E(Eh)            E(eV)
   0   2.0000     -88.966912     -2420.9128
   1   2.0000     -88.959663     -2420.7155
   2   2.0000     -10.330364      -281.1035
   3   2.0000     -10.325025      -280.9582
   4   2.0000     -10.317803      -280.7617
   5   2.0000     -10.310882      -280.5734
   6   2.0000     -10.309027      -280.5229
   7   2.0000     -10.297967      -280.2219
   8   2.0000     -10.297063      -280.1973
   9   2.0000     -10.294881      -280.1380
  10   2.0000     -10.293049      -280.0881
  11   2.0000     -10.292444      -280.0716
  12   2.0000     -10.288295      -279.9587
  13   2.0000     -10.287691      -279.9423
  14   2.0000     -10.282584      -279.8033
  15   2.0000     -10.263228      -279.2766
  16   2.0000      -8.081404      -219.9062
  17   2.0000      -8.076816      -219.7813
  18   2.0000      -6.040000      -164.3568
  19   2.0000      -6.035873      -164.2444
  20   2.0000      -6.035120      -164.2240
  21   2.0000      -6.032150      -164.1432
  22   2.0000      -6.030811      -164.1067
  23   2.0000      -6.027792      -164.0246
  24   2.0000      -1.015885       -27.6436
  25   2.0000      -0.990945       -26.9650
  26   2.0000      -0.921781       -25.0829
  27   2.0000      -0.902914       -24.5695
  28   2.0000      -0.874095       -23.7853
  29   2.0000      -0.849877       -23.1263
  30   2.0000      -0.844603       -22.9828
  31   2.0000      -0.817233       -22.2380
  32   2.0000      -0.783111       -21.3095
  33   2.0000      -0.776839       -21.1389
  34   2.0000      -0.715005       -19.4563
  35   2.0000      -0.699248       -19.0275
  36   2.0000      -0.693428       -18.8691
  37   2.0000      -0.656835       -17.8734
  38   2.0000      -0.632835       -17.2203
  39   2.0000      -0.626290       -17.0422
  40   2.0000      -0.598244       -16.2790
  41   2.0000      -0.569462       -15.4958
  42   2.0000      -0.562281       -15.3004
  43   2.0000      -0.547179       -14.8895
  44   2.0000      -0.538547       -14.6546
  45   2.0000      -0.536611       -14.6019
  46   2.0000      -0.518860       -14.1189
  47   2.0000      -0.512069       -13.9341
  48   2.0000      -0.507626       -13.8132
  49   2.0000      -0.501823       -13.6553
  50   2.0000      -0.489186       -13.3114
  51   2.0000      -0.477885       -13.0039
  52   2.0000      -0.472695       -12.8627
  53   2.0000      -0.467783       -12.7290
  54   2.0000      -0.459433       -12.5018
  55   2.0000      -0.448255       -12.1976
  56   2.0000      -0.443464       -12.0673
  57   2.0000      -0.440860       -11.9964
  58   2.0000      -0.435017       -11.8374
  59   2.0000      -0.423521       -11.5246
  60   2.0000      -0.417287       -11.3550
  61   2.0000      -0.414812       -11.2876
  62   2.0000      -0.409457       -11.1419
  63   2.0000      -0.350224        -9.5301
  64   2.0000      -0.329431        -8.9643
  65   2.0000      -0.324419        -8.8279
  66   2.0000      -0.293407        -7.9840
  67   0.0000       0.030969         0.8427
  68   0.0000       0.079728         2.1695
  69   0.0000       0.115843         3.1523
  70   0.0000       0.120969         3.2917
  71   0.0000       0.124959         3.4003

MULLIKEN ATOMIC CHARGES
-----------------------
   0 S :    0.113467
   1 C :   -0.124735
   2 C :   -0.072280
   3 C :    0.041048
   4 C :   -0.107412
   5 H :   -0.052645
   6 C :    0.028054
   7 H :    0.043262
   8 H :    0.021468
   9 C :   -0.064730
  10 H :    0.025552
  11 H :    0.029939
  12 C :   -0.003728
  13 H :    0.010863
  14 H :    0.022767
  15 H :    0.027644
  16 S :    0.101490
  17 C :   -0.120689
  18 C :   -0.056868
  19 C :   -0.015472
  20 C :   -0.159499
  21 H :    0.034569
  22 C :    0.028789
  23 H :    0.032414
  24 H :    0.027402
  25 C :   -0.080499
  26 H :    0.035948
  27 H :    0.026223
  28 C :   -0.058282
  29 H :    0.047578
  30 H :    0.041522
  31 H :    0.044150
  32 H :    0.050997
  33 H :    0.081693
Sum of atomic charges:    0.0000000

LOEWDIN ATOMIC CHARGES
----------------------
   0 S :    0.411106
   1 C :   -0.210703
   2 C :   -0.067669
   3 C :   -0.059793
   4 C :   -0.196185
   5 H :    0.021244
   6 C :   -0.044173
   7 H :    0.044896
   8 H :    0.033871
   9 C :   -0.040908
  10 H :    0.028260
  11 H :    0.024643
  12 C :   -0.060093
  13 H :    0.019526
  14 H :    0.023313
  15 H :    0.026300
  16 S :    0.441671
  17 C :   -0.207772
  18 C :   -0.080531
  19 C :   -0.059929
  20 C :   -0.209436
  21 H :    0.039312
  22 C :   -0.042709
  23 H :    0.034302
  24 H :    0.032242
  25 C :   -0.039650
  26 H :    0.028444
  27 H :    0.020317
  28 C :   -0.067772
  29 H :    0.028847
  30 H :    0.035024
  31 H :    0.016147
  32 H :    0.035212
  33 H :    0.042648

  Mayer bond orders larger than 0.100000
B(  0-S ,  1-C ) :   1.1251 B(  0-S ,  4-C ) :   1.1567 B(  1-C ,  2-C ) :   1.5907
B(  1-C , 32-H ) :   0.9608 B(  2-C ,  3-C ) :   1.2516 B(  2-C ,  6-C ) :   1.0413
B(  3-C ,  4-C ) :   1.5469 B(  3-C ,  5-H ) :   0.9866 B(  4-C , 20-C ) :   1.0442
B(  6-C ,  7-H ) :   0.9263 B(  6-C ,  8-H ) :   0.9398 B(  6-C ,  9-C ) :   1.0753
B(  9-C , 10-H ) :   0.9493 B(  9-C , 11-H ) :   0.9505 B(  9-C , 12-C ) :   1.0856
B( 12-C , 13-H ) :   0.9677 B( 12-C , 14-H ) :   0.9676 B( 12-C , 15-H ) :   0.9741
B( 16-S , 17-C ) :   1.1811 B( 16-S , 20-C ) :   1.1606 B( 17-C , 18-C ) :   1.5952
B( 17-C , 33-H ) :   0.9614 B( 18-C , 19-C ) :   1.2193 B( 18-C , 21-H ) :   0.9937
B( 19-C , 20-C ) :   1.5761 B( 19-C , 22-C ) :   1.0546 B( 22-C , 23-H ) :   0.9410
B( 22-C , 24-H ) :   0.9304 B( 22-C , 25-C ) :   1.0679 B( 25-C , 26-H ) :   0.9557
B( 25-C , 27-H ) :   0.9608 B( 25-C , 28-C ) :   1.0671 B( 28-C , 29-H ) :   0.9646
B( 28-C , 30-H ) :   0.9694 B( 28-C , 31-H ) :   0.9668

Dispersion correction           -0.015851116
FINAL SINGLE POINT ENERGY     -1339.880295712740

DIPOLE MOMENT
-------------
                                X             Y             Z
Electronic contribution:    -13.29848     -22.92997     -11.79818
Nuclear contribution   :     13.59982      23.56481      11.76888
                        -----------------------------------------
Total Dipole Moment    :      0.30134       0.63484      -0.02930
                        -----------------------------------------
Magnitude (a.u.)       :      0.70334
Magnitude (Debye)      :      1.78775

Rotational constants in cm-1:     0.019417     0.010451     0.007459
Rotational constants in MHz :   582.115186   313.313007   223.623489

                             ****ORCA TERMINATED NORMALLY****
TOTAL RUN TIME: 0 days 0 hours 0 minutes 23 seconds 137 msec
