                         Program Version 4.2.1 -  RELEASE  -
|  1> ! wB97X-D3 SP def2-SVP
|  2> %pal
|  3> nprocs 24
|  4> end
|  5>
|  6> * xyz 0 1
|  7> S 	 -39.4552 	 -9.2545 	 8.32143
|  8> C 	 -37.838 	 -9.58717 	 8.96214
|  9> C 	 -37.7131 	 -9.02617 	 10.2126
| 10> C 	 -38.8272 	 -8.20142 	 10.5837
| 11> C 	 -39.7903 	 -8.14511 	 9.61952
| 12> H 	 -38.961 	 -7.75696 	 11.5375
| 13> C 	 -36.529 	 -9.26373 	 11.156
| 14> H 	 -35.9976 	 -10.1928 	 10.7729
| 15> H 	 -36.8866 	 -9.30505 	 12.1697
| 16> C 	 -35.5725 	 -8.03802 	 11.0952
| 17> H 	 -34.733 	 -8.1223 	 11.8176
| 18> H 	 -35.051 	 -8.19289 	 10.1535
| 19> C 	 -36.1255 	 -6.5891 	 11.3315
| 20> H 	 -37.0223 	 -6.34953 	 10.7669
| 21> H 	 -36.4926 	 -6.61826 	 12.3684
| 22> H 	 -35.3814 	 -5.82589 	 11.3641
| 23> S 	 -42.465 	 -7.76223 	 8.93813
| 24> C 	 -43.1155 	 -6.17187 	 8.99459
| 25> C 	 -42.2481 	 -5.20792 	 9.4403
| 26> C 	 -40.9746 	 -5.77761 	 9.67029
| 27> C 	 -40.8989 	 -7.17838 	 9.49775
| 28> H 	 -42.4791 	 -4.1318 	 9.57437
| 29> C 	 -39.7907 	 -4.83976 	 9.78547
| 30> H 	 -39.154 	 -5.25358 	 10.4907
| 31> H 	 -40.2111 	 -3.94329 	 10.3091
| 32> C 	 -39.1487 	 -4.52051 	 8.43108
| 33> H 	 -39.9779 	 -4.02474 	 7.83515
| 34> H 	 -38.7355 	 -5.36365 	 7.9245
| 35> C 	 -38.0336 	 -3.43236 	 8.70348
| 36> H 	 -38.5052 	 -2.59406 	 9.28954
| 37> H 	 -37.533 	 -3.06845 	 7.76213
| 38> H 	 -37.2526 	 -3.84237 	 9.36731
| 39> H 	 -37.1252 	 -10.2108 	 8.52243
| 40> H 	 -44.1451 	 -5.81763 	 8.88606
| 41> *
| 42>
| 43>                          ****END OF INPUT****

CARTESIAN COORDINATES (ANGSTROEM)
---------------------------------
  S    -39.455200   -9.254500    8.321430
  C    -37.838000   -9.587170    8.962140
  C    -37.713100   -9.026170   10.212600
  C    -38.827200   -8.201420   10.583700
  C    -39.790300   -8.145110    9.619520
  H    -38.961000   -7.756960   11.537500
  C    -36.529000   -9.263730   11.156000
  H    -35.997600  -10.192800   10.772900
  H    -36.886600   -9.305050   12.169700
  C    -35.572500   -8.038020   11.095200
  H    -34.733000   -8.122300   11.817600
  H    -35.051000   -8.192890   10.153500
  C    -36.125500   -6.589100   11.331500
  H    -37.022300   -6.349530   10.766900
  H    -36.492600   -6.618260   12.368400
  H    -35.381400   -5.825890   11.364100
  S    -42.465000   -7.762230    8.938130
  C    -43.115500   -6.171870    8.994590
  C    -42.248100   -5.207920    9.440300
  C    -40.974600   -5.777610    9.670290
  C    -40.898900   -7.178380    9.497750
  H    -42.479100   -4.131800    9.574370
  C    -39.790700   -4.839760    9.785470
  H    -39.154000   -5.253580   10.490700
  H    -40.211100   -3.943290   10.309100
  C    -39.148700   -4.520510    8.431080
  H    -39.977900   -4.024740    7.835150
  H    -38.735500   -5.363650    7.924500
  C    -38.033600   -3.432360    8.703480
  H    -38.505200   -2.594060    9.289540
  H    -37.533000   -3.068450    7.762130
  H    -37.252600   -3.842370    9.367310
  H    -37.125200  -10.210800    8.522430
  H    -44.145100   -5.817630    8.886060

 Total Charge           Charge          ....    0
 Multiplicity           Mult            ....    1
 Number of Electrons    NEL             ....  134
 Basis Dimension        Dim             ....  322

ORBITAL ENERGIES
----------------

  NO   OCC          E(Eh)            E(eV)
   0   2.0000     -88.969700     -2420.9886
   1   2.0000     -88.964817     -2420.8557
   2   2.0000     -10.331417      -281.1321
   3   2.0000     -10.330126      -281.0970
   4   2.0000     -10.315436      -280.6973
   5   2.0000     -10.312226      -280.6099
   6   2.0000     -10.302253      -280.3386
   7   2.0000     -10.301437      -280.3163
   8   2.0000     -10.300966      -280.3035
   9   2.0000     -10.292124      -280.0629
  10   2.0000     -10.291462      -280.0449
  11   2.0000     -10.291370      -280.0424
  12   2.0000     -10.290828      -280.0277
  13   2.0000     -10.286002      -279.8963
  14   2.0000     -10.285664      -279.8871
  15   2.0000     -10.281352      -279.7698
  16   2.0000      -8.084480      -219.9899
  17   2.0000      -8.079666      -219.8589
  18   2.0000      -6.042978      -164.4378
  19   2.0000      -6.038938      -164.3279
  20   2.0000      -6.038255      -164.3093
  21   2.0000      -6.035307      -164.2290
  22   2.0000      -6.034250      -164.2003
  23   2.0000      -6.030232      -164.0910
  24   2.0000      -1.008257       -27.4361
  25   2.0000      -0.987381       -26.8680
  26   2.0000      -0.909328       -24.7441
  27   2.0000      -0.907163       -24.6852
  28   2.0000      -0.867551       -23.6073
  29   2.0000      -0.847929       -23.0733
  30   2.0000      -0.840978       -22.8842
  31   2.0000      -0.817949       -22.2575
  32   2.0000      -0.785286       -21.3687
  33   2.0000      -0.766180       -20.8488
  34   2.0000      -0.705787       -19.2054
  35   2.0000      -0.700969       -19.0743
  36   2.0000      -0.694012       -18.8850
  37   2.0000      -0.661424       -17.9983
  38   2.0000      -0.645285       -17.5591
  39   2.0000      -0.618755       -16.8372
  40   2.0000      -0.588589       -16.0163
  41   2.0000      -0.573270       -15.5995
  42   2.0000      -0.565252       -15.3813
  43   2.0000      -0.549876       -14.9629
  44   2.0000      -0.545035       -14.8312
  45   2.0000      -0.520328       -14.1588
  46   2.0000      -0.510978       -13.9044
  47   2.0000      -0.508896       -13.8478
  48   2.0000      -0.503913       -13.7122
  49   2.0000      -0.499802       -13.6003
  50   2.0000      -0.490571       -13.3491
  51   2.0000      -0.480338       -13.0707
  52   2.0000      -0.469880       -12.7861
  53   2.0000      -0.465409       -12.6644
  54   2.0000      -0.455282       -12.3889
  55   2.0000      -0.451830       -12.2949
  56   2.0000      -0.447379       -12.1738
  57   2.0000      -0.442694       -12.0463
  58   2.0000      -0.434547       -11.8246
  59   2.0000      -0.422667       -11.5014
  60   2.0000      -0.421601       -11.4723
  61   2.0000      -0.411249       -11.1907
  62   2.0000      -0.408583       -11.1181
  63   2.0000      -0.349976        -9.5233
  64   2.0000      -0.334108        -9.0916
  65   2.0000      -0.330026        -8.9805
  66   2.0000      -0.288820        -7.8592
  67   0.0000       0.027076         0.7368
  68   0.0000       0.069646         1.8952
  69   0.0000       0.100920         2.7462
  70   0.0000       0.123709         3.3663
  71   0.0000       0.127758         3.4765

MULLIKEN ATOMIC CHARGES
-----------------------
   0 S :    0.100497
   1 C :   -0.103615
   2 C :   -0.102371
   3 C :    0.012235
   4 C :   -0.109483
   5 H :    0.008246
   6 C :    0.080260
   7 H :    0.042172
   8 H :    0.027362
   9 C :   -0.096223
  10 H :    0.029070
  11 H :    0.019098
  12 C :   -0.043054
  13 H :    0.054959
  14 H :    0.014109
  15 H :    0.037574
  16 S :    0.116292
  17 C :   -0.066443
  18 C :   -0.065110
  19 C :   -0.070048
  20 C :   -0.158691
  21 H :    0.034448
  22 C :    0.084474
  23 H :   -0.017614
  24 H :    0.015218
  25 C :   -0.041432
  26 H :    0.037670
  27 H :    0.044613
  28 C :   -0.075558
  29 H :    0.032200
  30 H :    0.048699
  31 H :    0.032160
  32 H :    0.022676
  33 H :    0.055611
Sum of atomic charges:    0.0000000

LOEWDIN ATOMIC CHARGES
----------------------
   0 S :    0.394180
   1 C :   -0.183873
   2 C :   -0.057529
   3 C :   -0.065713
   4 C :   -0.188825
   5 H :    0.027981
   6 C :   -0.025903
   7 H :    0.041634
   8 H :    0.026877
   9 C :   -0.045013
  10 H :    0.024112
  11 H :    0.017888
  12 C :   -0.066216
  13 H :    0.022510
  14 H :    0.026739
  15 H :    0.025961
  16 S :    0.417322
  17 C :   -0.195735
  18 C :   -0.080979
  19 C :   -0.053981
  20 C :   -0.202814
  21 H :    0.040249
  22 C :   -0.030704
  23 H :    0.011475
  24 H :    0.032826
  25 C :   -0.028942
  26 H :    0.032953
  27 H :    0.025065
  28 C :   -0.074699
  29 H :    0.027466
  30 H :    0.029383
  31 H :    0.023943
  32 H :    0.016617
  33 H :    0.035745

  Mayer bond orders larger than 0.100000
B(  0-S ,  1-C ) :   1.1204 B(  0-S ,  4-C ) :   1.1509 B(  1-C ,  2-C ) :   1.6312
B(  1-C , 32-H ) :   0.9776 B(  2-C ,  3-C ) :   1.2096 B(  2-C ,  6-C ) :   1.0194
B(  3-C ,  4-C ) :   1.5883 B(  3-C ,  5-H ) :   1.0062 B(  4-C , 20-C ) :   1.0263
B(  6-C ,  7-H ) :   0.9451 B(  6-C ,  8-H ) :   0.9411 B(  6-C ,  9-C ) :   1.0619
B(  9-C , 10-H ) :   0.9585 B(  9-C , 11-H ) :   0.9570 B(  9-C , 12-C ) :   1.0714
B( 12-C , 13-H ) :   0.9675 B( 12-C , 14-H ) :   0.9680 B( 12-C , 15-H ) :   0.9712
B( 16-S , 17-C ) :   1.1688 B( 16-S , 20-C ) :   1.1321 B( 17-C , 18-C ) :   1.6026
B( 17-C , 33-H ) :   0.9559 B( 18-C , 19-C ) :   1.2736 B( 18-C , 21-H ) :   0.9817
B( 19-C , 20-C ) :   1.5758 B( 19-C , 22-C ) :   1.0441 B( 22-C , 23-H ) :   0.9224
B( 22-C , 24-H ) :   0.9298 B( 22-C , 25-C ) :   1.0560 B( 25-C , 26-H ) :   0.9541
B( 25-C , 27-H ) :   0.9577 B( 25-C , 28-C ) :   1.0703 B( 28-C , 29-H ) :   0.9746
B( 28-C , 30-H ) :   0.9747 B( 28-C , 31-H ) :   0.9757

Dispersion correction           -0.015871869
FINAL SINGLE POINT ENERGY     -1339.872598001858

DIPOLE MOMENT
-------------
                                X             Y             Z
Electronic contribution:    -22.87643     -17.93578      -8.45978
Nuclear contribution   :     23.28545      18.34835       8.80879
                        -----------------------------------------
Total Dipole Moment    :      0.40902       0.41257       0.34901
                        -----------------------------------------
Magnitude (a.u.)       :      0.67773
Magnitude (Debye)      :      1.72266

Rotational constants in cm-1:     0.017952     0.010571     0.007616
Rotational constants in MHz :   538.198926   316.925048   228.322071

                             ****ORCA TERMINATED NORMALLY****
TOTAL RUN TIME: 0 days 0 hours 0 minutes 23 seconds 136 msec
