                         Program Version 4.2.1 -  RELEASE  -
|  1> ! wB97X-D3 SP def2-SVP
|  2> %pal
|  3> nprocs 24
|  4> end
|  5>
|  6> * xyz 0 1
|  7> S 	 -97.5029 	 43.5728 	 -90.3288
|  8> C 	 -97.0685 	 42.1615 	 -89.463
|  9> C 	 -96.0981 	 41.403 	 -90.1145
| 10> C 	 -95.5528 	 41.9802 	 -91.2985
| 11> C 	 -96.308 	 43.1528 	 -91.572
| 12> H 	 -94.9269 	 41.5516 	 -92.0929
| 13> C 	 -95.6233 	 40.0692 	 -89.565
| 14> H 	 -96.3122 	 39.784 	 -88.7698
| 15> H 	 -94.6833 	 40.243 	 -89.0634
| 16> C 	 -95.5641 	 38.8436 	 -90.5361
| 17> H 	 -96.4666 	 38.6304 	 -91.0455
| 18> H 	 -94.7789 	 39.1325 	 -91.2244
| 19> C 	 -95.1017 	 37.614 	 -89.7874
| 20> H 	 -95.1011 	 36.8218 	 -90.4873
| 21> H 	 -94.0416 	 37.7478 	 -89.4998
| 22> H 	 -95.8007 	 37.3577 	 -88.9929
| 23> S 	 -95.5819 	 45.7895 	 -92.5872
| 24> C 	 -95.2961 	 45.9803 	 -94.2734
| 25> C 	 -95.7454 	 44.8358 	 -94.9527
| 26> C 	 -96.2366 	 43.7375 	 -94.0786
| 27> C 	 -96.0927 	 44.0182 	 -92.7462
| 28> H 	 -95.8418 	 44.787 	 -96.0416
| 29> C 	 -96.7442 	 42.4071 	 -94.7134
| 30> H 	 -96.0371 	 41.593 	 -94.383
| 31> H 	 -96.6673 	 42.5678 	 -95.7852
| 32> C 	 -98.1751 	 41.9558 	 -94.424
| 33> H 	 -98.3304 	 41.7211 	 -93.3611
| 34> H 	 -98.2116 	 40.9976 	 -95.0419
| 35> C 	 -99.1197 	 43.0328 	 -94.9665
| 36> H 	 -100.126 	 42.5663 	 -95.1306
| 37> H 	 -98.8087 	 43.6597 	 -95.7295
| 38> H 	 -99.2922 	 43.6542 	 -94.0998
| 39> H 	 -97.447 	 41.8278 	 -88.5869
| 40> H 	 -94.9678 	 46.8559 	 -94.7911
| 41> *
| 42>
| 43>                          ****END OF INPUT****

CARTESIAN COORDINATES (ANGSTROEM)
---------------------------------
  S    -97.502900   43.572800  -90.328800
  C    -97.068500   42.161500  -89.463000
  C    -96.098100   41.403000  -90.114500
  C    -95.552800   41.980200  -91.298500
  C    -96.308000   43.152800  -91.572000
  H    -94.926900   41.551600  -92.092900
  C    -95.623300   40.069200  -89.565000
  H    -96.312200   39.784000  -88.769800
  H    -94.683300   40.243000  -89.063400
  C    -95.564100   38.843600  -90.536100
  H    -96.466600   38.630400  -91.045500
  H    -94.778900   39.132500  -91.224400
  C    -95.101700   37.614000  -89.787400
  H    -95.101100   36.821800  -90.487300
  H    -94.041600   37.747800  -89.499800
  H    -95.800700   37.357700  -88.992900
  S    -95.581900   45.789500  -92.587200
  C    -95.296100   45.980300  -94.273400
  C    -95.745400   44.835800  -94.952700
  C    -96.236600   43.737500  -94.078600
  C    -96.092700   44.018200  -92.746200
  H    -95.841800   44.787000  -96.041600
  C    -96.744200   42.407100  -94.713400
  H    -96.037100   41.593000  -94.383000
  H    -96.667300   42.567800  -95.785200
  C    -98.175100   41.955800  -94.424000
  H    -98.330400   41.721100  -93.361100
  H    -98.211600   40.997600  -95.041900
  C    -99.119700   43.032800  -94.966500
  H    -100.126000   42.566300  -95.130600
  H    -98.808700   43.659700  -95.729500
  H    -99.292200   43.654200  -94.099800
  H    -97.447000   41.827800  -88.586900
  H    -94.967800   46.855900  -94.791100

 Total Charge           Charge          ....    0
 Multiplicity           Mult            ....    1
 Number of Electrons    NEL             ....  134
 Basis Dimension        Dim             ....  322

ORBITAL ENERGIES
----------------

  NO   OCC          E(Eh)            E(eV)
   0   2.0000     -88.974314     -2421.1142
   1   2.0000     -88.961458     -2420.7643
   2   2.0000     -10.337578      -281.2998
   3   2.0000     -10.330183      -281.0986
   4   2.0000     -10.319955      -280.8202
   5   2.0000     -10.307333      -280.4768
   6   2.0000     -10.304718      -280.4056
   7   2.0000     -10.303470      -280.3717
   8   2.0000     -10.301460      -280.3170
   9   2.0000     -10.299007      -280.2502
  10   2.0000     -10.296198      -280.1738
  11   2.0000     -10.289126      -279.9814
  12   2.0000     -10.288532      -279.9652
  13   2.0000     -10.284132      -279.8455
  14   2.0000     -10.276427      -279.6358
  15   2.0000     -10.269049      -279.4350
  16   2.0000      -8.088761      -220.1064
  17   2.0000      -8.075409      -219.7431
  18   2.0000      -6.047092      -164.5497
  19   2.0000      -6.043331      -164.4474
  20   2.0000      -6.039714      -164.3490
  21   2.0000      -6.034123      -164.1968
  22   2.0000      -6.030058      -164.0862
  23   2.0000      -6.025949      -163.9744
  24   2.0000      -1.000039       -27.2125
  25   2.0000      -0.976056       -26.5598
  26   2.0000      -0.911959       -24.8157
  27   2.0000      -0.907326       -24.6896
  28   2.0000      -0.868217       -23.6254
  29   2.0000      -0.857185       -23.3252
  30   2.0000      -0.837757       -22.7965
  31   2.0000      -0.810457       -22.0537
  32   2.0000      -0.780396       -21.2357
  33   2.0000      -0.770317       -20.9614
  34   2.0000      -0.711664       -19.3654
  35   2.0000      -0.697323       -18.9751
  36   2.0000      -0.685275       -18.6473
  37   2.0000      -0.658184       -17.9101
  38   2.0000      -0.645787       -17.5728
  39   2.0000      -0.612954       -16.6793
  40   2.0000      -0.584984       -15.9182
  41   2.0000      -0.578741       -15.7483
  42   2.0000      -0.561829       -15.2881
  43   2.0000      -0.554507       -15.0889
  44   2.0000      -0.539106       -14.6698
  45   2.0000      -0.523582       -14.2474
  46   2.0000      -0.520253       -14.1568
  47   2.0000      -0.511159       -13.9093
  48   2.0000      -0.507317       -13.8048
  49   2.0000      -0.498713       -13.5707
  50   2.0000      -0.489707       -13.3256
  51   2.0000      -0.478644       -13.0246
  52   2.0000      -0.471947       -12.8423
  53   2.0000      -0.468761       -12.7556
  54   2.0000      -0.460720       -12.5368
  55   2.0000      -0.450688       -12.2639
  56   2.0000      -0.442643       -12.0449
  57   2.0000      -0.437651       -11.9091
  58   2.0000      -0.426923       -11.6172
  59   2.0000      -0.425090       -11.5673
  60   2.0000      -0.421411       -11.4672
  61   2.0000      -0.413569       -11.2538
  62   2.0000      -0.400985       -10.9114
  63   2.0000      -0.344148        -9.3648
  64   2.0000      -0.332250        -9.0410
  65   2.0000      -0.321501        -8.7485
  66   2.0000      -0.295231        -8.0336
  67   0.0000       0.029434         0.8009
  68   0.0000       0.058050         1.5796
  69   0.0000       0.111415         3.0318
  70   0.0000       0.125472         3.4143
  71   0.0000       0.125853         3.4246

MULLIKEN ATOMIC CHARGES
-----------------------
   0 S :    0.135375
   1 C :   -0.054029
   2 C :   -0.097738
   3 C :    0.039351
   4 C :   -0.197013
   5 H :    0.042870
   6 C :    0.054033
   7 H :    0.001944
   8 H :    0.035686
   9 C :   -0.078674
  10 H :    0.029632
  11 H :    0.024682
  12 C :   -0.023866
  13 H :    0.019045
  14 H :    0.034243
  15 H :    0.036437
  16 S :    0.091582
  17 C :   -0.074470
  18 C :   -0.052456
  19 C :   -0.042325
  20 C :   -0.169010
  21 H :    0.025072
  22 C :    0.038233
  23 H :    0.040771
  24 H :    0.017286
  25 C :   -0.081798
  26 H :    0.051083
  27 H :    0.039001
  28 C :   -0.028740
  29 H :    0.036424
  30 H :    0.023460
  31 H :    0.031070
  32 H :   -0.005365
  33 H :    0.058206
Sum of atomic charges:   -0.0000000

LOEWDIN ATOMIC CHARGES
----------------------
   0 S :    0.423940
   1 C :   -0.200214
   2 C :   -0.058911
   3 C :   -0.055572
   4 C :   -0.180993
   5 H :    0.041792
   6 C :   -0.033762
   7 H :    0.022847
   8 H :    0.031677
   9 C :   -0.033935
  10 H :    0.019890
  11 H :    0.021282
  12 C :   -0.058225
  13 H :    0.020435
  14 H :    0.030598
  15 H :    0.025635
  16 S :    0.369861
  17 C :   -0.187875
  18 C :   -0.081841
  19 C :   -0.054648
  20 C :   -0.183779
  21 H :    0.027621
  22 C :   -0.033560
  23 H :    0.034068
  24 H :    0.026142
  25 C :   -0.041021
  26 H :    0.028295
  27 H :    0.029743
  28 C :   -0.065336
  29 H :    0.032580
  30 H :    0.014379
  31 H :    0.032021
  32 H :    0.005250
  33 H :    0.031614

  Mayer bond orders larger than 0.100000
B(  0-S ,  1-C ) :   1.1342 B(  0-S ,  4-C ) :   1.1700 B(  1-C ,  2-C ) :   1.6132
B(  1-C , 32-H ) :   0.9739 B(  2-C ,  3-C ) :   1.2387 B(  2-C ,  6-C ) :   1.0236
B(  3-C ,  4-C ) :   1.5574 B(  3-C ,  5-H ) :   0.9814 B(  4-C , 20-C ) :   1.0516
B(  6-C ,  7-H ) :   0.9424 B(  6-C ,  8-H ) :   0.9373 B(  6-C ,  9-C ) :   1.0585
B(  9-C , 10-H ) :   0.9607 B(  9-C , 11-H ) :   0.9518 B(  9-C , 12-C ) :   1.0993
B( 12-C , 13-H ) :   0.9715 B( 12-C , 14-H ) :   0.9726 B( 12-C , 15-H ) :   0.9745
B( 16-S , 17-C ) :   1.1566 B( 16-S , 20-C ) :   1.0958 B( 17-C , 18-C ) :   1.6177
B( 17-C , 33-H ) :   0.9691 B( 18-C , 19-C ) :   1.2245 B( 18-C , 21-H ) :   0.9785
B( 19-C , 20-C ) :   1.6333 B( 19-C , 22-C ) :   1.0191 B( 22-C , 23-H ) :   0.9357
B( 22-C , 24-H ) :   0.9409 B( 22-C , 25-C ) :   1.0748 B( 25-C , 26-H ) :   0.9572
B( 25-C , 27-H ) :   0.9574 B( 25-C , 28-C ) :   1.0579 B( 28-C , 29-H ) :   0.9735
B( 28-C , 30-H ) :   0.9820 B( 28-C , 31-H ) :   0.9692

Dispersion correction           -0.014825091
FINAL SINGLE POINT ENERGY     -1339.861952085688

DIPOLE MOMENT
-------------
                                X             Y             Z
Electronic contribution:      2.34860      26.24535       5.55981
Nuclear contribution   :     -2.38237     -26.90716      -5.81535
                        -----------------------------------------
Total Dipole Moment    :     -0.03377      -0.66181      -0.25553
                        -----------------------------------------
Magnitude (a.u.)       :      0.71023
Magnitude (Debye)      :      1.80527

Rotational constants in cm-1:     0.019892     0.008096     0.007142
Rotational constants in MHz :   596.351877   242.703984   214.116339

                             ****ORCA TERMINATED NORMALLY****
TOTAL RUN TIME: 0 days 0 hours 0 minutes 20 seconds 889 msec
