                         Program Version 4.2.1 -  RELEASE  -
|  1> ! wB97X-D3 SP def2-SVP
|  2> %pal
|  3> nprocs 24
|  4> end
|  5>
|  6> * xyz 0 1
|  7> S 	 29.5943 	 -31.8634 	 -133.378
|  8> C 	 30.4869 	 -30.7154 	 -134.364
|  9> C 	 30.4663 	 -29.4532 	 -133.818
| 10> C 	 29.6416 	 -29.4327 	 -132.655
| 11> C 	 29.2636 	 -30.6635 	 -132.162
| 12> H 	 29.3682 	 -28.571 	 -132.098
| 13> C 	 30.972 	 -28.2205 	 -134.461
| 14> H 	 30.1039 	 -27.5962 	 -134.63
| 15> H 	 31.3616 	 -28.3807 	 -135.519
| 16> C 	 31.8436 	 -27.374 	 -133.48
| 17> H 	 31.2536 	 -27.0922 	 -132.635
| 18> H 	 32.7844 	 -27.9452 	 -133.156
| 19> C 	 32.2715 	 -26.0437 	 -134.167
| 20> H 	 32.9865 	 -25.5273 	 -133.479
| 21> H 	 32.6217 	 -26.2906 	 -135.128
| 22> H 	 31.4039 	 -25.3881 	 -134.276
| 23> S 	 27.1818 	 -32.1418 	 -131.32
| 24> C 	 26.4602 	 -31.9637 	 -129.761
| 25> C 	 26.9537 	 -30.8476 	 -129.167
| 26> C 	 28.0212 	 -30.2096 	 -129.851
| 27> C 	 28.3011 	 -30.8435 	 -131.089
| 28> H 	 26.7209 	 -30.5629 	 -128.17
| 29> C 	 28.8072 	 -29.0186 	 -129.45
| 30> H 	 28.4448 	 -28.0847 	 -129.845
| 31> H 	 29.8142 	 -29.0014 	 -129.924
| 32> C 	 29.0146 	 -28.79 	 -127.966
| 33> H 	 29.3078 	 -29.6215 	 -127.351
| 34> H 	 28.0402 	 -28.4878 	 -127.544
| 35> C 	 30.0405 	 -27.6675 	 -127.787
| 36> H 	 30.3137 	 -27.5435 	 -126.748
| 37> H 	 29.6327 	 -26.72 	 -128.103
| 38> H 	 30.9393 	 -27.858 	 -128.295
| 39> H 	 31.0832 	 -30.9641 	 -135.25
| 40> H 	 25.7361 	 -32.577 	 -129.295
| 41> *
| 42>
| 43>                          ****END OF INPUT****

CARTESIAN COORDINATES (ANGSTROEM)
---------------------------------
  S     29.594300  -31.863400  -133.378000
  C     30.486900  -30.715400  -134.364000
  C     30.466300  -29.453200  -133.818000
  C     29.641600  -29.432700  -132.655000
  C     29.263600  -30.663500  -132.162000
  H     29.368200  -28.571000  -132.098000
  C     30.972000  -28.220500  -134.461000
  H     30.103900  -27.596200  -134.630000
  H     31.361600  -28.380700  -135.519000
  C     31.843600  -27.374000  -133.480000
  H     31.253600  -27.092200  -132.635000
  H     32.784400  -27.945200  -133.156000
  C     32.271500  -26.043700  -134.167000
  H     32.986500  -25.527300  -133.479000
  H     32.621700  -26.290600  -135.128000
  H     31.403900  -25.388100  -134.276000
  S     27.181800  -32.141800  -131.320000
  C     26.460200  -31.963700  -129.761000
  C     26.953700  -30.847600  -129.167000
  C     28.021200  -30.209600  -129.851000
  C     28.301100  -30.843500  -131.089000
  H     26.720900  -30.562900  -128.170000
  C     28.807200  -29.018600  -129.450000
  H     28.444800  -28.084700  -129.845000
  H     29.814200  -29.001400  -129.924000
  C     29.014600  -28.790000  -127.966000
  H     29.307800  -29.621500  -127.351000
  H     28.040200  -28.487800  -127.544000
  C     30.040500  -27.667500  -127.787000
  H     30.313700  -27.543500  -126.748000
  H     29.632700  -26.720000  -128.103000
  H     30.939300  -27.858000  -128.295000
  H     31.083200  -30.964100  -135.250000
  H     25.736100  -32.577000  -129.295000

 Total Charge           Charge          ....    0
 Multiplicity           Mult            ....    1
 Number of Electrons    NEL             ....  134
 Basis Dimension        Dim             ....  322

ORBITAL ENERGIES
----------------

  NO   OCC          E(Eh)            E(eV)
   0   2.0000     -88.966338     -2420.8971
   1   2.0000     -88.962216     -2420.7850
   2   2.0000     -10.329019      -281.0669
   3   2.0000     -10.326170      -280.9894
   4   2.0000     -10.315832      -280.7081
   5   2.0000     -10.310221      -280.5554
   6   2.0000     -10.301713      -280.3239
   7   2.0000     -10.299280      -280.2576
   8   2.0000     -10.298039      -280.2239
   9   2.0000     -10.294738      -280.1341
  10   2.0000     -10.290622      -280.0221
  11   2.0000     -10.288810      -279.9728
  12   2.0000     -10.288163      -279.9551
  13   2.0000     -10.283811      -279.8367
  14   2.0000     -10.280355      -279.7427
  15   2.0000     -10.271730      -279.5080
  16   2.0000      -8.081112      -219.8982
  17   2.0000      -8.077808      -219.8083
  18   2.0000      -6.039755      -164.3501
  19   2.0000      -6.036232      -164.2542
  20   2.0000      -6.035642      -164.2382
  21   2.0000      -6.032073      -164.1410
  22   2.0000      -6.031678      -164.1303
  23   2.0000      -6.028723      -164.0499
  24   2.0000      -1.012908       -27.5626
  25   2.0000      -0.989288       -26.9199
  26   2.0000      -0.917583       -24.9687
  27   2.0000      -0.914854       -24.8944
  28   2.0000      -0.874826       -23.8052
  29   2.0000      -0.855680       -23.2842
  30   2.0000      -0.845974       -23.0201
  31   2.0000      -0.818840       -22.2818
  32   2.0000      -0.781264       -21.2593
  33   2.0000      -0.772023       -21.0078
  34   2.0000      -0.712419       -19.3859
  35   2.0000      -0.707141       -19.2423
  36   2.0000      -0.694388       -18.8953
  37   2.0000      -0.657335       -17.8870
  38   2.0000      -0.640555       -17.4304
  39   2.0000      -0.625776       -17.0282
  40   2.0000      -0.608227       -16.5507
  41   2.0000      -0.571617       -15.5545
  42   2.0000      -0.569651       -15.5010
  43   2.0000      -0.564715       -15.3667
  44   2.0000      -0.532989       -14.5034
  45   2.0000      -0.527168       -14.3450
  46   2.0000      -0.518895       -14.1199
  47   2.0000      -0.509377       -13.8609
  48   2.0000      -0.507565       -13.8115
  49   2.0000      -0.504838       -13.7373
  50   2.0000      -0.492532       -13.4025
  51   2.0000      -0.487377       -13.2622
  52   2.0000      -0.473754       -12.8915
  53   2.0000      -0.467193       -12.7130
  54   2.0000      -0.458782       -12.4841
  55   2.0000      -0.449455       -12.2303
  56   2.0000      -0.444586       -12.0978
  57   2.0000      -0.443890       -12.0789
  58   2.0000      -0.438187       -11.9237
  59   2.0000      -0.427588       -11.6353
  60   2.0000      -0.424294       -11.5456
  61   2.0000      -0.418193       -11.3796
  62   2.0000      -0.406881       -11.0718
  63   2.0000      -0.359266        -9.7761
  64   2.0000      -0.330509        -8.9936
  65   2.0000      -0.326177        -8.8757
  66   2.0000      -0.284510        -7.7419
  67   0.0000       0.021422         0.5829
  68   0.0000       0.086650         2.3579
  69   0.0000       0.108084         2.9411
  70   0.0000       0.124264         3.3814
  71   0.0000       0.129408         3.5214

MULLIKEN ATOMIC CHARGES
-----------------------
   0 S :    0.097485
   1 C :   -0.134615
   2 C :   -0.026411
   3 C :   -0.014527
   4 C :   -0.088676
   5 H :   -0.001167
   6 C :    0.035548
   7 H :    0.029233
   8 H :    0.033157
   9 C :   -0.120709
  10 H :    0.030211
  11 H :    0.051059
  12 C :   -0.027514
  13 H :    0.045995
  14 H :    0.023741
  15 H :    0.026187
  16 S :    0.093628
  17 C :   -0.063402
  18 C :   -0.015917
  19 C :   -0.006607
  20 C :   -0.154321
  21 H :    0.002873
  22 C :    0.007652
  23 H :    0.029983
  24 H :    0.024763
  25 C :   -0.081164
  26 H :    0.030931
  27 H :    0.025427
  28 C :   -0.014414
  29 H :    0.023872
  30 H :    0.020153
  31 H :    0.020778
  32 H :    0.054417
  33 H :    0.042351
Sum of atomic charges:    0.0000000

LOEWDIN ATOMIC CHARGES
----------------------
   0 S :    0.401685
   1 C :   -0.193409
   2 C :   -0.066186
   3 C :   -0.054654
   4 C :   -0.196529
   5 H :    0.021198
   6 C :   -0.039989
   7 H :    0.034936
   8 H :    0.036259
   9 C :   -0.037807
  10 H :    0.018513
  11 H :    0.032145
  12 C :   -0.061668
  13 H :    0.032894
  14 H :    0.015994
  15 H :    0.023486
  16 S :    0.421455
  17 C :   -0.188267
  18 C :   -0.069279
  19 C :   -0.060791
  20 C :   -0.191885
  21 H :    0.025213
  22 C :   -0.042908
  23 H :    0.029321
  24 H :    0.034141
  25 C :   -0.039518
  26 H :    0.021387
  27 H :    0.022951
  28 C :   -0.055121
  29 H :    0.025744
  30 H :    0.022474
  31 H :    0.017888
  32 H :    0.033609
  33 H :    0.026720

  Mayer bond orders larger than 0.100000
B(  0-S ,  1-C ) :   1.1329 B(  0-S ,  4-C ) :   1.1410 B(  1-C ,  2-C ) :   1.6025
B(  1-C , 32-H ) :   0.9642 B(  2-C ,  3-C ) :   1.2317 B(  2-C ,  6-C ) :   1.0396
B(  3-C ,  4-C ) :   1.5517 B(  3-C ,  5-H ) :   0.9909 B(  4-C , 20-C ) :   1.0791
B(  6-C ,  7-H ) :   0.9340 B(  6-C ,  8-H ) :   0.9463 B(  6-C ,  9-C ) :   1.0468
B(  9-C , 10-H ) :   0.9548 B(  9-C , 11-H ) :   0.9607 B(  9-C , 12-C ) :   1.0809
B( 12-C , 13-H ) :   0.9749 B( 12-C , 14-H ) :   0.9762 B( 12-C , 15-H ) :   0.9749
B( 16-S , 17-C ) :   1.1574 B( 16-S , 20-C ) :   1.1561 B( 17-C , 18-C ) :   1.5780
B( 17-C , 33-H ) :   0.9735 B( 18-C , 19-C ) :   1.2856 B( 18-C , 21-H ) :   0.9886
B( 19-C , 20-C ) :   1.5390 B( 19-C , 22-C ) :   1.0490 B( 22-C , 23-H ) :   0.9215
B( 22-C , 24-H ) :   0.9344 B( 22-C , 25-C ) :   1.0586 B( 25-C , 26-H ) :   0.9640
B( 25-C , 27-H ) :   0.9444 B( 25-C , 28-C ) :   1.0919 B( 28-C , 29-H ) :   0.9716
B( 28-C , 30-H ) :   0.9725 B( 28-C , 31-H ) :   0.9751

Dispersion correction           -0.013407006
FINAL SINGLE POINT ENERGY     -1339.878721987725

DIPOLE MOMENT
-------------
                                X             Y             Z
Electronic contribution:    -14.54661     -28.60635      -7.72145
Nuclear contribution   :     14.72631      29.34646       7.87851
                        -----------------------------------------
Total Dipole Moment    :      0.17970       0.74011       0.15706
                        -----------------------------------------
Magnitude (a.u.)       :      0.77764
Magnitude (Debye)      :      1.97659

Rotational constants in cm-1:     0.016331     0.009514     0.006283
Rotational constants in MHz :   489.595483   285.218946   188.352348

                             ****ORCA TERMINATED NORMALLY****
TOTAL RUN TIME: 0 days 0 hours 0 minutes 21 seconds 393 msec
