                         Program Version 4.2.1 -  RELEASE  -
|  1> ! wB97X-D3 SP def2-SVP
|  2> %pal
|  3> nprocs 24
|  4> end
|  5>
|  6> * xyz 0 1
|  7> S 	 -104.803 	 61.8791 	 -98.8978
|  8> C 	 -105.782 	 60.5267 	 -99.5108
|  9> C 	 -105.145 	 59.9105 	 -100.62
| 10> C 	 -103.806 	 60.4391 	 -100.865
| 11> C 	 -103.481 	 61.5031 	 -100.007
| 12> H 	 -103.138 	 60.0548 	 -101.648
| 13> C 	 -105.753 	 58.6693 	 -101.281
| 14> H 	 -105.561 	 58.7365 	 -102.337
| 15> H 	 -106.841 	 58.8218 	 -101.287
| 16> C 	 -105.535 	 57.2944 	 -100.53
| 17> H 	 -105.843 	 57.3661 	 -99.5083
| 18> H 	 -106.14 	 56.5179 	 -100.949
| 19> C 	 -104.088 	 56.8507 	 -100.457
| 20> H 	 -103.588 	 57.09 	 -101.403
| 21> H 	 -103.554 	 57.4816 	 -99.7046
| 22> H 	 -104.019 	 55.8699 	 -100.04
| 23> S 	 -102.515 	 63.9335 	 -100.852
| 24> C 	 -100.812 	 64.1369 	 -101.064
| 25> C 	 -100.169 	 63.1438 	 -100.382
| 26> C 	 -101.023 	 62.1886 	 -99.7506
| 27> C 	 -102.316 	 62.3916 	 -100.107
| 28> H 	 -99.1142 	 63.153 	 -100.309
| 29> C 	 -100.551 	 61.0089 	 -98.9042
| 30> H 	 -101.325 	 60.6315 	 -98.2056
| 31> H 	 -99.6449 	 61.2632 	 -98.3144
| 32> C 	 -100.165 	 59.8449 	 -99.8225
| 33> H 	 -99.4339 	 60.1198 	 -100.499
| 34> H 	 -101.049 	 59.5245 	 -100.424
| 35> C 	 -99.6746 	 58.6141 	 -98.9944
| 36> H 	 -100.249 	 58.5033 	 -98.1135
| 37> H 	 -98.6124 	 58.6586 	 -98.7465
| 38> H 	 -99.6062 	 57.7532 	 -99.6125
| 39> H 	 -106.665 	 60.0923 	 -99.0051
| 40> H 	 -100.309 	 64.9647 	 -101.517
| 41> *
| 42>
| 43>                          ****END OF INPUT****

CARTESIAN COORDINATES (ANGSTROEM)
---------------------------------
  S    -104.803000   61.879100  -98.897800
  C    -105.782000   60.526700  -99.510800
  C    -105.145000   59.910500  -100.620000
  C    -103.806000   60.439100  -100.865000
  C    -103.481000   61.503100  -100.007000
  H    -103.138000   60.054800  -101.648000
  C    -105.753000   58.669300  -101.281000
  H    -105.561000   58.736500  -102.337000
  H    -106.841000   58.821800  -101.287000
  C    -105.535000   57.294400  -100.530000
  H    -105.843000   57.366100  -99.508300
  H    -106.140000   56.517900  -100.949000
  C    -104.088000   56.850700  -100.457000
  H    -103.588000   57.090000  -101.403000
  H    -103.554000   57.481600  -99.704600
  H    -104.019000   55.869900  -100.040000
  S    -102.515000   63.933500  -100.852000
  C    -100.812000   64.136900  -101.064000
  C    -100.169000   63.143800  -100.382000
  C    -101.023000   62.188600  -99.750600
  C    -102.316000   62.391600  -100.107000
  H    -99.114200   63.153000  -100.309000
  C    -100.551000   61.008900  -98.904200
  H    -101.325000   60.631500  -98.205600
  H    -99.644900   61.263200  -98.314400
  C    -100.165000   59.844900  -99.822500
  H    -99.433900   60.119800  -100.499000
  H    -101.049000   59.524500  -100.424000
  C    -99.674600   58.614100  -98.994400
  H    -100.249000   58.503300  -98.113500
  H    -98.612400   58.658600  -98.746500
  H    -99.606200   57.753200  -99.612500
  H    -106.665000   60.092300  -99.005100
  H    -100.309000   64.964700  -101.517000

 Total Charge           Charge          ....    0
 Multiplicity           Mult            ....    1
 Number of Electrons    NEL             ....  134
 Basis Dimension        Dim             ....  322

ORBITAL ENERGIES
----------------

  NO   OCC          E(Eh)            E(eV)
   0   2.0000     -88.969419     -2420.9810
   1   2.0000     -88.959937     -2420.7230
   2   2.0000     -10.335510      -281.2435
   3   2.0000     -10.322168      -280.8805
   4   2.0000     -10.318708      -280.7863
   5   2.0000     -10.312071      -280.6057
   6   2.0000     -10.310198      -280.5548
   7   2.0000     -10.305599      -280.4296
   8   2.0000     -10.298825      -280.2453
   9   2.0000     -10.295983      -280.1679
  10   2.0000     -10.294134      -280.1176
  11   2.0000     -10.287935      -279.9489
  12   2.0000     -10.285807      -279.8910
  13   2.0000     -10.280090      -279.7355
  14   2.0000     -10.274777      -279.5909
  15   2.0000     -10.269664      -279.4518
  16   2.0000      -8.083094      -219.9522
  17   2.0000      -8.075898      -219.7564
  18   2.0000      -6.041664      -164.4020
  19   2.0000      -6.037604      -164.2916
  20   2.0000      -6.034357      -164.2032
  21   2.0000      -6.033998      -164.1934
  22   2.0000      -6.030299      -164.0928
  23   2.0000      -6.026555      -163.9909
  24   2.0000      -1.009652       -27.4740
  25   2.0000      -0.978411       -26.6239
  26   2.0000      -0.907964       -24.7069
  27   2.0000      -0.906585       -24.6694
  28   2.0000      -0.866956       -23.5911
  29   2.0000      -0.847463       -23.0606
  30   2.0000      -0.843984       -22.9660
  31   2.0000      -0.815550       -22.1922
  32   2.0000      -0.781458       -21.2646
  33   2.0000      -0.770635       -20.9700
  34   2.0000      -0.702881       -19.1264
  35   2.0000      -0.702130       -19.1059
  36   2.0000      -0.695573       -18.9275
  37   2.0000      -0.662925       -18.0391
  38   2.0000      -0.636951       -17.3323
  39   2.0000      -0.614138       -16.7115
  40   2.0000      -0.600028       -16.3276
  41   2.0000      -0.570635       -15.5278
  42   2.0000      -0.563215       -15.3258
  43   2.0000      -0.553466       -15.0606
  44   2.0000      -0.538240       -14.6463
  45   2.0000      -0.529762       -14.4156
  46   2.0000      -0.518299       -14.1036
  47   2.0000      -0.513848       -13.9825
  48   2.0000      -0.507353       -13.8058
  49   2.0000      -0.493282       -13.4229
  50   2.0000      -0.487082       -13.2542
  51   2.0000      -0.476412       -12.9638
  52   2.0000      -0.470436       -12.8012
  53   2.0000      -0.464999       -12.6533
  54   2.0000      -0.458163       -12.4672
  55   2.0000      -0.444658       -12.0998
  56   2.0000      -0.442648       -12.0451
  57   2.0000      -0.439078       -11.9479
  58   2.0000      -0.433323       -11.7913
  59   2.0000      -0.426524       -11.6063
  60   2.0000      -0.420430       -11.4405
  61   2.0000      -0.414837       -11.2883
  62   2.0000      -0.411457       -11.1963
  63   2.0000      -0.338217        -9.2034
  64   2.0000      -0.327669        -8.9163
  65   2.0000      -0.323297        -8.7973
  66   2.0000      -0.303489        -8.2584
  67   0.0000       0.039307         1.0696
  68   0.0000       0.054294         1.4774
  69   0.0000       0.114318         3.1108
  70   0.0000       0.118751         3.2314
  71   0.0000       0.121592         3.3087

MULLIKEN ATOMIC CHARGES
-----------------------
   0 S :    0.113918
   1 C :   -0.127534
   2 C :   -0.124684
   3 C :    0.059373
   4 C :   -0.182780
   5 H :    0.034076
   6 C :    0.043602
   7 H :    0.026910
   8 H :    0.023357
   9 C :   -0.032910
  10 H :    0.015028
  11 H :    0.028321
  12 C :   -0.056525
  13 H :    0.031952
  14 H :    0.035173
  15 H :    0.033905
  16 S :    0.117040
  17 C :   -0.077225
  18 C :   -0.032614
  19 C :   -0.005403
  20 C :   -0.184292
  21 H :   -0.000491
  22 C :    0.066694
  23 H :    0.037069
  24 H :    0.028545
  25 C :   -0.083040
  26 H :    0.009424
  27 H :    0.025674
  28 C :   -0.005176
  29 H :    0.027352
  30 H :    0.017940
  31 H :    0.018370
  32 H :    0.068813
  33 H :    0.050139
Sum of atomic charges:    0.0000000

LOEWDIN ATOMIC CHARGES
----------------------
   0 S :    0.395102
   1 C :   -0.197421
   2 C :   -0.061168
   3 C :   -0.057941
   4 C :   -0.191619
   5 H :    0.036261
   6 C :   -0.037619
   7 H :    0.028634
   8 H :    0.034869
   9 C :   -0.033313
  10 H :    0.022014
  11 H :    0.020660
  12 C :   -0.068686
  13 H :    0.023750
  14 H :    0.029929
  15 H :    0.024459
  16 S :    0.421283
  17 C :   -0.186631
  18 C :   -0.069728
  19 C :   -0.053618
  20 C :   -0.214693
  21 H :    0.022668
  22 C :   -0.028999
  23 H :    0.034244
  24 H :    0.033550
  25 C :   -0.033002
  26 H :    0.011141
  27 H :    0.025006
  28 C :   -0.062690
  29 H :    0.019231
  30 H :    0.025597
  31 H :    0.023040
  32 H :    0.036175
  33 H :    0.029514

  Mayer bond orders larger than 0.100000
B(  0-S ,  1-C ) :   1.1381 B(  0-S ,  4-C ) :   1.1583 B(  1-C ,  2-C ) :   1.5991
B(  1-C ,  4-C ) :   0.1062 B(  1-C , 32-H ) :   0.9632 B(  2-C ,  3-C ) :   1.2416
B(  2-C ,  6-C ) :   1.0295 B(  3-C ,  4-C ) :   1.5750 B(  3-C ,  5-H ) :   0.9818
B(  4-C , 20-C ) :   0.9999 B(  6-C ,  7-H ) :   0.9439 B(  6-C ,  8-H ) :   0.9391
B(  6-C ,  9-C ) :   1.0590 B(  9-C , 10-H ) :   0.9541 B(  9-C , 11-H ) :   0.9578
B(  9-C , 12-C ) :   1.0826 B( 12-C , 13-H ) :   0.9775 B( 12-C , 14-H ) :   0.9732
B( 12-C , 15-H ) :   0.9708 B( 16-S , 17-C ) :   1.1528 B( 16-S , 20-C ) :   1.1519
B( 17-C , 18-C ) :   1.6083 B( 17-C , 33-H ) :   0.9731 B( 18-C , 19-C ) :   1.2372
B( 18-C , 21-H ) :   0.9962 B( 19-C , 20-C ) :   1.6116 B( 19-C , 22-C ) :   1.0528
B( 22-C , 23-H ) :   0.9293 B( 22-C , 24-H ) :   0.9352 B( 22-C , 25-C ) :   1.0709
B( 25-C , 26-H ) :   0.9561 B( 25-C , 27-H ) :   0.9522 B( 25-C , 28-C ) :   1.0837
B( 28-C , 29-H ) :   0.9754 B( 28-C , 30-H ) :   0.9711 B( 28-C , 31-H ) :   0.9707

Dispersion correction           -0.015320976
FINAL SINGLE POINT ENERGY     -1339.874404532165

DIPOLE MOMENT
-------------
                                X             Y             Z
Electronic contribution:     -7.73102      29.00553       0.03301
Nuclear contribution   :      7.99323     -29.61849      -0.10655
                        -----------------------------------------
Total Dipole Moment    :      0.26221      -0.61296      -0.07354
                        -----------------------------------------
Magnitude (a.u.)       :      0.67073
Magnitude (Debye)      :      1.70487

Rotational constants in cm-1:     0.017856     0.009868     0.007266
Rotational constants in MHz :   535.321757   295.829614   217.815519

                             ****ORCA TERMINATED NORMALLY****
TOTAL RUN TIME: 0 days 0 hours 0 minutes 21 seconds 188 msec
