                         Program Version 4.2.1 -  RELEASE  -
|  1> ! wB97X-D3 SP def2-SVP
|  2> %pal
|  3> nprocs 24
|  4> end
|  5>
|  6> * xyz 0 1
|  7> S 	 -55.124 	 17.648 	 23.5078
|  8> C 	 -56.5487 	 17.1819 	 24.4317
|  9> C 	 -56.3668 	 17.4467 	 25.7614
| 10> C 	 -55.1127 	 18.0929 	 26.0058
| 11> C 	 -54.2882 	 18.3196 	 24.9146
| 12> H 	 -54.8088 	 18.4344 	 27.0123
| 13> C 	 -57.2728 	 17.1315 	 26.8655
| 14> H 	 -56.7873 	 17.251 	 27.8121
| 15> H 	 -57.4615 	 16.1189 	 26.8249
| 16> C 	 -58.5523 	 17.954 	 26.9209
| 17> H 	 -59.1836 	 17.9624 	 25.9574
| 18> H 	 -59.1919 	 17.4935 	 27.7555
| 19> C 	 -58.2375 	 19.4047 	 27.2797
| 20> H 	 -57.5291 	 19.4698 	 28.1941
| 21> H 	 -57.7709 	 19.9518 	 26.4217
| 22> H 	 -59.0826 	 20.0619 	 27.5483
| 23> S 	 -51.8485 	 18.3495 	 23.5842
| 24> C 	 -50.548 	 19.2897 	 24.1477
| 25> C 	 -50.9202 	 20.0714 	 25.235
| 26> C 	 -52.3094 	 19.858 	 25.6337
| 27> C 	 -52.9138 	 18.8289 	 24.8606
| 28> H 	 -50.1916 	 20.7337 	 25.677
| 29> C 	 -52.9243 	 20.5603 	 26.7794
| 30> H 	 -52.8041 	 19.9597 	 27.6637
| 31> H 	 -54.0173 	 20.4931 	 26.6859
| 32> C 	 -52.6683 	 21.9948 	 27.1597
| 33> H 	 -51.6125 	 22.1479 	 27.5027
| 34> H 	 -53.3547 	 22.2762 	 27.9565
| 35> C 	 -53.0017 	 22.9181 	 25.9674
| 36> H 	 -52.4179 	 22.8136 	 25.0632
| 37> H 	 -52.9655 	 23.951 	 26.2326
| 38> H 	 -54.0767 	 22.7924 	 25.6863
| 39> H 	 -57.5262 	 16.7787 	 24.1235
| 40> H 	 -49.5436 	 19.3577 	 23.751
| 41> *
| 42>
| 43>                          ****END OF INPUT****

CARTESIAN COORDINATES (ANGSTROEM)
---------------------------------
  S    -55.124000   17.648000   23.507800
  C    -56.548700   17.181900   24.431700
  C    -56.366800   17.446700   25.761400
  C    -55.112700   18.092900   26.005800
  C    -54.288200   18.319600   24.914600
  H    -54.808800   18.434400   27.012300
  C    -57.272800   17.131500   26.865500
  H    -56.787300   17.251000   27.812100
  H    -57.461500   16.118900   26.824900
  C    -58.552300   17.954000   26.920900
  H    -59.183600   17.962400   25.957400
  H    -59.191900   17.493500   27.755500
  C    -58.237500   19.404700   27.279700
  H    -57.529100   19.469800   28.194100
  H    -57.770900   19.951800   26.421700
  H    -59.082600   20.061900   27.548300
  S    -51.848500   18.349500   23.584200
  C    -50.548000   19.289700   24.147700
  C    -50.920200   20.071400   25.235000
  C    -52.309400   19.858000   25.633700
  C    -52.913800   18.828900   24.860600
  H    -50.191600   20.733700   25.677000
  C    -52.924300   20.560300   26.779400
  H    -52.804100   19.959700   27.663700
  H    -54.017300   20.493100   26.685900
  C    -52.668300   21.994800   27.159700
  H    -51.612500   22.147900   27.502700
  H    -53.354700   22.276200   27.956500
  C    -53.001700   22.918100   25.967400
  H    -52.417900   22.813600   25.063200
  H    -52.965500   23.951000   26.232600
  H    -54.076700   22.792400   25.686300
  H    -57.526200   16.778700   24.123500
  H    -49.543600   19.357700   23.751000

 Total Charge           Charge          ....    0
 Multiplicity           Mult            ....    1
 Number of Electrons    NEL             ....  134
 Basis Dimension        Dim             ....  322

ORBITAL ENERGIES
----------------

  NO   OCC          E(Eh)            E(eV)
   0   2.0000     -88.969031     -2420.9704
   1   2.0000     -88.966682     -2420.9065
   2   2.0000     -10.334915      -281.2273
   3   2.0000     -10.332068      -281.1499
   4   2.0000     -10.315987      -280.7123
   5   2.0000     -10.314974      -280.6847
   6   2.0000     -10.310602      -280.5658
   7   2.0000     -10.301297      -280.3125
   8   2.0000     -10.296380      -280.1788
   9   2.0000     -10.294739      -280.1341
  10   2.0000     -10.294029      -280.1148
  11   2.0000     -10.292166      -280.0641
  12   2.0000     -10.287346      -279.9329
  13   2.0000     -10.285504      -279.8828
  14   2.0000     -10.281446      -279.7724
  15   2.0000     -10.272687      -279.5340
  16   2.0000      -8.084650      -219.9945
  17   2.0000      -8.080718      -219.8875
  18   2.0000      -6.043142      -164.4423
  19   2.0000      -6.039525      -164.3438
  20   2.0000      -6.038949      -164.3282
  21   2.0000      -6.035459      -164.2332
  22   2.0000      -6.035251      -164.2275
  23   2.0000      -6.031262      -164.1190
  24   2.0000      -1.007994       -27.4289
  25   2.0000      -0.987107       -26.8606
  26   2.0000      -0.920188       -25.0396
  27   2.0000      -0.916414       -24.9369
  28   2.0000      -0.869316       -23.6553
  29   2.0000      -0.850209       -23.1354
  30   2.0000      -0.840184       -22.8626
  31   2.0000      -0.815773       -22.1983
  32   2.0000      -0.786386       -21.3987
  33   2.0000      -0.776237       -21.1225
  34   2.0000      -0.710754       -19.3406
  35   2.0000      -0.701937       -19.1007
  36   2.0000      -0.692605       -18.8467
  37   2.0000      -0.654963       -17.8225
  38   2.0000      -0.631738       -17.1905
  39   2.0000      -0.620712       -16.8904
  40   2.0000      -0.598743       -16.2926
  41   2.0000      -0.581431       -15.8215
  42   2.0000      -0.559288       -15.2190
  43   2.0000      -0.555891       -15.1266
  44   2.0000      -0.547206       -14.8902
  45   2.0000      -0.535243       -14.5647
  46   2.0000      -0.514751       -14.0071
  47   2.0000      -0.510684       -13.8964
  48   2.0000      -0.502773       -13.6812
  49   2.0000      -0.495779       -13.4908
  50   2.0000      -0.495318       -13.4783
  51   2.0000      -0.476175       -12.9574
  52   2.0000      -0.469746       -12.7824
  53   2.0000      -0.462588       -12.5877
  54   2.0000      -0.457355       -12.4453
  55   2.0000      -0.449458       -12.2304
  56   2.0000      -0.442661       -12.0454
  57   2.0000      -0.436827       -11.8867
  58   2.0000      -0.432422       -11.7668
  59   2.0000      -0.428278       -11.6540
  60   2.0000      -0.418224       -11.3805
  61   2.0000      -0.417763       -11.3679
  62   2.0000      -0.410816       -11.1789
  63   2.0000      -0.359553        -9.7839
  64   2.0000      -0.330394        -8.9905
  65   2.0000      -0.326849        -8.8940
  66   2.0000      -0.284662        -7.7460
  67   0.0000       0.023267         0.6331
  68   0.0000       0.080125         2.1803
  69   0.0000       0.108701         2.9579
  70   0.0000       0.121069         3.2944
  71   0.0000       0.131719         3.5842

MULLIKEN ATOMIC CHARGES
-----------------------
   0 S :    0.098819
   1 C :   -0.114885
   2 C :   -0.107021
   3 C :   -0.005499
   4 C :   -0.123179
   5 H :    0.009066
   6 C :    0.132328
   7 H :    0.007334
   8 H :    0.014279
   9 C :   -0.102786
  10 H :    0.046519
  11 H :    0.042239
  12 C :   -0.101321
  13 H :    0.031131
  14 H :    0.052364
  15 H :    0.039024
  16 S :    0.121784
  17 C :   -0.089693
  18 C :   -0.038342
  19 C :   -0.039279
  20 C :   -0.126549
  21 H :    0.018709
  22 C :    0.021898
  23 H :    0.037823
  24 H :    0.018490
  25 C :   -0.042970
  26 H :    0.034954
  27 H :    0.032450
  28 C :   -0.065931
  29 H :    0.042762
  30 H :    0.021800
  31 H :    0.027574
  32 H :    0.048136
  33 H :    0.057972
Sum of atomic charges:   -0.0000000

LOEWDIN ATOMIC CHARGES
----------------------
   0 S :    0.391619
   1 C :   -0.198403
   2 C :   -0.066827
   3 C :   -0.071697
   4 C :   -0.182078
   5 H :    0.028639
   6 C :   -0.030593
   7 H :    0.030573
   8 H :    0.025796
   9 C :   -0.045784
  10 H :    0.031361
  11 H :    0.031342
  12 C :   -0.082971
  13 H :    0.028403
  14 H :    0.031711
  15 H :    0.026166
  16 S :    0.439333
  17 C :   -0.203866
  18 C :   -0.072149
  19 C :   -0.046766
  20 C :   -0.207723
  21 H :    0.030115
  22 C :   -0.050046
  23 H :    0.033210
  24 H :    0.033782
  25 C :   -0.036034
  26 H :    0.024016
  27 H :    0.031803
  28 C :   -0.069929
  29 H :    0.024838
  30 H :    0.019547
  31 H :    0.030475
  32 H :    0.037873
  33 H :    0.034263

  Mayer bond orders larger than 0.100000
B(  0-S ,  1-C ) :   1.1254 B(  0-S ,  4-C ) :   1.1349 B(  1-C ,  2-C ) :   1.6194
B(  1-C , 32-H ) :   0.9614 B(  2-C ,  3-C ) :   1.2534 B(  2-C ,  6-C ) :   1.0219
B(  3-C ,  4-C ) :   1.5552 B(  3-C ,  5-H ) :   0.9850 B(  4-C , 20-C ) :   1.0802
B(  6-C ,  7-H ) :   0.9359 B(  6-C ,  8-H ) :   0.9248 B(  6-C ,  9-C ) :   1.0724
B(  9-C , 10-H ) :   0.9571 B(  9-C , 11-H ) :   0.9544 B(  9-C , 12-C ) :   1.0643
B( 12-C , 13-H ) :   0.9730 B( 12-C , 14-H ) :   0.9727 B( 12-C , 15-H ) :   0.9749
B( 16-S , 17-C ) :   1.1748 B( 16-S , 20-C ) :   1.1449 B( 17-C , 18-C ) :   1.5905
B( 17-C , 33-H ) :   0.9671 B( 18-C , 19-C ) :   1.2496 B( 18-C , 21-H ) :   0.9924
B( 19-C , 20-C ) :   1.5410 B( 19-C , 22-C ) :   1.0587 B( 22-C , 23-H ) :   0.9218
B( 22-C , 24-H ) :   0.9172 B( 22-C , 25-C ) :   1.0891 B( 25-C , 26-H ) :   0.9481
B( 25-C , 27-H ) :   0.9495 B( 25-C , 28-C ) :   1.0784 B( 28-C , 29-H ) :   0.9765
B( 28-C , 30-H ) :   0.9753 B( 28-C , 31-H ) :   0.9724

Dispersion correction           -0.014584348
FINAL SINGLE POINT ENERGY     -1339.883199408790

DIPOLE MOMENT
-------------
                                X             Y             Z
Electronic contribution:     13.46293     -15.58175     -20.28510
Nuclear contribution   :    -13.62246      15.87702      20.95101
                        -----------------------------------------
Total Dipole Moment    :     -0.15953       0.29527       0.66591
                        -----------------------------------------
Magnitude (a.u.)       :      0.74570
Magnitude (Debye)      :      1.89542

Rotational constants in cm-1:     0.019045     0.009201     0.006750
Rotational constants in MHz :   570.957440   275.834581   202.345560

                             ****ORCA TERMINATED NORMALLY****
TOTAL RUN TIME: 0 days 0 hours 0 minutes 22 seconds 214 msec
