                         Program Version 4.2.1 -  RELEASE  -
|  1> ! wB97X-D3 SP def2-SVP
|  2> %pal
|  3> nprocs 24
|  4> end
|  5>
|  6> * xyz 0 1
|  7> S 	 -85.1532 	 2.78619 	 -114.089
|  8> C 	 -85.4806 	 1.71526 	 -112.81
|  9> C 	 -86.7077 	 1.0608 	 -112.879
| 10> C 	 -87.4547 	 1.59514 	 -113.944
| 11> C 	 -86.8296 	 2.61412 	 -114.607
| 12> H 	 -88.4422 	 1.19583 	 -114.355
| 13> C 	 -87.1807 	 -0.0557285 	 -111.994
| 14> H 	 -86.3987 	 -0.772915 	 -112.116
| 15> H 	 -88.111 	 -0.543968 	 -112.378
| 16> C 	 -87.4774 	 0.251877 	 -110.511
| 17> H 	 -87.3396 	 -0.672153 	 -109.87
| 18> H 	 -86.8017 	 0.97759 	 -110.151
| 19> C 	 -88.8915 	 0.816064 	 -110.31
| 20> H 	 -88.9619 	 1.68892 	 -110.988
| 21> H 	 -89.6755 	 0.0787575 	 -110.459
| 22> H 	 -89.0696 	 1.24048 	 -109.375
| 23> S 	 -86.2487 	 3.01648 	 -117.27
| 24> C 	 -87.2195 	 4.05604 	 -118.259
| 25> C 	 -88.1623 	 4.65369 	 -117.567
| 26> C 	 -88.2517 	 4.20115 	 -116.149
| 27> C 	 -87.2712 	 3.24649 	 -115.878
| 28> H 	 -88.8008 	 5.29546 	 -118.151
| 29> C 	 -89.2303 	 4.75187 	 -115.127
| 30> H 	 -89.1028 	 5.80874 	 -115.124
| 31> H 	 -88.8736 	 4.47782 	 -114.141
| 32> C 	 -90.5914 	 4.20787 	 -115.22
| 33> H 	 -91.1375 	 4.23097 	 -114.293
| 34> H 	 -90.4071 	 3.15629 	 -115.441
| 35> C 	 -91.4178 	 5.13127 	 -116.184
| 36> H 	 -92.4246 	 4.75442 	 -116.389
| 37> H 	 -90.99 	 5.24466 	 -117.125
| 38> H 	 -91.3942 	 6.17439 	 -115.758
| 39> H 	 -84.7657 	 1.54878 	 -112.039
| 40> H 	 -86.9277 	 4.39773 	 -119.229
| 41> *
| 42>
| 43>                          ****END OF INPUT****

CARTESIAN COORDINATES (ANGSTROEM)
---------------------------------
  S    -85.153200    2.786190  -114.089000
  C    -85.480600    1.715260  -112.810000
  C    -86.707700    1.060800  -112.879000
  C    -87.454700    1.595140  -113.944000
  C    -86.829600    2.614120  -114.607000
  H    -88.442200    1.195830  -114.355000
  C    -87.180700   -0.055728  -111.994000
  H    -86.398700   -0.772915  -112.116000
  H    -88.111000   -0.543968  -112.378000
  C    -87.477400    0.251877  -110.511000
  H    -87.339600   -0.672153  -109.870000
  H    -86.801700    0.977590  -110.151000
  C    -88.891500    0.816064  -110.310000
  H    -88.961900    1.688920  -110.988000
  H    -89.675500    0.078757  -110.459000
  H    -89.069600    1.240480  -109.375000
  S    -86.248700    3.016480  -117.270000
  C    -87.219500    4.056040  -118.259000
  C    -88.162300    4.653690  -117.567000
  C    -88.251700    4.201150  -116.149000
  C    -87.271200    3.246490  -115.878000
  H    -88.800800    5.295460  -118.151000
  C    -89.230300    4.751870  -115.127000
  H    -89.102800    5.808740  -115.124000
  H    -88.873600    4.477820  -114.141000
  C    -90.591400    4.207870  -115.220000
  H    -91.137500    4.230970  -114.293000
  H    -90.407100    3.156290  -115.441000
  C    -91.417800    5.131270  -116.184000
  H    -92.424600    4.754420  -116.389000
  H    -90.990000    5.244660  -117.125000
  H    -91.394200    6.174390  -115.758000
  H    -84.765700    1.548780  -112.039000
  H    -86.927700    4.397730  -119.229000

 Total Charge           Charge          ....    0
 Multiplicity           Mult            ....    1
 Number of Electrons    NEL             ....  134
 Basis Dimension        Dim             ....  322

ORBITAL ENERGIES
----------------

  NO   OCC          E(Eh)            E(eV)
   0   2.0000     -88.970256     -2421.0037
   1   2.0000     -88.956341     -2420.6251
   2   2.0000     -10.327517      -281.0260
   3   2.0000     -10.325829      -280.9801
   4   2.0000     -10.311221      -280.5826
   5   2.0000     -10.306516      -280.4546
   6   2.0000     -10.305329      -280.4223
   7   2.0000     -10.300789      -280.2987
   8   2.0000     -10.297799      -280.2174
   9   2.0000     -10.292897      -280.0840
  10   2.0000     -10.289170      -279.9826
  11   2.0000     -10.289070      -279.9798
  12   2.0000     -10.280162      -279.7374
  13   2.0000     -10.278311      -279.6870
  14   2.0000     -10.276369      -279.6342
  15   2.0000     -10.273600      -279.5589
  16   2.0000      -8.085652      -220.0218
  17   2.0000      -8.072223      -219.6564
  18   2.0000      -6.043906      -164.4630
  19   2.0000      -6.040235      -164.3632
  20   2.0000      -6.036464      -164.2605
  21   2.0000      -6.030829      -164.1072
  22   2.0000      -6.026564      -163.9912
  23   2.0000      -6.022810      -163.8890
  24   2.0000      -1.010919       -27.5085
  25   2.0000      -0.989340       -26.9213
  26   2.0000      -0.916316       -24.9342
  27   2.0000      -0.913034       -24.8449
  28   2.0000      -0.871672       -23.7194
  29   2.0000      -0.855938       -23.2913
  30   2.0000      -0.836917       -22.7737
  31   2.0000      -0.821482       -22.3537
  32   2.0000      -0.784390       -21.3443
  33   2.0000      -0.772598       -21.0235
  34   2.0000      -0.707639       -19.2558
  35   2.0000      -0.705438       -19.1960
  36   2.0000      -0.691722       -18.8227
  37   2.0000      -0.655241       -17.8300
  38   2.0000      -0.642587       -17.4857
  39   2.0000      -0.616116       -16.7654
  40   2.0000      -0.597572       -16.2608
  41   2.0000      -0.578976       -15.7547
  42   2.0000      -0.558823       -15.2063
  43   2.0000      -0.552399       -15.0316
  44   2.0000      -0.547636       -14.9019
  45   2.0000      -0.539667       -14.6851
  46   2.0000      -0.513442       -13.9715
  47   2.0000      -0.507174       -13.8009
  48   2.0000      -0.498284       -13.5590
  49   2.0000      -0.492742       -13.4082
  50   2.0000      -0.485218       -13.2034
  51   2.0000      -0.478228       -13.0132
  52   2.0000      -0.472326       -12.8526
  53   2.0000      -0.467085       -12.7100
  54   2.0000      -0.462872       -12.5954
  55   2.0000      -0.449423       -12.2294
  56   2.0000      -0.448981       -12.2174
  57   2.0000      -0.446245       -12.1429
  58   2.0000      -0.432055       -11.7568
  59   2.0000      -0.427872       -11.6430
  60   2.0000      -0.418487       -11.3876
  61   2.0000      -0.413145       -11.2423
  62   2.0000      -0.403587       -10.9822
  63   2.0000      -0.349752        -9.5172
  64   2.0000      -0.332760        -9.0549
  65   2.0000      -0.324894        -8.8408
  66   2.0000      -0.298612        -8.1256
  67   0.0000       0.037639         1.0242
  68   0.0000       0.064204         1.7471
  69   0.0000       0.111840         3.0433
  70   0.0000       0.126626         3.4457
  71   0.0000       0.137916         3.7529

MULLIKEN ATOMIC CHARGES
-----------------------
   0 S :    0.131912
   1 C :   -0.116166
   2 C :   -0.081763
   3 C :    0.004047
   4 C :   -0.158442
   5 H :    0.043524
   6 C :    0.068437
   7 H :    0.031060
   8 H :    0.025168
   9 C :   -0.060705
  10 H :    0.036623
  11 H :    0.016464
  12 C :   -0.041261
  13 H :    0.031582
  14 H :    0.033438
  15 H :    0.016478
  16 S :    0.081547
  17 C :   -0.072078
  18 C :   -0.029652
  19 C :   -0.069839
  20 C :   -0.161975
  21 H :    0.017817
  22 C :    0.088215
  23 H :    0.016126
  24 H :    0.010104
  25 C :   -0.030337
  26 H :    0.027416
  27 H :    0.026690
  28 C :   -0.037476
  29 H :    0.035029
  30 H :    0.003256
  31 H :    0.032534
  32 H :    0.035376
  33 H :    0.046849
Sum of atomic charges:    0.0000000

LOEWDIN ATOMIC CHARGES
----------------------
   0 S :    0.430118
   1 C :   -0.200812
   2 C :   -0.068410
   3 C :   -0.063686
   4 C :   -0.198294
   5 H :    0.046167
   6 C :   -0.033189
   7 H :    0.032241
   8 H :    0.035182
   9 C :   -0.036965
  10 H :    0.029588
  11 H :    0.016069
  12 C :   -0.063325
  13 H :    0.030986
  14 H :    0.023814
  15 H :    0.016849
  16 S :    0.392736
  17 C :   -0.183661
  18 C :   -0.075904
  19 C :   -0.048084
  20 C :   -0.200691
  21 H :    0.030639
  22 C :   -0.033876
  23 H :    0.025198
  24 H :    0.031233
  25 C :   -0.037345
  26 H :    0.023089
  27 H :    0.026836
  28 C :   -0.061713
  29 H :    0.024610
  30 H :    0.009831
  31 H :    0.033957
  32 H :    0.018402
  33 H :    0.028410

  Mayer bond orders larger than 0.100000
B(  0-S ,  1-C ) :   1.1707 B(  0-S ,  4-C ) :   1.1551 B(  1-C ,  2-C ) :   1.5788
B(  1-C , 32-H ) :   0.9697 B(  2-C ,  3-C ) :   1.2681 B(  2-C ,  6-C ) :   1.0134
B(  3-C ,  4-C ) :   1.5792 B(  3-C ,  5-H ) :   0.9798 B(  4-C , 20-C ) :   1.0107
B(  6-C ,  7-H ) :   0.9322 B(  6-C ,  8-H ) :   0.9478 B(  6-C ,  9-C ) :   1.0621
B(  9-C , 10-H ) :   0.9554 B(  9-C , 11-H ) :   0.9601 B(  9-C , 12-C ) :   1.0804
B( 12-C , 13-H ) :   0.9754 B( 12-C , 14-H ) :   0.9754 B( 12-C , 15-H ) :   0.9728
B( 16-S , 17-C ) :   1.1280 B( 16-S , 20-C ) :   1.1382 B( 17-C , 18-C ) :   1.6963
B( 17-C , 33-H ) :   0.9599 B( 18-C , 19-C ) :   1.1733 B( 18-C , 21-H ) :   0.9868
B( 19-C , 20-C ) :   1.6403 B( 19-C , 22-C ) :   1.0602 B( 22-C , 23-H ) :   0.9341
B( 22-C , 24-H ) :   0.9168 B( 22-C , 25-C ) :   1.0636 B( 25-C , 26-H ) :   0.9570
B( 25-C , 27-H ) :   0.9509 B( 25-C , 28-C ) :   1.0682 B( 28-C , 29-H ) :   0.9728
B( 28-C , 30-H ) :   0.9770 B( 28-C , 31-H ) :   0.9734

Dispersion correction           -0.014324728
FINAL SINGLE POINT ENERGY     -1339.865613624881

DIPOLE MOMENT
-------------
                                X             Y             Z
Electronic contribution:     23.18058       1.48330     -15.41605
Nuclear contribution   :    -23.50562      -1.51615      15.74449
                        -----------------------------------------
Total Dipole Moment    :     -0.32504      -0.03285       0.32844
                        -----------------------------------------
Magnitude (a.u.)       :      0.46325
Magnitude (Debye)      :      1.17749

Rotational constants in cm-1:     0.019102     0.008734     0.006457
Rotational constants in MHz :   572.660084   261.835127   193.577285

                             ****ORCA TERMINATED NORMALLY****
TOTAL RUN TIME: 0 days 0 hours 0 minutes 21 seconds 557 msec
