                         Program Version 4.2.1 -  RELEASE  -
|  1> ! wB97X-D3 SP def2-SVP
|  2> %pal
|  3> nprocs 24
|  4> end
|  5>
|  6> * xyz 0 1
|  7> S 	 -121.901 	 13.0423 	 -12.3296
|  8> C 	 -122.365 	 13.4413 	 -10.7202
|  9> C 	 -122.545 	 12.2609 	 -9.92559
| 10> C 	 -122.064 	 11.1513 	 -10.5631
| 11> C 	 -121.548 	 11.4082 	 -11.7913
| 12> H 	 -121.814 	 10.186 	 -10.0803
| 13> C 	 -122.981 	 12.361 	 -8.52118
| 14> H 	 -123.309 	 11.4747 	 -7.91474
| 15> H 	 -123.936 	 12.8575 	 -8.64881
| 16> C 	 -122.091 	 13.1287 	 -7.70129
| 17> H 	 -121.108 	 12.6692 	 -7.63422
| 18> H 	 -122.023 	 14.0916 	 -8.11478
| 19> C 	 -122.685 	 13.2229 	 -6.27044
| 20> H 	 -122.145 	 13.9703 	 -5.65494
| 21> H 	 -123.784 	 13.314 	 -6.303
| 22> H 	 -122.368 	 12.3042 	 -5.73221
| 23> S 	 -119.165 	 10.8214 	 -13.1568
| 24> C 	 -119.015 	 9.43313 	 -14.1507
| 25> C 	 -120.184 	 8.71146 	 -14.1663
| 26> C 	 -121.208 	 9.34595 	 -13.4288
| 27> C 	 -120.842 	 10.476 	 -12.6986
| 28> H 	 -120.27 	 7.859 	 -14.8571
| 29> C 	 -122.567 	 8.64521 	 -13.2544
| 30> H 	 -123.008 	 8.77027 	 -12.2556
| 31> H 	 -122.546 	 7.59235 	 -13.1908
| 32> C 	 -123.514 	 9.06456 	 -14.3741
| 33> H 	 -124.354 	 8.37814 	 -14.4726
| 34> H 	 -123.018 	 9.12581 	 -15.3385
| 35> C 	 -123.951 	 10.5755 	 -14.1155
| 36> H 	 -124.58 	 10.746 	 -13.2269
| 37> H 	 -124.466 	 10.9313 	 -15.0142
| 38> H 	 -123.131 	 11.2667 	 -13.999
| 39> H 	 -122.745 	 14.4118 	 -10.369
| 40> H 	 -118.133 	 9.06153 	 -14.6183
| 41> *
| 42>
| 43>                          ****END OF INPUT****

CARTESIAN COORDINATES (ANGSTROEM)
---------------------------------
  S    -121.901000   13.042300  -12.329600
  C    -122.365000   13.441300  -10.720200
  C    -122.545000   12.260900   -9.925590
  C    -122.064000   11.151300  -10.563100
  C    -121.548000   11.408200  -11.791300
  H    -121.814000   10.186000  -10.080300
  C    -122.981000   12.361000   -8.521180
  H    -123.309000   11.474700   -7.914740
  H    -123.936000   12.857500   -8.648810
  C    -122.091000   13.128700   -7.701290
  H    -121.108000   12.669200   -7.634220
  H    -122.023000   14.091600   -8.114780
  C    -122.685000   13.222900   -6.270440
  H    -122.145000   13.970300   -5.654940
  H    -123.784000   13.314000   -6.303000
  H    -122.368000   12.304200   -5.732210
  S    -119.165000   10.821400  -13.156800
  C    -119.015000    9.433130  -14.150700
  C    -120.184000    8.711460  -14.166300
  C    -121.208000    9.345950  -13.428800
  C    -120.842000   10.476000  -12.698600
  H    -120.270000    7.859000  -14.857100
  C    -122.567000    8.645210  -13.254400
  H    -123.008000    8.770270  -12.255600
  H    -122.546000    7.592350  -13.190800
  C    -123.514000    9.064560  -14.374100
  H    -124.354000    8.378140  -14.472600
  H    -123.018000    9.125810  -15.338500
  C    -123.951000   10.575500  -14.115500
  H    -124.580000   10.746000  -13.226900
  H    -124.466000   10.931300  -15.014200
  H    -123.131000   11.266700  -13.999000
  H    -122.745000   14.411800  -10.369000
  H    -118.133000    9.061530  -14.618300

 Total Charge           Charge          ....    0
 Multiplicity           Mult            ....    1
 Number of Electrons    NEL             ....  134
 Basis Dimension        Dim             ....  322

ORBITAL ENERGIES
----------------

  NO   OCC          E(Eh)            E(eV)
   0   2.0000     -88.972492     -2421.0646
   1   2.0000     -88.962436     -2420.7910
   2   2.0000     -10.328450      -281.0514
   3   2.0000     -10.328244      -281.0458
   4   2.0000     -10.316647      -280.7302
   5   2.0000     -10.313107      -280.6339
   6   2.0000     -10.304140      -280.3899
   7   2.0000     -10.298307      -280.2312
   8   2.0000     -10.291366      -280.0423
   9   2.0000     -10.290510      -280.0190
  10   2.0000     -10.283716      -279.8341
  11   2.0000     -10.283354      -279.8243
  12   2.0000     -10.282821      -279.8098
  13   2.0000     -10.282726      -279.8072
  14   2.0000     -10.275005      -279.5971
  15   2.0000     -10.267578      -279.3950
  16   2.0000      -8.086774      -220.0523
  17   2.0000      -8.077533      -219.8009
  18   2.0000      -6.044997      -164.4927
  19   2.0000      -6.041400      -164.3948
  20   2.0000      -6.037800      -164.2969
  21   2.0000      -6.035952      -164.2466
  22   2.0000      -6.031759      -164.1325
  23   2.0000      -6.028576      -164.0459
  24   2.0000      -1.011343       -27.5200
  25   2.0000      -0.991353       -26.9761
  26   2.0000      -0.931818       -25.3561
  27   2.0000      -0.902219       -24.5506
  28   2.0000      -0.866394       -23.5758
  29   2.0000      -0.858550       -23.3623
  30   2.0000      -0.836311       -22.7572
  31   2.0000      -0.815891       -22.2015
  32   2.0000      -0.780401       -21.2358
  33   2.0000      -0.766016       -20.8443
  34   2.0000      -0.705172       -19.1887
  35   2.0000      -0.700772       -19.0690
  36   2.0000      -0.693496       -18.8710
  37   2.0000      -0.655227       -17.8296
  38   2.0000      -0.646095       -17.5811
  39   2.0000      -0.624842       -17.0028
  40   2.0000      -0.603626       -16.4255
  41   2.0000      -0.585588       -15.9346
  42   2.0000      -0.568050       -15.4574
  43   2.0000      -0.544384       -14.8134
  44   2.0000      -0.534669       -14.5491
  45   2.0000      -0.525181       -14.2909
  46   2.0000      -0.521339       -14.1864
  47   2.0000      -0.509098       -13.8533
  48   2.0000      -0.502239       -13.6666
  49   2.0000      -0.495588       -13.4856
  50   2.0000      -0.486808       -13.2467
  51   2.0000      -0.480202       -13.0670
  52   2.0000      -0.462928       -12.5969
  53   2.0000      -0.460773       -12.5383
  54   2.0000      -0.456531       -12.4228
  55   2.0000      -0.450734       -12.2651
  56   2.0000      -0.444765       -12.1027
  57   2.0000      -0.438972       -11.9450
  58   2.0000      -0.433599       -11.7988
  59   2.0000      -0.427688       -11.6380
  60   2.0000      -0.412930       -11.2364
  61   2.0000      -0.408370       -11.1123
  62   2.0000      -0.400589       -10.9006
  63   2.0000      -0.347320        -9.4511
  64   2.0000      -0.329841        -8.9754
  65   2.0000      -0.327021        -8.8987
  66   2.0000      -0.296462        -8.0672
  67   0.0000       0.029956         0.8151
  68   0.0000       0.059193         1.6107
  69   0.0000       0.108050         2.9402
  70   0.0000       0.126683         3.4472
  71   0.0000       0.139709         3.8017

MULLIKEN ATOMIC CHARGES
-----------------------
   0 S :    0.142890
   1 C :   -0.133462
   2 C :   -0.069423
   3 C :    0.046939
   4 C :   -0.178986
   5 H :    0.030201
   6 C :    0.030815
   7 H :    0.021656
   8 H :    0.021493
   9 C :   -0.035868
  10 H :    0.031382
  11 H :    0.011260
  12 C :   -0.066627
  13 H :    0.035684
  14 H :    0.041072
  15 H :    0.030945
  16 S :    0.106578
  17 C :   -0.075186
  18 C :   -0.045138
  19 C :   -0.014697
  20 C :   -0.178217
  21 H :    0.031954
  22 C :    0.071849
  23 H :    0.015622
  24 H :    0.002327
  25 C :   -0.058220
  26 H :    0.029652
  27 H :    0.028151
  28 C :   -0.053297
  29 H :    0.033050
  30 H :    0.025156
  31 H :    0.015659
  32 H :    0.056395
  33 H :    0.048391
Sum of atomic charges:   -0.0000000

LOEWDIN ATOMIC CHARGES
----------------------
   0 S :    0.439437
   1 C :   -0.212840
   2 C :   -0.058539
   3 C :   -0.063153
   4 C :   -0.190269
   5 H :    0.043967
   6 C :   -0.048262
   7 H :    0.034267
   8 H :    0.032957
   9 C :   -0.035252
  10 H :    0.028403
  11 H :    0.014205
  12 C :   -0.069529
  13 H :    0.028784
  14 H :    0.026702
  15 H :    0.028290
  16 S :    0.414559
  17 C :   -0.188507
  18 C :   -0.080242
  19 C :   -0.050122
  20 C :   -0.204534
  21 H :    0.038123
  22 C :   -0.035963
  23 H :    0.030111
  24 H :    0.020975
  25 C :   -0.032283
  26 H :    0.021379
  27 H :    0.024323
  28 C :   -0.069729
  29 H :    0.024183
  30 H :    0.022362
  31 H :    0.009679
  32 H :    0.028576
  33 H :    0.027944

  Mayer bond orders larger than 0.100000
B(  0-S ,  1-C ) :   1.1650 B(  0-S ,  4-C ) :   1.1767 B(  1-C ,  2-C ) :   1.5383
B(  1-C ,  4-C ) :   0.1148 B(  1-C , 32-H ) :   0.9639 B(  2-C ,  3-C ) :   1.3016
B(  2-C ,  6-C ) :   1.0050 B(  3-C ,  4-C ) :   1.5630 B(  3-C ,  5-H ) :   0.9873
B(  4-C , 20-C ) :   1.0157 B(  6-C ,  7-H ) :   0.9521 B(  6-C ,  8-H ) :   0.9168
B(  6-C ,  9-C ) :   1.0916 B(  9-C , 10-H ) :   0.9522 B(  9-C , 11-H ) :   0.9464
B(  9-C , 12-C ) :   1.0793 B( 12-C , 13-H ) :   0.9722 B( 12-C , 14-H ) :   0.9737
B( 12-C , 15-H ) :   0.9727 B( 16-S , 17-C ) :   1.1820 B( 16-S , 20-C ) :   1.1392
B( 17-C , 18-C ) :   1.5876 B( 17-C , 20-C ) :   0.1020 B( 17-C , 33-H ) :   0.9670
B( 18-C , 19-C ) :   1.2701 B( 18-C , 21-H ) :   0.9852 B( 19-C , 20-C ) :   1.5777
B( 19-C , 22-C ) :   1.0257 B( 22-C , 23-H ) :   0.9464 B( 22-C , 24-H ) :   0.9414
B( 22-C , 25-C ) :   1.0624 B( 25-C , 26-H ) :   0.9574 B( 25-C , 27-H ) :   0.9600
B( 25-C , 28-C ) :   1.0666 B( 28-C , 29-H ) :   0.9782 B( 28-C , 30-H ) :   0.9746
B( 28-C , 31-H ) :   0.9715

Dispersion correction           -0.015194695
FINAL SINGLE POINT ENERGY     -1339.855781605452

DIPOLE MOMENT
-------------
                                X             Y             Z
Electronic contribution:     15.88389       2.25905     -14.00114
Nuclear contribution   :    -16.10837      -2.56528      14.31365
                        -----------------------------------------
Total Dipole Moment    :     -0.22448      -0.30624       0.31250
                        -----------------------------------------
Magnitude (a.u.)       :      0.49176
Magnitude (Debye)      :      1.24996

Rotational constants in cm-1:     0.023474     0.007764     0.007053
Rotational constants in MHz :   703.718976   232.771962   211.450801

                             ****ORCA TERMINATED NORMALLY****
TOTAL RUN TIME: 0 days 0 hours 0 minutes 22 seconds 302 msec
