                         Program Version 4.2.1 -  RELEASE  -
|  1> ! wB97X-D3 SP def2-SVP
|  2> %pal
|  3> nprocs 24
|  4> end
|  5>
|  6> * xyz 0 1
|  7> S 	 -108.636 	 67.2308 	 -2.35651
|  8> C 	 -108.033 	 67.9386 	 -3.82085
|  9> C 	 -107.859 	 66.9682 	 -4.76297
| 10> C 	 -108.471 	 65.7127 	 -4.34808
| 11> C 	 -109.022 	 65.7781 	 -3.09761
| 12> H 	 -108.562 	 64.7993 	 -4.90652
| 13> C 	 -107.049 	 67.0591 	 -6.01891
| 14> H 	 -106.609 	 68.0812 	 -6.06418
| 15> H 	 -107.736 	 67.0009 	 -6.91997
| 16> C 	 -105.878 	 66.0925 	 -6.16451
| 17> H 	 -105.122 	 66.2654 	 -5.44021
| 18> H 	 -106.175 	 65.0708 	 -5.85388
| 19> C 	 -105.278 	 66.1637 	 -7.54622
| 20> H 	 -104.888 	 67.1635 	 -7.72597
| 21> H 	 -104.426 	 65.5426 	 -7.6962
| 22> H 	 -106.12 	 65.7217 	 -8.14434
| 23> S 	 -109.625 	 64.4371 	 -0.764066
| 24> C 	 -111.178 	 63.4616 	 -0.69858
| 25> C 	 -111.888 	 63.5541 	 -1.89017
| 26> C 	 -111.139 	 64.2379 	 -2.93384
| 27> C 	 -109.943 	 64.8533 	 -2.47079
| 28> H 	 -112.845 	 63.0954 	 -2.1099
| 29> C 	 -111.878 	 64.4123 	 -4.25991
| 30> H 	 -112.549 	 63.5727 	 -4.33502
| 31> H 	 -111.099 	 64.3546 	 -4.99709
| 32> C 	 -112.572 	 65.7981 	 -4.31293
| 33> H 	 -112.968 	 66.1137 	 -3.38702
| 34> H 	 -113.43 	 65.6055 	 -4.9563
| 35> C 	 -111.747 	 66.9257 	 -4.95059
| 36> H 	 -112.269 	 67.7963 	 -5.3215
| 37> H 	 -111.259 	 66.4949 	 -5.82834
| 38> H 	 -110.97 	 67.4806 	 -4.39456
| 39> H 	 -107.442 	 68.8262 	 -3.94286
| 40> H 	 -111.514 	 62.9833 	 0.205478
| 41> *
| 42>
| 43>                          ****END OF INPUT****

CARTESIAN COORDINATES (ANGSTROEM)
---------------------------------
  S    -108.636000   67.230800   -2.356510
  C    -108.033000   67.938600   -3.820850
  C    -107.859000   66.968200   -4.762970
  C    -108.471000   65.712700   -4.348080
  C    -109.022000   65.778100   -3.097610
  H    -108.562000   64.799300   -4.906520
  C    -107.049000   67.059100   -6.018910
  H    -106.609000   68.081200   -6.064180
  H    -107.736000   67.000900   -6.919970
  C    -105.878000   66.092500   -6.164510
  H    -105.122000   66.265400   -5.440210
  H    -106.175000   65.070800   -5.853880
  C    -105.278000   66.163700   -7.546220
  H    -104.888000   67.163500   -7.725970
  H    -104.426000   65.542600   -7.696200
  H    -106.120000   65.721700   -8.144340
  S    -109.625000   64.437100   -0.764066
  C    -111.178000   63.461600   -0.698580
  C    -111.888000   63.554100   -1.890170
  C    -111.139000   64.237900   -2.933840
  C    -109.943000   64.853300   -2.470790
  H    -112.845000   63.095400   -2.109900
  C    -111.878000   64.412300   -4.259910
  H    -112.549000   63.572700   -4.335020
  H    -111.099000   64.354600   -4.997090
  C    -112.572000   65.798100   -4.312930
  H    -112.968000   66.113700   -3.387020
  H    -113.430000   65.605500   -4.956300
  C    -111.747000   66.925700   -4.950590
  H    -112.269000   67.796300   -5.321500
  H    -111.259000   66.494900   -5.828340
  H    -110.970000   67.480600   -4.394560
  H    -107.442000   68.826200   -3.942860
  H    -111.514000   62.983300    0.205478

 Total Charge           Charge          ....    0
 Multiplicity           Mult            ....    1
 Number of Electrons    NEL             ....  134
 Basis Dimension        Dim             ....  322

ORBITAL ENERGIES
----------------

  NO   OCC          E(Eh)            E(eV)
   0   2.0000     -88.966306     -2420.8963
   1   2.0000     -88.963271     -2420.8137
   2   2.0000     -10.332853      -281.1712
   3   2.0000     -10.327194      -281.0172
   4   2.0000     -10.322673      -280.8942
   5   2.0000     -10.308664      -280.5130
   6   2.0000     -10.308468      -280.5077
   7   2.0000     -10.301130      -280.3080
   8   2.0000     -10.300448      -280.2894
   9   2.0000     -10.297619      -280.2125
  10   2.0000     -10.292103      -280.0624
  11   2.0000     -10.289683      -279.9965
  12   2.0000     -10.284033      -279.8428
  13   2.0000     -10.283006      -279.8148
  14   2.0000     -10.279700      -279.7248
  15   2.0000     -10.270500      -279.4745
  16   2.0000      -8.079679      -219.8592
  17   2.0000      -8.079297      -219.8489
  18   2.0000      -6.038209      -164.3080
  19   2.0000      -6.038041      -164.3034
  20   2.0000      -6.034099      -164.1962
  21   2.0000      -6.033981      -164.1930
  22   2.0000      -6.030234      -164.0910
  23   2.0000      -6.029871      -164.0811
  24   2.0000      -1.013819       -27.5874
  25   2.0000      -0.974716       -26.5234
  26   2.0000      -0.918578       -24.9958
  27   2.0000      -0.904776       -24.6202
  28   2.0000      -0.874873       -23.8065
  29   2.0000      -0.848065       -23.0770
  30   2.0000      -0.841737       -22.9048
  31   2.0000      -0.815125       -22.1807
  32   2.0000      -0.780792       -21.2464
  33   2.0000      -0.770945       -20.9785
  34   2.0000      -0.711666       -19.3654
  35   2.0000      -0.700804       -19.0698
  36   2.0000      -0.692972       -18.8567
  37   2.0000      -0.665357       -18.1053
  38   2.0000      -0.643291       -17.5048
  39   2.0000      -0.619381       -16.8542
  40   2.0000      -0.593836       -16.1591
  41   2.0000      -0.576854       -15.6970
  42   2.0000      -0.564713       -15.3666
  43   2.0000      -0.553215       -15.0537
  44   2.0000      -0.537392       -14.6232
  45   2.0000      -0.524595       -14.2750
  46   2.0000      -0.520144       -14.1539
  47   2.0000      -0.509213       -13.8564
  48   2.0000      -0.503863       -13.7108
  49   2.0000      -0.499082       -13.5807
  50   2.0000      -0.494227       -13.4486
  51   2.0000      -0.473642       -12.8885
  52   2.0000      -0.469411       -12.7733
  53   2.0000      -0.467753       -12.7282
  54   2.0000      -0.453162       -12.3312
  55   2.0000      -0.447577       -12.1792
  56   2.0000      -0.443997       -12.0818
  57   2.0000      -0.435641       -11.8544
  58   2.0000      -0.430216       -11.7068
  59   2.0000      -0.427230       -11.6255
  60   2.0000      -0.422344       -11.4926
  61   2.0000      -0.412499       -11.2247
  62   2.0000      -0.403949       -10.9920
  63   2.0000      -0.349946        -9.5225
  64   2.0000      -0.329690        -8.9713
  65   2.0000      -0.325695        -8.8626
  66   2.0000      -0.290978        -7.9179
  67   0.0000       0.026971         0.7339
  68   0.0000       0.068388         1.8609
  69   0.0000       0.097805         2.6614
  70   0.0000       0.118895         3.2353
  71   0.0000       0.125794         3.4230

MULLIKEN ATOMIC CHARGES
-----------------------
   0 S :    0.116944
   1 C :   -0.103125
   2 C :   -0.095282
   3 C :    0.016577
   4 C :   -0.136325
   5 H :    0.008258
   6 C :    0.042875
   7 H :    0.012609
   8 H :    0.040697
   9 C :   -0.075639
  10 H :    0.013834
  11 H :    0.024002
  12 C :   -0.030199
  13 H :    0.035747
  14 H :    0.024895
  15 H :    0.042427
  16 S :    0.077929
  17 C :   -0.084583
  18 C :   -0.018503
  19 C :   -0.082186
  20 C :   -0.146052
  21 H :    0.025105
  22 C :    0.095831
  23 H :    0.019402
  24 H :    0.012363
  25 C :   -0.012276
  26 H :    0.023552
  27 H :    0.024070
  28 C :   -0.052900
  29 H :    0.021672
  30 H :    0.016054
  31 H :    0.041356
  32 H :    0.040589
  33 H :    0.060282
Sum of atomic charges:    0.0000000

LOEWDIN ATOMIC CHARGES
----------------------
   0 S :    0.440307
   1 C :   -0.210875
   2 C :   -0.058674
   3 C :   -0.067194
   4 C :   -0.216253
   5 H :    0.026584
   6 C :   -0.037335
   7 H :    0.029644
   8 H :    0.036613
   9 C :   -0.045358
  10 H :    0.018109
  11 H :    0.023218
  12 C :   -0.062623
  13 H :    0.028273
  14 H :    0.021685
  15 H :    0.036741
  16 S :    0.353851
  17 C :   -0.153365
  18 C :   -0.066540
  19 C :   -0.047410
  20 C :   -0.191452
  21 H :    0.033018
  22 C :   -0.022195
  23 H :    0.027923
  24 H :    0.026007
  25 C :   -0.028015
  26 H :    0.019749
  27 H :    0.027197
  28 C :   -0.073153
  29 H :    0.025160
  30 H :    0.022398
  31 H :    0.029636
  32 H :    0.028049
  33 H :    0.026281

  Mayer bond orders larger than 0.100000
B(  0-S ,  1-C ) :   1.1243 B(  0-S ,  4-C ) :   1.1659 B(  1-C ,  2-C ) :   1.6345
B(  1-C , 32-H ) :   0.9607 B(  2-C ,  3-C ) :   1.2043 B(  2-C ,  6-C ) :   1.0344
B(  3-C ,  4-C ) :   1.5810 B(  3-C ,  5-H ) :   1.0032 B(  4-C , 20-C ) :   1.0277
B(  6-C ,  7-H ) :   0.9373 B(  6-C ,  8-H ) :   0.9376 B(  6-C ,  9-C ) :   1.0545
B(  9-C , 10-H ) :   0.9484 B(  9-C , 11-H ) :   0.9562 B(  9-C , 12-C ) :   1.0816
B( 12-C , 13-H ) :   0.9727 B( 12-C , 14-H ) :   0.9722 B( 12-C , 15-H ) :   0.9770
B( 16-S , 17-C ) :   1.1284 B( 16-S , 20-C ) :   1.1212 B( 17-C , 18-C ) :   1.6210
B( 17-C , 20-C ) :   0.1033 B( 17-C , 33-H ) :   0.9703 B( 18-C , 19-C ) :   1.2320
B( 18-C , 21-H ) :   0.9814 B( 19-C , 20-C ) :   1.5987 B( 19-C , 22-C ) :   1.0422
B( 22-C , 23-H ) :   0.9348 B( 22-C , 24-H ) :   0.9332 B( 22-C , 25-C ) :   1.0574
B( 25-C , 26-H ) :   0.9584 B( 25-C , 27-H ) :   0.9535 B( 25-C , 28-C ) :   1.0751
B( 28-C , 29-H ) :   0.9715 B( 28-C , 30-H ) :   0.9734 B( 28-C , 31-H ) :   0.9713

Dispersion correction           -0.015730013
FINAL SINGLE POINT ENERGY     -1339.861936770389

DIPOLE MOMENT
-------------
                                X             Y             Z
Electronic contribution:     -2.00120      -3.16387      26.29239
Nuclear contribution   :      1.89367       3.02853     -26.87503
                        -----------------------------------------
Total Dipole Moment    :     -0.10753      -0.13534      -0.58264
                        -----------------------------------------
Magnitude (a.u.)       :      0.60774
Magnitude (Debye)      :      1.54475

Rotational constants in cm-1:     0.021605     0.008327     0.007478
Rotational constants in MHz :   647.702260   249.643868   224.191883

                             ****ORCA TERMINATED NORMALLY****
TOTAL RUN TIME: 0 days 0 hours 0 minutes 22 seconds 864 msec
