                         Program Version 4.2.1 -  RELEASE  -
|  1> ! wB97X-D3 SP def2-SVP
|  2> %pal
|  3> nprocs 24
|  4> end
|  5>
|  6> * xyz 0 1
|  7> S 	 -32.8179 	 -30.0782 	 -95.1723
|  8> C 	 -34.4301 	 -30.7479 	 -95.1587
|  9> C 	 -34.6478 	 -31.55 	 -94.0523
| 10> C 	 -33.5884 	 -31.4439 	 -93.0763
| 11> C 	 -32.5039 	 -30.6521 	 -93.5118
| 12> H 	 -33.6197 	 -31.7951 	 -92.0607
| 13> C 	 -36.0167 	 -32.1753 	 -93.8014
| 14> H 	 -36.3505 	 -32.5602 	 -94.7902
| 15> H 	 -36.6211 	 -31.3667 	 -93.5565
| 16> C 	 -36.1309 	 -33.2348 	 -92.6463
| 17> H 	 -35.8891 	 -32.7008 	 -91.6818
| 18> H 	 -37.155 	 -33.5056 	 -92.5674
| 19> C 	 -35.2693 	 -34.4824 	 -92.7819
| 20> H 	 -35.2197 	 -34.9295 	 -91.8065
| 21> H 	 -35.5949 	 -35.197 	 -93.5502
| 22> H 	 -34.2527 	 -34.216 	 -92.9714
| 23> S 	 -30.0309 	 -31.8258 	 -93.1312
| 24> C 	 -28.893 	 -30.9822 	 -92.0926
| 25> C 	 -29.3129 	 -29.6887 	 -91.8212
| 26> C 	 -30.6305 	 -29.3868 	 -92.283
| 27> C 	 -31.2267 	 -30.5218 	 -92.8551
| 28> H 	 -28.6978 	 -29.1588 	 -91.1467
| 29> C 	 -31.2688 	 -28.0238 	 -92.0231
| 30> H 	 -31.4262 	 -27.6155 	 -93.0669
| 31> H 	 -30.465 	 -27.392 	 -91.5513
| 32> C 	 -32.4621 	 -27.8303 	 -91.1123
| 33> H 	 -32.4147 	 -28.2502 	 -90.0599
| 34> H 	 -33.3777 	 -28.329 	 -91.5508
| 35> C 	 -32.7181 	 -26.3261 	 -90.9217
| 36> H 	 -32.6886 	 -25.8365 	 -91.8817
| 37> H 	 -31.9025 	 -25.9162 	 -90.4166
| 38> H 	 -33.6297 	 -26.1262 	 -90.3559
| 39> H 	 -35.2019 	 -30.7989 	 -95.9326
| 40> H 	 -27.9553 	 -31.355 	 -91.7359
| 41> *
| 42>
| 43>                          ****END OF INPUT****

CARTESIAN COORDINATES (ANGSTROEM)
---------------------------------
  S    -32.817900  -30.078200  -95.172300
  C    -34.430100  -30.747900  -95.158700
  C    -34.647800  -31.550000  -94.052300
  C    -33.588400  -31.443900  -93.076300
  C    -32.503900  -30.652100  -93.511800
  H    -33.619700  -31.795100  -92.060700
  C    -36.016700  -32.175300  -93.801400
  H    -36.350500  -32.560200  -94.790200
  H    -36.621100  -31.366700  -93.556500
  C    -36.130900  -33.234800  -92.646300
  H    -35.889100  -32.700800  -91.681800
  H    -37.155000  -33.505600  -92.567400
  C    -35.269300  -34.482400  -92.781900
  H    -35.219700  -34.929500  -91.806500
  H    -35.594900  -35.197000  -93.550200
  H    -34.252700  -34.216000  -92.971400
  S    -30.030900  -31.825800  -93.131200
  C    -28.893000  -30.982200  -92.092600
  C    -29.312900  -29.688700  -91.821200
  C    -30.630500  -29.386800  -92.283000
  C    -31.226700  -30.521800  -92.855100
  H    -28.697800  -29.158800  -91.146700
  C    -31.268800  -28.023800  -92.023100
  H    -31.426200  -27.615500  -93.066900
  H    -30.465000  -27.392000  -91.551300
  C    -32.462100  -27.830300  -91.112300
  H    -32.414700  -28.250200  -90.059900
  H    -33.377700  -28.329000  -91.550800
  C    -32.718100  -26.326100  -90.921700
  H    -32.688600  -25.836500  -91.881700
  H    -31.902500  -25.916200  -90.416600
  H    -33.629700  -26.126200  -90.355900
  H    -35.201900  -30.798900  -95.932600
  H    -27.955300  -31.355000  -91.735900

 Total Charge           Charge          ....    0
 Multiplicity           Mult            ....    1
 Number of Electrons    NEL             ....  134
 Basis Dimension        Dim             ....  322

ORBITAL ENERGIES
----------------

  NO   OCC          E(Eh)            E(eV)
   0   2.0000     -88.967658     -2420.9330
   1   2.0000     -88.965726     -2420.8805
   2   2.0000     -10.329487      -281.0796
   3   2.0000     -10.325939      -280.9831
   4   2.0000     -10.316414      -280.7239
   5   2.0000     -10.311534      -280.5911
   6   2.0000     -10.308573      -280.5105
   7   2.0000     -10.300897      -280.3016
   8   2.0000     -10.299398      -280.2609
   9   2.0000     -10.297225      -280.2017
  10   2.0000     -10.291365      -280.0423
  11   2.0000     -10.290745      -280.0254
  12   2.0000     -10.290609      -280.0217
  13   2.0000     -10.290057      -280.0067
  14   2.0000     -10.271786      -279.5095
  15   2.0000     -10.270041      -279.4620
  16   2.0000      -8.081366      -219.9052
  17   2.0000      -8.079694      -219.8596
  18   2.0000      -6.039925      -164.3547
  19   2.0000      -6.038221      -164.3083
  20   2.0000      -6.035975      -164.2472
  21   2.0000      -6.034355      -164.2032
  22   2.0000      -6.032168      -164.1436
  23   2.0000      -6.030422      -164.0961
  24   2.0000      -0.998318       -27.1656
  25   2.0000      -0.976868       -26.5819
  26   2.0000      -0.907556       -24.6959
  27   2.0000      -0.906496       -24.6670
  28   2.0000      -0.868492       -23.6329
  29   2.0000      -0.851007       -23.1571
  30   2.0000      -0.842542       -22.9267
  31   2.0000      -0.814108       -22.1530
  32   2.0000      -0.783317       -21.3151
  33   2.0000      -0.768873       -20.9221
  34   2.0000      -0.712610       -19.3911
  35   2.0000      -0.695399       -18.9228
  36   2.0000      -0.686435       -18.6788
  37   2.0000      -0.659530       -17.9467
  38   2.0000      -0.632782       -17.2189
  39   2.0000      -0.614959       -16.7339
  40   2.0000      -0.592167       -16.1137
  41   2.0000      -0.563968       -15.3463
  42   2.0000      -0.561270       -15.2729
  43   2.0000      -0.554899       -15.0996
  44   2.0000      -0.536444       -14.5974
  45   2.0000      -0.527386       -14.3509
  46   2.0000      -0.514777       -14.0078
  47   2.0000      -0.512868       -13.9559
  48   2.0000      -0.504518       -13.7286
  49   2.0000      -0.492393       -13.3987
  50   2.0000      -0.485287       -13.2053
  51   2.0000      -0.480705       -13.0806
  52   2.0000      -0.473590       -12.8870
  53   2.0000      -0.464786       -12.6475
  54   2.0000      -0.453507       -12.3406
  55   2.0000      -0.446361       -12.1461
  56   2.0000      -0.442163       -12.0319
  57   2.0000      -0.440381       -11.9834
  58   2.0000      -0.438439       -11.9305
  59   2.0000      -0.421216       -11.4619
  60   2.0000      -0.418809       -11.3964
  61   2.0000      -0.416099       -11.3226
  62   2.0000      -0.407290       -11.0829
  63   2.0000      -0.334505        -9.1024
  64   2.0000      -0.327935        -8.9236
  65   2.0000      -0.316652        -8.6165
  66   2.0000      -0.306258        -8.3337
  67   0.0000       0.032057         0.8723
  68   0.0000       0.050541         1.3753
  69   0.0000       0.107899         2.9361
  70   0.0000       0.123037         3.3480
  71   0.0000       0.125746         3.4217

MULLIKEN ATOMIC CHARGES
-----------------------
   0 S :    0.122937
   1 C :   -0.111846
   2 C :   -0.111350
   3 C :    0.034827
   4 C :   -0.174757
   5 H :    0.014533
   6 C :    0.060606
   7 H :    0.028129
   8 H :    0.034275
   9 C :   -0.088111
  10 H :    0.031928
  11 H :    0.024222
  12 C :   -0.025749
  13 H :    0.027373
  14 H :    0.041721
  15 H :    0.024639
  16 S :    0.116814
  17 C :   -0.084598
  18 C :   -0.030875
  19 C :    0.004668
  20 C :   -0.187448
  21 H :    0.006349
  22 C :    0.027365
  23 H :    0.051503
  24 H :    0.020345
  25 C :   -0.084651
  26 H :    0.038782
  27 H :    0.043230
  28 C :   -0.017840
  29 H :    0.020665
  30 H :    0.010330
  31 H :    0.040222
  32 H :    0.045246
  33 H :    0.046516
Sum of atomic charges:    0.0000000

LOEWDIN ATOMIC CHARGES
----------------------
   0 S :    0.398605
   1 C :   -0.207361
   2 C :   -0.065649
   3 C :   -0.056151
   4 C :   -0.196482
   5 H :    0.029872
   6 C :   -0.030192
   7 H :    0.031897
   8 H :    0.027742
   9 C :   -0.040401
  10 H :    0.029049
  11 H :    0.021446
  12 C :   -0.064991
  13 H :    0.027759
  14 H :    0.029414
  15 H :    0.022230
  16 S :    0.393300
  17 C :   -0.174095
  18 C :   -0.070995
  19 C :   -0.045457
  20 C :   -0.199827
  21 H :    0.024665
  22 C :   -0.041094
  23 H :    0.044509
  24 H :    0.034316
  25 C :   -0.048412
  26 H :    0.030972
  27 H :    0.028399
  28 C :   -0.058794
  29 H :    0.023370
  30 H :    0.014633
  31 H :    0.029235
  32 H :    0.033079
  33 H :    0.025410

  Mayer bond orders larger than 0.100000
B(  0-S ,  1-C ) :   1.1374 B(  0-S ,  4-C ) :   1.1348 B(  1-C ,  2-C ) :   1.6285
B(  1-C ,  4-C ) :   0.1008 B(  1-C , 32-H ) :   0.9623 B(  2-C ,  3-C ) :   1.2368
B(  2-C ,  6-C ) :   1.0015 B(  3-C ,  4-C ) :   1.5674 B(  3-C ,  5-H ) :   0.9909
B(  4-C , 20-C ) :   1.0763 B(  6-C ,  7-H ) :   0.9395 B(  6-C ,  8-H ) :   0.9436
B(  6-C ,  9-C ) :   1.0835 B(  9-C , 10-H ) :   0.9499 B(  9-C , 11-H ) :   0.9540
B(  9-C , 12-C ) :   1.0815 B( 12-C , 13-H ) :   0.9713 B( 12-C , 14-H ) :   0.9747
B( 12-C , 15-H ) :   0.9730 B( 16-S , 17-C ) :   1.1539 B( 16-S , 20-C ) :   1.1335
B( 17-C , 18-C ) :   1.6270 B( 17-C , 20-C ) :   0.1002 B( 17-C , 33-H ) :   0.9662
B( 18-C , 19-C ) :   1.2361 B( 18-C , 21-H ) :   0.9921 B( 19-C , 20-C ) :   1.5777
B( 19-C , 22-C ) :   1.0310 B( 22-C , 23-H ) :   0.9190 B( 22-C , 24-H ) :   0.9433
B( 22-C , 25-C ) :   1.0680 B( 25-C , 26-H ) :   0.9570 B( 25-C , 27-H ) :   0.9502
B( 25-C , 28-C ) :   1.0765 B( 28-C , 29-H ) :   0.9721 B( 28-C , 30-H ) :   0.9738
B( 28-C , 31-H ) :   0.9728

Dispersion correction           -0.014323328
FINAL SINGLE POINT ENERGY     -1339.870953893497

DIPOLE MOMENT
-------------
                                X             Y             Z
Electronic contribution:     16.28330      -3.59868     -13.05043
Nuclear contribution   :    -16.58796       3.70917      13.50371
                        -----------------------------------------
Total Dipole Moment    :     -0.30466       0.11049       0.45327
                        -----------------------------------------
Magnitude (a.u.)       :      0.55721
Magnitude (Debye)      :      1.41631

Rotational constants in cm-1:     0.016877     0.008810     0.007420
Rotational constants in MHz :   505.945771   264.124149   222.437003

                             ****ORCA TERMINATED NORMALLY****
TOTAL RUN TIME: 0 days 0 hours 0 minutes 20 seconds 256 msec
