                         Program Version 4.2.1 -  RELEASE  -
|  1> ! wB97X-D3 SP def2-SVP
|  2> %pal
|  3> nprocs 24
|  4> end
|  5>
|  6> * xyz 0 1
|  7> S 	 -116.599 	 30.4608 	 -18.3023
|  8> C 	 -117.57 	 29.2078 	 -17.5302
|  9> C 	 -118.306 	 29.6764 	 -16.4416
| 10> C 	 -118.002 	 31.0431 	 -16.2322
| 11> C 	 -117.284 	 31.694 	 -17.184
| 12> H 	 -118.474 	 31.6331 	 -15.4375
| 13> C 	 -119.112 	 28.8189 	 -15.5761
| 14> H 	 -118.876 	 29.0046 	 -14.5888
| 15> H 	 -118.812 	 27.7792 	 -15.79
| 16> C 	 -120.628 	 29.0734 	 -15.8518
| 17> H 	 -120.869 	 30.1825 	 -15.7235
| 18> H 	 -120.828 	 28.9535 	 -16.9793
| 19> C 	 -121.569 	 28.1453 	 -15.0811
| 20> H 	 -122.649 	 28.4665 	 -15.209
| 21> H 	 -121.388 	 27.1415 	 -15.3234
| 22> H 	 -121.41 	 28.1195 	 -13.9625
| 23> S 	 -115.102 	 33.3968 	 -17.6129
| 24> C 	 -115.395 	 35.1158 	 -17.6517
| 25> C 	 -116.67 	 35.4354 	 -17.1785
| 26> C 	 -117.477 	 34.2731 	 -16.8959
| 27> C 	 -116.837 	 33.1086 	 -17.2228
| 28> H 	 -117.002 	 36.456 	 -17.2935
| 29> C 	 -118.96 	 34.339 	 -16.5799
| 30> H 	 -119.218 	 35.3879 	 -16.1875
| 31> H 	 -119.296 	 33.6611 	 -15.7993
| 32> C 	 -119.88 	 34.1185 	 -17.845
| 33> H 	 -120.981 	 34.2149 	 -17.5242
| 34> H 	 -119.716 	 33.0796 	 -18.1735
| 35> C 	 -119.733 	 35.2026 	 -18.9088
| 36> H 	 -118.825 	 35.1471 	 -19.4525
| 37> H 	 -119.858 	 36.1461 	 -18.3431
| 38> H 	 -120.527 	 35.0379 	 -19.6835
| 39> H 	 -117.548 	 28.1292 	 -17.8209
| 40> H 	 -114.799 	 35.8156 	 -18.145
| 41> *
| 42>
| 43>                          ****END OF INPUT****

CARTESIAN COORDINATES (ANGSTROEM)
---------------------------------
  S    -116.599000   30.460800  -18.302300
  C    -117.570000   29.207800  -17.530200
  C    -118.306000   29.676400  -16.441600
  C    -118.002000   31.043100  -16.232200
  C    -117.284000   31.694000  -17.184000
  H    -118.474000   31.633100  -15.437500
  C    -119.112000   28.818900  -15.576100
  H    -118.876000   29.004600  -14.588800
  H    -118.812000   27.779200  -15.790000
  C    -120.628000   29.073400  -15.851800
  H    -120.869000   30.182500  -15.723500
  H    -120.828000   28.953500  -16.979300
  C    -121.569000   28.145300  -15.081100
  H    -122.649000   28.466500  -15.209000
  H    -121.388000   27.141500  -15.323400
  H    -121.410000   28.119500  -13.962500
  S    -115.102000   33.396800  -17.612900
  C    -115.395000   35.115800  -17.651700
  C    -116.670000   35.435400  -17.178500
  C    -117.477000   34.273100  -16.895900
  C    -116.837000   33.108600  -17.222800
  H    -117.002000   36.456000  -17.293500
  C    -118.960000   34.339000  -16.579900
  H    -119.218000   35.387900  -16.187500
  H    -119.296000   33.661100  -15.799300
  C    -119.880000   34.118500  -17.845000
  H    -120.981000   34.214900  -17.524200
  H    -119.716000   33.079600  -18.173500
  C    -119.733000   35.202600  -18.908800
  H    -118.825000   35.147100  -19.452500
  H    -119.858000   36.146100  -18.343100
  H    -120.527000   35.037900  -19.683500
  H    -117.548000   28.129200  -17.820900
  H    -114.799000   35.815600  -18.145000

 Total Charge           Charge          ....    0
 Multiplicity           Mult            ....    1
 Number of Electrons    NEL             ....  134
 Basis Dimension        Dim             ....  322

ORBITAL ENERGIES
----------------

  NO   OCC          E(Eh)            E(eV)
   0   2.0000     -88.967260     -2420.9222
   1   2.0000     -88.965484     -2420.8739
   2   2.0000     -10.333717      -281.1947
   3   2.0000     -10.331918      -281.1458
   4   2.0000     -10.320054      -280.8230
   5   2.0000     -10.314456      -280.6706
   6   2.0000     -10.306667      -280.4587
   7   2.0000     -10.301924      -280.3296
   8   2.0000     -10.300356      -280.2869
   9   2.0000     -10.299164      -280.2545
  10   2.0000     -10.297855      -280.2189
  11   2.0000     -10.294155      -280.1182
  12   2.0000     -10.292169      -280.0641
  13   2.0000     -10.290239      -280.0116
  14   2.0000     -10.285071      -279.8710
  15   2.0000     -10.277013      -279.6517
  16   2.0000      -8.080954      -219.8939
  17   2.0000      -8.079617      -219.8576
  18   2.0000      -6.039605      -164.3460
  19   2.0000      -6.038189      -164.3075
  20   2.0000      -6.035656      -164.2386
  21   2.0000      -6.034326      -164.2024
  22   2.0000      -6.031585      -164.1278
  23   2.0000      -6.030223      -164.0907
  24   2.0000      -1.002922       -27.2909
  25   2.0000      -0.982377       -26.7318
  26   2.0000      -0.914791       -24.8927
  27   2.0000      -0.903594       -24.5880
  28   2.0000      -0.865169       -23.5425
  29   2.0000      -0.850889       -23.1539
  30   2.0000      -0.842922       -22.9371
  31   2.0000      -0.817591       -22.2478
  32   2.0000      -0.782842       -21.3022
  33   2.0000      -0.771056       -20.9815
  34   2.0000      -0.707169       -19.2431
  35   2.0000      -0.698227       -18.9997
  36   2.0000      -0.682932       -18.5835
  37   2.0000      -0.663970       -18.0675
  38   2.0000      -0.641456       -17.4549
  39   2.0000      -0.621867       -16.9219
  40   2.0000      -0.591239       -16.0884
  41   2.0000      -0.571783       -15.5590
  42   2.0000      -0.560304       -15.2466
  43   2.0000      -0.553459       -15.0604
  44   2.0000      -0.539446       -14.6791
  45   2.0000      -0.528108       -14.3706
  46   2.0000      -0.521914       -14.2020
  47   2.0000      -0.504126       -13.7180
  48   2.0000      -0.500758       -13.6263
  49   2.0000      -0.497340       -13.5333
  50   2.0000      -0.489733       -13.3263
  51   2.0000      -0.480293       -13.0694
  52   2.0000      -0.467789       -12.7292
  53   2.0000      -0.465834       -12.6760
  54   2.0000      -0.458711       -12.4822
  55   2.0000      -0.451101       -12.2751
  56   2.0000      -0.440638       -11.9904
  57   2.0000      -0.436248       -11.8709
  58   2.0000      -0.431073       -11.7301
  59   2.0000      -0.425545       -11.5797
  60   2.0000      -0.418827       -11.3969
  61   2.0000      -0.414967       -11.2918
  62   2.0000      -0.413638       -11.2557
  63   2.0000      -0.350142        -9.5279
  64   2.0000      -0.332091        -9.0367
  65   2.0000      -0.330596        -8.9960
  66   2.0000      -0.289941        -7.8897
  67   0.0000       0.019788         0.5385
  68   0.0000       0.072306         1.9675
  69   0.0000       0.098030         2.6675
  70   0.0000       0.117492         3.1971
  71   0.0000       0.130016         3.5379

MULLIKEN ATOMIC CHARGES
-----------------------
   0 S :    0.095705
   1 C :   -0.135499
   2 C :   -0.108842
   3 C :    0.028722
   4 C :   -0.139231
   5 H :    0.011529
   6 C :    0.130178
   7 H :    0.011560
   8 H :    0.017643
   9 C :   -0.139860
  10 H :    0.038703
  11 H :    0.041370
  12 C :   -0.027486
  13 H :    0.050800
  14 H :    0.021373
  15 H :    0.027299
  16 S :    0.096481
  17 C :   -0.076553
  18 C :   -0.039487
  19 C :   -0.010003
  20 C :   -0.142777
  21 H :    0.022898
  22 C :    0.020757
  23 H :    0.026439
  24 H :    0.031393
  25 C :   -0.111381
  26 H :    0.037204
  27 H :    0.047112
  28 C :   -0.042219
  29 H :    0.039596
  30 H :    0.029812
  31 H :    0.040927
  32 H :    0.063802
  33 H :    0.042037
Sum of atomic charges:    0.0000000

LOEWDIN ATOMIC CHARGES
----------------------
   0 S :    0.376291
   1 C :   -0.193181
   2 C :   -0.065637
   3 C :   -0.060867
   4 C :   -0.179574
   5 H :    0.031062
   6 C :   -0.025057
   7 H :    0.022555
   8 H :    0.033847
   9 C :   -0.048065
  10 H :    0.028670
  11 H :    0.033296
  12 C :   -0.074756
  13 H :    0.036834
  14 H :    0.017181
  15 H :    0.028800
  16 S :    0.380966
  17 C :   -0.176712
  18 C :   -0.065169
  19 C :   -0.060580
  20 C :   -0.173122
  21 H :    0.031361
  22 C :   -0.037499
  23 H :    0.033162
  24 H :    0.025938
  25 C :   -0.042449
  26 H :    0.030230
  27 H :    0.023687
  28 C :   -0.066756
  29 H :    0.019681
  30 H :    0.027379
  31 H :    0.033621
  32 H :    0.036205
  33 H :    0.018660

  Mayer bond orders larger than 0.100000
B(  0-S ,  1-C ) :   1.1405 B(  0-S ,  4-C ) :   1.1238 B(  1-C ,  2-C ) :   1.6050
B(  1-C , 32-H ) :   0.9575 B(  2-C ,  3-C ) :   1.2484 B(  2-C ,  6-C ) :   1.0386
B(  3-C ,  4-C ) :   1.5903 B(  3-C ,  5-H ) :   0.9797 B(  4-C , 20-C ) :   1.0477
B(  6-C ,  7-H ) :   0.9306 B(  6-C ,  8-H ) :   0.9378 B(  6-C ,  9-C ) :   1.0388
B(  9-C , 10-H ) :   0.9598 B(  9-C , 11-H ) :   0.9558 B(  9-C , 12-C ) :   1.0747
B( 12-C , 13-H ) :   0.9738 B( 12-C , 14-H ) :   0.9724 B( 12-C , 15-H ) :   0.9720
B( 16-S , 17-C ) :   1.1444 B( 16-S , 20-C ) :   1.1231 B( 17-C , 18-C ) :   1.6395
B( 17-C , 33-H ) :   0.9707 B( 18-C , 19-C ) :   1.2086 B( 18-C , 21-H ) :   0.9869
B( 19-C , 20-C ) :   1.6258 B( 19-C , 22-C ) :   1.0456 B( 22-C , 23-H ) :   0.9384
B( 22-C , 24-H ) :   0.9378 B( 22-C , 25-C ) :   1.0651 B( 25-C , 26-H ) :   0.9585
B( 25-C , 27-H ) :   0.9558 B( 25-C , 28-C ) :   1.0678 B( 28-C , 29-H ) :   0.9752
B( 28-C , 30-H ) :   0.9735 B( 28-C , 31-H ) :   0.9737

Dispersion correction           -0.014822530
FINAL SINGLE POINT ENERGY     -1339.876396509849

DIPOLE MOMENT
-------------
                                X             Y             Z
Electronic contribution:     27.94057       2.08995      -6.46982
Nuclear contribution   :    -28.57746      -2.13076       6.68427
                        -----------------------------------------
Total Dipole Moment    :     -0.63689      -0.04081       0.21446
                        -----------------------------------------
Magnitude (a.u.)       :      0.67326
Magnitude (Debye)      :      1.71130

Rotational constants in cm-1:     0.020461     0.008496     0.006746
Rotational constants in MHz :   613.392337   254.718289   202.234288

                             ****ORCA TERMINATED NORMALLY****
TOTAL RUN TIME: 0 days 0 hours 0 minutes 20 seconds 976 msec
