                         Program Version 4.2.1 -  RELEASE  -
|  1> ! wB97X-D3 SP def2-SVP
|  2> %pal
|  3> nprocs 24
|  4> end
|  5>
|  6> * xyz 0 1
|  7> S 	 -79.4916 	 -4.6958 	 -59.9649
|  8> C 	 -78.3732 	 -4.85492 	 -58.6438
|  9> C 	 -78.689 	 -5.96041 	 -57.9046
| 10> C 	 -79.7793 	 -6.74821 	 -58.4425
| 11> C 	 -80.2828 	 -6.24737 	 -59.6393
| 12> H 	 -80.3153 	 -7.56678 	 -57.9929
| 13> C 	 -77.9857 	 -6.431 	 -56.6237
| 14> H 	 -77.1135 	 -6.97008 	 -57.0738
| 15> H 	 -78.5927 	 -7.19211 	 -56.0756
| 16> C 	 -77.6712 	 -5.28781 	 -55.6154
| 17> H 	 -77.0683 	 -4.47756 	 -56.0603
| 18> H 	 -78.6289 	 -4.9413 	 -55.2157
| 19> C 	 -76.8472 	 -5.81339 	 -54.4201
| 20> H 	 -76.0124 	 -6.52625 	 -54.6146
| 21> H 	 -76.4653 	 -4.971 	 -53.8459
| 22> H 	 -77.4774 	 -6.24044 	 -53.5975
| 23> S 	 -82.8283 	 -5.4174 	 -60.3101
| 24> C 	 -83.9324 	 -6.63957 	 -61.067
| 25> C 	 -83.2895 	 -7.83548 	 -61.2122
| 26> C 	 -81.9189 	 -7.87128 	 -60.7099
| 27> C 	 -81.5322 	 -6.59623 	 -60.285
| 28> H 	 -83.8238 	 -8.68365 	 -61.5699
| 29> C 	 -81.0178 	 -9.09559 	 -60.9178
| 30> H 	 -81.5807 	 -10.0336 	 -60.6456
| 31> H 	 -80.1613 	 -8.96173 	 -60.2901
| 32> C 	 -80.639 	 -9.29595 	 -62.4064
| 33> H 	 -80.1058 	 -8.4212 	 -62.8356
| 34> H 	 -81.5842 	 -9.33054 	 -63.0057
| 35> C 	 -79.6551 	 -10.3711 	 -62.5881
| 36> H 	 -79.5348 	 -10.6458 	 -63.6569
| 37> H 	 -79.8731 	 -11.3778 	 -62.1576
| 38> H 	 -78.7345 	 -9.91008 	 -62.281
| 39> H 	 -77.7026 	 -4.0701 	 -58.2935
| 40> H 	 -84.9457 	 -6.38358 	 -61.1544
| 41> *
| 42>
| 43>                          ****END OF INPUT****

CARTESIAN COORDINATES (ANGSTROEM)
---------------------------------
  S    -79.491600   -4.695800  -59.964900
  C    -78.373200   -4.854920  -58.643800
  C    -78.689000   -5.960410  -57.904600
  C    -79.779300   -6.748210  -58.442500
  C    -80.282800   -6.247370  -59.639300
  H    -80.315300   -7.566780  -57.992900
  C    -77.985700   -6.431000  -56.623700
  H    -77.113500   -6.970080  -57.073800
  H    -78.592700   -7.192110  -56.075600
  C    -77.671200   -5.287810  -55.615400
  H    -77.068300   -4.477560  -56.060300
  H    -78.628900   -4.941300  -55.215700
  C    -76.847200   -5.813390  -54.420100
  H    -76.012400   -6.526250  -54.614600
  H    -76.465300   -4.971000  -53.845900
  H    -77.477400   -6.240440  -53.597500
  S    -82.828300   -5.417400  -60.310100
  C    -83.932400   -6.639570  -61.067000
  C    -83.289500   -7.835480  -61.212200
  C    -81.918900   -7.871280  -60.709900
  C    -81.532200   -6.596230  -60.285000
  H    -83.823800   -8.683650  -61.569900
  C    -81.017800   -9.095590  -60.917800
  H    -81.580700  -10.033600  -60.645600
  H    -80.161300   -8.961730  -60.290100
  C    -80.639000   -9.295950  -62.406400
  H    -80.105800   -8.421200  -62.835600
  H    -81.584200   -9.330540  -63.005700
  C    -79.655100  -10.371100  -62.588100
  H    -79.534800  -10.645800  -63.656900
  H    -79.873100  -11.377800  -62.157600
  H    -78.734500   -9.910080  -62.281000
  H    -77.702600   -4.070100  -58.293500
  H    -84.945700   -6.383580  -61.154400

 Total Charge           Charge          ....    0
 Multiplicity           Mult            ....    1
 Number of Electrons    NEL             ....  134
 Basis Dimension        Dim             ....  322

ORBITAL ENERGIES
----------------

  NO   OCC          E(Eh)            E(eV)
   0   2.0000     -88.963341     -2420.8156
   1   2.0000     -88.962003     -2420.7792
   2   2.0000     -10.328967      -281.0655
   3   2.0000     -10.328378      -281.0494
   4   2.0000     -10.318720      -280.7866
   5   2.0000     -10.312250      -280.6106
   6   2.0000     -10.306893      -280.4648
   7   2.0000     -10.302110      -280.3347
   8   2.0000     -10.299615      -280.2668
   9   2.0000     -10.296404      -280.1794
  10   2.0000     -10.296072      -280.1704
  11   2.0000     -10.295830      -280.1638
  12   2.0000     -10.295125      -280.1446
  13   2.0000     -10.285417      -279.8804
  14   2.0000     -10.283081      -279.8169
  15   2.0000     -10.275925      -279.6221
  16   2.0000      -8.077456      -219.7987
  17   2.0000      -8.076685      -219.7778
  18   2.0000      -6.036093      -164.2504
  19   2.0000      -6.035248      -164.2274
  20   2.0000      -6.032113      -164.1421
  21   2.0000      -6.031148      -164.1159
  22   2.0000      -6.028054      -164.0317
  23   2.0000      -6.027444      -164.0151
  24   2.0000      -1.002391       -27.2765
  25   2.0000      -0.977802       -26.6074
  26   2.0000      -0.911253       -24.7964
  27   2.0000      -0.905664       -24.6444
  28   2.0000      -0.870681       -23.6924
  29   2.0000      -0.851633       -23.1741
  30   2.0000      -0.843393       -22.9499
  31   2.0000      -0.815153       -22.1814
  32   2.0000      -0.777830       -21.1658
  33   2.0000      -0.767305       -20.8794
  34   2.0000      -0.706178       -19.2161
  35   2.0000      -0.696836       -18.9619
  36   2.0000      -0.690702       -18.7949
  37   2.0000      -0.662914       -18.0388
  38   2.0000      -0.640648       -17.4329
  39   2.0000      -0.608140       -16.5483
  40   2.0000      -0.596217       -16.2239
  41   2.0000      -0.573585       -15.6080
  42   2.0000      -0.573058       -15.5937
  43   2.0000      -0.557347       -15.1662
  44   2.0000      -0.528871       -14.3913
  45   2.0000      -0.523336       -14.2407
  46   2.0000      -0.517600       -14.0846
  47   2.0000      -0.512923       -13.9573
  48   2.0000      -0.505170       -13.7464
  49   2.0000      -0.495239       -13.4761
  50   2.0000      -0.492479       -13.4010
  51   2.0000      -0.479987       -13.0611
  52   2.0000      -0.470779       -12.8105
  53   2.0000      -0.460223       -12.5233
  54   2.0000      -0.456216       -12.4143
  55   2.0000      -0.449112       -12.2210
  56   2.0000      -0.438248       -11.9253
  57   2.0000      -0.437898       -11.9158
  58   2.0000      -0.425928       -11.5901
  59   2.0000      -0.422500       -11.4968
  60   2.0000      -0.417329       -11.3561
  61   2.0000      -0.413954       -11.2643
  62   2.0000      -0.410665       -11.1748
  63   2.0000      -0.350972        -9.5504
  64   2.0000      -0.328398        -8.9362
  65   2.0000      -0.324108        -8.8194
  66   2.0000      -0.293158        -7.9772
  67   0.0000       0.029516         0.8032
  68   0.0000       0.068264         1.8576
  69   0.0000       0.107895         2.9360
  70   0.0000       0.124129         3.3777
  71   0.0000       0.129659         3.5282

MULLIKEN ATOMIC CHARGES
-----------------------
   0 S :    0.088640
   1 C :   -0.117868
   2 C :   -0.094882
   3 C :    0.042331
   4 C :   -0.171158
   5 H :    0.018120
   6 C :    0.030384
   7 H :    0.055501
   8 H :    0.033135
   9 C :   -0.082181
  10 H :    0.041928
  11 H :    0.044085
  12 C :   -0.075726
  13 H :    0.044997
  14 H :    0.024851
  15 H :    0.029023
  16 S :    0.091092
  17 C :   -0.086828
  18 C :   -0.002972
  19 C :   -0.052870
  20 C :   -0.134498
  21 H :    0.014023
  22 C :    0.076662
  23 H :    0.033991
  24 H :    0.015711
  25 C :   -0.094946
  26 H :    0.032214
  27 H :    0.028833
  28 C :   -0.035506
  29 H :    0.030589
  30 H :    0.031683
  31 H :    0.036066
  32 H :    0.057858
  33 H :    0.047717
Sum of atomic charges:   -0.0000000

LOEWDIN ATOMIC CHARGES
----------------------
   0 S :    0.396439
   1 C :   -0.208029
   2 C :   -0.066419
   3 C :   -0.060998
   4 C :   -0.188795
   5 H :    0.031416
   6 C :   -0.036902
   7 H :    0.041119
   8 H :    0.032937
   9 C :   -0.039713
  10 H :    0.024716
  11 H :    0.032893
  12 C :   -0.081161
  13 H :    0.028990
  14 H :    0.025478
  15 H :    0.028421
  16 S :    0.373965
  17 C :   -0.153765
  18 C :   -0.061194
  19 C :   -0.053454
  20 C :   -0.198149
  21 H :    0.027468
  22 C :   -0.027578
  23 H :    0.037268
  24 H :    0.023762
  25 C :   -0.049073
  26 H :    0.031749
  27 H :    0.022944
  28 C :   -0.071492
  29 H :    0.031166
  30 H :    0.025083
  31 H :    0.029095
  32 H :    0.033189
  33 H :    0.018626

  Mayer bond orders larger than 0.100000
B(  0-S ,  1-C ) :   1.1290 B(  0-S ,  4-C ) :   1.1473 B(  1-C ,  2-C ) :   1.6230
B(  1-C , 32-H ) :   0.9675 B(  2-C ,  3-C ) :   1.2391 B(  2-C ,  6-C ) :   0.9989
B(  3-C ,  4-C ) :   1.5706 B(  3-C ,  5-H ) :   0.9918 B(  4-C , 20-C ) :   1.0397
B(  6-C ,  7-H ) :   0.9410 B(  6-C ,  8-H ) :   0.9526 B(  6-C ,  9-C ) :   1.0600
B(  9-C , 10-H ) :   0.9587 B(  9-C , 11-H ) :   0.9572 B(  9-C , 12-C ) :   1.0811
B( 12-C , 13-H ) :   0.9767 B( 12-C , 14-H ) :   0.9727 B( 12-C , 15-H ) :   0.9737
B( 16-S , 17-C ) :   1.1218 B( 16-S , 20-C ) :   1.1405 B( 17-C , 18-C ) :   1.6313
B( 17-C , 33-H ) :   0.9792 B( 18-C , 19-C ) :   1.2065 B( 18-C , 21-H ) :   0.9903
B( 19-C , 20-C ) :   1.6092 B( 19-C , 22-C ) :   1.0564 B( 22-C , 23-H ) :   0.9310
B( 22-C , 24-H ) :   0.9304 B( 22-C , 25-C ) :   1.0624 B( 25-C , 26-H ) :   0.9547
B( 25-C , 27-H ) :   0.9540 B( 25-C , 28-C ) :   1.0819 B( 28-C , 29-H ) :   0.9686
B( 28-C , 30-H ) :   0.9717 B( 28-C , 31-H ) :   0.9761

Dispersion correction           -0.013447543
FINAL SINGLE POINT ENERGY     -1339.876700543884

DIPOLE MOMENT
-------------
                                X             Y             Z
Electronic contribution:    -15.25726      16.46838      -9.60750
Nuclear contribution   :     15.31563     -16.95754      10.00215
                        -----------------------------------------
Total Dipole Moment    :      0.05837      -0.48916       0.39465
                        -----------------------------------------
Magnitude (a.u.)       :      0.63121
Magnitude (Debye)      :      1.60442

Rotational constants in cm-1:     0.019747     0.007281     0.006158
Rotational constants in MHz :   592.014800   218.264426   184.602498

                             ****ORCA TERMINATED NORMALLY****
TOTAL RUN TIME: 0 days 0 hours 0 minutes 20 seconds 834 msec
