                         Program Version 4.2.1 -  RELEASE  -
|  1> ! wB97X-D3 SP def2-SVP
|  2> %pal
|  3> nprocs 24
|  4> end
|  5>
|  6> * xyz 0 1
|  7> S 	 38.4857 	 -33.5735 	 -119.732
|  8> C 	 38.629 	 -32.0661 	 -120.653
|  9> C 	 39.8702 	 -31.47 	 -120.449
| 10> C 	 40.7591 	 -32.3724 	 -119.755
| 11> C 	 40.1695 	 -33.5247 	 -119.296
| 12> H 	 41.8352 	 -32.2132 	 -119.614
| 13> C 	 40.3222 	 -30.2077 	 -120.997
| 14> H 	 39.852 	 -29.8802 	 -121.872
| 15> H 	 41.4046 	 -30.3125 	 -121.34
| 16> C 	 40.2715 	 -28.9939 	 -120.07
| 17> H 	 40.5349 	 -28.0886 	 -120.577
| 18> H 	 39.2269 	 -28.9165 	 -119.724
| 19> C 	 41.212 	 -29.0948 	 -118.857
| 20> H 	 41.4566 	 -28.1769 	 -118.347
| 21> H 	 40.8768 	 -29.8418 	 -118.111
| 22> H 	 42.0949 	 -29.5636 	 -119.112
| 23> S 	 42.3289 	 -35.0899 	 -119.061
| 24> C 	 42.4593 	 -36.289 	 -117.742
| 25> C 	 41.4117 	 -36.0923 	 -116.903
| 26> C 	 40.3836 	 -35.166 	 -117.326
| 27> C 	 40.7799 	 -34.5456 	 -118.55
| 28> H 	 41.2211 	 -36.723 	 -116.007
| 29> C 	 39.1153 	 -34.8609 	 -116.497
| 30> H 	 39.0447 	 -33.7875 	 -116.657
| 31> H 	 39.3574 	 -34.914 	 -115.417
| 32> C 	 37.7688 	 -35.6075 	 -116.79
| 33> H 	 37.5219 	 -35.5648 	 -117.882
| 34> H 	 36.9719 	 -35.0064 	 -116.321
| 35> C 	 37.7826 	 -37.1297 	 -116.38
| 36> H 	 38.6469 	 -37.3549 	 -115.694
| 37> H 	 37.8574 	 -37.8846 	 -117.26
| 38> H 	 36.9541 	 -37.3011 	 -115.698
| 39> H 	 37.8335 	 -31.5183 	 -121.169
| 40> H 	 43.3891 	 -36.71 	 -117.559
| 41> *
| 42>
| 43>                          ****END OF INPUT****

CARTESIAN COORDINATES (ANGSTROEM)
---------------------------------
  S     38.485700  -33.573500  -119.732000
  C     38.629000  -32.066100  -120.653000
  C     39.870200  -31.470000  -120.449000
  C     40.759100  -32.372400  -119.755000
  C     40.169500  -33.524700  -119.296000
  H     41.835200  -32.213200  -119.614000
  C     40.322200  -30.207700  -120.997000
  H     39.852000  -29.880200  -121.872000
  H     41.404600  -30.312500  -121.340000
  C     40.271500  -28.993900  -120.070000
  H     40.534900  -28.088600  -120.577000
  H     39.226900  -28.916500  -119.724000
  C     41.212000  -29.094800  -118.857000
  H     41.456600  -28.176900  -118.347000
  H     40.876800  -29.841800  -118.111000
  H     42.094900  -29.563600  -119.112000
  S     42.328900  -35.089900  -119.061000
  C     42.459300  -36.289000  -117.742000
  C     41.411700  -36.092300  -116.903000
  C     40.383600  -35.166000  -117.326000
  C     40.779900  -34.545600  -118.550000
  H     41.221100  -36.723000  -116.007000
  C     39.115300  -34.860900  -116.497000
  H     39.044700  -33.787500  -116.657000
  H     39.357400  -34.914000  -115.417000
  C     37.768800  -35.607500  -116.790000
  H     37.521900  -35.564800  -117.882000
  H     36.971900  -35.006400  -116.321000
  C     37.782600  -37.129700  -116.380000
  H     38.646900  -37.354900  -115.694000
  H     37.857400  -37.884600  -117.260000
  H     36.954100  -37.301100  -115.698000
  H     37.833500  -31.518300  -121.169000
  H     43.389100  -36.710000  -117.559000

 Total Charge           Charge          ....    0
 Multiplicity           Mult            ....    1
 Number of Electrons    NEL             ....  134
 Basis Dimension        Dim             ....  322

ORBITAL ENERGIES
----------------

  NO   OCC          E(Eh)            E(eV)
   0   2.0000     -88.970278     -2421.0044
   1   2.0000     -88.963193     -2420.8115
   2   2.0000     -10.327024      -281.0126
   3   2.0000     -10.326031      -280.9856
   4   2.0000     -10.318869      -280.7907
   5   2.0000     -10.313116      -280.6341
   6   2.0000     -10.307916      -280.4926
   7   2.0000     -10.302650      -280.3494
   8   2.0000     -10.297348      -280.2051
   9   2.0000     -10.297310      -280.2041
  10   2.0000     -10.295988      -280.1681
  11   2.0000     -10.295893      -280.1655
  12   2.0000     -10.289239      -279.9844
  13   2.0000     -10.288056      -279.9522
  14   2.0000     -10.285652      -279.8868
  15   2.0000     -10.267426      -279.3909
  16   2.0000      -8.084212      -219.9826
  17   2.0000      -8.078105      -219.8164
  18   2.0000      -6.042828      -164.4337
  19   2.0000      -6.038845      -164.3253
  20   2.0000      -6.036598      -164.2642
  21   2.0000      -6.034886      -164.2176
  22   2.0000      -6.032477      -164.1520
  23   2.0000      -6.028985      -164.0570
  24   2.0000      -1.010253       -27.4904
  25   2.0000      -0.982445       -26.7337
  26   2.0000      -0.920383       -25.0449
  27   2.0000      -0.895682       -24.3728
  28   2.0000      -0.876387       -23.8477
  29   2.0000      -0.848929       -23.1005
  30   2.0000      -0.838019       -22.8037
  31   2.0000      -0.815605       -22.1937
  32   2.0000      -0.786697       -21.4071
  33   2.0000      -0.771134       -20.9836
  34   2.0000      -0.711264       -19.3545
  35   2.0000      -0.706703       -19.2304
  36   2.0000      -0.693434       -18.8693
  37   2.0000      -0.665804       -18.1174
  38   2.0000      -0.635995       -17.3063
  39   2.0000      -0.616407       -16.7733
  40   2.0000      -0.593754       -16.1569
  41   2.0000      -0.574390       -15.6300
  42   2.0000      -0.552099       -15.0234
  43   2.0000      -0.546718       -14.8770
  44   2.0000      -0.545384       -14.8407
  45   2.0000      -0.539380       -14.6773
  46   2.0000      -0.514672       -14.0049
  47   2.0000      -0.506763       -13.7897
  48   2.0000      -0.501381       -13.6433
  49   2.0000      -0.498086       -13.5536
  50   2.0000      -0.490097       -13.3362
  51   2.0000      -0.479540       -13.0489
  52   2.0000      -0.475683       -12.9440
  53   2.0000      -0.463761       -12.6196
  54   2.0000      -0.457558       -12.4508
  55   2.0000      -0.449801       -12.2397
  56   2.0000      -0.436673       -11.8825
  57   2.0000      -0.431421       -11.7396
  58   2.0000      -0.427796       -11.6409
  59   2.0000      -0.422968       -11.5096
  60   2.0000      -0.420948       -11.4546
  61   2.0000      -0.417362       -11.3570
  62   2.0000      -0.411545       -11.1987
  63   2.0000      -0.352946        -9.6042
  64   2.0000      -0.332079        -9.0363
  65   2.0000      -0.327434        -8.9099
  66   2.0000      -0.289827        -7.8866
  67   0.0000       0.023831         0.6485
  68   0.0000       0.072308         1.9676
  69   0.0000       0.100120         2.7244
  70   0.0000       0.113373         3.0850
  71   0.0000       0.132678         3.6103

MULLIKEN ATOMIC CHARGES
-----------------------
   0 S :    0.112160
   1 C :   -0.111824
   2 C :   -0.059752
   3 C :   -0.001762
   4 C :   -0.141596
   5 H :    0.021575
   6 C :    0.043315
   7 H :    0.006790
   8 H :    0.032479
   9 C :   -0.054414
  10 H :    0.026920
  11 H :    0.027492
  12 C :   -0.034771
  13 H :    0.035728
  14 H :    0.033198
  15 H :   -0.006880
  16 S :    0.088200
  17 C :   -0.069249
  18 C :   -0.031205
  19 C :   -0.051565
  20 C :   -0.147462
  21 H :    0.033115
  22 C :    0.022187
  23 H :    0.031647
  24 H :    0.032241
  25 C :   -0.057504
  26 H :    0.039945
  27 H :    0.040658
  28 C :   -0.088900
  29 H :    0.025580
  30 H :    0.067794
  31 H :    0.036788
  32 H :    0.052723
  33 H :    0.046349
Sum of atomic charges:   -0.0000000

LOEWDIN ATOMIC CHARGES
----------------------
   0 S :    0.416709
   1 C :   -0.191729
   2 C :   -0.060447
   3 C :   -0.062933
   4 C :   -0.199855
   5 H :    0.030810
   6 C :   -0.037572
   7 H :    0.024747
   8 H :    0.038980
   9 C :   -0.031171
  10 H :    0.021865
  11 H :    0.025242
  12 C :   -0.069512
  13 H :    0.025855
  14 H :    0.031607
  15 H :    0.010145
  16 S :    0.408205
  17 C :   -0.173215
  18 C :   -0.067698
  19 C :   -0.061672
  20 C :   -0.203479
  21 H :    0.035389
  22 C :   -0.043189
  23 H :    0.031151
  24 H :    0.033949
  25 C :   -0.046478
  26 H :    0.022389
  27 H :    0.029367
  28 C :   -0.083060
  29 H :    0.025495
  30 H :    0.042786
  31 H :    0.027449
  32 H :    0.033020
  33 H :    0.016852

  Mayer bond orders larger than 0.100000
B(  0-S ,  1-C ) :   1.1261 B(  0-S ,  4-C ) :   1.1364 B(  1-C ,  2-C ) :   1.6203
B(  1-C , 32-H ) :   0.9626 B(  2-C ,  3-C ) :   1.2261 B(  2-C ,  6-C ) :   1.0404
B(  3-C ,  4-C ) :   1.5722 B(  3-C ,  5-H ) :   0.9870 B(  4-C , 20-C ) :   1.0729
B(  6-C ,  7-H ) :   0.9359 B(  6-C ,  8-H ) :   0.9393 B(  6-C ,  9-C ) :   1.0790
B(  9-C , 10-H ) :   0.9567 B(  9-C , 11-H ) :   0.9534 B(  9-C , 12-C ) :   1.0772
B( 12-C , 13-H ) :   0.9755 B( 12-C , 14-H ) :   0.9681 B( 12-C , 15-H ) :   0.9701
B( 16-S , 17-C ) :   1.1274 B( 16-S , 20-C ) :   1.1704 B( 17-C , 18-C ) :   1.6014
B( 17-C , 33-H ) :   0.9780 B( 18-C , 19-C ) :   1.2699 B( 18-C , 21-H ) :   0.9746
B( 19-C , 20-C ) :   1.5296 B( 19-C , 22-C ) :   1.0294 B( 22-C , 23-H ) :   0.9294
B( 22-C , 24-H ) :   0.9426 B( 22-C , 25-C ) :   1.0699 B( 25-C , 26-H ) :   0.9569
B( 25-C , 27-H ) :   0.9600 B( 25-C , 28-C ) :   1.0389 B( 28-C , 29-H ) :   0.9811
B( 28-C , 30-H ) :   0.9768 B( 28-C , 31-H ) :   0.9751

Dispersion correction           -0.014920630
FINAL SINGLE POINT ENERGY     -1339.869883166904

DIPOLE MOMENT
-------------
                                X             Y             Z
Electronic contribution:      5.91228     -10.01674      -8.71849
Nuclear contribution   :     -5.94538      10.40184       8.97412
                        -----------------------------------------
Total Dipole Moment    :     -0.03310       0.38510       0.25564
                        -----------------------------------------
Magnitude (a.u.)       :      0.46341
Magnitude (Debye)      :      1.17789

Rotational constants in cm-1:     0.021066     0.008484     0.007110
Rotational constants in MHz :   631.546874   254.334072   213.155201

                             ****ORCA TERMINATED NORMALLY****
TOTAL RUN TIME: 0 days 0 hours 0 minutes 20 seconds 545 msec
