                         Program Version 4.2.1 -  RELEASE  -
|  1> ! wB97X-D3 SP def2-SVP
|  2> %pal
|  3> nprocs 24
|  4> end
|  5>
|  6> * xyz 0 1
|  7> S 	 -30.2602 	 10.0599 	 11.1984
|  8> C 	 -31.2744 	 11.4539 	 11.3805
|  9> C 	 -32.2438 	 11.3885 	 12.3796
| 10> C 	 -32.1765 	 10.1117 	 12.9882
| 11> C 	 -31.1519 	 9.268 	 12.4983
| 12> H 	 -32.7811 	 9.73627 	 13.817
| 13> C 	 -33.0537 	 12.5274 	 12.8672
| 14> H 	 -32.5915 	 13.1257 	 13.6681
| 15> H 	 -34.0249 	 12.1794 	 13.2382
| 16> C 	 -33.3523 	 13.4865 	 11.6393
| 17> H 	 -32.4503 	 13.8451 	 11.344
| 18> H 	 -33.8086 	 12.9035 	 10.798
| 19> C 	 -34.1211 	 14.7438 	 12.0691
| 20> H 	 -34.1184 	 15.5409 	 11.2733
| 21> H 	 -35.1598 	 14.4285 	 12.3528
| 22> H 	 -33.6284 	 15.226 	 12.8502
| 23> S 	 -30.7979 	 6.5482 	 11.9833
| 24> C 	 -30.2736 	 5.53759 	 13.2718
| 25> C 	 -30.1558 	 6.25593 	 14.4387
| 26> C 	 -30.4403 	 7.64178 	 14.327
| 27> C 	 -30.7848 	 7.9888 	 13.0129
| 28> H 	 -29.8288 	 5.8114 	 15.3216
| 29> C 	 -30.3066 	 8.67616 	 15.5205
| 30> H 	 -29.9789 	 8.27 	 16.4546
| 31> H 	 -31.3654 	 8.98206 	 15.6732
| 32> C 	 -29.4316 	 9.93562 	 15.2876
| 33> H 	 -29.8459 	 10.4839 	 14.4952
| 34> H 	 -28.4235 	 9.63833 	 14.9305
| 35> C 	 -29.3562 	 10.9498 	 16.4684
| 36> H 	 -30.3228 	 11.1585 	 16.8728
| 37> H 	 -28.9911 	 11.9354 	 16.114
| 38> H 	 -28.7909 	 10.5546 	 17.2858
| 39> H 	 -30.8476 	 12.3613 	 10.9848
| 40> H 	 -30.0102 	 4.52164 	 13.1325
| 41> *
| 42>
| 43>                          ****END OF INPUT****

CARTESIAN COORDINATES (ANGSTROEM)
---------------------------------
  S    -30.260200   10.059900   11.198400
  C    -31.274400   11.453900   11.380500
  C    -32.243800   11.388500   12.379600
  C    -32.176500   10.111700   12.988200
  C    -31.151900    9.268000   12.498300
  H    -32.781100    9.736270   13.817000
  C    -33.053700   12.527400   12.867200
  H    -32.591500   13.125700   13.668100
  H    -34.024900   12.179400   13.238200
  C    -33.352300   13.486500   11.639300
  H    -32.450300   13.845100   11.344000
  H    -33.808600   12.903500   10.798000
  C    -34.121100   14.743800   12.069100
  H    -34.118400   15.540900   11.273300
  H    -35.159800   14.428500   12.352800
  H    -33.628400   15.226000   12.850200
  S    -30.797900    6.548200   11.983300
  C    -30.273600    5.537590   13.271800
  C    -30.155800    6.255930   14.438700
  C    -30.440300    7.641780   14.327000
  C    -30.784800    7.988800   13.012900
  H    -29.828800    5.811400   15.321600
  C    -30.306600    8.676160   15.520500
  H    -29.978900    8.270000   16.454600
  H    -31.365400    8.982060   15.673200
  C    -29.431600    9.935620   15.287600
  H    -29.845900   10.483900   14.495200
  H    -28.423500    9.638330   14.930500
  C    -29.356200   10.949800   16.468400
  H    -30.322800   11.158500   16.872800
  H    -28.991100   11.935400   16.114000
  H    -28.790900   10.554600   17.285800
  H    -30.847600   12.361300   10.984800
  H    -30.010200    4.521640   13.132500

 Total Charge           Charge          ....    0
 Multiplicity           Mult            ....    1
 Number of Electrons    NEL             ....  134
 Basis Dimension        Dim             ....  322

ORBITAL ENERGIES
----------------

  NO   OCC          E(Eh)            E(eV)
   0   2.0000     -88.968892     -2420.9666
   1   2.0000     -88.964097     -2420.8362
   2   2.0000     -10.328477      -281.0522
   3   2.0000     -10.323562      -280.9184
   4   2.0000     -10.312408      -280.6149
   5   2.0000     -10.312277      -280.6113
   6   2.0000     -10.307471      -280.4805
   7   2.0000     -10.303313      -280.3674
   8   2.0000     -10.297807      -280.2176
   9   2.0000     -10.297633      -280.2128
  10   2.0000     -10.297601      -280.2120
  11   2.0000     -10.287114      -279.9266
  12   2.0000     -10.283636      -279.8320
  13   2.0000     -10.281100      -279.7629
  14   2.0000     -10.280009      -279.7333
  15   2.0000     -10.276220      -279.6302
  16   2.0000      -8.083637      -219.9669
  17   2.0000      -8.079146      -219.8447
  18   2.0000      -6.041869      -164.4076
  19   2.0000      -6.038141      -164.3062
  20   2.0000      -6.037576      -164.2908
  21   2.0000      -6.034687      -164.2122
  22   2.0000      -6.033540      -164.1810
  23   2.0000      -6.030050      -164.0860
  24   2.0000      -1.005567       -27.3629
  25   2.0000      -0.984313       -26.7845
  26   2.0000      -0.914544       -24.8860
  27   2.0000      -0.898831       -24.4584
  28   2.0000      -0.868598       -23.6357
  29   2.0000      -0.854805       -23.2604
  30   2.0000      -0.847028       -23.0488
  31   2.0000      -0.809789       -22.0355
  32   2.0000      -0.783810       -21.3286
  33   2.0000      -0.769320       -20.9343
  34   2.0000      -0.713490       -19.4150
  35   2.0000      -0.701537       -19.0898
  36   2.0000      -0.688442       -18.7335
  37   2.0000      -0.664436       -18.0802
  38   2.0000      -0.644170       -17.5288
  39   2.0000      -0.613643       -16.6981
  40   2.0000      -0.596167       -16.2225
  41   2.0000      -0.577581       -15.7168
  42   2.0000      -0.566043       -15.4028
  43   2.0000      -0.562548       -15.3077
  44   2.0000      -0.522514       -14.2183
  45   2.0000      -0.518051       -14.0969
  46   2.0000      -0.514648       -14.0043
  47   2.0000      -0.512888       -13.9564
  48   2.0000      -0.506833       -13.7916
  49   2.0000      -0.495980       -13.4963
  50   2.0000      -0.488623       -13.2961
  51   2.0000      -0.488383       -13.2896
  52   2.0000      -0.478371       -13.0171
  53   2.0000      -0.460724       -12.5369
  54   2.0000      -0.458843       -12.4858
  55   2.0000      -0.448195       -12.1960
  56   2.0000      -0.444043       -12.0830
  57   2.0000      -0.439444       -11.9579
  58   2.0000      -0.430991       -11.7279
  59   2.0000      -0.429051       -11.6751
  60   2.0000      -0.420103       -11.4316
  61   2.0000      -0.416171       -11.3246
  62   2.0000      -0.415570       -11.3082
  63   2.0000      -0.340499        -9.2654
  64   2.0000      -0.334281        -9.0962
  65   2.0000      -0.331374        -9.0171
  66   2.0000      -0.289451        -7.8764
  67   0.0000       0.027784         0.7560
  68   0.0000       0.062307         1.6955
  69   0.0000       0.112892         3.0719
  70   0.0000       0.122138         3.3235
  71   0.0000       0.134542         3.6611

MULLIKEN ATOMIC CHARGES
-----------------------
   0 S :    0.128051
   1 C :   -0.135718
   2 C :   -0.067638
   3 C :    0.028284
   4 C :   -0.196076
   5 H :    0.017735
   6 C :    0.059680
   7 H :    0.045411
   8 H :    0.024824
   9 C :   -0.096340
  10 H :    0.004436
  11 H :    0.050394
  12 C :   -0.029405
  13 H :    0.037125
  14 H :    0.039698
  15 H :    0.012589
  16 S :    0.115176
  17 C :   -0.079762
  18 C :   -0.014826
  19 C :   -0.010535
  20 C :   -0.180566
  21 H :   -0.011743
  22 C :    0.077674
  23 H :    0.009456
  24 H :    0.027036
  25 C :   -0.067010
  26 H :    0.027429
  27 H :    0.033982
  28 C :   -0.035407
  29 H :    0.012149
  30 H :    0.038985
  31 H :    0.028695
  32 H :    0.057126
  33 H :    0.049093
Sum of atomic charges:   -0.0000000

LOEWDIN ATOMIC CHARGES
----------------------
   0 S :    0.417924
   1 C :   -0.200591
   2 C :   -0.067070
   3 C :   -0.053987
   4 C :   -0.196257
   5 H :    0.033039
   6 C :   -0.027703
   7 H :    0.036359
   8 H :    0.029777
   9 C :   -0.032628
  10 H :    0.004602
  11 H :    0.033334
  12 C :   -0.064119
  13 H :    0.032022
  14 H :    0.029187
  15 H :    0.014223
  16 S :    0.412777
  17 C :   -0.187198
  18 C :   -0.067869
  19 C :   -0.047196
  20 C :   -0.207415
  21 H :    0.020019
  22 C :   -0.026122
  23 H :    0.022084
  24 H :    0.032719
  25 C :   -0.038901
  26 H :    0.016287
  27 H :    0.027200
  28 C :   -0.060725
  29 H :    0.019092
  30 H :    0.033111
  31 H :    0.019419
  32 H :    0.020607
  33 H :    0.023999

  Mayer bond orders larger than 0.100000
B(  0-S ,  1-C ) :   1.1577 B(  0-S ,  4-C ) :   1.1603 B(  1-C ,  2-C ) :   1.5799
B(  1-C ,  4-C ) :   0.1021 B(  1-C , 32-H ) :   0.9615 B(  2-C ,  3-C ) :   1.2603
B(  2-C ,  6-C ) :   1.0323 B(  3-C ,  4-C ) :   1.5494 B(  3-C ,  5-H ) :   0.9960
B(  4-C , 20-C ) :   1.0658 B(  6-C ,  7-H ) :   0.9333 B(  6-C ,  8-H ) :   0.9403
B(  6-C ,  9-C ) :   1.0690 B(  9-C , 10-H ) :   0.9455 B(  9-C , 11-H ) :   0.9633
B(  9-C , 12-C ) :   1.0852 B( 12-C , 13-H ) :   0.9731 B( 12-C , 14-H ) :   0.9763
B( 12-C , 15-H ) :   0.9703 B( 16-S , 17-C ) :   1.1660 B( 16-S , 20-C ) :   1.1491
B( 17-C , 18-C ) :   1.5710 B( 17-C , 20-C ) :   0.1043 B( 17-C , 33-H ) :   0.9739
B( 18-C , 19-C ) :   1.2763 B( 18-C , 21-H ) :   1.0021 B( 19-C , 20-C ) :   1.5642
B( 19-C , 22-C ) :   1.0188 B( 22-C , 23-H ) :   0.9474 B( 22-C , 24-H ) :   0.9314
B( 22-C , 25-C ) :   1.0592 B( 25-C , 26-H ) :   0.9518 B( 25-C , 27-H ) :   0.9577
B( 25-C , 28-C ) :   1.0859 B( 28-C , 29-H ) :   0.9727 B( 28-C , 30-H ) :   0.9757
B( 28-C , 31-H ) :   0.9774

Dispersion correction           -0.014754086
FINAL SINGLE POINT ENERGY     -1339.876264510519

DIPOLE MOMENT
-------------
                                X             Y             Z
Electronic contribution:      6.52905     -25.00037     -15.08656
Nuclear contribution   :     -6.53506      25.45435      15.64527
                        -----------------------------------------
Total Dipole Moment    :     -0.00602       0.45399       0.55871
                        -----------------------------------------
Magnitude (a.u.)       :      0.71993
Magnitude (Debye)      :      1.82991

Rotational constants in cm-1:     0.021142     0.008077     0.006610
Rotational constants in MHz :   633.817167   242.137579   198.156261

                             ****ORCA TERMINATED NORMALLY****
TOTAL RUN TIME: 0 days 0 hours 0 minutes 21 seconds 999 msec
