                         Program Version 4.2.1 -  RELEASE  -
|  1> ! wB97X-D3 SP def2-SVP
|  2> %pal
|  3> nprocs 24
|  4> end
|  5>
|  6> * xyz 0 1
|  7> S 	 -73.5623 	 5.6431 	 -111.327
|  8> C 	 -73.9531 	 5.85685 	 -109.678
|  9> C 	 -72.8042 	 5.90544 	 -108.958
| 10> C 	 -71.5951 	 5.94373 	 -109.763
| 11> C 	 -71.8441 	 5.95117 	 -111.117
| 12> H 	 -70.5132 	 6.03869 	 -109.461
| 13> C 	 -72.761 	 5.9405 	 -107.435
| 14> H 	 -72.9027 	 4.94395 	 -106.995
| 15> H 	 -73.6749 	 6.48644 	 -107.137
| 16> C 	 -71.5897 	 6.63886 	 -106.818
| 17> H 	 -71.5111 	 6.51192 	 -105.744
| 18> H 	 -70.6203 	 6.22347 	 -107.048
| 19> C 	 -71.4097 	 8.11224 	 -107.184
| 20> H 	 -71.2131 	 8.1046 	 -108.254
| 21> H 	 -72.2997 	 8.74975 	 -107.077
| 22> H 	 -70.4568 	 8.43186 	 -106.719
| 23> S 	 -71.3561 	 4.82771 	 -113.572
| 24> C 	 -69.8756 	 5.13022 	 -114.348
| 25> C 	 -69.1777 	 6.1576 	 -113.745
| 26> C 	 -69.6835 	 6.52818 	 -112.456
| 27> C 	 -70.9021 	 5.89746 	 -112.207
| 28> H 	 -68.3529 	 6.57325 	 -114.235
| 29> C 	 -69.0195 	 7.6311 	 -111.644
| 30> H 	 -67.961 	 7.75857 	 -111.988
| 31> H 	 -69.0249 	 7.19805 	 -110.637
| 32> C 	 -69.7512 	 9.00915 	 -111.648
| 33> H 	 -69.3655 	 9.71221 	 -110.88
| 34> H 	 -70.8185 	 8.72759 	 -111.487
| 35> C 	 -69.7394 	 9.78228 	 -112.972
| 36> H 	 -68.8352 	 10.2608 	 -113.165
| 37> H 	 -70.4111 	 10.6443 	 -113.008
| 38> H 	 -69.9972 	 9.18288 	 -113.88
| 39> H 	 -74.9238 	 5.77399 	 -109.214
| 40> H 	 -69.5143 	 4.72161 	 -115.319
| 41> *
| 42>
| 43>                          ****END OF INPUT****

CARTESIAN COORDINATES (ANGSTROEM)
---------------------------------
  S    -73.562300    5.643100  -111.327000
  C    -73.953100    5.856850  -109.678000
  C    -72.804200    5.905440  -108.958000
  C    -71.595100    5.943730  -109.763000
  C    -71.844100    5.951170  -111.117000
  H    -70.513200    6.038690  -109.461000
  C    -72.761000    5.940500  -107.435000
  H    -72.902700    4.943950  -106.995000
  H    -73.674900    6.486440  -107.137000
  C    -71.589700    6.638860  -106.818000
  H    -71.511100    6.511920  -105.744000
  H    -70.620300    6.223470  -107.048000
  C    -71.409700    8.112240  -107.184000
  H    -71.213100    8.104600  -108.254000
  H    -72.299700    8.749750  -107.077000
  H    -70.456800    8.431860  -106.719000
  S    -71.356100    4.827710  -113.572000
  C    -69.875600    5.130220  -114.348000
  C    -69.177700    6.157600  -113.745000
  C    -69.683500    6.528180  -112.456000
  C    -70.902100    5.897460  -112.207000
  H    -68.352900    6.573250  -114.235000
  C    -69.019500    7.631100  -111.644000
  H    -67.961000    7.758570  -111.988000
  H    -69.024900    7.198050  -110.637000
  C    -69.751200    9.009150  -111.648000
  H    -69.365500    9.712210  -110.880000
  H    -70.818500    8.727590  -111.487000
  C    -69.739400    9.782280  -112.972000
  H    -68.835200   10.260800  -113.165000
  H    -70.411100   10.644300  -113.008000
  H    -69.997200    9.182880  -113.880000
  H    -74.923800    5.773990  -109.214000
  H    -69.514300    4.721610  -115.319000

 Total Charge           Charge          ....    0
 Multiplicity           Mult            ....    1
 Number of Electrons    NEL             ....  134
 Basis Dimension        Dim             ....  322

ORBITAL ENERGIES
----------------

  NO   OCC          E(Eh)            E(eV)
   0   2.0000     -88.968852     -2420.9655
   1   2.0000     -88.962612     -2420.7957
   2   2.0000     -10.332544      -281.1628
   3   2.0000     -10.330741      -281.1138
   4   2.0000     -10.316784      -280.7340
   5   2.0000     -10.309607      -280.5387
   6   2.0000     -10.308625      -280.5120
   7   2.0000     -10.301632      -280.3217
   8   2.0000     -10.301321      -280.3132
   9   2.0000     -10.299268      -280.2573
  10   2.0000     -10.293327      -280.0957
  11   2.0000     -10.292595      -280.0758
  12   2.0000     -10.289048      -279.9792
  13   2.0000     -10.280191      -279.7382
  14   2.0000     -10.275508      -279.6108
  15   2.0000     -10.271806      -279.5101
  16   2.0000      -8.083780      -219.9708
  17   2.0000      -8.078178      -219.8184
  18   2.0000      -6.042306      -164.4195
  19   2.0000      -6.038317      -164.3110
  20   2.0000      -6.036845      -164.2709
  21   2.0000      -6.034449      -164.2057
  22   2.0000      -6.032581      -164.1549
  23   2.0000      -6.028690      -164.0490
  24   2.0000      -1.012106       -27.5408
  25   2.0000      -0.989847       -26.9351
  26   2.0000      -0.915228       -24.9046
  27   2.0000      -0.906865       -24.6770
  28   2.0000      -0.876994       -23.8642
  29   2.0000      -0.851958       -23.1830
  30   2.0000      -0.839648       -22.8480
  31   2.0000      -0.818420       -22.2704
  32   2.0000      -0.787230       -21.4216
  33   2.0000      -0.774742       -21.0818
  34   2.0000      -0.713864       -19.4252
  35   2.0000      -0.697232       -18.9726
  36   2.0000      -0.688612       -18.7381
  37   2.0000      -0.664294       -18.0763
  38   2.0000      -0.640075       -17.4173
  39   2.0000      -0.620248       -16.8778
  40   2.0000      -0.591122       -16.0853
  41   2.0000      -0.568570       -15.4716
  42   2.0000      -0.558190       -15.1891
  43   2.0000      -0.551605       -15.0099
  44   2.0000      -0.546177       -14.8622
  45   2.0000      -0.527957       -14.3665
  46   2.0000      -0.520706       -14.1691
  47   2.0000      -0.514860       -14.0100
  48   2.0000      -0.507549       -13.8111
  49   2.0000      -0.496276       -13.5043
  50   2.0000      -0.493090       -13.4177
  51   2.0000      -0.480069       -13.0634
  52   2.0000      -0.474669       -12.9164
  53   2.0000      -0.470910       -12.8141
  54   2.0000      -0.456816       -12.4306
  55   2.0000      -0.448551       -12.2057
  56   2.0000      -0.443029       -12.0554
  57   2.0000      -0.440527       -11.9873
  58   2.0000      -0.431796       -11.7498
  59   2.0000      -0.423904       -11.5350
  60   2.0000      -0.417580       -11.3629
  61   2.0000      -0.411449       -11.1961
  62   2.0000      -0.402957       -10.9650
  63   2.0000      -0.363002        -9.8778
  64   2.0000      -0.333728        -9.0812
  65   2.0000      -0.324554        -8.8316
  66   2.0000      -0.285549        -7.7702
  67   0.0000       0.022622         0.6156
  68   0.0000       0.071031         1.9329
  69   0.0000       0.110492         3.0066
  70   0.0000       0.116910         3.1813
  71   0.0000       0.129940         3.5359

MULLIKEN ATOMIC CHARGES
-----------------------
   0 S :    0.091296
   1 C :   -0.097469
   2 C :   -0.113646
   3 C :   -0.005708
   4 C :   -0.128070
   5 H :    0.034813
   6 C :    0.100189
   7 H :    0.045142
   8 H :    0.019506
   9 C :   -0.084784
  10 H :    0.017198
  11 H :    0.008826
  12 C :   -0.045736
  13 H :    0.018541
  14 H :    0.038843
  15 H :    0.035467
  16 S :    0.114997
  17 C :   -0.089668
  18 C :   -0.030952
  19 C :   -0.056585
  20 C :   -0.160095
  21 H :   -0.004151
  22 C :    0.074109
  23 H :    0.029222
  24 H :    0.025877
  25 C :   -0.070598
  26 H :    0.044595
  27 H :    0.050293
  28 C :   -0.052729
  29 H :    0.006847
  30 H :    0.027969
  31 H :    0.040895
  32 H :    0.047047
  33 H :    0.068518
Sum of atomic charges:    0.0000000

LOEWDIN ATOMIC CHARGES
----------------------
   0 S :    0.407835
   1 C :   -0.207138
   2 C :   -0.065905
   3 C :   -0.076414
   4 C :   -0.190990
   5 H :    0.039002
   6 C :   -0.034650
   7 H :    0.037255
   8 H :    0.033567
   9 C :   -0.053777
  10 H :    0.023687
  11 H :    0.020584
  12 C :   -0.065951
  13 H :    0.022132
  14 H :    0.025547
  15 H :    0.031710
  16 S :    0.413951
  17 C :   -0.205211
  18 C :   -0.069384
  19 C :   -0.053717
  20 C :   -0.183879
  21 H :    0.020763
  22 C :   -0.032218
  23 H :    0.033091
  24 H :    0.031494
  25 C :   -0.040207
  26 H :    0.030844
  27 H :    0.033518
  28 C :   -0.073223
  29 H :    0.011778
  30 H :    0.029484
  31 H :    0.031367
  32 H :    0.034473
  33 H :    0.040581

  Mayer bond orders larger than 0.100000
B(  0-S ,  1-C ) :   1.1304 B(  0-S ,  4-C ) :   1.1406 B(  1-C ,  2-C ) :   1.6317
B(  1-C , 32-H ) :   0.9713 B(  2-C ,  3-C ) :   1.2252 B(  2-C ,  6-C ) :   1.0050
B(  3-C ,  4-C ) :   1.5749 B(  3-C ,  5-H ) :   0.9788 B(  4-C , 20-C ) :   1.0854
B(  6-C ,  7-H ) :   0.9328 B(  6-C ,  8-H ) :   0.9415 B(  6-C ,  9-C ) :   1.0861
B(  9-C , 10-H ) :   0.9498 B(  9-C , 11-H ) :   0.9419 B(  9-C , 12-C ) :   1.0807
B( 12-C , 13-H ) :   0.9707 B( 12-C , 14-H ) :   0.9745 B( 12-C , 15-H ) :   0.9704
B( 16-S , 17-C ) :   1.1640 B( 16-S , 20-C ) :   1.1328 B( 17-C , 18-C ) :   1.6086
B( 17-C , 33-H ) :   0.9594 B( 18-C , 19-C ) :   1.2420 B( 18-C , 21-H ) :   0.9965
B( 19-C , 20-C ) :   1.5761 B( 19-C , 22-C ) :   1.0394 B( 22-C , 23-H ) :   0.9349
B( 22-C , 24-H ) :   0.9284 B( 22-C , 25-C ) :   1.0636 B( 25-C , 26-H ) :   0.9562
B( 25-C , 27-H ) :   0.9555 B( 25-C , 28-C ) :   1.0777 B( 28-C , 29-H ) :   0.9730
B( 28-C , 30-H ) :   0.9718 B( 28-C , 31-H ) :   0.9742

Dispersion correction           -0.015306143
FINAL SINGLE POINT ENERGY     -1339.876141760773

DIPOLE MOMENT
-------------
                                X             Y             Z
Electronic contribution:    -10.92600     -19.02556     -16.49419
Nuclear contribution   :     11.33564      19.28615      16.79056
                        -----------------------------------------
Total Dipole Moment    :      0.40964       0.26059       0.29637
                        -----------------------------------------
Magnitude (a.u.)       :      0.56882
Magnitude (Debye)      :      1.44582

Rotational constants in cm-1:     0.018701     0.009942     0.007484
Rotational constants in MHz :   560.633879   298.062602   224.379359

                             ****ORCA TERMINATED NORMALLY****
TOTAL RUN TIME: 0 days 0 hours 0 minutes 21 seconds 550 msec
