                         Program Version 4.2.1 -  RELEASE  -
|  1> ! wB97X-D3 SP def2-SVP
|  2> %pal
|  3> nprocs 24
|  4> end
|  5>
|  6> * xyz 0 1
|  7> S 	 -100.798 	 -1.62914 	 -110.377
|  8> C 	 -102.174 	 -1.64278 	 -111.47
|  9> C 	 -103.326 	 -2.0095 	 -110.761
| 10> C 	 -103.132 	 -2.18624 	 -109.357
| 11> C 	 -101.773 	 -2.16117 	 -109.027
| 12> H 	 -103.83 	 -2.46136 	 -108.599
| 13> C 	 -104.679 	 -2.12086 	 -111.393
| 14> H 	 -105.033 	 -1.15745 	 -111.797
| 15> H 	 -105.341 	 -2.30422 	 -110.617
| 16> C 	 -104.803 	 -3.32776 	 -112.435
| 17> H 	 -104.097 	 -3.1164 	 -113.268
| 18> H 	 -104.429 	 -4.20407 	 -111.962
| 19> C 	 -106.196 	 -3.74815 	 -112.924
| 20> H 	 -106.06 	 -4.65054 	 -113.648
| 21> H 	 -106.911 	 -3.72425 	 -112.116
| 22> H 	 -106.502 	 -2.82546 	 -113.432
| 23> S 	 -100.42 	 -4.12334 	 -107.511
| 24> C 	 -100.103 	 -3.80598 	 -105.8
| 25> C 	 -100.543 	 -2.54805 	 -105.459
| 26> C 	 -100.983 	 -1.75081 	 -106.577
| 27> C 	 -101.19 	 -2.51999 	 -107.73
| 28> H 	 -100.389 	 -2.19769 	 -104.464
| 29> C 	 -101.321 	 -0.289687 	 -106.425
| 30> H 	 -101.997 	 -0.126675 	 -105.555
| 31> H 	 -101.942 	 -0.0452136 	 -107.316
| 32> C 	 -100.11 	 0.684943 	 -106.35
| 33> H 	 -99.573 	 0.400136 	 -105.405
| 34> H 	 -100.541 	 1.6903 	 -106.18
| 35> C 	 -99.0898 	 0.702781 	 -107.533
| 36> H 	 -99.4048 	 1.40877 	 -108.303
| 37> H 	 -98.9791 	 -0.319678 	 -107.977
| 38> H 	 -98.1087 	 0.946214 	 -107.318
| 39> H 	 -102.104 	 -1.44465 	 -112.513
| 40> H 	 -99.5514 	 -4.51441 	 -105.193
| 41> *
| 42>
| 43>                          ****END OF INPUT****

CARTESIAN COORDINATES (ANGSTROEM)
---------------------------------
  S    -100.798000   -1.629140  -110.377000
  C    -102.174000   -1.642780  -111.470000
  C    -103.326000   -2.009500  -110.761000
  C    -103.132000   -2.186240  -109.357000
  C    -101.773000   -2.161170  -109.027000
  H    -103.830000   -2.461360  -108.599000
  C    -104.679000   -2.120860  -111.393000
  H    -105.033000   -1.157450  -111.797000
  H    -105.341000   -2.304220  -110.617000
  C    -104.803000   -3.327760  -112.435000
  H    -104.097000   -3.116400  -113.268000
  H    -104.429000   -4.204070  -111.962000
  C    -106.196000   -3.748150  -112.924000
  H    -106.060000   -4.650540  -113.648000
  H    -106.911000   -3.724250  -112.116000
  H    -106.502000   -2.825460  -113.432000
  S    -100.420000   -4.123340  -107.511000
  C    -100.103000   -3.805980  -105.800000
  C    -100.543000   -2.548050  -105.459000
  C    -100.983000   -1.750810  -106.577000
  C    -101.190000   -2.519990  -107.730000
  H    -100.389000   -2.197690  -104.464000
  C    -101.321000   -0.289687  -106.425000
  H    -101.997000   -0.126675  -105.555000
  H    -101.942000   -0.045214  -107.316000
  C    -100.110000    0.684943  -106.350000
  H    -99.573000    0.400136  -105.405000
  H    -100.541000    1.690300  -106.180000
  C    -99.089800    0.702781  -107.533000
  H    -99.404800    1.408770  -108.303000
  H    -98.979100   -0.319678  -107.977000
  H    -98.108700    0.946214  -107.318000
  H    -102.104000   -1.444650  -112.513000
  H    -99.551400   -4.514410  -105.193000

 Total Charge           Charge          ....    0
 Multiplicity           Mult            ....    1
 Number of Electrons    NEL             ....  134
 Basis Dimension        Dim             ....  322

ORBITAL ENERGIES
----------------

  NO   OCC          E(Eh)            E(eV)
   0   2.0000     -88.967480     -2420.9282
   1   2.0000     -88.962117     -2420.7823
   2   2.0000     -10.330294      -281.1016
   3   2.0000     -10.329977      -281.0930
   4   2.0000     -10.321246      -280.8554
   5   2.0000     -10.314980      -280.6849
   6   2.0000     -10.306415      -280.4518
   7   2.0000     -10.303398      -280.3697
   8   2.0000     -10.296502      -280.1821
   9   2.0000     -10.294085      -280.1163
  10   2.0000     -10.293899      -280.1112
  11   2.0000     -10.293255      -280.0937
  12   2.0000     -10.288439      -279.9626
  13   2.0000     -10.286546      -279.9112
  14   2.0000     -10.286308      -279.9047
  15   2.0000     -10.271614      -279.5048
  16   2.0000      -8.081731      -219.9151
  17   2.0000      -8.076211      -219.7649
  18   2.0000      -6.040176      -164.3615
  19   2.0000      -6.036136      -164.2516
  20   2.0000      -6.034781      -164.2147
  21   2.0000      -6.032759      -164.1597
  22   2.0000      -6.030800      -164.1064
  23   2.0000      -6.026935      -164.0012
  24   2.0000      -1.000403       -27.2224
  25   2.0000      -0.979006       -26.6401
  26   2.0000      -0.905694       -24.6452
  27   2.0000      -0.898830       -24.4584
  28   2.0000      -0.865524       -23.5521
  29   2.0000      -0.850945       -23.1554
  30   2.0000      -0.840220       -22.8636
  31   2.0000      -0.814243       -22.1567
  32   2.0000      -0.782258       -21.2863
  33   2.0000      -0.769013       -20.9259
  34   2.0000      -0.705833       -19.2067
  35   2.0000      -0.698107       -18.9965
  36   2.0000      -0.690749       -18.7962
  37   2.0000      -0.654892       -17.8205
  38   2.0000      -0.649518       -17.6743
  39   2.0000      -0.611635       -16.6434
  40   2.0000      -0.592126       -16.1126
  41   2.0000      -0.566909       -15.4264
  42   2.0000      -0.555977       -15.1289
  43   2.0000      -0.546139       -14.8612
  44   2.0000      -0.540664       -14.7122
  45   2.0000      -0.532549       -14.4914
  46   2.0000      -0.518770       -14.1164
  47   2.0000      -0.512224       -13.9383
  48   2.0000      -0.501913       -13.6577
  49   2.0000      -0.499817       -13.6007
  50   2.0000      -0.484182       -13.1753
  51   2.0000      -0.477102       -12.9826
  52   2.0000      -0.470524       -12.8036
  53   2.0000      -0.460556       -12.5324
  54   2.0000      -0.454757       -12.3746
  55   2.0000      -0.449923       -12.2430
  56   2.0000      -0.442660       -12.0454
  57   2.0000      -0.437411       -11.9026
  58   2.0000      -0.429268       -11.6810
  59   2.0000      -0.421314       -11.4645
  60   2.0000      -0.415292       -11.3007
  61   2.0000      -0.408335       -11.1114
  62   2.0000      -0.408001       -11.1023
  63   2.0000      -0.335902        -9.1404
  64   2.0000      -0.327384        -8.9086
  65   2.0000      -0.319007        -8.6806
  66   2.0000      -0.308833        -8.4038
  67   0.0000       0.038611         1.0506
  68   0.0000       0.050024         1.3612
  69   0.0000       0.112663         3.0657
  70   0.0000       0.121833         3.3152
  71   0.0000       0.125303         3.4097

MULLIKEN ATOMIC CHARGES
-----------------------
   0 S :    0.122061
   1 C :   -0.113032
   2 C :   -0.101324
   3 C :    0.069227
   4 C :   -0.191691
   5 H :    0.012062
   6 C :    0.105811
   7 H :    0.036814
   8 H :   -0.014709
   9 C :   -0.110666
  10 H :    0.030399
  11 H :    0.023927
  12 C :   -0.039269
  13 H :    0.071853
  14 H :    0.027663
  15 H :    0.018236
  16 S :    0.094404
  17 C :   -0.099632
  18 C :   -0.004868
  19 C :   -0.028184
  20 C :   -0.177433
  21 H :    0.012231
  22 C :    0.037809
  23 H :    0.038931
  24 H :    0.031397
  25 C :   -0.085505
  26 H :    0.029108
  27 H :    0.037549
  28 C :   -0.029010
  29 H :    0.034981
  30 H :    0.034989
  31 H :    0.015906
  32 H :    0.044681
  33 H :    0.065283
Sum of atomic charges:   -0.0000000

LOEWDIN ATOMIC CHARGES
----------------------
   0 S :    0.416655
   1 C :   -0.191278
   2 C :   -0.059697
   3 C :   -0.052238
   4 C :   -0.200008
   5 H :    0.032668
   6 C :   -0.030386
   7 H :    0.032377
   8 H :    0.015926
   9 C :   -0.041169
  10 H :    0.022273
  11 H :    0.017393
  12 C :   -0.076455
  13 H :    0.048868
  14 H :    0.024531
  15 H :    0.024961
  16 S :    0.377558
  17 C :   -0.170342
  18 C :   -0.070955
  19 C :   -0.050713
  20 C :   -0.197386
  21 H :    0.026873
  22 C :   -0.040270
  23 H :    0.036934
  24 H :    0.032287
  25 C :   -0.040995
  26 H :    0.024355
  27 H :    0.027487
  28 C :   -0.067653
  29 H :    0.027971
  30 H :    0.030112
  31 H :    0.016140
  32 H :    0.023476
  33 H :    0.030699

  Mayer bond orders larger than 0.100000
B(  0-S ,  1-C ) :   1.1442 B(  0-S ,  4-C ) :   1.1729 B(  1-C ,  2-C ) :   1.5735
B(  1-C ,  4-C ) :   0.1030 B(  1-C , 32-H ) :   0.9791 B(  2-C ,  3-C ) :   1.2565
B(  2-C ,  6-C ) :   1.0374 B(  3-C ,  4-C ) :   1.5610 B(  3-C ,  5-H ) :   0.9936
B(  4-C , 20-C ) :   1.0308 B(  6-C ,  7-H ) :   0.9379 B(  6-C ,  8-H ) :   0.9303
B(  6-C ,  9-C ) :   1.0450 B(  9-C , 10-H ) :   0.9604 B(  9-C , 11-H ) :   0.9599
B(  9-C , 12-C ) :   1.0757 B( 12-C , 13-H ) :   0.9701 B( 12-C , 14-H ) :   0.9711
B( 12-C , 15-H ) :   0.9733 B( 16-S , 17-C ) :   1.1515 B( 16-S , 20-C ) :   1.1272
B( 17-C , 18-C ) :   1.6135 B( 17-C , 33-H ) :   0.9686 B( 18-C , 19-C ) :   1.2220
B( 18-C , 21-H ) :   0.9913 B( 19-C , 20-C ) :   1.5968 B( 19-C , 22-C ) :   1.0473
B( 22-C , 23-H ) :   0.9416 B( 22-C , 24-H ) :   0.9319 B( 22-C , 25-C ) :   1.0629
B( 25-C , 26-H ) :   0.9600 B( 25-C , 27-H ) :   0.9596 B( 25-C , 28-C ) :   1.0618
B( 28-C , 29-H ) :   0.9767 B( 28-C , 30-H ) :   0.9745 B( 28-C , 31-H ) :   0.9754

Dispersion correction           -0.014757441
FINAL SINGLE POINT ENERGY     -1339.870877045395

DIPOLE MOMENT
-------------
                                X             Y             Z
Electronic contribution:     12.28576      -8.94692       5.80124
Nuclear contribution   :    -12.57984       9.19662      -5.66001
                        -----------------------------------------
Total Dipole Moment    :     -0.29408       0.24970       0.14123
                        -----------------------------------------
Magnitude (a.u.)       :      0.41083
Magnitude (Debye)      :      1.04424

Rotational constants in cm-1:     0.023182     0.007286     0.006464
Rotational constants in MHz :   694.976070   218.427630   193.797393

                             ****ORCA TERMINATED NORMALLY****
TOTAL RUN TIME: 0 days 0 hours 0 minutes 21 seconds 186 msec
