                         Program Version 4.2.1 -  RELEASE  -
|  1> ! wB97X-D3 SP def2-SVP
|  2> %pal
|  3> nprocs 24
|  4> end
|  5>
|  6> * xyz 0 1
|  7> S 	 -34.3307 	 -9.61269 	 17.4743
|  8> C 	 -33.8491 	 -10.7456 	 18.68
|  9> C 	 -34.9131 	 -11.663 	 18.8784
| 10> C 	 -36.0761 	 -11.4507 	 18.1176
| 11> C 	 -35.8123 	 -10.4573 	 17.1771
| 12> H 	 -37.0054 	 -12.0499 	 18.0983
| 13> C 	 -34.8485 	 -12.8864 	 19.755
| 14> H 	 -35.6935 	 -13.0334 	 20.3548
| 15> H 	 -33.9794 	 -12.7338 	 20.3864
| 16> C 	 -34.4929 	 -14.2081 	 19.0395
| 17> H 	 -34.4443 	 -15.0502 	 19.7699
| 18> H 	 -35.2475 	 -14.3817 	 18.2644
| 19> C 	 -33.1018 	 -14.2544 	 18.3143
| 20> H 	 -32.8249 	 -15.3283 	 18.2851
| 21> H 	 -33.0514 	 -13.8092 	 17.2895
| 22> H 	 -32.3355 	 -13.9225 	 18.9442
| 23> S 	 -36.9115 	 -8.20636 	 15.9911
| 24> C 	 -38.1461 	 -8.40355 	 14.7163
| 25> C 	 -38.1272 	 -9.73667 	 14.3641
| 26> C 	 -37.4151 	 -10.6234 	 15.212
| 27> C 	 -36.7424 	 -9.91989 	 16.1844
| 28> H 	 -38.7158 	 -10.0557 	 13.5226
| 29> C 	 -37.4139 	 -12.1061 	 15.1386
| 30> H 	 -38.3625 	 -12.3849 	 15.6233
| 31> H 	 -36.759 	 -12.5866 	 15.8693
| 32> C 	 -37.2492 	 -12.8753 	 13.8348
| 33> H 	 -38.0598 	 -12.6204 	 13.1224
| 34> H 	 -37.4813 	 -13.9287 	 13.9833
| 35> C 	 -35.9375 	 -12.5901 	 13.1121
| 36> H 	 -35.0835 	 -12.9053 	 13.6514
| 37> H 	 -35.8337 	 -11.5066 	 12.8243
| 38> H 	 -35.8749 	 -13.1502 	 12.1195
| 39> H 	 -32.9773 	 -10.6752 	 19.2257
| 40> H 	 -38.7056 	 -7.58835 	 14.1259
| 41> *
| 42>
| 43>                          ****END OF INPUT****

CARTESIAN COORDINATES (ANGSTROEM)
---------------------------------
  S    -34.330700   -9.612690   17.474300
  C    -33.849100  -10.745600   18.680000
  C    -34.913100  -11.663000   18.878400
  C    -36.076100  -11.450700   18.117600
  C    -35.812300  -10.457300   17.177100
  H    -37.005400  -12.049900   18.098300
  C    -34.848500  -12.886400   19.755000
  H    -35.693500  -13.033400   20.354800
  H    -33.979400  -12.733800   20.386400
  C    -34.492900  -14.208100   19.039500
  H    -34.444300  -15.050200   19.769900
  H    -35.247500  -14.381700   18.264400
  C    -33.101800  -14.254400   18.314300
  H    -32.824900  -15.328300   18.285100
  H    -33.051400  -13.809200   17.289500
  H    -32.335500  -13.922500   18.944200
  S    -36.911500   -8.206360   15.991100
  C    -38.146100   -8.403550   14.716300
  C    -38.127200   -9.736670   14.364100
  C    -37.415100  -10.623400   15.212000
  C    -36.742400   -9.919890   16.184400
  H    -38.715800  -10.055700   13.522600
  C    -37.413900  -12.106100   15.138600
  H    -38.362500  -12.384900   15.623300
  H    -36.759000  -12.586600   15.869300
  C    -37.249200  -12.875300   13.834800
  H    -38.059800  -12.620400   13.122400
  H    -37.481300  -13.928700   13.983300
  C    -35.937500  -12.590100   13.112100
  H    -35.083500  -12.905300   13.651400
  H    -35.833700  -11.506600   12.824300
  H    -35.874900  -13.150200   12.119500
  H    -32.977300  -10.675200   19.225700
  H    -38.705600   -7.588350   14.125900

 Total Charge           Charge          ....    0
 Multiplicity           Mult            ....    1
 Number of Electrons    NEL             ....  134
 Basis Dimension        Dim             ....  322

ORBITAL ENERGIES
----------------

  NO   OCC          E(Eh)            E(eV)
   0   2.0000     -88.968717     -2420.9619
   1   2.0000     -88.964081     -2420.8357
   2   2.0000     -10.328926      -281.0644
   3   2.0000     -10.326112      -280.9878
   4   2.0000     -10.321810      -280.8707
   5   2.0000     -10.310773      -280.5704
   6   2.0000     -10.301863      -280.3279
   7   2.0000     -10.299831      -280.2726
   8   2.0000     -10.296010      -280.1687
   9   2.0000     -10.293107      -280.0897
  10   2.0000     -10.291626      -280.0494
  11   2.0000     -10.289978      -280.0045
  12   2.0000     -10.289244      -279.9846
  13   2.0000     -10.282781      -279.8087
  14   2.0000     -10.279572      -279.7214
  15   2.0000     -10.276416      -279.6355
  16   2.0000      -8.084085      -219.9791
  17   2.0000      -8.078589      -219.8296
  18   2.0000      -6.042429      -164.4229
  19   2.0000      -6.038406      -164.3134
  20   2.0000      -6.037212      -164.2809
  21   2.0000      -6.035086      -164.2231
  22   2.0000      -6.033184      -164.1713
  23   2.0000      -6.029162      -164.0618
  24   2.0000      -1.011998       -27.5379
  25   2.0000      -0.987365       -26.8676
  26   2.0000      -0.911176       -24.7944
  27   2.0000      -0.908638       -24.7253
  28   2.0000      -0.867717       -23.6118
  29   2.0000      -0.853536       -23.2259
  30   2.0000      -0.845189       -22.9988
  31   2.0000      -0.814261       -22.1572
  32   2.0000      -0.784165       -21.3382
  33   2.0000      -0.773725       -21.0541
  34   2.0000      -0.706792       -19.2328
  35   2.0000      -0.698451       -19.0058
  36   2.0000      -0.694014       -18.8851
  37   2.0000      -0.655173       -17.8282
  38   2.0000      -0.644270       -17.5315
  39   2.0000      -0.621891       -16.9225
  40   2.0000      -0.598027       -16.2732
  41   2.0000      -0.566876       -15.4255
  42   2.0000      -0.553966       -15.0742
  43   2.0000      -0.550480       -14.9793
  44   2.0000      -0.546244       -14.8641
  45   2.0000      -0.535741       -14.5783
  46   2.0000      -0.518913       -14.1203
  47   2.0000      -0.516428       -14.0527
  48   2.0000      -0.500075       -13.6077
  49   2.0000      -0.498385       -13.5617
  50   2.0000      -0.490620       -13.3504
  51   2.0000      -0.478313       -13.0156
  52   2.0000      -0.470559       -12.8046
  53   2.0000      -0.466196       -12.6858
  54   2.0000      -0.461350       -12.5540
  55   2.0000      -0.447886       -12.1876
  56   2.0000      -0.438503       -11.9323
  57   2.0000      -0.434683       -11.8283
  58   2.0000      -0.431372       -11.7382
  59   2.0000      -0.420912       -11.4536
  60   2.0000      -0.418460       -11.3869
  61   2.0000      -0.414765       -11.2863
  62   2.0000      -0.412435       -11.2229
  63   2.0000      -0.350129        -9.5275
  64   2.0000      -0.332563        -9.0495
  65   2.0000      -0.326227        -8.8771
  66   2.0000      -0.287651        -7.8274
  67   0.0000       0.027705         0.7539
  68   0.0000       0.070935         1.9302
  69   0.0000       0.106217         2.8903
  70   0.0000       0.121550         3.3076
  71   0.0000       0.128433         3.4948

MULLIKEN ATOMIC CHARGES
-----------------------
   0 S :    0.119269
   1 C :   -0.084589
   2 C :   -0.100233
   3 C :    0.014186
   4 C :   -0.157992
   5 H :    0.037420
   6 C :    0.106726
   7 H :    0.019728
   8 H :    0.002685
   9 C :   -0.094593
  10 H :    0.037917
  11 H :    0.025764
  12 C :   -0.057497
  13 H :    0.025020
  14 H :    0.060438
  15 H :    0.007718
  16 S :    0.097169
  17 C :   -0.126578
  18 C :   -0.033640
  19 C :   -0.013256
  20 C :   -0.149187
  21 H :    0.012050
  22 C :    0.040847
  23 H :    0.032174
  24 H :    0.019979
  25 C :   -0.048742
  26 H :    0.018890
  27 H :    0.025008
  28 C :   -0.063647
  29 H :    0.028005
  30 H :    0.050101
  31 H :    0.035939
  32 H :    0.021248
  33 H :    0.091673
Sum of atomic charges:    0.0000000

LOEWDIN ATOMIC CHARGES
----------------------
   0 S :    0.435006
   1 C :   -0.202976
   2 C :   -0.056299
   3 C :   -0.068059
   4 C :   -0.187182
   5 H :    0.041281
   6 C :   -0.032665
   7 H :    0.023212
   8 H :    0.025659
   9 C :   -0.036794
  10 H :    0.028841
  11 H :    0.018807
  12 C :   -0.072168
  13 H :    0.031181
  14 H :    0.033714
  15 H :    0.012774
  16 S :    0.391597
  17 C :   -0.193687
  18 C :   -0.069302
  19 C :   -0.061772
  20 C :   -0.202750
  21 H :    0.027002
  22 C :   -0.042893
  23 H :    0.038701
  24 H :    0.031523
  25 C :   -0.046159
  26 H :    0.023115
  27 H :    0.027808
  28 C :   -0.070155
  29 H :    0.017439
  30 H :    0.034885
  31 H :    0.033102
  32 H :    0.012978
  33 H :    0.054234

  Mayer bond orders larger than 0.100000
B(  0-S ,  1-C ) :   1.1437 B(  0-S ,  4-C ) :   1.1883 B(  1-C ,  2-C ) :   1.5545
B(  1-C ,  4-C ) :   0.1067 B(  1-C , 32-H ) :   0.9847 B(  2-C ,  3-C ) :   1.2667
B(  2-C ,  6-C ) :   1.0423 B(  3-C ,  4-C ) :   1.5145 B(  3-C ,  5-H ) :   0.9906
B(  4-C , 20-C ) :   1.0446 B(  6-C ,  7-H ) :   0.9405 B(  6-C ,  8-H ) :   0.9337
B(  6-C ,  9-C ) :   1.0683 B(  9-C , 10-H ) :   0.9601 B(  9-C , 11-H ) :   0.9570
B(  9-C , 12-C ) :   1.0735 B( 12-C , 13-H ) :   0.9744 B( 12-C , 14-H ) :   0.9754
B( 12-C , 15-H ) :   0.9730 B( 16-S , 17-C ) :   1.1318 B( 16-S , 20-C ) :   1.1414
B( 17-C , 18-C ) :   1.6143 B( 17-C , 33-H ) :   0.9585 B( 18-C , 19-C ) :   1.2425
B( 18-C , 21-H ) :   0.9887 B( 19-C , 20-C ) :   1.5769 B( 19-C , 22-C ) :   1.0467
B( 22-C , 23-H ) :   0.9201 B( 22-C , 24-H ) :   0.9233 B( 22-C , 25-C ) :   1.0850
B( 25-C , 26-H ) :   0.9491 B( 25-C , 27-H ) :   0.9480 B( 25-C , 28-C ) :   1.0764
B( 28-C , 29-H ) :   0.9773 B( 28-C , 30-H ) :   0.9719 B( 28-C , 31-H ) :   0.9726

Dispersion correction           -0.014988416
FINAL SINGLE POINT ENERGY     -1339.871727915514

DIPOLE MOMENT
-------------
                                X             Y             Z
Electronic contribution:     -3.44868      27.93834       3.50432
Nuclear contribution   :      3.29008     -28.59726      -3.58675
                        -----------------------------------------
Total Dipole Moment    :     -0.15860      -0.65892      -0.08243
                        -----------------------------------------
Magnitude (a.u.)       :      0.68273
Magnitude (Debye)      :      1.73537

Rotational constants in cm-1:     0.019270     0.009660     0.007347
Rotational constants in MHz :   577.688541   289.606527   220.259469

                             ****ORCA TERMINATED NORMALLY****
TOTAL RUN TIME: 0 days 0 hours 0 minutes 22 seconds 303 msec
