                         Program Version 4.2.1 -  RELEASE  -
|  1> ! wB97X-D3 SP def2-SVP
|  2> %pal
|  3> nprocs 24
|  4> end
|  5>
|  6> * xyz 0 1
|  7> S 	 -58.8371 	 13.8112 	 -98.617
|  8> C 	 -57.7918 	 15.1184 	 -98.1476
|  9> C 	 -56.6028 	 15.1163 	 -98.7877
| 10> C 	 -56.4102 	 13.9499 	 -99.5259
| 11> C 	 -57.5255 	 13.077 	 -99.4833
| 12> H 	 -55.6345 	 13.6789 	 -100.141
| 13> C 	 -55.48 	 16.1436 	 -98.6662
| 14> H 	 -55.7922 	 16.9489 	 -98.038
| 15> H 	 -55.4321 	 16.5091 	 -99.6559
| 16> C 	 -54.0685 	 15.8016 	 -98.3457
| 17> H 	 -53.6182 	 15.1111 	 -99.0758
| 18> H 	 -53.3973 	 16.6631 	 -98.5
| 19> C 	 -53.8217 	 15.3929 	 -96.8426
| 20> H 	 -52.815 	 15.2164 	 -96.4882
| 21> H 	 -54.2942 	 16.074 	 -96.1413
| 22> H 	 -54.4026 	 14.4515 	 -96.7203
| 23> S 	 -57.5158 	 10.3301 	 -99.0395
| 24> C 	 -57.7878 	 9.21738 	 -100.385
| 25> C 	 -57.7523 	 9.9377 	 -101.57
| 26> C 	 -57.7066 	 11.4072 	 -101.393
| 27> C 	 -57.7102 	 11.7804 	 -100.059
| 28> H 	 -57.9168 	 9.49124 	 -102.496
| 29> C 	 -57.6469 	 12.3736 	 -102.596
| 30> H 	 -56.5828 	 12.7727 	 -102.686
| 31> H 	 -58.2593 	 13.2053 	 -102.291
| 32> C 	 -58.2279 	 11.7798 	 -103.926
| 33> H 	 -59.3045 	 11.7133 	 -103.806
| 34> H 	 -57.6967 	 10.8503 	 -104.147
| 35> C 	 -58.0047 	 12.7673 	 -105.056
| 36> H 	 -58.7014 	 12.5529 	 -105.849
| 37> H 	 -56.995 	 12.644 	 -105.442
| 38> H 	 -58.1166 	 13.7965 	 -104.742
| 39> H 	 -57.9993 	 15.8073 	 -97.4062
| 40> H 	 -57.7366 	 8.1189 	 -100.276
| 41> *
| 42>
| 43>                          ****END OF INPUT****

CARTESIAN COORDINATES (ANGSTROEM)
---------------------------------
  S    -58.837100   13.811200  -98.617000
  C    -57.791800   15.118400  -98.147600
  C    -56.602800   15.116300  -98.787700
  C    -56.410200   13.949900  -99.525900
  C    -57.525500   13.077000  -99.483300
  H    -55.634500   13.678900  -100.141000
  C    -55.480000   16.143600  -98.666200
  H    -55.792200   16.948900  -98.038000
  H    -55.432100   16.509100  -99.655900
  C    -54.068500   15.801600  -98.345700
  H    -53.618200   15.111100  -99.075800
  H    -53.397300   16.663100  -98.500000
  C    -53.821700   15.392900  -96.842600
  H    -52.815000   15.216400  -96.488200
  H    -54.294200   16.074000  -96.141300
  H    -54.402600   14.451500  -96.720300
  S    -57.515800   10.330100  -99.039500
  C    -57.787800    9.217380  -100.385000
  C    -57.752300    9.937700  -101.570000
  C    -57.706600   11.407200  -101.393000
  C    -57.710200   11.780400  -100.059000
  H    -57.916800    9.491240  -102.496000
  C    -57.646900   12.373600  -102.596000
  H    -56.582800   12.772700  -102.686000
  H    -58.259300   13.205300  -102.291000
  C    -58.227900   11.779800  -103.926000
  H    -59.304500   11.713300  -103.806000
  H    -57.696700   10.850300  -104.147000
  C    -58.004700   12.767300  -105.056000
  H    -58.701400   12.552900  -105.849000
  H    -56.995000   12.644000  -105.442000
  H    -58.116600   13.796500  -104.742000
  H    -57.999300   15.807300  -97.406200
  H    -57.736600    8.118900  -100.276000

 Total Charge           Charge          ....    0
 Multiplicity           Mult            ....    1
 Number of Electrons    NEL             ....  134
 Basis Dimension        Dim             ....  322

ORBITAL ENERGIES
----------------

  NO   OCC          E(Eh)            E(eV)
   0   2.0000     -88.965607     -2420.8772
   1   2.0000     -88.959473     -2420.7103
   2   2.0000     -10.325693      -280.9764
   3   2.0000     -10.323817      -280.9254
   4   2.0000     -10.322130      -280.8794
   5   2.0000     -10.307306      -280.4761
   6   2.0000     -10.303300      -280.3670
   7   2.0000     -10.298070      -280.2247
   8   2.0000     -10.295687      -280.1599
   9   2.0000     -10.293351      -280.0963
  10   2.0000     -10.291278      -280.0399
  11   2.0000     -10.289516      -279.9920
  12   2.0000     -10.288469      -279.9635
  13   2.0000     -10.287191      -279.9287
  14   2.0000     -10.277386      -279.6619
  15   2.0000     -10.274164      -279.5742
  16   2.0000      -8.080877      -219.8918
  17   2.0000      -8.073719      -219.6971
  18   2.0000      -6.039194      -164.3348
  19   2.0000      -6.035313      -164.2292
  20   2.0000      -6.032413      -164.1503
  21   2.0000      -6.031808      -164.1339
  22   2.0000      -6.028301      -164.0384
  23   2.0000      -6.024284      -163.9291
  24   2.0000      -1.006978       -27.4013
  25   2.0000      -0.979114       -26.6431
  26   2.0000      -0.915690       -24.9172
  27   2.0000      -0.906776       -24.6746
  28   2.0000      -0.871581       -23.7169
  29   2.0000      -0.849872       -23.1262
  30   2.0000      -0.842697       -22.9310
  31   2.0000      -0.812164       -22.1001
  32   2.0000      -0.787131       -21.4189
  33   2.0000      -0.770229       -20.9590
  34   2.0000      -0.711267       -19.3546
  35   2.0000      -0.700984       -19.0747
  36   2.0000      -0.696772       -18.9601
  37   2.0000      -0.652169       -17.7464
  38   2.0000      -0.649263       -17.6673
  39   2.0000      -0.621124       -16.9016
  40   2.0000      -0.593778       -16.1575
  41   2.0000      -0.575336       -15.6557
  42   2.0000      -0.565427       -15.3861
  43   2.0000      -0.559213       -15.2170
  44   2.0000      -0.540691       -14.7130
  45   2.0000      -0.528024       -14.3683
  46   2.0000      -0.517905       -14.0929
  47   2.0000      -0.514819       -14.0089
  48   2.0000      -0.502760       -13.6808
  49   2.0000      -0.497934       -13.5495
  50   2.0000      -0.489101       -13.3091
  51   2.0000      -0.474780       -12.9194
  52   2.0000      -0.471720       -12.8361
  53   2.0000      -0.467809       -12.7297
  54   2.0000      -0.456288       -12.4162
  55   2.0000      -0.449495       -12.2314
  56   2.0000      -0.445752       -12.1295
  57   2.0000      -0.441265       -12.0074
  58   2.0000      -0.433019       -11.7831
  59   2.0000      -0.432663       -11.7734
  60   2.0000      -0.424216       -11.5435
  61   2.0000      -0.410998       -11.1838
  62   2.0000      -0.401851       -10.9349
  63   2.0000      -0.335320        -9.1245
  64   2.0000      -0.328196        -8.9307
  65   2.0000      -0.319315        -8.6890
  66   2.0000      -0.306377        -8.3369
  67   0.0000       0.033168         0.9026
  68   0.0000       0.060590         1.6487
  69   0.0000       0.114825         3.1246
  70   0.0000       0.119178         3.2430
  71   0.0000       0.137535         3.7425

MULLIKEN ATOMIC CHARGES
-----------------------
   0 S :    0.128251
   1 C :   -0.101745
   2 C :   -0.062082
   3 C :    0.071962
   4 C :   -0.218693
   5 H :   -0.027103
   6 C :    0.120603
   7 H :    0.005914
   8 H :    0.023231
   9 C :   -0.075572
  10 H :    0.026051
  11 H :    0.026341
  12 C :   -0.062574
  13 H :    0.039399
  14 H :    0.022526
  15 H :    0.037102
  16 S :    0.091751
  17 C :   -0.096927
  18 C :   -0.015643
  19 C :   -0.046101
  20 C :   -0.150493
  21 H :    0.002157
  22 C :    0.043005
  23 H :    0.050216
  24 H :    0.031545
  25 C :   -0.105048
  26 H :    0.041518
  27 H :    0.046277
  28 C :   -0.018166
  29 H :    0.029954
  30 H :    0.027715
  31 H :    0.027611
  32 H :    0.010250
  33 H :    0.076767
Sum of atomic charges:    0.0000000

LOEWDIN ATOMIC CHARGES
----------------------
   0 S :    0.425928
   1 C :   -0.188887
   2 C :   -0.064015
   3 C :   -0.044482
   4 C :   -0.199743
   5 H :    0.016288
   6 C :   -0.025734
   7 H :    0.026248
   8 H :    0.036704
   9 C :   -0.044581
  10 H :    0.024101
  11 H :    0.028323
  12 C :   -0.072204
  13 H :    0.023932
  14 H :    0.022285
  15 H :    0.030745
  16 S :    0.381864
  17 C :   -0.176846
  18 C :   -0.071264
  19 C :   -0.046440
  20 C :   -0.211858
  21 H :    0.016480
  22 C :   -0.035343
  23 H :    0.038826
  24 H :    0.030399
  25 C :   -0.038432
  26 H :    0.029008
  27 H :    0.025118
  28 C :   -0.060871
  29 H :    0.024405
  30 H :    0.024806
  31 H :    0.023832
  32 H :    0.012455
  33 H :    0.038956

  Mayer bond orders larger than 0.100000
B(  0-S ,  1-C ) :   1.1451 B(  0-S ,  4-C ) :   1.1734 B(  1-C ,  2-C ) :   1.6090
B(  1-C ,  4-C ) :   0.1004 B(  1-C , 32-H ) :   0.9732 B(  2-C ,  3-C ) :   1.2367
B(  2-C ,  6-C ) :   1.0133 B(  3-C ,  4-C ) :   1.5542 B(  3-C ,  5-H ) :   1.0164
B(  4-C , 20-C ) :   1.0388 B(  6-C ,  7-H ) :   0.9396 B(  6-C ,  8-H ) :   0.9173
B(  6-C ,  9-C ) :   1.0984 B(  9-C , 10-H ) :   0.9483 B(  9-C , 11-H ) :   0.9486
B(  9-C , 12-C ) :   1.0595 B( 12-C , 13-H ) :   0.9789 B( 12-C , 14-H ) :   0.9751
B( 12-C , 15-H ) :   0.9790 B( 16-S , 17-C ) :   1.1514 B( 16-S , 20-C ) :   1.1228
B( 17-C , 18-C ) :   1.6113 B( 17-C , 33-H ) :   0.9632 B( 18-C , 19-C ) :   1.2262
B( 18-C , 21-H ) :   0.9909 B( 19-C , 20-C ) :   1.6188 B( 19-C , 22-C ) :   1.0283
B( 22-C , 23-H ) :   0.9356 B( 22-C , 24-H ) :   0.9283 B( 22-C , 25-C ) :   1.0743
B( 25-C , 26-H ) :   0.9587 B( 25-C , 27-H ) :   0.9505 B( 25-C , 28-C ) :   1.0899
B( 28-C , 29-H ) :   0.9738 B( 28-C , 30-H ) :   0.9754 B( 28-C , 31-H ) :   0.9719

Dispersion correction           -0.013896302
FINAL SINGLE POINT ENERGY     -1339.866255533017

DIPOLE MOMENT
-------------
                                X             Y             Z
Electronic contribution:    -13.41138     -12.38408      12.81365
Nuclear contribution   :     13.79680      12.65643     -13.35600
                        -----------------------------------------
Total Dipole Moment    :      0.38541       0.27235      -0.54235
                        -----------------------------------------
Magnitude (a.u.)       :      0.71893
Magnitude (Debye)      :      1.82737

Rotational constants in cm-1:     0.018009     0.007869     0.006786
Rotational constants in MHz :   539.906321   235.914230   203.425359

                             ****ORCA TERMINATED NORMALLY****
TOTAL RUN TIME: 0 days 0 hours 0 minutes 21 seconds 205 msec
