                         Program Version 4.2.1 -  RELEASE  -
|  1> ! wB97X-D3 SP def2-SVP
|  2> %pal
|  3> nprocs 24
|  4> end
|  5>
|  6> * xyz 0 1
|  7> S 	 -105.655 	 50.9585 	 -71.4184
|  8> C 	 -106.793 	 51.2436 	 -72.6394
|  9> C 	 -107.713 	 52.23 	 -72.2683
| 10> C 	 -107.533 	 52.5578 	 -70.8627
| 11> C 	 -106.33 	 52.109 	 -70.3052
| 12> H 	 -108.269 	 53.1169 	 -70.3108
| 13> C 	 -108.838 	 52.7001 	 -73.1547
| 14> H 	 -109.099 	 53.6708 	 -72.689
| 15> H 	 -109.765 	 52.0822 	 -72.9877
| 16> C 	 -108.464 	 52.8542 	 -74.6612
| 17> H 	 -107.581 	 53.4121 	 -74.8294
| 18> H 	 -108.228 	 51.8478 	 -74.9946
| 19> C 	 -109.561 	 53.7218 	 -75.3644
| 20> H 	 -109.874 	 54.5789 	 -74.7137
| 21> H 	 -109.292 	 54.0942 	 -76.3948
| 22> H 	 -110.491 	 53.1586 	 -75.4366
| 23> S 	 -106.325 	 50.5978 	 -68.0404
| 24> C 	 -106.225 	 51.4459 	 -66.5628
| 25> C 	 -106.01 	 52.8299 	 -66.7228
| 26> C 	 -105.9 	 53.2081 	 -68.051
| 27> C 	 -106 	 52.1261 	 -68.9056
| 28> H 	 -106.092 	 53.4297 	 -65.816
| 29> C 	 -105.708 	 54.6814 	 -68.4071
| 30> H 	 -106.727 	 55.1813 	 -68.2322
| 31> H 	 -105.482 	 54.7425 	 -69.4734
| 32> C 	 -104.72 	 55.4787 	 -67.595
| 33> H 	 -103.711 	 55.0042 	 -67.8251
| 34> H 	 -104.922 	 55.433 	 -66.5033
| 35> C 	 -104.742 	 56.9068 	 -68.0249
| 36> H 	 -104.615 	 57.01 	 -69.1404
| 37> H 	 -104.029 	 57.5374 	 -67.4896
| 38> H 	 -105.734 	 57.2304 	 -67.713
| 39> H 	 -106.827 	 50.7556 	 -73.6591
| 40> H 	 -106.516 	 51.086 	 -65.5837
| 41> *
| 42>
| 43>                          ****END OF INPUT****

CARTESIAN COORDINATES (ANGSTROEM)
---------------------------------
  S    -105.655000   50.958500  -71.418400
  C    -106.793000   51.243600  -72.639400
  C    -107.713000   52.230000  -72.268300
  C    -107.533000   52.557800  -70.862700
  C    -106.330000   52.109000  -70.305200
  H    -108.269000   53.116900  -70.310800
  C    -108.838000   52.700100  -73.154700
  H    -109.099000   53.670800  -72.689000
  H    -109.765000   52.082200  -72.987700
  C    -108.464000   52.854200  -74.661200
  H    -107.581000   53.412100  -74.829400
  H    -108.228000   51.847800  -74.994600
  C    -109.561000   53.721800  -75.364400
  H    -109.874000   54.578900  -74.713700
  H    -109.292000   54.094200  -76.394800
  H    -110.491000   53.158600  -75.436600
  S    -106.325000   50.597800  -68.040400
  C    -106.225000   51.445900  -66.562800
  C    -106.010000   52.829900  -66.722800
  C    -105.900000   53.208100  -68.051000
  C    -106.000000   52.126100  -68.905600
  H    -106.092000   53.429700  -65.816000
  C    -105.708000   54.681400  -68.407100
  H    -106.727000   55.181300  -68.232200
  H    -105.482000   54.742500  -69.473400
  C    -104.720000   55.478700  -67.595000
  H    -103.711000   55.004200  -67.825100
  H    -104.922000   55.433000  -66.503300
  C    -104.742000   56.906800  -68.024900
  H    -104.615000   57.010000  -69.140400
  H    -104.029000   57.537400  -67.489600
  H    -105.734000   57.230400  -67.713000
  H    -106.827000   50.755600  -73.659100
  H    -106.516000   51.086000  -65.583700

 Total Charge           Charge          ....    0
 Multiplicity           Mult            ....    1
 Number of Electrons    NEL             ....  134
 Basis Dimension        Dim             ....  322

ORBITAL ENERGIES
----------------

  NO   OCC          E(Eh)            E(eV)
   0   2.0000     -88.967839     -2420.9380
   1   2.0000     -88.962448     -2420.7913
   2   2.0000     -10.324032      -280.9312
   3   2.0000     -10.322675      -280.8943
   4   2.0000     -10.314939      -280.6838
   5   2.0000     -10.313817      -280.6532
   6   2.0000     -10.301267      -280.3117
   7   2.0000     -10.299960      -280.2762
   8   2.0000     -10.298508      -280.2367
   9   2.0000     -10.295767      -280.1621
  10   2.0000     -10.295707      -280.1604
  11   2.0000     -10.291521      -280.0465
  12   2.0000     -10.289195      -279.9832
  13   2.0000     -10.289147      -279.9819
  14   2.0000     -10.288816      -279.9729
  15   2.0000     -10.280089      -279.7354
  16   2.0000      -8.082735      -219.9424
  17   2.0000      -8.078297      -219.8217
  18   2.0000      -6.041051      -164.3853
  19   2.0000      -6.037296      -164.2832
  20   2.0000      -6.036711      -164.2673
  21   2.0000      -6.033595      -164.1825
  22   2.0000      -6.032458      -164.1515
  23   2.0000      -6.029287      -164.0652
  24   2.0000      -1.009463       -27.4689
  25   2.0000      -0.986360       -26.8402
  26   2.0000      -0.917731       -24.9727
  27   2.0000      -0.908674       -24.7263
  28   2.0000      -0.867794       -23.6139
  29   2.0000      -0.859101       -23.3773
  30   2.0000      -0.845533       -23.0081
  31   2.0000      -0.806307       -21.9407
  32   2.0000      -0.779853       -21.2209
  33   2.0000      -0.764835       -20.8122
  34   2.0000      -0.713637       -19.4191
  35   2.0000      -0.696409       -18.9503
  36   2.0000      -0.690813       -18.7980
  37   2.0000      -0.655655       -17.8413
  38   2.0000      -0.636438       -17.3184
  39   2.0000      -0.612458       -16.6658
  40   2.0000      -0.596937       -16.2435
  41   2.0000      -0.574135       -15.6230
  42   2.0000      -0.567879       -15.4528
  43   2.0000      -0.561059       -15.2672
  44   2.0000      -0.526287       -14.3210
  45   2.0000      -0.521652       -14.1949
  46   2.0000      -0.518443       -14.1075
  47   2.0000      -0.511875       -13.9288
  48   2.0000      -0.499352       -13.5881
  49   2.0000      -0.496199       -13.5023
  50   2.0000      -0.491158       -13.3651
  51   2.0000      -0.474118       -12.9014
  52   2.0000      -0.470538       -12.8040
  53   2.0000      -0.464692       -12.6449
  54   2.0000      -0.455801       -12.4030
  55   2.0000      -0.449044       -12.2191
  56   2.0000      -0.448119       -12.1939
  57   2.0000      -0.440174       -11.9777
  58   2.0000      -0.432478       -11.7683
  59   2.0000      -0.429142       -11.6775
  60   2.0000      -0.419006       -11.4017
  61   2.0000      -0.414803       -11.2874
  62   2.0000      -0.414366       -11.2755
  63   2.0000      -0.341366        -9.2890
  64   2.0000      -0.334278        -9.0962
  65   2.0000      -0.319326        -8.6893
  66   2.0000      -0.291222        -7.9245
  67   0.0000       0.034385         0.9357
  68   0.0000       0.060274         1.6401
  69   0.0000       0.117491         3.1971
  70   0.0000       0.118519         3.2251
  71   0.0000       0.129046         3.5115

MULLIKEN ATOMIC CHARGES
-----------------------
   0 S :    0.110780
   1 C :   -0.143033
   2 C :   -0.110068
   3 C :    0.033499
   4 C :   -0.165887
   5 H :    0.011141
   6 C :    0.022430
   7 H :    0.018590
   8 H :    0.056069
   9 C :   -0.055273
  10 H :    0.029178
  11 H :    0.032091
  12 C :   -0.068943
  13 H :    0.036965
  14 H :    0.049974
  15 H :    0.026002
  16 S :    0.126940
  17 C :   -0.086936
  18 C :   -0.075116
  19 C :    0.007673
  20 C :   -0.152355
  21 H :    0.023044
  22 C :    0.035824
  23 H :    0.035465
  24 H :    0.031625
  25 C :   -0.100390
  26 H :    0.041397
  27 H :    0.037900
  28 C :   -0.029839
  29 H :    0.042061
  30 H :    0.037415
  31 H :    0.016596
  32 H :    0.073555
  33 H :    0.051625
Sum of atomic charges:    0.0000000

LOEWDIN ATOMIC CHARGES
----------------------
   0 S :    0.432372
   1 C :   -0.227165
   2 C :   -0.073037
   3 C :   -0.051530
   4 C :   -0.218394
   5 H :    0.026660
   6 C :   -0.039051
   7 H :    0.028841
   8 H :    0.040476
   9 C :   -0.035920
  10 H :    0.022957
  11 H :    0.021875
  12 C :   -0.070959
  13 H :    0.031974
  14 H :    0.031457
  15 H :    0.022151
  16 S :    0.422342
  17 C :   -0.195735
  18 C :   -0.078092
  19 C :   -0.051155
  20 C :   -0.200369
  21 H :    0.032636
  22 C :   -0.033045
  23 H :    0.037290
  24 H :    0.030970
  25 C :   -0.050747
  26 H :    0.030338
  27 H :    0.025943
  28 C :   -0.063978
  29 H :    0.032306
  30 H :    0.026447
  31 H :    0.022933
  32 H :    0.041286
  33 H :    0.027926

  Mayer bond orders larger than 0.100000
B(  0-S ,  1-C ) :   1.1705 B(  0-S ,  4-C ) :   1.1527 B(  1-C ,  2-C ) :   1.5673
B(  1-C , 32-H ) :   0.9587 B(  2-C ,  3-C ) :   1.2810 B(  2-C ,  6-C ) :   1.0197
B(  3-C ,  4-C ) :   1.5371 B(  3-C ,  5-H ) :   0.9921 B(  4-C , 20-C ) :   1.0318
B(  6-C ,  7-H ) :   0.9427 B(  6-C ,  8-H ) :   0.9369 B(  6-C ,  9-C ) :   1.0533
B(  9-C , 10-H ) :   0.9648 B(  9-C , 11-H ) :   0.9542 B(  9-C , 12-C ) :   1.0661
B( 12-C , 13-H ) :   0.9745 B( 12-C , 14-H ) :   0.9771 B( 12-C , 15-H ) :   0.9758
B( 16-S , 17-C ) :   1.1839 B( 16-S , 20-C ) :   1.1389 B( 17-C , 18-C ) :   1.5936
B( 17-C , 33-H ) :   0.9620 B( 18-C , 19-C ) :   1.2564 B( 18-C , 21-H ) :   0.9905
B( 19-C , 20-C ) :   1.5920 B( 19-C , 22-C ) :   1.0308 B( 22-C , 23-H ) :   0.9293
B( 22-C , 24-H ) :   0.9366 B( 22-C , 25-C ) :   1.0693 B( 25-C , 26-H ) :   0.9509
B( 25-C , 27-H ) :   0.9471 B( 25-C , 28-C ) :   1.0869 B( 28-C , 29-H ) :   0.9713
B( 28-C , 30-H ) :   0.9719 B( 28-C , 31-H ) :   0.9712

Dispersion correction           -0.013202584
FINAL SINGLE POINT ENERGY     -1339.870099325802

DIPOLE MOMENT
-------------
                                X             Y             Z
Electronic contribution:      7.74080     -24.35531      10.36134
Nuclear contribution   :     -8.29758      24.87488     -10.34166
                        -----------------------------------------
Total Dipole Moment    :     -0.55678       0.51957       0.01969
                        -----------------------------------------
Magnitude (a.u.)       :      0.76181
Magnitude (Debye)      :      1.93636

Rotational constants in cm-1:     0.018638     0.007473     0.005934
Rotational constants in MHz :   558.750782   224.037462   177.902243

                             ****ORCA TERMINATED NORMALLY****
TOTAL RUN TIME: 0 days 0 hours 0 minutes 20 seconds 833 msec
