                         Program Version 4.2.1 -  RELEASE  -
|  1> ! wB97X-D3 SP def2-SVP
|  2> %pal
|  3> nprocs 24
|  4> end
|  5>
|  6> * xyz 0 1
|  7> S 	 -44.4784 	 10.2211 	 -22.3525
|  8> C 	 -45.2266 	 9.9514 	 -20.8381
|  9> C 	 -46.5395 	 10.3361 	 -20.8391
| 10> C 	 -46.9307 	 10.8848 	 -22.0666
| 11> C 	 -45.9112 	 11.0274 	 -22.9558
| 12> H 	 -47.8884 	 11.2953 	 -22.3989
| 13> C 	 -47.487 	 10.2217 	 -19.659
| 14> H 	 -47.8106 	 11.2239 	 -19.4679
| 15> H 	 -46.9688 	 9.95334 	 -18.8133
| 16> C 	 -48.6692 	 9.24892 	 -19.7678
| 17> H 	 -48.3502 	 8.2347 	 -19.8429
| 18> H 	 -49.1964 	 9.39173 	 -18.8483
| 19> C 	 -49.5725 	 9.28788 	 -20.9799
| 20> H 	 -50.4657 	 8.66837 	 -20.9029
| 21> H 	 -49.9629 	 10.2572 	 -21.2411
| 22> H 	 -48.9697 	 8.97379 	 -21.8656
| 23> S 	 -45.9111 	 10.4861 	 -25.6243
| 24> C 	 -46.3095 	 11.7903 	 -26.7432
| 25> C 	 -46.6754 	 12.8928 	 -26.0238
| 26> C 	 -46.411 	 12.8353 	 -24.6354
| 27> C 	 -46.0179 	 11.5644 	 -24.2473
| 28> H 	 -47.0975 	 13.7735 	 -26.4636
| 29> C 	 -46.9037 	 13.933 	 -23.6982
| 30> H 	 -47.0024 	 13.4253 	 -22.7585
| 31> H 	 -47.9314 	 14.2397 	 -24.0579
| 32> C 	 -45.9892 	 15.1282 	 -23.4793
| 33> H 	 -45.8533 	 15.6881 	 -24.4596
| 34> H 	 -44.9616 	 14.843 	 -23.2393
| 35> C 	 -46.496 	 16.1576 	 -22.5083
| 36> H 	 -46.6787 	 15.6452 	 -21.5524
| 37> H 	 -47.4948 	 16.4959 	 -22.8439
| 38> H 	 -45.8309 	 17.0317 	 -22.3913
| 39> H 	 -44.6821 	 9.69257 	 -19.9235
| 40> H 	 -46.4966 	 11.6515 	 -27.7562
| 41> *
| 42>
| 43>                          ****END OF INPUT****

CARTESIAN COORDINATES (ANGSTROEM)
---------------------------------
  S    -44.478400   10.221100  -22.352500
  C    -45.226600    9.951400  -20.838100
  C    -46.539500   10.336100  -20.839100
  C    -46.930700   10.884800  -22.066600
  C    -45.911200   11.027400  -22.955800
  H    -47.888400   11.295300  -22.398900
  C    -47.487000   10.221700  -19.659000
  H    -47.810600   11.223900  -19.467900
  H    -46.968800    9.953340  -18.813300
  C    -48.669200    9.248920  -19.767800
  H    -48.350200    8.234700  -19.842900
  H    -49.196400    9.391730  -18.848300
  C    -49.572500    9.287880  -20.979900
  H    -50.465700    8.668370  -20.902900
  H    -49.962900   10.257200  -21.241100
  H    -48.969700    8.973790  -21.865600
  S    -45.911100   10.486100  -25.624300
  C    -46.309500   11.790300  -26.743200
  C    -46.675400   12.892800  -26.023800
  C    -46.411000   12.835300  -24.635400
  C    -46.017900   11.564400  -24.247300
  H    -47.097500   13.773500  -26.463600
  C    -46.903700   13.933000  -23.698200
  H    -47.002400   13.425300  -22.758500
  H    -47.931400   14.239700  -24.057900
  C    -45.989200   15.128200  -23.479300
  H    -45.853300   15.688100  -24.459600
  H    -44.961600   14.843000  -23.239300
  C    -46.496000   16.157600  -22.508300
  H    -46.678700   15.645200  -21.552400
  H    -47.494800   16.495900  -22.843900
  H    -45.830900   17.031700  -22.391300
  H    -44.682100    9.692570  -19.923500
  H    -46.496600   11.651500  -27.756200

 Total Charge           Charge          ....    0
 Multiplicity           Mult            ....    1
 Number of Electrons    NEL             ....  134
 Basis Dimension        Dim             ....  322

ORBITAL ENERGIES
----------------

  NO   OCC          E(Eh)            E(eV)
   0   2.0000     -88.964266     -2420.8407
   1   2.0000     -88.963775     -2420.8274
   2   2.0000     -10.321470      -280.8615
   3   2.0000     -10.319814      -280.8164
   4   2.0000     -10.312348      -280.6133
   5   2.0000     -10.310473      -280.5622
   6   2.0000     -10.298715      -280.2423
   7   2.0000     -10.296196      -280.1737
   8   2.0000     -10.293476      -280.0997
   9   2.0000     -10.290011      -280.0054
  10   2.0000     -10.288645      -279.9683
  11   2.0000     -10.284984      -279.8686
  12   2.0000     -10.284203      -279.8474
  13   2.0000     -10.281106      -279.7631
  14   2.0000     -10.279119      -279.7090
  15   2.0000     -10.275356      -279.6066
  16   2.0000      -8.079937      -219.8663
  17   2.0000      -8.078496      -219.8271
  18   2.0000      -6.038274      -164.3098
  19   2.0000      -6.037065      -164.2769
  20   2.0000      -6.034340      -164.2027
  21   2.0000      -6.033031      -164.1671
  22   2.0000      -6.030792      -164.1062
  23   2.0000      -6.029164      -164.0619
  24   2.0000      -1.015999       -27.6467
  25   2.0000      -0.989444       -26.9241
  26   2.0000      -0.915638       -24.9158
  27   2.0000      -0.909574       -24.7508
  28   2.0000      -0.879583       -23.9347
  29   2.0000      -0.854919       -23.2635
  30   2.0000      -0.849179       -23.1073
  31   2.0000      -0.819635       -22.3034
  32   2.0000      -0.788366       -21.4525
  33   2.0000      -0.772235       -21.0136
  34   2.0000      -0.708967       -19.2920
  35   2.0000      -0.701232       -19.0815
  36   2.0000      -0.691967       -18.8294
  37   2.0000      -0.664913       -18.0932
  38   2.0000      -0.648788       -17.6544
  39   2.0000      -0.619206       -16.8494
  40   2.0000      -0.598586       -16.2884
  41   2.0000      -0.575457       -15.6590
  42   2.0000      -0.563523       -15.3342
  43   2.0000      -0.549692       -14.9579
  44   2.0000      -0.538972       -14.6662
  45   2.0000      -0.530002       -14.4221
  46   2.0000      -0.525610       -14.3026
  47   2.0000      -0.513732       -13.9794
  48   2.0000      -0.510336       -13.8869
  49   2.0000      -0.502433       -13.6719
  50   2.0000      -0.492011       -13.3883
  51   2.0000      -0.487653       -13.2697
  52   2.0000      -0.469481       -12.7752
  53   2.0000      -0.467794       -12.7293
  54   2.0000      -0.456902       -12.4329
  55   2.0000      -0.449158       -12.2222
  56   2.0000      -0.443143       -12.0585
  57   2.0000      -0.438908       -11.9433
  58   2.0000      -0.433818       -11.8048
  59   2.0000      -0.425401       -11.5758
  60   2.0000      -0.421523       -11.4702
  61   2.0000      -0.414825       -11.2880
  62   2.0000      -0.406472       -11.0607
  63   2.0000      -0.345727        -9.4077
  64   2.0000      -0.330511        -8.9937
  65   2.0000      -0.330300        -8.9879
  66   2.0000      -0.296756        -8.0752
  67   0.0000       0.035705         0.9716
  68   0.0000       0.061673         1.6782
  69   0.0000       0.109235         2.9724
  70   0.0000       0.126834         3.4513
  71   0.0000       0.132459         3.6044

MULLIKEN ATOMIC CHARGES
-----------------------
   0 S :    0.122716
   1 C :   -0.124754
   2 C :   -0.106789
   3 C :    0.034481
   4 C :   -0.197191
   5 H :    0.021198
   6 C :    0.148314
   7 H :    0.020704
   8 H :   -0.014826
   9 C :   -0.044332
  10 H :    0.023271
  11 H :    0.024723
  12 C :   -0.071464
  13 H :    0.036544
  14 H :    0.013784
  15 H :    0.046728
  16 S :    0.103443
  17 C :   -0.057872
  18 C :   -0.030712
  19 C :   -0.022710
  20 C :   -0.161594
  21 H :    0.011033
  22 C :    0.058254
  23 H :    0.008157
  24 H :    0.036105
  25 C :   -0.084807
  26 H :    0.021956
  27 H :    0.031125
  28 C :   -0.031950
  29 H :    0.025396
  30 H :    0.020463
  31 H :    0.047763
  32 H :    0.054466
  33 H :    0.038377
Sum of atomic charges:    0.0000000

LOEWDIN ATOMIC CHARGES
----------------------
   0 S :    0.419851
   1 C :   -0.208533
   2 C :   -0.068568
   3 C :   -0.058242
   4 C :   -0.201180
   5 H :    0.036049
   6 C :   -0.019104
   7 H :    0.029700
   8 H :    0.019760
   9 C :   -0.034256
  10 H :    0.026127
  11 H :    0.022716
  12 C :   -0.070354
  13 H :    0.029153
  14 H :    0.013296
  15 H :    0.032988
  16 S :    0.400313
  17 C :   -0.171795
  18 C :   -0.063424
  19 C :   -0.056203
  20 C :   -0.199551
  21 H :    0.027120
  22 C :   -0.031133
  23 H :    0.024422
  24 H :    0.037334
  25 C :   -0.050039
  26 H :    0.024398
  27 H :    0.025430
  28 C :   -0.066767
  29 H :    0.023580
  30 H :    0.024147
  31 H :    0.031467
  32 H :    0.033392
  33 H :    0.017906

  Mayer bond orders larger than 0.100000
B(  0-S ,  1-C ) :   1.1492 B(  0-S ,  4-C ) :   1.1479 B(  1-C ,  2-C ) :   1.6153
B(  1-C , 32-H ) :   0.9620 B(  2-C ,  3-C ) :   1.2378 B(  2-C ,  6-C ) :   1.0165
B(  3-C ,  4-C ) :   1.5754 B(  3-C ,  5-H ) :   0.9902 B(  4-C , 20-C ) :   1.0530
B(  6-C ,  7-H ) :   0.9344 B(  6-C ,  8-H ) :   0.9243 B(  6-C ,  9-C ) :   1.0801
B(  9-C , 10-H ) :   0.9523 B(  9-C , 11-H ) :   0.9534 B(  9-C , 12-C ) :   1.0902
B( 12-C , 13-H ) :   0.9704 B( 12-C , 14-H ) :   0.9732 B( 12-C , 15-H ) :   0.9671
B( 16-S , 17-C ) :   1.1387 B( 16-S , 20-C ) :   1.1538 B( 17-C , 18-C ) :   1.6059
B( 17-C , 20-C ) :   0.1017 B( 17-C , 33-H ) :   0.9764 B( 18-C , 19-C ) :   1.2541
B( 18-C , 21-H ) :   0.9863 B( 19-C , 20-C ) :   1.5819 B( 19-C , 22-C ) :   1.0384
B( 22-C , 23-H ) :   0.9237 B( 22-C , 24-H ) :   0.9395 B( 22-C , 25-C ) :   1.0645
B( 25-C , 26-H ) :   0.9530 B( 25-C , 27-H ) :   0.9517 B( 25-C , 28-C ) :   1.0898
B( 28-C , 29-H ) :   0.9726 B( 28-C , 30-H ) :   0.9701 B( 28-C , 31-H ) :   0.9725

Dispersion correction           -0.014363288
FINAL SINGLE POINT ENERGY     -1339.880997483146

DIPOLE MOMENT
-------------
                                X             Y             Z
Electronic contribution:     16.28083     -12.99788     -14.29095
Nuclear contribution   :    -16.84457      13.30554      14.65125
                        -----------------------------------------
Total Dipole Moment    :     -0.56374       0.30766       0.36030
                        -----------------------------------------
Magnitude (a.u.)       :      0.73639
Magnitude (Debye)      :      1.87176

Rotational constants in cm-1:     0.016201     0.009280     0.007812
Rotational constants in MHz :   485.699800   278.221161   234.189650

                             ****ORCA TERMINATED NORMALLY****
TOTAL RUN TIME: 0 days 0 hours 0 minutes 21 seconds 83 msec
