                         Program Version 4.2.1 -  RELEASE  -
|  1> ! wB97X-D3 SP def2-SVP
|  2> %pal
|  3> nprocs 24
|  4> end
|  5>
|  6> * xyz 0 1
|  7> S 	 -122.876 	 64.0362 	 -53.7771
|  8> C 	 -121.702 	 65.0761 	 -54.4788
|  9> C 	 -121.076 	 65.9222 	 -53.6073
| 10> C 	 -121.67 	 65.8275 	 -52.307
| 11> C 	 -122.639 	 64.8449 	 -52.1856
| 12> H 	 -121.424 	 66.4962 	 -51.4786
| 13> C 	 -120.079 	 67.0494 	 -53.9896
| 14> H 	 -119.303 	 66.6877 	 -54.6456
| 15> H 	 -119.562 	 67.3169 	 -53.0637
| 16> C 	 -120.588 	 68.4079 	 -54.5162
| 17> H 	 -119.778 	 69.0001 	 -54.8034
| 18> H 	 -121.198 	 68.2516 	 -55.4415
| 19> C 	 -121.423 	 69.1298 	 -53.4908
| 20> H 	 -121.646 	 70.0898 	 -54.0135
| 21> H 	 -122.358 	 68.7227 	 -53.1755
| 22> H 	 -120.721 	 69.3778 	 -52.7706
| 23> S 	 -125.18 	 64.5593 	 -51.1835
| 24> C 	 -125.526 	 64.198 	 -49.5866
| 25> C 	 -124.364 	 64.2175 	 -48.7786
| 26> C 	 -123.175 	 64.3908 	 -49.6346
| 27> C 	 -123.442 	 64.5335 	 -50.998
| 28> H 	 -124.277 	 64.1831 	 -47.6981
| 29> C 	 -121.839 	 64.4969 	 -48.9754
| 30> H 	 -121.151 	 64.5629 	 -49.8367
| 31> H 	 -121.54 	 63.6308 	 -48.4052
| 32> C 	 -121.716 	 65.7691 	 -48.0973
| 33> H 	 -122.188 	 65.5666 	 -47.1204
| 34> H 	 -122.241 	 66.5657 	 -48.6532
| 35> C 	 -120.192 	 66.0902 	 -47.9607
| 36> H 	 -120.04 	 66.8501 	 -47.2232
| 37> H 	 -119.692 	 66.4865 	 -48.8528
| 38> H 	 -119.652 	 65.2215 	 -47.5922
| 39> H 	 -121.426 	 65.0275 	 -55.5247
| 40> H 	 -126.451 	 63.9581 	 -49.136
| 41> *
| 42>
| 43>                          ****END OF INPUT****

CARTESIAN COORDINATES (ANGSTROEM)
---------------------------------
  S    -122.876000   64.036200  -53.777100
  C    -121.702000   65.076100  -54.478800
  C    -121.076000   65.922200  -53.607300
  C    -121.670000   65.827500  -52.307000
  C    -122.639000   64.844900  -52.185600
  H    -121.424000   66.496200  -51.478600
  C    -120.079000   67.049400  -53.989600
  H    -119.303000   66.687700  -54.645600
  H    -119.562000   67.316900  -53.063700
  C    -120.588000   68.407900  -54.516200
  H    -119.778000   69.000100  -54.803400
  H    -121.198000   68.251600  -55.441500
  C    -121.423000   69.129800  -53.490800
  H    -121.646000   70.089800  -54.013500
  H    -122.358000   68.722700  -53.175500
  H    -120.721000   69.377800  -52.770600
  S    -125.180000   64.559300  -51.183500
  C    -125.526000   64.198000  -49.586600
  C    -124.364000   64.217500  -48.778600
  C    -123.175000   64.390800  -49.634600
  C    -123.442000   64.533500  -50.998000
  H    -124.277000   64.183100  -47.698100
  C    -121.839000   64.496900  -48.975400
  H    -121.151000   64.562900  -49.836700
  H    -121.540000   63.630800  -48.405200
  C    -121.716000   65.769100  -48.097300
  H    -122.188000   65.566600  -47.120400
  H    -122.241000   66.565700  -48.653200
  C    -120.192000   66.090200  -47.960700
  H    -120.040000   66.850100  -47.223200
  H    -119.692000   66.486500  -48.852800
  H    -119.652000   65.221500  -47.592200
  H    -121.426000   65.027500  -55.524700
  H    -126.451000   63.958100  -49.136000

 Total Charge           Charge          ....    0
 Multiplicity           Mult            ....    1
 Number of Electrons    NEL             ....  134
 Basis Dimension        Dim             ....  322

ORBITAL ENERGIES
----------------

  NO   OCC          E(Eh)            E(eV)
   0   2.0000     -88.969572     -2420.9851
   1   2.0000     -88.962904     -2420.8037
   2   2.0000     -10.335310      -281.2381
   3   2.0000     -10.326463      -280.9973
   4   2.0000     -10.314954      -280.6842
   5   2.0000     -10.312742      -280.6240
   6   2.0000     -10.302861      -280.3551
   7   2.0000     -10.301718      -280.3240
   8   2.0000     -10.298826      -280.2453
   9   2.0000     -10.296452      -280.1807
  10   2.0000     -10.293448      -280.0990
  11   2.0000     -10.293024      -280.0874
  12   2.0000     -10.283927      -279.8399
  13   2.0000     -10.283839      -279.8375
  14   2.0000     -10.278508      -279.6924
  15   2.0000     -10.269539      -279.4484
  16   2.0000      -8.083996      -219.9767
  17   2.0000      -8.079087      -219.8431
  18   2.0000      -6.042487      -164.4244
  19   2.0000      -6.038600      -164.3187
  20   2.0000      -6.037506      -164.2889
  21   2.0000      -6.034737      -164.2135
  22   2.0000      -6.033233      -164.1726
  23   2.0000      -6.029999      -164.0846
  24   2.0000      -1.005956       -27.3735
  25   2.0000      -0.986005       -26.8306
  26   2.0000      -0.912851       -24.8399
  27   2.0000      -0.909487       -24.7484
  28   2.0000      -0.870303       -23.6822
  29   2.0000      -0.852002       -23.1842
  30   2.0000      -0.844009       -22.9667
  31   2.0000      -0.813217       -22.1288
  32   2.0000      -0.782424       -21.2908
  33   2.0000      -0.770803       -20.9746
  34   2.0000      -0.704778       -19.1780
  35   2.0000      -0.700858       -19.0713
  36   2.0000      -0.695165       -18.9164
  37   2.0000      -0.662296       -18.0220
  38   2.0000      -0.640543       -17.4301
  39   2.0000      -0.616491       -16.7756
  40   2.0000      -0.594139       -16.1673
  41   2.0000      -0.577979       -15.7276
  42   2.0000      -0.567174       -15.4336
  43   2.0000      -0.552717       -15.0402
  44   2.0000      -0.548194       -14.9171
  45   2.0000      -0.520089       -14.1523
  46   2.0000      -0.515176       -14.0186
  47   2.0000      -0.509125       -13.8540
  48   2.0000      -0.507296       -13.8042
  49   2.0000      -0.500348       -13.6152
  50   2.0000      -0.489904       -13.3310
  51   2.0000      -0.477042       -12.9810
  52   2.0000      -0.475229       -12.9316
  53   2.0000      -0.468464       -12.7475
  54   2.0000      -0.462908       -12.5964
  55   2.0000      -0.448946       -12.2164
  56   2.0000      -0.442087       -12.0298
  57   2.0000      -0.434681       -11.8283
  58   2.0000      -0.433080       -11.7847
  59   2.0000      -0.424537       -11.5522
  60   2.0000      -0.420648       -11.4464
  61   2.0000      -0.415623       -11.3097
  62   2.0000      -0.412142       -11.2150
  63   2.0000      -0.348711        -9.4889
  64   2.0000      -0.333357        -9.0711
  65   2.0000      -0.322281        -8.7697
  66   2.0000      -0.293671        -7.9912
  67   0.0000       0.030072         0.8183
  68   0.0000       0.072881         1.9832
  69   0.0000       0.107801         2.9334
  70   0.0000       0.116818         3.1788
  71   0.0000       0.129723         3.5299

MULLIKEN ATOMIC CHARGES
-----------------------
   0 S :    0.122333
   1 C :   -0.118540
   2 C :   -0.075444
   3 C :    0.024198
   4 C :   -0.158448
   5 H :    0.017353
   6 C :    0.055146
   7 H :    0.025077
   8 H :    0.008237
   9 C :   -0.054575
  10 H :    0.017940
  11 H :    0.025364
  12 C :   -0.025826
  13 H :    0.026069
  14 H :    0.053894
  15 H :    0.008027
  16 S :    0.114890
  17 C :   -0.057155
  18 C :   -0.041331
  19 C :   -0.076007
  20 C :   -0.140933
  21 H :    0.021644
  22 C :    0.045994
  23 H :    0.019325
  24 H :    0.031034
  25 C :   -0.093517
  26 H :    0.040403
  27 H :    0.043668
  28 C :   -0.041349
  29 H :    0.021213
  30 H :    0.037100
  31 H :    0.030212
  32 H :    0.047279
  33 H :    0.046725
Sum of atomic charges:    0.0000000

LOEWDIN ATOMIC CHARGES
----------------------
   0 S :    0.402047
   1 C :   -0.194005
   2 C :   -0.070370
   3 C :   -0.055192
   4 C :   -0.186364
   5 H :    0.033027
   6 C :   -0.032806
   7 H :    0.027470
   8 H :    0.026336
   9 C :   -0.033703
  10 H :    0.018754
  11 H :    0.023044
  12 C :   -0.058776
  13 H :    0.034116
  14 H :    0.026484
  15 H :    0.014606
  16 S :    0.441405
  17 C :   -0.201216
  18 C :   -0.074210
  19 C :   -0.052808
  20 C :   -0.214297
  21 H :    0.029451
  22 C :   -0.039795
  23 H :    0.029217
  24 H :    0.027743
  25 C :   -0.033854
  26 H :    0.025782
  27 H :    0.027150
  28 C :   -0.065605
  29 H :    0.019963
  30 H :    0.027055
  31 H :    0.025549
  32 H :    0.028369
  33 H :    0.025435

  Mayer bond orders larger than 0.100000
B(  0-S ,  1-C ) :   1.1514 B(  0-S ,  4-C ) :   1.1350 B(  1-C ,  2-C ) :   1.6225
B(  1-C , 32-H ) :   0.9633 B(  2-C ,  3-C ) :   1.2415 B(  2-C ,  6-C ) :   1.0245
B(  3-C ,  4-C ) :   1.5789 B(  3-C ,  5-H ) :   0.9876 B(  4-C , 20-C ) :   1.0381
B(  6-C ,  7-H ) :   0.9399 B(  6-C ,  8-H ) :   0.9386 B(  6-C ,  9-C ) :   1.0762
B(  9-C , 10-H ) :   0.9517 B(  9-C , 11-H ) :   0.9542 B(  9-C , 12-C ) :   1.0836
B( 12-C , 13-H ) :   0.9688 B( 12-C , 14-H ) :   0.9755 B( 12-C , 15-H ) :   0.9740
B( 16-S , 17-C ) :   1.1938 B( 16-S , 20-C ) :   1.1364 B( 17-C , 18-C ) :   1.5530
B( 17-C , 33-H ) :   0.9728 B( 18-C , 19-C ) :   1.2583 B( 18-C , 21-H ) :   0.9906
B( 19-C , 20-C ) :   1.5804 B( 19-C , 22-C ) :   1.0622 B( 22-C , 23-H ) :   0.9410
B( 22-C , 24-H ) :   0.9297 B( 22-C , 25-C ) :   1.0492 B( 25-C , 26-H ) :   0.9519
B( 25-C , 27-H ) :   0.9604 B( 25-C , 28-C ) :   1.0825 B( 28-C , 29-H ) :   0.9742
B( 28-C , 30-H ) :   0.9763 B( 28-C , 31-H ) :   0.9723

Dispersion correction           -0.014541569
FINAL SINGLE POINT ENERGY     -1339.877681111733

DIPOLE MOMENT
-------------
                                X             Y             Z
Electronic contribution:    -19.44350     -18.91002      -8.67529
Nuclear contribution   :     19.89268      19.40043       8.93393
                        -----------------------------------------
Total Dipole Moment    :      0.44917       0.49040       0.25865
                        -----------------------------------------
Magnitude (a.u.)       :      0.71355
Magnitude (Debye)      :      1.81370

Rotational constants in cm-1:     0.016907     0.009411     0.007158
Rotational constants in MHz :   506.869293   282.123623   214.604623

                             ****ORCA TERMINATED NORMALLY****
TOTAL RUN TIME: 0 days 0 hours 0 minutes 21 seconds 985 msec
