                         Program Version 4.2.1 -  RELEASE  -
|  1> ! wB97X-D3 SP def2-SVP
|  2> %pal
|  3> nprocs 24
|  4> end
|  5>
|  6> * xyz 0 1
|  7> S 	 -34.9049 	 -31.575 	 -100.163
|  8> C 	 -35.0341 	 -31.5659 	 -101.902
|  9> C 	 -34.5229 	 -32.687 	 -102.517
| 10> C 	 -33.8546 	 -33.5035 	 -101.565
| 11> C 	 -33.9801 	 -33.0263 	 -100.256
| 12> H 	 -33.2933 	 -34.4039 	 -101.72
| 13> C 	 -34.3557 	 -32.8251 	 -104.028
| 14> H 	 -33.748 	 -33.7068 	 -104.224
| 15> H 	 -33.692 	 -31.9837 	 -104.389
| 16> C 	 -35.6533 	 -32.7319 	 -104.844
| 17> H 	 -36.1217 	 -31.7358 	 -104.665
| 18> H 	 -35.4895 	 -32.8654 	 -105.824
| 19> C 	 -36.6449 	 -33.91 	 -104.563
| 20> H 	 -36.1848 	 -34.8271 	 -105.039
| 21> H 	 -36.7681 	 -34.1485 	 -103.478
| 22> H 	 -37.635 	 -33.7898 	 -104.993
| 23> S 	 -33.9532 	 -33.3402 	 -97.5551
| 24> C 	 -32.7051 	 -34.1704 	 -96.843
| 25> C 	 -31.656 	 -34.407 	 -97.6694
| 26> C 	 -31.9668 	 -34.0117 	 -98.9955
| 27> C 	 -33.2789 	 -33.6113 	 -99.1169
| 28> H 	 -30.7582 	 -34.788 	 -97.2713
| 29> C 	 -30.8759 	 -34.1464 	 -100.115
| 30> H 	 -30.9965 	 -33.3995 	 -100.817
| 31> H 	 -31.0869 	 -35.145 	 -100.386
| 32> C 	 -29.3486 	 -34.1466 	 -99.7908
| 33> H 	 -29.0946 	 -34.9863 	 -99.1042
| 34> H 	 -29.0384 	 -33.2137 	 -99.3244
| 35> C 	 -28.5987 	 -34.4591 	 -101.094
| 36> H 	 -27.5251 	 -34.7314 	 -100.89
| 37> H 	 -28.5932 	 -33.6017 	 -101.772
| 38> H 	 -29.0279 	 -35.3542 	 -101.587
| 39> H 	 -35.6047 	 -30.7186 	 -102.362
| 40> H 	 -32.5005 	 -34.3676 	 -95.7695
| 41> *
| 42>
| 43>                          ****END OF INPUT****

CARTESIAN COORDINATES (ANGSTROEM)
---------------------------------
  S    -34.904900  -31.575000  -100.163000
  C    -35.034100  -31.565900  -101.902000
  C    -34.522900  -32.687000  -102.517000
  C    -33.854600  -33.503500  -101.565000
  C    -33.980100  -33.026300  -100.256000
  H    -33.293300  -34.403900  -101.720000
  C    -34.355700  -32.825100  -104.028000
  H    -33.748000  -33.706800  -104.224000
  H    -33.692000  -31.983700  -104.389000
  C    -35.653300  -32.731900  -104.844000
  H    -36.121700  -31.735800  -104.665000
  H    -35.489500  -32.865400  -105.824000
  C    -36.644900  -33.910000  -104.563000
  H    -36.184800  -34.827100  -105.039000
  H    -36.768100  -34.148500  -103.478000
  H    -37.635000  -33.789800  -104.993000
  S    -33.953200  -33.340200  -97.555100
  C    -32.705100  -34.170400  -96.843000
  C    -31.656000  -34.407000  -97.669400
  C    -31.966800  -34.011700  -98.995500
  C    -33.278900  -33.611300  -99.116900
  H    -30.758200  -34.788000  -97.271300
  C    -30.875900  -34.146400  -100.115000
  H    -30.996500  -33.399500  -100.817000
  H    -31.086900  -35.145000  -100.386000
  C    -29.348600  -34.146600  -99.790800
  H    -29.094600  -34.986300  -99.104200
  H    -29.038400  -33.213700  -99.324400
  C    -28.598700  -34.459100  -101.094000
  H    -27.525100  -34.731400  -100.890000
  H    -28.593200  -33.601700  -101.772000
  H    -29.027900  -35.354200  -101.587000
  H    -35.604700  -30.718600  -102.362000
  H    -32.500500  -34.367600  -95.769500

 Total Charge           Charge          ....    0
 Multiplicity           Mult            ....    1
 Number of Electrons    NEL             ....  134
 Basis Dimension        Dim             ....  322

ORBITAL ENERGIES
----------------

  NO   OCC          E(Eh)            E(eV)
   0   2.0000     -88.966832     -2420.9106
   1   2.0000     -88.963102     -2420.8091
   2   2.0000     -10.324329      -280.9393
   3   2.0000     -10.317947      -280.7656
   4   2.0000     -10.312909      -280.6285
   5   2.0000     -10.306220      -280.4465
   6   2.0000     -10.302054      -280.3331
   7   2.0000     -10.300864      -280.3008
   8   2.0000     -10.297181      -280.2005
   9   2.0000     -10.293334      -280.0959
  10   2.0000     -10.289605      -279.9944
  11   2.0000     -10.287283      -279.9312
  12   2.0000     -10.286525      -279.9106
  13   2.0000     -10.282928      -279.8127
  14   2.0000     -10.280986      -279.7598
  15   2.0000     -10.279766      -279.7267
  16   2.0000      -8.082239      -219.9289
  17   2.0000      -8.080289      -219.8759
  18   2.0000      -6.040573      -164.3723
  19   2.0000      -6.038584      -164.3182
  20   2.0000      -6.036766      -164.2688
  21   2.0000      -6.034670      -164.2117
  22   2.0000      -6.033056      -164.1678
  23   2.0000      -6.030928      -164.1099
  24   2.0000      -1.018176       -27.7060
  25   2.0000      -0.991558       -26.9817
  26   2.0000      -0.909998       -24.7623
  27   2.0000      -0.909049       -24.7365
  28   2.0000      -0.868121       -23.6228
  29   2.0000      -0.856621       -23.3098
  30   2.0000      -0.846530       -23.0353
  31   2.0000      -0.809896       -22.0384
  32   2.0000      -0.781857       -21.2754
  33   2.0000      -0.770590       -20.9688
  34   2.0000      -0.704893       -19.1811
  35   2.0000      -0.702271       -19.1098
  36   2.0000      -0.691434       -18.8149
  37   2.0000      -0.658531       -17.9195
  38   2.0000      -0.636639       -17.3238
  39   2.0000      -0.613591       -16.6967
  40   2.0000      -0.593798       -16.1581
  41   2.0000      -0.581547       -15.8247
  42   2.0000      -0.577306       -15.7093
  43   2.0000      -0.543855       -14.7990
  44   2.0000      -0.542890       -14.7728
  45   2.0000      -0.521136       -14.1808
  46   2.0000      -0.514138       -13.9904
  47   2.0000      -0.509768       -13.8715
  48   2.0000      -0.501819       -13.6552
  49   2.0000      -0.491915       -13.3857
  50   2.0000      -0.488676       -13.2976
  51   2.0000      -0.475162       -12.9298
  52   2.0000      -0.471127       -12.8200
  53   2.0000      -0.468503       -12.7486
  54   2.0000      -0.464201       -12.6316
  55   2.0000      -0.454051       -12.3554
  56   2.0000      -0.441827       -12.0227
  57   2.0000      -0.436618       -11.8810
  58   2.0000      -0.434611       -11.8264
  59   2.0000      -0.424547       -11.5525
  60   2.0000      -0.422572       -11.4988
  61   2.0000      -0.417232       -11.3535
  62   2.0000      -0.414837       -11.2883
  63   2.0000      -0.352950        -9.6042
  64   2.0000      -0.334827        -9.1111
  65   2.0000      -0.328784        -8.9467
  66   2.0000      -0.282015        -7.6740
  67   0.0000       0.032037         0.8718
  68   0.0000       0.077093         2.0978
  69   0.0000       0.104089         2.8324
  70   0.0000       0.127097         3.4585
  71   0.0000       0.138954         3.7811

MULLIKEN ATOMIC CHARGES
-----------------------
   0 S :    0.116964
   1 C :   -0.169686
   2 C :   -0.025053
   3 C :   -0.016235
   4 C :   -0.127684
   5 H :    0.004971
   6 C :    0.030476
   7 H :    0.015434
   8 H :    0.051665
   9 C :   -0.018033
  10 H :    0.033991
  11 H :    0.006069
  12 C :   -0.098448
  13 H :    0.028085
  14 H :    0.048632
  15 H :    0.038681
  16 S :    0.114010
  17 C :   -0.063046
  18 C :   -0.052662
  19 C :   -0.035948
  20 C :   -0.165768
  21 H :   -0.003333
  22 C :    0.067078
  23 H :    0.025217
  24 H :    0.036328
  25 C :   -0.076398
  26 H :    0.032190
  27 H :    0.039356
  28 C :   -0.074581
  29 H :    0.040685
  30 H :    0.039973
  31 H :    0.033412
  32 H :    0.067559
  33 H :    0.056100
Sum of atomic charges:    0.0000000

LOEWDIN ATOMIC CHARGES
----------------------
   0 S :    0.415014
   1 C :   -0.204764
   2 C :   -0.065023
   3 C :   -0.066363
   4 C :   -0.197609
   5 H :    0.028686
   6 C :   -0.031015
   7 H :    0.026186
   8 H :    0.043276
   9 C :   -0.032779
  10 H :    0.026504
  11 H :    0.009150
  12 C :   -0.071669
  13 H :    0.028126
  14 H :    0.028094
  15 H :    0.023447
  16 S :    0.446182
  17 C :   -0.214179
  18 C :   -0.078117
  19 C :   -0.045714
  20 C :   -0.216248
  21 H :    0.023519
  22 C :   -0.021003
  23 H :    0.019709
  24 H :    0.031620
  25 C :   -0.039213
  26 H :    0.024401
  27 H :    0.023366
  28 C :   -0.068210
  29 H :    0.031623
  30 H :    0.024353
  31 H :    0.027874
  32 H :    0.031795
  33 H :    0.038981

  Mayer bond orders larger than 0.100000
B(  0-S ,  1-C ) :   1.1470 B(  0-S ,  4-C ) :   1.1613 B(  1-C ,  2-C ) :   1.5886
B(  1-C , 32-H ) :   0.9628 B(  2-C ,  3-C ) :   1.2317 B(  2-C ,  6-C ) :   1.0138
B(  3-C ,  4-C ) :   1.5621 B(  3-C ,  5-H ) :   1.0043 B(  4-C , 20-C ) :   1.0649
B(  6-C ,  7-H ) :   0.9463 B(  6-C ,  8-H ) :   0.9428 B(  6-C ,  9-C ) :   1.0744
B(  9-C , 10-H ) :   0.9572 B(  9-C , 11-H ) :   0.9552 B(  9-C , 12-C ) :   1.0613
B( 12-C , 13-H ) :   0.9770 B( 12-C , 14-H ) :   0.9792 B( 12-C , 15-H ) :   0.9769
B( 16-S , 17-C ) :   1.1839 B( 16-S , 20-C ) :   1.1345 B( 17-C , 18-C ) :   1.6059
B( 17-C , 33-H ) :   0.9551 B( 18-C , 19-C ) :   1.2532 B( 18-C , 21-H ) :   1.0012
B( 19-C , 20-C ) :   1.5845 B( 19-C , 22-C ) :   1.0005 B( 22-C , 23-H ) :   0.9443
B( 22-C , 24-H ) :   0.9361 B( 22-C , 25-C ) :   1.0776 B( 25-C , 26-H ) :   0.9472
B( 25-C , 27-H ) :   0.9581 B( 25-C , 28-C ) :   1.0788 B( 28-C , 29-H ) :   0.9740
B( 28-C , 30-H ) :   0.9767 B( 28-C , 31-H ) :   0.9731

Dispersion correction           -0.013682084
FINAL SINGLE POINT ENERGY     -1339.864101097774

DIPOLE MOMENT
-------------
                                X             Y             Z
Electronic contribution:    -11.97575       8.42652      23.10699
Nuclear contribution   :     12.57982      -8.53837     -23.50721
                        -----------------------------------------
Total Dipole Moment    :      0.60407      -0.11186      -0.40022
                        -----------------------------------------
Magnitude (a.u.)       :      0.73320
Magnitude (Debye)      :      1.86365

Rotational constants in cm-1:     0.018198     0.008337     0.006278
Rotational constants in MHz :   545.559206   249.947486   188.198849

                             ****ORCA TERMINATED NORMALLY****
TOTAL RUN TIME: 0 days 0 hours 0 minutes 21 seconds 301 msec
