                         Program Version 4.2.1 -  RELEASE  -
|  1> ! wB97X-D3 SP def2-SVP
|  2> %pal
|  3> nprocs 24
|  4> end
|  5>
|  6> * xyz 0 1
|  7> S 	 48.9617 	 -20.7089 	 -118.187
|  8> C 	 47.2173 	 -21.0203 	 -118.314
|  9> C 	 46.516 	 -20.5667 	 -117.19
| 10> C 	 47.4011 	 -19.7666 	 -116.408
| 11> C 	 48.734 	 -19.751 	 -116.741
| 12> H 	 47.2327 	 -19.221 	 -115.52
| 13> C 	 45.0317 	 -20.7311 	 -117.055
| 14> H 	 44.6994 	 -21.7451 	 -117.476
| 15> H 	 44.4771 	 -19.9749 	 -117.607
| 16> C 	 44.5052 	 -20.5858 	 -115.594
| 17> H 	 44.7127 	 -19.6023 	 -115.253
| 18> H 	 43.4483 	 -20.7492 	 -115.589
| 19> C 	 45.0021 	 -21.73 	 -114.683
| 20> H 	 46.1169 	 -21.7512 	 -114.635
| 21> H 	 44.5339 	 -21.5196 	 -113.68
| 22> H 	 44.5773 	 -22.6559 	 -115.065
| 23> S 	 51.0802 	 -18.4071 	 -117.038
| 24> C 	 52.1569 	 -18.2476 	 -115.659
| 25> C 	 51.4348 	 -18.4645 	 -114.5
| 26> C 	 50.1565 	 -19.0341 	 -114.654
| 27> C 	 49.8439 	 -19.1726 	 -116.022
| 28> H 	 51.9056 	 -18.1755 	 -113.51
| 29> C 	 49.3931 	 -19.4614 	 -113.451
| 30> H 	 48.3622 	 -19.8126 	 -113.605
| 31> H 	 49.2196 	 -18.5012 	 -112.966
| 32> C 	 50.0988 	 -20.5594 	 -112.517
| 33> H 	 51.0097 	 -20.172 	 -112.278
| 34> H 	 50.3343 	 -21.5211 	 -112.909
| 35> C 	 49.3171 	 -20.7725 	 -111.124
| 36> H 	 48.3193 	 -21.1412 	 -111.39
| 37> H 	 49.2877 	 -19.9876 	 -110.382
| 38> H 	 49.8501 	 -21.5795 	 -110.683
| 39> H 	 46.7388 	 -21.5307 	 -119.08
| 40> H 	 53.1029 	 -17.6625 	 -115.744
| 41> *
| 42>
| 43>                          ****END OF INPUT****

CARTESIAN COORDINATES (ANGSTROEM)
---------------------------------
  S     48.961700  -20.708900  -118.187000
  C     47.217300  -21.020300  -118.314000
  C     46.516000  -20.566700  -117.190000
  C     47.401100  -19.766600  -116.408000
  C     48.734000  -19.751000  -116.741000
  H     47.232700  -19.221000  -115.520000
  C     45.031700  -20.731100  -117.055000
  H     44.699400  -21.745100  -117.476000
  H     44.477100  -19.974900  -117.607000
  C     44.505200  -20.585800  -115.594000
  H     44.712700  -19.602300  -115.253000
  H     43.448300  -20.749200  -115.589000
  C     45.002100  -21.730000  -114.683000
  H     46.116900  -21.751200  -114.635000
  H     44.533900  -21.519600  -113.680000
  H     44.577300  -22.655900  -115.065000
  S     51.080200  -18.407100  -117.038000
  C     52.156900  -18.247600  -115.659000
  C     51.434800  -18.464500  -114.500000
  C     50.156500  -19.034100  -114.654000
  C     49.843900  -19.172600  -116.022000
  H     51.905600  -18.175500  -113.510000
  C     49.393100  -19.461400  -113.451000
  H     48.362200  -19.812600  -113.605000
  H     49.219600  -18.501200  -112.966000
  C     50.098800  -20.559400  -112.517000
  H     51.009700  -20.172000  -112.278000
  H     50.334300  -21.521100  -112.909000
  C     49.317100  -20.772500  -111.124000
  H     48.319300  -21.141200  -111.390000
  H     49.287700  -19.987600  -110.382000
  H     49.850100  -21.579500  -110.683000
  H     46.738800  -21.530700  -119.080000
  H     53.102900  -17.662500  -115.744000

 Total Charge           Charge          ....    0
 Multiplicity           Mult            ....    1
 Number of Electrons    NEL             ....  134
 Basis Dimension        Dim             ....  322

ORBITAL ENERGIES
----------------

  NO   OCC          E(Eh)            E(eV)
   0   2.0000     -88.964264     -2420.8407
   1   2.0000     -88.964188     -2420.8386
   2   2.0000     -10.331332      -281.1298
   3   2.0000     -10.325034      -280.9585
   4   2.0000     -10.321065      -280.8505
   5   2.0000     -10.310845      -280.5724
   6   2.0000     -10.307377      -280.4780
   7   2.0000     -10.304175      -280.3909
   8   2.0000     -10.299151      -280.2542
   9   2.0000     -10.299016      -280.2505
  10   2.0000     -10.298754      -280.2433
  11   2.0000     -10.288859      -279.9741
  12   2.0000     -10.287986      -279.9503
  13   2.0000     -10.283437      -279.8265
  14   2.0000     -10.282941      -279.8131
  15   2.0000     -10.280380      -279.7434
  16   2.0000      -8.078677      -219.8320
  17   2.0000      -8.078448      -219.8257
  18   2.0000      -6.037142      -164.2790
  19   2.0000      -6.036924      -164.2731
  20   2.0000      -6.033275      -164.1738
  21   2.0000      -6.033042      -164.1674
  22   2.0000      -6.029431      -164.0692
  23   2.0000      -6.029241      -164.0640
  24   2.0000      -1.005518       -27.3615
  25   2.0000      -0.982060       -26.7232
  26   2.0000      -0.911913       -24.8144
  27   2.0000      -0.902682       -24.5632
  28   2.0000      -0.869599       -23.6630
  29   2.0000      -0.851487       -23.1701
  30   2.0000      -0.840368       -22.8676
  31   2.0000      -0.814474       -22.1630
  32   2.0000      -0.782282       -21.2870
  33   2.0000      -0.770813       -20.9749
  34   2.0000      -0.717100       -19.5133
  35   2.0000      -0.703648       -19.1472
  36   2.0000      -0.692363       -18.8402
  37   2.0000      -0.656330       -17.8597
  38   2.0000      -0.644844       -17.5471
  39   2.0000      -0.619997       -16.8710
  40   2.0000      -0.599887       -16.3237
  41   2.0000      -0.564726       -15.3670
  42   2.0000      -0.554654       -15.0929
  43   2.0000      -0.550698       -14.9853
  44   2.0000      -0.540906       -14.7188
  45   2.0000      -0.527522       -14.3546
  46   2.0000      -0.519532       -14.1372
  47   2.0000      -0.516558       -14.0563
  48   2.0000      -0.500858       -13.6290
  49   2.0000      -0.493293       -13.4232
  50   2.0000      -0.491578       -13.3765
  51   2.0000      -0.481068       -13.0905
  52   2.0000      -0.469683       -12.7807
  53   2.0000      -0.467365       -12.7177
  54   2.0000      -0.460735       -12.5372
  55   2.0000      -0.450203       -12.2506
  56   2.0000      -0.439819       -11.9681
  57   2.0000      -0.439665       -11.9639
  58   2.0000      -0.434376       -11.8200
  59   2.0000      -0.425739       -11.5849
  60   2.0000      -0.422125       -11.4866
  61   2.0000      -0.415436       -11.3046
  62   2.0000      -0.410920       -11.1817
  63   2.0000      -0.347767        -9.4632
  64   2.0000      -0.331995        -9.0340
  65   2.0000      -0.327816        -8.9203
  66   2.0000      -0.285965        -7.7815
  67   0.0000       0.020885         0.5683
  68   0.0000       0.073701         2.0055
  69   0.0000       0.103322         2.8115
  70   0.0000       0.114161         3.1065
  71   0.0000       0.130144         3.5414

MULLIKEN ATOMIC CHARGES
-----------------------
   0 S :    0.113554
   1 C :   -0.091391
   2 C :   -0.064335
   3 C :    0.023619
   4 C :   -0.138894
   5 H :   -0.016153
   6 C :    0.034310
   7 H :    0.033214
   8 H :    0.048751
   9 C :   -0.077462
  10 H :    0.029639
  11 H :    0.023604
  12 C :   -0.075382
  13 H :    0.054541
  14 H :    0.040830
  15 H :    0.031246
  16 S :    0.095653
  17 C :   -0.106497
  18 C :   -0.079427
  19 C :    0.010971
  20 C :   -0.173707
  21 H :    0.044926
  22 C :    0.047837
  23 H :    0.016714
  24 H :    0.036399
  25 C :   -0.032274
  26 H :   -0.002023
  27 H :    0.035664
  28 C :   -0.061555
  29 H :    0.034992
  30 H :    0.039553
  31 H :    0.024765
  32 H :    0.019600
  33 H :    0.078721
Sum of atomic charges:   -0.0000000

LOEWDIN ATOMIC CHARGES
----------------------
   0 S :    0.397580
   1 C :   -0.173083
   2 C :   -0.061980
   3 C :   -0.066352
   4 C :   -0.197737
   5 H :    0.019893
   6 C :   -0.035486
   7 H :    0.036967
   8 H :    0.035092
   9 C :   -0.039160
  10 H :    0.016148
  11 H :    0.023737
  12 C :   -0.066670
  13 H :    0.026886
  14 H :    0.031124
  15 H :    0.024150
  16 S :    0.393686
  17 C :   -0.193454
  18 C :   -0.076182
  19 C :   -0.059797
  20 C :   -0.186355
  21 H :    0.041031
  22 C :   -0.035131
  23 H :    0.026669
  24 H :    0.040728
  25 C :   -0.017106
  26 H :    0.005837
  27 H :    0.027396
  28 C :   -0.061670
  29 H :    0.025172
  30 H :    0.023088
  31 H :    0.023278
  32 H :    0.013018
  33 H :    0.038684

  Mayer bond orders larger than 0.100000
B(  0-S ,  1-C ) :   1.1439 B(  0-S ,  4-C ) :   1.1358 B(  1-C ,  2-C ) :   1.5972
B(  1-C ,  4-C ) :   0.1029 B(  1-C , 32-H ) :   0.9778 B(  2-C ,  3-C ) :   1.2149
B(  2-C ,  6-C ) :   1.0251 B(  3-C ,  4-C ) :   1.5954 B(  3-C ,  5-H ) :   0.9974
B(  4-C , 20-C ) :   1.0635 B(  6-C ,  7-H ) :   0.9421 B(  6-C ,  8-H ) :   0.9387
B(  6-C ,  9-C ) :   1.0833 B(  9-C , 10-H ) :   0.9526 B(  9-C , 11-H ) :   0.9564
B(  9-C , 12-C ) :   1.0714 B( 12-C , 13-H ) :   0.9759 B( 12-C , 14-H ) :   0.9758
B( 12-C , 15-H ) :   0.9748 B( 16-S , 17-C ) :   1.1444 B( 16-S , 20-C ) :   1.1557
B( 17-C , 18-C ) :   1.6021 B( 17-C , 20-C ) :   0.1076 B( 17-C , 33-H ) :   0.9616
B( 18-C , 19-C ) :   1.2515 B( 18-C , 21-H ) :   0.9731 B( 19-C , 20-C ) :   1.5493
B( 19-C , 22-C ) :   1.0453 B( 22-C , 23-H ) :   0.9377 B( 22-C , 24-H ) :   0.9320
B( 22-C , 25-C ) :   1.0424 B( 25-C , 26-H ) :   0.9559 B( 25-C , 27-H ) :   0.9621
B( 25-C , 28-C ) :   1.0747 B( 28-C , 29-H ) :   0.9788 B( 28-C , 30-H ) :   0.9805
B( 28-C , 31-H ) :   0.9763

Dispersion correction           -0.014099444
FINAL SINGLE POINT ENERGY     -1339.859741527270

DIPOLE MOMENT
-------------
                                X             Y             Z
Electronic contribution:     17.59081       8.43461     -24.89770
Nuclear contribution   :    -17.99187      -8.39721      25.55855
                        -----------------------------------------
Total Dipole Moment    :     -0.40105       0.03740       0.66085
                        -----------------------------------------
Magnitude (a.u.)       :      0.77393
Magnitude (Debye)      :      1.96717

Rotational constants in cm-1:     0.015708     0.010284     0.006731
Rotational constants in MHz :   470.909461   308.311796   201.792692

                             ****ORCA TERMINATED NORMALLY****
TOTAL RUN TIME: 0 days 0 hours 0 minutes 21 seconds 851 msec
