                         Program Version 4.2.1 -  RELEASE  -
|  1> ! wB97X-D3 SP def2-SVP
|  2> %pal
|  3> nprocs 24
|  4> end
|  5>
|  6> * xyz 0 1
|  7> S 	 -120.864 	 65.225 	 -60.6747
|  8> C 	 -122.394 	 65.5827 	 -61.5008
|  9> C 	 -123.382 	 64.6897 	 -61.1355
| 10> C 	 -123.003 	 63.8023 	 -60.1099
| 11> C 	 -121.69 	 63.9692 	 -59.7584
| 12> H 	 -123.558 	 62.9644 	 -59.6991
| 13> C 	 -124.824 	 64.6781 	 -61.7104
| 14> H 	 -125.058 	 65.6771 	 -62.0089
| 15> H 	 -125.642 	 64.4892 	 -61.013
| 16> C 	 -125.002 	 63.6351 	 -62.8748
| 17> H 	 -125.863 	 63.8278 	 -63.4432
| 18> H 	 -124.14 	 63.8572 	 -63.53
| 19> C 	 -124.778 	 62.1009 	 -62.5834
| 20> H 	 -125.617 	 61.7147 	 -62.0287
| 21> H 	 -124.683 	 61.5583 	 -63.5031
| 22> H 	 -123.843 	 61.8955 	 -62.0572
| 23> S 	 -119.973 	 64.0307 	 -57.5944
| 24> C 	 -119.417 	 62.4806 	 -56.9099
| 25> C 	 -119.971 	 61.4301 	 -57.5816
| 26> C 	 -120.934 	 61.8184 	 -58.5464
| 27> C 	 -120.934 	 63.1899 	 -58.7667
| 28> H 	 -119.777 	 60.4381 	 -57.1451
| 29> C 	 -121.726 	 60.8128 	 -59.3253
| 30> H 	 -122.699 	 61.1552 	 -59.5345
| 31> H 	 -121.704 	 59.9238 	 -58.6842
| 32> C 	 -121.119 	 60.5042 	 -60.6914
| 33> H 	 -121.119 	 61.3647 	 -61.3217
| 34> H 	 -121.782 	 59.7886 	 -61.1918
| 35> C 	 -119.685 	 59.9219 	 -60.6319
| 36> H 	 -118.941 	 60.6749 	 -60.3592
| 37> H 	 -119.264 	 59.6186 	 -61.6593
| 38> H 	 -119.636 	 59.0719 	 -59.8989
| 39> H 	 -122.623 	 66.376 	 -62.1738
| 40> H 	 -118.911 	 62.4012 	 -55.9967
| 41> *
| 42>
| 43>                          ****END OF INPUT****

CARTESIAN COORDINATES (ANGSTROEM)
---------------------------------
  S    -120.864000   65.225000  -60.674700
  C    -122.394000   65.582700  -61.500800
  C    -123.382000   64.689700  -61.135500
  C    -123.003000   63.802300  -60.109900
  C    -121.690000   63.969200  -59.758400
  H    -123.558000   62.964400  -59.699100
  C    -124.824000   64.678100  -61.710400
  H    -125.058000   65.677100  -62.008900
  H    -125.642000   64.489200  -61.013000
  C    -125.002000   63.635100  -62.874800
  H    -125.863000   63.827800  -63.443200
  H    -124.140000   63.857200  -63.530000
  C    -124.778000   62.100900  -62.583400
  H    -125.617000   61.714700  -62.028700
  H    -124.683000   61.558300  -63.503100
  H    -123.843000   61.895500  -62.057200
  S    -119.973000   64.030700  -57.594400
  C    -119.417000   62.480600  -56.909900
  C    -119.971000   61.430100  -57.581600
  C    -120.934000   61.818400  -58.546400
  C    -120.934000   63.189900  -58.766700
  H    -119.777000   60.438100  -57.145100
  C    -121.726000   60.812800  -59.325300
  H    -122.699000   61.155200  -59.534500
  H    -121.704000   59.923800  -58.684200
  C    -121.119000   60.504200  -60.691400
  H    -121.119000   61.364700  -61.321700
  H    -121.782000   59.788600  -61.191800
  C    -119.685000   59.921900  -60.631900
  H    -118.941000   60.674900  -60.359200
  H    -119.264000   59.618600  -61.659300
  H    -119.636000   59.071900  -59.898900
  H    -122.623000   66.376000  -62.173800
  H    -118.911000   62.401200  -55.996700

 Total Charge           Charge          ....    0
 Multiplicity           Mult            ....    1
 Number of Electrons    NEL             ....  134
 Basis Dimension        Dim             ....  322

ORBITAL ENERGIES
----------------

  NO   OCC          E(Eh)            E(eV)
   0   2.0000     -88.971528     -2421.0384
   1   2.0000     -88.965526     -2420.8750
   2   2.0000     -10.330614      -281.1103
   3   2.0000     -10.324812      -280.9524
   4   2.0000     -10.314016      -280.6586
   5   2.0000     -10.313479      -280.6440
   6   2.0000     -10.302697      -280.3506
   7   2.0000     -10.300655      -280.2951
   8   2.0000     -10.294809      -280.1360
   9   2.0000     -10.294797      -280.1357
  10   2.0000     -10.291516      -280.0464
  11   2.0000     -10.287834      -279.9462
  12   2.0000     -10.287568      -279.9390
  13   2.0000     -10.283455      -279.8270
  14   2.0000     -10.283205      -279.8202
  15   2.0000     -10.279098      -279.7085
  16   2.0000      -8.085354      -220.0137
  17   2.0000      -8.080085      -219.8703
  18   2.0000      -6.043918      -164.4634
  19   2.0000      -6.040062      -164.3584
  20   2.0000      -6.038565      -164.3177
  21   2.0000      -6.036041      -164.2490
  22   2.0000      -6.034580      -164.2093
  23   2.0000      -6.030931      -164.1100
  24   2.0000      -1.008611       -27.4457
  25   2.0000      -0.985123       -26.8066
  26   2.0000      -0.912367       -24.8268
  27   2.0000      -0.902524       -24.5589
  28   2.0000      -0.868152       -23.6236
  29   2.0000      -0.848657       -23.0931
  30   2.0000      -0.841159       -22.8891
  31   2.0000      -0.817759       -22.2524
  32   2.0000      -0.786644       -21.4057
  33   2.0000      -0.774120       -21.0649
  34   2.0000      -0.710563       -19.3354
  35   2.0000      -0.701190       -19.0804
  36   2.0000      -0.690634       -18.7931
  37   2.0000      -0.664749       -18.0887
  38   2.0000      -0.641878       -17.4664
  39   2.0000      -0.620610       -16.8876
  40   2.0000      -0.592971       -16.1356
  41   2.0000      -0.573352       -15.6017
  42   2.0000      -0.563681       -15.3385
  43   2.0000      -0.545943       -14.8559
  44   2.0000      -0.540509       -14.7080
  45   2.0000      -0.534852       -14.5541
  46   2.0000      -0.518026       -14.0962
  47   2.0000      -0.506200       -13.7744
  48   2.0000      -0.499808       -13.6005
  49   2.0000      -0.497248       -13.5308
  50   2.0000      -0.488152       -13.2833
  51   2.0000      -0.480112       -13.0645
  52   2.0000      -0.471259       -12.8236
  53   2.0000      -0.467627       -12.7248
  54   2.0000      -0.462026       -12.5724
  55   2.0000      -0.447901       -12.1880
  56   2.0000      -0.444755       -12.1024
  57   2.0000      -0.438029       -11.9194
  58   2.0000      -0.432570       -11.7708
  59   2.0000      -0.428512       -11.6604
  60   2.0000      -0.425824       -11.5873
  61   2.0000      -0.413515       -11.2523
  62   2.0000      -0.406301       -11.0560
  63   2.0000      -0.350132        -9.5276
  64   2.0000      -0.337079        -9.1724
  65   2.0000      -0.331759        -9.0276
  66   2.0000      -0.289795        -7.8857
  67   0.0000       0.027183         0.7397
  68   0.0000       0.070912         1.9296
  69   0.0000       0.106794         2.9060
  70   0.0000       0.114813         3.1242
  71   0.0000       0.132767         3.6128

MULLIKEN ATOMIC CHARGES
-----------------------
   0 S :    0.117388
   1 C :   -0.099592
   2 C :   -0.090029
   3 C :    0.022463
   4 C :   -0.150795
   5 H :    0.019535
   6 C :    0.077245
   7 H :    0.009321
   8 H :    0.024805
   9 C :   -0.073893
  10 H :    0.025568
  11 H :    0.021545
  12 C :   -0.045961
  13 H :    0.030025
  14 H :    0.032639
  15 H :    0.031030
  16 S :    0.103810
  17 C :   -0.085591
  18 C :   -0.038491
  19 C :   -0.053666
  20 C :   -0.152768
  21 H :    0.029376
  22 C :    0.120782
  23 H :   -0.003224
  24 H :    0.021267
  25 C :   -0.063782
  26 H :    0.036421
  27 H :    0.030272
  28 C :   -0.089482
  29 H :    0.045853
  30 H :    0.040181
  31 H :    0.033711
  32 H :    0.032091
  33 H :    0.041948
Sum of atomic charges:   -0.0000000

LOEWDIN ATOMIC CHARGES
----------------------
   0 S :    0.395470
   1 C :   -0.191365
   2 C :   -0.055879
   3 C :   -0.068328
   4 C :   -0.179914
   5 H :    0.034053
   6 C :   -0.028450
   7 H :    0.025295
   8 H :    0.027550
   9 C :   -0.036364
  10 H :    0.015847
  11 H :    0.025823
  12 C :   -0.063309
  13 H :    0.019647
  14 H :    0.027361
  15 H :    0.025662
  16 S :    0.398686
  17 C :   -0.166691
  18 C :   -0.071280
  19 C :   -0.056566
  20 C :   -0.206601
  21 H :    0.038134
  22 C :   -0.024432
  23 H :    0.020171
  24 H :    0.032684
  25 C :   -0.035669
  26 H :    0.021891
  27 H :    0.023716
  28 C :   -0.077163
  29 H :    0.026724
  30 H :    0.034186
  31 H :    0.024851
  32 H :    0.024511
  33 H :    0.019748

  Mayer bond orders larger than 0.100000
B(  0-S ,  1-C ) :   1.1153 B(  0-S ,  4-C ) :   1.1521 B(  1-C ,  2-C ) :   1.6403
B(  1-C , 32-H ) :   0.9662 B(  2-C ,  3-C ) :   1.2253 B(  2-C ,  6-C ) :   1.0165
B(  3-C ,  4-C ) :   1.5864 B(  3-C ,  5-H ) :   0.9946 B(  4-C , 20-C ) :   1.0296
B(  6-C ,  7-H ) :   0.9401 B(  6-C ,  8-H ) :   0.9520 B(  6-C ,  9-C ) :   1.0567
B(  9-C , 10-H ) :   0.9619 B(  9-C , 11-H ) :   0.9574 B(  9-C , 12-C ) :   1.0741
B( 12-C , 13-H ) :   0.9776 B( 12-C , 14-H ) :   0.9725 B( 12-C , 15-H ) :   0.9715
B( 16-S , 17-C ) :   1.1439 B( 16-S , 20-C ) :   1.1517 B( 17-C , 18-C ) :   1.6217
B( 17-C , 20-C ) :   0.1014 B( 17-C , 33-H ) :   0.9729 B( 18-C , 19-C ) :   1.2420
B( 18-C , 21-H ) :   0.9808 B( 19-C , 20-C ) :   1.5766 B( 19-C , 22-C ) :   1.0515
B( 22-C , 23-H ) :   0.9234 B( 22-C , 24-H ) :   0.9279 B( 22-C , 25-C ) :   1.0862
B( 25-C , 26-H ) :   0.9501 B( 25-C , 27-H ) :   0.9551 B( 25-C , 28-C ) :   1.0732
B( 28-C , 29-H ) :   0.9714 B( 28-C , 30-H ) :   0.9724 B( 28-C , 31-H ) :   0.9751

Dispersion correction           -0.016300639
FINAL SINGLE POINT ENERGY     -1339.882121471994

DIPOLE MOMENT
-------------
                                X             Y             Z
Electronic contribution:     13.48891      18.89874      15.19626
Nuclear contribution   :    -13.92518     -19.35120     -15.33578
                        -----------------------------------------
Total Dipole Moment    :     -0.43627      -0.45246      -0.13952
                        -----------------------------------------
Magnitude (a.u.)       :      0.64383
Magnitude (Debye)      :      1.63648

Rotational constants in cm-1:     0.019777     0.010033     0.007673
Rotational constants in MHz :   592.887973   300.796083   230.043331

                             ****ORCA TERMINATED NORMALLY****
TOTAL RUN TIME: 0 days 0 hours 0 minutes 22 seconds 129 msec
