                         Program Version 4.2.1 -  RELEASE  -
|  1> ! wB97X-D3 SP def2-SVP
|  2> %pal
|  3> nprocs 24
|  4> end
|  5>
|  6> * xyz 0 1
|  7> S 	 1.86871 	 -25.7135 	 -112.366
|  8> C 	 2.73126 	 -25.6893 	 -113.825
|  9> C 	 3.40223 	 -26.8571 	 -114.058
| 10> C 	 2.98453 	 -27.8785 	 -113.215
| 11> C 	 2.18941 	 -27.3941 	 -112.18
| 12> H 	 3.31833 	 -28.9093 	 -113.163
| 13> C 	 4.31965 	 -27.0931 	 -115.227
| 14> H 	 3.97078 	 -28.0812 	 -115.515
| 15> H 	 5.3651 	 -27.4018 	 -115.018
| 16> C 	 4.11013 	 -26.1616 	 -116.464
| 17> H 	 3.0775 	 -25.9467 	 -116.6
| 18> H 	 4.5276 	 -25.2077 	 -116.34
| 19> C 	 4.675 	 -26.7999 	 -117.735
| 20> H 	 5.71645 	 -26.7069 	 -117.847
| 21> H 	 4.35018 	 -27.7578 	 -118.007
| 22> H 	 4.26823 	 -26.2493 	 -118.586
| 23> S 	 0.900973 	 -26.9781 	 -109.807
| 24> C 	 0.683163 	 -28.2475 	 -108.55
| 25> C 	 1.31616 	 -29.4046 	 -109.06
| 26> C 	 1.85944 	 -29.2866 	 -110.372
| 27> C 	 1.82144 	 -28.0256 	 -110.9
| 28> H 	 1.24322 	 -30.2903 	 -108.533
| 29> C 	 2.3505 	 -30.5093 	 -111.115
| 30> H 	 1.8584 	 -30.5083 	 -112.105
| 31> H 	 1.91089 	 -31.345 	 -110.561
| 32> C 	 3.94386 	 -30.7598 	 -111.073
| 33> H 	 4.27654 	 -31.1772 	 -110.152
| 34> H 	 4.40954 	 -29.7859 	 -111.093
| 35> C 	 4.4851 	 -31.7988 	 -112.149
| 36> H 	 5.54834 	 -31.6624 	 -112.151
| 37> H 	 4.19675 	 -31.5457 	 -113.201
| 38> H 	 4.24323 	 -32.821 	 -111.973
| 39> H 	 2.8487 	 -24.8106 	 -114.496
| 40> H 	 0.0114524 	 -28.1877 	 -107.71
| 41> *
| 42>
| 43>                          ****END OF INPUT****

CARTESIAN COORDINATES (ANGSTROEM)
---------------------------------
  S      1.868710  -25.713500  -112.366000
  C      2.731260  -25.689300  -113.825000
  C      3.402230  -26.857100  -114.058000
  C      2.984530  -27.878500  -113.215000
  C      2.189410  -27.394100  -112.180000
  H      3.318330  -28.909300  -113.163000
  C      4.319650  -27.093100  -115.227000
  H      3.970780  -28.081200  -115.515000
  H      5.365100  -27.401800  -115.018000
  C      4.110130  -26.161600  -116.464000
  H      3.077500  -25.946700  -116.600000
  H      4.527600  -25.207700  -116.340000
  C      4.675000  -26.799900  -117.735000
  H      5.716450  -26.706900  -117.847000
  H      4.350180  -27.757800  -118.007000
  H      4.268230  -26.249300  -118.586000
  S      0.900973  -26.978100  -109.807000
  C      0.683163  -28.247500  -108.550000
  C      1.316160  -29.404600  -109.060000
  C      1.859440  -29.286600  -110.372000
  C      1.821440  -28.025600  -110.900000
  H      1.243220  -30.290300  -108.533000
  C      2.350500  -30.509300  -111.115000
  H      1.858400  -30.508300  -112.105000
  H      1.910890  -31.345000  -110.561000
  C      3.943860  -30.759800  -111.073000
  H      4.276540  -31.177200  -110.152000
  H      4.409540  -29.785900  -111.093000
  C      4.485100  -31.798800  -112.149000
  H      5.548340  -31.662400  -112.151000
  H      4.196750  -31.545700  -113.201000
  H      4.243230  -32.821000  -111.973000
  H      2.848700  -24.810600  -114.496000
  H      0.011452  -28.187700  -107.710000

 Total Charge           Charge          ....    0
 Multiplicity           Mult            ....    1
 Number of Electrons    NEL             ....  134
 Basis Dimension        Dim             ....  322

ORBITAL ENERGIES
----------------

  NO   OCC          E(Eh)            E(eV)
   0   2.0000     -88.966567     -2420.9034
   1   2.0000     -88.960425     -2420.7362
   2   2.0000     -10.329605      -281.0828
   3   2.0000     -10.329329      -281.0753
   4   2.0000     -10.324356      -280.9400
   5   2.0000     -10.307192      -280.4729
   6   2.0000     -10.299637      -280.2674
   7   2.0000     -10.297460      -280.2081
   8   2.0000     -10.295289      -280.1491
   9   2.0000     -10.294654      -280.1318
  10   2.0000     -10.293470      -280.0995
  11   2.0000     -10.292467      -280.0723
  12   2.0000     -10.291267      -280.0396
  13   2.0000     -10.284965      -279.8681
  14   2.0000     -10.283935      -279.8401
  15   2.0000     -10.270295      -279.4689
  16   2.0000      -8.082794      -219.9440
  17   2.0000      -8.074399      -219.7156
  18   2.0000      -6.041136      -164.3877
  19   2.0000      -6.037196      -164.2804
  20   2.0000      -6.033531      -164.1807
  21   2.0000      -6.033134      -164.1699
  22   2.0000      -6.028937      -164.0557
  23   2.0000      -6.025042      -163.9497
  24   2.0000      -1.016000       -27.6468
  25   2.0000      -0.984014       -26.7764
  26   2.0000      -0.913830       -24.8666
  27   2.0000      -0.896140       -24.3852
  28   2.0000      -0.870083       -23.6762
  29   2.0000      -0.858298       -23.3555
  30   2.0000      -0.845743       -23.0138
  31   2.0000      -0.816166       -22.2090
  32   2.0000      -0.780314       -21.2334
  33   2.0000      -0.772210       -21.0129
  34   2.0000      -0.723452       -19.6861
  35   2.0000      -0.709398       -19.3037
  36   2.0000      -0.693485       -18.8707
  37   2.0000      -0.675578       -18.3834
  38   2.0000      -0.639164       -17.3925
  39   2.0000      -0.616485       -16.7754
  40   2.0000      -0.587524       -15.9873
  41   2.0000      -0.572247       -15.5716
  42   2.0000      -0.564537       -15.3618
  43   2.0000      -0.558332       -15.1930
  44   2.0000      -0.526297       -14.3213
  45   2.0000      -0.523928       -14.2568
  46   2.0000      -0.520790       -14.1714
  47   2.0000      -0.512593       -13.9484
  48   2.0000      -0.509124       -13.8540
  49   2.0000      -0.494906       -13.4671
  50   2.0000      -0.494370       -13.4525
  51   2.0000      -0.484703       -13.1894
  52   2.0000      -0.479270       -13.0416
  53   2.0000      -0.468503       -12.7486
  54   2.0000      -0.463224       -12.6050
  55   2.0000      -0.451898       -12.2968
  56   2.0000      -0.447502       -12.1772
  57   2.0000      -0.439242       -11.9524
  58   2.0000      -0.435331       -11.8460
  59   2.0000      -0.428513       -11.6604
  60   2.0000      -0.422741       -11.5034
  61   2.0000      -0.415108       -11.2957
  62   2.0000      -0.404516       -11.0074
  63   2.0000      -0.360844        -9.8191
  64   2.0000      -0.336652        -9.1608
  65   2.0000      -0.323276        -8.7968
  66   2.0000      -0.279181        -7.5969
  67   0.0000       0.016757         0.4560
  68   0.0000       0.085984         2.3397
  69   0.0000       0.097005         2.6396
  70   0.0000       0.121519         3.3067
  71   0.0000       0.131591         3.5808

MULLIKEN ATOMIC CHARGES
-----------------------
   0 S :    0.115823
   1 C :   -0.125810
   2 C :   -0.074518
   3 C :   -0.006366
   4 C :   -0.094161
   5 H :   -0.001037
   6 C :    0.060680
   7 H :    0.009032
   8 H :    0.040323
   9 C :   -0.056668
  10 H :    0.022609
  11 H :    0.023541
  12 C :   -0.014634
  13 H :    0.026581
  14 H :    0.017125
  15 H :    0.013397
  16 S :    0.050797
  17 C :   -0.086787
  18 C :    0.002824
  19 C :   -0.105586
  20 C :   -0.080740
  21 H :   -0.009581
  22 C :    0.034509
  23 H :    0.048726
  24 H :    0.015233
  25 C :   -0.059619
  26 H :    0.022271
  27 H :    0.036300
  28 C :   -0.052247
  29 H :    0.032254
  30 H :    0.029897
  31 H :    0.040314
  32 H :    0.058840
  33 H :    0.066678
Sum of atomic charges:   -0.0000000

LOEWDIN ATOMIC CHARGES
----------------------
   0 S :    0.441729
   1 C :   -0.223428
   2 C :   -0.065779
   3 C :   -0.067936
   4 C :   -0.191086
   5 H :    0.032673
   6 C :   -0.038548
   7 H :    0.032692
   8 H :    0.038256
   9 C :   -0.031852
  10 H :    0.022989
  11 H :    0.018319
  12 C :   -0.057962
  13 H :    0.020140
  14 H :    0.018218
  15 H :    0.030786
  16 S :    0.364690
  17 C :   -0.170177
  18 C :   -0.057770
  19 C :   -0.074162
  20 C :   -0.176794
  21 H :    0.017146
  22 C :   -0.036527
  23 H :    0.034965
  24 H :    0.030536
  25 C :   -0.032903
  26 H :    0.022899
  27 H :    0.022336
  28 C :   -0.064802
  29 H :    0.026764
  30 H :    0.024458
  31 H :    0.022437
  32 H :    0.035558
  33 H :    0.032137

  Mayer bond orders larger than 0.100000
B(  0-S ,  1-C ) :   1.1452 B(  0-S ,  4-C ) :   1.1692 B(  1-C ,  2-C ) :   1.6025
B(  1-C , 32-H ) :   0.9553 B(  2-C ,  3-C ) :   1.2772 B(  2-C ,  6-C ) :   1.0056
B(  3-C ,  4-C ) :   1.5404 B(  3-C ,  5-H ) :   0.9903 B(  4-C , 20-C ) :   1.0651
B(  6-C ,  7-H ) :   0.9414 B(  6-C ,  8-H ) :   0.9305 B(  6-C ,  9-C ) :   1.0708
B(  9-C , 10-H ) :   0.9547 B(  9-C , 11-H ) :   0.9485 B(  9-C , 12-C ) :   1.0938
B( 12-C , 13-H ) :   0.9764 B( 12-C , 14-H ) :   0.9750 B( 12-C , 15-H ) :   0.9676
B( 16-S , 17-C ) :   1.1428 B( 16-S , 20-C ) :   1.1211 B( 17-C , 18-C ) :   1.5868
B( 17-C , 20-C ) :   0.1008 B( 17-C , 33-H ) :   0.9727 B( 18-C , 19-C ) :   1.2660
B( 18-C , 21-H ) :   0.9941 B( 19-C , 20-C ) :   1.5977 B( 19-C , 22-C ) :   1.0434
B( 22-C , 23-H ) :   0.9457 B( 22-C , 24-H ) :   0.9303 B( 22-C , 25-C ) :   1.0363
B( 25-C , 26-H ) :   0.9551 B( 25-C , 27-H ) :   0.9680 B( 25-C , 28-C ) :   1.0644
B( 28-C , 29-H ) :   0.9742 B( 28-C , 30-H ) :   0.9791 B( 28-C , 31-H ) :   0.9789

Dispersion correction           -0.013827955
FINAL SINGLE POINT ENERGY     -1339.854680683487

DIPOLE MOMENT
-------------
                                X             Y             Z
Electronic contribution:    -17.32683      16.03310      20.76197
Nuclear contribution   :     17.66183     -16.60098     -21.14001
                        -----------------------------------------
Total Dipole Moment    :      0.33500      -0.56788      -0.37804
                        -----------------------------------------
Magnitude (a.u.)       :      0.76002
Magnitude (Debye)      :      1.93181

Rotational constants in cm-1:     0.019537     0.008447     0.006020
Rotational constants in MHz :   585.711187   253.241462   180.472080

                             ****ORCA TERMINATED NORMALLY****
TOTAL RUN TIME: 0 days 0 hours 0 minutes 20 seconds 196 msec
