                         Program Version 4.2.1 -  RELEASE  -
|  1> ! wB97X-D3 SP def2-SVP
|  2> %pal
|  3> nprocs 24
|  4> end
|  5>
|  6> * xyz 0 1
|  7> S 	 -126.551 	 61.9644 	 -58.3581
|  8> C 	 -126.63 	 62.3898 	 -60.0309
|  9> C 	 -127.768 	 61.9253 	 -60.6368
| 10> C 	 -128.659 	 61.362 	 -59.7029
| 11> C 	 -128.187 	 61.31 	 -58.4427
| 12> H 	 -129.604 	 60.9375 	 -60.0607
| 13> C 	 -128.118 	 62.1122 	 -62.1213
| 14> H 	 -128.805 	 61.3569 	 -62.5894
| 15> H 	 -127.115 	 62.0983 	 -62.6296
| 16> C 	 -128.749 	 63.4954 	 -62.362
| 17> H 	 -129.788 	 63.5471 	 -61.9581
| 18> H 	 -128.167 	 64.2013 	 -61.8738
| 19> C 	 -128.671 	 63.8186 	 -63.8158
| 20> H 	 -127.629 	 63.8434 	 -64.1418
| 21> H 	 -129.209 	 62.959 	 -64.379
| 22> H 	 -129.185 	 64.7952 	 -63.9827
| 23> S 	 -130.204 	 61.1991 	 -56.6246
| 24> C 	 -130.396 	 59.753 	 -55.6761
| 25> C 	 -129.382 	 58.844 	 -55.9914
| 26> C 	 -128.45 	 59.3129 	 -56.9376
| 27> C 	 -128.79 	 60.576 	 -57.3836
| 28> H 	 -129.255 	 57.832 	 -55.5631
| 29> C 	 -127.178 	 58.5942 	 -57.3592
| 30> H 	 -126.829 	 59.1163 	 -58.2398
| 31> H 	 -127.486 	 57.5301 	 -57.5306
| 32> C 	 -125.953 	 58.686 	 -56.4088
| 33> H 	 -125.988 	 58.0301 	 -55.5539
| 34> H 	 -125.839 	 59.6844 	 -56.0082
| 35> C 	 -124.593 	 58.3204 	 -57.0703
| 36> H 	 -123.803 	 58.4906 	 -56.3141
| 37> H 	 -124.319 	 59.0342 	 -57.8827
| 38> H 	 -124.587 	 57.2871 	 -57.4484
| 39> H 	 -125.733 	 62.7687 	 -60.5551
| 40> H 	 -131.124 	 59.4966 	 -54.8928
| 41> *
| 42>
| 43>                          ****END OF INPUT****

CARTESIAN COORDINATES (ANGSTROEM)
---------------------------------
  S    -126.551000   61.964400  -58.358100
  C    -126.630000   62.389800  -60.030900
  C    -127.768000   61.925300  -60.636800
  C    -128.659000   61.362000  -59.702900
  C    -128.187000   61.310000  -58.442700
  H    -129.604000   60.937500  -60.060700
  C    -128.118000   62.112200  -62.121300
  H    -128.805000   61.356900  -62.589400
  H    -127.115000   62.098300  -62.629600
  C    -128.749000   63.495400  -62.362000
  H    -129.788000   63.547100  -61.958100
  H    -128.167000   64.201300  -61.873800
  C    -128.671000   63.818600  -63.815800
  H    -127.629000   63.843400  -64.141800
  H    -129.209000   62.959000  -64.379000
  H    -129.185000   64.795200  -63.982700
  S    -130.204000   61.199100  -56.624600
  C    -130.396000   59.753000  -55.676100
  C    -129.382000   58.844000  -55.991400
  C    -128.450000   59.312900  -56.937600
  C    -128.790000   60.576000  -57.383600
  H    -129.255000   57.832000  -55.563100
  C    -127.178000   58.594200  -57.359200
  H    -126.829000   59.116300  -58.239800
  H    -127.486000   57.530100  -57.530600
  C    -125.953000   58.686000  -56.408800
  H    -125.988000   58.030100  -55.553900
  H    -125.839000   59.684400  -56.008200
  C    -124.593000   58.320400  -57.070300
  H    -123.803000   58.490600  -56.314100
  H    -124.319000   59.034200  -57.882700
  H    -124.587000   57.287100  -57.448400
  H    -125.733000   62.768700  -60.555100
  H    -131.124000   59.496600  -54.892800

 Total Charge           Charge          ....    0
 Multiplicity           Mult            ....    1
 Number of Electrons    NEL             ....  134
 Basis Dimension        Dim             ....  322

ORBITAL ENERGIES
----------------

  NO   OCC          E(Eh)            E(eV)
   0   2.0000     -88.968016     -2420.9428
   1   2.0000     -88.967658     -2420.9331
   2   2.0000     -10.321729      -280.8685
   3   2.0000     -10.317842      -280.7628
   4   2.0000     -10.315512      -280.6994
   5   2.0000     -10.313962      -280.6572
   6   2.0000     -10.300220      -280.2832
   7   2.0000     -10.297805      -280.2175
   8   2.0000     -10.294514      -280.1280
   9   2.0000     -10.292016      -280.0600
  10   2.0000     -10.291845      -280.0553
  11   2.0000     -10.289590      -279.9940
  12   2.0000     -10.284613      -279.8585
  13   2.0000     -10.282859      -279.8108
  14   2.0000     -10.280294      -279.7410
  15   2.0000     -10.278565      -279.6940
  16   2.0000      -8.082669      -219.9406
  17   2.0000      -8.082657      -219.9403
  18   2.0000      -6.041127      -164.3874
  19   2.0000      -6.041104      -164.3868
  20   2.0000      -6.037259      -164.2822
  21   2.0000      -6.036978      -164.2745
  22   2.0000      -6.033592      -164.1824
  23   2.0000      -6.033445      -164.1784
  24   2.0000      -1.014201       -27.5978
  25   2.0000      -0.989147       -26.9160
  26   2.0000      -0.916897       -24.9500
  27   2.0000      -0.902259       -24.5517
  28   2.0000      -0.873753       -23.7760
  29   2.0000      -0.853772       -23.2323
  30   2.0000      -0.849584       -23.1184
  31   2.0000      -0.811459       -22.0809
  32   2.0000      -0.776853       -21.1393
  33   2.0000      -0.764025       -20.7902
  34   2.0000      -0.702482       -19.1155
  35   2.0000      -0.692523       -18.8445
  36   2.0000      -0.691269       -18.8104
  37   2.0000      -0.663125       -18.0446
  38   2.0000      -0.642316       -17.4783
  39   2.0000      -0.621217       -16.9042
  40   2.0000      -0.591897       -16.1063
  41   2.0000      -0.579631       -15.7726
  42   2.0000      -0.564513       -15.3612
  43   2.0000      -0.556380       -15.1399
  44   2.0000      -0.525419       -14.2974
  45   2.0000      -0.522242       -14.2109
  46   2.0000      -0.517641       -14.0857
  47   2.0000      -0.506746       -13.7893
  48   2.0000      -0.503915       -13.7122
  49   2.0000      -0.496044       -13.4980
  50   2.0000      -0.490404       -13.3446
  51   2.0000      -0.474922       -12.9233
  52   2.0000      -0.466917       -12.7055
  53   2.0000      -0.465339       -12.6625
  54   2.0000      -0.460376       -12.5275
  55   2.0000      -0.445267       -12.1163
  56   2.0000      -0.440394       -11.9837
  57   2.0000      -0.437370       -11.9014
  58   2.0000      -0.434075       -11.8118
  59   2.0000      -0.424333       -11.5467
  60   2.0000      -0.421467       -11.4687
  61   2.0000      -0.419073       -11.4035
  62   2.0000      -0.416509       -11.3338
  63   2.0000      -0.342978        -9.3329
  64   2.0000      -0.333461        -9.0739
  65   2.0000      -0.323120        -8.7925
  66   2.0000      -0.300969        -8.1898
  67   0.0000       0.040881         1.1124
  68   0.0000       0.061729         1.6797
  69   0.0000       0.107417         2.9230
  70   0.0000       0.125303         3.4097
  71   0.0000       0.131776         3.5858

MULLIKEN ATOMIC CHARGES
-----------------------
   0 S :    0.110857
   1 C :   -0.142648
   2 C :   -0.070910
   3 C :    0.047978
   4 C :   -0.173398
   5 H :    0.015811
   6 C :    0.006785
   7 H :    0.040196
   8 H :    0.026651
   9 C :   -0.039090
  10 H :    0.037457
  11 H :    0.007859
  12 C :   -0.063949
  13 H :    0.034199
  14 H :    0.033815
  15 H :    0.046385
  16 S :    0.134056
  17 C :   -0.097802
  18 C :   -0.048512
  19 C :   -0.021293
  20 C :   -0.191659
  21 H :    0.021095
  22 C :    0.086192
  23 H :    0.025175
  24 H :    0.034570
  25 C :   -0.056113
  26 H :    0.021068
  27 H :    0.022271
  28 C :   -0.082956
  29 H :    0.036441
  30 H :    0.034285
  31 H :    0.041062
  32 H :    0.059466
  33 H :    0.064656
Sum of atomic charges:    0.0000000

LOEWDIN ATOMIC CHARGES
----------------------
   0 S :    0.412917
   1 C :   -0.207337
   2 C :   -0.066651
   3 C :   -0.054415
   4 C :   -0.196807
   5 H :    0.036774
   6 C :   -0.032520
   7 H :    0.033804
   8 H :    0.033377
   9 C :   -0.042288
  10 H :    0.029054
  11 H :    0.013309
  12 C :   -0.068410
  13 H :    0.023338
  14 H :    0.030480
  15 H :    0.030684
  16 S :    0.434391
  17 C :   -0.203436
  18 C :   -0.074465
  19 C :   -0.058886
  20 C :   -0.216715
  21 H :    0.034060
  22 C :   -0.031804
  23 H :    0.026519
  24 H :    0.036554
  25 C :   -0.040005
  26 H :    0.018949
  27 H :    0.021009
  28 C :   -0.069590
  29 H :    0.029406
  30 H :    0.024092
  31 H :    0.024827
  32 H :    0.031752
  33 H :    0.038033

  Mayer bond orders larger than 0.100000
B(  0-S ,  1-C ) :   1.1444 B(  0-S ,  4-C ) :   1.1400 B(  1-C ,  2-C ) :   1.6112
B(  1-C , 32-H ) :   0.9605 B(  2-C ,  3-C ) :   1.2640 B(  2-C ,  6-C ) :   1.0206
B(  3-C ,  4-C ) :   1.5851 B(  3-C ,  5-H ) :   0.9944 B(  4-C , 20-C ) :   1.0085
B(  6-C ,  7-H ) :   0.9448 B(  6-C ,  8-H ) :   0.9411 B(  6-C ,  9-C ) :   1.0656
B(  9-C , 10-H ) :   0.9514 B(  9-C , 11-H ) :   0.9508 B(  9-C , 12-C ) :   1.0880
B( 12-C , 13-H ) :   0.9745 B( 12-C , 14-H ) :   0.9707 B( 12-C , 15-H ) :   0.9711
B( 16-S , 17-C ) :   1.1591 B( 16-S , 20-C ) :   1.1619 B( 17-C , 18-C ) :   1.5761
B( 17-C , 20-C ) :   0.1040 B( 17-C , 33-H ) :   0.9660 B( 18-C , 19-C ) :   1.2852
B( 18-C , 21-H ) :   0.9801 B( 19-C , 20-C ) :   1.5682 B( 19-C , 22-C ) :   1.0539
B( 22-C , 23-H ) :   0.9251 B( 22-C , 24-H ) :   0.9272 B( 22-C , 25-C ) :   1.0631
B( 25-C , 26-H ) :   0.9548 B( 25-C , 27-H ) :   0.9528 B( 25-C , 28-C ) :   1.0873
B( 28-C , 29-H ) :   0.9745 B( 28-C , 30-H ) :   0.9737 B( 28-C , 31-H ) :   0.9760

Dispersion correction           -0.014459406
FINAL SINGLE POINT ENERGY     -1339.888947632117

DIPOLE MOMENT
-------------
                                X             Y             Z
Electronic contribution:     -9.45820       3.82305      16.26700
Nuclear contribution   :      9.56393      -4.05970     -16.61116
                        -----------------------------------------
Total Dipole Moment    :      0.10573      -0.23666      -0.34416
                        -----------------------------------------
Magnitude (a.u.)       :      0.43085
Magnitude (Debye)      :      1.09513

Rotational constants in cm-1:     0.020275     0.008213     0.006489
Rotational constants in MHz :   607.841875   246.213807   194.535111

                             ****ORCA TERMINATED NORMALLY****
TOTAL RUN TIME: 0 days 0 hours 0 minutes 21 seconds 456 msec
