                         Program Version 4.2.1 -  RELEASE  -
|  1> ! wB97X-D3 SP def2-SVP
|  2> %pal
|  3> nprocs 24
|  4> end
|  5>
|  6> * xyz 0 1
|  7> S 	 -38.5895 	 19.0324 	 26.7214
|  8> C 	 -38.7185 	 17.3819 	 27.3167
|  9> C 	 -39.2321 	 16.5314 	 26.3731
| 10> C 	 -39.5391 	 17.1992 	 25.1655
| 11> C 	 -39.3209 	 18.5235 	 25.1953
| 12> H 	 -39.8833 	 16.7619 	 24.1988
| 13> C 	 -39.3559 	 15.0072 	 26.499
| 14> H 	 -40.0467 	 14.5858 	 27.32
| 15> H 	 -38.3236 	 14.7074 	 26.7697
| 16> C 	 -39.7854 	 14.1641 	 25.2496
| 17> H 	 -40.7883 	 14.4307 	 24.8427
| 18> H 	 -39.1509 	 14.4625 	 24.3714
| 19> C 	 -39.7624 	 12.6995 	 25.6227
| 20> H 	 -39.5792 	 12.1606 	 24.7281
| 21> H 	 -38.9388 	 12.5446 	 26.3697
| 22> H 	 -40.7696 	 12.4256 	 26.0487
| 23> S 	 -41.5326 	 19.8404 	 24.1906
| 24> C 	 -41.2317 	 20.9163 	 22.8524
| 25> C 	 -39.9311 	 21.0071 	 22.5125
| 26> C 	 -39.0845 	 20.1815 	 23.3163
| 27> C 	 -39.7896 	 19.4272 	 24.2417
| 28> H 	 -39.6541 	 21.5454 	 21.6111
| 29> C 	 -37.6403 	 20.0802 	 22.8762
| 30> H 	 -37.6994 	 19.5109 	 21.9582
| 31> H 	 -37.1655 	 19.464 	 23.6204
| 32> C 	 -36.7936 	 21.3474 	 22.7446
| 33> H 	 -37.387 	 22.1628 	 22.2765
| 34> H 	 -35.9604 	 21.2348 	 22.099
| 35> C 	 -36.3257 	 22.0623 	 23.9823
| 36> H 	 -35.8314 	 23.0581 	 23.7585
| 37> H 	 -35.4552 	 21.6487 	 24.4614
| 38> H 	 -37.1487 	 22.167 	 24.6959
| 39> H 	 -38.1718 	 16.999 	 28.1685
| 40> H 	 -41.9587 	 21.3466 	 22.2136
| 41> *
| 42>
| 43>                          ****END OF INPUT****

CARTESIAN COORDINATES (ANGSTROEM)
---------------------------------
  S    -38.589500   19.032400   26.721400
  C    -38.718500   17.381900   27.316700
  C    -39.232100   16.531400   26.373100
  C    -39.539100   17.199200   25.165500
  C    -39.320900   18.523500   25.195300
  H    -39.883300   16.761900   24.198800
  C    -39.355900   15.007200   26.499000
  H    -40.046700   14.585800   27.320000
  H    -38.323600   14.707400   26.769700
  C    -39.785400   14.164100   25.249600
  H    -40.788300   14.430700   24.842700
  H    -39.150900   14.462500   24.371400
  C    -39.762400   12.699500   25.622700
  H    -39.579200   12.160600   24.728100
  H    -38.938800   12.544600   26.369700
  H    -40.769600   12.425600   26.048700
  S    -41.532600   19.840400   24.190600
  C    -41.231700   20.916300   22.852400
  C    -39.931100   21.007100   22.512500
  C    -39.084500   20.181500   23.316300
  C    -39.789600   19.427200   24.241700
  H    -39.654100   21.545400   21.611100
  C    -37.640300   20.080200   22.876200
  H    -37.699400   19.510900   21.958200
  H    -37.165500   19.464000   23.620400
  C    -36.793600   21.347400   22.744600
  H    -37.387000   22.162800   22.276500
  H    -35.960400   21.234800   22.099000
  C    -36.325700   22.062300   23.982300
  H    -35.831400   23.058100   23.758500
  H    -35.455200   21.648700   24.461400
  H    -37.148700   22.167000   24.695900
  H    -38.171800   16.999000   28.168500
  H    -41.958700   21.346600   22.213600

 Total Charge           Charge          ....    0
 Multiplicity           Mult            ....    1
 Number of Electrons    NEL             ....  134
 Basis Dimension        Dim             ....  322

ORBITAL ENERGIES
----------------

  NO   OCC          E(Eh)            E(eV)
   0   2.0000     -88.964223     -2420.8396
   1   2.0000     -88.963469     -2420.8191
   2   2.0000     -10.320556      -280.8366
   3   2.0000     -10.316634      -280.7299
   4   2.0000     -10.311835      -280.5993
   5   2.0000     -10.309707      -280.5414
   6   2.0000     -10.303230      -280.3651
   7   2.0000     -10.301583      -280.3203
   8   2.0000     -10.300608      -280.2938
   9   2.0000     -10.293071      -280.0887
  10   2.0000     -10.290112      -280.0082
  11   2.0000     -10.288830      -279.9733
  12   2.0000     -10.285490      -279.8824
  13   2.0000     -10.283990      -279.8416
  14   2.0000     -10.283376      -279.8249
  15   2.0000     -10.274899      -279.5942
  16   2.0000      -8.078655      -219.8314
  17   2.0000      -8.077866      -219.8099
  18   2.0000      -6.037193      -164.2804
  19   2.0000      -6.036412      -164.2591
  20   2.0000      -6.033275      -164.1738
  21   2.0000      -6.032555      -164.1542
  22   2.0000      -6.029324      -164.0662
  23   2.0000      -6.028462      -164.0428
  24   2.0000      -1.009068       -27.4581
  25   2.0000      -0.983973       -26.7753
  26   2.0000      -0.909872       -24.7589
  27   2.0000      -0.909171       -24.7398
  28   2.0000      -0.878724       -23.9113
  29   2.0000      -0.851235       -23.1633
  30   2.0000      -0.848378       -23.0855
  31   2.0000      -0.816016       -22.2049
  32   2.0000      -0.783988       -21.3334
  33   2.0000      -0.767476       -20.8841
  34   2.0000      -0.714300       -19.4371
  35   2.0000      -0.697060       -18.9680
  36   2.0000      -0.688328       -18.7304
  37   2.0000      -0.659185       -17.9373
  38   2.0000      -0.638235       -17.3673
  39   2.0000      -0.616477       -16.7752
  40   2.0000      -0.597008       -16.2454
  41   2.0000      -0.571334       -15.5468
  42   2.0000      -0.564913       -15.3721
  43   2.0000      -0.561297       -15.2737
  44   2.0000      -0.537683       -14.6311
  45   2.0000      -0.526832       -14.3358
  46   2.0000      -0.517959       -14.0944
  47   2.0000      -0.505057       -13.7433
  48   2.0000      -0.501175       -13.6377
  49   2.0000      -0.492451       -13.4003
  50   2.0000      -0.489041       -13.3075
  51   2.0000      -0.484431       -13.1820
  52   2.0000      -0.472139       -12.8476
  53   2.0000      -0.460514       -12.5312
  54   2.0000      -0.456361       -12.4182
  55   2.0000      -0.449615       -12.2347
  56   2.0000      -0.447321       -12.1722
  57   2.0000      -0.438955       -11.9446
  58   2.0000      -0.432182       -11.7603
  59   2.0000      -0.425147       -11.5689
  60   2.0000      -0.422029       -11.4840
  61   2.0000      -0.410009       -11.1569
  62   2.0000      -0.399349       -10.8668
  63   2.0000      -0.337887        -9.1944
  64   2.0000      -0.329833        -8.9752
  65   2.0000      -0.321638        -8.7522
  66   2.0000      -0.307886        -8.3780
  67   0.0000       0.036846         1.0026
  68   0.0000       0.059812         1.6276
  69   0.0000       0.109621         2.9829
  70   0.0000       0.115010         3.1296
  71   0.0000       0.135412         3.6848

MULLIKEN ATOMIC CHARGES
-----------------------
   0 S :    0.116693
   1 C :   -0.124384
   2 C :   -0.035944
   3 C :   -0.006756
   4 C :   -0.169077
   5 H :    0.031390
   6 C :   -0.009644
   7 H :    0.054933
   8 H :    0.038930
   9 C :   -0.128993
  10 H :    0.036272
  11 H :    0.032559
  12 C :   -0.024961
  13 H :    0.031495
  14 H :    0.039155
  15 H :    0.050380
  16 S :    0.116974
  17 C :   -0.065352
  18 C :   -0.041392
  19 C :   -0.038135
  20 C :   -0.186188
  21 H :    0.023756
  22 C :    0.104297
  23 H :    0.042321
  24 H :    0.015217
  25 C :   -0.056497
  26 H :    0.023569
  27 H :    0.017867
  28 C :   -0.069737
  29 H :    0.030782
  30 H :    0.018619
  31 H :    0.045012
  32 H :    0.047211
  33 H :    0.039629
Sum of atomic charges:    0.0000000

LOEWDIN ATOMIC CHARGES
----------------------
   0 S :    0.394595
   1 C :   -0.191678
   2 C :   -0.066324
   3 C :   -0.061736
   4 C :   -0.198562
   5 H :    0.042216
   6 C :   -0.042234
   7 H :    0.041543
   8 H :    0.034089
   9 C :   -0.056163
  10 H :    0.024861
  11 H :    0.021860
  12 C :   -0.063534
  13 H :    0.024149
  14 H :    0.030834
  15 H :    0.035614
  16 S :    0.389615
  17 C :   -0.174180
  18 C :   -0.076125
  19 C :   -0.047858
  20 C :   -0.197246
  21 H :    0.033008
  22 C :   -0.028224
  23 H :    0.039954
  24 H :    0.026509
  25 C :   -0.045420
  26 H :    0.027312
  27 H :    0.021794
  28 C :   -0.071529
  29 H :    0.034931
  30 H :    0.017970
  31 H :    0.027522
  32 H :    0.028374
  33 H :    0.024065

  Mayer bond orders larger than 0.100000
B(  0-S ,  1-C ) :   1.1345 B(  0-S ,  4-C ) :   1.1227 B(  1-C ,  2-C ) :   1.6369
B(  1-C , 32-H ) :   0.9675 B(  2-C ,  3-C ) :   1.2344 B(  2-C ,  6-C ) :   0.9866
B(  3-C ,  4-C ) :   1.5917 B(  3-C ,  5-H ) :   0.9876 B(  4-C , 20-C ) :   1.0763
B(  6-C ,  7-H ) :   0.9479 B(  6-C ,  8-H ) :   0.9372 B(  6-C ,  9-C ) :   1.0807
B(  9-C , 10-H ) :   0.9520 B(  9-C , 11-H ) :   0.9509 B(  9-C , 12-C ) :   1.0678
B( 12-C , 13-H ) :   0.9702 B( 12-C , 14-H ) :   0.9754 B( 12-C , 15-H ) :   0.9731
B( 16-S , 17-C ) :   1.1441 B( 16-S , 20-C ) :   1.1069 B( 17-C , 18-C ) :   1.6612
B( 17-C , 33-H ) :   0.9611 B( 18-C , 19-C ) :   1.2057 B( 18-C , 21-H ) :   0.9848
B( 19-C , 20-C ) :   1.6119 B( 19-C , 22-C ) :   1.0427 B( 22-C , 23-H ) :   0.9361
B( 22-C , 24-H ) :   0.9268 B( 22-C , 25-C ) :   1.0601 B( 25-C , 26-H ) :   0.9587
B( 25-C , 27-H ) :   0.9516 B( 25-C , 28-C ) :   1.0832 B( 28-C , 29-H ) :   0.9697
B( 28-C , 30-H ) :   0.9715 B( 28-C , 31-H ) :   0.9760

Dispersion correction           -0.013971084
FINAL SINGLE POINT ENERGY     -1339.866150120969

DIPOLE MOMENT
-------------
                                X             Y             Z
Electronic contribution:    -11.77721      11.94423       5.73002
Nuclear contribution   :     12.08554     -12.35142      -6.23509
                        -----------------------------------------
Total Dipole Moment    :      0.30833      -0.40719      -0.50507
                        -----------------------------------------
Magnitude (a.u.)       :      0.71830
Magnitude (Debye)      :      1.82579

Rotational constants in cm-1:     0.020517     0.007539     0.006752
Rotational constants in MHz :   615.083904   226.004088   202.419621

                             ****ORCA TERMINATED NORMALLY****
TOTAL RUN TIME: 0 days 0 hours 0 minutes 21 seconds 38 msec
