                         Program Version 4.2.1 -  RELEASE  -
|  1> ! wB97X-D3 SP def2-SVP
|  2> %pal
|  3> nprocs 24
|  4> end
|  5>
|  6> * xyz 0 1
|  7> S 	 -59.7937 	 11.0067 	 -87.4246
|  8> C 	 -59.3454 	 10.5349 	 -88.9992
|  9> C 	 -59.196 	 9.16351 	 -89.1412
| 10> C 	 -59.6783 	 8.49577 	 -87.9274
| 11> C 	 -60.1131 	 9.39343 	 -86.9007
| 12> H 	 -59.6756 	 7.39639 	 -87.8418
| 13> C 	 -58.7757 	 8.40473 	 -90.3916
| 14> H 	 -58.4347 	 9.03759 	 -91.199
| 15> H 	 -59.6073 	 7.75916 	 -90.6636
| 16> C 	 -57.707 	 7.25048 	 -90.0957
| 17> H 	 -57.9442 	 6.6338 	 -89.2583
| 18> H 	 -57.7956 	 6.53204 	 -90.8703
| 19> C 	 -56.2941 	 7.66113 	 -89.92
| 20> H 	 -55.8177 	 8.20132 	 -90.7393
| 21> H 	 -56.2516 	 8.50111 	 -89.1952
| 22> H 	 -55.6323 	 6.87795 	 -89.5569
| 23> S 	 -59.9902 	 9.99557 	 -84.2033
| 24> C 	 -61.1563 	 9.32061 	 -83.0665
| 25> C 	 -61.9308 	 8.37357 	 -83.7179
| 26> C 	 -61.6887 	 8.21024 	 -85.0971
| 27> C 	 -60.6953 	 9.12601 	 -85.5716
| 28> H 	 -62.707 	 7.93357 	 -83.1759
| 29> C 	 -62.4428 	 7.17254 	 -86.0198
| 30> H 	 -62.5128 	 6.2665 	 -85.3697
| 31> H 	 -61.6005 	 6.82181 	 -86.6379
| 32> C 	 -63.7069 	 7.6132 	 -86.8112
| 33> H 	 -64.1493 	 6.89439 	 -87.4233
| 34> H 	 -63.5075 	 8.37791 	 -87.5322
| 35> C 	 -64.7009 	 8.16557 	 -85.7833
| 36> H 	 -64.5479 	 9.21226 	 -85.4718
| 37> H 	 -64.5085 	 7.70345 	 -84.7901
| 38> H 	 -65.6621 	 7.94812 	 -86.1435
| 39> H 	 -59.0641 	 11.3401 	 -89.7843
| 40> H 	 -61.3834 	 9.76139 	 -82.1357
| 41> *
| 42>
| 43>                          ****END OF INPUT****

CARTESIAN COORDINATES (ANGSTROEM)
---------------------------------
  S    -59.793700   11.006700  -87.424600
  C    -59.345400   10.534900  -88.999200
  C    -59.196000    9.163510  -89.141200
  C    -59.678300    8.495770  -87.927400
  C    -60.113100    9.393430  -86.900700
  H    -59.675600    7.396390  -87.841800
  C    -58.775700    8.404730  -90.391600
  H    -58.434700    9.037590  -91.199000
  H    -59.607300    7.759160  -90.663600
  C    -57.707000    7.250480  -90.095700
  H    -57.944200    6.633800  -89.258300
  H    -57.795600    6.532040  -90.870300
  C    -56.294100    7.661130  -89.920000
  H    -55.817700    8.201320  -90.739300
  H    -56.251600    8.501110  -89.195200
  H    -55.632300    6.877950  -89.556900
  S    -59.990200    9.995570  -84.203300
  C    -61.156300    9.320610  -83.066500
  C    -61.930800    8.373570  -83.717900
  C    -61.688700    8.210240  -85.097100
  C    -60.695300    9.126010  -85.571600
  H    -62.707000    7.933570  -83.175900
  C    -62.442800    7.172540  -86.019800
  H    -62.512800    6.266500  -85.369700
  H    -61.600500    6.821810  -86.637900
  C    -63.706900    7.613200  -86.811200
  H    -64.149300    6.894390  -87.423300
  H    -63.507500    8.377910  -87.532200
  C    -64.700900    8.165570  -85.783300
  H    -64.547900    9.212260  -85.471800
  H    -64.508500    7.703450  -84.790100
  H    -65.662100    7.948120  -86.143500
  H    -59.064100   11.340100  -89.784300
  H    -61.383400    9.761390  -82.135700

 Total Charge           Charge          ....    0
 Multiplicity           Mult            ....    1
 Number of Electrons    NEL             ....  134
 Basis Dimension        Dim             ....  322

ORBITAL ENERGIES
----------------

  NO   OCC          E(Eh)            E(eV)
   0   2.0000     -88.966890     -2420.9121
   1   2.0000     -88.965507     -2420.8745
   2   2.0000     -10.336528      -281.2712
   3   2.0000     -10.335732      -281.2496
   4   2.0000     -10.320143      -280.8254
   5   2.0000     -10.314698      -280.6772
   6   2.0000     -10.310981      -280.5761
   7   2.0000     -10.308506      -280.5087
   8   2.0000     -10.306078      -280.4426
   9   2.0000     -10.301186      -280.3095
  10   2.0000     -10.300261      -280.2844
  11   2.0000     -10.290702      -280.0242
  12   2.0000     -10.283453      -279.8270
  13   2.0000     -10.281999      -279.7874
  14   2.0000     -10.272687      -279.5340
  15   2.0000     -10.271376      -279.4983
  16   2.0000      -8.082809      -219.9444
  17   2.0000      -8.079714      -219.8602
  18   2.0000      -6.041211      -164.3897
  19   2.0000      -6.038224      -164.3084
  20   2.0000      -6.037019      -164.2756
  21   2.0000      -6.034149      -164.1975
  22   2.0000      -6.033737      -164.1863
  23   2.0000      -6.030661      -164.1026
  24   2.0000      -1.004341       -27.3295
  25   2.0000      -0.981849       -26.7175
  26   2.0000      -0.911505       -24.8033
  27   2.0000      -0.902407       -24.5557
  28   2.0000      -0.869045       -23.6479
  29   2.0000      -0.848484       -23.0884
  30   2.0000      -0.844519       -22.9805
  31   2.0000      -0.810384       -22.0517
  32   2.0000      -0.783786       -21.3279
  33   2.0000      -0.770203       -20.9583
  34   2.0000      -0.714824       -19.4514
  35   2.0000      -0.705494       -19.1975
  36   2.0000      -0.689928       -18.7739
  37   2.0000      -0.661754       -18.0073
  38   2.0000      -0.635312       -17.2877
  39   2.0000      -0.622889       -16.9497
  40   2.0000      -0.585428       -15.9303
  41   2.0000      -0.567004       -15.4290
  42   2.0000      -0.560481       -15.2515
  43   2.0000      -0.553261       -15.0550
  44   2.0000      -0.544300       -14.8111
  45   2.0000      -0.533226       -14.5098
  46   2.0000      -0.523441       -14.2436
  47   2.0000      -0.508850       -13.8465
  48   2.0000      -0.500316       -13.6143
  49   2.0000      -0.491756       -13.3814
  50   2.0000      -0.489433       -13.3182
  51   2.0000      -0.486080       -13.2269
  52   2.0000      -0.471920       -12.8416
  53   2.0000      -0.461293       -12.5524
  54   2.0000      -0.459682       -12.5086
  55   2.0000      -0.446712       -12.1556
  56   2.0000      -0.444219       -12.0878
  57   2.0000      -0.439394       -11.9565
  58   2.0000      -0.431304       -11.7364
  59   2.0000      -0.425497       -11.5784
  60   2.0000      -0.417604       -11.3636
  61   2.0000      -0.409276       -11.1370
  62   2.0000      -0.406384       -11.0583
  63   2.0000      -0.347674        -9.4607
  64   2.0000      -0.333309        -9.0698
  65   2.0000      -0.326236        -8.8773
  66   2.0000      -0.287970        -7.8361
  67   0.0000       0.021324         0.5803
  68   0.0000       0.072166         1.9637
  69   0.0000       0.109461         2.9786
  70   0.0000       0.122007         3.3200
  71   0.0000       0.127524         3.4701

MULLIKEN ATOMIC CHARGES
-----------------------
   0 S :    0.125082
   1 C :   -0.165378
   2 C :   -0.077425
   3 C :    0.007318
   4 C :   -0.148957
   5 H :    0.031346
   6 C :    0.076286
   7 H :    0.029485
   8 H :    0.039256
   9 C :   -0.064347
  10 H :    0.013818
  11 H :    0.010250
  12 C :   -0.043946
  13 H :    0.018738
  14 H :    0.022496
  15 H :    0.040687
  16 S :    0.094243
  17 C :   -0.084540
  18 C :   -0.032276
  19 C :   -0.052749
  20 C :   -0.155786
  21 H :    0.002944
  22 C :    0.043533
  23 H :    0.033571
  24 H :    0.006115
  25 C :    0.022947
  26 H :    0.014866
  27 H :    0.028725
  28 C :   -0.061744
  29 H :    0.046629
  30 H :    0.016640
  31 H :    0.027688
  32 H :    0.082545
  33 H :    0.051939
Sum of atomic charges:    0.0000000

LOEWDIN ATOMIC CHARGES
----------------------
   0 S :    0.439922
   1 C :   -0.228043
   2 C :   -0.069144
   3 C :   -0.062377
   4 C :   -0.210319
   5 H :    0.029418
   6 C :   -0.020057
   7 H :    0.030245
   8 H :    0.039457
   9 C :   -0.040275
  10 H :    0.022378
  11 H :    0.017207
  12 C :   -0.074723
  13 H :    0.022113
  14 H :    0.029728
  15 H :    0.028566
  16 S :    0.396618
  17 C :   -0.181594
  18 C :   -0.066452
  19 C :   -0.057592
  20 C :   -0.191148
  21 H :    0.021543
  22 C :   -0.036385
  23 H :    0.036002
  24 H :    0.027070
  25 C :   -0.030527
  26 H :    0.019032
  27 H :    0.028801
  28 C :   -0.064369
  29 H :    0.032603
  30 H :    0.024252
  31 H :    0.018005
  32 H :    0.046790
  33 H :    0.023253

  Mayer bond orders larger than 0.100000
B(  0-S ,  1-C ) :   1.1655 B(  0-S ,  4-C ) :   1.1745 B(  1-C ,  2-C ) :   1.5823
B(  1-C , 32-H ) :   0.9538 B(  2-C ,  3-C ) :   1.2583 B(  2-C ,  6-C ) :   1.0344
B(  3-C ,  4-C ) :   1.5323 B(  3-C ,  5-H ) :   0.9817 B(  4-C , 20-C ) :   1.0484
B(  6-C ,  7-H ) :   0.9523 B(  6-C ,  8-H ) :   0.9348 B(  6-C ,  9-C ) :   1.0608
B(  9-C , 10-H ) :   0.9522 B(  9-C , 11-H ) :   0.9542 B(  9-C , 12-C ) :   1.0815
B( 12-C , 13-H ) :   0.9716 B( 12-C , 14-H ) :   0.9705 B( 12-C , 15-H ) :   0.9724
B( 16-S , 17-C ) :   1.1509 B( 16-S , 20-C ) :   1.1678 B( 17-C , 18-C ) :   1.5820
B( 17-C , 20-C ) :   0.1150 B( 17-C , 33-H ) :   0.9717 B( 18-C , 19-C ) :   1.2751
B( 18-C , 21-H ) :   0.9961 B( 19-C , 20-C ) :   1.5467 B( 19-C , 22-C ) :   1.0100
B( 22-C , 23-H ) :   0.9419 B( 22-C , 24-H ) :   0.9357 B( 22-C , 25-C ) :   1.0590
B( 25-C , 26-H ) :   0.9604 B( 25-C , 27-H ) :   0.9527 B( 25-C , 28-C ) :   1.0667
B( 28-C , 29-H ) :   0.9712 B( 28-C , 30-H ) :   0.9801 B( 28-C , 31-H ) :   0.9749

Dispersion correction           -0.014400105
FINAL SINGLE POINT ENERGY     -1339.854810677621

DIPOLE MOMENT
-------------
                                X             Y             Z
Electronic contribution:      3.66199      16.74551      13.85458
Nuclear contribution   :     -3.87586     -17.17806     -14.27599
                        -----------------------------------------
Total Dipole Moment    :     -0.21387      -0.43256      -0.42141
                        -----------------------------------------
Magnitude (a.u.)       :      0.64065
Magnitude (Debye)      :      1.62840

Rotational constants in cm-1:     0.020008     0.008057     0.006999
Rotational constants in MHz :   599.825979   241.555237   209.838467

                             ****ORCA TERMINATED NORMALLY****
TOTAL RUN TIME: 0 days 0 hours 0 minutes 21 seconds 469 msec
