                         Program Version 4.2.1 -  RELEASE  -
|  1> ! wB97X-D3 SP def2-SVP
|  2> %pal
|  3> nprocs 24
|  4> end
|  5>
|  6> * xyz 0 1
|  7> S 	 -98.3462 	 15.4395 	 -119.242
|  8> C 	 -96.7055 	 16.0711 	 -119.107
|  9> C 	 -95.9909 	 15.4262 	 -118.091
| 10> C 	 -96.8161 	 14.4274 	 -117.439
| 11> C 	 -98.0375 	 14.2227 	 -118.038
| 12> H 	 -96.4653 	 13.7579 	 -116.674
| 13> C 	 -94.5047 	 15.5985 	 -117.758
| 14> H 	 -94.1383 	 16.2448 	 -118.554
| 15> H 	 -94.0127 	 14.7162 	 -118.047
| 16> C 	 -94.0959 	 16.1094 	 -116.471
| 17> H 	 -93.003 	 16.2368 	 -116.437
| 18> H 	 -94.7439 	 17.0192 	 -116.215
| 19> C 	 -94.5409 	 15.1882 	 -115.301
| 20> H 	 -95.5328 	 15.3413 	 -114.824
| 21> H 	 -94.5013 	 14.1357 	 -115.544
| 22> H 	 -93.7232 	 15.1855 	 -114.525
| 23> S 	 -100.75 	 13.8095 	 -117.706
| 24> C 	 -101.349 	 12.1632 	 -117.466
| 25> C 	 -100.283 	 11.3306 	 -117.167
| 26> C 	 -98.9639 	 11.9443 	 -117.298
| 27> C 	 -99.0607 	 13.2836 	 -117.672
| 28> H 	 -100.559 	 10.363 	 -116.989
| 29> C 	 -97.6708 	 11.1234 	 -117.187
| 30> H 	 -97.9505 	 10.2046 	 -116.717
| 31> H 	 -97.0611 	 11.6004 	 -116.481
| 32> C 	 -96.8803 	 11.0158 	 -118.481
| 33> H 	 -95.7992 	 10.977 	 -118.273
| 34> H 	 -97.0083 	 11.9927 	 -118.927
| 35> C 	 -97.51 	 9.85866 	 -119.307
| 36> H 	 -98.496 	 10.1045 	 -119.546
| 37> H 	 -97.5883 	 8.88886 	 -118.754
| 38> H 	 -96.982 	 9.74162 	 -120.213
| 39> H 	 -96.2678 	 16.8143 	 -119.842
| 40> H 	 -102.355 	 11.8047 	 -117.569
| 41> *
| 42>
| 43>                          ****END OF INPUT****

CARTESIAN COORDINATES (ANGSTROEM)
---------------------------------
  S    -98.346200   15.439500  -119.242000
  C    -96.705500   16.071100  -119.107000
  C    -95.990900   15.426200  -118.091000
  C    -96.816100   14.427400  -117.439000
  C    -98.037500   14.222700  -118.038000
  H    -96.465300   13.757900  -116.674000
  C    -94.504700   15.598500  -117.758000
  H    -94.138300   16.244800  -118.554000
  H    -94.012700   14.716200  -118.047000
  C    -94.095900   16.109400  -116.471000
  H    -93.003000   16.236800  -116.437000
  H    -94.743900   17.019200  -116.215000
  C    -94.540900   15.188200  -115.301000
  H    -95.532800   15.341300  -114.824000
  H    -94.501300   14.135700  -115.544000
  H    -93.723200   15.185500  -114.525000
  S    -100.750000   13.809500  -117.706000
  C    -101.349000   12.163200  -117.466000
  C    -100.283000   11.330600  -117.167000
  C    -98.963900   11.944300  -117.298000
  C    -99.060700   13.283600  -117.672000
  H    -100.559000   10.363000  -116.989000
  C    -97.670800   11.123400  -117.187000
  H    -97.950500   10.204600  -116.717000
  H    -97.061100   11.600400  -116.481000
  C    -96.880300   11.015800  -118.481000
  H    -95.799200   10.977000  -118.273000
  H    -97.008300   11.992700  -118.927000
  C    -97.510000    9.858660  -119.307000
  H    -98.496000   10.104500  -119.546000
  H    -97.588300    8.888860  -118.754000
  H    -96.982000    9.741620  -120.213000
  H    -96.267800   16.814300  -119.842000
  H    -102.355000   11.804700  -117.569000

 Total Charge           Charge          ....    0
 Multiplicity           Mult            ....    1
 Number of Electrons    NEL             ....  134
 Basis Dimension        Dim             ....  322

ORBITAL ENERGIES
----------------

  NO   OCC          E(Eh)            E(eV)
   0   2.0000     -88.967541     -2420.9299
   1   2.0000     -88.964494     -2420.8470
   2   2.0000     -10.329223      -281.0725
   3   2.0000     -10.327806      -281.0339
   4   2.0000     -10.324084      -280.9326
   5   2.0000     -10.317453      -280.7522
   6   2.0000     -10.308427      -280.5066
   7   2.0000     -10.307828      -280.4902
   8   2.0000     -10.294167      -280.1185
   9   2.0000     -10.293362      -280.0966
  10   2.0000     -10.291094      -280.0349
  11   2.0000     -10.285581      -279.8849
  12   2.0000     -10.283326      -279.8235
  13   2.0000     -10.282964      -279.8137
  14   2.0000     -10.281984      -279.7870
  15   2.0000     -10.270102      -279.4637
  16   2.0000      -8.082296      -219.9305
  17   2.0000      -8.078621      -219.8305
  18   2.0000      -6.040823      -164.3792
  19   2.0000      -6.037339      -164.2843
  20   2.0000      -6.036800      -164.2697
  21   2.0000      -6.033199      -164.1717
  22   2.0000      -6.033007      -164.1665
  23   2.0000      -6.029211      -164.0632
  24   2.0000      -1.006170       -27.3793
  25   2.0000      -0.979028       -26.6407
  26   2.0000      -0.923137       -25.1198
  27   2.0000      -0.910596       -24.7786
  28   2.0000      -0.871519       -23.7152
  29   2.0000      -0.846343       -23.0302
  30   2.0000      -0.837853       -22.7991
  31   2.0000      -0.817015       -22.2321
  32   2.0000      -0.788943       -21.4682
  33   2.0000      -0.776139       -21.1198
  34   2.0000      -0.713627       -19.4188
  35   2.0000      -0.700629       -19.0651
  36   2.0000      -0.691209       -18.8087
  37   2.0000      -0.665183       -18.1006
  38   2.0000      -0.640082       -17.4175
  39   2.0000      -0.622371       -16.9356
  40   2.0000      -0.591326       -16.0908
  41   2.0000      -0.580369       -15.7926
  42   2.0000      -0.556829       -15.1521
  43   2.0000      -0.548008       -14.9120
  44   2.0000      -0.544276       -14.8105
  45   2.0000      -0.539616       -14.6837
  46   2.0000      -0.521523       -14.1914
  47   2.0000      -0.510034       -13.8787
  48   2.0000      -0.504276       -13.7220
  49   2.0000      -0.500716       -13.6252
  50   2.0000      -0.489488       -13.3196
  51   2.0000      -0.480594       -13.0776
  52   2.0000      -0.477530       -12.9942
  53   2.0000      -0.468236       -12.7413
  54   2.0000      -0.460272       -12.5246
  55   2.0000      -0.445447       -12.1212
  56   2.0000      -0.440127       -11.9765
  57   2.0000      -0.433458       -11.7950
  58   2.0000      -0.430306       -11.7092
  59   2.0000      -0.424044       -11.5388
  60   2.0000      -0.420507       -11.4426
  61   2.0000      -0.413553       -11.2533
  62   2.0000      -0.406316       -11.0564
  63   2.0000      -0.352499        -9.5920
  64   2.0000      -0.332456        -9.0466
  65   2.0000      -0.328861        -8.9488
  66   2.0000      -0.288163        -7.8413
  67   0.0000       0.020474         0.5571
  68   0.0000       0.075282         2.0485
  69   0.0000       0.104878         2.8539
  70   0.0000       0.112569         3.0632
  71   0.0000       0.139028         3.7832

MULLIKEN ATOMIC CHARGES
-----------------------
   0 S :    0.111246
   1 C :   -0.144121
   2 C :   -0.114101
   3 C :    0.028753
   4 C :   -0.150859
   5 H :   -0.005120
   6 C :    0.096852
   7 H :   -0.000288
   8 H :    0.019983
   9 C :   -0.037847
  10 H :    0.043034
  11 H :    0.048524
  12 C :   -0.100939
  13 H :    0.058871
  14 H :    0.014475
  15 H :    0.030526
  16 S :    0.096760
  17 C :   -0.097184
  18 C :   -0.006782
  19 C :   -0.061714
  20 C :   -0.135871
  21 H :   -0.016668
  22 C :    0.106483
  23 H :    0.003311
  24 H :    0.004927
  25 C :   -0.058035
  26 H :    0.025987
  27 H :    0.042575
  28 C :   -0.007013
  29 H :    0.018500
  30 H :    0.029784
  31 H :    0.025227
  32 H :    0.075488
  33 H :    0.055238
Sum of atomic charges:   -0.0000000

LOEWDIN ATOMIC CHARGES
----------------------
   0 S :    0.405777
   1 C :   -0.203399
   2 C :   -0.056232
   3 C :   -0.063026
   4 C :   -0.196491
   5 H :    0.026245
   6 C :   -0.039849
   7 H :    0.030956
   8 H :    0.026110
   9 C :   -0.044687
  10 H :    0.033874
  11 H :    0.043876
  12 C :   -0.082400
  13 H :    0.032291
  14 H :    0.014070
  15 H :    0.032441
  16 S :    0.383049
  17 C :   -0.177276
  18 C :   -0.061546
  19 C :   -0.050141
  20 C :   -0.192052
  21 H :    0.015179
  22 C :   -0.025162
  23 H :    0.023868
  24 H :    0.019825
  25 C :   -0.035514
  26 H :    0.024150
  27 H :    0.029096
  28 C :   -0.054690
  29 H :    0.020227
  30 H :    0.029346
  31 H :    0.019094
  32 H :    0.042531
  33 H :    0.030458

  Mayer bond orders larger than 0.100000
B(  0-S ,  1-C ) :   1.1346 B(  0-S ,  4-C ) :   1.1411 B(  1-C ,  2-C ) :   1.6221
B(  1-C , 32-H ) :   0.9563 B(  2-C ,  3-C ) :   1.2332 B(  2-C ,  6-C ) :   1.0111
B(  3-C ,  4-C ) :   1.5601 B(  3-C ,  5-H ) :   0.9927 B(  4-C , 20-C ) :   1.0813
B(  6-C ,  7-H ) :   0.9225 B(  6-C ,  8-H ) :   0.9328 B(  6-C ,  9-C ) :   1.0982
B(  9-C , 10-H ) :   0.9508 B(  9-C , 11-H ) :   0.9485 B(  9-C , 12-C ) :   1.0695
B( 12-C , 13-H ) :   0.9743 B( 12-C , 14-H ) :   0.9688 B( 12-C , 15-H ) :   0.9693
B( 16-S , 17-C ) :   1.1316 B( 16-S , 20-C ) :   1.1310 B( 17-C , 18-C ) :   1.6385
B( 17-C , 33-H ) :   0.9689 B( 18-C , 19-C ) :   1.2083 B( 18-C , 21-H ) :   1.0030
B( 19-C , 20-C ) :   1.5914 B( 19-C , 22-C ) :   1.0455 B( 22-C , 23-H ) :   0.9303
B( 22-C , 24-H ) :   0.9230 B( 22-C , 25-C ) :   1.0645 B( 25-C , 26-H ) :   0.9553
B( 25-C , 27-H ) :   0.9557 B( 25-C , 28-C ) :   1.0636 B( 28-C , 29-H ) :   0.9749
B( 28-C , 30-H ) :   0.9776 B( 28-C , 31-H ) :   0.9738

Dispersion correction           -0.015399673
FINAL SINGLE POINT ENERGY     -1339.860143345677

DIPOLE MOMENT
-------------
                                X             Y             Z
Electronic contribution:    -22.62159      10.38287      -6.37817
Nuclear contribution   :     23.22777     -10.76343       6.44916
                        -----------------------------------------
Total Dipole Moment    :      0.60618      -0.38056       0.07099
                        -----------------------------------------
Magnitude (a.u.)       :      0.71925
Magnitude (Debye)      :      1.82819

Rotational constants in cm-1:     0.019237     0.009293     0.007781
Rotational constants in MHz :   576.703543   278.601452   233.257257

                             ****ORCA TERMINATED NORMALLY****
TOTAL RUN TIME: 0 days 0 hours 0 minutes 22 seconds 391 msec
