                         Program Version 4.2.1 -  RELEASE  -
|  1> ! wB97X-D3 SP def2-SVP
|  2> %pal
|  3> nprocs 24
|  4> end
|  5>
|  6> * xyz 0 1
|  7> S 	 -111.955 	 56.4954 	 -80.1922
|  8> C 	 -113.251 	 56.9477 	 -81.2516
|  9> C 	 -113.647 	 58.2798 	 -81.0348
| 10> C 	 -113.032 	 58.8482 	 -79.8662
| 11> C 	 -112.13 	 58.0144 	 -79.2246
| 12> H 	 -113.33 	 59.8189 	 -79.4449
| 13> C 	 -114.604 	 59.069 	 -81.8694
| 14> H 	 -114.648 	 58.6372 	 -82.8511
| 15> H 	 -114.155 	 60.0089 	 -82.0702
| 16> C 	 -116.055 	 59.0513 	 -81.3963
| 17> H 	 -116.697 	 59.3085 	 -82.2405
| 18> H 	 -116.377 	 58.1199 	 -81
| 19> C 	 -116.432 	 60.0257 	 -80.2768
| 20> H 	 -115.823 	 59.8628 	 -79.3782
| 21> H 	 -116.263 	 61.0687 	 -80.609
| 22> H 	 -117.445 	 59.9691 	 -79.8552
| 23> S 	 -111.443 	 57.0305 	 -76.8398
| 24> C 	 -111.006 	 58.0653 	 -75.5434
| 25> C 	 -110.628 	 59.2815 	 -75.9976
| 26> C 	 -110.995 	 59.4848 	 -77.3365
| 27> C 	 -111.488 	 58.325 	 -77.9618
| 28> H 	 -110.17 	 59.9741 	 -75.29
| 29> C 	 -110.696 	 60.7567 	 -78.1045
| 30> H 	 -111.047 	 60.6086 	 -79.1191
| 31> H 	 -109.571 	 60.6088 	 -78.1014
| 32> C 	 -111.159 	 62.0715 	 -77.3564
| 33> H 	 -110.467 	 62.1952 	 -76.5114
| 34> H 	 -112.173 	 61.8984 	 -77.0699
| 35> C 	 -111.143 	 63.4228 	 -78.0338
| 36> H 	 -110.328 	 63.5362 	 -78.6966
| 37> H 	 -111.213 	 64.1942 	 -77.364
| 38> H 	 -112.034 	 63.4639 	 -78.6449
| 39> H 	 -113.762 	 56.1627 	 -81.8389
| 40> H 	 -110.85 	 57.7203 	 -74.4847
| 41> *
| 42>
| 43>                          ****END OF INPUT****

CARTESIAN COORDINATES (ANGSTROEM)
---------------------------------
  S    -111.955000   56.495400  -80.192200
  C    -113.251000   56.947700  -81.251600
  C    -113.647000   58.279800  -81.034800
  C    -113.032000   58.848200  -79.866200
  C    -112.130000   58.014400  -79.224600
  H    -113.330000   59.818900  -79.444900
  C    -114.604000   59.069000  -81.869400
  H    -114.648000   58.637200  -82.851100
  H    -114.155000   60.008900  -82.070200
  C    -116.055000   59.051300  -81.396300
  H    -116.697000   59.308500  -82.240500
  H    -116.377000   58.119900  -81.000000
  C    -116.432000   60.025700  -80.276800
  H    -115.823000   59.862800  -79.378200
  H    -116.263000   61.068700  -80.609000
  H    -117.445000   59.969100  -79.855200
  S    -111.443000   57.030500  -76.839800
  C    -111.006000   58.065300  -75.543400
  C    -110.628000   59.281500  -75.997600
  C    -110.995000   59.484800  -77.336500
  C    -111.488000   58.325000  -77.961800
  H    -110.170000   59.974100  -75.290000
  C    -110.696000   60.756700  -78.104500
  H    -111.047000   60.608600  -79.119100
  H    -109.571000   60.608800  -78.101400
  C    -111.159000   62.071500  -77.356400
  H    -110.467000   62.195200  -76.511400
  H    -112.173000   61.898400  -77.069900
  C    -111.143000   63.422800  -78.033800
  H    -110.328000   63.536200  -78.696600
  H    -111.213000   64.194200  -77.364000
  H    -112.034000   63.463900  -78.644900
  H    -113.762000   56.162700  -81.838900
  H    -110.850000   57.720300  -74.484700

 Total Charge           Charge          ....    0
 Multiplicity           Mult            ....    1
 Number of Electrons    NEL             ....  134
 Basis Dimension        Dim             ....  322

ORBITAL ENERGIES
----------------

  NO   OCC          E(Eh)            E(eV)
   0   2.0000     -88.965720     -2420.8803
   1   2.0000     -88.960289     -2420.7325
   2   2.0000     -10.334025      -281.2031
   3   2.0000     -10.322373      -280.8860
   4   2.0000     -10.316728      -280.7325
   5   2.0000     -10.315068      -280.6873
   6   2.0000     -10.304187      -280.3912
   7   2.0000     -10.302714      -280.3511
   8   2.0000     -10.296195      -280.1737
   9   2.0000     -10.294491      -280.1273
  10   2.0000     -10.289478      -279.9909
  11   2.0000     -10.287596      -279.9397
  12   2.0000     -10.286258      -279.9033
  13   2.0000     -10.283767      -279.8355
  14   2.0000     -10.276729      -279.6440
  15   2.0000     -10.266200      -279.3575
  16   2.0000      -8.079772      -219.8618
  17   2.0000      -8.076714      -219.7786
  18   2.0000      -6.038409      -164.3135
  19   2.0000      -6.035079      -164.2229
  20   2.0000      -6.034412      -164.2047
  21   2.0000      -6.030924      -164.1098
  22   2.0000      -6.030411      -164.0958
  23   2.0000      -6.027569      -164.0185
  24   2.0000      -1.012334       -27.5470
  25   2.0000      -0.983419       -26.7602
  26   2.0000      -0.913000       -24.8440
  27   2.0000      -0.907338       -24.6899
  28   2.0000      -0.873224       -23.7616
  29   2.0000      -0.859569       -23.3901
  30   2.0000      -0.845249       -23.0004
  31   2.0000      -0.818331       -22.2679
  32   2.0000      -0.783459       -21.3190
  33   2.0000      -0.769264       -20.9327
  34   2.0000      -0.705759       -19.2047
  35   2.0000      -0.702250       -19.1092
  36   2.0000      -0.695237       -18.9184
  37   2.0000      -0.658137       -17.9088
  38   2.0000      -0.636206       -17.3120
  39   2.0000      -0.621204       -16.9038
  40   2.0000      -0.590683       -16.0733
  41   2.0000      -0.574018       -15.6198
  42   2.0000      -0.570909       -15.5352
  43   2.0000      -0.544270       -14.8104
  44   2.0000      -0.537355       -14.6222
  45   2.0000      -0.535232       -14.5644
  46   2.0000      -0.522810       -14.2264
  47   2.0000      -0.516144       -14.0450
  48   2.0000      -0.513237       -13.9659
  49   2.0000      -0.501493       -13.6463
  50   2.0000      -0.485369       -13.2076
  51   2.0000      -0.482494       -13.1293
  52   2.0000      -0.477947       -13.0056
  53   2.0000      -0.464778       -12.6473
  54   2.0000      -0.458158       -12.4671
  55   2.0000      -0.452579       -12.3153
  56   2.0000      -0.438109       -11.9215
  57   2.0000      -0.436554       -11.8792
  58   2.0000      -0.431959       -11.7542
  59   2.0000      -0.419513       -11.4155
  60   2.0000      -0.418087       -11.3767
  61   2.0000      -0.417385       -11.3576
  62   2.0000      -0.411521       -11.1981
  63   2.0000      -0.353766        -9.6265
  64   2.0000      -0.331140        -9.0108
  65   2.0000      -0.322859        -8.7854
  66   2.0000      -0.283054        -7.7023
  67   0.0000       0.024698         0.6721
  68   0.0000       0.074816         2.0359
  69   0.0000       0.105644         2.8747
  70   0.0000       0.118856         3.2342
  71   0.0000       0.130220         3.5435

MULLIKEN ATOMIC CHARGES
-----------------------
   0 S :    0.102244
   1 C :   -0.144058
   2 C :   -0.106367
   3 C :    0.003513
   4 C :   -0.118767
   5 H :    0.026021
   6 C :    0.106015
   7 H :    0.009379
   8 H :    0.021372
   9 C :   -0.032483
  10 H :    0.029248
  11 H :    0.022267
  12 C :   -0.086742
  13 H :    0.027443
  14 H :    0.025167
  15 H :    0.036360
  16 S :    0.106826
  17 C :   -0.108757
  18 C :   -0.037627
  19 C :   -0.053393
  20 C :   -0.159725
  21 H :    0.024804
  22 C :    0.047709
  23 H :    0.021375
  24 H :    0.053788
  25 C :   -0.107267
  26 H :    0.032535
  27 H :    0.030799
  28 C :    0.034262
  29 H :    0.018652
  30 H :    0.016705
  31 H :    0.013654
  32 H :    0.072589
  33 H :    0.072458
Sum of atomic charges:   -0.0000000

LOEWDIN ATOMIC CHARGES
----------------------
   0 S :    0.381646
   1 C :   -0.209500
   2 C :   -0.059243
   3 C :   -0.068587
   4 C :   -0.178239
   5 H :    0.033614
   6 C :   -0.030585
   7 H :    0.033248
   8 H :    0.030220
   9 C :   -0.033863
  10 H :    0.025417
  11 H :    0.023483
  12 C :   -0.075420
  13 H :    0.022349
  14 H :    0.021492
  15 H :    0.027911
  16 S :    0.435053
  17 C :   -0.195383
  18 C :   -0.081595
  19 C :   -0.054581
  20 C :   -0.217215
  21 H :    0.036254
  22 C :   -0.034725
  23 H :    0.024489
  24 H :    0.047101
  25 C :   -0.038708
  26 H :    0.025159
  27 H :    0.022482
  28 C :   -0.051540
  29 H :    0.021103
  30 H :    0.016876
  31 H :    0.024520
  32 H :    0.036426
  33 H :    0.040343

  Mayer bond orders larger than 0.100000
B(  0-S ,  1-C ) :   1.1390 B(  0-S ,  4-C ) :   1.1327 B(  1-C ,  2-C ) :   1.5932
B(  1-C , 32-H ) :   0.9640 B(  2-C ,  3-C ) :   1.2534 B(  2-C ,  6-C ) :   1.0345
B(  3-C ,  4-C ) :   1.5643 B(  3-C ,  5-H ) :   0.9846 B(  4-C , 20-C ) :   1.0648
B(  6-C ,  7-H ) :   0.9305 B(  6-C ,  8-H ) :   0.9405 B(  6-C ,  9-C ) :   1.0615
B(  9-C , 10-H ) :   0.9574 B(  9-C , 11-H ) :   0.9549 B(  9-C , 12-C ) :   1.0792
B( 12-C , 13-H ) :   0.9729 B( 12-C , 14-H ) :   0.9777 B( 12-C , 15-H ) :   0.9732
B( 16-S , 17-C ) :   1.1830 B( 16-S , 20-C ) :   1.1505 B( 17-C , 18-C ) :   1.5875
B( 17-C , 33-H ) :   0.9593 B( 18-C , 19-C ) :   1.2582 B( 18-C , 21-H ) :   0.9921
B( 19-C , 20-C ) :   1.5464 B( 19-C , 22-C ) :   1.0272 B( 22-C , 23-H ) :   0.9414
B( 22-C , 24-H ) :   0.9358 B( 22-C , 25-C ) :   1.0409 B( 25-C , 26-H ) :   0.9537
B( 25-C , 27-H ) :   0.9685 B( 25-C , 28-C ) :   1.0947 B( 28-C , 29-H ) :   0.9710
B( 28-C , 30-H ) :   0.9721 B( 28-C , 31-H ) :   0.9733

Dispersion correction           -0.013988990
FINAL SINGLE POINT ENERGY     -1339.862737656945

DIPOLE MOMENT
-------------
                                X             Y             Z
Electronic contribution:     12.14385     -26.49114       5.01242
Nuclear contribution   :    -12.35815      27.11076      -4.95309
                        -----------------------------------------
Total Dipole Moment    :     -0.21430       0.61962       0.05933
                        -----------------------------------------
Magnitude (a.u.)       :      0.65831
Magnitude (Debye)      :      1.67328

Rotational constants in cm-1:     0.015489     0.009649     0.006919
Rotational constants in MHz :   464.334586   289.280575   207.425456

                             ****ORCA TERMINATED NORMALLY****
TOTAL RUN TIME: 0 days 0 hours 0 minutes 21 seconds 470 msec
