                         Program Version 4.2.1 -  RELEASE  -
|  1> ! wB97X-D3 SP def2-SVP
|  2> %pal
|  3> nprocs 24
|  4> end
|  5>
|  6> * xyz 0 1
|  7> S 	 -85.5749 	 -45.2208 	 -84.0508
|  8> C 	 -86.8121 	 -44.5499 	 -83.0505
|  9> C 	 -87.1924 	 -45.4965 	 -82.0939
| 10> C 	 -86.2429 	 -46.607 	 -81.9778
| 11> C 	 -85.4014 	 -46.6201 	 -83.0865
| 12> H 	 -86.1831 	 -47.3865 	 -81.2294
| 13> C 	 -88.3891 	 -45.4118 	 -81.1358
| 14> H 	 -88.8279 	 -44.4009 	 -81.2339
| 15> H 	 -88.1055 	 -45.5378 	 -80.1536
| 16> C 	 -89.3447 	 -46.6564 	 -81.4215
| 17> H 	 -89.8626 	 -46.4673 	 -82.3206
| 18> H 	 -88.81 	 -47.6645 	 -81.5248
| 19> C 	 -90.3026 	 -46.8083 	 -80.2487
| 20> H 	 -89.7249 	 -47.244 	 -79.4152
| 21> H 	 -90.8377 	 -45.8844 	 -80.12
| 22> H 	 -91.0483 	 -47.6023 	 -80.5527
| 23> S 	 -82.72 	 -47.2688 	 -83.6211
| 24> C 	 -82.2724 	 -48.9598 	 -83.6291
| 25> C 	 -83.3739 	 -49.7546 	 -83.8148
| 26> C 	 -84.6064 	 -49.0168 	 -83.549
| 27> C 	 -84.4367 	 -47.6608 	 -83.3332
| 28> H 	 -83.2095 	 -50.7947 	 -84.1506
| 29> C 	 -85.9412 	 -49.71 	 -83.5573
| 30> H 	 -85.8866 	 -50.4371 	 -84.3024
| 31> H 	 -86.7273 	 -49.0133 	 -83.8611
| 32> C 	 -86.4324 	 -50.4929 	 -82.2936
| 33> H 	 -86.6831 	 -49.7607 	 -81.5202
| 34> H 	 -85.6183 	 -50.9807 	 -81.8096
| 35> C 	 -87.5765 	 -51.5213 	 -82.6714
| 36> H 	 -88.5619 	 -51.1821 	 -82.9437
| 37> H 	 -87.7526 	 -52.294 	 -81.9028
| 38> H 	 -87.218 	 -52.1446 	 -83.513
| 39> H 	 -87.4669 	 -43.6842 	 -83.0752
| 40> H 	 -81.3106 	 -49.38 	 -83.9118
| 41> *
| 42>
| 43>                          ****END OF INPUT****

CARTESIAN COORDINATES (ANGSTROEM)
---------------------------------
  S    -85.574900  -45.220800  -84.050800
  C    -86.812100  -44.549900  -83.050500
  C    -87.192400  -45.496500  -82.093900
  C    -86.242900  -46.607000  -81.977800
  C    -85.401400  -46.620100  -83.086500
  H    -86.183100  -47.386500  -81.229400
  C    -88.389100  -45.411800  -81.135800
  H    -88.827900  -44.400900  -81.233900
  H    -88.105500  -45.537800  -80.153600
  C    -89.344700  -46.656400  -81.421500
  H    -89.862600  -46.467300  -82.320600
  H    -88.810000  -47.664500  -81.524800
  C    -90.302600  -46.808300  -80.248700
  H    -89.724900  -47.244000  -79.415200
  H    -90.837700  -45.884400  -80.120000
  H    -91.048300  -47.602300  -80.552700
  S    -82.720000  -47.268800  -83.621100
  C    -82.272400  -48.959800  -83.629100
  C    -83.373900  -49.754600  -83.814800
  C    -84.606400  -49.016800  -83.549000
  C    -84.436700  -47.660800  -83.333200
  H    -83.209500  -50.794700  -84.150600
  C    -85.941200  -49.710000  -83.557300
  H    -85.886600  -50.437100  -84.302400
  H    -86.727300  -49.013300  -83.861100
  C    -86.432400  -50.492900  -82.293600
  H    -86.683100  -49.760700  -81.520200
  H    -85.618300  -50.980700  -81.809600
  C    -87.576500  -51.521300  -82.671400
  H    -88.561900  -51.182100  -82.943700
  H    -87.752600  -52.294000  -81.902800
  H    -87.218000  -52.144600  -83.513000
  H    -87.466900  -43.684200  -83.075200
  H    -81.310600  -49.380000  -83.911800

 Total Charge           Charge          ....    0
 Multiplicity           Mult            ....    1
 Number of Electrons    NEL             ....  134
 Basis Dimension        Dim             ....  322

ORBITAL ENERGIES
----------------

  NO   OCC          E(Eh)            E(eV)
   0   2.0000     -88.970451     -2421.0091
   1   2.0000     -88.962515     -2420.7931
   2   2.0000     -10.327784      -281.0333
   3   2.0000     -10.326761      -281.0055
   4   2.0000     -10.316576      -280.7283
   5   2.0000     -10.312557      -280.6189
   6   2.0000     -10.307406      -280.4788
   7   2.0000     -10.304274      -280.3935
   8   2.0000     -10.298757      -280.2434
   9   2.0000     -10.296604      -280.1848
  10   2.0000     -10.292752      -280.0800
  11   2.0000     -10.292044      -280.0608
  12   2.0000     -10.290279      -280.0127
  13   2.0000     -10.286271      -279.9037
  14   2.0000     -10.283951      -279.8405
  15   2.0000     -10.281812      -279.7823
  16   2.0000      -8.085621      -220.0209
  17   2.0000      -8.076951      -219.7850
  18   2.0000      -6.044257      -164.4726
  19   2.0000      -6.039981      -164.3562
  20   2.0000      -6.036287      -164.2557
  21   2.0000      -6.035639      -164.2381
  22   2.0000      -6.031672      -164.1301
  23   2.0000      -6.027344      -164.0124
  24   2.0000      -1.008712       -27.4484
  25   2.0000      -0.983908       -26.7735
  26   2.0000      -0.909895       -24.7595
  27   2.0000      -0.902903       -24.5692
  28   2.0000      -0.873443       -23.7676
  29   2.0000      -0.849282       -23.1101
  30   2.0000      -0.841870       -22.9084
  31   2.0000      -0.816336       -22.2136
  32   2.0000      -0.779437       -21.2096
  33   2.0000      -0.770340       -20.9620
  34   2.0000      -0.714766       -19.4498
  35   2.0000      -0.701631       -19.0923
  36   2.0000      -0.692929       -18.8556
  37   2.0000      -0.658769       -17.9260
  38   2.0000      -0.639331       -17.3971
  39   2.0000      -0.615969       -16.7614
  40   2.0000      -0.591442       -16.0940
  41   2.0000      -0.574824       -15.6418
  42   2.0000      -0.568448       -15.4682
  43   2.0000      -0.558184       -15.1890
  44   2.0000      -0.526341       -14.3225
  45   2.0000      -0.521781       -14.1984
  46   2.0000      -0.516634       -14.0583
  47   2.0000      -0.511338       -13.9142
  48   2.0000      -0.501887       -13.6571
  49   2.0000      -0.500311       -13.6142
  50   2.0000      -0.495173       -13.4743
  51   2.0000      -0.478309       -13.0155
  52   2.0000      -0.464799       -12.6478
  53   2.0000      -0.463855       -12.6221
  54   2.0000      -0.459386       -12.5005
  55   2.0000      -0.451129       -12.2759
  56   2.0000      -0.448181       -12.1956
  57   2.0000      -0.436286       -11.8719
  58   2.0000      -0.435329       -11.8459
  59   2.0000      -0.433618       -11.7993
  60   2.0000      -0.422080       -11.4854
  61   2.0000      -0.416985       -11.3467
  62   2.0000      -0.409708       -11.1487
  63   2.0000      -0.345205        -9.3935
  64   2.0000      -0.325116        -8.8469
  65   2.0000      -0.324018        -8.8170
  66   2.0000      -0.297773        -8.1028
  67   0.0000       0.031578         0.8593
  68   0.0000       0.068040         1.8515
  69   0.0000       0.106419         2.8958
  70   0.0000       0.116955         3.1825
  71   0.0000       0.124905         3.3988

MULLIKEN ATOMIC CHARGES
-----------------------
   0 S :    0.136693
   1 C :   -0.093922
   2 C :   -0.137098
   3 C :    0.025586
   4 C :   -0.153413
   5 H :    0.018236
   6 C :    0.111506
   7 H :    0.023960
   8 H :    0.004256
   9 C :   -0.125617
  10 H :    0.025047
  11 H :    0.050911
  12 C :   -0.049700
  13 H :    0.043983
  14 H :    0.038450
  15 H :    0.036179
  16 S :    0.094117
  17 C :   -0.076833
  18 C :   -0.058161
  19 C :   -0.038287
  20 C :   -0.150623
  21 H :    0.038722
  22 C :    0.080437
  23 H :   -0.006727
  24 H :    0.034008
  25 C :   -0.032046
  26 H :    0.014878
  27 H :    0.016058
  28 C :   -0.069088
  29 H :    0.037776
  30 H :    0.033418
  31 H :    0.028089
  32 H :    0.040689
  33 H :    0.058515
Sum of atomic charges:   -0.0000000

LOEWDIN ATOMIC CHARGES
----------------------
   0 S :    0.436909
   1 C :   -0.225384
   2 C :   -0.053798
   3 C :   -0.055480
   4 C :   -0.209609
   5 H :    0.029379
   6 C :   -0.024594
   7 H :    0.031468
   8 H :    0.016867
   9 C :   -0.037304
  10 H :    0.015051
  11 H :    0.033618
  12 C :   -0.069465
  13 H :    0.029081
  14 H :    0.022906
  15 H :    0.031812
  16 S :    0.383236
  17 C :   -0.185083
  18 C :   -0.074415
  19 C :   -0.049416
  20 C :   -0.189855
  21 H :    0.039724
  22 C :   -0.031204
  23 H :    0.019528
  24 H :    0.032932
  25 C :   -0.033205
  26 H :    0.018266
  27 H :    0.020935
  28 C :   -0.071775
  29 H :    0.023139
  30 H :    0.029538
  31 H :    0.028582
  32 H :    0.035407
  33 H :    0.032210

  Mayer bond orders larger than 0.100000
B(  0-S ,  1-C ) :   1.1200 B(  0-S ,  4-C ) :   1.1611 B(  1-C ,  2-C ) :   1.6318
B(  1-C , 32-H ) :   0.9626 B(  2-C ,  3-C ) :   1.2108 B(  2-C ,  6-C ) :   1.0420
B(  3-C ,  4-C ) :   1.5628 B(  3-C ,  5-H ) :   0.9919 B(  4-C , 20-C ) :   1.0662
B(  6-C ,  7-H ) :   0.9400 B(  6-C ,  8-H ) :   0.9410 B(  6-C ,  9-C ) :   1.0343
B(  9-C , 10-H ) :   0.9578 B(  9-C , 11-H ) :   0.9615 B(  9-C , 12-C ) :   1.0839
B( 12-C , 13-H ) :   0.9755 B( 12-C , 14-H ) :   0.9723 B( 12-C , 15-H ) :   0.9732
B( 16-S , 17-C ) :   1.1495 B( 16-S , 20-C ) :   1.1048 B( 17-C , 18-C ) :   1.6471
B( 17-C , 33-H ) :   0.9589 B( 18-C , 19-C ) :   1.2057 B( 18-C , 21-H ) :   0.9842
B( 19-C , 20-C ) :   1.6112 B( 19-C , 22-C ) :   1.0653 B( 22-C , 23-H ) :   0.9280
B( 22-C , 24-H ) :   0.9284 B( 22-C , 25-C ) :   1.0576 B( 25-C , 26-H ) :   0.9512
B( 25-C , 27-H ) :   0.9547 B( 25-C , 28-C ) :   1.0628 B( 28-C , 29-H ) :   0.9815
B( 28-C , 30-H ) :   0.9762 B( 28-C , 31-H ) :   0.9741

Dispersion correction           -0.014600822
FINAL SINGLE POINT ENERGY     -1339.856848588364

DIPOLE MOMENT
-------------
                                X             Y             Z
Electronic contribution:     26.51531      16.16933     -12.87391
Nuclear contribution   :    -27.08682     -16.71262      13.02379
                        -----------------------------------------
Total Dipole Moment    :     -0.57150      -0.54329       0.14988
                        -----------------------------------------
Magnitude (a.u.)       :      0.80265
Magnitude (Debye)      :      2.04017

Rotational constants in cm-1:     0.016683     0.010012     0.006716
Rotational constants in MHz :   500.129834   300.148972   201.326170

                             ****ORCA TERMINATED NORMALLY****
TOTAL RUN TIME: 0 days 0 hours 0 minutes 21 seconds 25 msec
