                         Program Version 4.2.1 -  RELEASE  -
|  1> ! wB97X-D3 SP def2-SVP
|  2> %pal
|  3> nprocs 24
|  4> end
|  5>
|  6> * xyz 0 1
|  7> S 	 -46.9338 	 17.4882 	 -88.1235
|  8> C 	 -47.2441 	 18.7334 	 -86.9917
|  9> C 	 -48.5361 	 19.252 	 -87.0986
| 10> C 	 -49.2765 	 18.5472 	 -88.1326
| 11> C 	 -48.6279 	 17.4531 	 -88.6883
| 12> H 	 -50.2756 	 18.6826 	 -88.3986
| 13> C 	 -49.1392 	 20.4475 	 -86.4146
| 14> H 	 -48.5063 	 20.7976 	 -85.6397
| 15> H 	 -49.9226 	 20.0292 	 -85.7721
| 16> C 	 -49.63 	 21.6032 	 -87.3074
| 17> H 	 -50.47 	 21.2506 	 -87.8611
| 18> H 	 -49.8902 	 22.4441 	 -86.6002
| 19> C 	 -48.5705 	 22.269 	 -88.1943
| 20> H 	 -47.7619 	 22.7265 	 -87.5609
| 21> H 	 -48.198 	 21.5154 	 -88.834
| 22> H 	 -49.04 	 23.1499 	 -88.7379
| 23> S 	 -50.912 	 16.679 	 -90.0496
| 24> C 	 -50.66 	 15.7017 	 -91.4566
| 25> C 	 -49.4099 	 15.2594 	 -91.6529
| 26> C 	 -48.5209 	 15.6871 	 -90.6277
| 27> C 	 -49.1656 	 16.6257 	 -89.731
| 28> H 	 -49.2529 	 14.546 	 -92.45
| 29> C 	 -47.0538 	 15.4216 	 -90.6155
| 30> H 	 -46.9667 	 15.1847 	 -89.5767
| 31> H 	 -46.3997 	 16.2823 	 -90.7934
| 32> C 	 -46.6004 	 14.1297 	 -91.2865
| 33> H 	 -46.8789 	 14.2122 	 -92.3487
| 34> H 	 -47.1661 	 13.2389 	 -91.0601
| 35> C 	 -45.1121 	 13.8398 	 -91.3339
| 36> H 	 -44.9195 	 12.8794 	 -91.7002
| 37> H 	 -44.6518 	 13.7468 	 -90.3133
| 38> H 	 -44.5653 	 14.5634 	 -91.9518
| 39> H 	 -46.4883 	 19.1204 	 -86.3067
| 40> H 	 -51.4676 	 15.4554 	 -92.1812
| 41> *
| 42>
| 43>                          ****END OF INPUT****

CARTESIAN COORDINATES (ANGSTROEM)
---------------------------------
  S    -46.933800   17.488200  -88.123500
  C    -47.244100   18.733400  -86.991700
  C    -48.536100   19.252000  -87.098600
  C    -49.276500   18.547200  -88.132600
  C    -48.627900   17.453100  -88.688300
  H    -50.275600   18.682600  -88.398600
  C    -49.139200   20.447500  -86.414600
  H    -48.506300   20.797600  -85.639700
  H    -49.922600   20.029200  -85.772100
  C    -49.630000   21.603200  -87.307400
  H    -50.470000   21.250600  -87.861100
  H    -49.890200   22.444100  -86.600200
  C    -48.570500   22.269000  -88.194300
  H    -47.761900   22.726500  -87.560900
  H    -48.198000   21.515400  -88.834000
  H    -49.040000   23.149900  -88.737900
  S    -50.912000   16.679000  -90.049600
  C    -50.660000   15.701700  -91.456600
  C    -49.409900   15.259400  -91.652900
  C    -48.520900   15.687100  -90.627700
  C    -49.165600   16.625700  -89.731000
  H    -49.252900   14.546000  -92.450000
  C    -47.053800   15.421600  -90.615500
  H    -46.966700   15.184700  -89.576700
  H    -46.399700   16.282300  -90.793400
  C    -46.600400   14.129700  -91.286500
  H    -46.878900   14.212200  -92.348700
  H    -47.166100   13.238900  -91.060100
  C    -45.112100   13.839800  -91.333900
  H    -44.919500   12.879400  -91.700200
  H    -44.651800   13.746800  -90.313300
  H    -44.565300   14.563400  -91.951800
  H    -46.488300   19.120400  -86.306700
  H    -51.467600   15.455400  -92.181200

 Total Charge           Charge          ....    0
 Multiplicity           Mult            ....    1
 Number of Electrons    NEL             ....  134
 Basis Dimension        Dim             ....  322

ORBITAL ENERGIES
----------------

  NO   OCC          E(Eh)            E(eV)
   0   2.0000     -88.970210     -2421.0025
   1   2.0000     -88.967199     -2420.9206
   2   2.0000     -10.332763      -281.1688
   3   2.0000     -10.331856      -281.1441
   4   2.0000     -10.314438      -280.6701
   5   2.0000     -10.313223      -280.6371
   6   2.0000     -10.309398      -280.5330
   7   2.0000     -10.303735      -280.3789
   8   2.0000     -10.289708      -279.9972
   9   2.0000     -10.288418      -279.9621
  10   2.0000     -10.288366      -279.9607
  11   2.0000     -10.288207      -279.9563
  12   2.0000     -10.287568      -279.9389
  13   2.0000     -10.285508      -279.8829
  14   2.0000     -10.279037      -279.7068
  15   2.0000     -10.277037      -279.6524
  16   2.0000      -8.084579      -219.9926
  17   2.0000      -8.081226      -219.9013
  18   2.0000      -6.043092      -164.4409
  19   2.0000      -6.039854      -164.3528
  20   2.0000      -6.039318      -164.3382
  21   2.0000      -6.035795      -164.2423
  22   2.0000      -6.035210      -164.2264
  23   2.0000      -6.031929      -164.1371
  24   2.0000      -1.005551       -27.3624
  25   2.0000      -0.983640       -26.7662
  26   2.0000      -0.915260       -24.9055
  27   2.0000      -0.909871       -24.7588
  28   2.0000      -0.876032       -23.8381
  29   2.0000      -0.856262       -23.3001
  30   2.0000      -0.843428       -22.9508
  31   2.0000      -0.817463       -22.2443
  32   2.0000      -0.786197       -21.3935
  33   2.0000      -0.770333       -20.9618
  34   2.0000      -0.710251       -19.3269
  35   2.0000      -0.703899       -19.1541
  36   2.0000      -0.688052       -18.7228
  37   2.0000      -0.659314       -17.9408
  38   2.0000      -0.632220       -17.2036
  39   2.0000      -0.620331       -16.8801
  40   2.0000      -0.602714       -16.4007
  41   2.0000      -0.572373       -15.5751
  42   2.0000      -0.566167       -15.4062
  43   2.0000      -0.546414       -14.8687
  44   2.0000      -0.546005       -14.8575
  45   2.0000      -0.528099       -14.3703
  46   2.0000      -0.516746       -14.0614
  47   2.0000      -0.510968       -13.9041
  48   2.0000      -0.510199       -13.8832
  49   2.0000      -0.493323       -13.4240
  50   2.0000      -0.488710       -13.2985
  51   2.0000      -0.474938       -12.9237
  52   2.0000      -0.472615       -12.8605
  53   2.0000      -0.467874       -12.7315
  54   2.0000      -0.461447       -12.5566
  55   2.0000      -0.457868       -12.4592
  56   2.0000      -0.445148       -12.1131
  57   2.0000      -0.440292       -11.9809
  58   2.0000      -0.437653       -11.9091
  59   2.0000      -0.423648       -11.5280
  60   2.0000      -0.420034       -11.4297
  61   2.0000      -0.409848       -11.1525
  62   2.0000      -0.397701       -10.8220
  63   2.0000      -0.368020       -10.0143
  64   2.0000      -0.335538        -9.1304
  65   2.0000      -0.324871        -8.8402
  66   2.0000      -0.273820        -7.4510
  67   0.0000       0.015822         0.4306
  68   0.0000       0.089124         2.4252
  69   0.0000       0.106276         2.8919
  70   0.0000       0.119393         3.2488
  71   0.0000       0.130602         3.5539

MULLIKEN ATOMIC CHARGES
-----------------------
   0 S :    0.085802
   1 C :   -0.110246
   2 C :   -0.093033
   3 C :   -0.027473
   4 C :   -0.100881
   5 H :   -0.004821
   6 C :    0.097932
   7 H :   -0.008628
   8 H :    0.034200
   9 C :   -0.084064
  10 H :    0.035906
  11 H :    0.036821
  12 C :   -0.062024
  13 H :    0.032996
  14 H :    0.044103
  15 H :    0.046600
  16 S :    0.099507
  17 C :   -0.086528
  18 C :   -0.034361
  19 C :   -0.061317
  20 C :   -0.136777
  21 H :    0.020628
  22 C :    0.070631
  23 H :    0.032502
  24 H :    0.057004
  25 C :   -0.107365
  26 H :    0.017941
  27 H :    0.023833
  28 C :   -0.013597
  29 H :    0.013429
  30 H :    0.028628
  31 H :    0.038171
  32 H :    0.052554
  33 H :    0.061927
Sum of atomic charges:    0.0000000

LOEWDIN ATOMIC CHARGES
----------------------
   0 S :    0.412636
   1 C :   -0.214681
   2 C :   -0.060145
   3 C :   -0.069672
   4 C :   -0.175979
   5 H :    0.009787
   6 C :   -0.039205
   7 H :    0.021802
   8 H :    0.039101
   9 C :   -0.039098
  10 H :    0.018812
  11 H :    0.033648
  12 C :   -0.065378
  13 H :    0.029024
  14 H :    0.019292
  15 H :    0.035162
  16 S :    0.406639
  17 C :   -0.189758
  18 C :   -0.077730
  19 C :   -0.047241
  20 C :   -0.184432
  21 H :    0.035866
  22 C :   -0.046660
  23 H :    0.029138
  24 H :    0.035610
  25 C :   -0.046842
  26 H :    0.021624
  27 H :    0.025227
  28 C :   -0.061356
  29 H :    0.020135
  30 H :    0.028653
  31 H :    0.028029
  32 H :    0.031723
  33 H :    0.036270

  Mayer bond orders larger than 0.100000
B(  0-S ,  1-C ) :   1.1386 B(  0-S ,  4-C ) :   1.1221 B(  1-C ,  2-C ) :   1.5982
B(  1-C , 32-H ) :   0.9634 B(  2-C ,  3-C ) :   1.2346 B(  2-C ,  6-C ) :   1.0319
B(  3-C ,  4-C ) :   1.5532 B(  3-C ,  5-H ) :   0.9934 B(  4-C , 20-C ) :   1.1492
B(  6-C ,  7-H ) :   0.9320 B(  6-C ,  8-H ) :   0.9298 B(  6-C ,  9-C ) :   1.0680
B(  9-C , 10-H ) :   0.9569 B(  9-C , 11-H ) :   0.9559 B(  9-C , 12-C ) :   1.0729
B( 12-C , 13-H ) :   0.9747 B( 12-C , 14-H ) :   0.9766 B( 12-C , 15-H ) :   0.9740
B( 16-S , 17-C ) :   1.1448 B( 16-S , 20-C ) :   1.1378 B( 17-C , 18-C ) :   1.6411
B( 17-C , 33-H ) :   0.9527 B( 18-C , 19-C ) :   1.2405 B( 18-C , 21-H ) :   0.9884
B( 19-C , 20-C ) :   1.5227 B( 19-C , 22-C ) :   1.0246 B( 22-C , 23-H ) :   0.9132
B( 22-C , 24-H ) :   0.9383 B( 22-C , 25-C ) :   1.0659 B( 25-C , 26-H ) :   0.9421
B( 25-C , 27-H ) :   0.9581 B( 25-C , 28-C ) :   1.0977 B( 28-C , 29-H ) :   0.9672
B( 28-C , 30-H ) :   0.9717 B( 28-C , 31-H ) :   0.9741

Dispersion correction           -0.013797459
FINAL SINGLE POINT ENERGY     -1339.869298537315

DIPOLE MOMENT
-------------
                                X             Y             Z
Electronic contribution:     -9.48677      -6.00373       1.93103
Nuclear contribution   :      9.53378       6.04253      -2.06932
                        -----------------------------------------
Total Dipole Moment    :      0.04701       0.03881      -0.13829
                        -----------------------------------------
Magnitude (a.u.)       :      0.15113
Magnitude (Debye)      :      0.38414

Rotational constants in cm-1:     0.021463     0.007957     0.006299
Rotational constants in MHz :   643.431183   238.554837   188.852611

                             ****ORCA TERMINATED NORMALLY****
TOTAL RUN TIME: 0 days 0 hours 0 minutes 22 seconds 199 msec
