                         Program Version 4.2.1 -  RELEASE  -
|  1> ! wB97X-D3 SP def2-SVP
|  2> %pal
|  3> nprocs 24
|  4> end
|  5>
|  6> * xyz 0 1
|  7> S 	 -123.77 	 66.8279 	 -39.7133
|  8> C 	 -123.518 	 67.8752 	 -38.3335
|  9> C 	 -123.267 	 69.1988 	 -38.7341
| 10> C 	 -123.389 	 69.2794 	 -40.1461
| 11> C 	 -123.609 	 68.0732 	 -40.8384
| 12> H 	 -123.393 	 70.2415 	 -40.7169
| 13> C 	 -123.102 	 70.4583 	 -37.8005
| 14> H 	 -122.058 	 70.6101 	 -37.58
| 15> H 	 -123.475 	 70.1917 	 -36.8666
| 16> C 	 -123.661 	 71.869 	 -38.1863
| 17> H 	 -123.255 	 72.6323 	 -37.5142
| 18> H 	 -123.466 	 72.1937 	 -39.211
| 19> C 	 -125.165 	 71.9048 	 -38.1
| 20> H 	 -125.558 	 72.8413 	 -38.4215
| 21> H 	 -125.584 	 71.0748 	 -38.7109
| 22> H 	 -125.586 	 71.7508 	 -37.0679
| 23> S 	 -123.332 	 66.2438 	 -42.8961
| 24> C 	 -123.613 	 66.7757 	 -44.5271
| 25> C 	 -124.016 	 68.0903 	 -44.5217
| 26> C 	 -124.231 	 68.7122 	 -43.2631
| 27> C 	 -123.768 	 67.8419 	 -42.2698
| 28> H 	 -124.077 	 68.5971 	 -45.4276
| 29> C 	 -124.544 	 70.1912 	 -43.1111
| 30> H 	 -123.64 	 70.7193 	 -42.7904
| 31> H 	 -125.082 	 70.2122 	 -42.1731
| 32> C 	 -125.321 	 70.919 	 -44.2548
| 33> H 	 -126.104 	 70.2089 	 -44.5578
| 34> H 	 -124.603 	 70.9393 	 -45.1179
| 35> C 	 -125.918 	 72.2902 	 -43.9077
| 36> H 	 -125.161 	 72.903 	 -43.4062
| 37> H 	 -126.819 	 72.1076 	 -43.2465
| 38> H 	 -126.357 	 72.7725 	 -44.8017
| 39> H 	 -123.6 	 67.4637 	 -37.3285
| 40> H 	 -123.463 	 66.1611 	 -45.3971
| 41> *
| 42>
| 43>                          ****END OF INPUT****

CARTESIAN COORDINATES (ANGSTROEM)
---------------------------------
  S    -123.770000   66.827900  -39.713300
  C    -123.518000   67.875200  -38.333500
  C    -123.267000   69.198800  -38.734100
  C    -123.389000   69.279400  -40.146100
  C    -123.609000   68.073200  -40.838400
  H    -123.393000   70.241500  -40.716900
  C    -123.102000   70.458300  -37.800500
  H    -122.058000   70.610100  -37.580000
  H    -123.475000   70.191700  -36.866600
  C    -123.661000   71.869000  -38.186300
  H    -123.255000   72.632300  -37.514200
  H    -123.466000   72.193700  -39.211000
  C    -125.165000   71.904800  -38.100000
  H    -125.558000   72.841300  -38.421500
  H    -125.584000   71.074800  -38.710900
  H    -125.586000   71.750800  -37.067900
  S    -123.332000   66.243800  -42.896100
  C    -123.613000   66.775700  -44.527100
  C    -124.016000   68.090300  -44.521700
  C    -124.231000   68.712200  -43.263100
  C    -123.768000   67.841900  -42.269800
  H    -124.077000   68.597100  -45.427600
  C    -124.544000   70.191200  -43.111100
  H    -123.640000   70.719300  -42.790400
  H    -125.082000   70.212200  -42.173100
  C    -125.321000   70.919000  -44.254800
  H    -126.104000   70.208900  -44.557800
  H    -124.603000   70.939300  -45.117900
  C    -125.918000   72.290200  -43.907700
  H    -125.161000   72.903000  -43.406200
  H    -126.819000   72.107600  -43.246500
  H    -126.357000   72.772500  -44.801700
  H    -123.600000   67.463700  -37.328500
  H    -123.463000   66.161100  -45.397100

 Total Charge           Charge          ....    0
 Multiplicity           Mult            ....    1
 Number of Electrons    NEL             ....  134
 Basis Dimension        Dim             ....  322

ORBITAL ENERGIES
----------------

  NO   OCC          E(Eh)            E(eV)
   0   2.0000     -88.966539     -2420.9026
   1   2.0000     -88.966329     -2420.8969
   2   2.0000     -10.330644      -281.1111
   3   2.0000     -10.327215      -281.0178
   4   2.0000     -10.318260      -280.7741
   5   2.0000     -10.314606      -280.6747
   6   2.0000     -10.311400      -280.5875
   7   2.0000     -10.304964      -280.4123
   8   2.0000     -10.297827      -280.2181
   9   2.0000     -10.296528      -280.1828
  10   2.0000     -10.296403      -280.1794
  11   2.0000     -10.295397      -280.1520
  12   2.0000     -10.292503      -280.0732
  13   2.0000     -10.291977      -280.0589
  14   2.0000     -10.286480      -279.9094
  15   2.0000     -10.275887      -279.6211
  16   2.0000      -8.082213      -219.9282
  17   2.0000      -8.081163      -219.8996
  18   2.0000      -6.040570      -164.3723
  19   2.0000      -6.039710      -164.3489
  20   2.0000      -6.036390      -164.2585
  21   2.0000      -6.035696      -164.2396
  22   2.0000      -6.033244      -164.1729
  23   2.0000      -6.031904      -164.1364
  24   2.0000      -1.010332       -27.4925
  25   2.0000      -0.985755       -26.8238
  26   2.0000      -0.910381       -24.7727
  27   2.0000      -0.907732       -24.7007
  28   2.0000      -0.870623       -23.6908
  29   2.0000      -0.855914       -23.2906
  30   2.0000      -0.842357       -22.9217
  31   2.0000      -0.810781       -22.0625
  32   2.0000      -0.788441       -21.4546
  33   2.0000      -0.776378       -21.1263
  34   2.0000      -0.709572       -19.3084
  35   2.0000      -0.702989       -19.1293
  36   2.0000      -0.692434       -18.8421
  37   2.0000      -0.654408       -17.8074
  38   2.0000      -0.639461       -17.4006
  39   2.0000      -0.623831       -16.9753
  40   2.0000      -0.600924       -16.3520
  41   2.0000      -0.565389       -15.3850
  42   2.0000      -0.564800       -15.3690
  43   2.0000      -0.552846       -15.0437
  44   2.0000      -0.537060       -14.6141
  45   2.0000      -0.532092       -14.4790
  46   2.0000      -0.521333       -14.1862
  47   2.0000      -0.512144       -13.9361
  48   2.0000      -0.502393       -13.6708
  49   2.0000      -0.497246       -13.5308
  50   2.0000      -0.489240       -13.3129
  51   2.0000      -0.485745       -13.2178
  52   2.0000      -0.470861       -12.8128
  53   2.0000      -0.465910       -12.6781
  54   2.0000      -0.459236       -12.4964
  55   2.0000      -0.453183       -12.3317
  56   2.0000      -0.444040       -12.0830
  57   2.0000      -0.436068       -11.8660
  58   2.0000      -0.433232       -11.7889
  59   2.0000      -0.430479       -11.7139
  60   2.0000      -0.423001       -11.5104
  61   2.0000      -0.419316       -11.4102
  62   2.0000      -0.415343       -11.3021
  63   2.0000      -0.353502        -9.6193
  64   2.0000      -0.333143        -9.0653
  65   2.0000      -0.331668        -9.0251
  66   2.0000      -0.281893        -7.6707
  67   0.0000       0.022340         0.6079
  68   0.0000       0.082936         2.2568
  69   0.0000       0.103416         2.8141
  70   0.0000       0.119063         3.2399
  71   0.0000       0.131012         3.5650

MULLIKEN ATOMIC CHARGES
-----------------------
   0 S :    0.111320
   1 C :   -0.150634
   2 C :   -0.062799
   3 C :   -0.031250
   4 C :   -0.131927
   5 H :    0.003919
   6 C :    0.110248
   7 H :    0.034740
   8 H :   -0.003425
   9 C :   -0.066807
  10 H :    0.032984
  11 H :    0.030870
  12 C :   -0.072144
  13 H :    0.025940
  14 H :    0.042465
  15 H :    0.028241
  16 S :    0.102812
  17 C :   -0.078582
  18 C :   -0.027002
  19 C :   -0.037651
  20 C :   -0.135961
  21 H :   -0.008073
  22 C :    0.016768
  23 H :    0.054172
  24 H :    0.022363
  25 C :   -0.088159
  26 H :    0.037295
  27 H :    0.040189
  28 C :   -0.045420
  29 H :    0.043938
  30 H :    0.044369
  31 H :    0.046221
  32 H :    0.055958
  33 H :    0.055024
Sum of atomic charges:    0.0000000

LOEWDIN ATOMIC CHARGES
----------------------
   0 S :    0.438373
   1 C :   -0.201521
   2 C :   -0.058122
   3 C :   -0.082539
   4 C :   -0.216311
   5 H :    0.030522
   6 C :   -0.022047
   7 H :    0.034422
   8 H :    0.021303
   9 C :   -0.039708
  10 H :    0.029493
  11 H :    0.024316
  12 C :   -0.070552
  13 H :    0.018036
  14 H :    0.029817
  15 H :    0.025264
  16 S :    0.398791
  17 C :   -0.187503
  18 C :   -0.065717
  19 C :   -0.053657
  20 C :   -0.184656
  21 H :    0.018053
  22 C :   -0.040848
  23 H :    0.031615
  24 H :    0.029874
  25 C :   -0.046033
  26 H :    0.027977
  27 H :    0.025564
  28 C :   -0.067737
  29 H :    0.027294
  30 H :    0.035644
  31 H :    0.033281
  32 H :    0.027719
  33 H :    0.029594

  Mayer bond orders larger than 0.100000
B(  0-S ,  1-C ) :   1.1667 B(  0-S ,  4-C ) :   1.1804 B(  1-C ,  2-C ) :   1.5565
B(  1-C ,  4-C ) :   0.1048 B(  1-C , 32-H ) :   0.9716 B(  2-C ,  3-C ) :   1.2955
B(  2-C ,  6-C ) :   1.0014 B(  3-C ,  4-C ) :   1.5168 B(  3-C ,  5-H ) :   0.9791
B(  4-C , 20-C ) :   1.0696 B(  6-C ,  7-H ) :   0.9341 B(  6-C ,  8-H ) :   0.9407
B(  6-C ,  9-C ) :   1.0733 B(  9-C , 10-H ) :   0.9516 B(  9-C , 11-H ) :   0.9542
B(  9-C , 12-C ) :   1.0809 B( 12-C , 13-H ) :   0.9750 B( 12-C , 14-H ) :   0.9757
B( 12-C , 15-H ) :   0.9740 B( 16-S , 17-C ) :   1.1404 B( 16-S , 20-C ) :   1.1502
B( 17-C , 18-C ) :   1.6050 B( 17-C , 20-C ) :   0.1025 B( 17-C , 33-H ) :   0.9707
B( 18-C , 19-C ) :   1.2445 B( 18-C , 21-H ) :   0.9947 B( 19-C , 20-C ) :   1.5674
B( 19-C , 22-C ) :   1.0493 B( 22-C , 23-H ) :   0.9229 B( 22-C , 24-H ) :   0.9196
B( 22-C , 25-C ) :   1.0497 B( 25-C , 26-H ) :   0.9600 B( 25-C , 27-H ) :   0.9472
B( 25-C , 28-C ) :   1.0808 B( 28-C , 29-H ) :   0.9753 B( 28-C , 30-H ) :   0.9730
B( 28-C , 31-H ) :   0.9720

Dispersion correction           -0.013922230
FINAL SINGLE POINT ENERGY     -1339.881949268897

DIPOLE MOMENT
-------------
                                X             Y             Z
Electronic contribution:      9.01452     -31.48285      -2.54781
Nuclear contribution   :     -9.13364      32.24783       2.52159
                        -----------------------------------------
Total Dipole Moment    :     -0.11911       0.76498      -0.02622
                        -----------------------------------------
Magnitude (a.u.)       :      0.77465
Magnitude (Debye)      :      1.96899

Rotational constants in cm-1:     0.015494     0.010261     0.006454
Rotational constants in MHz :   464.509384   307.607187   193.497923

                             ****ORCA TERMINATED NORMALLY****
TOTAL RUN TIME: 0 days 0 hours 0 minutes 21 seconds 795 msec
