                         Program Version 4.2.1 -  RELEASE  -
|  1> ! wB97X-D3 SP def2-SVP
|  2> %pal
|  3> nprocs 24
|  4> end
|  5>
|  6> * xyz 0 1
|  7> S 	 -107.868 	 55.9713 	 -88.5557
|  8> C 	 -109.001 	 57.18 	 -89.0887
|  9> C 	 -110.278 	 57.0649 	 -88.5059
| 10> C 	 -110.353 	 55.8146 	 -87.8358
| 11> C 	 -109.192 	 55.043 	 -87.8259
| 12> H 	 -111.3 	 55.3578 	 -87.5757
| 13> C 	 -111.496 	 57.8775 	 -88.9057
| 14> H 	 -111.227 	 58.4444 	 -89.8373
| 15> H 	 -111.657 	 58.6163 	 -88.1803
| 16> C 	 -112.831 	 57.1952 	 -89.2357
| 17> H 	 -112.852 	 56.6119 	 -90.1479
| 18> H 	 -113.222 	 56.7346 	 -88.3377
| 19> C 	 -113.831 	 58.3998 	 -89.5558
| 20> H 	 -113.296 	 59.079 	 -90.2698
| 21> H 	 -114.765 	 58.0839 	 -89.9824
| 22> H 	 -114.128 	 58.9466 	 -88.6972
| 23> S 	 -107.793 	 53.3982 	 -86.0819
| 24> C 	 -108.283 	 51.7311 	 -85.9479
| 25> C 	 -109.609 	 51.6003 	 -86.4363
| 26> C 	 -109.956 	 52.6406 	 -87.3466
| 27> C 	 -109.018 	 53.6619 	 -87.3394
| 28> H 	 -110.156 	 50.7366 	 -86.2886
| 29> C 	 -111.216 	 52.6142 	 -88.1916
| 30> H 	 -111.32 	 53.4654 	 -88.9163
| 31> H 	 -112.048 	 52.7294 	 -87.4884
| 32> C 	 -111.354 	 51.2942 	 -89.049
| 33> H 	 -112.313 	 51.2342 	 -89.5037
| 34> H 	 -111.283 	 50.4646 	 -88.389
| 35> C 	 -110.19 	 51.0819 	 -89.9418
| 36> H 	 -110.297 	 50.1222 	 -90.4774
| 37> H 	 -109.313 	 50.9445 	 -89.4277
| 38> H 	 -110.09 	 51.9474 	 -90.5981
| 39> H 	 -108.729 	 57.9405 	 -89.831
| 40> H 	 -107.712 	 50.9242 	 -85.3809
| 41> *
| 42>
| 43>                          ****END OF INPUT****

CARTESIAN COORDINATES (ANGSTROEM)
---------------------------------
  S    -107.868000   55.971300  -88.555700
  C    -109.001000   57.180000  -89.088700
  C    -110.278000   57.064900  -88.505900
  C    -110.353000   55.814600  -87.835800
  C    -109.192000   55.043000  -87.825900
  H    -111.300000   55.357800  -87.575700
  C    -111.496000   57.877500  -88.905700
  H    -111.227000   58.444400  -89.837300
  H    -111.657000   58.616300  -88.180300
  C    -112.831000   57.195200  -89.235700
  H    -112.852000   56.611900  -90.147900
  H    -113.222000   56.734600  -88.337700
  C    -113.831000   58.399800  -89.555800
  H    -113.296000   59.079000  -90.269800
  H    -114.765000   58.083900  -89.982400
  H    -114.128000   58.946600  -88.697200
  S    -107.793000   53.398200  -86.081900
  C    -108.283000   51.731100  -85.947900
  C    -109.609000   51.600300  -86.436300
  C    -109.956000   52.640600  -87.346600
  C    -109.018000   53.661900  -87.339400
  H    -110.156000   50.736600  -86.288600
  C    -111.216000   52.614200  -88.191600
  H    -111.320000   53.465400  -88.916300
  H    -112.048000   52.729400  -87.488400
  C    -111.354000   51.294200  -89.049000
  H    -112.313000   51.234200  -89.503700
  H    -111.283000   50.464600  -88.389000
  C    -110.190000   51.081900  -89.941800
  H    -110.297000   50.122200  -90.477400
  H    -109.313000   50.944500  -89.427700
  H    -110.090000   51.947400  -90.598100
  H    -108.729000   57.940500  -89.831000
  H    -107.712000   50.924200  -85.380900

 Total Charge           Charge          ....    0
 Multiplicity           Mult            ....    1
 Number of Electrons    NEL             ....  134
 Basis Dimension        Dim             ....  322

ORBITAL ENERGIES
----------------

  NO   OCC          E(Eh)            E(eV)
   0   2.0000     -88.966025     -2420.8886
   1   2.0000     -88.963874     -2420.8301
   2   2.0000     -10.328967      -281.0655
   3   2.0000     -10.326892      -281.0090
   4   2.0000     -10.325194      -280.9628
   5   2.0000     -10.318070      -280.7690
   6   2.0000     -10.304105      -280.3890
   7   2.0000     -10.302784      -280.3530
   8   2.0000     -10.297484      -280.2088
   9   2.0000     -10.295270      -280.1485
  10   2.0000     -10.294515      -280.1280
  11   2.0000     -10.293887      -280.1109
  12   2.0000     -10.293703      -280.1059
  13   2.0000     -10.281664      -279.7783
  14   2.0000     -10.277484      -279.6646
  15   2.0000     -10.262917      -279.2682
  16   2.0000      -8.080570      -219.8835
  17   2.0000      -8.078498      -219.8271
  18   2.0000      -6.038970      -164.3287
  19   2.0000      -6.036939      -164.2735
  20   2.0000      -6.035117      -164.2239
  21   2.0000      -6.033315      -164.1749
  22   2.0000      -6.031448      -164.1240
  23   2.0000      -6.029029      -164.0582
  24   2.0000      -1.001824       -27.2610
  25   2.0000      -0.980948       -26.6930
  26   2.0000      -0.912315       -24.8253
  27   2.0000      -0.910321       -24.7711
  28   2.0000      -0.863849       -23.5065
  29   2.0000      -0.853253       -23.2182
  30   2.0000      -0.844779       -22.9876
  31   2.0000      -0.807595       -21.9758
  32   2.0000      -0.782223       -21.2854
  33   2.0000      -0.768612       -20.9150
  34   2.0000      -0.711025       -19.3480
  35   2.0000      -0.699084       -19.0230
  36   2.0000      -0.687688       -18.7129
  37   2.0000      -0.659421       -17.9438
  38   2.0000      -0.638932       -17.3862
  39   2.0000      -0.621670       -16.9165
  40   2.0000      -0.596550       -16.2329
  41   2.0000      -0.579666       -15.7735
  42   2.0000      -0.563131       -15.3236
  43   2.0000      -0.554394       -15.0858
  44   2.0000      -0.546515       -14.8714
  45   2.0000      -0.524270       -14.2661
  46   2.0000      -0.518339       -14.1047
  47   2.0000      -0.501139       -13.6367
  48   2.0000      -0.497102       -13.5268
  49   2.0000      -0.496481       -13.5099
  50   2.0000      -0.487330       -13.2609
  51   2.0000      -0.479767       -13.0551
  52   2.0000      -0.468105       -12.7378
  53   2.0000      -0.462360       -12.5815
  54   2.0000      -0.458588       -12.4788
  55   2.0000      -0.454658       -12.3719
  56   2.0000      -0.446794       -12.1579
  57   2.0000      -0.442573       -12.0430
  58   2.0000      -0.432159       -11.7597
  59   2.0000      -0.425780       -11.5861
  60   2.0000      -0.420378       -11.4391
  61   2.0000      -0.418037       -11.3754
  62   2.0000      -0.412593       -11.2272
  63   2.0000      -0.340538        -9.2665
  64   2.0000      -0.331470        -9.0198
  65   2.0000      -0.327310        -8.9065
  66   2.0000      -0.285533        -7.7698
  67   0.0000       0.023200         0.6313
  68   0.0000       0.062475         1.7000
  69   0.0000       0.101697         2.7673
  70   0.0000       0.121885         3.3166
  71   0.0000       0.134067         3.6481

MULLIKEN ATOMIC CHARGES
-----------------------
   0 S :    0.116229
   1 C :   -0.138823
   2 C :   -0.045248
   3 C :    0.032118
   4 C :   -0.182066
   5 H :    0.007602
   6 C :    0.030958
   7 H :    0.023211
   8 H :    0.027538
   9 C :   -0.065647
  10 H :    0.047487
  11 H :    0.040350
  12 C :   -0.068150
  13 H :    0.031477
  14 H :    0.027596
  15 H :    0.027712
  16 S :    0.100362
  17 C :   -0.125694
  18 C :   -0.010251
  19 C :   -0.070400
  20 C :   -0.107358
  21 H :   -0.003791
  22 C :    0.021877
  23 H :    0.046540
  24 H :    0.040032
  25 C :   -0.042801
  26 H :    0.022606
  27 H :    0.003927
  28 C :   -0.009955
  29 H :    0.029361
  30 H :    0.019213
  31 H :    0.028075
  32 H :    0.057902
  33 H :    0.088010
Sum of atomic charges:    0.0000000

LOEWDIN ATOMIC CHARGES
----------------------
   0 S :    0.400974
   1 C :   -0.192885
   2 C :   -0.068597
   3 C :   -0.056910
   4 C :   -0.194317
   5 H :    0.027347
   6 C :   -0.033606
   7 H :    0.035405
   8 H :    0.027003
   9 C :   -0.031268
  10 H :    0.028124
  11 H :    0.023195
  12 C :   -0.060995
  13 H :    0.027253
  14 H :    0.020792
  15 H :    0.018275
  16 S :    0.395592
  17 C :   -0.192853
  18 C :   -0.059587
  19 C :   -0.055350
  20 C :   -0.195183
  21 H :    0.015529
  22 C :   -0.033590
  23 H :    0.034407
  24 H :    0.032596
  25 C :   -0.035447
  26 H :    0.019382
  27 H :    0.015413
  28 C :   -0.055793
  29 H :    0.031318
  30 H :    0.016029
  31 H :    0.024744
  32 H :    0.028540
  33 H :    0.044464

  Mayer bond orders larger than 0.100000
B(  0-S ,  1-C ) :   1.1642 B(  0-S ,  4-C ) :   1.1406 B(  1-C ,  2-C ) :   1.5917
B(  1-C ,  4-C ) :   0.1030 B(  1-C , 32-H ) :   0.9632 B(  2-C ,  3-C ) :   1.2583
B(  2-C ,  6-C ) :   1.0112 B(  3-C ,  4-C ) :   1.5764 B(  3-C ,  5-H ) :   0.9839
B(  4-C , 20-C ) :   1.0317 B(  6-C ,  7-H ) :   0.9488 B(  6-C ,  8-H ) :   0.9321
B(  6-C ,  9-C ) :   1.0771 B(  9-C , 10-H ) :   0.9617 B(  9-C , 11-H ) :   0.9479
B(  9-C , 12-C ) :   1.0708 B( 12-C , 13-H ) :   0.9766 B( 12-C , 14-H ) :   0.9755
B( 12-C , 15-H ) :   0.9784 B( 16-S , 17-C ) :   1.1641 B( 16-S , 20-C ) :   1.1406
B( 17-C , 18-C ) :   1.5740 B( 17-C , 20-C ) :   0.1055 B( 17-C , 33-H ) :   0.9629
B( 18-C , 19-C ) :   1.2510 B( 18-C , 21-H ) :   0.9990 B( 19-C , 20-C ) :   1.5889
B( 19-C , 22-C ) :   1.0313 B( 22-C , 23-H ) :   0.9433 B( 22-C , 24-H ) :   0.9326
B( 22-C , 25-C ) :   1.0641 B( 25-C , 26-H ) :   0.9576 B( 25-C , 27-H ) :   0.9530
B( 25-C , 28-C ) :   1.0823 B( 28-C , 29-H ) :   0.9684 B( 28-C , 30-H ) :   0.9668
B( 28-C , 31-H ) :   0.9759

Dispersion correction           -0.014374605
FINAL SINGLE POINT ENERGY     -1339.854109166452

DIPOLE MOMENT
-------------
                                X             Y             Z
Electronic contribution:     25.70235      -0.33794      13.52006
Nuclear contribution   :    -26.51752       0.23664     -13.73013
                        -----------------------------------------
Total Dipole Moment    :     -0.81517      -0.10130      -0.21006
                        -----------------------------------------
Magnitude (a.u.)       :      0.84787
Magnitude (Debye)      :      2.15512

Rotational constants in cm-1:     0.018524     0.008642     0.006824
Rotational constants in MHz :   555.326337   259.067856   204.568457

                             ****ORCA TERMINATED NORMALLY****
TOTAL RUN TIME: 0 days 0 hours 0 minutes 22 seconds 36 msec
