                         Program Version 4.2.1 -  RELEASE  -
|  1> ! wB97X-D3 SP def2-SVP
|  2> %pal
|  3> nprocs 24
|  4> end
|  5>
|  6> * xyz 0 1
|  7> S 	 -77.6122 	 -17.7728 	 -57.7606
|  8> C 	 -78.0105 	 -16.9003 	 -56.2773
|  9> C 	 -78.9708 	 -15.97 	 -56.6315
| 10> C 	 -79.2115 	 -15.9242 	 -58.0188
| 11> C 	 -78.5918 	 -16.8688 	 -58.7858
| 12> H 	 -79.6602 	 -15.1863 	 -58.6723
| 13> C 	 -79.5238 	 -14.8565 	 -55.6811
| 14> H 	 -79.5612 	 -14.035 	 -56.3954
| 15> H 	 -78.8587 	 -14.6171 	 -54.764
| 16> C 	 -81.0108 	 -15.0824 	 -55.3593
| 17> H 	 -81.5278 	 -15.2071 	 -56.2882
| 18> H 	 -81.1358 	 -16.1006 	 -54.9189
| 19> C 	 -81.7431 	 -14.0112 	 -54.5459
| 20> H 	 -81.2752 	 -13.728 	 -53.541
| 21> H 	 -81.7566 	 -13.0823 	 -55.0836
| 22> H 	 -82.7861 	 -14.3135 	 -54.3635
| 23> S 	 -77.0058 	 -17.0811 	 -60.9788
| 24> C 	 -77.6885 	 -17.3555 	 -62.5263
| 25> C 	 -79.0422 	 -17.4112 	 -62.4756
| 26> C 	 -79.5418 	 -17.1131 	 -61.1778
| 27> C 	 -78.5526 	 -16.9771 	 -60.2034
| 28> H 	 -79.6325 	 -17.4673 	 -63.3753
| 29> C 	 -81.0383 	 -17.2763 	 -60.981
| 30> H 	 -81.2665 	 -16.9465 	 -59.9137
| 31> H 	 -81.2993 	 -18.2923 	 -61.2049
| 32> C 	 -82.0103 	 -16.4649 	 -61.796
| 33> H 	 -83.0239 	 -16.785 	 -61.6445
| 34> H 	 -81.7717 	 -16.481 	 -62.8505
| 35> C 	 -82.0261 	 -14.9991 	 -61.3396
| 36> H 	 -81.0525 	 -14.6472 	 -61.3657
| 37> H 	 -82.251 	 -15.0355 	 -60.2638
| 38> H 	 -82.6289 	 -14.2605 	 -61.959
| 39> H 	 -77.5052 	 -16.9077 	 -55.3337
| 40> H 	 -77.0625 	 -17.4586 	 -63.3421
| 41> *
| 42>
| 43>                          ****END OF INPUT****

CARTESIAN COORDINATES (ANGSTROEM)
---------------------------------
  S    -77.612200  -17.772800  -57.760600
  C    -78.010500  -16.900300  -56.277300
  C    -78.970800  -15.970000  -56.631500
  C    -79.211500  -15.924200  -58.018800
  C    -78.591800  -16.868800  -58.785800
  H    -79.660200  -15.186300  -58.672300
  C    -79.523800  -14.856500  -55.681100
  H    -79.561200  -14.035000  -56.395400
  H    -78.858700  -14.617100  -54.764000
  C    -81.010800  -15.082400  -55.359300
  H    -81.527800  -15.207100  -56.288200
  H    -81.135800  -16.100600  -54.918900
  C    -81.743100  -14.011200  -54.545900
  H    -81.275200  -13.728000  -53.541000
  H    -81.756600  -13.082300  -55.083600
  H    -82.786100  -14.313500  -54.363500
  S    -77.005800  -17.081100  -60.978800
  C    -77.688500  -17.355500  -62.526300
  C    -79.042200  -17.411200  -62.475600
  C    -79.541800  -17.113100  -61.177800
  C    -78.552600  -16.977100  -60.203400
  H    -79.632500  -17.467300  -63.375300
  C    -81.038300  -17.276300  -60.981000
  H    -81.266500  -16.946500  -59.913700
  H    -81.299300  -18.292300  -61.204900
  C    -82.010300  -16.464900  -61.796000
  H    -83.023900  -16.785000  -61.644500
  H    -81.771700  -16.481000  -62.850500
  C    -82.026100  -14.999100  -61.339600
  H    -81.052500  -14.647200  -61.365700
  H    -82.251000  -15.035500  -60.263800
  H    -82.628900  -14.260500  -61.959000
  H    -77.505200  -16.907700  -55.333700
  H    -77.062500  -17.458600  -63.342100

 Total Charge           Charge          ....    0
 Multiplicity           Mult            ....    1
 Number of Electrons    NEL             ....  134
 Basis Dimension        Dim             ....  322

ORBITAL ENERGIES
----------------

  NO   OCC          E(Eh)            E(eV)
   0   2.0000     -88.965712     -2420.8801
   1   2.0000     -88.962426     -2420.7907
   2   2.0000     -10.328508      -281.0530
   3   2.0000     -10.322259      -280.8829
   4   2.0000     -10.315400      -280.6963
   5   2.0000     -10.313369      -280.6410
   6   2.0000     -10.307028      -280.4685
   7   2.0000     -10.305544      -280.4281
   8   2.0000     -10.301969      -280.3308
   9   2.0000     -10.292315      -280.0681
  10   2.0000     -10.292274      -280.0670
  11   2.0000     -10.288540      -279.9654
  12   2.0000     -10.285654      -279.8869
  13   2.0000     -10.283235      -279.8210
  14   2.0000     -10.282009      -279.7877
  15   2.0000     -10.273921      -279.5676
  16   2.0000      -8.081830      -219.9178
  17   2.0000      -8.078255      -219.8205
  18   2.0000      -6.040204      -164.3623
  19   2.0000      -6.036740      -164.2680
  20   2.0000      -6.036029      -164.2487
  21   2.0000      -6.032740      -164.1592
  22   2.0000      -6.032324      -164.1479
  23   2.0000      -6.029205      -164.0630
  24   2.0000      -1.021585       -27.7987
  25   2.0000      -0.996599       -27.1188
  26   2.0000      -0.918362       -24.9899
  27   2.0000      -0.910193       -24.7676
  28   2.0000      -0.879163       -23.9232
  29   2.0000      -0.854337       -23.2477
  30   2.0000      -0.844240       -22.9729
  31   2.0000      -0.820644       -22.3309
  32   2.0000      -0.782752       -21.2998
  33   2.0000      -0.776601       -21.1324
  34   2.0000      -0.713273       -19.4092
  35   2.0000      -0.700743       -19.0682
  36   2.0000      -0.694473       -18.8976
  37   2.0000      -0.663815       -18.0633
  38   2.0000      -0.650061       -17.6891
  39   2.0000      -0.618045       -16.8179
  40   2.0000      -0.607065       -16.5191
  41   2.0000      -0.572429       -15.5766
  42   2.0000      -0.560171       -15.2430
  43   2.0000      -0.554993       -15.1021
  44   2.0000      -0.550346       -14.9757
  45   2.0000      -0.527386       -14.3509
  46   2.0000      -0.520913       -14.1748
  47   2.0000      -0.519914       -14.1476
  48   2.0000      -0.509932       -13.8760
  49   2.0000      -0.503056       -13.6888
  50   2.0000      -0.498328       -13.5602
  51   2.0000      -0.483592       -13.1592
  52   2.0000      -0.472717       -12.8633
  53   2.0000      -0.467124       -12.7111
  54   2.0000      -0.457541       -12.4503
  55   2.0000      -0.446657       -12.1542
  56   2.0000      -0.440496       -11.9865
  57   2.0000      -0.436934       -11.8896
  58   2.0000      -0.434876       -11.8336
  59   2.0000      -0.422973       -11.5097
  60   2.0000      -0.417349       -11.3566
  61   2.0000      -0.416145       -11.3239
  62   2.0000      -0.403358       -10.9759
  63   2.0000      -0.352793        -9.6000
  64   2.0000      -0.335259        -9.1229
  65   2.0000      -0.328379        -8.9357
  66   2.0000      -0.297935        -8.1072
  67   0.0000       0.028283         0.7696
  68   0.0000       0.075185         2.0459
  69   0.0000       0.117934         3.2092
  70   0.0000       0.122505         3.3335
  71   0.0000       0.126753         3.4491

MULLIKEN ATOMIC CHARGES
-----------------------
   0 S :    0.098429
   1 C :   -0.121947
   2 C :   -0.065824
   3 C :    0.019131
   4 C :   -0.154400
   5 H :    0.007543
   6 C :    0.051278
   7 H :    0.022398
   8 H :    0.049352
   9 C :   -0.085336
  10 H :    0.018122
  11 H :    0.028218
  12 C :   -0.043857
  13 H :    0.036637
  14 H :    0.023425
  15 H :    0.041817
  16 S :    0.111814
  17 C :   -0.060877
  18 C :   -0.023296
  19 C :   -0.029345
  20 C :   -0.154638
  21 H :    0.023350
  22 C :    0.043386
  23 H :    0.025097
  24 H :    0.040092
  25 C :   -0.054938
  26 H :    0.030314
  27 H :    0.020812
  28 C :   -0.061519
  29 H :    0.012922
  30 H :    0.020904
  31 H :    0.048866
  32 H :    0.048811
  33 H :    0.033262
Sum of atomic charges:   -0.0000000

LOEWDIN ATOMIC CHARGES
----------------------
   0 S :    0.427903
   1 C :   -0.194419
   2 C :   -0.060458
   3 C :   -0.080215
   4 C :   -0.216735
   5 H :    0.031365
   6 C :   -0.031374
   7 H :    0.030286
   8 H :    0.038270
   9 C :   -0.050348
  10 H :    0.021944
  11 H :    0.024921
  12 C :   -0.070796
  13 H :    0.030707
  14 H :    0.020314
  15 H :    0.031353
  16 S :    0.432473
  17 C :   -0.169682
  18 C :   -0.072076
  19 C :   -0.053837
  20 C :   -0.208867
  21 H :    0.032349
  22 C :   -0.031591
  23 H :    0.034659
  24 H :    0.034799
  25 C :   -0.038800
  26 H :    0.024765
  27 H :    0.017041
  28 C :   -0.068463
  29 H :    0.010784
  30 H :    0.023734
  31 H :    0.034036
  32 H :    0.031679
  33 H :    0.014281

  Mayer bond orders larger than 0.100000
B(  0-S ,  1-C ) :   1.1410 B(  0-S ,  4-C ) :   1.1661 B(  1-C ,  2-C ) :   1.5809
B(  1-C , 32-H ) :   0.9813 B(  2-C ,  3-C ) :   1.2493 B(  2-C ,  6-C ) :   1.0066
B(  3-C ,  4-C ) :   1.5711 B(  3-C ,  5-H ) :   0.9884 B(  4-C , 20-C ) :   1.0500
B(  6-C ,  7-H ) :   0.9404 B(  6-C ,  8-H ) :   0.9525 B(  6-C ,  9-C ) :   1.0530
B(  9-C , 10-H ) :   0.9529 B(  9-C , 11-H ) :   0.9559 B(  9-C , 12-C ) :   1.0828
B( 12-C , 13-H ) :   0.9747 B( 12-C , 14-H ) :   0.9730 B( 12-C , 15-H ) :   0.9732
B( 16-S , 17-C ) :   1.1786 B( 16-S , 20-C ) :   1.1493 B( 17-C , 18-C ) :   1.5789
B( 17-C , 33-H ) :   0.9800 B( 18-C , 19-C ) :   1.2534 B( 18-C , 21-H ) :   0.9938
B( 19-C , 20-C ) :   1.5634 B( 19-C , 22-C ) :   1.0459 B( 22-C , 23-H ) :   0.9345
B( 22-C , 24-H ) :   0.9371 B( 22-C , 25-C ) :   1.0764 B( 25-C , 26-H ) :   0.9558
B( 25-C , 27-H ) :   0.9525 B( 25-C , 28-C ) :   1.0682 B( 28-C , 29-H ) :   0.9773
B( 28-C , 30-H ) :   0.9707 B( 28-C , 31-H ) :   0.9725

Dispersion correction           -0.014005095
FINAL SINGLE POINT ENERGY     -1339.863423345243

DIPOLE MOMENT
-------------
                                X             Y             Z
Electronic contribution:     26.06756     -14.98223      -7.51349
Nuclear contribution   :    -26.43843      15.30660       7.30181
                        -----------------------------------------
Total Dipole Moment    :     -0.37087       0.32436      -0.21168
                        -----------------------------------------
Magnitude (a.u.)       :      0.53625
Magnitude (Debye)      :      1.36305

Rotational constants in cm-1:     0.018430     0.008903     0.006425
Rotational constants in MHz :   552.529990   266.904541   192.629857

                             ****ORCA TERMINATED NORMALLY****
TOTAL RUN TIME: 0 days 0 hours 0 minutes 21 seconds 661 msec
