                         Program Version 4.2.1 -  RELEASE  -
|  1> ! wB97X-D3 SP def2-SVP
|  2> %pal
|  3> nprocs 24
|  4> end
|  5>
|  6> * xyz 0 1
|  7> S 	 -119.538 	 28.6996 	 -19.1909
|  8> C 	 -118.829 	 27.9307 	 -20.6563
|  9> C 	 -117.758 	 27.1217 	 -20.2867
| 10> C 	 -117.478 	 27.1964 	 -18.8974
| 11> C 	 -118.313 	 27.9912 	 -18.205
| 12> H 	 -116.742 	 26.6675 	 -18.2829
| 13> C 	 -117.149 	 26.1425 	 -21.2479
| 14> H 	 -116.094 	 26.339 	 -21.2648
| 15> H 	 -117.583 	 26.2887 	 -22.2103
| 16> C 	 -117.312 	 24.6544 	 -20.7726
| 17> H 	 -116.912 	 24.0669 	 -21.5888
| 18> H 	 -116.692 	 24.5821 	 -19.8508
| 19> C 	 -118.747 	 24.161 	 -20.5946
| 20> H 	 -118.73 	 23.0711 	 -20.8047
| 21> H 	 -119.045 	 24.4428 	 -19.5592
| 22> H 	 -119.478 	 24.7172 	 -21.3177
| 23> S 	 -117.875 	 26.9454 	 -15.6589
| 24> C 	 -118.135 	 27.9876 	 -14.3411
| 25> C 	 -118.37 	 29.3126 	 -14.6715
| 26> C 	 -118.639 	 29.4451 	 -16.0768
| 27> C 	 -118.409 	 28.2565 	 -16.7964
| 28> H 	 -118.487 	 30.1223 	 -13.89
| 29> C 	 -118.998 	 30.8313 	 -16.6301
| 30> H 	 -118.881 	 30.9414 	 -17.6998
| 31> H 	 -118.372 	 31.6506 	 -16.2839
| 32> C 	 -120.422 	 31.2938 	 -16.1916
| 33> H 	 -120.573 	 32.2253 	 -16.6301
| 34> H 	 -120.602 	 31.3996 	 -15.1074
| 35> C 	 -121.616 	 30.524 	 -16.739
| 36> H 	 -122.565 	 31.0612 	 -16.5173
| 37> H 	 -121.489 	 29.4989 	 -16.3013
| 38> H 	 -121.518 	 30.3699 	 -17.8432
| 39> H 	 -119.113 	 28.1366 	 -21.6884
| 40> H 	 -118.142 	 27.5124 	 -13.368
| 41> *
| 42>
| 43>                          ****END OF INPUT****

CARTESIAN COORDINATES (ANGSTROEM)
---------------------------------
  S    -119.538000   28.699600  -19.190900
  C    -118.829000   27.930700  -20.656300
  C    -117.758000   27.121700  -20.286700
  C    -117.478000   27.196400  -18.897400
  C    -118.313000   27.991200  -18.205000
  H    -116.742000   26.667500  -18.282900
  C    -117.149000   26.142500  -21.247900
  H    -116.094000   26.339000  -21.264800
  H    -117.583000   26.288700  -22.210300
  C    -117.312000   24.654400  -20.772600
  H    -116.912000   24.066900  -21.588800
  H    -116.692000   24.582100  -19.850800
  C    -118.747000   24.161000  -20.594600
  H    -118.730000   23.071100  -20.804700
  H    -119.045000   24.442800  -19.559200
  H    -119.478000   24.717200  -21.317700
  S    -117.875000   26.945400  -15.658900
  C    -118.135000   27.987600  -14.341100
  C    -118.370000   29.312600  -14.671500
  C    -118.639000   29.445100  -16.076800
  C    -118.409000   28.256500  -16.796400
  H    -118.487000   30.122300  -13.890000
  C    -118.998000   30.831300  -16.630100
  H    -118.881000   30.941400  -17.699800
  H    -118.372000   31.650600  -16.283900
  C    -120.422000   31.293800  -16.191600
  H    -120.573000   32.225300  -16.630100
  H    -120.602000   31.399600  -15.107400
  C    -121.616000   30.524000  -16.739000
  H    -122.565000   31.061200  -16.517300
  H    -121.489000   29.498900  -16.301300
  H    -121.518000   30.369900  -17.843200
  H    -119.113000   28.136600  -21.688400
  H    -118.142000   27.512400  -13.368000

 Total Charge           Charge          ....    0
 Multiplicity           Mult            ....    1
 Number of Electrons    NEL             ....  134
 Basis Dimension        Dim             ....  322

ORBITAL ENERGIES
----------------

  NO   OCC          E(Eh)            E(eV)
   0   2.0000     -88.968656     -2420.9602
   1   2.0000     -88.963273     -2420.8137
   2   2.0000     -10.333497      -281.1887
   3   2.0000     -10.324393      -280.9410
   4   2.0000     -10.320741      -280.8416
   5   2.0000     -10.315321      -280.6941
   6   2.0000     -10.313730      -280.6509
   7   2.0000     -10.304170      -280.3907
   8   2.0000     -10.300534      -280.2918
   9   2.0000     -10.294749      -280.1344
  10   2.0000     -10.288675      -279.9691
  11   2.0000     -10.287164      -279.9280
  12   2.0000     -10.286554      -279.9114
  13   2.0000     -10.284716      -279.8614
  14   2.0000     -10.278379      -279.6889
  15   2.0000     -10.274980      -279.5964
  16   2.0000      -8.083611      -219.9663
  17   2.0000      -8.077392      -219.7970
  18   2.0000      -6.042036      -164.4122
  19   2.0000      -6.038191      -164.3075
  20   2.0000      -6.036002      -164.2480
  21   2.0000      -6.034366      -164.2035
  22   2.0000      -6.032008      -164.1393
  23   2.0000      -6.028042      -164.0314
  24   2.0000      -1.009046       -27.4575
  25   2.0000      -0.984404       -26.7870
  26   2.0000      -0.912357       -24.8265
  27   2.0000      -0.907205       -24.6863
  28   2.0000      -0.867485       -23.6055
  29   2.0000      -0.852222       -23.1901
  30   2.0000      -0.841526       -22.8991
  31   2.0000      -0.812606       -22.1121
  32   2.0000      -0.786444       -21.4002
  33   2.0000      -0.770504       -20.9665
  34   2.0000      -0.705448       -19.1962
  35   2.0000      -0.691048       -18.8044
  36   2.0000      -0.679273       -18.4840
  37   2.0000      -0.664600       -18.0847
  38   2.0000      -0.631202       -17.1759
  39   2.0000      -0.621718       -16.9178
  40   2.0000      -0.606751       -16.5105
  41   2.0000      -0.561373       -15.2757
  42   2.0000      -0.551968       -15.0198
  43   2.0000      -0.548596       -14.9281
  44   2.0000      -0.545312       -14.8387
  45   2.0000      -0.538447       -14.6519
  46   2.0000      -0.521196       -14.1825
  47   2.0000      -0.512686       -13.9509
  48   2.0000      -0.502102       -13.6629
  49   2.0000      -0.495487       -13.4829
  50   2.0000      -0.485346       -13.2069
  51   2.0000      -0.473460       -12.8835
  52   2.0000      -0.470989       -12.8163
  53   2.0000      -0.466328       -12.6894
  54   2.0000      -0.461134       -12.5481
  55   2.0000      -0.449385       -12.2284
  56   2.0000      -0.438144       -11.9225
  57   2.0000      -0.437586       -11.9073
  58   2.0000      -0.429128       -11.6772
  59   2.0000      -0.420302       -11.4370
  60   2.0000      -0.418284       -11.3821
  61   2.0000      -0.407308       -11.0834
  62   2.0000      -0.404014       -10.9938
  63   2.0000      -0.353024        -9.6063
  64   2.0000      -0.335313        -9.1243
  65   2.0000      -0.329302        -8.9608
  66   2.0000      -0.284834        -7.7507
  67   0.0000       0.024431         0.6648
  68   0.0000       0.071067         1.9338
  69   0.0000       0.101180         2.7532
  70   0.0000       0.112460         3.0602
  71   0.0000       0.130685         3.5561

MULLIKEN ATOMIC CHARGES
-----------------------
   0 S :    0.083039
   1 C :   -0.129836
   2 C :   -0.087155
   3 C :   -0.016973
   4 C :   -0.119141
   5 H :    0.011026
   6 C :    0.111356
   7 H :    0.026760
   8 H :    0.005706
   9 C :   -0.113079
  10 H :    0.031399
  11 H :    0.042973
  12 C :   -0.075728
  13 H :    0.049839
  14 H :    0.050546
  15 H :    0.043573
  16 S :    0.094779
  17 C :   -0.095700
  18 C :   -0.032692
  19 C :   -0.038076
  20 C :   -0.131369
  21 H :    0.049067
  22 C :    0.065926
  23 H :    0.022992
  24 H :    0.032825
  25 C :   -0.078047
  26 H :    0.009729
  27 H :    0.034150
  28 C :   -0.089253
  29 H :    0.048159
  30 H :    0.042923
  31 H :    0.033344
  32 H :    0.051328
  33 H :    0.065612
Sum of atomic charges:    0.0000000

LOEWDIN ATOMIC CHARGES
----------------------
   0 S :    0.410258
   1 C :   -0.195217
   2 C :   -0.055629
   3 C :   -0.087159
   4 C :   -0.184220
   5 H :    0.029553
   6 C :   -0.023613
   7 H :    0.030007
   8 H :    0.021929
   9 C :   -0.043287
  10 H :    0.022485
  11 H :    0.026791
  12 C :   -0.076460
  13 H :    0.031254
  14 H :    0.031857
  15 H :    0.035870
  16 S :    0.400405
  17 C :   -0.186623
  18 C :   -0.076605
  19 C :   -0.046302
  20 C :   -0.186798
  21 H :    0.045001
  22 C :   -0.033951
  23 H :    0.021516
  24 H :    0.037621
  25 C :   -0.042986
  26 H :    0.014341
  27 H :    0.024157
  28 C :   -0.077125
  29 H :    0.030758
  30 H :    0.027845
  31 H :    0.018135
  32 H :    0.028920
  33 H :    0.027272

  Mayer bond orders larger than 0.100000
B(  0-S ,  1-C ) :   1.1074 B(  0-S ,  4-C ) :   1.1500 B(  1-C ,  2-C ) :   1.6267
B(  1-C , 32-H ) :   0.9672 B(  2-C ,  3-C ) :   1.2013 B(  2-C ,  6-C ) :   1.0370
B(  3-C ,  4-C ) :   1.6126 B(  3-C ,  5-H ) :   0.9861 B(  4-C , 20-C ) :   1.0590
B(  6-C ,  7-H ) :   0.9305 B(  6-C ,  8-H ) :   0.9385 B(  6-C ,  9-C ) :   1.0779
B(  9-C , 10-H ) :   0.9614 B(  9-C , 11-H ) :   0.9552 B(  9-C , 12-C ) :   1.0601
B( 12-C , 13-H ) :   0.9766 B( 12-C , 14-H ) :   0.9737 B( 12-C , 15-H ) :   0.9749
B( 16-S , 17-C ) :   1.1837 B( 16-S , 20-C ) :   1.1192 B( 17-C , 18-C ) :   1.5820
B( 17-C , 33-H ) :   0.9683 B( 18-C , 19-C ) :   1.2446 B( 18-C , 21-H ) :   0.9826
B( 19-C , 20-C ) :   1.5611 B( 19-C , 22-C ) :   1.0419 B( 22-C , 23-H ) :   0.9323
B( 22-C , 24-H ) :   0.9379 B( 22-C , 25-C ) :   1.0688 B( 25-C , 26-H ) :   0.9526
B( 25-C , 27-H ) :   0.9593 B( 25-C , 28-C ) :   1.0749 B( 28-C , 29-H ) :   0.9729
B( 28-C , 30-H ) :   0.9755 B( 28-C , 31-H ) :   0.9703

Dispersion correction           -0.015353975
FINAL SINGLE POINT ENERGY     -1339.873582175423

DIPOLE MOMENT
-------------
                                X             Y             Z
Electronic contribution:      5.31470       0.80872       7.86892
Nuclear contribution   :     -5.12889      -0.69904      -7.82931
                        -----------------------------------------
Total Dipole Moment    :      0.18582       0.10968       0.03961
                        -----------------------------------------
Magnitude (a.u.)       :      0.21938
Magnitude (Debye)      :      0.55761

Rotational constants in cm-1:     0.022719     0.008903     0.007086
Rotational constants in MHz :   681.111963   266.893369   212.423657

                             ****ORCA TERMINATED NORMALLY****
TOTAL RUN TIME: 0 days 0 hours 0 minutes 21 seconds 6 msec
