                         Program Version 4.2.1 -  RELEASE  -
|  1> ! wB97X-D3 SP def2-SVP
|  2> %pal
|  3> nprocs 24
|  4> end
|  5>
|  6> * xyz 0 1
|  7> S 	 -115.448 	 58.5221 	 -80.691
|  8> C 	 -115.257 	 59.0811 	 -82.3553
|  9> C 	 -114.094 	 58.6301 	 -82.9418
| 10> C 	 -113.445 	 57.6724 	 -82.0504
| 11> C 	 -113.93 	 57.6279 	 -80.7535
| 12> H 	 -112.611 	 57.1061 	 -82.3581
| 13> C 	 -113.602 	 58.8733 	 -84.3823
| 14> H 	 -114.216 	 58.29 	 -85.0712
| 15> H 	 -112.61 	 58.4169 	 -84.3817
| 16> C 	 -113.538 	 60.3418 	 -84.8334
| 17> H 	 -113.151 	 60.2055 	 -85.8513
| 18> H 	 -114.507 	 60.8676 	 -84.7554
| 19> C 	 -112.461 	 60.9661 	 -83.9774
| 20> H 	 -112.245 	 62.0064 	 -84.251
| 21> H 	 -112.719 	 60.9813 	 -82.9024
| 22> H 	 -111.492 	 60.4341 	 -84.022
| 23> S 	 -114.48 	 55.6226 	 -79.0658
| 24> C 	 -113.244 	 55.0222 	 -78.0049
| 25> C 	 -112.012 	 55.5865 	 -78.2928
| 26> C 	 -112.08 	 56.7085 	 -79.1793
| 27> C 	 -113.392 	 56.9104 	 -79.6473
| 28> H 	 -111.08 	 55.1678 	 -77.8926
| 29> C 	 -110.863 	 57.5123 	 -79.613
| 30> H 	 -110.28 	 57.9151 	 -78.6981
| 31> H 	 -111.408 	 58.3463 	 -80.0775
| 32> C 	 -109.997 	 56.9159 	 -80.6619
| 33> H 	 -110.516 	 56.4688 	 -81.4981
| 34> H 	 -109.498 	 56.086 	 -80.1849
| 35> C 	 -108.987 	 57.9416 	 -81.1403
| 36> H 	 -108.199 	 57.5286 	 -81.8453
| 37> H 	 -108.416 	 58.347 	 -80.3098
| 38> H 	 -109.51 	 58.8099 	 -81.595
| 39> H 	 -116.043 	 59.6344 	 -82.8537
| 40> H 	 -113.288 	 54.2 	 -77.2459
| 41> *
| 42>
| 43>                          ****END OF INPUT****

CARTESIAN COORDINATES (ANGSTROEM)
---------------------------------
  S    -115.448000   58.522100  -80.691000
  C    -115.257000   59.081100  -82.355300
  C    -114.094000   58.630100  -82.941800
  C    -113.445000   57.672400  -82.050400
  C    -113.930000   57.627900  -80.753500
  H    -112.611000   57.106100  -82.358100
  C    -113.602000   58.873300  -84.382300
  H    -114.216000   58.290000  -85.071200
  H    -112.610000   58.416900  -84.381700
  C    -113.538000   60.341800  -84.833400
  H    -113.151000   60.205500  -85.851300
  H    -114.507000   60.867600  -84.755400
  C    -112.461000   60.966100  -83.977400
  H    -112.245000   62.006400  -84.251000
  H    -112.719000   60.981300  -82.902400
  H    -111.492000   60.434100  -84.022000
  S    -114.480000   55.622600  -79.065800
  C    -113.244000   55.022200  -78.004900
  C    -112.012000   55.586500  -78.292800
  C    -112.080000   56.708500  -79.179300
  C    -113.392000   56.910400  -79.647300
  H    -111.080000   55.167800  -77.892600
  C    -110.863000   57.512300  -79.613000
  H    -110.280000   57.915100  -78.698100
  H    -111.408000   58.346300  -80.077500
  C    -109.997000   56.915900  -80.661900
  H    -110.516000   56.468800  -81.498100
  H    -109.498000   56.086000  -80.184900
  C    -108.987000   57.941600  -81.140300
  H    -108.199000   57.528600  -81.845300
  H    -108.416000   58.347000  -80.309800
  H    -109.510000   58.809900  -81.595000
  H    -116.043000   59.634400  -82.853700
  H    -113.288000   54.200000  -77.245900

 Total Charge           Charge          ....    0
 Multiplicity           Mult            ....    1
 Number of Electrons    NEL             ....  134
 Basis Dimension        Dim             ....  322

ORBITAL ENERGIES
----------------

  NO   OCC          E(Eh)            E(eV)
   0   2.0000     -88.965897     -2420.8851
   1   2.0000     -88.963482     -2420.8194
   2   2.0000     -10.328001      -281.0392
   3   2.0000     -10.326762      -281.0055
   4   2.0000     -10.320653      -280.8393
   5   2.0000     -10.315683      -280.7040
   6   2.0000     -10.307852      -280.4909
   7   2.0000     -10.304147      -280.3901
   8   2.0000     -10.295824      -280.1636
   9   2.0000     -10.295267      -280.1485
  10   2.0000     -10.294315      -280.1226
  11   2.0000     -10.293635      -280.1041
  12   2.0000     -10.292805      -280.0815
  13   2.0000     -10.284010      -279.8421
  14   2.0000     -10.283690      -279.8334
  15   2.0000     -10.276955      -279.6502
  16   2.0000      -8.080383      -219.8784
  17   2.0000      -8.078001      -219.8136
  18   2.0000      -6.038925      -164.3275
  19   2.0000      -6.036570      -164.2634
  20   2.0000      -6.034986      -164.2203
  21   2.0000      -6.032557      -164.1542
  22   2.0000      -6.031034      -164.1128
  23   2.0000      -6.028681      -164.0488
  24   2.0000      -1.004189       -27.3254
  25   2.0000      -0.979089       -26.6424
  26   2.0000      -0.918384       -24.9905
  27   2.0000      -0.916224       -24.9317
  28   2.0000      -0.870802       -23.6957
  29   2.0000      -0.852170       -23.1887
  30   2.0000      -0.842236       -22.9184
  31   2.0000      -0.808477       -21.9998
  32   2.0000      -0.779678       -21.2161
  33   2.0000      -0.769083       -20.9278
  34   2.0000      -0.707649       -19.2561
  35   2.0000      -0.704025       -19.1575
  36   2.0000      -0.694819       -18.9070
  37   2.0000      -0.659899       -17.9568
  38   2.0000      -0.639965       -17.4143
  39   2.0000      -0.611275       -16.6336
  40   2.0000      -0.592275       -16.1166
  41   2.0000      -0.577171       -15.7056
  42   2.0000      -0.571044       -15.5389
  43   2.0000      -0.555319       -15.1110
  44   2.0000      -0.539174       -14.6717
  45   2.0000      -0.522577       -14.2201
  46   2.0000      -0.513958       -13.9855
  47   2.0000      -0.510302       -13.8860
  48   2.0000      -0.509083       -13.8529
  49   2.0000      -0.498903       -13.5759
  50   2.0000      -0.489292       -13.3143
  51   2.0000      -0.473001       -12.8710
  52   2.0000      -0.469343       -12.7715
  53   2.0000      -0.460354       -12.5269
  54   2.0000      -0.457779       -12.4568
  55   2.0000      -0.448422       -12.2022
  56   2.0000      -0.445793       -12.1306
  57   2.0000      -0.440602       -11.9894
  58   2.0000      -0.435614       -11.8536
  59   2.0000      -0.428821       -11.6688
  60   2.0000      -0.420480       -11.4418
  61   2.0000      -0.414686       -11.2842
  62   2.0000      -0.412265       -11.2183
  63   2.0000      -0.339724        -9.2443
  64   2.0000      -0.330699        -8.9988
  65   2.0000      -0.326087        -8.8733
  66   2.0000      -0.294984        -8.0269
  67   0.0000       0.024720         0.6727
  68   0.0000       0.067963         1.8494
  69   0.0000       0.106499         2.8980
  70   0.0000       0.119223         3.2442
  71   0.0000       0.124262         3.3813

MULLIKEN ATOMIC CHARGES
-----------------------
   0 S :    0.104139
   1 C :   -0.130214
   2 C :   -0.110973
   3 C :    0.050476
   4 C :   -0.159198
   5 H :   -0.015097
   6 C :    0.047924
   7 H :    0.043705
   8 H :    0.015094
   9 C :   -0.040924
  10 H :    0.037620
  11 H :    0.048917
  12 C :   -0.080709
  13 H :    0.031073
  14 H :    0.049121
  15 H :    0.026757
  16 S :    0.105740
  17 C :   -0.088081
  18 C :   -0.056231
  19 C :   -0.033158
  20 C :   -0.143022
  21 H :    0.024027
  22 C :    0.012547
  23 H :    0.053101
  24 H :    0.026970
  25 C :   -0.027927
  26 H :    0.026885
  27 H :    0.014712
  28 C :   -0.058999
  29 H :    0.044419
  30 H :    0.023532
  31 H :    0.036095
  32 H :    0.051466
  33 H :    0.070211
Sum of atomic charges:   -0.0000000

LOEWDIN ATOMIC CHARGES
----------------------
   0 S :    0.390164
   1 C :   -0.188861
   2 C :   -0.064224
   3 C :   -0.052778
   4 C :   -0.203322
   5 H :    0.018425
   6 C :   -0.029760
   7 H :    0.031146
   8 H :    0.028456
   9 C :   -0.039344
  10 H :    0.032142
  11 H :    0.030513
  12 C :   -0.072425
  13 H :    0.022300
  14 H :    0.030374
  15 H :    0.026187
  16 S :    0.405417
  17 C :   -0.195460
  18 C :   -0.079035
  19 C :   -0.047335
  20 C :   -0.194821
  21 H :    0.032560
  22 C :   -0.040436
  23 H :    0.043895
  24 H :    0.032411
  25 C :   -0.043124
  26 H :    0.022833
  27 H :    0.021387
  28 C :   -0.068043
  29 H :    0.032336
  30 H :    0.023201
  31 H :    0.027920
  32 H :    0.026035
  33 H :    0.041266

  Mayer bond orders larger than 0.100000
B(  0-S ,  1-C ) :   1.1363 B(  0-S ,  4-C ) :   1.1330 B(  1-C ,  2-C ) :   1.6134
B(  1-C , 32-H ) :   0.9711 B(  2-C ,  3-C ) :   1.2376 B(  2-C ,  6-C ) :   1.0016
B(  3-C ,  4-C ) :   1.5720 B(  3-C ,  5-H ) :   0.9965 B(  4-C , 20-C ) :   1.0489
B(  6-C ,  7-H ) :   0.9388 B(  6-C ,  8-H ) :   0.9422 B(  6-C ,  9-C ) :   1.0729
B(  9-C , 10-H ) :   0.9515 B(  9-C , 11-H ) :   0.9551 B(  9-C , 12-C ) :   1.0758
B( 12-C , 13-H ) :   0.9733 B( 12-C , 14-H ) :   0.9728 B( 12-C , 15-H ) :   0.9733
B( 16-S , 17-C ) :   1.1567 B( 16-S , 20-C ) :   1.1386 B( 17-C , 18-C ) :   1.6088
B( 17-C , 20-C ) :   0.1021 B( 17-C , 33-H ) :   0.9601 B( 18-C , 19-C ) :   1.2459
B( 18-C , 21-H ) :   0.9864 B( 19-C , 20-C ) :   1.5829 B( 19-C , 22-C ) :   1.0356
B( 22-C , 23-H ) :   0.9342 B( 22-C , 24-H ) :   0.9311 B( 22-C , 25-C ) :   1.0681
B( 25-C , 26-H ) :   0.9487 B( 25-C , 27-H ) :   0.9452 B( 25-C , 28-C ) :   1.0855
B( 28-C , 29-H ) :   0.9730 B( 28-C , 30-H ) :   0.9699 B( 28-C , 31-H ) :   0.9738

Dispersion correction           -0.014880255
FINAL SINGLE POINT ENERGY     -1339.879400779073

DIPOLE MOMENT
-------------
                                X             Y             Z
Electronic contribution:    -23.17028     -11.81597      16.81447
Nuclear contribution   :     23.79504      11.76415     -17.29214
                        -----------------------------------------
Total Dipole Moment    :      0.62476      -0.05182      -0.47767
                        -----------------------------------------
Magnitude (a.u.)       :      0.78815
Magnitude (Debye)      :      2.00331

Rotational constants in cm-1:     0.018316     0.009791     0.006865
Rotational constants in MHz :   549.112995   293.527970   205.817779

                             ****ORCA TERMINATED NORMALLY****
TOTAL RUN TIME: 0 days 0 hours 0 minutes 22 seconds 323 msec
