                         Program Version 4.2.1 -  RELEASE  -
|  1> ! wB97X-D3 SP def2-SVP
|  2> %pal
|  3> nprocs 24
|  4> end
|  5>
|  6> * xyz 0 1
|  7> S 	 -130.893 	 8.51941 	 -5.98721
|  8> C 	 -129.58 	 7.42051 	 -5.78498
|  9> C 	 -128.458 	 7.98657 	 -6.38842
| 10> C 	 -128.647 	 9.26153 	 -6.94499
| 11> C 	 -129.893 	 9.71833 	 -6.84138
| 12> H 	 -127.866 	 9.84506 	 -7.3045
| 13> C 	 -127.185 	 7.24489 	 -6.36659
| 14> H 	 -127.196 	 6.3913 	 -7.01989
| 15> H 	 -127.222 	 6.81591 	 -5.38121
| 16> C 	 -126.002 	 8.04532 	 -6.81916
| 17> H 	 -125.103 	 7.45236 	 -6.90098
| 18> H 	 -126.266 	 8.62795 	 -7.72115
| 19> C 	 -125.587 	 9.07144 	 -5.70019
| 20> H 	 -126.347 	 9.8291 	 -5.55834
| 21> H 	 -125.401 	 8.59775 	 -4.70957
| 22> H 	 -124.652 	 9.56267 	 -5.84892
| 23> S 	 -131.026 	 11.9538 	 -5.98391
| 24> C 	 -131.061 	 13.4489 	 -7.00585
| 25> C 	 -130.588 	 13.172 	 -8.26439
| 26> C 	 -130.147 	 11.7778 	 -8.46037
| 27> C 	 -130.392 	 11.0259 	 -7.32871
| 28> H 	 -130.436 	 13.866 	 -9.01475
| 29> C 	 -129.488 	 11.32 	 -9.73912
| 30> H 	 -128.531 	 10.7638 	 -9.47875
| 31> H 	 -129.123 	 12.2522 	 -10.2275
| 32> C 	 -130.364 	 10.4432 	 -10.6153
| 33> H 	 -130.455 	 9.50077 	 -10.1635
| 34> H 	 -129.723 	 10.3525 	 -11.5052
| 35> C 	 -131.712 	 10.9477 	 -10.9545
| 36> H 	 -132.334 	 10.1235 	 -11.3941
| 37> H 	 -131.698 	 11.7284 	 -11.7679
| 38> H 	 -132.209 	 11.2108 	 -10.0293
| 39> H 	 -129.557 	 6.39791 	 -5.30189
| 40> H 	 -131.219 	 14.4443 	 -6.60266
| 41> *
| 42>
| 43>                          ****END OF INPUT****

CARTESIAN COORDINATES (ANGSTROEM)
---------------------------------
  S    -130.893000    8.519410   -5.987210
  C    -129.580000    7.420510   -5.784980
  C    -128.458000    7.986570   -6.388420
  C    -128.647000    9.261530   -6.944990
  C    -129.893000    9.718330   -6.841380
  H    -127.866000    9.845060   -7.304500
  C    -127.185000    7.244890   -6.366590
  H    -127.196000    6.391300   -7.019890
  H    -127.222000    6.815910   -5.381210
  C    -126.002000    8.045320   -6.819160
  H    -125.103000    7.452360   -6.900980
  H    -126.266000    8.627950   -7.721150
  C    -125.587000    9.071440   -5.700190
  H    -126.347000    9.829100   -5.558340
  H    -125.401000    8.597750   -4.709570
  H    -124.652000    9.562670   -5.848920
  S    -131.026000   11.953800   -5.983910
  C    -131.061000   13.448900   -7.005850
  C    -130.588000   13.172000   -8.264390
  C    -130.147000   11.777800   -8.460370
  C    -130.392000   11.025900   -7.328710
  H    -130.436000   13.866000   -9.014750
  C    -129.488000   11.320000   -9.739120
  H    -128.531000   10.763800   -9.478750
  H    -129.123000   12.252200  -10.227500
  C    -130.364000   10.443200  -10.615300
  H    -130.455000    9.500770  -10.163500
  H    -129.723000   10.352500  -11.505200
  C    -131.712000   10.947700  -10.954500
  H    -132.334000   10.123500  -11.394100
  H    -131.698000   11.728400  -11.767900
  H    -132.209000   11.210800  -10.029300
  H    -129.557000    6.397910   -5.301890
  H    -131.219000   14.444300   -6.602660

 Total Charge           Charge          ....    0
 Multiplicity           Mult            ....    1
 Number of Electrons    NEL             ....  134
 Basis Dimension        Dim             ....  322

ORBITAL ENERGIES
----------------

  NO   OCC          E(Eh)            E(eV)
   0   2.0000     -88.965001     -2420.8608
   1   2.0000     -88.963400     -2420.8172
   2   2.0000     -10.328882      -281.0632
   3   2.0000     -10.328348      -281.0486
   4   2.0000     -10.323286      -280.9109
   5   2.0000     -10.313725      -280.6507
   6   2.0000     -10.306873      -280.4643
   7   2.0000     -10.298393      -280.2335
   8   2.0000     -10.295865      -280.1647
   9   2.0000     -10.292443      -280.0716
  10   2.0000     -10.290173      -280.0098
  11   2.0000     -10.282165      -279.7919
  12   2.0000     -10.280458      -279.7455
  13   2.0000     -10.276935      -279.6496
  14   2.0000     -10.276163      -279.6286
  15   2.0000     -10.273338      -279.5517
  16   2.0000      -8.079465      -219.8534
  17   2.0000      -8.077478      -219.7993
  18   2.0000      -6.038047      -164.3036
  19   2.0000      -6.036246      -164.2546
  20   2.0000      -6.033866      -164.1898
  21   2.0000      -6.032065      -164.1408
  22   2.0000      -6.030303      -164.0929
  23   2.0000      -6.027991      -164.0300
  24   2.0000      -1.008963       -27.4553
  25   2.0000      -0.982391       -26.7322
  26   2.0000      -0.919319       -25.0159
  27   2.0000      -0.914310       -24.8796
  28   2.0000      -0.872019       -23.7288
  29   2.0000      -0.849366       -23.1124
  30   2.0000      -0.841062       -22.8865
  31   2.0000      -0.824167       -22.4267
  32   2.0000      -0.782067       -21.2811
  33   2.0000      -0.770557       -20.9679
  34   2.0000      -0.715032       -19.4570
  35   2.0000      -0.695332       -18.9210
  36   2.0000      -0.682389       -18.5688
  37   2.0000      -0.669539       -18.2191
  38   2.0000      -0.640307       -17.4236
  39   2.0000      -0.635160       -17.2836
  40   2.0000      -0.593114       -16.1395
  41   2.0000      -0.565490       -15.3878
  42   2.0000      -0.559629       -15.2283
  43   2.0000      -0.552957       -15.0467
  44   2.0000      -0.547810       -14.9067
  45   2.0000      -0.540709       -14.7134
  46   2.0000      -0.521279       -14.1847
  47   2.0000      -0.517833       -14.0909
  48   2.0000      -0.504455       -13.7269
  49   2.0000      -0.493515       -13.4292
  50   2.0000      -0.491469       -13.3736
  51   2.0000      -0.481468       -13.1014
  52   2.0000      -0.471952       -12.8425
  53   2.0000      -0.461777       -12.5656
  54   2.0000      -0.460917       -12.5422
  55   2.0000      -0.448645       -12.2082
  56   2.0000      -0.440068       -11.9749
  57   2.0000      -0.435628       -11.8540
  58   2.0000      -0.431300       -11.7363
  59   2.0000      -0.420929       -11.4540
  60   2.0000      -0.417040       -11.3482
  61   2.0000      -0.412773       -11.2321
  62   2.0000      -0.410887       -11.1808
  63   2.0000      -0.353146        -9.6096
  64   2.0000      -0.330496        -8.9933
  65   2.0000      -0.323796        -8.8109
  66   2.0000      -0.292831        -7.9683
  67   0.0000       0.032134         0.8744
  68   0.0000       0.065571         1.7843
  69   0.0000       0.103193         2.8080
  70   0.0000       0.121186         3.2976
  71   0.0000       0.134709         3.6656

MULLIKEN ATOMIC CHARGES
-----------------------
   0 S :    0.111786
   1 C :   -0.145548
   2 C :   -0.128363
   3 C :    0.043760
   4 C :   -0.128012
   5 H :   -0.009645
   6 C :    0.108623
   7 H :    0.032518
   8 H :    0.020058
   9 C :   -0.079027
  10 H :    0.031548
  11 H :    0.043355
  12 C :   -0.072821
  13 H :    0.035452
  14 H :    0.025554
  15 H :    0.023025
  16 S :    0.083097
  17 C :   -0.083991
  18 C :    0.011716
  19 C :   -0.102773
  20 C :   -0.132259
  21 H :   -0.008472
  22 C :    0.052003
  23 H :    0.034795
  24 H :    0.018858
  25 C :   -0.032941
  26 H :    0.027600
  27 H :    0.025405
  28 C :   -0.062828
  29 H :    0.035651
  30 H :    0.035749
  31 H :    0.049364
  32 H :    0.071270
  33 H :    0.065494
Sum of atomic charges:    0.0000000

LOEWDIN ATOMIC CHARGES
----------------------
   0 S :    0.403296
   1 C :   -0.222750
   2 C :   -0.062573
   3 C :   -0.068114
   4 C :   -0.184751
   5 H :    0.022019
   6 C :   -0.038596
   7 H :    0.032671
   8 H :    0.033259
   9 C :   -0.037200
  10 H :    0.027211
  11 H :    0.029388
  12 C :   -0.070705
  13 H :    0.020213
  14 H :    0.028167
  15 H :    0.018117
  16 S :    0.381244
  17 C :   -0.164827
  18 C :   -0.055870
  19 C :   -0.058709
  20 C :   -0.189980
  21 H :    0.017655
  22 C :   -0.037025
  23 H :    0.038690
  24 H :    0.030221
  25 C :   -0.041571
  26 H :    0.022497
  27 H :    0.027848
  28 C :   -0.070825
  29 H :    0.033634
  30 H :    0.029325
  31 H :    0.028155
  32 H :    0.047604
  33 H :    0.032284

  Mayer bond orders larger than 0.100000
B(  0-S ,  1-C ) :   1.1344 B(  0-S ,  4-C ) :   1.1552 B(  1-C ,  2-C ) :   1.5994
B(  1-C ,  4-C ) :   0.1006 B(  1-C , 32-H ) :   0.9633 B(  2-C ,  3-C ) :   1.2633
B(  2-C ,  6-C ) :   1.0025 B(  3-C ,  4-C ) :   1.5715 B(  3-C ,  5-H ) :   0.9984
B(  4-C , 20-C ) :   0.9891 B(  6-C ,  7-H ) :   0.9256 B(  6-C ,  8-H ) :   0.9372
B(  6-C ,  9-C ) :   1.0883 B(  9-C , 10-H ) :   0.9532 B(  9-C , 11-H ) :   0.9460
B(  9-C , 12-C ) :   1.0723 B( 12-C , 13-H ) :   0.9772 B( 12-C , 14-H ) :   0.9731
B( 12-C , 15-H ) :   0.9770 B( 16-S , 17-C ) :   1.1268 B( 16-S , 20-C ) :   1.1413
B( 17-C , 18-C ) :   1.6326 B( 17-C , 33-H ) :   0.9692 B( 18-C , 19-C ) :   1.2089
B( 18-C , 21-H ) :   0.9958 B( 19-C , 20-C ) :   1.6346 B( 19-C , 22-C ) :   1.0369
B( 22-C , 23-H ) :   0.9334 B( 22-C , 24-H ) :   0.9307 B( 22-C , 25-C ) :   1.0703
B( 25-C , 26-H ) :   0.9525 B( 25-C , 27-H ) :   0.9512 B( 25-C , 28-C ) :   1.0941
B( 28-C , 29-H ) :   0.9698 B( 28-C , 30-H ) :   0.9736 B( 28-C , 31-H ) :   0.9663

Dispersion correction           -0.014913051
FINAL SINGLE POINT ENERGY     -1339.864335887699

DIPOLE MOMENT
-------------
                                X             Y             Z
Electronic contribution:    -16.18288       3.67270      13.95201
Nuclear contribution   :     16.86164      -3.69469     -14.34051
                        -----------------------------------------
Total Dipole Moment    :      0.67875      -0.02199      -0.38850
                        -----------------------------------------
Magnitude (a.u.)       :      0.78238
Magnitude (Debye)      :      1.98866

Rotational constants in cm-1:     0.018683     0.008987     0.008265
Rotational constants in MHz :   560.091144   269.417647   247.767635

                             ****ORCA TERMINATED NORMALLY****
TOTAL RUN TIME: 0 days 0 hours 0 minutes 21 seconds 395 msec
