                         Program Version 4.2.1 -  RELEASE  -
|  1> ! wB97X-D3 SP def2-SVP
|  2> %pal
|  3> nprocs 24
|  4> end
|  5>
|  6> * xyz 0 1
|  7> S 	 -51.5047 	 16.7277 	 22.769
|  8> C 	 -49.9073 	 15.9671 	 22.4513
|  9> C 	 -49.2545 	 15.5877 	 23.595
| 10> C 	 -50.0523 	 15.7882 	 24.7883
| 11> C 	 -51.2184 	 16.5223 	 24.5238
| 12> H 	 -49.7097 	 15.6223 	 25.8647
| 13> C 	 -47.8876 	 14.992 	 23.7169
| 14> H 	 -47.448 	 14.9163 	 22.6953
| 15> H 	 -48.0696 	 13.9477 	 24.035
| 16> C 	 -47.032 	 15.7774 	 24.7675
| 17> H 	 -47.6504 	 16.1264 	 25.565
| 18> H 	 -46.3665 	 15.0455 	 25.2645
| 19> C 	 -46.3324 	 16.9021 	 24.2095
| 20> H 	 -47.0227 	 17.7761 	 24.1861
| 21> H 	 -45.5005 	 17.3207 	 24.7657
| 22> H 	 -45.8672 	 16.7376 	 23.1989
| 23> S 	 -53.1071 	 18.589 	 25.1
| 24> C 	 -54.1232 	 18.4905 	 26.5413
| 25> C 	 -53.5788 	 17.6238 	 27.4538
| 26> C 	 -52.486 	 16.8271 	 26.846
| 27> C 	 -52.2329 	 17.0842 	 25.4797
| 28> H 	 -54.03 	 17.5734 	 28.4845
| 29> C 	 -51.941 	 15.7064 	 27.7179
| 30> H 	 -51.6397 	 14.9303 	 26.9448
| 31> H 	 -52.6939 	 15.1096 	 28.3101
| 32> C 	 -50.7177 	 16.0076 	 28.6417
| 33> H 	 -51.0316 	 16.553 	 29.5796
| 34> H 	 -49.9359 	 16.5777 	 28.0915
| 35> C 	 -50.0197 	 14.8148 	 29.3073
| 36> H 	 -50.6344 	 14.4033 	 30.0995
| 37> H 	 -49.0623 	 15.1025 	 29.7414
| 38> H 	 -49.7684 	 14.0781 	 28.5646
| 39> H 	 -49.3873 	 15.9479 	 21.466
| 40> H 	 -55.1105 	 18.9609 	 26.6546
| 41> *
| 42>
| 43>                          ****END OF INPUT****

CARTESIAN COORDINATES (ANGSTROEM)
---------------------------------
  S    -51.504700   16.727700   22.769000
  C    -49.907300   15.967100   22.451300
  C    -49.254500   15.587700   23.595000
  C    -50.052300   15.788200   24.788300
  C    -51.218400   16.522300   24.523800
  H    -49.709700   15.622300   25.864700
  C    -47.887600   14.992000   23.716900
  H    -47.448000   14.916300   22.695300
  H    -48.069600   13.947700   24.035000
  C    -47.032000   15.777400   24.767500
  H    -47.650400   16.126400   25.565000
  H    -46.366500   15.045500   25.264500
  C    -46.332400   16.902100   24.209500
  H    -47.022700   17.776100   24.186100
  H    -45.500500   17.320700   24.765700
  H    -45.867200   16.737600   23.198900
  S    -53.107100   18.589000   25.100000
  C    -54.123200   18.490500   26.541300
  C    -53.578800   17.623800   27.453800
  C    -52.486000   16.827100   26.846000
  C    -52.232900   17.084200   25.479700
  H    -54.030000   17.573400   28.484500
  C    -51.941000   15.706400   27.717900
  H    -51.639700   14.930300   26.944800
  H    -52.693900   15.109600   28.310100
  C    -50.717700   16.007600   28.641700
  H    -51.031600   16.553000   29.579600
  H    -49.935900   16.577700   28.091500
  C    -50.019700   14.814800   29.307300
  H    -50.634400   14.403300   30.099500
  H    -49.062300   15.102500   29.741400
  H    -49.768400   14.078100   28.564600
  H    -49.387300   15.947900   21.466000
  H    -55.110500   18.960900   26.654600

 Total Charge           Charge          ....    0
 Multiplicity           Mult            ....    1
 Number of Electrons    NEL             ....  134
 Basis Dimension        Dim             ....  322

ORBITAL ENERGIES
----------------

  NO   OCC          E(Eh)            E(eV)
   0   2.0000     -88.969863     -2420.9931
   1   2.0000     -88.963109     -2420.8093
   2   2.0000     -10.345349      -281.5113
   3   2.0000     -10.340845      -281.3887
   4   2.0000     -10.320805      -280.8434
   5   2.0000     -10.319698      -280.8133
   6   2.0000     -10.315418      -280.6968
   7   2.0000     -10.307741      -280.4879
   8   2.0000     -10.304248      -280.3928
   9   2.0000     -10.303037      -280.3599
  10   2.0000     -10.302147      -280.3357
  11   2.0000     -10.299659      -280.2680
  12   2.0000     -10.296537      -280.1830
  13   2.0000     -10.286008      -279.8965
  14   2.0000     -10.278377      -279.6888
  15   2.0000     -10.276266      -279.6314
  16   2.0000      -8.083072      -219.9516
  17   2.0000      -8.077332      -219.7954
  18   2.0000      -6.041824      -164.4064
  19   2.0000      -6.037962      -164.3013
  20   2.0000      -6.036109      -164.2509
  21   2.0000      -6.033480      -164.1793
  22   2.0000      -6.032031      -164.1399
  23   2.0000      -6.027699      -164.0220
  24   2.0000      -0.996768       -27.1234
  25   2.0000      -0.977363       -26.5954
  26   2.0000      -0.918983       -25.0068
  27   2.0000      -0.901854       -24.5407
  28   2.0000      -0.869196       -23.6520
  29   2.0000      -0.850905       -23.1543
  30   2.0000      -0.843092       -22.9417
  31   2.0000      -0.815836       -22.2000
  32   2.0000      -0.780377       -21.2351
  33   2.0000      -0.769432       -20.9373
  34   2.0000      -0.709641       -19.3103
  35   2.0000      -0.694749       -18.9051
  36   2.0000      -0.686661       -18.6850
  37   2.0000      -0.654398       -17.8071
  38   2.0000      -0.633797       -17.2465
  39   2.0000      -0.619396       -16.8546
  40   2.0000      -0.590423       -16.0662
  41   2.0000      -0.570868       -15.5341
  42   2.0000      -0.567402       -15.4398
  43   2.0000      -0.558136       -15.1876
  44   2.0000      -0.535734       -14.5781
  45   2.0000      -0.521245       -14.1838
  46   2.0000      -0.518643       -14.1130
  47   2.0000      -0.513368       -13.9694
  48   2.0000      -0.503518       -13.7014
  49   2.0000      -0.495128       -13.4731
  50   2.0000      -0.489956       -13.3324
  51   2.0000      -0.487146       -13.2559
  52   2.0000      -0.469855       -12.7854
  53   2.0000      -0.461986       -12.5713
  54   2.0000      -0.454895       -12.3783
  55   2.0000      -0.450422       -12.2566
  56   2.0000      -0.442411       -12.0386
  57   2.0000      -0.439412       -11.9570
  58   2.0000      -0.430183       -11.7059
  59   2.0000      -0.426274       -11.5995
  60   2.0000      -0.417931       -11.3725
  61   2.0000      -0.407523       -11.0893
  62   2.0000      -0.403919       -10.9912
  63   2.0000      -0.355145        -9.6640
  64   2.0000      -0.331298        -9.0151
  65   2.0000      -0.325033        -8.8446
  66   2.0000      -0.289319        -7.8728
  67   0.0000       0.013841         0.3766
  68   0.0000       0.079214         2.1555
  69   0.0000       0.095236         2.5915
  70   0.0000       0.112914         3.0725
  71   0.0000       0.120538         3.2800

MULLIKEN ATOMIC CHARGES
-----------------------
   0 S :    0.096922
   1 C :   -0.124879
   2 C :   -0.106224
   3 C :   -0.014031
   4 C :   -0.136831
   5 H :    0.043539
   6 C :    0.057475
   7 H :    0.025886
   8 H :    0.045314
   9 C :   -0.048201
  10 H :    0.020711
  11 H :    0.025234
  12 C :   -0.053995
  13 H :    0.038576
  14 H :    0.027563
  15 H :    0.032470
  16 S :    0.079965
  17 C :   -0.108417
  18 C :   -0.031036
  19 C :   -0.049243
  20 C :   -0.081311
  21 H :    0.048820
  22 C :   -0.015624
  23 H :    0.029077
  24 H :    0.037859
  25 C :   -0.099332
  26 H :    0.038207
  27 H :    0.039390
  28 C :   -0.042435
  29 H :    0.035479
  30 H :    0.034171
  31 H :    0.019917
  32 H :    0.059811
  33 H :    0.075170
Sum of atomic charges:   -0.0000000

LOEWDIN ATOMIC CHARGES
----------------------
   0 S :    0.369492
   1 C :   -0.193543
   2 C :   -0.064986
   3 C :   -0.072782
   4 C :   -0.167879
   5 H :    0.042888
   6 C :   -0.027930
   7 H :    0.032389
   8 H :    0.039559
   9 C :   -0.044081
  10 H :    0.023148
  11 H :    0.025578
  12 C :   -0.074087
  13 H :    0.034378
  14 H :    0.026500
  15 H :    0.028945
  16 S :    0.372966
  17 C :   -0.181221
  18 C :   -0.074467
  19 C :   -0.057190
  20 C :   -0.187666
  21 H :    0.045490
  22 C :   -0.051521
  23 H :    0.033754
  24 H :    0.035273
  25 C :   -0.049950
  26 H :    0.031399
  27 H :    0.023750
  28 C :   -0.064769
  29 H :    0.024050
  30 H :    0.029255
  31 H :    0.017321
  32 H :    0.037531
  33 H :    0.038404

  Mayer bond orders larger than 0.100000
B(  0-S ,  1-C ) :   1.0994 B(  0-S ,  4-C ) :   1.1388 B(  1-C ,  2-C ) :   1.6713
B(  1-C , 32-H ) :   0.9552 B(  2-C ,  3-C ) :   1.2006 B(  2-C ,  6-C ) :   1.0243
B(  3-C ,  4-C ) :   1.6082 B(  3-C ,  5-H ) :   0.9627 B(  4-C , 20-C ) :   1.0517
B(  6-C ,  7-H ) :   0.9478 B(  6-C ,  8-H ) :   0.9341 B(  6-C ,  9-C ) :   1.0530
B(  9-C , 10-H ) :   0.9560 B(  9-C , 11-H ) :   0.9516 B(  9-C , 12-C ) :   1.0857
B( 12-C , 13-H ) :   0.9712 B( 12-C , 14-H ) :   0.9684 B( 12-C , 15-H ) :   0.9738
B( 16-S , 17-C ) :   1.1369 B( 16-S , 20-C ) :   1.1129 B( 17-C , 18-C ) :   1.6398
B( 17-C , 33-H ) :   0.9625 B( 18-C , 19-C ) :   1.2045 B( 18-C , 21-H ) :   0.9835
B( 19-C , 20-C ) :   1.6061 B( 19-C , 22-C ) :   1.0413 B( 22-C , 23-H ) :   0.9398
B( 22-C , 24-H ) :   0.9461 B( 22-C , 25-C ) :   1.0507 B( 25-C , 26-H ) :   0.9562
B( 25-C , 27-H ) :   0.9555 B( 25-C , 28-C ) :   1.0809 B( 28-C , 29-H ) :   0.9777
B( 28-C , 30-H ) :   0.9732 B( 28-C , 31-H ) :   0.9742

Dispersion correction           -0.014312347
FINAL SINGLE POINT ENERGY     -1339.857001469345

DIPOLE MOMENT
-------------
                                X             Y             Z
Electronic contribution:    -22.98689      11.33479     -16.44324
Nuclear contribution   :     23.44193     -11.65059      17.01433
                        -----------------------------------------
Total Dipole Moment    :      0.45504      -0.31579       0.57109
                        -----------------------------------------
Magnitude (a.u.)       :      0.79557
Magnitude (Debye)      :      2.02218

Rotational constants in cm-1:     0.016133     0.009987     0.006915
Rotational constants in MHz :   483.650711   299.413350   207.301052

                             ****ORCA TERMINATED NORMALLY****
TOTAL RUN TIME: 0 days 0 hours 0 minutes 21 seconds 867 msec
