                         Program Version 4.2.1 -  RELEASE  -
|  1> ! wB97X-D3 SP def2-SVP
|  2> %pal
|  3> nprocs 24
|  4> end
|  5>
|  6> * xyz 0 1
|  7> S 	 -54.919 	 4.69493 	 -29.8118
|  8> C 	 -56.6751 	 5.09308 	 -29.759
|  9> C 	 -56.8656 	 6.43221 	 -29.8909
| 10> C 	 -55.7208 	 7.10521 	 -30.3372
| 11> C 	 -54.6696 	 6.26246 	 -30.5649
| 12> H 	 -55.6627 	 8.15086 	 -30.7688
| 13> C 	 -58.2034 	 7.14122 	 -29.6258
| 14> H 	 -59.0314 	 6.39791 	 -29.689
| 15> H 	 -58.3557 	 7.8333 	 -30.461
| 16> C 	 -58.3234 	 7.94074 	 -28.33
| 17> H 	 -58.4958 	 7.26478 	 -27.4321
| 18> H 	 -57.3806 	 8.49682 	 -28.0949
| 19> C 	 -59.5616 	 8.71324 	 -28.1673
| 20> H 	 -60.4251 	 7.99615 	 -28.1255
| 21> H 	 -59.5665 	 9.28634 	 -27.2152
| 22> H 	 -59.6124 	 9.41806 	 -28.8991
| 23> S 	 -51.938 	 6.25737 	 -30.4019
| 24> C 	 -51.0154 	 6.79622 	 -31.8059
| 25> C 	 -51.8167 	 7.33498 	 -32.7881
| 26> C 	 -53.1869 	 7.11107 	 -32.4489
| 27> C 	 -53.4123 	 6.59647 	 -31.1647
| 28> H 	 -51.3477 	 7.77945 	 -33.6914
| 29> C 	 -54.2305 	 7.43807 	 -33.4912
| 30> H 	 -53.8923 	 8.1847 	 -34.2298
| 31> H 	 -55.0527 	 8.07645 	 -33.0814
| 32> C 	 -54.8644 	 6.26885 	 -34.1529
| 33> H 	 -55.5707 	 6.69836 	 -34.8771
| 34> H 	 -55.5174 	 5.6799 	 -33.4655
| 35> C 	 -53.8555 	 5.23829 	 -34.7914
| 36> H 	 -53.4295 	 4.55053 	 -33.9776
| 37> H 	 -53.0531 	 5.68373 	 -35.4066
| 38> H 	 -54.2813 	 4.62096 	 -35.4998
| 39> H 	 -57.4058 	 4.44132 	 -29.3722
| 40> H 	 -49.9715 	 6.83477 	 -31.9772
| 41> *
| 42>
| 43>                          ****END OF INPUT****

CARTESIAN COORDINATES (ANGSTROEM)
---------------------------------
  S    -54.919000    4.694930  -29.811800
  C    -56.675100    5.093080  -29.759000
  C    -56.865600    6.432210  -29.890900
  C    -55.720800    7.105210  -30.337200
  C    -54.669600    6.262460  -30.564900
  H    -55.662700    8.150860  -30.768800
  C    -58.203400    7.141220  -29.625800
  H    -59.031400    6.397910  -29.689000
  H    -58.355700    7.833300  -30.461000
  C    -58.323400    7.940740  -28.330000
  H    -58.495800    7.264780  -27.432100
  H    -57.380600    8.496820  -28.094900
  C    -59.561600    8.713240  -28.167300
  H    -60.425100    7.996150  -28.125500
  H    -59.566500    9.286340  -27.215200
  H    -59.612400    9.418060  -28.899100
  S    -51.938000    6.257370  -30.401900
  C    -51.015400    6.796220  -31.805900
  C    -51.816700    7.334980  -32.788100
  C    -53.186900    7.111070  -32.448900
  C    -53.412300    6.596470  -31.164700
  H    -51.347700    7.779450  -33.691400
  C    -54.230500    7.438070  -33.491200
  H    -53.892300    8.184700  -34.229800
  H    -55.052700    8.076450  -33.081400
  C    -54.864400    6.268850  -34.152900
  H    -55.570700    6.698360  -34.877100
  H    -55.517400    5.679900  -33.465500
  C    -53.855500    5.238290  -34.791400
  H    -53.429500    4.550530  -33.977600
  H    -53.053100    5.683730  -35.406600
  H    -54.281300    4.620960  -35.499800
  H    -57.405800    4.441320  -29.372200
  H    -49.971500    6.834770  -31.977200

 Total Charge           Charge          ....    0
 Multiplicity           Mult            ....    1
 Number of Electrons    NEL             ....  134
 Basis Dimension        Dim             ....  322

ORBITAL ENERGIES
----------------

  NO   OCC          E(Eh)            E(eV)
   0   2.0000     -88.969240     -2420.9761
   1   2.0000     -88.964775     -2420.8546
   2   2.0000     -10.327463      -281.0246
   3   2.0000     -10.320442      -280.8335
   4   2.0000     -10.313118      -280.6342
   5   2.0000     -10.311426      -280.5882
   6   2.0000     -10.300940      -280.3028
   7   2.0000     -10.300541      -280.2920
   8   2.0000     -10.298556      -280.2380
   9   2.0000     -10.294762      -280.1347
  10   2.0000     -10.294729      -280.1338
  11   2.0000     -10.288014      -279.9511
  12   2.0000     -10.287029      -279.9243
  13   2.0000     -10.284770      -279.8628
  14   2.0000     -10.274071      -279.5717
  15   2.0000     -10.273336      -279.5517
  16   2.0000      -8.084367      -219.9868
  17   2.0000      -8.079060      -219.8424
  18   2.0000      -6.042910      -164.4359
  19   2.0000      -6.038767      -164.3232
  20   2.0000      -6.037556      -164.2902
  21   2.0000      -6.035133      -164.2243
  22   2.0000      -6.034073      -164.1955
  23   2.0000      -6.029404      -164.0684
  24   2.0000      -1.012667       -27.5561
  25   2.0000      -0.987473       -26.8705
  26   2.0000      -0.916788       -24.9471
  27   2.0000      -0.906624       -24.6705
  28   2.0000      -0.878483       -23.9047
  29   2.0000      -0.850236       -23.1361
  30   2.0000      -0.842023       -22.9126
  31   2.0000      -0.816031       -22.2053
  32   2.0000      -0.785226       -21.3671
  33   2.0000      -0.773801       -21.0562
  34   2.0000      -0.713178       -19.4066
  35   2.0000      -0.690701       -18.7949
  36   2.0000      -0.685373       -18.6499
  37   2.0000      -0.660480       -17.9726
  38   2.0000      -0.641346       -17.4519
  39   2.0000      -0.619818       -16.8661
  40   2.0000      -0.594004       -16.1637
  41   2.0000      -0.574037       -15.6203
  42   2.0000      -0.568764       -15.4769
  43   2.0000      -0.543754       -14.7963
  44   2.0000      -0.537458       -14.6250
  45   2.0000      -0.523559       -14.2468
  46   2.0000      -0.523218       -14.2375
  47   2.0000      -0.512421       -13.9437
  48   2.0000      -0.506518       -13.7830
  49   2.0000      -0.500396       -13.6165
  50   2.0000      -0.484535       -13.1849
  51   2.0000      -0.478339       -13.0163
  52   2.0000      -0.470811       -12.8114
  53   2.0000      -0.464219       -12.6320
  54   2.0000      -0.461256       -12.5514
  55   2.0000      -0.452416       -12.3109
  56   2.0000      -0.441745       -12.0205
  57   2.0000      -0.436542       -11.8789
  58   2.0000      -0.429401       -11.6846
  59   2.0000      -0.426139       -11.5958
  60   2.0000      -0.411460       -11.1964
  61   2.0000      -0.405545       -11.0354
  62   2.0000      -0.402670       -10.9572
  63   2.0000      -0.347375        -9.4526
  64   2.0000      -0.334030        -9.0894
  65   2.0000      -0.330767        -9.0006
  66   2.0000      -0.289825        -7.8865
  67   0.0000       0.026390         0.7181
  68   0.0000       0.066016         1.7964
  69   0.0000       0.098983         2.6935
  70   0.0000       0.121018         3.2931
  71   0.0000       0.136965         3.7270

MULLIKEN ATOMIC CHARGES
-----------------------
   0 S :    0.094618
   1 C :   -0.098329
   2 C :   -0.064693
   3 C :    0.021343
   4 C :   -0.162805
   5 H :    0.041566
   6 C :    0.067890
   7 H :    0.021042
   8 H :    0.021234
   9 C :   -0.111474
  10 H :    0.026908
  11 H :    0.040051
  12 C :   -0.008133
  13 H :    0.036465
  14 H :    0.036496
  15 H :    0.003367
  16 S :    0.122370
  17 C :   -0.078232
  18 C :   -0.050774
  19 C :   -0.040679
  20 C :   -0.142328
  21 H :    0.039895
  22 C :    0.055976
  23 H :    0.016527
  24 H :    0.014494
  25 C :   -0.072923
  26 H :    0.025126
  27 H :    0.044603
  28 C :   -0.054828
  29 H :    0.058432
  30 H :    0.021547
  31 H :    0.011826
  32 H :    0.027258
  33 H :    0.036164
Sum of atomic charges:   -0.0000000

LOEWDIN ATOMIC CHARGES
----------------------
   0 S :    0.370969
   1 C :   -0.169111
   2 C :   -0.061137
   3 C :   -0.067802
   4 C :   -0.178891
   5 H :    0.044632
   6 C :   -0.029548
   7 H :    0.032167
   8 H :    0.027943
   9 C :   -0.055686
  10 H :    0.031591
  11 H :    0.027846
  12 C :   -0.058678
  13 H :    0.032370
  14 H :    0.034674
  15 H :    0.004058
  16 S :    0.428339
  17 C :   -0.180933
  18 C :   -0.068933
  19 C :   -0.054950
  20 C :   -0.226133
  21 H :    0.042702
  22 C :   -0.046700
  23 H :    0.031097
  24 H :    0.031193
  25 C :   -0.041940
  26 H :    0.024616
  27 H :    0.030879
  28 C :   -0.072841
  29 H :    0.040639
  30 H :    0.024027
  31 H :    0.012965
  32 H :    0.017093
  33 H :    0.023480

  Mayer bond orders larger than 0.100000
B(  0-S ,  1-C ) :   1.1066 B(  0-S ,  4-C ) :   1.1311 B(  1-C ,  2-C ) :   1.6552
B(  1-C ,  4-C ) :   0.1018 B(  1-C , 32-H ) :   0.9723 B(  2-C ,  3-C ) :   1.2109
B(  2-C ,  6-C ) :   1.0190 B(  3-C ,  4-C ) :   1.6046 B(  3-C ,  5-H ) :   0.9805
B(  4-C , 20-C ) :   1.0596 B(  6-C ,  7-H ) :   0.9392 B(  6-C ,  8-H ) :   0.9408
B(  6-C ,  9-C ) :   1.0625 B(  9-C , 10-H ) :   0.9571 B(  9-C , 11-H ) :   0.9548
B(  9-C , 12-C ) :   1.0823 B( 12-C , 13-H ) :   0.9743 B( 12-C , 14-H ) :   0.9697
B( 12-C , 15-H ) :   0.9722 B( 16-S , 17-C ) :   1.1527 B( 16-S , 20-C ) :   1.1419
B( 17-C , 18-C ) :   1.6197 B( 17-C , 33-H ) :   0.9669 B( 18-C , 19-C ) :   1.2498
B( 18-C , 21-H ) :   0.9840 B( 19-C , 20-C ) :   1.5752 B( 19-C , 22-C ) :   1.0424
B( 22-C , 23-H ) :   0.9341 B( 22-C , 24-H ) :   0.9262 B( 22-C , 25-C ) :   1.0863
B( 25-C , 26-H ) :   0.9537 B( 25-C , 27-H ) :   0.9550 B( 25-C , 28-C ) :   1.0644
B( 28-C , 29-H ) :   0.9724 B( 28-C , 30-H ) :   0.9760 B( 28-C , 31-H ) :   0.9748

Dispersion correction           -0.014967980
FINAL SINGLE POINT ENERGY     -1339.855379787367

DIPOLE MOMENT
-------------
                                X             Y             Z
Electronic contribution:     20.24499      -9.47316       8.11508
Nuclear contribution   :    -20.63786       9.90898      -8.41545
                        -----------------------------------------
Total Dipole Moment    :     -0.39286       0.43583      -0.30037
                        -----------------------------------------
Magnitude (a.u.)       :      0.65917
Magnitude (Debye)      :      1.67548

Rotational constants in cm-1:     0.022078     0.007746     0.007092
Rotational constants in MHz :   661.870208   232.233569   212.606711

                             ****ORCA TERMINATED NORMALLY****
TOTAL RUN TIME: 0 days 0 hours 0 minutes 22 seconds 245 msec
