                         Program Version 4.2.1 -  RELEASE  -
|  1> ! wB97X-D3 SP def2-SVP
|  2> %pal
|  3> nprocs 24
|  4> end
|  5>
|  6> * xyz 0 1
|  7> S 	 -128.017 	 28.235 	 -113.889
|  8> C 	 -127.292 	 27.0737 	 -115.056
|  9> C 	 -126.016 	 27.4478 	 -115.433
| 10> C 	 -125.697 	 28.7409 	 -114.906
| 11> C 	 -126.642 	 29.2972 	 -114.121
| 12> H 	 -124.867 	 29.4031 	 -115.233
| 13> C 	 -125.199 	 26.6671 	 -116.439
| 14> H 	 -124.489 	 27.2871 	 -116.934
| 15> H 	 -125.939 	 26.3307 	 -117.23
| 16> C 	 -124.53 	 25.5298 	 -115.837
| 17> H 	 -125.34 	 24.9959 	 -115.328
| 18> H 	 -124.026 	 24.9412 	 -116.644
| 19> C 	 -123.559 	 25.8799 	 -114.732
| 20> H 	 -122.901 	 26.7657 	 -114.908
| 21> H 	 -124.193 	 26.0836 	 -113.916
| 22> H 	 -122.991 	 25.0096 	 -114.366
| 23> S 	 -126.468 	 32.0572 	 -114.393
| 24> C 	 -126.59 	 33.0435 	 -112.969
| 25> C 	 -126.751 	 32.2971 	 -111.831
| 26> C 	 -126.65 	 30.872 	 -112.057
| 27> C 	 -126.56 	 30.5764 	 -113.424
| 28> H 	 -126.909 	 32.7775 	 -110.905
| 29> C 	 -126.777 	 29.8658 	 -110.922
| 30> H 	 -126.309 	 28.9312 	 -111.129
| 31> H 	 -127.84 	 29.7089 	 -110.872
| 32> C 	 -126.191 	 30.1998 	 -109.633
| 33> H 	 -126.553 	 31.1903 	 -109.363
| 34> H 	 -125.123 	 30.2813 	 -109.711
| 35> C 	 -126.558 	 29.22 	 -108.587
| 36> H 	 -127.547 	 29.1677 	 -108.331
| 37> H 	 -126.055 	 29.3776 	 -107.612
| 38> H 	 -126.429 	 28.1572 	 -108.86
| 39> H 	 -127.722 	 26.0512 	 -115.188
| 40> H 	 -126.25 	 34.0871 	 -113.049
| 41> *
| 42>
| 43>                          ****END OF INPUT****

CARTESIAN COORDINATES (ANGSTROEM)
---------------------------------
  S    -128.017000   28.235000  -113.889000
  C    -127.292000   27.073700  -115.056000
  C    -126.016000   27.447800  -115.433000
  C    -125.697000   28.740900  -114.906000
  C    -126.642000   29.297200  -114.121000
  H    -124.867000   29.403100  -115.233000
  C    -125.199000   26.667100  -116.439000
  H    -124.489000   27.287100  -116.934000
  H    -125.939000   26.330700  -117.230000
  C    -124.530000   25.529800  -115.837000
  H    -125.340000   24.995900  -115.328000
  H    -124.026000   24.941200  -116.644000
  C    -123.559000   25.879900  -114.732000
  H    -122.901000   26.765700  -114.908000
  H    -124.193000   26.083600  -113.916000
  H    -122.991000   25.009600  -114.366000
  S    -126.468000   32.057200  -114.393000
  C    -126.590000   33.043500  -112.969000
  C    -126.751000   32.297100  -111.831000
  C    -126.650000   30.872000  -112.057000
  C    -126.560000   30.576400  -113.424000
  H    -126.909000   32.777500  -110.905000
  C    -126.777000   29.865800  -110.922000
  H    -126.309000   28.931200  -111.129000
  H    -127.840000   29.708900  -110.872000
  C    -126.191000   30.199800  -109.633000
  H    -126.553000   31.190300  -109.363000
  H    -125.123000   30.281300  -109.711000
  C    -126.558000   29.220000  -108.587000
  H    -127.547000   29.167700  -108.331000
  H    -126.055000   29.377600  -107.612000
  H    -126.429000   28.157200  -108.860000
  H    -127.722000   26.051200  -115.188000
  H    -126.250000   34.087100  -113.049000

 Total Charge           Charge          ....    0
 Multiplicity           Mult            ....    1
 Number of Electrons    NEL             ....  134
 Basis Dimension        Dim             ....  322

ORBITAL ENERGIES
----------------

  NO   OCC          E(Eh)            E(eV)
   0   2.0000     -88.965795     -2420.8824
   1   2.0000     -88.962734     -2420.7991
   2   2.0000     -10.326415      -280.9960
   3   2.0000     -10.325344      -280.9669
   4   2.0000     -10.320345      -280.8309
   5   2.0000     -10.316598      -280.7289
   6   2.0000     -10.307246      -280.4744
   7   2.0000     -10.303435      -280.3707
   8   2.0000     -10.293678      -280.1052
   9   2.0000     -10.293189      -280.0919
  10   2.0000     -10.288303      -279.9590
  11   2.0000     -10.281673      -279.7785
  12   2.0000     -10.281083      -279.7625
  13   2.0000     -10.276612      -279.6408
  14   2.0000     -10.272494      -279.5288
  15   2.0000     -10.269939      -279.4592
  16   2.0000      -8.079708      -219.8600
  17   2.0000      -8.077619      -219.8032
  18   2.0000      -6.038225      -164.3085
  19   2.0000      -6.036088      -164.2503
  20   2.0000      -6.034416      -164.2048
  21   2.0000      -6.032088      -164.1415
  22   2.0000      -6.030431      -164.0964
  23   2.0000      -6.028447      -164.0424
  24   2.0000      -1.004460       -27.3328
  25   2.0000      -0.982686       -26.7402
  26   2.0000      -0.927854       -25.2482
  27   2.0000      -0.927026       -25.2257
  28   2.0000      -0.868350       -23.6290
  29   2.0000      -0.853244       -23.2180
  30   2.0000      -0.843007       -22.9394
  31   2.0000      -0.815050       -22.1786
  32   2.0000      -0.790016       -21.4974
  33   2.0000      -0.775983       -21.1156
  34   2.0000      -0.709722       -19.3125
  35   2.0000      -0.695985       -18.9387
  36   2.0000      -0.693400       -18.8684
  37   2.0000      -0.657385       -17.8884
  38   2.0000      -0.636631       -17.3236
  39   2.0000      -0.615666       -16.7531
  40   2.0000      -0.604588       -16.4517
  41   2.0000      -0.586042       -15.9470
  42   2.0000      -0.576785       -15.6951
  43   2.0000      -0.553561       -15.0632
  44   2.0000      -0.540807       -14.7161
  45   2.0000      -0.531679       -14.4677
  46   2.0000      -0.519429       -14.1344
  47   2.0000      -0.512972       -13.9587
  48   2.0000      -0.508819       -13.8457
  49   2.0000      -0.494042       -13.4436
  50   2.0000      -0.486708       -13.2440
  51   2.0000      -0.481024       -13.0893
  52   2.0000      -0.473259       -12.8780
  53   2.0000      -0.464114       -12.6292
  54   2.0000      -0.456688       -12.4271
  55   2.0000      -0.453119       -12.3300
  56   2.0000      -0.444354       -12.0915
  57   2.0000      -0.437851       -11.9145
  58   2.0000      -0.434413       -11.8210
  59   2.0000      -0.421224       -11.4621
  60   2.0000      -0.417527       -11.3615
  61   2.0000      -0.413084       -11.2406
  62   2.0000      -0.412126       -11.2145
  63   2.0000      -0.337503        -9.1839
  64   2.0000      -0.333617        -9.0782
  65   2.0000      -0.327943        -8.9238
  66   2.0000      -0.300479        -8.1764
  67   0.0000       0.031777         0.8647
  68   0.0000       0.065955         1.7947
  69   0.0000       0.108558         2.9540
  70   0.0000       0.112410         3.0588
  71   0.0000       0.123522         3.3612

MULLIKEN ATOMIC CHARGES
-----------------------
   0 S :    0.103506
   1 C :   -0.144669
   2 C :   -0.113744
   3 C :    0.024444
   4 C :   -0.156909
   5 H :    0.027355
   6 C :    0.086360
   7 H :    0.010807
   8 H :    0.045338
   9 C :   -0.067946
  10 H :    0.015932
  11 H :    0.038961
  12 C :   -0.048052
  13 H :    0.038714
  14 H :    0.023938
  15 H :    0.035618
  16 S :    0.098942
  17 C :   -0.109117
  18 C :   -0.029110
  19 C :   -0.031074
  20 C :   -0.168828
  21 H :    0.011301
  22 C :    0.080742
  23 H :    0.017457
  24 H :    0.033504
  25 C :   -0.044137
  26 H :    0.012690
  27 H :    0.028249
  28 C :   -0.014908
  29 H :   -0.001717
  30 H :    0.033283
  31 H :    0.015799
  32 H :    0.069069
  33 H :    0.078199
Sum of atomic charges:    0.0000000

LOEWDIN ATOMIC CHARGES
----------------------
   0 S :    0.384035
   1 C :   -0.187520
   2 C :   -0.061031
   3 C :   -0.067758
   4 C :   -0.192192
   5 H :    0.038697
   6 C :   -0.031968
   7 H :    0.022404
   8 H :    0.043416
   9 C :   -0.046893
  10 H :    0.025313
  11 H :    0.026363
  12 C :   -0.068359
  13 H :    0.027477
  14 H :    0.022167
  15 H :    0.030630
  16 S :    0.399450
  17 C :   -0.190636
  18 C :   -0.069230
  19 C :   -0.047011
  20 C :   -0.197494
  21 H :    0.024560
  22 C :   -0.033491
  23 H :    0.028386
  24 H :    0.033604
  25 C :   -0.040221
  26 H :    0.019951
  27 H :    0.026960
  28 C :   -0.063201
  29 H :    0.013492
  30 H :    0.032220
  31 H :    0.028448
  32 H :    0.034226
  33 H :    0.035204

  Mayer bond orders larger than 0.100000
B(  0-S ,  1-C ) :   1.1274 B(  0-S ,  4-C ) :   1.1326 B(  1-C ,  2-C ) :   1.6383
B(  1-C , 32-H ) :   0.9554 B(  2-C ,  3-C ) :   1.2142 B(  2-C ,  6-C ) :   1.0009
B(  3-C ,  4-C ) :   1.6285 B(  3-C ,  5-H ) :   0.9837 B(  4-C , 20-C ) :   1.0168
B(  6-C ,  7-H ) :   0.9383 B(  6-C ,  8-H ) :   0.9436 B(  6-C ,  9-C ) :   1.0846
B(  9-C , 10-H ) :   0.9549 B(  9-C , 11-H ) :   0.9532 B(  9-C , 12-C ) :   1.0731
B( 12-C , 13-H ) :   0.9760 B( 12-C , 14-H ) :   0.9682 B( 12-C , 15-H ) :   0.9705
B( 16-S , 17-C ) :   1.1627 B( 16-S , 20-C ) :   1.1419 B( 17-C , 18-C ) :   1.6041
B( 17-C , 33-H ) :   0.9601 B( 18-C , 19-C ) :   1.2334 B( 18-C , 21-H ) :   0.9954
B( 19-C , 20-C ) :   1.5959 B( 19-C , 22-C ) :   1.0273 B( 22-C , 23-H ) :   0.9309
B( 22-C , 24-H ) :   0.9306 B( 22-C , 25-C ) :   1.0788 B( 25-C , 26-H ) :   0.9423
B( 25-C , 27-H ) :   0.9527 B( 25-C , 28-C ) :   1.0985 B( 28-C , 29-H ) :   0.9664
B( 28-C , 30-H ) :   0.9695 B( 28-C , 31-H ) :   0.9653

Dispersion correction           -0.014213683
FINAL SINGLE POINT ENERGY     -1339.869373040394

DIPOLE MOMENT
-------------
                                X             Y             Z
Electronic contribution:    -11.62776      15.31397     -11.74518
Nuclear contribution   :     11.91558     -15.54818      12.01702
                        -----------------------------------------
Total Dipole Moment    :      0.28782      -0.23421       0.27184
                        -----------------------------------------
Magnitude (a.u.)       :      0.45999
Magnitude (Debye)      :      1.16921

Rotational constants in cm-1:     0.018485     0.008363     0.006914
Rotational constants in MHz :   554.171508   250.718665   207.283462

                             ****ORCA TERMINATED NORMALLY****
TOTAL RUN TIME: 0 days 0 hours 0 minutes 20 seconds 409 msec
