                         Program Version 4.2.1 -  RELEASE  -
|  1> ! wB97X-D3 SP def2-SVP
|  2> %pal
|  3> nprocs 24
|  4> end
|  5>
|  6> * xyz 0 1
|  7> S 	 -33.8608 	 -47.7196 	 -76.9106
|  8> C 	 -32.2631 	 -48.1428 	 -77.5824
|  9> C 	 -31.2899 	 -47.8522 	 -76.6486
| 10> C 	 -31.7358 	 -47.0507 	 -75.5815
| 11> C 	 -33.0802 	 -46.8537 	 -75.5586
| 12> H 	 -31.134 	 -46.586 	 -74.7359
| 13> C 	 -29.8006 	 -48.2399 	 -76.742
| 14> H 	 -29.7116 	 -49.1076 	 -77.4435
| 15> H 	 -29.5045 	 -48.6267 	 -75.738
| 16> C 	 -28.9647 	 -46.9947 	 -77.1761
| 17> H 	 -27.9398 	 -47.2767 	 -77.416
| 18> H 	 -29.3665 	 -46.5592 	 -78.0336
| 19> C 	 -28.8568 	 -45.9365 	 -76.0913
| 20> H 	 -29.5707 	 -45.1323 	 -76.0439
| 21> H 	 -28.7798 	 -46.4204 	 -75.0903
| 22> H 	 -27.9345 	 -45.4285 	 -76.2316
| 23> S 	 -34.6112 	 -47.1013 	 -73.3235
| 24> C 	 -35.305 	 -45.6662 	 -72.6279
| 25> C 	 -34.8854 	 -44.5048 	 -73.1984
| 26> C 	 -33.9848 	 -44.7534 	 -74.2755
| 27> C 	 -33.8449 	 -46.1205 	 -74.5679
| 28> H 	 -35.2704 	 -43.5273 	 -72.8109
| 29> C 	 -33.3927 	 -43.5402 	 -74.9597
| 30> H 	 -32.3242 	 -43.7514 	 -75.02
| 31> H 	 -33.4901 	 -42.669 	 -74.2721
| 32> C 	 -33.8283 	 -43.2948 	 -76.4028
| 33> H 	 -34.9218 	 -43.1786 	 -76.3602
| 34> H 	 -33.5303 	 -44.0816 	 -77.0219
| 35> C 	 -33.3085 	 -41.9712 	 -77.0998
| 36> H 	 -33.9434 	 -41.0815 	 -76.8435
| 37> H 	 -33.1905 	 -42.1604 	 -78.1595
| 38> H 	 -32.3105 	 -41.8633 	 -76.7388
| 39> H 	 -32.0549 	 -48.5392 	 -78.5977
| 40> H 	 -35.9092 	 -45.6907 	 -71.7002
| 41> *
| 42>
| 43>                          ****END OF INPUT****

CARTESIAN COORDINATES (ANGSTROEM)
---------------------------------
  S    -33.860800  -47.719600  -76.910600
  C    -32.263100  -48.142800  -77.582400
  C    -31.289900  -47.852200  -76.648600
  C    -31.735800  -47.050700  -75.581500
  C    -33.080200  -46.853700  -75.558600
  H    -31.134000  -46.586000  -74.735900
  C    -29.800600  -48.239900  -76.742000
  H    -29.711600  -49.107600  -77.443500
  H    -29.504500  -48.626700  -75.738000
  C    -28.964700  -46.994700  -77.176100
  H    -27.939800  -47.276700  -77.416000
  H    -29.366500  -46.559200  -78.033600
  C    -28.856800  -45.936500  -76.091300
  H    -29.570700  -45.132300  -76.043900
  H    -28.779800  -46.420400  -75.090300
  H    -27.934500  -45.428500  -76.231600
  S    -34.611200  -47.101300  -73.323500
  C    -35.305000  -45.666200  -72.627900
  C    -34.885400  -44.504800  -73.198400
  C    -33.984800  -44.753400  -74.275500
  C    -33.844900  -46.120500  -74.567900
  H    -35.270400  -43.527300  -72.810900
  C    -33.392700  -43.540200  -74.959700
  H    -32.324200  -43.751400  -75.020000
  H    -33.490100  -42.669000  -74.272100
  C    -33.828300  -43.294800  -76.402800
  H    -34.921800  -43.178600  -76.360200
  H    -33.530300  -44.081600  -77.021900
  C    -33.308500  -41.971200  -77.099800
  H    -33.943400  -41.081500  -76.843500
  H    -33.190500  -42.160400  -78.159500
  H    -32.310500  -41.863300  -76.738800
  H    -32.054900  -48.539200  -78.597700
  H    -35.909200  -45.690700  -71.700200

 Total Charge           Charge          ....    0
 Multiplicity           Mult            ....    1
 Number of Electrons    NEL             ....  134
 Basis Dimension        Dim             ....  322

ORBITAL ENERGIES
----------------

  NO   OCC          E(Eh)            E(eV)
   0   2.0000     -88.964314     -2420.8420
   1   2.0000     -88.963702     -2420.8254
   2   2.0000     -10.326391      -280.9954
   3   2.0000     -10.325344      -280.9669
   4   2.0000     -10.319453      -280.8066
   5   2.0000     -10.314522      -280.6724
   6   2.0000     -10.305680      -280.4318
   7   2.0000     -10.300683      -280.2958
   8   2.0000     -10.299976      -280.2766
   9   2.0000     -10.293665      -280.1049
  10   2.0000     -10.293046      -280.0880
  11   2.0000     -10.291203      -280.0379
  12   2.0000     -10.285087      -279.8714
  13   2.0000     -10.279547      -279.7207
  14   2.0000     -10.277753      -279.6719
  15   2.0000     -10.275398      -279.6078
  16   2.0000      -8.079300      -219.8489
  17   2.0000      -8.077381      -219.7967
  18   2.0000      -6.037722      -164.2948
  19   2.0000      -6.035987      -164.2476
  20   2.0000      -6.033829      -164.1888
  21   2.0000      -6.032126      -164.1425
  22   2.0000      -6.030086      -164.0870
  23   2.0000      -6.027992      -164.0300
  24   2.0000      -1.004515       -27.3342
  25   2.0000      -0.982885       -26.7457
  26   2.0000      -0.909808       -24.7571
  27   2.0000      -0.904615       -24.6158
  28   2.0000      -0.869824       -23.6691
  29   2.0000      -0.847488       -23.0613
  30   2.0000      -0.842556       -22.9271
  31   2.0000      -0.814080       -22.1522
  32   2.0000      -0.782344       -21.2887
  33   2.0000      -0.767743       -20.8913
  34   2.0000      -0.705753       -19.2045
  35   2.0000      -0.704592       -19.1729
  36   2.0000      -0.687549       -18.7092
  37   2.0000      -0.656128       -17.8541
  38   2.0000      -0.638062       -17.3626
  39   2.0000      -0.613178       -16.6854
  40   2.0000      -0.591821       -16.1043
  41   2.0000      -0.572122       -15.5682
  42   2.0000      -0.567931       -15.4542
  43   2.0000      -0.547126       -14.8881
  44   2.0000      -0.538548       -14.6546
  45   2.0000      -0.519377       -14.1330
  46   2.0000      -0.511216       -13.9109
  47   2.0000      -0.508180       -13.8283
  48   2.0000      -0.500366       -13.6156
  49   2.0000      -0.499047       -13.5798
  50   2.0000      -0.491893       -13.3851
  51   2.0000      -0.479768       -13.0552
  52   2.0000      -0.477781       -13.0011
  53   2.0000      -0.459791       -12.5115
  54   2.0000      -0.457787       -12.4570
  55   2.0000      -0.444771       -12.1028
  56   2.0000      -0.441248       -12.0070
  57   2.0000      -0.436332       -11.8732
  58   2.0000      -0.432520       -11.7695
  59   2.0000      -0.430344       -11.7102
  60   2.0000      -0.423267       -11.5177
  61   2.0000      -0.413536       -11.2529
  62   2.0000      -0.405904       -11.0452
  63   2.0000      -0.338801        -9.2192
  64   2.0000      -0.329102        -8.9553
  65   2.0000      -0.324330        -8.8255
  66   2.0000      -0.300250        -8.1702
  67   0.0000       0.042068         1.1447
  68   0.0000       0.051231         1.3941
  69   0.0000       0.111967         3.0468
  70   0.0000       0.114033         3.1030
  71   0.0000       0.129644         3.5278

MULLIKEN ATOMIC CHARGES
-----------------------
   0 S :    0.104865
   1 C :   -0.142804
   2 C :   -0.087661
   3 C :    0.033387
   4 C :   -0.179582
   5 H :    0.040865
   6 C :    0.034255
   7 H :    0.028652
   8 H :    0.041623
   9 C :   -0.019445
  10 H :    0.029115
  11 H :    0.013940
  12 C :   -0.054613
  13 H :    0.036716
  14 H :    0.027908
  15 H :    0.018544
  16 S :    0.114414
  17 C :   -0.098383
  18 C :   -0.059221
  19 C :   -0.015810
  20 C :   -0.191434
  21 H :    0.037184
  22 C :    0.081252
  23 H :    0.016430
  24 H :    0.023905
  25 C :   -0.075695
  26 H :    0.030892
  27 H :    0.029256
  28 C :   -0.045723
  29 H :    0.050089
  30 H :    0.036303
  31 H :    0.013306
  32 H :    0.063841
  33 H :    0.063631
Sum of atomic charges:    0.0000000

LOEWDIN ATOMIC CHARGES
----------------------
   0 S :    0.374103
   1 C :   -0.192731
   2 C :   -0.067537
   3 C :   -0.068096
   4 C :   -0.192239
   5 H :    0.048907
   6 C :   -0.029576
   7 H :    0.030569
   8 H :    0.033604
   9 C :   -0.031429
  10 H :    0.025369
  11 H :    0.018619
  12 C :   -0.067580
  13 H :    0.021374
  14 H :    0.026546
  15 H :    0.023519
  16 S :    0.410468
  17 C :   -0.188916
  18 C :   -0.082431
  19 C :   -0.046381
  20 C :   -0.206421
  21 H :    0.042716
  22 C :   -0.037165
  23 H :    0.029415
  24 H :    0.032329
  25 C :   -0.033886
  26 H :    0.024532
  27 H :    0.018695
  28 C :   -0.065356
  29 H :    0.031912
  30 H :    0.027955
  31 H :    0.017304
  32 H :    0.038572
  33 H :    0.033236

  Mayer bond orders larger than 0.100000
B(  0-S ,  1-C ) :   1.1267 B(  0-S ,  4-C ) :   1.1264 B(  1-C ,  2-C ) :   1.6322
B(  1-C ,  4-C ) :   0.1041 B(  1-C , 32-H ) :   0.9651 B(  2-C ,  3-C ) :   1.2189
B(  2-C ,  6-C ) :   1.0126 B(  3-C ,  4-C ) :   1.6247 B(  3-C ,  5-H ) :   0.9757
B(  4-C , 20-C ) :   1.0228 B(  6-C ,  7-H ) :   0.9465 B(  6-C ,  8-H ) :   0.9487
B(  6-C ,  9-C ) :   1.0633 B(  9-C , 10-H ) :   0.9606 B(  9-C , 11-H ) :   0.9500
B(  9-C , 12-C ) :   1.0860 B( 12-C , 13-H ) :   0.9708 B( 12-C , 14-H ) :   0.9706
B( 12-C , 15-H ) :   0.9678 B( 16-S , 17-C ) :   1.1603 B( 16-S , 20-C ) :   1.1499
B( 17-C , 18-C ) :   1.6254 B( 17-C , 33-H ) :   0.9586 B( 18-C , 19-C ) :   1.2370
B( 18-C , 21-H ) :   0.9837 B( 19-C , 20-C ) :   1.5955 B( 19-C , 22-C ) :   1.0456
B( 22-C , 23-H ) :   0.9142 B( 22-C , 24-H ) :   0.9386 B( 22-C , 25-C ) :   1.0727
B( 25-C , 26-H ) :   0.9621 B( 25-C , 27-H ) :   0.9557 B( 25-C , 28-C ) :   1.0760
B( 28-C , 29-H ) :   0.9788 B( 28-C , 30-H ) :   0.9772 B( 28-C , 31-H ) :   0.9744

Dispersion correction           -0.014920414
FINAL SINGLE POINT ENERGY     -1339.871295983881

DIPOLE MOMENT
-------------
                                X             Y             Z
Electronic contribution:    -18.88790     -17.47437       8.50260
Nuclear contribution   :     19.49518      17.87979      -8.50961
                        -----------------------------------------
Total Dipole Moment    :      0.60728       0.40542      -0.00702
                        -----------------------------------------
Magnitude (a.u.)       :      0.73021
Magnitude (Debye)      :      1.85604

Rotational constants in cm-1:     0.016450     0.009767     0.007880
Rotational constants in MHz :   493.151561   292.811993   236.240240

                             ****ORCA TERMINATED NORMALLY****
TOTAL RUN TIME: 0 days 0 hours 0 minutes 22 seconds 267 msec
