                         Program Version 4.2.1 -  RELEASE  -
|  1> ! wB97X-D3 SP def2-SVP
|  2> %pal
|  3> nprocs 24
|  4> end
|  5>
|  6> * xyz 0 1
|  7> S 	 -42.9059 	 -1.12903 	 -24.378
|  8> C 	 -44.5629 	 -1.00065 	 -24.7276
|  9> C 	 -45.0798 	 -2.08237 	 -25.4479
| 10> C 	 -44.1471 	 -3.13427 	 -25.6281
| 11> C 	 -42.9167 	 -2.88756 	 -25.0221
| 12> H 	 -44.3536 	 -4.04078 	 -26.1767
| 13> C 	 -46.4217 	 -2.12068 	 -26.0413
| 14> H 	 -47.2095 	 -2.00489 	 -25.2516
| 15> H 	 -46.6719 	 -3.12083 	 -26.3669
| 16> C 	 -46.6898 	 -1.26468 	 -27.2623
| 17> H 	 -47.7479 	 -1.08877 	 -27.3592
| 18> H 	 -46.1977 	 -0.29946 	 -27.0977
| 19> C 	 -46.0782 	 -1.83117 	 -28.5549
| 20> H 	 -45.0401 	 -2.06471 	 -28.5754
| 21> H 	 -46.6788 	 -2.67787 	 -29.0092
| 22> H 	 -46.2049 	 -0.9953 	 -29.263
| 23> S 	 -40.1429 	 -3.00686 	 -25.2465
| 24> C 	 -39.4133 	 -4.58597 	 -25.3629
| 25> C 	 -40.2806 	 -5.61307 	 -25.297
| 26> C 	 -41.5976 	 -5.1964 	 -25.1694
| 27> C 	 -41.7107 	 -3.75803 	 -25.1027
| 28> H 	 -39.9678 	 -6.62801 	 -25.4036
| 29> C 	 -42.7459 	 -6.24677 	 -24.9917
| 30> H 	 -42.2496 	 -7.21774 	 -25.1125
| 31> H 	 -43.3828 	 -6.12405 	 -25.9022
| 32> C 	 -43.5291 	 -6.21675 	 -23.76
| 33> H 	 -44.1741 	 -5.401 	 -23.7582
| 34> H 	 -42.9031 	 -6.08446 	 -22.8664
| 35> C 	 -44.3868 	 -7.46022 	 -23.5942
| 36> H 	 -45.155 	 -7.32436 	 -24.2689
| 37> H 	 -44.7872 	 -7.58605 	 -22.6017
| 38> H 	 -43.905 	 -8.45227 	 -23.9153
| 39> H 	 -45.1346 	 -0.00721837 	 -24.6334
| 40> H 	 -38.4099 	 -4.65863 	 -25.5272
| 41> *
| 42>
| 43>                          ****END OF INPUT****

CARTESIAN COORDINATES (ANGSTROEM)
---------------------------------
  S    -42.905900   -1.129030  -24.378000
  C    -44.562900   -1.000650  -24.727600
  C    -45.079800   -2.082370  -25.447900
  C    -44.147100   -3.134270  -25.628100
  C    -42.916700   -2.887560  -25.022100
  H    -44.353600   -4.040780  -26.176700
  C    -46.421700   -2.120680  -26.041300
  H    -47.209500   -2.004890  -25.251600
  H    -46.671900   -3.120830  -26.366900
  C    -46.689800   -1.264680  -27.262300
  H    -47.747900   -1.088770  -27.359200
  H    -46.197700   -0.299460  -27.097700
  C    -46.078200   -1.831170  -28.554900
  H    -45.040100   -2.064710  -28.575400
  H    -46.678800   -2.677870  -29.009200
  H    -46.204900   -0.995300  -29.263000
  S    -40.142900   -3.006860  -25.246500
  C    -39.413300   -4.585970  -25.362900
  C    -40.280600   -5.613070  -25.297000
  C    -41.597600   -5.196400  -25.169400
  C    -41.710700   -3.758030  -25.102700
  H    -39.967800   -6.628010  -25.403600
  C    -42.745900   -6.246770  -24.991700
  H    -42.249600   -7.217740  -25.112500
  H    -43.382800   -6.124050  -25.902200
  C    -43.529100   -6.216750  -23.760000
  H    -44.174100   -5.401000  -23.758200
  H    -42.903100   -6.084460  -22.866400
  C    -44.386800   -7.460220  -23.594200
  H    -45.155000   -7.324360  -24.268900
  H    -44.787200   -7.586050  -22.601700
  H    -43.905000   -8.452270  -23.915300
  H    -45.134600   -0.007218  -24.633400
  H    -38.409900   -4.658630  -25.527200

 Total Charge           Charge          ....    0
 Multiplicity           Mult            ....    1
 Number of Electrons    NEL             ....  134
 Basis Dimension        Dim             ....  322

ORBITAL ENERGIES
----------------

  NO   OCC          E(Eh)            E(eV)
   0   2.0000     -88.970227     -2421.0030
   1   2.0000     -88.968511     -2420.9563
   2   2.0000     -10.341365      -281.4028
   3   2.0000     -10.333607      -281.1917
   4   2.0000     -10.318045      -280.7683
   5   2.0000     -10.306297      -280.4486
   6   2.0000     -10.305474      -280.4262
   7   2.0000     -10.297198      -280.2010
   8   2.0000     -10.296651      -280.1861
   9   2.0000     -10.294528      -280.1283
  10   2.0000     -10.286634      -279.9135
  11   2.0000     -10.285324      -279.8779
  12   2.0000     -10.284818      -279.8641
  13   2.0000     -10.279149      -279.7099
  14   2.0000     -10.272719      -279.5349
  15   2.0000     -10.272405      -279.5263
  16   2.0000      -8.083911      -219.9744
  17   2.0000      -8.083524      -219.9639
  18   2.0000      -6.042470      -164.4240
  19   2.0000      -6.041848      -164.4070
  20   2.0000      -6.038740      -164.3225
  21   2.0000      -6.038064      -164.3041
  22   2.0000      -6.034515      -164.2075
  23   2.0000      -6.034421      -164.2050
  24   2.0000      -1.002628       -27.2829
  25   2.0000      -0.983925       -26.7740
  26   2.0000      -0.917688       -24.9716
  27   2.0000      -0.912983       -24.8435
  28   2.0000      -0.869276       -23.6542
  29   2.0000      -0.857080       -23.3223
  30   2.0000      -0.848518       -23.0893
  31   2.0000      -0.814371       -22.1602
  32   2.0000      -0.782430       -21.2910
  33   2.0000      -0.766638       -20.8613
  34   2.0000      -0.708191       -19.2709
  35   2.0000      -0.701451       -19.0874
  36   2.0000      -0.690466       -18.7885
  37   2.0000      -0.665928       -18.1208
  38   2.0000      -0.633940       -17.2504
  39   2.0000      -0.618211       -16.8224
  40   2.0000      -0.601399       -16.3649
  41   2.0000      -0.577268       -15.7083
  42   2.0000      -0.572277       -15.5724
  43   2.0000      -0.551037       -14.9945
  44   2.0000      -0.532203       -14.4820
  45   2.0000      -0.529013       -14.3952
  46   2.0000      -0.517585       -14.0842
  47   2.0000      -0.510108       -13.8808
  48   2.0000      -0.502221       -13.6661
  49   2.0000      -0.493359       -13.4250
  50   2.0000      -0.485397       -13.2083
  51   2.0000      -0.479528       -13.0486
  52   2.0000      -0.476104       -12.9555
  53   2.0000      -0.463814       -12.6210
  54   2.0000      -0.460710       -12.5366
  55   2.0000      -0.454943       -12.3796
  56   2.0000      -0.446341       -12.1456
  57   2.0000      -0.440115       -11.9761
  58   2.0000      -0.430861       -11.7243
  59   2.0000      -0.425949       -11.5907
  60   2.0000      -0.420568       -11.4442
  61   2.0000      -0.410850       -11.1798
  62   2.0000      -0.409176       -11.1343
  63   2.0000      -0.361051        -9.8247
  64   2.0000      -0.340816        -9.2741
  65   2.0000      -0.326917        -8.8959
  66   2.0000      -0.276303        -7.5186
  67   0.0000       0.017158         0.4669
  68   0.0000       0.071847         1.9550
  69   0.0000       0.096562         2.6276
  70   0.0000       0.123088         3.3494
  71   0.0000       0.131301         3.5729

MULLIKEN ATOMIC CHARGES
-----------------------
   0 S :    0.102367
   1 C :   -0.133965
   2 C :   -0.092109
   3 C :    0.025185
   4 C :   -0.125067
   5 H :    0.009293
   6 C :    0.051520
   7 H :    0.035068
   8 H :   -0.003265
   9 C :   -0.041352
  10 H :    0.027439
  11 H :    0.020427
  12 C :   -0.076534
  13 H :    0.043182
  14 H :    0.037778
  15 H :    0.029538
  16 S :    0.107295
  17 C :   -0.054815
  18 C :   -0.010778
  19 C :   -0.052939
  20 C :   -0.158619
  21 H :    0.008900
  22 C :    0.044869
  23 H :    0.006448
  24 H :    0.034671
  25 C :   -0.008899
  26 H :    0.014810
  27 H :    0.029476
  28 C :   -0.038955
  29 H :    0.006154
  30 H :    0.036107
  31 H :    0.029642
  32 H :    0.079899
  33 H :    0.017229
Sum of atomic charges:    0.0000000

LOEWDIN ATOMIC CHARGES
----------------------
   0 S :    0.379655
   1 C :   -0.221828
   2 C :   -0.073225
   3 C :   -0.056439
   4 C :   -0.157552
   5 H :    0.032220
   6 C :   -0.046674
   7 H :    0.037875
   8 H :    0.024158
   9 C :   -0.036148
  10 H :    0.025329
  11 H :    0.022437
  12 C :   -0.070305
  13 H :    0.022832
  14 H :    0.029155
  15 H :    0.030378
  16 S :    0.416525
  17 C :   -0.167234
  18 C :   -0.069186
  19 C :   -0.053306
  20 C :   -0.201662
  21 H :    0.032633
  22 C :   -0.028860
  23 H :    0.027740
  24 H :    0.031827
  25 C :   -0.041069
  26 H :    0.018648
  27 H :    0.028181
  28 C :   -0.058016
  29 H :    0.013263
  30 H :    0.025930
  31 H :    0.029850
  32 H :    0.046047
  33 H :    0.006821

  Mayer bond orders larger than 0.100000
B(  0-S ,  1-C ) :   1.1516 B(  0-S ,  4-C ) :   1.1300 B(  1-C ,  2-C ) :   1.5898
B(  1-C , 32-H ) :   0.9496 B(  2-C ,  3-C ) :   1.2691 B(  2-C ,  6-C ) :   1.0415
B(  3-C ,  4-C ) :   1.5431 B(  3-C ,  5-H ) :   0.9885 B(  4-C , 20-C ) :   1.0820
B(  6-C ,  7-H ) :   0.9324 B(  6-C ,  8-H ) :   0.9346 B(  6-C ,  9-C ) :   1.0675
B(  9-C , 10-H ) :   0.9511 B(  9-C , 11-H ) :   0.9598 B(  9-C , 12-C ) :   1.0782
B( 12-C , 13-H ) :   0.9775 B( 12-C , 14-H ) :   0.9734 B( 12-C , 15-H ) :   0.9734
B( 16-S , 17-C ) :   1.1652 B( 16-S , 20-C ) :   1.1606 B( 17-C , 18-C ) :   1.5729
B( 17-C , 20-C ) :   0.1019 B( 17-C , 33-H ) :   0.9777 B( 18-C , 19-C ) :   1.3032
B( 18-C , 21-H ) :   0.9951 B( 19-C , 20-C ) :   1.5276 B( 19-C , 22-C ) :   1.0186
B( 22-C , 23-H ) :   0.9363 B( 22-C , 24-H ) :   0.9257 B( 22-C , 25-C ) :   1.0799
B( 25-C , 26-H ) :   0.9414 B( 25-C , 27-H ) :   0.9538 B( 25-C , 28-C ) :   1.0792
B( 28-C , 29-H ) :   0.9748 B( 28-C , 30-H ) :   0.9744 B( 28-C , 31-H ) :   0.9759

Dispersion correction           -0.014394494
FINAL SINGLE POINT ENERGY     -1339.865651080948

DIPOLE MOMENT
-------------
                                X             Y             Z
Electronic contribution:     22.72081      13.46581       7.08122
Nuclear contribution   :    -23.12378     -13.82437      -7.40053
                        -----------------------------------------
Total Dipole Moment    :     -0.40298      -0.35856      -0.31931
                        -----------------------------------------
Magnitude (a.u.)       :      0.62683
Magnitude (Debye)      :      1.59327

Rotational constants in cm-1:     0.016983     0.009105     0.007185
Rotational constants in MHz :   509.129103   272.961882   215.402128

                             ****ORCA TERMINATED NORMALLY****
TOTAL RUN TIME: 0 days 0 hours 0 minutes 21 seconds 912 msec
