                         Program Version 4.2.1 -  RELEASE  -
|  1> ! wB97X-D3 SP def2-SVP
|  2> %pal
|  3> nprocs 24
|  4> end
|  5>
|  6> * xyz 0 1
|  7> S 	 35.7658 	 -29.4361 	 -126.007
|  8> C 	 37.3183 	 -29.5739 	 -126.721
|  9> C 	 37.2325 	 -30.183 	 -127.945
| 10> C 	 35.9105 	 -30.3409 	 -128.442
| 11> C 	 34.9726 	 -29.8706 	 -127.575
| 12> H 	 35.6152 	 -30.6997 	 -129.426
| 13> C 	 38.3507 	 -30.4935 	 -129.022
| 14> H 	 39.1612 	 -29.7289 	 -128.876
| 15> H 	 37.9633 	 -30.1991 	 -129.978
| 16> C 	 38.9414 	 -31.8626 	 -129.108
| 17> H 	 38.2317 	 -32.5309 	 -129.447
| 18> H 	 39.688 	 -31.8018 	 -129.982
| 19> C 	 39.653 	 -32.4017 	 -127.847
| 20> H 	 40.2385 	 -33.3612 	 -128.069
| 21> H 	 40.3694 	 -31.7547 	 -127.339
| 22> H 	 38.9869 	 -32.6459 	 -127.104
| 23> S 	 32.9941 	 -29.711 	 -129.368
| 24> C 	 31.3459 	 -29.2807 	 -128.882
| 25> C 	 31.173 	 -29.3217 	 -127.547
| 26> C 	 32.4136 	 -29.702 	 -126.837
| 27> C 	 33.5243 	 -29.8476 	 -127.701
| 28> H 	 30.2043 	 -29.0895 	 -127.099
| 29> C 	 32.4127 	 -29.8838 	 -125.359
| 30> H 	 31.3333 	 -29.9615 	 -124.997
| 31> H 	 32.899 	 -28.9901 	 -124.98
| 32> C 	 32.9922 	 -31.1027 	 -124.669
| 33> H 	 34.0534 	 -31.2948 	 -124.813
| 34> H 	 32.4549 	 -31.8859 	 -125.216
| 35> C 	 32.7471 	 -31.1705 	 -123.114
| 36> H 	 31.6522 	 -31.1642 	 -122.864
| 37> H 	 33.3244 	 -30.4854 	 -122.55
| 38> H 	 33.0777 	 -32.1644 	 -122.759
| 39> H 	 38.2276 	 -29.3159 	 -126.22
| 40> H 	 30.6145 	 -28.9234 	 -129.547
| 41> *
| 42>
| 43>                          ****END OF INPUT****

CARTESIAN COORDINATES (ANGSTROEM)
---------------------------------
  S     35.765800  -29.436100  -126.007000
  C     37.318300  -29.573900  -126.721000
  C     37.232500  -30.183000  -127.945000
  C     35.910500  -30.340900  -128.442000
  C     34.972600  -29.870600  -127.575000
  H     35.615200  -30.699700  -129.426000
  C     38.350700  -30.493500  -129.022000
  H     39.161200  -29.728900  -128.876000
  H     37.963300  -30.199100  -129.978000
  C     38.941400  -31.862600  -129.108000
  H     38.231700  -32.530900  -129.447000
  H     39.688000  -31.801800  -129.982000
  C     39.653000  -32.401700  -127.847000
  H     40.238500  -33.361200  -128.069000
  H     40.369400  -31.754700  -127.339000
  H     38.986900  -32.645900  -127.104000
  S     32.994100  -29.711000  -129.368000
  C     31.345900  -29.280700  -128.882000
  C     31.173000  -29.321700  -127.547000
  C     32.413600  -29.702000  -126.837000
  C     33.524300  -29.847600  -127.701000
  H     30.204300  -29.089500  -127.099000
  C     32.412700  -29.883800  -125.359000
  H     31.333300  -29.961500  -124.997000
  H     32.899000  -28.990100  -124.980000
  C     32.992200  -31.102700  -124.669000
  H     34.053400  -31.294800  -124.813000
  H     32.454900  -31.885900  -125.216000
  C     32.747100  -31.170500  -123.114000
  H     31.652200  -31.164200  -122.864000
  H     33.324400  -30.485400  -122.550000
  H     33.077700  -32.164400  -122.759000
  H     38.227600  -29.315900  -126.220000
  H     30.614500  -28.923400  -129.547000

 Total Charge           Charge          ....    0
 Multiplicity           Mult            ....    1
 Number of Electrons    NEL             ....  134
 Basis Dimension        Dim             ....  322

ORBITAL ENERGIES
----------------

  NO   OCC          E(Eh)            E(eV)
   0   2.0000     -88.966737     -2420.9080
   1   2.0000     -88.962647     -2420.7967
   2   2.0000     -10.335460      -281.2422
   3   2.0000     -10.332004      -281.1481
   4   2.0000     -10.314714      -280.6776
   5   2.0000     -10.313625      -280.6480
   6   2.0000     -10.311789      -280.5981
   7   2.0000     -10.302538      -280.3463
   8   2.0000     -10.298606      -280.2393
   9   2.0000     -10.293479      -280.0998
  10   2.0000     -10.293123      -280.0901
  11   2.0000     -10.291273      -280.0398
  12   2.0000     -10.287021      -279.9241
  13   2.0000     -10.283635      -279.8319
  14   2.0000     -10.281744      -279.7805
  15   2.0000     -10.275887      -279.6211
  16   2.0000      -8.080978      -219.8946
  17   2.0000      -8.077377      -219.7966
  18   2.0000      -6.039644      -164.3471
  19   2.0000      -6.036115      -164.2510
  20   2.0000      -6.035664      -164.2388
  21   2.0000      -6.031971      -164.1383
  22   2.0000      -6.031500      -164.1255
  23   2.0000      -6.027834      -164.0257
  24   2.0000      -1.007228       -27.4081
  25   2.0000      -0.983582       -26.7646
  26   2.0000      -0.908224       -24.7140
  27   2.0000      -0.906546       -24.6684
  28   2.0000      -0.877926       -23.8896
  29   2.0000      -0.849748       -23.1228
  30   2.0000      -0.842096       -22.9146
  31   2.0000      -0.816059       -22.2061
  32   2.0000      -0.785683       -21.3795
  33   2.0000      -0.771830       -21.0026
  34   2.0000      -0.711547       -19.3622
  35   2.0000      -0.700223       -19.0540
  36   2.0000      -0.688749       -18.7418
  37   2.0000      -0.669782       -18.2257
  38   2.0000      -0.640109       -17.4182
  39   2.0000      -0.617341       -16.7987
  40   2.0000      -0.592176       -16.1139
  41   2.0000      -0.574158       -15.6236
  42   2.0000      -0.567136       -15.4326
  43   2.0000      -0.547358       -14.8944
  44   2.0000      -0.540051       -14.6955
  45   2.0000      -0.519270       -14.1301
  46   2.0000      -0.517516       -14.0823
  47   2.0000      -0.512438       -13.9441
  48   2.0000      -0.510180       -13.8827
  49   2.0000      -0.502678       -13.6786
  50   2.0000      -0.492034       -13.3889
  51   2.0000      -0.480211       -13.0672
  52   2.0000      -0.471574       -12.8322
  53   2.0000      -0.463304       -12.6071
  54   2.0000      -0.458809       -12.4848
  55   2.0000      -0.449502       -12.2316
  56   2.0000      -0.439577       -11.9615
  57   2.0000      -0.437220       -11.8974
  58   2.0000      -0.426822       -11.6144
  59   2.0000      -0.423077       -11.5125
  60   2.0000      -0.420190       -11.4340
  61   2.0000      -0.409445       -11.1416
  62   2.0000      -0.403640       -10.9836
  63   2.0000      -0.370418       -10.0796
  64   2.0000      -0.332264        -9.0414
  65   2.0000      -0.325890        -8.8679
  66   2.0000      -0.282323        -7.6824
  67   0.0000       0.018255         0.4967
  68   0.0000       0.077923         2.1204
  69   0.0000       0.101083         2.7506
  70   0.0000       0.114494         3.1156
  71   0.0000       0.129033         3.5112

MULLIKEN ATOMIC CHARGES
-----------------------
   0 S :    0.089374
   1 C :   -0.106725
   2 C :   -0.054088
   3 C :   -0.010901
   4 C :   -0.098908
   5 H :    0.026020
   6 C :    0.032591
   7 H :    0.023122
   8 H :    0.018542
   9 C :   -0.028693
  10 H :    0.010057
  11 H :    0.034652
  12 C :   -0.049724
  13 H :    0.039099
  14 H :    0.022877
  15 H :    0.022028
  16 S :    0.063376
  17 C :   -0.060047
  18 C :   -0.019391
  19 C :   -0.078540
  20 C :   -0.102996
  21 H :    0.027836
  22 C :    0.016996
  23 H :    0.029257
  24 H :    0.039882
  25 C :   -0.076487
  26 H :    0.033035
  27 H :    0.026804
  28 C :   -0.053712
  29 H :    0.035146
  30 H :    0.034364
  31 H :    0.029728
  32 H :    0.042825
  33 H :    0.042601
Sum of atomic charges:   -0.0000000

LOEWDIN ATOMIC CHARGES
----------------------
   0 S :    0.402364
   1 C :   -0.199510
   2 C :   -0.064053
   3 C :   -0.070920
   4 C :   -0.163820
   5 H :    0.030697
   6 C :   -0.030830
   7 H :    0.031222
   8 H :    0.027216
   9 C :   -0.039022
  10 H :    0.013941
  11 H :    0.035220
  12 C :   -0.066924
  13 H :    0.036869
  14 H :    0.023662
  15 H :    0.014073
  16 S :    0.388225
  17 C :   -0.165970
  18 C :   -0.066421
  19 C :   -0.056805
  20 C :   -0.190105
  21 H :    0.037496
  22 C :   -0.051816
  23 H :    0.041143
  24 H :    0.028301
  25 C :   -0.046960
  26 H :    0.011451
  27 H :    0.026159
  28 C :   -0.063056
  29 H :    0.028034
  30 H :    0.019822
  31 H :    0.030546
  32 H :    0.027305
  33 H :    0.022468

  Mayer bond orders larger than 0.100000
B(  0-S ,  1-C ) :   1.1362 B(  0-S ,  4-C ) :   1.1206 B(  1-C ,  2-C ) :   1.6261
B(  1-C , 32-H ) :   0.9723 B(  2-C ,  3-C ) :   1.2277 B(  2-C ,  6-C ) :   0.9953
B(  3-C ,  4-C ) :   1.5767 B(  3-C ,  5-H ) :   0.9856 B(  4-C , 20-C ) :   1.0900
B(  6-C ,  7-H ) :   0.9467 B(  6-C ,  8-H ) :   0.9471 B(  6-C ,  9-C ) :   1.0881
B(  9-C , 10-H ) :   0.9507 B(  9-C , 11-H ) :   0.9514 B(  9-C , 12-C ) :   1.0703
B( 12-C , 13-H ) :   0.9743 B( 12-C , 14-H ) :   0.9771 B( 12-C , 15-H ) :   0.9747
B( 16-S , 17-C ) :   1.1334 B( 16-S , 20-C ) :   1.1157 B( 17-C , 18-C ) :   1.6545
B( 17-C , 33-H ) :   0.9684 B( 18-C , 19-C ) :   1.2129 B( 18-C , 21-H ) :   0.9881
B( 19-C , 20-C ) :   1.5731 B( 19-C , 22-C ) :   1.0507 B( 22-C , 23-H ) :   0.9408
B( 22-C , 24-H ) :   0.9210 B( 22-C , 25-C ) :   1.0571 B( 25-C , 26-H ) :   0.9468
B( 25-C , 27-H ) :   0.9575 B( 25-C , 28-C ) :   1.0845 B( 28-C , 29-H ) :   0.9749
B( 28-C , 30-H ) :   0.9769 B( 28-C , 31-H ) :   0.9738

Dispersion correction           -0.014082975
FINAL SINGLE POINT ENERGY     -1339.862357677323

DIPOLE MOMENT
-------------
                                X             Y             Z
Electronic contribution:    -10.54187      11.63729      -9.30639
Nuclear contribution   :     10.57144     -11.72254       9.35812
                        -----------------------------------------
Total Dipole Moment    :      0.02957      -0.08525       0.05173
                        -----------------------------------------
Magnitude (a.u.)       :      0.10401
Magnitude (Debye)      :      0.26437

Rotational constants in cm-1:     0.019430     0.008504     0.006527
Rotational constants in MHz :   582.500091   254.951381   195.663080

                             ****ORCA TERMINATED NORMALLY****
TOTAL RUN TIME: 0 days 0 hours 0 minutes 22 seconds 119 msec
