                         Program Version 4.2.1 -  RELEASE  -
|  1> ! wB97X-D3 SP def2-SVP
|  2> %pal
|  3> nprocs 24
|  4> end
|  5>
|  6> * xyz 0 1
|  7> S 	 -136.062 	 9.38061 	 -8.96935
|  8> C 	 -136.371 	 11.1204 	 -9.04578
|  9> C 	 -135.409 	 11.8683 	 -8.36042
| 10> C 	 -134.34 	 11.0005 	 -7.97798
| 11> C 	 -134.431 	 9.69502 	 -8.48606
| 12> H 	 -133.507 	 11.1816 	 -7.30539
| 13> C 	 -135.349 	 13.3591 	 -7.98535
| 14> H 	 -134.85 	 13.893 	 -8.8337
| 15> H 	 -134.672 	 13.475 	 -7.1203
| 16> C 	 -136.599 	 14.0656 	 -7.67445
| 17> H 	 -136.408 	 15.1009 	 -7.42174
| 18> H 	 -137.05 	 14.0857 	 -8.69114
| 19> C 	 -137.423 	 13.3499 	 -6.60552
| 20> H 	 -136.828 	 13.2763 	 -5.77811
| 21> H 	 -138.295 	 14.0249 	 -6.27887
| 22> H 	 -137.901 	 12.3609 	 -6.67097
| 23> S 	 -134.166 	 7.42834 	 -7.02402
| 24> C 	 -132.765 	 6.40162 	 -7.25784
| 25> C 	 -131.719 	 7.06345 	 -7.97363
| 26> C 	 -132.209 	 8.33608 	 -8.4736
| 27> C 	 -133.538 	 8.52179 	 -8.25035
| 28> H 	 -130.807 	 6.55727 	 -7.91962
| 29> C 	 -131.306 	 9.1744 	 -9.34555
| 30> H 	 -131.987 	 9.84886 	 -9.87566
| 31> H 	 -130.958 	 8.55196 	 -10.182
| 32> C 	 -130.19 	 10.0968 	 -8.77522
| 33> H 	 -130.816 	 10.7892 	 -8.26122
| 34> H 	 -129.633 	 10.4404 	 -9.63057
| 35> C 	 -129.145 	 9.48868 	 -7.8803
| 36> H 	 -129.691 	 8.93121 	 -7.1549
| 37> H 	 -128.507 	 10.2019 	 -7.29986
| 38> H 	 -128.432 	 8.85887 	 -8.47076
| 39> H 	 -137.245 	 11.6109 	 -9.25072
| 40> H 	 -132.476 	 5.50024 	 -6.74818
| 41> *
| 42>
| 43>                          ****END OF INPUT****

CARTESIAN COORDINATES (ANGSTROEM)
---------------------------------
  S    -136.062000    9.380610   -8.969350
  C    -136.371000   11.120400   -9.045780
  C    -135.409000   11.868300   -8.360420
  C    -134.340000   11.000500   -7.977980
  C    -134.431000    9.695020   -8.486060
  H    -133.507000   11.181600   -7.305390
  C    -135.349000   13.359100   -7.985350
  H    -134.850000   13.893000   -8.833700
  H    -134.672000   13.475000   -7.120300
  C    -136.599000   14.065600   -7.674450
  H    -136.408000   15.100900   -7.421740
  H    -137.050000   14.085700   -8.691140
  C    -137.423000   13.349900   -6.605520
  H    -136.828000   13.276300   -5.778110
  H    -138.295000   14.024900   -6.278870
  H    -137.901000   12.360900   -6.670970
  S    -134.166000    7.428340   -7.024020
  C    -132.765000    6.401620   -7.257840
  C    -131.719000    7.063450   -7.973630
  C    -132.209000    8.336080   -8.473600
  C    -133.538000    8.521790   -8.250350
  H    -130.807000    6.557270   -7.919620
  C    -131.306000    9.174400   -9.345550
  H    -131.987000    9.848860   -9.875660
  H    -130.958000    8.551960  -10.182000
  C    -130.190000   10.096800   -8.775220
  H    -130.816000   10.789200   -8.261220
  H    -129.633000   10.440400   -9.630570
  C    -129.145000    9.488680   -7.880300
  H    -129.691000    8.931210   -7.154900
  H    -128.507000   10.201900   -7.299860
  H    -128.432000    8.858870   -8.470760
  H    -137.245000   11.610900   -9.250720
  H    -132.476000    5.500240   -6.748180

 Total Charge           Charge          ....    0
 Multiplicity           Mult            ....    1
 Number of Electrons    NEL             ....  134
 Basis Dimension        Dim             ....  322

ORBITAL ENERGIES
----------------

  NO   OCC          E(Eh)            E(eV)
   0   2.0000     -88.969081     -2420.9718
   1   2.0000     -88.968072     -2420.9443
   2   2.0000     -10.330076      -281.0956
   3   2.0000     -10.326810      -281.0068
   4   2.0000     -10.318247      -280.7738
   5   2.0000     -10.310582      -280.5652
   6   2.0000     -10.306761      -280.4612
   7   2.0000     -10.306581      -280.4563
   8   2.0000     -10.296941      -280.1940
   9   2.0000     -10.296484      -280.1816
  10   2.0000     -10.295176      -280.1460
  11   2.0000     -10.289213      -279.9837
  12   2.0000     -10.287335      -279.9326
  13   2.0000     -10.282959      -279.8135
  14   2.0000     -10.277425      -279.6629
  15   2.0000     -10.277397      -279.6622
  16   2.0000      -8.083544      -219.9644
  17   2.0000      -8.082445      -219.9345
  18   2.0000      -6.042054      -164.4127
  19   2.0000      -6.040979      -164.3834
  20   2.0000      -6.038317      -164.3110
  21   2.0000      -6.037248      -164.2819
  22   2.0000      -6.034084      -164.1958
  23   2.0000      -6.032945      -164.1648
  24   2.0000      -1.006386       -27.3851
  25   2.0000      -0.982184       -26.7266
  26   2.0000      -0.922605       -25.1054
  27   2.0000      -0.908402       -24.7189
  28   2.0000      -0.865108       -23.5408
  29   2.0000      -0.853097       -23.2139
  30   2.0000      -0.844668       -22.9846
  31   2.0000      -0.810630       -22.0584
  32   2.0000      -0.790408       -21.5081
  33   2.0000      -0.778442       -21.1825
  34   2.0000      -0.710011       -19.3204
  35   2.0000      -0.703534       -19.1441
  36   2.0000      -0.685716       -18.6593
  37   2.0000      -0.663121       -18.0444
  38   2.0000      -0.639531       -17.4025
  39   2.0000      -0.607343       -16.5267
  40   2.0000      -0.590837       -16.0775
  41   2.0000      -0.582420       -15.8484
  42   2.0000      -0.564058       -15.3488
  43   2.0000      -0.559546       -15.2260
  44   2.0000      -0.549258       -14.9461
  45   2.0000      -0.535602       -14.5745
  46   2.0000      -0.514945       -14.0124
  47   2.0000      -0.503232       -13.6936
  48   2.0000      -0.501612       -13.6495
  49   2.0000      -0.493934       -13.4406
  50   2.0000      -0.491409       -13.3719
  51   2.0000      -0.479550       -13.0492
  52   2.0000      -0.472594       -12.8599
  53   2.0000      -0.470917       -12.8143
  54   2.0000      -0.456705       -12.4276
  55   2.0000      -0.448099       -12.1934
  56   2.0000      -0.443467       -12.0673
  57   2.0000      -0.435262       -11.8441
  58   2.0000      -0.428647       -11.6641
  59   2.0000      -0.426620       -11.6089
  60   2.0000      -0.424788       -11.5591
  61   2.0000      -0.410937       -11.1822
  62   2.0000      -0.404659       -11.0113
  63   2.0000      -0.335030        -9.1166
  64   2.0000      -0.332596        -9.0504
  65   2.0000      -0.325070        -8.8456
  66   2.0000      -0.297733        -8.1017
  67   0.0000       0.027119         0.7379
  68   0.0000       0.055175         1.5014
  69   0.0000       0.098226         2.6729
  70   0.0000       0.106146         2.8884
  71   0.0000       0.128926         3.5082

MULLIKEN ATOMIC CHARGES
-----------------------
   0 S :    0.111777
   1 C :   -0.054976
   2 C :   -0.099208
   3 C :    0.022595
   4 C :   -0.181849
   5 H :    0.020075
   6 C :    0.037406
   7 H :    0.052405
   8 H :    0.024625
   9 C :   -0.053005
  10 H :    0.033934
  11 H :    0.027088
  12 C :   -0.047846
  13 H :    0.003923
  14 H :    0.033839
  15 H :    0.047201
  16 S :    0.109210
  17 C :   -0.085762
  18 C :   -0.036711
  19 C :   -0.029294
  20 C :   -0.135561
  21 H :    0.007585
  22 C :    0.019877
  23 H :    0.022194
  24 H :    0.029876
  25 C :   -0.020542
  26 H :    0.020649
  27 H :    0.031193
  28 C :   -0.061300
  29 H :    0.024694
  30 H :    0.039588
  31 H :    0.032290
  32 H :    0.005645
  33 H :    0.048384
Sum of atomic charges:   -0.0000000

LOEWDIN ATOMIC CHARGES
----------------------
   0 S :    0.415380
   1 C :   -0.182319
   2 C :   -0.054530
   3 C :   -0.060094
   4 C :   -0.206227
   5 H :    0.029730
   6 C :   -0.036652
   7 H :    0.042567
   8 H :    0.027987
   9 C :   -0.047694
  10 H :    0.031438
  11 H :    0.026124
  12 C :   -0.071930
  13 H :    0.012581
  14 H :    0.035118
  15 H :    0.033163
  16 S :    0.401052
  17 C :   -0.183520
  18 C :   -0.060636
  19 C :   -0.057422
  20 C :   -0.198877
  21 H :    0.024589
  22 C :   -0.038756
  23 H :    0.033172
  24 H :    0.030438
  25 C :   -0.032295
  26 H :    0.021050
  27 H :    0.027837
  28 C :   -0.071633
  29 H :    0.018447
  30 H :    0.031536
  31 H :    0.028016
  32 H :    0.007007
  33 H :    0.025357

  Mayer bond orders larger than 0.100000
B(  0-S ,  1-C ) :   1.1416 B(  0-S ,  4-C ) :   1.1569 B(  1-C ,  2-C ) :   1.6074
B(  1-C ,  4-C ) :   0.1023 B(  1-C , 32-H ) :   0.9708 B(  2-C ,  3-C ) :   1.2478
B(  2-C ,  6-C ) :   0.9994 B(  3-C ,  4-C ) :   1.5632 B(  3-C ,  5-H ) :   0.9920
B(  4-C , 20-C ) :   0.9992 B(  6-C ,  7-H ) :   0.9359 B(  6-C ,  8-H ) :   0.9463
B(  6-C ,  9-C ) :   1.0856 B(  9-C , 10-H ) :   0.9484 B(  9-C , 11-H ) :   0.9503
B(  9-C , 12-C ) :   1.0695 B( 12-C , 13-H ) :   0.9726 B( 12-C , 14-H ) :   0.9739
B( 12-C , 15-H ) :   0.9742 B( 16-S , 17-C ) :   1.1479 B( 16-S , 20-C ) :   1.1339
B( 17-C , 18-C ) :   1.6392 B( 17-C , 33-H ) :   0.9656 B( 18-C , 19-C ) :   1.1809
B( 18-C , 21-H ) :   1.0027 B( 19-C , 20-C ) :   1.6526 B( 19-C , 22-C ) :   1.0357
B( 22-C , 23-H ) :   0.9354 B( 22-C , 24-H ) :   0.9417 B( 22-C , 25-C ) :   1.0641
B( 25-C , 26-H ) :   0.9540 B( 25-C , 27-H ) :   0.9533 B( 25-C , 28-C ) :   1.0890
B( 28-C , 29-H ) :   0.9718 B( 28-C , 30-H ) :   0.9718 B( 28-C , 31-H ) :   0.9750

Dispersion correction           -0.014470789
FINAL SINGLE POINT ENERGY     -1339.826877492137

DIPOLE MOMENT
-------------
                                X             Y             Z
Electronic contribution:    -10.66027     -19.86168      -2.34723
Nuclear contribution   :     11.05302      20.37660       2.63717
                        -----------------------------------------
Total Dipole Moment    :      0.39275       0.51492       0.28994
                        -----------------------------------------
Magnitude (a.u.)       :      0.70955
Magnitude (Debye)      :      1.80352

Rotational constants in cm-1:     0.021216     0.007974     0.006519
Rotational constants in MHz :   636.050847   239.055487   195.431418

                             ****ORCA TERMINATED NORMALLY****
TOTAL RUN TIME: 0 days 0 hours 0 minutes 22 seconds 588 msec
