                         Program Version 4.2.1 -  RELEASE  -
|  1> ! wB97X-D3 SP def2-SVP
|  2> %pal
|  3> nprocs 24
|  4> end
|  5>
|  6> * xyz 0 1
|  7> S 	 -36.5241 	 -3.94774 	 6.53301
|  8> C 	 -36.5366 	 -3.10402 	 8.06806
|  9> C 	 -37.3472 	 -3.75059 	 9.01607
| 10> C 	 -38.0112 	 -4.87212 	 8.4683
| 11> C 	 -37.7063 	 -5.06421 	 7.14796
| 12> H 	 -38.6575 	 -5.55059 	 9.01409
| 13> C 	 -37.4782 	 -3.38223 	 10.4539
| 14> H 	 -36.5127 	 -3.23644 	 10.8333
| 15> H 	 -37.8582 	 -4.18569 	 11.0423
| 16> C 	 -38.407 	 -2.15546 	 10.7146
| 17> H 	 -38.3581 	 -1.36162 	 9.97433
| 18> H 	 -39.4712 	 -2.36337 	 10.5773
| 19> C 	 -38.1754 	 -1.51306 	 12.0529
| 20> H 	 -38.5428 	 -2.22956 	 12.8472
| 21> H 	 -37.0847 	 -1.25236 	 12.0678
| 22> H 	 -38.7146 	 -0.579146 	 12.1915
| 23> S 	 -37.0666 	 -7.15156 	 5.53421
| 24> C 	 -38.3031 	 -8.02932 	 4.63389
| 25> C 	 -39.5281 	 -7.55123 	 4.87896
| 26> C 	 -39.5394 	 -6.43077 	 5.78111
| 27> C 	 -38.285 	 -6.10777 	 6.29464
| 28> H 	 -40.3814 	 -8.00836 	 4.37616
| 29> C 	 -40.8966 	 -5.76478 	 6.06533
| 30> H 	 -40.8391 	 -5.13835 	 7.01389
| 31> H 	 -41.5383 	 -6.63202 	 6.35349
| 32> C 	 -41.5491 	 -5.05344 	 4.90264
| 33> H 	 -41.4127 	 -5.67272 	 4.01666
| 34> H 	 -40.915 	 -4.17644 	 4.7023
| 35> C 	 -42.9844 	 -4.76046 	 5.19781
| 36> H 	 -43.1205 	 -3.85763 	 5.89058
| 37> H 	 -43.4989 	 -5.52823 	 5.73037
| 38> H 	 -43.5937 	 -4.58075 	 4.24989
| 39> H 	 -35.8855 	 -2.28726 	 8.38378
| 40> H 	 -38.0425 	 -8.81271 	 3.91977
| 41> *
| 42>
| 43>                          ****END OF INPUT****

CARTESIAN COORDINATES (ANGSTROEM)
---------------------------------
  S    -36.524100   -3.947740    6.533010
  C    -36.536600   -3.104020    8.068060
  C    -37.347200   -3.750590    9.016070
  C    -38.011200   -4.872120    8.468300
  C    -37.706300   -5.064210    7.147960
  H    -38.657500   -5.550590    9.014090
  C    -37.478200   -3.382230   10.453900
  H    -36.512700   -3.236440   10.833300
  H    -37.858200   -4.185690   11.042300
  C    -38.407000   -2.155460   10.714600
  H    -38.358100   -1.361620    9.974330
  H    -39.471200   -2.363370   10.577300
  C    -38.175400   -1.513060   12.052900
  H    -38.542800   -2.229560   12.847200
  H    -37.084700   -1.252360   12.067800
  H    -38.714600   -0.579146   12.191500
  S    -37.066600   -7.151560    5.534210
  C    -38.303100   -8.029320    4.633890
  C    -39.528100   -7.551230    4.878960
  C    -39.539400   -6.430770    5.781110
  C    -38.285000   -6.107770    6.294640
  H    -40.381400   -8.008360    4.376160
  C    -40.896600   -5.764780    6.065330
  H    -40.839100   -5.138350    7.013890
  H    -41.538300   -6.632020    6.353490
  C    -41.549100   -5.053440    4.902640
  H    -41.412700   -5.672720    4.016660
  H    -40.915000   -4.176440    4.702300
  C    -42.984400   -4.760460    5.197810
  H    -43.120500   -3.857630    5.890580
  H    -43.498900   -5.528230    5.730370
  H    -43.593700   -4.580750    4.249890
  H    -35.885500   -2.287260    8.383780
  H    -38.042500   -8.812710    3.919770

 Total Charge           Charge          ....    0
 Multiplicity           Mult            ....    1
 Number of Electrons    NEL             ....  134
 Basis Dimension        Dim             ....  322

ORBITAL ENERGIES
----------------

  NO   OCC          E(Eh)            E(eV)
   0   2.0000     -88.971379     -2421.0343
   1   2.0000     -88.957780     -2420.6643
   2   2.0000     -10.328280      -281.0468
   3   2.0000     -10.326653      -281.0025
   4   2.0000     -10.314866      -280.6818
   5   2.0000     -10.314808      -280.6802
   6   2.0000     -10.307018      -280.4682
   7   2.0000     -10.298887      -280.2470
   8   2.0000     -10.295177      -280.1460
   9   2.0000     -10.290796      -280.0268
  10   2.0000     -10.290242      -280.0117
  11   2.0000     -10.286755      -279.9168
  12   2.0000     -10.284215      -279.8477
  13   2.0000     -10.283854      -279.8379
  14   2.0000     -10.283257      -279.8216
  15   2.0000     -10.282905      -279.8121
  16   2.0000      -8.085854      -220.0273
  17   2.0000      -8.072573      -219.6659
  18   2.0000      -6.044321      -164.4743
  19   2.0000      -6.040453      -164.3691
  20   2.0000      -6.036610      -164.2645
  21   2.0000      -6.031095      -164.1145
  22   2.0000      -6.027111      -164.0060
  23   2.0000      -6.023276      -163.9017
  24   2.0000      -1.006184       -27.3797
  25   2.0000      -0.983601       -26.7651
  26   2.0000      -0.914830       -24.8938
  27   2.0000      -0.911050       -24.7909
  28   2.0000      -0.869741       -23.6669
  29   2.0000      -0.855085       -23.2680
  30   2.0000      -0.844889       -22.9906
  31   2.0000      -0.816807       -22.2264
  32   2.0000      -0.779360       -21.2075
  33   2.0000      -0.766700       -20.8630
  34   2.0000      -0.704366       -19.1668
  35   2.0000      -0.700534       -19.0625
  36   2.0000      -0.692771       -18.8513
  37   2.0000      -0.659157       -17.9366
  38   2.0000      -0.642117       -17.4729
  39   2.0000      -0.621741       -16.9184
  40   2.0000      -0.596432       -16.2297
  41   2.0000      -0.573086       -15.5945
  42   2.0000      -0.559825       -15.2336
  43   2.0000      -0.554978       -15.1017
  44   2.0000      -0.529419       -14.4062
  45   2.0000      -0.522499       -14.2179
  46   2.0000      -0.518024       -14.0961
  47   2.0000      -0.513267       -13.9667
  48   2.0000      -0.508120       -13.8267
  49   2.0000      -0.501454       -13.6453
  50   2.0000      -0.492283       -13.3957
  51   2.0000      -0.477492       -12.9932
  52   2.0000      -0.469745       -12.7824
  53   2.0000      -0.464813       -12.6482
  54   2.0000      -0.453153       -12.3309
  55   2.0000      -0.450077       -12.2472
  56   2.0000      -0.444227       -12.0880
  57   2.0000      -0.436019       -11.8647
  58   2.0000      -0.435018       -11.8374
  59   2.0000      -0.429920       -11.6987
  60   2.0000      -0.413025       -11.2390
  61   2.0000      -0.412426       -11.2227
  62   2.0000      -0.411007       -11.1841
  63   2.0000      -0.343370        -9.3436
  64   2.0000      -0.333254        -9.0683
  65   2.0000      -0.326631        -8.8881
  66   2.0000      -0.295909        -8.0521
  67   0.0000       0.035659         0.9703
  68   0.0000       0.066398         1.8068
  69   0.0000       0.110731         3.0132
  70   0.0000       0.125563         3.4168
  71   0.0000       0.131226         3.5708

MULLIKEN ATOMIC CHARGES
-----------------------
   0 S :    0.138117
   1 C :   -0.118783
   2 C :   -0.099828
   3 C :    0.035424
   4 C :   -0.143823
   5 H :    0.014017
   6 C :    0.121561
   7 H :    0.010890
   8 H :    0.011005
   9 C :   -0.081841
  10 H :    0.016831
  11 H :    0.018459
  12 C :   -0.063284
  13 H :    0.042079
  14 H :    0.037717
  15 H :    0.033771
  16 S :    0.068650
  17 C :   -0.088007
  18 C :   -0.034917
  19 C :   -0.018651
  20 C :   -0.173856
  21 H :    0.026524
  22 C :    0.008695
  23 H :    0.034382
  24 H :    0.027475
  25 C :   -0.038621
  26 H :    0.021765
  27 H :    0.038513
  28 C :   -0.058775
  29 H :    0.040551
  30 H :    0.019861
  31 H :    0.045400
  32 H :    0.046943
  33 H :    0.061753
Sum of atomic charges:   -0.0000000

LOEWDIN ATOMIC CHARGES
----------------------
   0 S :    0.422214
   1 C :   -0.204925
   2 C :   -0.057728
   3 C :   -0.059345
   4 C :   -0.203176
   5 H :    0.034512
   6 C :   -0.023157
   7 H :    0.024896
   8 H :    0.029657
   9 C :   -0.048181
  10 H :    0.020876
  11 H :    0.023206
  12 C :   -0.070419
  13 H :    0.030513
  14 H :    0.029637
  15 H :    0.024767
  16 S :    0.373647
  17 C :   -0.172266
  18 C :   -0.078950
  19 C :   -0.055626
  20 C :   -0.189177
  21 H :    0.036128
  22 C :   -0.037885
  23 H :    0.032990
  24 H :    0.031019
  25 C :   -0.047906
  26 H :    0.023798
  27 H :    0.032617
  28 C :   -0.073106
  29 H :    0.035418
  30 H :    0.018459
  31 H :    0.035121
  32 H :    0.030111
  33 H :    0.032262

  Mayer bond orders larger than 0.100000
B(  0-S ,  1-C ) :   1.1376 B(  0-S ,  4-C ) :   1.1616 B(  1-C ,  2-C ) :   1.5968
B(  1-C ,  4-C ) :   0.1000 B(  1-C , 32-H ) :   0.9652 B(  2-C ,  3-C ) :   1.2567
B(  2-C ,  6-C ) :   1.0306 B(  3-C ,  4-C ) :   1.5701 B(  3-C ,  5-H ) :   0.9975
B(  4-C , 20-C ) :   1.0134 B(  6-C ,  7-H ) :   0.9392 B(  6-C ,  8-H ) :   0.9360
B(  6-C ,  9-C ) :   1.0403 B(  9-C , 10-H ) :   0.9611 B(  9-C , 11-H ) :   0.9505
B(  9-C , 12-C ) :   1.0874 B( 12-C , 13-H ) :   0.9737 B( 12-C , 14-H ) :   0.9758
B( 12-C , 15-H ) :   0.9725 B( 16-S , 17-C ) :   1.1389 B( 16-S , 20-C ) :   1.1252
B( 17-C , 18-C ) :   1.6477 B( 17-C , 33-H ) :   0.9645 B( 18-C , 19-C ) :   1.2049
B( 18-C , 21-H ) :   0.9872 B( 19-C , 20-C ) :   1.6345 B( 19-C , 22-C ) :   1.0302
B( 22-C , 23-H ) :   0.9409 B( 22-C , 24-H ) :   0.9370 B( 22-C , 25-C ) :   1.0631
B( 25-C , 26-H ) :   0.9553 B( 25-C , 27-H ) :   0.9483 B( 25-C , 28-C ) :   1.0766
B( 28-C , 29-H ) :   0.9718 B( 28-C , 30-H ) :   0.9742 B( 28-C , 31-H ) :   0.9733

Dispersion correction           -0.013334303
FINAL SINGLE POINT ENERGY     -1339.884331365969

DIPOLE MOMENT
-------------
                                X             Y             Z
Electronic contribution:     20.94013     -12.98750     -14.34467
Nuclear contribution   :    -21.45602      13.07621      14.59666
                        -----------------------------------------
Total Dipole Moment    :     -0.51588       0.08871       0.25200
                        -----------------------------------------
Magnitude (a.u.)       :      0.58095
Magnitude (Debye)      :      1.47667

Rotational constants in cm-1:     0.018341     0.007820     0.006106
Rotational constants in MHz :   549.852975   234.424146   183.046024

                             ****ORCA TERMINATED NORMALLY****
TOTAL RUN TIME: 0 days 0 hours 0 minutes 20 seconds 817 msec
