                         Program Version 4.2.1 -  RELEASE  -
|  1> ! wB97X-D3 SP def2-SVP
|  2> %pal
|  3> nprocs 24
|  4> end
|  5>
|  6> * xyz 0 1
|  7> S 	 -139.689 	 8.21926 	 3.69986
|  8> C 	 -140.468 	 8.78549 	 2.23156
|  9> C 	 -141.82 	 8.62367 	 2.28934
| 10> C 	 -142.14 	 7.71634 	 3.34794
| 11> C 	 -141.103 	 7.2906 	 4.16842
| 12> H 	 -143.22 	 7.4011 	 3.56011
| 13> C 	 -142.969 	 9.08614 	 1.36838
| 14> H 	 -143.67 	 8.23759 	 1.27002
| 15> H 	 -142.613 	 9.24459 	 0.369579
| 16> C 	 -143.815 	 10.3216 	 1.86666
| 17> H 	 -144.038 	 10.2761 	 2.93571
| 18> H 	 -143.209 	 11.2646 	 1.94754
| 19> C 	 -145.122 	 10.5358 	 1.16768
| 20> H 	 -145.663 	 9.5877 	 1.15587
| 21> H 	 -145.727 	 11.2875 	 1.76853
| 22> H 	 -144.942 	 10.9033 	 0.130693
| 23> S 	 -139.659 	 6.48811 	 6.38671
| 24> C 	 -140.279 	 5.30744 	 7.48559
| 25> C 	 -141.585 	 4.91537 	 7.12755
| 26> C 	 -142.063 	 5.57776 	 5.90704
| 27> C 	 -141.14 	 6.51096 	 5.45984
| 28> H 	 -142.163 	 4.19156 	 7.75006
| 29> C 	 -143.385 	 5.19408 	 5.32041
| 30> H 	 -143.595 	 4.17183 	 5.46006
| 31> H 	 -143.369 	 5.28014 	 4.15438
| 32> C 	 -144.55 	 6.01179 	 5.77226
| 33> H 	 -144.292 	 7.04366 	 5.64694
| 34> H 	 -144.641 	 5.80997 	 6.85842
| 35> C 	 -145.946 	 5.73059 	 5.12793
| 36> H 	 -146.769 	 6.21663 	 5.69485
| 37> H 	 -146.27 	 4.7512 	 5.37718
| 38> H 	 -146.137 	 6.02946 	 4.11939
| 39> H 	 -139.86 	 9.41939 	 1.53523
| 40> H 	 -139.782 	 4.93309 	 8.38947
| 41> *
| 42>
| 43>                          ****END OF INPUT****

CARTESIAN COORDINATES (ANGSTROEM)
---------------------------------
  S    -139.689000    8.219260    3.699860
  C    -140.468000    8.785490    2.231560
  C    -141.820000    8.623670    2.289340
  C    -142.140000    7.716340    3.347940
  C    -141.103000    7.290600    4.168420
  H    -143.220000    7.401100    3.560110
  C    -142.969000    9.086140    1.368380
  H    -143.670000    8.237590    1.270020
  H    -142.613000    9.244590    0.369579
  C    -143.815000   10.321600    1.866660
  H    -144.038000   10.276100    2.935710
  H    -143.209000   11.264600    1.947540
  C    -145.122000   10.535800    1.167680
  H    -145.663000    9.587700    1.155870
  H    -145.727000   11.287500    1.768530
  H    -144.942000   10.903300    0.130693
  S    -139.659000    6.488110    6.386710
  C    -140.279000    5.307440    7.485590
  C    -141.585000    4.915370    7.127550
  C    -142.063000    5.577760    5.907040
  C    -141.140000    6.510960    5.459840
  H    -142.163000    4.191560    7.750060
  C    -143.385000    5.194080    5.320410
  H    -143.595000    4.171830    5.460060
  H    -143.369000    5.280140    4.154380
  C    -144.550000    6.011790    5.772260
  H    -144.292000    7.043660    5.646940
  H    -144.641000    5.809970    6.858420
  C    -145.946000    5.730590    5.127930
  H    -146.769000    6.216630    5.694850
  H    -146.270000    4.751200    5.377180
  H    -146.137000    6.029460    4.119390
  H    -139.860000    9.419390    1.535230
  H    -139.782000    4.933090    8.389470

 Total Charge           Charge          ....    0
 Multiplicity           Mult            ....    1
 Number of Electrons    NEL             ....  134
 Basis Dimension        Dim             ....  322

ORBITAL ENERGIES
----------------

  NO   OCC          E(Eh)            E(eV)
   0   2.0000     -88.969893     -2420.9939
   1   2.0000     -88.963303     -2420.8145
   2   2.0000     -10.335464      -281.2423
   3   2.0000     -10.335250      -281.2365
   4   2.0000     -10.322965      -280.9022
   5   2.0000     -10.320067      -280.8233
   6   2.0000     -10.309296      -280.5302
   7   2.0000     -10.305414      -280.4246
   8   2.0000     -10.304731      -280.4060
   9   2.0000     -10.301438      -280.3164
  10   2.0000     -10.298665      -280.2409
  11   2.0000     -10.292879      -280.0835
  12   2.0000     -10.290590      -280.0212
  13   2.0000     -10.288205      -279.9563
  14   2.0000     -10.286938      -279.9218
  15   2.0000     -10.280106      -279.7359
  16   2.0000      -8.084945      -220.0025
  17   2.0000      -8.078260      -219.8206
  18   2.0000      -6.043545      -164.4532
  19   2.0000      -6.039401      -164.3405
  20   2.0000      -6.036874      -164.2717
  21   2.0000      -6.035608      -164.2372
  22   2.0000      -6.032965      -164.1653
  23   2.0000      -6.028671      -164.0485
  24   2.0000      -1.006659       -27.3926
  25   2.0000      -0.985692       -26.8220
  26   2.0000      -0.915831       -24.9210
  27   2.0000      -0.906917       -24.6785
  28   2.0000      -0.867486       -23.6055
  29   2.0000      -0.853247       -23.2180
  30   2.0000      -0.843181       -22.9441
  31   2.0000      -0.811067       -22.0703
  32   2.0000      -0.787010       -21.4156
  33   2.0000      -0.776336       -21.1252
  34   2.0000      -0.705654       -19.2018
  35   2.0000      -0.697838       -18.9891
  36   2.0000      -0.688501       -18.7351
  37   2.0000      -0.665753       -18.1161
  38   2.0000      -0.635460       -17.2917
  39   2.0000      -0.621397       -16.9091
  40   2.0000      -0.598531       -16.2868
  41   2.0000      -0.572864       -15.5884
  42   2.0000      -0.563188       -15.3251
  43   2.0000      -0.553009       -15.0481
  44   2.0000      -0.526963       -14.3394
  45   2.0000      -0.520114       -14.1530
  46   2.0000      -0.515009       -14.0141
  47   2.0000      -0.513659       -13.9774
  48   2.0000      -0.501474       -13.6458
  49   2.0000      -0.499664       -13.5965
  50   2.0000      -0.495748       -13.4900
  51   2.0000      -0.484345       -13.1797
  52   2.0000      -0.474358       -12.9079
  53   2.0000      -0.464379       -12.6364
  54   2.0000      -0.461044       -12.5456
  55   2.0000      -0.453500       -12.3404
  56   2.0000      -0.445930       -12.1344
  57   2.0000      -0.438385       -11.9291
  58   2.0000      -0.433383       -11.7929
  59   2.0000      -0.424759       -11.5583
  60   2.0000      -0.417370       -11.3572
  61   2.0000      -0.411992       -11.2109
  62   2.0000      -0.408986       -11.1291
  63   2.0000      -0.362003        -9.8506
  64   2.0000      -0.334485        -9.1018
  65   2.0000      -0.325713        -8.8631
  66   2.0000      -0.286844        -7.8054
  67   0.0000       0.021048         0.5728
  68   0.0000       0.081517         2.2182
  69   0.0000       0.092430         2.5151
  70   0.0000       0.115662         3.1473
  71   0.0000       0.123720         3.3666

MULLIKEN ATOMIC CHARGES
-----------------------
   0 S :    0.071932
   1 C :   -0.148776
   2 C :   -0.034993
   3 C :   -0.056661
   4 C :   -0.078400
   5 H :    0.028345
   6 C :    0.067662
   7 H :    0.023754
   8 H :    0.020991
   9 C :   -0.091942
  10 H :    0.019555
  11 H :    0.028910
  12 C :   -0.058529
  13 H :    0.032585
  14 H :    0.047936
  15 H :    0.043572
  16 S :    0.101540
  17 C :   -0.095413
  18 C :   -0.045962
  19 C :   -0.065484
  20 C :   -0.103093
  21 H :    0.036163
  22 C :    0.044062
  23 H :    0.007867
  24 H :    0.035064
  25 C :   -0.073250
  26 H :    0.029865
  27 H :    0.023534
  28 C :   -0.019296
  29 H :    0.021589
  30 H :    0.014087
  31 H :    0.036167
  32 H :    0.067878
  33 H :    0.068741
Sum of atomic charges:    0.0000000

LOEWDIN ATOMIC CHARGES
----------------------
   0 S :    0.386616
   1 C :   -0.190584
   2 C :   -0.066523
   3 C :   -0.078501
   4 C :   -0.184589
   5 H :    0.036525
   6 C :   -0.024663
   7 H :    0.031728
   8 H :    0.026459
   9 C :   -0.055423
  10 H :    0.023737
  11 H :    0.028291
  12 C :   -0.069078
  13 H :    0.024056
  14 H :    0.037548
  15 H :    0.028124
  16 S :    0.415669
  17 C :   -0.198298
  18 C :   -0.071529
  19 C :   -0.055178
  20 C :   -0.190352
  21 H :    0.037089
  22 C :   -0.040276
  23 H :    0.022391
  24 H :    0.037747
  25 C :   -0.039952
  26 H :    0.019240
  27 H :    0.028445
  28 C :   -0.070128
  29 H :    0.035475
  30 H :    0.021875
  31 H :    0.021517
  32 H :    0.036001
  33 H :    0.036540

  Mayer bond orders larger than 0.100000
B(  0-S ,  1-C ) :   1.1373 B(  0-S ,  4-C ) :   1.1388 B(  1-C ,  2-C ) :   1.6102
B(  1-C , 32-H ) :   0.9653 B(  2-C ,  3-C ) :   1.2518 B(  2-C ,  6-C ) :   1.0177
B(  3-C ,  4-C ) :   1.5792 B(  3-C ,  5-H ) :   0.9719 B(  4-C , 20-C ) :   1.0489
B(  6-C ,  7-H ) :   0.9482 B(  6-C ,  8-H ) :   0.9449 B(  6-C ,  9-C ) :   1.0436
B(  9-C , 10-H ) :   0.9566 B(  9-C , 11-H ) :   0.9504 B(  9-C , 12-C ) :   1.0864
B( 12-C , 13-H ) :   0.9724 B( 12-C , 14-H ) :   0.9725 B( 12-C , 15-H ) :   0.9749
B( 16-S , 17-C ) :   1.1607 B( 16-S , 20-C ) :   1.1335 B( 17-C , 18-C ) :   1.6097
B( 17-C , 33-H ) :   0.9656 B( 18-C , 19-C ) :   1.2383 B( 18-C , 21-H ) :   0.9820
B( 19-C , 20-C ) :   1.6026 B( 19-C , 22-C ) :   1.0546 B( 22-C , 23-H ) :   0.9277
B( 22-C , 24-H ) :   0.9293 B( 22-C , 25-C ) :   1.0672 B( 25-C , 26-H ) :   0.9554
B( 25-C , 27-H ) :   0.9484 B( 25-C , 28-C ) :   1.0845 B( 28-C , 29-H ) :   0.9675
B( 28-C , 30-H ) :   0.9690 B( 28-C , 31-H ) :   0.9771

Dispersion correction           -0.013758238
FINAL SINGLE POINT ENERGY     -1339.871059216006

DIPOLE MOMENT
-------------
                                X             Y             Z
Electronic contribution:     32.21082      -4.32441      10.04863
Nuclear contribution   :    -32.94940       4.29072     -10.06135
                        -----------------------------------------
Total Dipole Moment    :     -0.73858      -0.03369      -0.01273
                        -----------------------------------------
Magnitude (a.u.)       :      0.73945
Magnitude (Debye)      :      1.87954

Rotational constants in cm-1:     0.017153     0.009268     0.006282
Rotational constants in MHz :   514.236815   277.843143   188.315370

                             ****ORCA TERMINATED NORMALLY****
TOTAL RUN TIME: 0 days 0 hours 0 minutes 21 seconds 358 msec
