                         Program Version 4.2.1 -  RELEASE  -
|  1> ! wB97X-D3 SP def2-SVP
|  2> %pal
|  3> nprocs 24
|  4> end
|  5>
|  6> * xyz 0 1
|  7> S 	 -31.8625 	 -37.2731 	 -94.9919
|  8> C 	 -30.6684 	 -36.7656 	 -93.8402
|  9> C 	 -31.0484 	 -37.0176 	 -92.5735
| 10> C 	 -32.3965 	 -37.5677 	 -92.5207
| 11> C 	 -32.9686 	 -37.648 	 -93.733
| 12> H 	 -33.0457 	 -37.7437 	 -91.7023
| 13> C 	 -30.2688 	 -36.7635 	 -91.2882
| 14> H 	 -30.9075 	 -36.2625 	 -90.5436
| 15> H 	 -29.3517 	 -36.192 	 -91.4686
| 16> C 	 -29.9165 	 -37.9908 	 -90.5236
| 17> H 	 -29.1 	 -38.4805 	 -90.9947
| 18> H 	 -29.603 	 -37.7774 	 -89.4846
| 19> C 	 -31.0113 	 -38.9977 	 -90.18
| 20> H 	 -31.9473 	 -38.7313 	 -89.6242
| 21> H 	 -31.2817 	 -39.5356 	 -91.0935
| 22> H 	 -30.6862 	 -39.7843 	 -89.5128
| 23> S 	 -34.7061 	 -39.699 	 -94.488
| 24> C 	 -36.2217 	 -39.2789 	 -95.1802
| 25> C 	 -36.5257 	 -37.9158 	 -95.0056
| 26> C 	 -35.4789 	 -37.2097 	 -94.3522
| 27> C 	 -34.328 	 -37.9816 	 -94.1572
| 28> H 	 -37.4683 	 -37.5477 	 -95.2905
| 29> C 	 -35.7398 	 -35.7875 	 -93.8091
| 30> H 	 -35.252 	 -35.6512 	 -92.7758
| 31> H 	 -36.806 	 -35.6563 	 -93.629
| 32> C 	 -35.245 	 -34.6205 	 -94.5727
| 33> H 	 -35.7046 	 -34.7305 	 -95.5304
| 34> H 	 -34.1601 	 -34.7966 	 -94.7654
| 35> C 	 -35.2712 	 -33.2612 	 -93.9442
| 36> H 	 -35.3221 	 -32.5429 	 -94.7338
| 37> H 	 -34.4432 	 -33.0804 	 -93.328
| 38> H 	 -36.0566 	 -33.215 	 -93.2451
| 39> H 	 -29.6359 	 -36.4103 	 -94.1935
| 40> H 	 -36.9643 	 -40.0463 	 -95.4715
| 41> *
| 42>
| 43>                          ****END OF INPUT****

CARTESIAN COORDINATES (ANGSTROEM)
---------------------------------
  S    -31.862500  -37.273100  -94.991900
  C    -30.668400  -36.765600  -93.840200
  C    -31.048400  -37.017600  -92.573500
  C    -32.396500  -37.567700  -92.520700
  C    -32.968600  -37.648000  -93.733000
  H    -33.045700  -37.743700  -91.702300
  C    -30.268800  -36.763500  -91.288200
  H    -30.907500  -36.262500  -90.543600
  H    -29.351700  -36.192000  -91.468600
  C    -29.916500  -37.990800  -90.523600
  H    -29.100000  -38.480500  -90.994700
  H    -29.603000  -37.777400  -89.484600
  C    -31.011300  -38.997700  -90.180000
  H    -31.947300  -38.731300  -89.624200
  H    -31.281700  -39.535600  -91.093500
  H    -30.686200  -39.784300  -89.512800
  S    -34.706100  -39.699000  -94.488000
  C    -36.221700  -39.278900  -95.180200
  C    -36.525700  -37.915800  -95.005600
  C    -35.478900  -37.209700  -94.352200
  C    -34.328000  -37.981600  -94.157200
  H    -37.468300  -37.547700  -95.290500
  C    -35.739800  -35.787500  -93.809100
  H    -35.252000  -35.651200  -92.775800
  H    -36.806000  -35.656300  -93.629000
  C    -35.245000  -34.620500  -94.572700
  H    -35.704600  -34.730500  -95.530400
  H    -34.160100  -34.796600  -94.765400
  C    -35.271200  -33.261200  -93.944200
  H    -35.322100  -32.542900  -94.733800
  H    -34.443200  -33.080400  -93.328000
  H    -36.056600  -33.215000  -93.245100
  H    -29.635900  -36.410300  -94.193500
  H    -36.964300  -40.046300  -95.471500

 Total Charge           Charge          ....    0
 Multiplicity           Mult            ....    1
 Number of Electrons    NEL             ....  134
 Basis Dimension        Dim             ....  322

ORBITAL ENERGIES
----------------

  NO   OCC          E(Eh)            E(eV)
   0   2.0000     -88.965777     -2420.8819
   1   2.0000     -88.958520     -2420.6844
   2   2.0000     -10.327827      -281.0345
   3   2.0000     -10.320995      -280.8485
   4   2.0000     -10.319963      -280.8205
   5   2.0000     -10.316311      -280.7211
   6   2.0000     -10.308345      -280.5043
   7   2.0000     -10.302297      -280.3397
   8   2.0000     -10.293227      -280.0929
   9   2.0000     -10.292715      -280.0790
  10   2.0000     -10.292168      -280.0641
  11   2.0000     -10.289464      -279.9906
  12   2.0000     -10.282344      -279.7968
  13   2.0000     -10.276749      -279.6446
  14   2.0000     -10.270606      -279.4774
  15   2.0000     -10.263872      -279.2942
  16   2.0000      -8.080493      -219.8814
  17   2.0000      -8.074710      -219.7240
  18   2.0000      -6.038841      -164.3252
  19   2.0000      -6.034980      -164.2202
  20   2.0000      -6.033192      -164.1715
  21   2.0000      -6.031452      -164.1241
  22   2.0000      -6.029047      -164.0587
  23   2.0000      -6.025329      -163.9575
  24   2.0000      -1.010900       -27.5080
  25   2.0000      -0.985511       -26.8171
  26   2.0000      -0.918683       -24.9986
  27   2.0000      -0.913538       -24.8586
  28   2.0000      -0.869822       -23.6691
  29   2.0000      -0.853618       -23.2281
  30   2.0000      -0.843807       -22.9612
  31   2.0000      -0.815781       -22.1985
  32   2.0000      -0.791192       -21.5294
  33   2.0000      -0.777649       -21.1609
  34   2.0000      -0.702900       -19.1269
  35   2.0000      -0.694449       -18.8969
  36   2.0000      -0.683896       -18.6097
  37   2.0000      -0.661078       -17.9889
  38   2.0000      -0.648891       -17.6572
  39   2.0000      -0.615391       -16.7457
  40   2.0000      -0.597850       -16.2683
  41   2.0000      -0.580140       -15.7864
  42   2.0000      -0.566555       -15.4168
  43   2.0000      -0.551877       -15.0173
  44   2.0000      -0.543081       -14.7780
  45   2.0000      -0.528669       -14.3858
  46   2.0000      -0.514911       -14.0114
  47   2.0000      -0.508375       -13.8336
  48   2.0000      -0.505643       -13.7593
  49   2.0000      -0.498470       -13.5641
  50   2.0000      -0.493869       -13.4389
  51   2.0000      -0.484542       -13.1850
  52   2.0000      -0.476951       -12.9785
  53   2.0000      -0.466621       -12.6974
  54   2.0000      -0.461968       -12.5708
  55   2.0000      -0.445484       -12.1222
  56   2.0000      -0.442566       -12.0428
  57   2.0000      -0.434068       -11.8116
  58   2.0000      -0.432743       -11.7755
  59   2.0000      -0.424458       -11.5501
  60   2.0000      -0.418615       -11.3911
  61   2.0000      -0.402295       -10.9470
  62   2.0000      -0.397484       -10.8161
  63   2.0000      -0.334501        -9.1022
  64   2.0000      -0.329396        -8.9633
  65   2.0000      -0.321436        -8.7467
  66   2.0000      -0.311308        -8.4711
  67   0.0000       0.043390         1.1807
  68   0.0000       0.058031         1.5791
  69   0.0000       0.106354         2.8941
  70   0.0000       0.121561         3.3078
  71   0.0000       0.129833         3.5329

MULLIKEN ATOMIC CHARGES
-----------------------
   0 S :    0.113843
   1 C :   -0.163498
   2 C :   -0.073111
   3 C :    0.068688
   4 C :   -0.173857
   5 H :   -0.003935
   6 C :    0.115251
   7 H :    0.025678
   8 H :    0.025349
   9 C :   -0.064995
  10 H :    0.019851
  11 H :    0.027385
  12 C :   -0.095172
  13 H :    0.035392
  14 H :    0.040892
  15 H :    0.024116
  16 S :    0.118973
  17 C :   -0.108149
  18 C :   -0.029047
  19 C :    0.025203
  20 C :   -0.201680
  21 H :    0.001453
  22 C :    0.036838
  23 H :    0.025359
  24 H :    0.018613
  25 C :   -0.092663
  26 H :    0.011452
  27 H :    0.028154
  28 C :    0.041850
  29 H :    0.034852
  30 H :    0.017398
  31 H :    0.002020
  32 H :    0.073427
  33 H :    0.074073
Sum of atomic charges:   -0.0000000

LOEWDIN ATOMIC CHARGES
----------------------
   0 S :    0.418611
   1 C :   -0.206675
   2 C :   -0.066310
   3 C :   -0.053431
   4 C :   -0.204282
   5 H :    0.029519
   6 C :   -0.030650
   7 H :    0.035729
   8 H :    0.033349
   9 C :   -0.042222
  10 H :    0.019948
  11 H :    0.028987
  12 C :   -0.080517
  13 H :    0.028851
  14 H :    0.024831
  15 H :    0.026320
  16 S :    0.411936
  17 C :   -0.198464
  18 C :   -0.069046
  19 C :   -0.044874
  20 C :   -0.201118
  21 H :    0.023357
  22 C :   -0.034777
  23 H :    0.034441
  24 H :    0.025560
  25 C :   -0.052562
  26 H :    0.016351
  27 H :    0.027803
  28 C :   -0.050765
  29 H :    0.031099
  30 H :    0.022875
  31 H :    0.016739
  32 H :    0.043666
  33 H :    0.035720

  Mayer bond orders larger than 0.100000
B(  0-S ,  1-C ) :   1.1310 B(  0-S ,  4-C ) :   1.1505 B(  1-C ,  2-C ) :   1.6670
B(  1-C , 32-H ) :   0.9574 B(  2-C ,  3-C ) :   1.1664 B(  2-C ,  6-C ) :   1.0251
B(  3-C ,  4-C ) :   1.6510 B(  3-C ,  5-H ) :   1.0001 B(  4-C , 20-C ) :   0.9876
B(  6-C ,  7-H ) :   0.9360 B(  6-C ,  8-H ) :   0.9410 B(  6-C ,  9-C ) :   1.0770
B(  9-C , 10-H ) :   0.9483 B(  9-C , 11-H ) :   0.9582 B(  9-C , 12-C ) :   1.0857
B( 12-C , 13-H ) :   0.9706 B( 12-C , 14-H ) :   0.9642 B( 12-C , 15-H ) :   0.9682
B( 16-S , 17-C ) :   1.1829 B( 16-S , 20-C ) :   1.1519 B( 17-C , 18-C ) :   1.5699
B( 17-C , 20-C ) :   0.1116 B( 17-C , 33-H ) :   0.9618 B( 18-C , 19-C ) :   1.2611
B( 18-C , 21-H ) :   0.9995 B( 19-C , 20-C ) :   1.5852 B( 19-C , 22-C ) :   1.0308
B( 22-C , 23-H ) :   0.9388 B( 22-C , 24-H ) :   0.9315 B( 22-C , 25-C ) :   1.0786
B( 25-C , 26-H ) :   0.9525 B( 25-C , 27-H ) :   0.9530 B( 25-C , 28-C ) :   1.0768
B( 28-C , 29-H ) :   0.9707 B( 28-C , 30-H ) :   0.9688 B( 28-C , 31-H ) :   0.9716

Dispersion correction           -0.014699905
FINAL SINGLE POINT ENERGY     -1339.858668677915

DIPOLE MOMENT
-------------
                                X             Y             Z
Electronic contribution:     -2.15054     -13.70796     -15.83746
Nuclear contribution   :      2.09710      13.94324      16.32520
                        -----------------------------------------
Total Dipole Moment    :     -0.05343       0.23528       0.48774
                        -----------------------------------------
Magnitude (a.u.)       :      0.54416
Magnitude (Debye)      :      1.38313

Rotational constants in cm-1:     0.017575     0.009282     0.007509
Rotational constants in MHz :   526.898013   278.275913   225.108053

                             ****ORCA TERMINATED NORMALLY****
TOTAL RUN TIME: 0 days 0 hours 0 minutes 21 seconds 774 msec
