                         Program Version 4.2.1 -  RELEASE  -
|  1> ! wB97X-D3 SP def2-SVP
|  2> %pal
|  3> nprocs 24
|  4> end
|  5>
|  6> * xyz 0 1
|  7> S 	 -52.007 	 16.0381 	 -88.4088
|  8> C 	 -50.6264 	 17.1607 	 -88.1841
|  9> C 	 -49.5055 	 16.639 	 -88.837
| 10> C 	 -49.7488 	 15.3169 	 -89.419
| 11> C 	 -51.0542 	 14.8505 	 -89.3179
| 12> H 	 -49.0289 	 14.66 	 -89.807
| 13> C 	 -48.0903 	 17.3141 	 -88.8831
| 14> H 	 -47.3554 	 16.5289 	 -88.8279
| 15> H 	 -48.0588 	 17.6862 	 -87.8294
| 16> C 	 -47.9968 	 18.3518 	 -89.9664
| 17> H 	 -48.7013 	 19.1216 	 -89.6078
| 18> H 	 -47.0226 	 18.8042 	 -89.958
| 19> C 	 -48.183 	 17.7501 	 -91.4216
| 20> H 	 -48.9385 	 16.9553 	 -91.5604
| 21> H 	 -48.3892 	 18.5679 	 -92.0911
| 22> H 	 -47.2375 	 17.3646 	 -91.709
| 23> S 	 -52.6964 	 12.7554 	 -88.6968
| 24> C 	 -52.8811 	 11.3564 	 -89.8167
| 25> C 	 -51.993 	 11.5402 	 -90.8329
| 26> C 	 -51.2854 	 12.7293 	 -90.8517
| 27> C 	 -51.5443 	 13.5604 	 -89.7536
| 28> H 	 -51.9219 	 10.6941 	 -91.4311
| 29> C 	 -50.2238 	 12.9947 	 -91.8899
| 30> H 	 -49.2986 	 13.0796 	 -91.3222
| 31> H 	 -50.2953 	 14.0562 	 -92.2759
| 32> C 	 -50.0726 	 11.9677 	 -93.0133
| 33> H 	 -50.9901 	 11.9269 	 -93.5131
| 34> H 	 -49.8698 	 11.1199 	 -92.4217
| 35> C 	 -49.0755 	 12.3315 	 -94.0644
| 36> H 	 -48.1635 	 12.7211 	 -93.6757
| 37> H 	 -49.5367 	 13.023 	 -94.8251
| 38> H 	 -48.8342 	 11.4093 	 -94.6345
| 39> H 	 -50.6497 	 18.05 	 -87.6842
| 40> H 	 -53.3041 	 10.4029 	 -89.6305
| 41> *
| 42>
| 43>                          ****END OF INPUT****

CARTESIAN COORDINATES (ANGSTROEM)
---------------------------------
  S    -52.007000   16.038100  -88.408800
  C    -50.626400   17.160700  -88.184100
  C    -49.505500   16.639000  -88.837000
  C    -49.748800   15.316900  -89.419000
  C    -51.054200   14.850500  -89.317900
  H    -49.028900   14.660000  -89.807000
  C    -48.090300   17.314100  -88.883100
  H    -47.355400   16.528900  -88.827900
  H    -48.058800   17.686200  -87.829400
  C    -47.996800   18.351800  -89.966400
  H    -48.701300   19.121600  -89.607800
  H    -47.022600   18.804200  -89.958000
  C    -48.183000   17.750100  -91.421600
  H    -48.938500   16.955300  -91.560400
  H    -48.389200   18.567900  -92.091100
  H    -47.237500   17.364600  -91.709000
  S    -52.696400   12.755400  -88.696800
  C    -52.881100   11.356400  -89.816700
  C    -51.993000   11.540200  -90.832900
  C    -51.285400   12.729300  -90.851700
  C    -51.544300   13.560400  -89.753600
  H    -51.921900   10.694100  -91.431100
  C    -50.223800   12.994700  -91.889900
  H    -49.298600   13.079600  -91.322200
  H    -50.295300   14.056200  -92.275900
  C    -50.072600   11.967700  -93.013300
  H    -50.990100   11.926900  -93.513100
  H    -49.869800   11.119900  -92.421700
  C    -49.075500   12.331500  -94.064400
  H    -48.163500   12.721100  -93.675700
  H    -49.536700   13.023000  -94.825100
  H    -48.834200   11.409300  -94.634500
  H    -50.649700   18.050000  -87.684200
  H    -53.304100   10.402900  -89.630500

 Total Charge           Charge          ....    0
 Multiplicity           Mult            ....    1
 Number of Electrons    NEL             ....  134
 Basis Dimension        Dim             ....  322

ORBITAL ENERGIES
----------------

  NO   OCC          E(Eh)            E(eV)
   0   2.0000     -88.966033     -2420.8888
   1   2.0000     -88.964607     -2420.8500
   2   2.0000     -10.334925      -281.2276
   3   2.0000     -10.331366      -281.1308
   4   2.0000     -10.315899      -280.7099
   5   2.0000     -10.315716      -280.7049
   6   2.0000     -10.309121      -280.5254
   7   2.0000     -10.303695      -280.3778
   8   2.0000     -10.294892      -280.1382
   9   2.0000     -10.294137      -280.1177
  10   2.0000     -10.291974      -280.0588
  11   2.0000     -10.291554      -280.0474
  12   2.0000     -10.284762      -279.8626
  13   2.0000     -10.282282      -279.7951
  14   2.0000     -10.278442      -279.6906
  15   2.0000     -10.278198      -279.6840
  16   2.0000      -8.079531      -219.8552
  17   2.0000      -8.078354      -219.8232
  18   2.0000      -6.038322      -164.3111
  19   2.0000      -6.036913      -164.2728
  20   2.0000      -6.034110      -164.1965
  21   2.0000      -6.032894      -164.1634
  22   2.0000      -6.030134      -164.0883
  23   2.0000      -6.029200      -164.0629
  24   2.0000      -1.004234       -27.3266
  25   2.0000      -0.977864       -26.6090
  26   2.0000      -0.917779       -24.9740
  27   2.0000      -0.909380       -24.7455
  28   2.0000      -0.873501       -23.7692
  29   2.0000      -0.854309       -23.2469
  30   2.0000      -0.835785       -22.7429
  31   2.0000      -0.820985       -22.3401
  32   2.0000      -0.783797       -21.3282
  33   2.0000      -0.774217       -21.0675
  34   2.0000      -0.712805       -19.3964
  35   2.0000      -0.710535       -19.3346
  36   2.0000      -0.703762       -19.1503
  37   2.0000      -0.654160       -17.8006
  38   2.0000      -0.645422       -17.5628
  39   2.0000      -0.614968       -16.7341
  40   2.0000      -0.596230       -16.2242
  41   2.0000      -0.584238       -15.8979
  42   2.0000      -0.576298       -15.6819
  43   2.0000      -0.550860       -14.9897
  44   2.0000      -0.547370       -14.8947
  45   2.0000      -0.528634       -14.3849
  46   2.0000      -0.517578       -14.0840
  47   2.0000      -0.514193       -13.9919
  48   2.0000      -0.507777       -13.8173
  49   2.0000      -0.499821       -13.6008
  50   2.0000      -0.488857       -13.3025
  51   2.0000      -0.481496       -13.1022
  52   2.0000      -0.475549       -12.9404
  53   2.0000      -0.470065       -12.7911
  54   2.0000      -0.457476       -12.4486
  55   2.0000      -0.451499       -12.2859
  56   2.0000      -0.442937       -12.0529
  57   2.0000      -0.436919       -11.8892
  58   2.0000      -0.430336       -11.7100
  59   2.0000      -0.423933       -11.5358
  60   2.0000      -0.418432       -11.3861
  61   2.0000      -0.411825       -11.2063
  62   2.0000      -0.407714       -11.0945
  63   2.0000      -0.356953        -9.7132
  64   2.0000      -0.330828        -9.0023
  65   2.0000      -0.327727        -8.9179
  66   2.0000      -0.286700        -7.8015
  67   0.0000       0.016998         0.4625
  68   0.0000       0.075514         2.0548
  69   0.0000       0.104946         2.8557
  70   0.0000       0.124649         3.3919
  71   0.0000       0.130832         3.5601

MULLIKEN ATOMIC CHARGES
-----------------------
   0 S :    0.100970
   1 C :   -0.084430
   2 C :   -0.110306
   3 C :    0.018426
   4 C :   -0.121382
   5 H :   -0.012434
   6 C :    0.048249
   7 H :    0.016969
   8 H :    0.029582
   9 C :   -0.031739
  10 H :    0.031469
  11 H :    0.028709
  12 C :   -0.050126
  13 H :    0.054623
  14 H :    0.034515
  15 H :    0.020447
  16 S :    0.086503
  17 C :   -0.066611
  18 C :   -0.066162
  19 C :    0.010785
  20 C :   -0.146251
  21 H :   -0.000545
  22 C :   -0.007982
  23 H :    0.028054
  24 H :    0.032186
  25 C :   -0.035314
  26 H :    0.025133
  27 H :    0.025622
  28 C :   -0.019275
  29 H :    0.023439
  30 H :    0.042191
  31 H :    0.033924
  32 H :    0.015019
  33 H :    0.045741
Sum of atomic charges:    0.0000000

LOEWDIN ATOMIC CHARGES
----------------------
   0 S :    0.379130
   1 C :   -0.172464
   2 C :   -0.050124
   3 C :   -0.064982
   4 C :   -0.184442
   5 H :    0.018711
   6 C :   -0.036135
   7 H :    0.022251
   8 H :    0.036063
   9 C :   -0.036829
  10 H :    0.027777
  11 H :    0.023532
  12 C :   -0.060228
  13 H :    0.029908
  14 H :    0.027207
  15 H :    0.020827
  16 S :    0.387466
  17 C :   -0.165628
  18 C :   -0.071519
  19 C :   -0.058622
  20 C :   -0.187494
  21 H :    0.024394
  22 C :   -0.038647
  23 H :    0.026673
  24 H :    0.034000
  25 C :   -0.039238
  26 H :    0.022780
  27 H :    0.020636
  28 C :   -0.059378
  29 H :    0.017861
  30 H :    0.035437
  31 H :    0.032869
  32 H :    0.010727
  33 H :    0.027482

  Mayer bond orders larger than 0.100000
B(  0-S ,  1-C ) :   1.1198 B(  0-S ,  4-C ) :   1.1327 B(  1-C ,  2-C ) :   1.6244
B(  1-C , 32-H ) :   0.9817 B(  2-C ,  3-C ) :   1.2188 B(  2-C ,  6-C ) :   0.9929
B(  3-C ,  4-C ) :   1.5693 B(  3-C ,  5-H ) :   0.9985 B(  4-C , 20-C ) :   1.0853
B(  6-C ,  7-H ) :   0.9494 B(  6-C ,  8-H ) :   0.9463 B(  6-C ,  9-C ) :   1.0610
B(  9-C , 10-H ) :   0.9586 B(  9-C , 11-H ) :   0.9567 B(  9-C , 12-C ) :   1.0563
B( 12-C , 13-H ) :   0.9783 B( 12-C , 14-H ) :   0.9752 B( 12-C , 15-H ) :   0.9757
B( 16-S , 17-C ) :   1.1436 B( 16-S , 20-C ) :   1.1468 B( 17-C , 18-C ) :   1.6025
B( 17-C , 20-C ) :   0.1111 B( 17-C , 33-H ) :   0.9627 B( 18-C , 19-C ) :   1.2665
B( 18-C , 21-H ) :   0.9942 B( 19-C , 20-C ) :   1.5497 B( 19-C , 22-C ) :   1.0282
B( 22-C , 23-H ) :   0.9255 B( 22-C , 24-H ) :   0.9264 B( 22-C , 25-C ) :   1.0816
B( 25-C , 26-H ) :   0.9507 B( 25-C , 27-H ) :   0.9416 B( 25-C , 28-C ) :   1.0914
B( 28-C , 29-H ) :   0.9740 B( 28-C , 30-H ) :   0.9721 B( 28-C , 31-H ) :   0.9688

Dispersion correction           -0.014058454
FINAL SINGLE POINT ENERGY     -1339.855293233227

DIPOLE MOMENT
-------------
                                X             Y             Z
Electronic contribution:    -22.12980      -4.40276      20.69707
Nuclear contribution   :     22.90778       4.25567     -21.12365
                        -----------------------------------------
Total Dipole Moment    :      0.77798      -0.14709      -0.42658
                        -----------------------------------------
Magnitude (a.u.)       :      0.89937
Magnitude (Debye)      :      2.28601

Rotational constants in cm-1:     0.016596     0.009630     0.006371
Rotational constants in MHz :   497.543647   288.706529   191.004046

                             ****ORCA TERMINATED NORMALLY****
TOTAL RUN TIME: 0 days 0 hours 0 minutes 21 seconds 758 msec
