                         Program Version 4.2.1 -  RELEASE  -
|  1> ! wB97X-D3 SP def2-SVP
|  2> %pal
|  3> nprocs 24
|  4> end
|  5>
|  6> * xyz 0 1
|  7> S 	 -39.141 	 -50.2923 	 -74.5072
|  8> C 	 -39.3781 	 -48.7084 	 -75.2555
|  9> C 	 -39.1902 	 -47.6325 	 -74.3814
| 10> C 	 -38.8507 	 -48.1195 	 -73.0828
| 11> C 	 -38.8311 	 -49.4641 	 -72.9535
| 12> H 	 -38.4001 	 -47.5019 	 -72.3275
| 13> C 	 -39.0592 	 -46.1297 	 -74.7042
| 14> H 	 -38.6393 	 -46.0688 	 -75.6962
| 15> H 	 -38.2755 	 -45.6902 	 -74.0128
| 16> C 	 -40.3867 	 -45.2975 	 -74.6865
| 17> H 	 -40.1905 	 -44.278 	 -74.8944
| 18> H 	 -40.9841 	 -45.5862 	 -75.5601
| 19> C 	 -41.1315 	 -45.451 	 -73.4026
| 20> H 	 -40.578 	 -44.8255 	 -72.6523
| 21> H 	 -42.1213 	 -45.011 	 -73.5234
| 22> H 	 -41.2658 	 -46.5006 	 -72.9422
| 23> S 	 -36.6852 	 -50.8569 	 -71.8601
| 24> C 	 -36.6997 	 -51.1182 	 -70.1354
| 25> C 	 -37.8132 	 -50.5916 	 -69.4993
| 26> C 	 -38.7074 	 -49.9399 	 -70.4528
| 27> C 	 -38.3034 	 -50.1058 	 -71.7759
| 28> H 	 -37.9336 	 -50.7204 	 -68.4524
| 29> C 	 -39.9624 	 -49.334 	 -70.0343
| 30> H 	 -40.4706 	 -48.9311 	 -70.9108
| 31> H 	 -39.744 	 -48.5116 	 -69.4044
| 32> C 	 -41.0444 	 -50.3553 	 -69.5237
| 33> H 	 -40.7992 	 -50.6157 	 -68.4665
| 34> H 	 -40.9168 	 -51.3686 	 -70.0138
| 35> C 	 -42.4547 	 -49.8769 	 -69.6606
| 36> H 	 -42.7746 	 -49.7281 	 -70.6867
| 37> H 	 -42.6617 	 -48.9455 	 -69.0864
| 38> H 	 -43.0991 	 -50.6936 	 -69.3334
| 39> H 	 -39.4401 	 -48.5431 	 -76.3145
| 40> H 	 -35.8525 	 -51.3726 	 -69.5637
| 41> *
| 42>
| 43>                          ****END OF INPUT****

CARTESIAN COORDINATES (ANGSTROEM)
---------------------------------
  S    -39.141000  -50.292300  -74.507200
  C    -39.378100  -48.708400  -75.255500
  C    -39.190200  -47.632500  -74.381400
  C    -38.850700  -48.119500  -73.082800
  C    -38.831100  -49.464100  -72.953500
  H    -38.400100  -47.501900  -72.327500
  C    -39.059200  -46.129700  -74.704200
  H    -38.639300  -46.068800  -75.696200
  H    -38.275500  -45.690200  -74.012800
  C    -40.386700  -45.297500  -74.686500
  H    -40.190500  -44.278000  -74.894400
  H    -40.984100  -45.586200  -75.560100
  C    -41.131500  -45.451000  -73.402600
  H    -40.578000  -44.825500  -72.652300
  H    -42.121300  -45.011000  -73.523400
  H    -41.265800  -46.500600  -72.942200
  S    -36.685200  -50.856900  -71.860100
  C    -36.699700  -51.118200  -70.135400
  C    -37.813200  -50.591600  -69.499300
  C    -38.707400  -49.939900  -70.452800
  C    -38.303400  -50.105800  -71.775900
  H    -37.933600  -50.720400  -68.452400
  C    -39.962400  -49.334000  -70.034300
  H    -40.470600  -48.931100  -70.910800
  H    -39.744000  -48.511600  -69.404400
  C    -41.044400  -50.355300  -69.523700
  H    -40.799200  -50.615700  -68.466500
  H    -40.916800  -51.368600  -70.013800
  C    -42.454700  -49.876900  -69.660600
  H    -42.774600  -49.728100  -70.686700
  H    -42.661700  -48.945500  -69.086400
  H    -43.099100  -50.693600  -69.333400
  H    -39.440100  -48.543100  -76.314500
  H    -35.852500  -51.372600  -69.563700

 Total Charge           Charge          ....    0
 Multiplicity           Mult            ....    1
 Number of Electrons    NEL             ....  134
 Basis Dimension        Dim             ....  322

ORBITAL ENERGIES
----------------

  NO   OCC          E(Eh)            E(eV)
   0   2.0000     -88.969360     -2420.9794
   1   2.0000     -88.963340     -2420.8155
   2   2.0000     -10.323986      -280.9299
   3   2.0000     -10.323234      -280.9095
   4   2.0000     -10.316868      -280.7363
   5   2.0000     -10.313451      -280.6433
   6   2.0000     -10.303148      -280.3629
   7   2.0000     -10.301542      -280.3192
   8   2.0000     -10.299903      -280.2746
   9   2.0000     -10.293072      -280.0887
  10   2.0000     -10.290227      -280.0113
  11   2.0000     -10.287680      -279.9420
  12   2.0000     -10.285330      -279.8780
  13   2.0000     -10.282009      -279.7877
  14   2.0000     -10.280503      -279.7467
  15   2.0000     -10.276667      -279.6423
  16   2.0000      -8.083063      -219.9513
  17   2.0000      -8.077754      -219.8069
  18   2.0000      -6.041663      -164.4020
  19   2.0000      -6.037889      -164.2993
  20   2.0000      -6.036287      -164.2557
  21   2.0000      -6.033630      -164.1834
  22   2.0000      -6.032417      -164.1504
  23   2.0000      -6.028399      -164.0411
  24   2.0000      -1.002109       -27.2688
  25   2.0000      -0.977365       -26.5955
  26   2.0000      -0.908838       -24.7307
  27   2.0000      -0.908215       -24.7138
  28   2.0000      -0.870163       -23.6783
  29   2.0000      -0.852695       -23.2030
  30   2.0000      -0.847117       -23.0512
  31   2.0000      -0.812782       -22.1169
  32   2.0000      -0.781024       -21.2527
  33   2.0000      -0.767095       -20.8737
  34   2.0000      -0.702867       -19.1260
  35   2.0000      -0.699619       -19.0376
  36   2.0000      -0.694199       -18.8901
  37   2.0000      -0.658001       -17.9051
  38   2.0000      -0.639372       -17.3982
  39   2.0000      -0.614537       -16.7224
  40   2.0000      -0.594463       -16.1762
  41   2.0000      -0.568366       -15.4660
  42   2.0000      -0.562356       -15.3025
  43   2.0000      -0.549787       -14.9605
  44   2.0000      -0.545834       -14.8529
  45   2.0000      -0.527844       -14.3634
  46   2.0000      -0.515331       -14.0229
  47   2.0000      -0.504847       -13.7376
  48   2.0000      -0.502008       -13.6603
  49   2.0000      -0.493023       -13.4158
  50   2.0000      -0.488808       -13.3011
  51   2.0000      -0.478772       -13.0281
  52   2.0000      -0.470066       -12.7911
  53   2.0000      -0.461522       -12.5587
  54   2.0000      -0.459715       -12.5095
  55   2.0000      -0.443898       -12.0791
  56   2.0000      -0.441902       -12.0248
  57   2.0000      -0.433514       -11.7965
  58   2.0000      -0.432107       -11.7582
  59   2.0000      -0.428047       -11.6478
  60   2.0000      -0.425481       -11.5779
  61   2.0000      -0.414197       -11.2709
  62   2.0000      -0.404679       -11.0119
  63   2.0000      -0.343798        -9.3552
  64   2.0000      -0.329275        -8.9600
  65   2.0000      -0.325703        -8.8628
  66   2.0000      -0.293798        -7.9947
  67   0.0000       0.032145         0.8747
  68   0.0000       0.062600         1.7034
  69   0.0000       0.107418         2.9230
  70   0.0000       0.117151         3.1878
  71   0.0000       0.127921         3.4809

MULLIKEN ATOMIC CHARGES
-----------------------
   0 S :    0.108843
   1 C :   -0.109506
   2 C :   -0.091200
   3 C :    0.027367
   4 C :   -0.167764
   5 H :    0.019088
   6 C :    0.033582
   7 H :    0.021365
   8 H :    0.040210
   9 C :   -0.029542
  10 H :    0.021005
  11 H :    0.023054
  12 C :   -0.092176
  13 H :    0.029672
  14 H :    0.035292
  15 H :    0.067020
  16 S :    0.098538
  17 C :   -0.072550
  18 C :   -0.025904
  19 C :   -0.069190
  20 C :   -0.131775
  21 H :    0.012546
  22 C :    0.094627
  23 H :    0.016736
  24 H :    0.026118
  25 C :   -0.103631
  26 H :    0.025883
  27 H :    0.043657
  28 C :   -0.047553
  29 H :    0.035333
  30 H :    0.040772
  31 H :    0.032689
  32 H :    0.041051
  33 H :    0.046344
Sum of atomic charges:   -0.0000000

LOEWDIN ATOMIC CHARGES
----------------------
   0 S :    0.382641
   1 C :   -0.186928
   2 C :   -0.061451
   3 C :   -0.054432
   4 C :   -0.190793
   5 H :    0.032347
   6 C :   -0.029434
   7 H :    0.027439
   8 H :    0.036214
   9 C :   -0.041396
  10 H :    0.021515
  11 H :    0.023402
  12 C :   -0.077792
  13 H :    0.028097
  14 H :    0.025955
  15 H :    0.038069
  16 S :    0.388635
  17 C :   -0.176914
  18 C :   -0.065360
  19 C :   -0.047299
  20 C :   -0.192684
  21 H :    0.027260
  22 C :   -0.038249
  23 H :    0.030458
  24 H :    0.028251
  25 C :   -0.043610
  26 H :    0.021258
  27 H :    0.034453
  28 C :   -0.070671
  29 H :    0.025302
  30 H :    0.030035
  31 H :    0.030726
  32 H :    0.023266
  33 H :    0.021689

  Mayer bond orders larger than 0.100000
B(  0-S ,  1-C ) :   1.1350 B(  0-S ,  4-C ) :   1.1189 B(  1-C ,  2-C ) :   1.6399
B(  1-C , 32-H ) :   0.9634 B(  2-C ,  3-C ) :   1.2270 B(  2-C ,  6-C ) :   1.0060
B(  3-C ,  4-C ) :   1.6089 B(  3-C ,  5-H ) :   0.9899 B(  4-C , 20-C ) :   1.0384
B(  6-C ,  7-H ) :   0.9412 B(  6-C ,  8-H ) :   0.9516 B(  6-C ,  9-C ) :   1.0705
B(  9-C , 10-H ) :   0.9525 B(  9-C , 11-H ) :   0.9544 B(  9-C , 12-C ) :   1.0796
B( 12-C , 13-H ) :   0.9741 B( 12-C , 14-H ) :   0.9711 B( 12-C , 15-H ) :   0.9702
B( 16-S , 17-C ) :   1.1547 B( 16-S , 20-C ) :   1.1159 B( 17-C , 18-C ) :   1.6322
B( 17-C , 33-H ) :   0.9659 B( 18-C , 19-C ) :   1.2007 B( 18-C , 21-H ) :   0.9976
B( 19-C , 20-C ) :   1.6113 B( 19-C , 22-C ) :   1.0814 B( 22-C , 23-H ) :   0.9326
B( 22-C , 24-H ) :   0.9179 B( 22-C , 25-C ) :   1.0364 B( 25-C , 26-H ) :   0.9493
B( 25-C , 27-H ) :   0.9566 B( 25-C , 28-C ) :   1.1038 B( 28-C , 29-H ) :   0.9705
B( 28-C , 30-H ) :   0.9720 B( 28-C , 31-H ) :   0.9695

Dispersion correction           -0.014656177
FINAL SINGLE POINT ENERGY     -1339.875644286239

DIPOLE MOMENT
-------------
                                X             Y             Z
Electronic contribution:     19.22395     -17.99649      -8.05124
Nuclear contribution   :    -19.33190      18.63896       8.29785
                        -----------------------------------------
Total Dipole Moment    :     -0.10796       0.64248       0.24661
                        -----------------------------------------
Magnitude (a.u.)       :      0.69660
Magnitude (Debye)      :      1.77060

Rotational constants in cm-1:     0.016892     0.009419     0.007343
Rotational constants in MHz :   506.409575   282.384597   220.142703

                             ****ORCA TERMINATED NORMALLY****
TOTAL RUN TIME: 0 days 0 hours 0 minutes 22 seconds 64 msec
