                         Program Version 4.2.1 -  RELEASE  -
|  1> ! wB97X-D3 SP def2-SVP
|  2> %pal
|  3> nprocs 24
|  4> end
|  5>
|  6> * xyz 0 1
|  7> S 	 -106.621 	 34.9989 	 -13.3381
|  8> C 	 -107.058 	 35.6345 	 -14.9296
|  9> C 	 -106.926 	 36.9935 	 -15.0252
| 10> C 	 -106.301 	 37.5435 	 -13.834
| 11> C 	 -106.07 	 36.6033 	 -12.8502
| 12> H 	 -106.062 	 38.6063 	 -13.6674
| 13> C 	 -107.206 	 37.8835 	 -16.1799
| 14> H 	 -108.043 	 37.4583 	 -16.7122
| 15> H 	 -106.392 	 37.908 	 -16.9101
| 16> C 	 -107.687 	 39.3877 	 -15.9249
| 17> H 	 -108.601 	 39.3367 	 -15.336
| 18> H 	 -106.905 	 39.8544 	 -15.3882
| 19> C 	 -107.864 	 40.1121 	 -17.3128
| 20> H 	 -107.126 	 39.7097 	 -17.9737
| 21> H 	 -108.865 	 39.8844 	 -17.7674
| 22> H 	 -107.785 	 41.2108 	 -17.032
| 23> S 	 -106.086 	 37.8752 	 -10.4432
| 24> C 	 -104.725 	 37.72 	 -9.45975
| 25> C 	 -103.878 	 36.7012 	 -9.78564
| 26> C 	 -104.186 	 36.221 	 -11.086
| 27> C 	 -105.318 	 36.858 	 -11.6402
| 28> H 	 -103.035 	 36.6027 	 -9.10659
| 29> C 	 -103.189 	 35.272 	 -11.7777
| 30> H 	 -102.218 	 35.6771 	 -11.652
| 31> H 	 -103.358 	 35.2026 	 -12.8715
| 32> C 	 -103.107 	 33.8143 	 -11.1374
| 33> H 	 -104.073 	 33.3463 	 -10.9085
| 34> H 	 -102.81 	 33.9 	 -10.1678
| 35> C 	 -102.321 	 32.8309 	 -11.9441
| 36> H 	 -102.171 	 31.9148 	 -11.3833
| 37> H 	 -101.373 	 33.2141 	 -12.2791
| 38> H 	 -102.976 	 32.5901 	 -12.7822
| 39> H 	 -107.346 	 35.0846 	 -15.7805
| 40> H 	 -104.556 	 38.3436 	 -8.55003
| 41> *
| 42>
| 43>                          ****END OF INPUT****

CARTESIAN COORDINATES (ANGSTROEM)
---------------------------------
  S    -106.621000   34.998900  -13.338100
  C    -107.058000   35.634500  -14.929600
  C    -106.926000   36.993500  -15.025200
  C    -106.301000   37.543500  -13.834000
  C    -106.070000   36.603300  -12.850200
  H    -106.062000   38.606300  -13.667400
  C    -107.206000   37.883500  -16.179900
  H    -108.043000   37.458300  -16.712200
  H    -106.392000   37.908000  -16.910100
  C    -107.687000   39.387700  -15.924900
  H    -108.601000   39.336700  -15.336000
  H    -106.905000   39.854400  -15.388200
  C    -107.864000   40.112100  -17.312800
  H    -107.126000   39.709700  -17.973700
  H    -108.865000   39.884400  -17.767400
  H    -107.785000   41.210800  -17.032000
  S    -106.086000   37.875200  -10.443200
  C    -104.725000   37.720000   -9.459750
  C    -103.878000   36.701200   -9.785640
  C    -104.186000   36.221000  -11.086000
  C    -105.318000   36.858000  -11.640200
  H    -103.035000   36.602700   -9.106590
  C    -103.189000   35.272000  -11.777700
  H    -102.218000   35.677100  -11.652000
  H    -103.358000   35.202600  -12.871500
  C    -103.107000   33.814300  -11.137400
  H    -104.073000   33.346300  -10.908500
  H    -102.810000   33.900000  -10.167800
  C    -102.321000   32.830900  -11.944100
  H    -102.171000   31.914800  -11.383300
  H    -101.373000   33.214100  -12.279100
  H    -102.976000   32.590100  -12.782200
  H    -107.346000   35.084600  -15.780500
  H    -104.556000   38.343600   -8.550030

 Total Charge           Charge          ....    0
 Multiplicity           Mult            ....    1
 Number of Electrons    NEL             ....  134
 Basis Dimension        Dim             ....  322

ORBITAL ENERGIES
----------------

  NO   OCC          E(Eh)            E(eV)
   0   2.0000     -88.966767     -2420.9088
   1   2.0000     -88.963536     -2420.8209
   2   2.0000     -10.325416      -280.9689
   3   2.0000     -10.322429      -280.8876
   4   2.0000     -10.310740      -280.5695
   5   2.0000     -10.310045      -280.5506
   6   2.0000     -10.307949      -280.4935
   7   2.0000     -10.298224      -280.2289
   8   2.0000     -10.293488      -280.1001
   9   2.0000     -10.291910      -280.0571
  10   2.0000     -10.290133      -280.0088
  11   2.0000     -10.290103      -280.0079
  12   2.0000     -10.289710      -279.9973
  13   2.0000     -10.288921      -279.9758
  14   2.0000     -10.274239      -279.5763
  15   2.0000     -10.270615      -279.4777
  16   2.0000      -8.080610      -219.8846
  17   2.0000      -8.079716      -219.8603
  18   2.0000      -6.039199      -164.3350
  19   2.0000      -6.037895      -164.2995
  20   2.0000      -6.035336      -164.2299
  21   2.0000      -6.034178      -164.1983
  22   2.0000      -6.031250      -164.1187
  23   2.0000      -6.030582      -164.1005
  24   2.0000      -1.007860       -27.4253
  25   2.0000      -0.983736       -26.7688
  26   2.0000      -0.906468       -24.6662
  27   2.0000      -0.903757       -24.5925
  28   2.0000      -0.869791       -23.6682
  29   2.0000      -0.855325       -23.2746
  30   2.0000      -0.843477       -22.9522
  31   2.0000      -0.812090       -22.0981
  32   2.0000      -0.779937       -21.2232
  33   2.0000      -0.766839       -20.8667
  34   2.0000      -0.710137       -19.3238
  35   2.0000      -0.701439       -19.0871
  36   2.0000      -0.691941       -18.8287
  37   2.0000      -0.655718       -17.8430
  38   2.0000      -0.633497       -17.2383
  39   2.0000      -0.619101       -16.8466
  40   2.0000      -0.595791       -16.2123
  41   2.0000      -0.571791       -15.5592
  42   2.0000      -0.565260       -15.3815
  43   2.0000      -0.557623       -15.1737
  44   2.0000      -0.526592       -14.3293
  45   2.0000      -0.520740       -14.1700
  46   2.0000      -0.516589       -14.0571
  47   2.0000      -0.505510       -13.7556
  48   2.0000      -0.500746       -13.6260
  49   2.0000      -0.498831       -13.5739
  50   2.0000      -0.489111       -13.3094
  51   2.0000      -0.478259       -13.0141
  52   2.0000      -0.469934       -12.7876
  53   2.0000      -0.464880       -12.6500
  54   2.0000      -0.458247       -12.4695
  55   2.0000      -0.450202       -12.2506
  56   2.0000      -0.445567       -12.1245
  57   2.0000      -0.438617       -11.9354
  58   2.0000      -0.436240       -11.8707
  59   2.0000      -0.425108       -11.5678
  60   2.0000      -0.422113       -11.4863
  61   2.0000      -0.412027       -11.2118
  62   2.0000      -0.409016       -11.1299
  63   2.0000      -0.336608        -9.1596
  64   2.0000      -0.333322        -9.0701
  65   2.0000      -0.323446        -8.8014
  66   2.0000      -0.296516        -8.0686
  67   0.0000       0.031988         0.8704
  68   0.0000       0.073633         2.0037
  69   0.0000       0.104951         2.8559
  70   0.0000       0.120991         3.2923
  71   0.0000       0.126738         3.4487

MULLIKEN ATOMIC CHARGES
-----------------------
   0 S :    0.123352
   1 C :   -0.112909
   2 C :   -0.040565
   3 C :   -0.000194
   4 C :   -0.141997
   5 H :    0.026848
   6 C :    0.014712
   7 H :    0.015636
   8 H :    0.041190
   9 C :   -0.094304
  10 H :    0.044936
  11 H :    0.032408
  12 C :   -0.064777
  13 H :    0.032661
  14 H :    0.045224
  15 H :    0.056849
  16 S :    0.125834
  17 C :   -0.115024
  18 C :   -0.040177
  19 C :   -0.008397
  20 C :   -0.185170
  21 H :    0.025544
  22 C :    0.062814
  23 H :    0.021527
  24 H :    0.032272
  25 C :   -0.060289
  26 H :    0.015327
  27 H :   -0.009005
  28 C :   -0.020327
  29 H :    0.030015
  30 H :    0.024497
  31 H :    0.035043
  32 H :    0.022236
  33 H :    0.064209
Sum of atomic charges:   -0.0000000

LOEWDIN ATOMIC CHARGES
----------------------
   0 S :    0.392653
   1 C :   -0.184438
   2 C :   -0.064776
   3 C :   -0.057324
   4 C :   -0.197945
   5 H :    0.034641
   6 C :   -0.041514
   7 H :    0.027313
   8 H :    0.031010
   9 C :   -0.030118
  10 H :    0.026791
  11 H :    0.012650
  12 C :   -0.066491
  13 H :    0.020750
  14 H :    0.030915
  15 H :    0.039528
  16 S :    0.433607
  17 C :   -0.202967
  18 C :   -0.081065
  19 C :   -0.046357
  20 C :   -0.209347
  21 H :    0.037098
  22 C :   -0.023745
  23 H :    0.025961
  24 H :    0.029913
  25 C :   -0.039711
  26 H :    0.026187
  27 H :    0.004581
  28 C :   -0.058892
  29 H :    0.027907
  30 H :    0.019710
  31 H :    0.029905
  32 H :    0.019970
  33 H :    0.033599

  Mayer bond orders larger than 0.100000
B(  0-S ,  1-C ) :   1.1225 B(  0-S ,  4-C ) :   1.1244 B(  1-C ,  2-C ) :   1.6478
B(  1-C , 32-H ) :   0.9709 B(  2-C ,  3-C ) :   1.2081 B(  2-C ,  6-C ) :   1.0253
B(  3-C ,  4-C ) :   1.6009 B(  3-C ,  5-H ) :   0.9859 B(  4-C , 20-C ) :   1.0419
B(  6-C ,  7-H ) :   0.9413 B(  6-C ,  8-H ) :   0.9339 B(  6-C ,  9-C ) :   1.0642
B(  9-C , 10-H ) :   0.9622 B(  9-C , 11-H ) :   0.9563 B(  9-C , 12-C ) :   1.0682
B( 12-C , 13-H ) :   0.9752 B( 12-C , 14-H ) :   0.9774 B( 12-C , 15-H ) :   0.9762
B( 16-S , 17-C ) :   1.1822 B( 16-S , 20-C ) :   1.1483 B( 17-C , 18-C ) :   1.6169
B( 17-C , 33-H ) :   0.9574 B( 18-C , 19-C ) :   1.2253 B( 18-C , 21-H ) :   0.9914
B( 19-C , 20-C ) :   1.5784 B( 19-C , 22-C ) :   1.0432 B( 22-C , 23-H ) :   0.9383
B( 22-C , 24-H ) :   0.9473 B( 22-C , 25-C ) :   1.0386 B( 25-C , 26-H ) :   0.9531
B( 25-C , 27-H ) :   0.9522 B( 25-C , 28-C ) :   1.0959 B( 28-C , 29-H ) :   0.9703
B( 28-C , 30-H ) :   0.9737 B( 28-C , 31-H ) :   0.9760

Dispersion correction           -0.013709307
FINAL SINGLE POINT ENERGY     -1339.863124460277

DIPOLE MOMENT
-------------
                                X             Y             Z
Electronic contribution:     -7.11612      -0.48453      14.60319
Nuclear contribution   :      7.40537       0.67192     -14.80724
                        -----------------------------------------
Total Dipole Moment    :      0.28925       0.18739      -0.20406
                        -----------------------------------------
Magnitude (a.u.)       :      0.40052
Magnitude (Debye)      :      1.01805

Rotational constants in cm-1:     0.020224     0.007604     0.006164
Rotational constants in MHz :   606.294598   227.958652   184.778784

                             ****ORCA TERMINATED NORMALLY****
TOTAL RUN TIME: 0 days 0 hours 0 minutes 20 seconds 923 msec
