                         Program Version 4.2.1 -  RELEASE  -
|  1> ! wB97X-D3 SP def2-SVP
|  2> %pal
|  3> nprocs 24
|  4> end
|  5>
|  6> * xyz 0 1
|  7> S 	 -143.836 	 3.74495 	 15.0362
|  8> C 	 -144.23 	 2.98528 	 13.4748
|  9> C 	 -144.76 	 3.95156 	 12.5957
| 10> C 	 -145.128 	 5.18002 	 13.2304
| 11> C 	 -144.81 	 5.16906 	 14.5281
| 12> H 	 -145.576 	 6.0142 	 12.8084
| 13> C 	 -144.881 	 3.77201 	 11.0652
| 14> H 	 -143.944 	 3.43189 	 10.7212
| 15> H 	 -144.998 	 4.71376 	 10.5941
| 16> C 	 -146.119 	 3.03039 	 10.5716
| 17> H 	 -146.461 	 2.3865 	 11.3942
| 18> H 	 -146.983 	 3.63409 	 10.3158
| 19> C 	 -145.782 	 2.13484 	 9.33422
| 20> H 	 -146.617 	 1.72999 	 8.76026
| 21> H 	 -145.144 	 2.6557 	 8.63385
| 22> H 	 -145.087 	 1.25748 	 9.55983
| 23> S 	 -143.713 	 6.61987 	 16.6003
| 24> C 	 -144.659 	 7.84516 	 17.4229
| 25> C 	 -145.917 	 7.89738 	 16.8112
| 26> C 	 -146.15 	 7.06132 	 15.692
| 27> C 	 -145.046 	 6.27585 	 15.4924
| 28> H 	 -146.605 	 8.69256 	 17.1863
| 29> C 	 -147.453 	 6.90982 	 14.9397
| 30> H 	 -147.332 	 7.09843 	 13.8503
| 31> H 	 -148.121 	 7.66749 	 15.2907
| 32> C 	 -148.22 	 5.56921 	 14.9988
| 33> H 	 -148.564 	 5.36498 	 15.9726
| 34> H 	 -147.669 	 4.70617 	 14.7655
| 35> C 	 -149.47 	 5.44468 	 14.1149
| 36> H 	 -149.359 	 5.74082 	 13.1041
| 37> H 	 -150.164 	 6.07098 	 14.6333
| 38> H 	 -149.841 	 4.38564 	 14.106
| 39> H 	 -144.019 	 1.99774 	 13.153
| 40> H 	 -144.382 	 8.45248 	 18.2167
| 41> *
| 42>
| 43>                          ****END OF INPUT****

CARTESIAN COORDINATES (ANGSTROEM)
---------------------------------
  S    -143.836000    3.744950   15.036200
  C    -144.230000    2.985280   13.474800
  C    -144.760000    3.951560   12.595700
  C    -145.128000    5.180020   13.230400
  C    -144.810000    5.169060   14.528100
  H    -145.576000    6.014200   12.808400
  C    -144.881000    3.772010   11.065200
  H    -143.944000    3.431890   10.721200
  H    -144.998000    4.713760   10.594100
  C    -146.119000    3.030390   10.571600
  H    -146.461000    2.386500   11.394200
  H    -146.983000    3.634090   10.315800
  C    -145.782000    2.134840    9.334220
  H    -146.617000    1.729990    8.760260
  H    -145.144000    2.655700    8.633850
  H    -145.087000    1.257480    9.559830
  S    -143.713000    6.619870   16.600300
  C    -144.659000    7.845160   17.422900
  C    -145.917000    7.897380   16.811200
  C    -146.150000    7.061320   15.692000
  C    -145.046000    6.275850   15.492400
  H    -146.605000    8.692560   17.186300
  C    -147.453000    6.909820   14.939700
  H    -147.332000    7.098430   13.850300
  H    -148.121000    7.667490   15.290700
  C    -148.220000    5.569210   14.998800
  H    -148.564000    5.364980   15.972600
  H    -147.669000    4.706170   14.765500
  C    -149.470000    5.444680   14.114900
  H    -149.359000    5.740820   13.104100
  H    -150.164000    6.070980   14.633300
  H    -149.841000    4.385640   14.106000
  H    -144.019000    1.997740   13.153000
  H    -144.382000    8.452480   18.216700

 Total Charge           Charge          ....    0
 Multiplicity           Mult            ....    1
 Number of Electrons    NEL             ....  134
 Basis Dimension        Dim             ....  322

ORBITAL ENERGIES
----------------

  NO   OCC          E(Eh)            E(eV)
   0   2.0000     -88.968835     -2420.9651
   1   2.0000     -88.966751     -2420.9084
   2   2.0000     -10.330095      -281.0962
   3   2.0000     -10.327648      -281.0296
   4   2.0000     -10.317165      -280.7443
   5   2.0000     -10.314826      -280.6807
   6   2.0000     -10.306596      -280.4567
   7   2.0000     -10.303238      -280.3654
   8   2.0000     -10.298151      -280.2269
   9   2.0000     -10.297150      -280.1997
  10   2.0000     -10.290238      -280.0116
  11   2.0000     -10.287422      -279.9350
  12   2.0000     -10.286970      -279.9227
  13   2.0000     -10.283740      -279.8348
  14   2.0000     -10.274092      -279.5722
  15   2.0000     -10.273774      -279.5636
  16   2.0000      -8.082200      -219.9278
  17   2.0000      -8.081104      -219.8980
  18   2.0000      -6.040929      -164.3820
  19   2.0000      -6.039604      -164.3460
  20   2.0000      -6.037154      -164.2793
  21   2.0000      -6.035629      -164.2378
  22   2.0000      -6.032555      -164.1542
  23   2.0000      -6.031938      -164.1374
  24   2.0000      -1.005446       -27.3596
  25   2.0000      -0.980921       -26.6922
  26   2.0000      -0.909453       -24.7475
  27   2.0000      -0.908705       -24.7271
  28   2.0000      -0.865021       -23.5384
  29   2.0000      -0.856314       -23.3015
  30   2.0000      -0.846840       -23.0437
  31   2.0000      -0.814137       -22.1538
  32   2.0000      -0.784067       -21.3355
  33   2.0000      -0.772436       -21.0191
  34   2.0000      -0.707861       -19.2619
  35   2.0000      -0.706696       -19.2302
  36   2.0000      -0.695519       -18.9260
  37   2.0000      -0.664116       -18.0715
  38   2.0000      -0.646599       -17.5948
  39   2.0000      -0.622943       -16.9511
  40   2.0000      -0.598516       -16.2864
  41   2.0000      -0.570955       -15.5365
  42   2.0000      -0.569192       -15.4885
  43   2.0000      -0.548896       -14.9362
  44   2.0000      -0.529315       -14.4034
  45   2.0000      -0.521204       -14.1827
  46   2.0000      -0.520026       -14.1506
  47   2.0000      -0.516486       -14.0543
  48   2.0000      -0.510137       -13.8815
  49   2.0000      -0.499346       -13.5879
  50   2.0000      -0.488394       -13.2899
  51   2.0000      -0.482791       -13.1374
  52   2.0000      -0.479115       -13.0374
  53   2.0000      -0.463594       -12.6150
  54   2.0000      -0.457695       -12.4545
  55   2.0000      -0.450270       -12.2525
  56   2.0000      -0.444555       -12.0970
  57   2.0000      -0.441010       -12.0005
  58   2.0000      -0.430956       -11.7269
  59   2.0000      -0.427194       -11.6245
  60   2.0000      -0.420026       -11.4295
  61   2.0000      -0.412786       -11.2325
  62   2.0000      -0.408111       -11.1053
  63   2.0000      -0.352337        -9.5876
  64   2.0000      -0.334878        -9.1125
  65   2.0000      -0.331493        -9.0204
  66   2.0000      -0.286410        -7.7936
  67   0.0000       0.024250         0.6599
  68   0.0000       0.063694         1.7332
  69   0.0000       0.098220         2.6727
  70   0.0000       0.125783         3.4227
  71   0.0000       0.129711         3.5296

MULLIKEN ATOMIC CHARGES
-----------------------
   0 S :    0.102312
   1 C :   -0.096976
   2 C :   -0.111340
   3 C :    0.038468
   4 C :   -0.104096
   5 H :   -0.015736
   6 C :    0.101471
   7 H :    0.024964
   8 H :    0.010156
   9 C :   -0.050970
  10 H :    0.034350
  11 H :    0.034037
  12 C :   -0.092179
  13 H :    0.038754
  14 H :    0.021500
  15 H :    0.033255
  16 S :    0.099865
  17 C :   -0.066670
  18 C :   -0.068224
  19 C :   -0.000002
  20 C :   -0.163390
  21 H :    0.028331
  22 C :    0.077941
  23 H :    0.026794
  24 H :    0.006169
  25 C :   -0.042942
  26 H :    0.010603
  27 H :    0.026220
  28 C :   -0.055425
  29 H :    0.022489
  30 H :    0.022576
  31 H :    0.041858
  32 H :    0.033581
  33 H :    0.032254
Sum of atomic charges:   -0.0000000

LOEWDIN ATOMIC CHARGES
----------------------
   0 S :    0.369002
   1 C :   -0.185925
   2 C :   -0.048196
   3 C :   -0.057098
   4 C :   -0.162245
   5 H :    0.024061
   6 C :   -0.027186
   7 H :    0.026655
   8 H :    0.029823
   9 C :   -0.038080
  10 H :    0.024409
  11 H :    0.024673
  12 C :   -0.075588
  13 H :    0.024200
  14 H :    0.018949
  15 H :    0.030428
  16 S :    0.396472
  17 C :   -0.182367
  18 C :   -0.070021
  19 C :   -0.068219
  20 C :   -0.176236
  21 H :    0.034912
  22 C :   -0.027453
  23 H :    0.032619
  24 H :    0.027646
  25 C :   -0.035002
  26 H :    0.018765
  27 H :    0.018354
  28 C :   -0.058150
  29 H :    0.014531
  30 H :    0.020148
  31 H :    0.035954
  32 H :    0.021497
  33 H :    0.018668

  Mayer bond orders larger than 0.100000
B(  0-S ,  1-C ) :   1.1133 B(  0-S ,  4-C ) :   1.1235 B(  1-C ,  2-C ) :   1.6305
B(  1-C , 32-H ) :   0.9758 B(  2-C ,  3-C ) :   1.1958 B(  2-C ,  6-C ) :   1.0248
B(  3-C ,  4-C ) :   1.6053 B(  3-C ,  5-H ) :   1.0114 B(  4-C , 20-C ) :   1.0330
B(  6-C ,  7-H ) :   0.9522 B(  6-C ,  8-H ) :   0.9359 B(  6-C ,  9-C ) :   1.0324
B(  9-C , 10-H ) :   0.9682 B(  9-C , 11-H ) :   0.9603 B(  9-C , 12-C ) :   1.0635
B( 12-C , 13-H ) :   0.9771 B( 12-C , 14-H ) :   0.9768 B( 12-C , 15-H ) :   0.9783
B( 16-S , 17-C ) :   1.1380 B( 16-S , 20-C ) :   1.1510 B( 17-C , 18-C ) :   1.6128
B( 17-C , 20-C ) :   0.1019 B( 17-C , 33-H ) :   0.9788 B( 18-C , 19-C ) :   1.2485
B( 18-C , 21-H ) :   0.9766 B( 19-C , 20-C ) :   1.5913 B( 19-C , 22-C ) :   1.0491
B( 22-C , 23-H ) :   0.9321 B( 22-C , 24-H ) :   0.9255 B( 22-C , 25-C ) :   1.0592
B( 25-C , 26-H ) :   0.9529 B( 25-C , 27-H ) :   0.9562 B( 25-C , 28-C ) :   1.0825
B( 28-C , 29-H ) :   0.9761 B( 28-C , 30-H ) :   0.9814 B( 28-C , 31-H ) :   0.9738

Dispersion correction           -0.014378470
FINAL SINGLE POINT ENERGY     -1339.858033828312

DIPOLE MOMENT
-------------
                                X             Y             Z
Electronic contribution:     21.57215       7.01771      22.55745
Nuclear contribution   :    -22.02781      -6.88203     -23.02620
                        -----------------------------------------
Total Dipole Moment    :     -0.45565       0.13568      -0.46874
                        -----------------------------------------
Magnitude (a.u.)       :      0.66764
Magnitude (Debye)      :      1.69701

Rotational constants in cm-1:     0.020189     0.008587     0.006590
Rotational constants in MHz :   605.258968   257.439538   197.575208

                             ****ORCA TERMINATED NORMALLY****
TOTAL RUN TIME: 0 days 0 hours 0 minutes 21 seconds 803 msec
