                         Program Version 4.2.1 -  RELEASE  -
|  1> ! wB97X-D3 SP def2-SVP
|  2> %pal
|  3> nprocs 24
|  4> end
|  5>
|  6> * xyz 0 1
|  7> S 	 -131.259 	 13.9498 	 -15.3338
|  8> C 	 -132.322 	 13.5143 	 -14.0838
|  9> C 	 -133.597 	 13.2902 	 -14.5205
| 10> C 	 -133.786 	 13.7406 	 -15.839
| 11> C 	 -132.58 	 14.0682 	 -16.5289
| 12> H 	 -134.729 	 13.8674 	 -16.3579
| 13> C 	 -134.734 	 12.8773 	 -13.6365
| 14> H 	 -135.59 	 13.5362 	 -13.717
| 15> H 	 -134.416 	 12.9067 	 -12.5596
| 16> C 	 -135.211 	 11.3868 	 -13.7565
| 17> H 	 -135.446 	 11.1862 	 -14.813
| 18> H 	 -134.414 	 10.6758 	 -13.5626
| 19> C 	 -136.495 	 11.1811 	 -12.9456
| 20> H 	 -137.263 	 11.6993 	 -13.43
| 21> H 	 -136.654 	 10.116 	 -12.9424
| 22> H 	 -136.397 	 11.5227 	 -11.9106
| 23> S 	 -131.951 	 16.2953 	 -18.0222
| 24> C 	 -132.253 	 16.2667 	 -19.7343
| 25> C 	 -132.684 	 14.9978 	 -20.1891
| 26> C 	 -132.748 	 14.0716 	 -19.1029
| 27> C 	 -132.369 	 14.5605 	 -17.857
| 28> H 	 -132.834 	 14.7788 	 -21.1849
| 29> C 	 -133.48 	 12.6946 	 -19.2213
| 30> H 	 -134.235 	 12.6879 	 -19.869
| 31> H 	 -133.969 	 12.3789 	 -18.2533
| 32> C 	 -132.462 	 11.6182 	 -19.7664
| 33> H 	 -131.515 	 11.6356 	 -19.1424
| 34> H 	 -132.115 	 11.8485 	 -20.7337
| 35> C 	 -133.038 	 10.2176 	 -19.9329
| 36> H 	 -132.406 	 9.43127 	 -20.2538
| 37> H 	 -133.835 	 10.4232 	 -20.7629
| 38> H 	 -133.606 	 9.99107 	 -18.9957
| 39> H 	 -131.928 	 13.1828 	 -13.1302
| 40> H 	 -132.084 	 17.1069 	 -20.4153
| 41> *
| 42>
| 43>                          ****END OF INPUT****

CARTESIAN COORDINATES (ANGSTROEM)
---------------------------------
  S    -131.259000   13.949800  -15.333800
  C    -132.322000   13.514300  -14.083800
  C    -133.597000   13.290200  -14.520500
  C    -133.786000   13.740600  -15.839000
  C    -132.580000   14.068200  -16.528900
  H    -134.729000   13.867400  -16.357900
  C    -134.734000   12.877300  -13.636500
  H    -135.590000   13.536200  -13.717000
  H    -134.416000   12.906700  -12.559600
  C    -135.211000   11.386800  -13.756500
  H    -135.446000   11.186200  -14.813000
  H    -134.414000   10.675800  -13.562600
  C    -136.495000   11.181100  -12.945600
  H    -137.263000   11.699300  -13.430000
  H    -136.654000   10.116000  -12.942400
  H    -136.397000   11.522700  -11.910600
  S    -131.951000   16.295300  -18.022200
  C    -132.253000   16.266700  -19.734300
  C    -132.684000   14.997800  -20.189100
  C    -132.748000   14.071600  -19.102900
  C    -132.369000   14.560500  -17.857000
  H    -132.834000   14.778800  -21.184900
  C    -133.480000   12.694600  -19.221300
  H    -134.235000   12.687900  -19.869000
  H    -133.969000   12.378900  -18.253300
  C    -132.462000   11.618200  -19.766400
  H    -131.515000   11.635600  -19.142400
  H    -132.115000   11.848500  -20.733700
  C    -133.038000   10.217600  -19.932900
  H    -132.406000    9.431270  -20.253800
  H    -133.835000   10.423200  -20.762900
  H    -133.606000    9.991070  -18.995700
  H    -131.928000   13.182800  -13.130200
  H    -132.084000   17.106900  -20.415300

 Total Charge           Charge          ....    0
 Multiplicity           Mult            ....    1
 Number of Electrons    NEL             ....  134
 Basis Dimension        Dim             ....  322

ORBITAL ENERGIES
----------------

  NO   OCC          E(Eh)            E(eV)
   0   2.0000     -88.966834     -2420.9106
   1   2.0000     -88.964735     -2420.8535
   2   2.0000     -10.332502      -281.1617
   3   2.0000     -10.326840      -281.0076
   4   2.0000     -10.325669      -280.9757
   5   2.0000     -10.310198      -280.5548
   6   2.0000     -10.310035      -280.5503
   7   2.0000     -10.298537      -280.2374
   8   2.0000     -10.296842      -280.1913
   9   2.0000     -10.295718      -280.1607
  10   2.0000     -10.293588      -280.1028
  11   2.0000     -10.290435      -280.0170
  12   2.0000     -10.286596      -279.9125
  13   2.0000     -10.282586      -279.8034
  14   2.0000     -10.282366      -279.7974
  15   2.0000     -10.274382      -279.5802
  16   2.0000      -8.081121      -219.8985
  17   2.0000      -8.080008      -219.8682
  18   2.0000      -6.039595      -164.3457
  19   2.0000      -6.038347      -164.3118
  20   2.0000      -6.035645      -164.2382
  21   2.0000      -6.034266      -164.2007
  22   2.0000      -6.031962      -164.1380
  23   2.0000      -6.031088      -164.1142
  24   2.0000      -1.005032       -27.3483
  25   2.0000      -0.983650       -26.7665
  26   2.0000      -0.909410       -24.7463
  27   2.0000      -0.902246       -24.5514
  28   2.0000      -0.872251       -23.7352
  29   2.0000      -0.853298       -23.2194
  30   2.0000      -0.847529       -23.0624
  31   2.0000      -0.811669       -22.0866
  32   2.0000      -0.781560       -21.2673
  33   2.0000      -0.767876       -20.8950
  34   2.0000      -0.705317       -19.1926
  35   2.0000      -0.696878       -18.9630
  36   2.0000      -0.691347       -18.8125
  37   2.0000      -0.667642       -18.1675
  38   2.0000      -0.646288       -17.5864
  39   2.0000      -0.619806       -16.8658
  40   2.0000      -0.596865       -16.2415
  41   2.0000      -0.574945       -15.6451
  42   2.0000      -0.563777       -15.3412
  43   2.0000      -0.556499       -15.1431
  44   2.0000      -0.528769       -14.3885
  45   2.0000      -0.524335       -14.2679
  46   2.0000      -0.521594       -14.1933
  47   2.0000      -0.511374       -13.9152
  48   2.0000      -0.505418       -13.7531
  49   2.0000      -0.500875       -13.6295
  50   2.0000      -0.489391       -13.3170
  51   2.0000      -0.481149       -13.0927
  52   2.0000      -0.470103       -12.7921
  53   2.0000      -0.467764       -12.7285
  54   2.0000      -0.462460       -12.5842
  55   2.0000      -0.449322       -12.2267
  56   2.0000      -0.441802       -12.0220
  57   2.0000      -0.438433       -11.9304
  58   2.0000      -0.428388       -11.6570
  59   2.0000      -0.423122       -11.5137
  60   2.0000      -0.418805       -11.3963
  61   2.0000      -0.412756       -11.2317
  62   2.0000      -0.408277       -11.1098
  63   2.0000      -0.341276        -9.2866
  64   2.0000      -0.330378        -8.9900
  65   2.0000      -0.328550        -8.9403
  66   2.0000      -0.296008        -8.0548
  67   0.0000       0.028761         0.7826
  68   0.0000       0.058103         1.5811
  69   0.0000       0.112514         3.0617
  70   0.0000       0.121168         3.2971
  71   0.0000       0.127341         3.4651

MULLIKEN ATOMIC CHARGES
-----------------------
   0 S :    0.114838
   1 C :   -0.108938
   2 C :   -0.053874
   3 C :    0.050531
   4 C :   -0.190859
   5 H :    0.018549
   6 C :    0.021398
   7 H :    0.028783
   8 H :    0.021956
   9 C :   -0.100842
  10 H :    0.019374
  11 H :    0.028030
  12 C :   -0.005052
  13 H :    0.024691
  14 H :    0.032859
  15 H :    0.029719
  16 S :    0.112933
  17 C :   -0.099955
  18 C :   -0.000242
  19 C :   -0.028440
  20 C :   -0.151210
  21 H :   -0.005013
  22 C :    0.103825
  23 H :   -0.020058
  24 H :    0.034222
  25 C :   -0.101666
  26 H :    0.037473
  27 H :    0.012508
  28 C :   -0.052483
  29 H :    0.044072
  30 H :    0.026137
  31 H :    0.035652
  32 H :    0.052457
  33 H :    0.068626
Sum of atomic charges:    0.0000000

LOEWDIN ATOMIC CHARGES
----------------------
   0 S :    0.419964
   1 C :   -0.203790
   2 C :   -0.076481
   3 C :   -0.049374
   4 C :   -0.195710
   5 H :    0.031438
   6 C :   -0.033652
   7 H :    0.028516
   8 H :    0.033094
   9 C :   -0.040019
  10 H :    0.019749
  11 H :    0.020663
  12 C :   -0.055042
  13 H :    0.019072
  14 H :    0.027842
  15 H :    0.024847
  16 S :    0.404701
  17 C :   -0.180856
  18 C :   -0.064494
  19 C :   -0.038221
  20 C :   -0.204742
  21 H :    0.019290
  22 C :   -0.014437
  23 H :    0.004953
  24 H :    0.036230
  25 C :   -0.044065
  26 H :    0.025798
  27 H :    0.012785
  28 C :   -0.069315
  29 H :    0.020901
  30 H :    0.032255
  31 H :    0.026775
  32 H :    0.028048
  33 H :    0.033274

  Mayer bond orders larger than 0.100000
B(  0-S ,  1-C ) :   1.1713 B(  0-S ,  4-C ) :   1.1596 B(  1-C ,  2-C ) :   1.5822
B(  1-C ,  4-C ) :   0.1062 B(  1-C , 32-H ) :   0.9609 B(  2-C ,  3-C ) :   1.2643
B(  2-C ,  6-C ) :   1.0296 B(  3-C ,  4-C ) :   1.5363 B(  3-C ,  5-H ) :   0.9906
B(  4-C , 20-C ) :   1.0514 B(  6-C ,  7-H ) :   0.9497 B(  6-C ,  8-H ) :   0.9445
B(  6-C ,  9-C ) :   1.0500 B(  9-C , 10-H ) :   0.9574 B(  9-C , 11-H ) :   0.9589
B(  9-C , 12-C ) :   1.0766 B( 12-C , 13-H ) :   0.9753 B( 12-C , 14-H ) :   0.9732
B( 12-C , 15-H ) :   0.9749 B( 16-S , 17-C ) :   1.1830 B( 16-S , 20-C ) :   1.1233
B( 17-C , 18-C ) :   1.5740 B( 17-C , 20-C ) :   0.1025 B( 17-C , 33-H ) :   0.9643
B( 18-C , 19-C ) :   1.2589 B( 18-C , 21-H ) :   1.0027 B( 19-C , 20-C ) :   1.5916
B( 19-C , 22-C ) :   1.0363 B( 22-C , 23-H ) :   0.9365 B( 22-C , 24-H ) :   0.9416
B( 22-C , 25-C ) :   1.0410 B( 25-C , 26-H ) :   0.9583 B( 25-C , 27-H ) :   0.9622
B( 25-C , 28-C ) :   1.0710 B( 28-C , 29-H ) :   0.9754 B( 28-C , 30-H ) :   0.9742
B( 28-C , 31-H ) :   0.9762

Dispersion correction           -0.013656048
FINAL SINGLE POINT ENERGY     -1339.862973683459

DIPOLE MOMENT
-------------
                                X             Y             Z
Electronic contribution:     17.83374      24.03045      -1.47253
Nuclear contribution   :    -18.36117     -24.35367       1.33107
                        -----------------------------------------
Total Dipole Moment    :     -0.52744      -0.32321      -0.14145
                        -----------------------------------------
Magnitude (a.u.)       :      0.63456
Magnitude (Debye)      :      1.61292

Rotational constants in cm-1:     0.017097     0.008368     0.006566
Rotational constants in MHz :   512.552609   250.872426   196.844103

                             ****ORCA TERMINATED NORMALLY****
TOTAL RUN TIME: 0 days 0 hours 0 minutes 21 seconds 180 msec
