                         Program Version 4.2.1 -  RELEASE  -
|  1> ! wB97X-D3 SP def2-SVP
|  2> %pal
|  3> nprocs 24
|  4> end
|  5>
|  6> * xyz 0 1
|  7> S 	 -44.711 	 -5.90481 	 19.465
|  8> C 	 -45.3076 	 -4.32681 	 19.1083
|  9> C 	 -45.0049 	 -3.88736 	 17.8097
| 10> C 	 -44.2965 	 -4.92449 	 17.0403
| 11> C 	 -43.9796 	 -6.02143 	 17.8251
| 12> H 	 -44.1327 	 -4.8307 	 15.9656
| 13> C 	 -45.407 	 -2.55185 	 17.22
| 14> H 	 -44.61 	 -2.15883 	 16.561
| 15> H 	 -45.4474 	 -1.8438 	 18.0347
| 16> C 	 -46.6035 	 -2.67628 	 16.2802
| 17> H 	 -46.3345 	 -3.31758 	 15.4553
| 18> H 	 -47.4706 	 -3.06831 	 16.8983
| 19> C 	 -47.0718 	 -1.37055 	 15.5449
| 20> H 	 -47.3288 	 -0.576709 	 16.2567
| 21> H 	 -46.1494 	 -1.05944 	 14.9784
| 22> H 	 -47.8537 	 -1.53058 	 14.8331
| 23> S 	 -44.6217 	 -8.56345 	 16.9311
| 24> C 	 -43.3809 	 -9.69173 	 16.4773
| 25> C 	 -42.2007 	 -8.971 	 16.3578
| 26> C 	 -42.195 	 -7.66219 	 16.8937
| 27> C 	 -43.4848 	 -7.31004 	 17.3536
| 28> H 	 -41.2629 	 -9.39438 	 15.8543
| 29> C 	 -41.0103 	 -6.78451 	 16.8191
| 30> H 	 -40.1496 	 -7.42077 	 16.663
| 31> H 	 -40.831 	 -6.23421 	 17.8567
| 32> C 	 -41.0872 	 -5.82316 	 15.5576
| 33> H 	 -41.9166 	 -5.03315 	 15.554
| 34> H 	 -41.1276 	 -6.47437 	 14.6885
| 35> C 	 -39.7271 	 -5.05445 	 15.3423
| 36> H 	 -39.5939 	 -4.2649 	 16.043
| 37> H 	 -39.7751 	 -4.46588 	 14.407
| 38> H 	 -38.8957 	 -5.77902 	 15.3781
| 39> H 	 -45.95 	 -3.81947 	 19.7732
| 40> H 	 -43.4754 	 -10.6739 	 16.164
| 41> *
| 42>
| 43>                          ****END OF INPUT****

CARTESIAN COORDINATES (ANGSTROEM)
---------------------------------
  S    -44.711000   -5.904810   19.465000
  C    -45.307600   -4.326810   19.108300
  C    -45.004900   -3.887360   17.809700
  C    -44.296500   -4.924490   17.040300
  C    -43.979600   -6.021430   17.825100
  H    -44.132700   -4.830700   15.965600
  C    -45.407000   -2.551850   17.220000
  H    -44.610000   -2.158830   16.561000
  H    -45.447400   -1.843800   18.034700
  C    -46.603500   -2.676280   16.280200
  H    -46.334500   -3.317580   15.455300
  H    -47.470600   -3.068310   16.898300
  C    -47.071800   -1.370550   15.544900
  H    -47.328800   -0.576709   16.256700
  H    -46.149400   -1.059440   14.978400
  H    -47.853700   -1.530580   14.833100
  S    -44.621700   -8.563450   16.931100
  C    -43.380900   -9.691730   16.477300
  C    -42.200700   -8.971000   16.357800
  C    -42.195000   -7.662190   16.893700
  C    -43.484800   -7.310040   17.353600
  H    -41.262900   -9.394380   15.854300
  C    -41.010300   -6.784510   16.819100
  H    -40.149600   -7.420770   16.663000
  H    -40.831000   -6.234210   17.856700
  C    -41.087200   -5.823160   15.557600
  H    -41.916600   -5.033150   15.554000
  H    -41.127600   -6.474370   14.688500
  C    -39.727100   -5.054450   15.342300
  H    -39.593900   -4.264900   16.043000
  H    -39.775100   -4.465880   14.407000
  H    -38.895700   -5.779020   15.378100
  H    -45.950000   -3.819470   19.773200
  H    -43.475400  -10.673900   16.164000

 Total Charge           Charge          ....    0
 Multiplicity           Mult            ....    1
 Number of Electrons    NEL             ....  134
 Basis Dimension        Dim             ....  322

ORBITAL ENERGIES
----------------

  NO   OCC          E(Eh)            E(eV)
   0   2.0000     -88.966864     -2420.9114
   1   2.0000     -88.964615     -2420.8502
   2   2.0000     -10.332439      -281.1600
   3   2.0000     -10.323356      -280.9128
   4   2.0000     -10.314456      -280.6706
   5   2.0000     -10.311931      -280.6019
   6   2.0000     -10.306976      -280.4671
   7   2.0000     -10.304224      -280.3922
   8   2.0000     -10.300521      -280.2914
   9   2.0000     -10.298669      -280.2410
  10   2.0000     -10.297774      -280.2167
  11   2.0000     -10.295264      -280.1484
  12   2.0000     -10.294812      -280.1361
  13   2.0000     -10.292768      -280.0805
  14   2.0000     -10.283692      -279.8335
  15   2.0000     -10.278579      -279.6943
  16   2.0000      -8.081323      -219.9040
  17   2.0000      -8.079398      -219.8516
  18   2.0000      -6.039804      -164.3514
  19   2.0000      -6.037924      -164.3003
  20   2.0000      -6.035884      -164.2448
  21   2.0000      -6.033838      -164.1891
  22   2.0000      -6.032112      -164.1421
  23   2.0000      -6.030176      -164.0894
  24   2.0000      -1.003121       -27.2963
  25   2.0000      -0.980529       -26.6815
  26   2.0000      -0.910218       -24.7683
  27   2.0000      -0.902895       -24.5690
  28   2.0000      -0.867234       -23.5986
  29   2.0000      -0.847067       -23.0499
  30   2.0000      -0.845919       -23.0186
  31   2.0000      -0.812276       -22.1032
  32   2.0000      -0.778321       -21.1792
  33   2.0000      -0.766328       -20.8528
  34   2.0000      -0.705323       -19.1928
  35   2.0000      -0.694746       -18.9050
  36   2.0000      -0.690568       -18.7913
  37   2.0000      -0.657497       -17.8914
  38   2.0000      -0.645632       -17.5685
  39   2.0000      -0.617908       -16.8141
  40   2.0000      -0.591267       -16.0892
  41   2.0000      -0.572794       -15.5865
  42   2.0000      -0.562001       -15.2928
  43   2.0000      -0.558871       -15.2077
  44   2.0000      -0.528239       -14.3741
  45   2.0000      -0.518913       -14.1203
  46   2.0000      -0.514338       -13.9959
  47   2.0000      -0.510692       -13.8966
  48   2.0000      -0.508706       -13.8426
  49   2.0000      -0.495710       -13.4890
  50   2.0000      -0.493453       -13.4275
  51   2.0000      -0.481803       -13.1105
  52   2.0000      -0.465180       -12.6582
  53   2.0000      -0.461467       -12.5572
  54   2.0000      -0.461216       -12.5503
  55   2.0000      -0.448346       -12.2001
  56   2.0000      -0.437936       -11.9168
  57   2.0000      -0.436210       -11.8699
  58   2.0000      -0.432932       -11.7807
  59   2.0000      -0.423613       -11.5271
  60   2.0000      -0.420863       -11.4523
  61   2.0000      -0.417787       -11.3686
  62   2.0000      -0.413479       -11.2513
  63   2.0000      -0.340040        -9.2530
  64   2.0000      -0.324318        -8.8252
  65   2.0000      -0.316502        -8.6125
  66   2.0000      -0.304506        -8.2860
  67   0.0000       0.032394         0.8815
  68   0.0000       0.057327         1.5599
  69   0.0000       0.112181         3.0526
  70   0.0000       0.116682         3.1751
  71   0.0000       0.118222         3.2170

MULLIKEN ATOMIC CHARGES
-----------------------
   0 S :    0.113501
   1 C :   -0.099614
   2 C :   -0.109605
   3 C :    0.044133
   4 C :   -0.172167
   5 H :    0.038066
   6 C :    0.076565
   7 H :    0.016921
   8 H :    0.023211
   9 C :   -0.107862
  10 H :    0.032730
  11 H :    0.041139
  12 C :   -0.046940
  13 H :    0.037308
  14 H :    0.025497
  15 H :    0.042593
  16 S :    0.122373
  17 C :   -0.061691
  18 C :   -0.071985
  19 C :   -0.018408
  20 C :   -0.172309
  21 H :    0.036760
  22 C :    0.052497
  23 H :    0.009485
  24 H :    0.060618
  25 C :   -0.106603
  26 H :    0.047350
  27 H :    0.031435
  28 C :   -0.045260
  29 H :    0.023743
  30 H :    0.032196
  31 H :    0.035210
  32 H :    0.035990
  33 H :    0.033124
Sum of atomic charges:   -0.0000000

LOEWDIN ATOMIC CHARGES
----------------------
   0 S :    0.401883
   1 C :   -0.194281
   2 C :   -0.059531
   3 C :   -0.045205
   4 C :   -0.188823
   5 H :    0.034311
   6 C :   -0.037869
   7 H :    0.031143
   8 H :    0.028246
   9 C :   -0.042031
  10 H :    0.023868
  11 H :    0.027750
  12 C :   -0.066928
  13 H :    0.024292
  14 H :    0.027435
  15 H :    0.023844
  16 S :    0.425415
  17 C :   -0.186874
  18 C :   -0.080313
  19 C :   -0.062838
  20 C :   -0.213574
  21 H :    0.038025
  22 C :   -0.038658
  23 H :    0.026010
  24 H :    0.049082
  25 C :   -0.037575
  26 H :    0.030510
  27 H :    0.023706
  28 C :   -0.069189
  29 H :    0.017666
  30 H :    0.028616
  31 H :    0.024683
  32 H :    0.018564
  33 H :    0.018640

  Mayer bond orders larger than 0.100000
B(  0-S ,  1-C ) :   1.1517 B(  0-S ,  4-C ) :   1.1367 B(  1-C ,  2-C ) :   1.6159
B(  1-C , 32-H ) :   0.9719 B(  2-C ,  3-C ) :   1.2232 B(  2-C ,  6-C ) :   1.0363
B(  3-C ,  4-C ) :   1.6035 B(  3-C ,  5-H ) :   0.9771 B(  4-C , 20-C ) :   1.0245
B(  6-C ,  7-H ) :   0.9350 B(  6-C ,  8-H ) :   0.9430 B(  6-C ,  9-C ) :   1.0533
B(  9-C , 10-H ) :   0.9583 B(  9-C , 11-H ) :   0.9576 B(  9-C , 12-C ) :   1.0756
B( 12-C , 13-H ) :   0.9774 B( 12-C , 14-H ) :   0.9733 B( 12-C , 15-H ) :   0.9768
B( 16-S , 17-C ) :   1.1646 B( 16-S , 20-C ) :   1.1699 B( 17-C , 18-C ) :   1.5639
B( 17-C , 20-C ) :   0.1098 B( 17-C , 33-H ) :   0.9790 B( 18-C , 19-C ) :   1.3049
B( 18-C , 21-H ) :   0.9683 B( 19-C , 20-C ) :   1.5336 B( 19-C , 22-C ) :   1.0658
B( 22-C , 23-H ) :   0.9273 B( 22-C , 24-H ) :   0.9304 B( 22-C , 25-C ) :   1.0517
B( 25-C , 26-H ) :   0.9522 B( 25-C , 27-H ) :   0.9570 B( 25-C , 28-C ) :   1.0796
B( 28-C , 29-H ) :   0.9766 B( 28-C , 30-H ) :   0.9742 B( 28-C , 31-H ) :   0.9753

Dispersion correction           -0.014132360
FINAL SINGLE POINT ENERGY     -1339.869600531024

DIPOLE MOMENT
-------------
                                X             Y             Z
Electronic contribution:     -7.00219     -22.04179      15.54559
Nuclear contribution   :      7.11673      22.46253     -16.05772
                        -----------------------------------------
Total Dipole Moment    :      0.11454       0.42074      -0.51213
                        -----------------------------------------
Magnitude (a.u.)       :      0.67261
Magnitude (Debye)      :      1.70965

Rotational constants in cm-1:     0.017135     0.008386     0.006930
Rotational constants in MHz :   513.695382   251.400926   207.762676

                             ****ORCA TERMINATED NORMALLY****
TOTAL RUN TIME: 0 days 0 hours 0 minutes 20 seconds 187 msec
