                         Program Version 4.2.1 -  RELEASE  -
|  1> ! wB97X-D3 SP def2-SVP
|  2> %pal
|  3> nprocs 24
|  4> end
|  5>
|  6> * xyz 0 1
|  7> S 	 45.7129 	 -17.968 	 -111.693
|  8> C 	 47.3289 	 -17.4684 	 -111.555
|  9> C 	 48.2046 	 -18.5563 	 -111.678
| 10> C 	 47.5151 	 -19.7791 	 -111.797
| 11> C 	 46.1412 	 -19.5959 	 -111.834
| 12> H 	 48.017 	 -20.7322 	 -111.838
| 13> C 	 49.7033 	 -18.611 	 -111.835
| 14> H 	 50.0698 	 -19.6356 	 -111.678
| 15> H 	 50.2351 	 -17.9925 	 -111.221
| 16> C 	 50.1037 	 -18.2522 	 -113.27
| 17> H 	 49.6901 	 -17.3241 	 -113.677
| 18> H 	 51.1912 	 -18.109 	 -113.331
| 19> C 	 49.7155 	 -19.2692 	 -114.305
| 20> H 	 48.7118 	 -19.6572 	 -114.189
| 21> H 	 49.7273 	 -18.896 	 -115.373
| 22> H 	 50.3501 	 -20.1296 	 -114.166
| 23> S 	 44.6673 	 -20.9533 	 -109.955
| 24> C 	 43.5185 	 -22.2071 	 -110.533
| 25> C 	 43.5074 	 -22.2713 	 -111.895
| 26> C 	 44.4125 	 -21.3646 	 -112.598
| 27> C 	 45.106 	 -20.6087 	 -111.656
| 28> H 	 42.8003 	 -22.9151 	 -112.359
| 29> C 	 44.5392 	 -21.3407 	 -114.116
| 30> H 	 44.8503 	 -22.3046 	 -114.389
| 31> H 	 45.4064 	 -20.703 	 -114.424
| 32> C 	 43.3077 	 -20.9339 	 -114.919
| 33> H 	 42.4816 	 -21.6076 	 -114.7
| 34> H 	 43.3739 	 -21.0714 	 -116.056
| 35> C 	 42.8887 	 -19.475 	 -114.815
| 36> H 	 42.5893 	 -19.2065 	 -113.823
| 37> H 	 42.031 	 -19.2931 	 -115.528
| 38> H 	 43.5996 	 -18.723 	 -115.1
| 39> H 	 47.5731 	 -16.4424 	 -111.605
| 40> H 	 42.8918 	 -22.8787 	 -109.888
| 41> *
| 42>
| 43>                          ****END OF INPUT****

CARTESIAN COORDINATES (ANGSTROEM)
---------------------------------
  S     45.712900  -17.968000  -111.693000
  C     47.328900  -17.468400  -111.555000
  C     48.204600  -18.556300  -111.678000
  C     47.515100  -19.779100  -111.797000
  C     46.141200  -19.595900  -111.834000
  H     48.017000  -20.732200  -111.838000
  C     49.703300  -18.611000  -111.835000
  H     50.069800  -19.635600  -111.678000
  H     50.235100  -17.992500  -111.221000
  C     50.103700  -18.252200  -113.270000
  H     49.690100  -17.324100  -113.677000
  H     51.191200  -18.109000  -113.331000
  C     49.715500  -19.269200  -114.305000
  H     48.711800  -19.657200  -114.189000
  H     49.727300  -18.896000  -115.373000
  H     50.350100  -20.129600  -114.166000
  S     44.667300  -20.953300  -109.955000
  C     43.518500  -22.207100  -110.533000
  C     43.507400  -22.271300  -111.895000
  C     44.412500  -21.364600  -112.598000
  C     45.106000  -20.608700  -111.656000
  H     42.800300  -22.915100  -112.359000
  C     44.539200  -21.340700  -114.116000
  H     44.850300  -22.304600  -114.389000
  H     45.406400  -20.703000  -114.424000
  C     43.307700  -20.933900  -114.919000
  H     42.481600  -21.607600  -114.700000
  H     43.373900  -21.071400  -116.056000
  C     42.888700  -19.475000  -114.815000
  H     42.589300  -19.206500  -113.823000
  H     42.031000  -19.293100  -115.528000
  H     43.599600  -18.723000  -115.100000
  H     47.573100  -16.442400  -111.605000
  H     42.891800  -22.878700  -109.888000

 Total Charge           Charge          ....    0
 Multiplicity           Mult            ....    1
 Number of Electrons    NEL             ....  134
 Basis Dimension        Dim             ....  322

ORBITAL ENERGIES
----------------

  NO   OCC          E(Eh)            E(eV)
   0   2.0000     -88.966925     -2420.9131
   1   2.0000     -88.963555     -2420.8214
   2   2.0000     -10.327860      -281.0354
   3   2.0000     -10.321611      -280.8653
   4   2.0000     -10.319954      -280.8202
   5   2.0000     -10.309117      -280.5253
   6   2.0000     -10.308935      -280.5204
   7   2.0000     -10.299297      -280.2581
   8   2.0000     -10.293327      -280.0957
   9   2.0000     -10.292002      -280.0596
  10   2.0000     -10.291779      -280.0536
  11   2.0000     -10.290019      -280.0056
  12   2.0000     -10.286796      -279.9180
  13   2.0000     -10.281871      -279.7839
  14   2.0000     -10.272153      -279.5195
  15   2.0000     -10.271267      -279.4954
  16   2.0000      -8.083573      -219.9652
  17   2.0000      -8.077110      -219.7893
  18   2.0000      -6.041743      -164.4042
  19   2.0000      -6.037609      -164.2917
  20   2.0000      -6.035772      -164.2417
  21   2.0000      -6.034785      -164.2149
  22   2.0000      -6.031960      -164.1380
  23   2.0000      -6.027588      -164.0190
  24   2.0000      -1.013474       -27.5780
  25   2.0000      -0.978851       -26.6359
  26   2.0000      -0.918951       -25.0059
  27   2.0000      -0.906019       -24.6540
  28   2.0000      -0.867113       -23.5953
  29   2.0000      -0.853061       -23.2130
  30   2.0000      -0.844049       -22.9677
  31   2.0000      -0.812572       -22.1112
  32   2.0000      -0.788256       -21.4495
  33   2.0000      -0.774208       -21.0673
  34   2.0000      -0.703090       -19.1320
  35   2.0000      -0.697680       -18.9848
  36   2.0000      -0.689274       -18.7561
  37   2.0000      -0.654275       -17.8037
  38   2.0000      -0.652053       -17.7433
  39   2.0000      -0.619966       -16.8701
  40   2.0000      -0.594181       -16.1685
  41   2.0000      -0.572628       -15.5820
  42   2.0000      -0.554316       -15.0837
  43   2.0000      -0.554156       -15.0794
  44   2.0000      -0.546528       -14.8718
  45   2.0000      -0.537098       -14.6152
  46   2.0000      -0.514313       -13.9952
  47   2.0000      -0.511562       -13.9203
  48   2.0000      -0.503318       -13.6960
  49   2.0000      -0.492763       -13.4088
  50   2.0000      -0.489194       -13.3116
  51   2.0000      -0.478519       -13.0212
  52   2.0000      -0.470072       -12.7913
  53   2.0000      -0.462991       -12.5986
  54   2.0000      -0.459383       -12.5004
  55   2.0000      -0.441956       -12.0262
  56   2.0000      -0.440177       -11.9778
  57   2.0000      -0.438837       -11.9414
  58   2.0000      -0.434550       -11.8247
  59   2.0000      -0.426812       -11.6141
  60   2.0000      -0.423973       -11.5369
  61   2.0000      -0.412385       -11.2216
  62   2.0000      -0.406835       -11.0705
  63   2.0000      -0.341138        -9.2828
  64   2.0000      -0.326254        -8.8778
  65   2.0000      -0.318948        -8.6790
  66   2.0000      -0.310433        -8.4473
  67   0.0000       0.047949         1.3048
  68   0.0000       0.053539         1.4569
  69   0.0000       0.112529         3.0621
  70   0.0000       0.122675         3.3382
  71   0.0000       0.128468         3.4958

MULLIKEN ATOMIC CHARGES
-----------------------
   0 S :    0.140450
   1 C :   -0.114260
   2 C :   -0.095720
   3 C :    0.041410
   4 C :   -0.190306
   5 H :    0.012630
   6 C :    0.135252
   7 H :    0.018628
   8 H :    0.001684
   9 C :   -0.074044
  10 H :    0.021318
  11 H :    0.026941
  12 C :   -0.074616
  13 H :    0.031271
  14 H :    0.041813
  15 H :    0.017005
  16 S :    0.105810
  17 C :   -0.106583
  18 C :   -0.024840
  19 C :   -0.014292
  20 C :   -0.185811
  21 H :    0.006613
  22 C :    0.120686
  23 H :    0.017440
  24 H :    0.031131
  25 C :   -0.099661
  26 H :    0.026045
  27 H :    0.034778
  28 C :   -0.048339
  29 H :    0.029966
  30 H :    0.032672
  31 H :    0.025779
  32 H :    0.036418
  33 H :    0.072733
Sum of atomic charges:   -0.0000000

LOEWDIN ATOMIC CHARGES
----------------------
   0 S :    0.471706
   1 C :   -0.211915
   2 C :   -0.058264
   3 C :   -0.057124
   4 C :   -0.229703
   5 H :    0.032001
   6 C :   -0.017681
   7 H :    0.033549
   8 H :    0.017495
   9 C :   -0.041756
  10 H :    0.022258
  11 H :    0.023356
  12 C :   -0.072707
  13 H :    0.021911
  14 H :    0.033796
  15 H :    0.018255
  16 S :    0.366682
  17 C :   -0.177653
  18 C :   -0.069801
  19 C :   -0.049097
  20 C :   -0.189139
  21 H :    0.024396
  22 C :   -0.029456
  23 H :    0.028010
  24 H :    0.037467
  25 C :   -0.049147
  26 H :    0.021812
  27 H :    0.034815
  28 C :   -0.067968
  29 H :    0.019264
  30 H :    0.032936
  31 H :    0.022218
  32 H :    0.017886
  33 H :    0.041599

  Mayer bond orders larger than 0.100000
B(  0-S ,  1-C ) :   1.1794 B(  0-S ,  4-C ) :   1.2138 B(  1-C ,  2-C ) :   1.5449
B(  1-C ,  4-C ) :   0.1053 B(  1-C , 32-H ) :   0.9781 B(  2-C ,  3-C ) :   1.2973
B(  2-C ,  6-C ) :   1.0306 B(  3-C ,  4-C ) :   1.5184 B(  3-C ,  5-H ) :   0.9991
B(  4-C , 20-C ) :   0.9906 B(  6-C ,  7-H ) :   0.9420 B(  6-C ,  8-H ) :   0.9305
B(  6-C ,  9-C ) :   1.0671 B(  9-C , 10-H ) :   0.9593 B(  9-C , 11-H ) :   0.9567
B(  9-C , 12-C ) :   1.0742 B( 12-C , 13-H ) :   0.9717 B( 12-C , 14-H ) :   0.9731
B( 12-C , 15-H ) :   0.9735 B( 16-S , 17-C ) :   1.1140 B( 16-S , 20-C ) :   1.1329
B( 17-C , 18-C ) :   1.6815 B( 17-C , 33-H ) :   0.9588 B( 18-C , 19-C ) :   1.1821
B( 18-C , 21-H ) :   0.9878 B( 19-C , 20-C ) :   1.6462 B( 19-C , 22-C ) :   1.0376
B( 22-C , 23-H ) :   0.9271 B( 22-C , 24-H ) :   0.9337 B( 22-C , 25-C ) :   1.0710
B( 25-C , 26-H ) :   0.9548 B( 25-C , 27-H ) :   0.9556 B( 25-C , 28-C ) :   1.0756
B( 28-C , 29-H ) :   0.9768 B( 28-C , 30-H ) :   0.9731 B( 28-C , 31-H ) :   0.9735

Dispersion correction           -0.015136461
FINAL SINGLE POINT ENERGY     -1339.880162695905

DIPOLE MOMENT
-------------
                                X             Y             Z
Electronic contribution:     -8.34437       0.34809      21.38684
Nuclear contribution   :      8.53504      -0.50034     -21.82952
                        -----------------------------------------
Total Dipole Moment    :      0.19068      -0.15224      -0.44268
                        -----------------------------------------
Magnitude (a.u.)       :      0.50547
Magnitude (Debye)      :      1.28481

Rotational constants in cm-1:     0.019572     0.008970     0.007683
Rotational constants in MHz :   586.764660   268.906923   230.318463

                             ****ORCA TERMINATED NORMALLY****
TOTAL RUN TIME: 0 days 0 hours 0 minutes 21 seconds 420 msec
