                         Program Version 4.2.1 -  RELEASE  -
|  1> ! wB97X-D3 SP def2-SVP
|  2> %pal
|  3> nprocs 24
|  4> end
|  5>
|  6> * xyz 0 1
|  7> S 	 -37.3579 	 10.23 	 0.65602
|  8> C 	 -37.8984 	 9.19519 	 -0.628077
|  9> C 	 -37.945 	 7.85698 	 -0.282258
| 10> C 	 -37.7236 	 7.66929 	 1.10247
| 11> C 	 -37.3909 	 8.82685 	 1.78472
| 12> H 	 -37.6355 	 6.72355 	 1.69847
| 13> C 	 -38.096 	 6.71483 	 -1.21241
| 14> H 	 -38.6427 	 6.94456 	 -2.13722
| 15> H 	 -38.8051 	 5.99131 	 -0.723363
| 16> C 	 -36.8649 	 5.91082 	 -1.5563
| 17> H 	 -36.5345 	 5.29719 	 -0.679926
| 18> H 	 -37.1939 	 5.17959 	 -2.36238
| 19> C 	 -35.6105 	 6.63379 	 -2.04811
| 20> H 	 -34.8642 	 5.85806 	 -2.42661
| 21> H 	 -35.9465 	 7.4746 	 -2.74292
| 22> H 	 -35.1248 	 7.26253 	 -1.3481
| 23> S 	 -35.6425 	 10.0037 	 3.60992
| 24> C 	 -36.0503 	 9.92302 	 5.30462
| 25> C 	 -37.0582 	 9.05535 	 5.56098
| 26> C 	 -37.5866 	 8.44509 	 4.35259
| 27> C 	 -37.005 	 8.91614 	 3.21579
| 28> H 	 -37.4467 	 8.96177 	 6.57541
| 29> C 	 -38.7839 	 7.51636 	 4.43647
| 30> H 	 -39.1682 	 7.31069 	 3.45123
| 31> H 	 -39.4909 	 8.14645 	 4.94218
| 32> C 	 -38.5706 	 6.2662 	 5.27737
| 33> H 	 -39.4537 	 5.65099 	 5.35528
| 34> H 	 -38.4844 	 6.57979 	 6.30207
| 35> C 	 -37.3393 	 5.35006 	 4.83232
| 36> H 	 -36.43 	 5.80327 	 5.16777
| 37> H 	 -37.1662 	 5.21116 	 3.7056
| 38> H 	 -37.3414 	 4.43146 	 5.41017
| 39> H 	 -37.9641 	 9.58356 	 -1.63703
| 40> H 	 -35.5511 	 10.5511 	 6.03896
| 41> *
| 42>
| 43>                          ****END OF INPUT****

CARTESIAN COORDINATES (ANGSTROEM)
---------------------------------
  S    -37.357900   10.230000    0.656020
  C    -37.898400    9.195190   -0.628077
  C    -37.945000    7.856980   -0.282258
  C    -37.723600    7.669290    1.102470
  C    -37.390900    8.826850    1.784720
  H    -37.635500    6.723550    1.698470
  C    -38.096000    6.714830   -1.212410
  H    -38.642700    6.944560   -2.137220
  H    -38.805100    5.991310   -0.723363
  C    -36.864900    5.910820   -1.556300
  H    -36.534500    5.297190   -0.679926
  H    -37.193900    5.179590   -2.362380
  C    -35.610500    6.633790   -2.048110
  H    -34.864200    5.858060   -2.426610
  H    -35.946500    7.474600   -2.742920
  H    -35.124800    7.262530   -1.348100
  S    -35.642500   10.003700    3.609920
  C    -36.050300    9.923020    5.304620
  C    -37.058200    9.055350    5.560980
  C    -37.586600    8.445090    4.352590
  C    -37.005000    8.916140    3.215790
  H    -37.446700    8.961770    6.575410
  C    -38.783900    7.516360    4.436470
  H    -39.168200    7.310690    3.451230
  H    -39.490900    8.146450    4.942180
  C    -38.570600    6.266200    5.277370
  H    -39.453700    5.650990    5.355280
  H    -38.484400    6.579790    6.302070
  C    -37.339300    5.350060    4.832320
  H    -36.430000    5.803270    5.167770
  H    -37.166200    5.211160    3.705600
  H    -37.341400    4.431460    5.410170
  H    -37.964100    9.583560   -1.637030
  H    -35.551100   10.551100    6.038960

 Total Charge           Charge          ....    0
 Multiplicity           Mult            ....    1
 Number of Electrons    NEL             ....  134
 Basis Dimension        Dim             ....  322

ORBITAL ENERGIES
----------------

  NO   OCC          E(Eh)            E(eV)
   0   2.0000     -88.968892     -2420.9666
   1   2.0000     -88.960808     -2420.7467
   2   2.0000     -10.335087      -281.2320
   3   2.0000     -10.327876      -281.0358
   4   2.0000     -10.316862      -280.7361
   5   2.0000     -10.314503      -280.6719
   6   2.0000     -10.304360      -280.3959
   7   2.0000     -10.301291      -280.3124
   8   2.0000     -10.297722      -280.2153
   9   2.0000     -10.295007      -280.1414
  10   2.0000     -10.293240      -280.0933
  11   2.0000     -10.292363      -280.0694
  12   2.0000     -10.290196      -280.0105
  13   2.0000     -10.288058      -279.9523
  14   2.0000     -10.283948      -279.8404
  15   2.0000     -10.281144      -279.7642
  16   2.0000      -8.082978      -219.9490
  17   2.0000      -8.075668      -219.7501
  18   2.0000      -6.041530      -164.3984
  19   2.0000      -6.037640      -164.2925
  20   2.0000      -6.034289      -164.2013
  21   2.0000      -6.033663      -164.1843
  22   2.0000      -6.030294      -164.0926
  23   2.0000      -6.026171      -163.9804
  24   2.0000      -1.004068       -27.3221
  25   2.0000      -0.985064       -26.8049
  26   2.0000      -0.912483       -24.8299
  27   2.0000      -0.907919       -24.7057
  28   2.0000      -0.867604       -23.6087
  29   2.0000      -0.849546       -23.1173
  30   2.0000      -0.840494       -22.8710
  31   2.0000      -0.815024       -22.1779
  32   2.0000      -0.785168       -21.3655
  33   2.0000      -0.776806       -21.1380
  34   2.0000      -0.710441       -19.3321
  35   2.0000      -0.695915       -18.9368
  36   2.0000      -0.691176       -18.8079
  37   2.0000      -0.659348       -17.9418
  38   2.0000      -0.640381       -17.4256
  39   2.0000      -0.619545       -16.8587
  40   2.0000      -0.594908       -16.1883
  41   2.0000      -0.565672       -15.3927
  42   2.0000      -0.555272       -15.1097
  43   2.0000      -0.548936       -14.9373
  44   2.0000      -0.542516       -14.7626
  45   2.0000      -0.540202       -14.6996
  46   2.0000      -0.515007       -14.0140
  47   2.0000      -0.507313       -13.8047
  48   2.0000      -0.498208       -13.5569
  49   2.0000      -0.495835       -13.4924
  50   2.0000      -0.489130       -13.3099
  51   2.0000      -0.474241       -12.9048
  52   2.0000      -0.471637       -12.8339
  53   2.0000      -0.466330       -12.6895
  54   2.0000      -0.454226       -12.3601
  55   2.0000      -0.450283       -12.2528
  56   2.0000      -0.445813       -12.1312
  57   2.0000      -0.442362       -12.0373
  58   2.0000      -0.435966       -11.8633
  59   2.0000      -0.424392       -11.5483
  60   2.0000      -0.420489       -11.4421
  61   2.0000      -0.412393       -11.2218
  62   2.0000      -0.401123       -10.9151
  63   2.0000      -0.353988        -9.6325
  64   2.0000      -0.332389        -9.0448
  65   2.0000      -0.329229        -8.9588
  66   2.0000      -0.291137        -7.9222
  67   0.0000       0.028238         0.7684
  68   0.0000       0.071293         1.9400
  69   0.0000       0.106294         2.8924
  70   0.0000       0.120875         3.2892
  71   0.0000       0.128252         3.4899

MULLIKEN ATOMIC CHARGES
-----------------------
   0 S :    0.112093
   1 C :   -0.125766
   2 C :   -0.051691
   3 C :   -0.001049
   4 C :   -0.141541
   5 H :    0.031300
   6 C :    0.047353
   7 H :    0.024610
   8 H :    0.032811
   9 C :   -0.096731
  10 H :    0.031709
  11 H :    0.041346
  12 C :   -0.062023
  13 H :    0.057141
  14 H :    0.022530
  15 H :    0.030719
  16 S :    0.081635
  17 C :   -0.092248
  18 C :   -0.035626
  19 C :   -0.049431
  20 C :   -0.167226
  21 H :    0.027116
  22 C :    0.096538
  23 H :    0.018836
  24 H :    0.027347
  25 C :   -0.057732
  26 H :    0.026290
  27 H :    0.015389
  28 C :   -0.070901
  29 H :    0.029954
  30 H :    0.052217
  31 H :    0.034359
  32 H :    0.050090
  33 H :    0.060581
Sum of atomic charges:   -0.0000000

LOEWDIN ATOMIC CHARGES
----------------------
   0 S :    0.392765
   1 C :   -0.196733
   2 C :   -0.069433
   3 C :   -0.067213
   4 C :   -0.174736
   5 H :    0.040619
   6 C :   -0.044852
   7 H :    0.031612
   8 H :    0.041066
   9 C :   -0.050546
  10 H :    0.024268
  11 H :    0.033628
  12 C :   -0.079240
  13 H :    0.040268
  14 H :    0.030052
  15 H :    0.019692
  16 S :    0.373089
  17 C :   -0.174417
  18 C :   -0.075554
  19 C :   -0.050971
  20 C :   -0.186474
  21 H :    0.035141
  22 C :   -0.027118
  23 H :    0.025288
  24 H :    0.034874
  25 C :   -0.036987
  26 H :    0.023261
  27 H :    0.020840
  28 C :   -0.073901
  29 H :    0.023444
  30 H :    0.034337
  31 H :    0.027067
  32 H :    0.026288
  33 H :    0.030575

  Mayer bond orders larger than 0.100000
B(  0-S ,  1-C ) :   1.1405 B(  0-S ,  4-C ) :   1.1391 B(  1-C ,  2-C ) :   1.6019
B(  1-C , 32-H ) :   0.9669 B(  2-C ,  3-C ) :   1.2266 B(  2-C ,  6-C ) :   1.0381
B(  3-C ,  4-C ) :   1.5857 B(  3-C ,  5-H ) :   0.9833 B(  4-C , 20-C ) :   1.0435
B(  6-C ,  7-H ) :   0.9386 B(  6-C ,  8-H ) :   0.9319 B(  6-C ,  9-C ) :   1.0827
B(  9-C , 10-H ) :   0.9516 B(  9-C , 11-H ) :   0.9538 B(  9-C , 12-C ) :   1.0761
B( 12-C , 13-H ) :   0.9718 B( 12-C , 14-H ) :   0.9714 B( 12-C , 15-H ) :   0.9697
B( 16-S , 17-C ) :   1.1391 B( 16-S , 20-C ) :   1.1092 B( 17-C , 18-C ) :   1.6559
B( 17-C , 33-H ) :   0.9648 B( 18-C , 19-C ) :   1.1849 B( 18-C , 21-H ) :   0.9906
B( 19-C , 20-C ) :   1.6521 B( 19-C , 22-C ) :   1.0336 B( 22-C , 23-H ) :   0.9376
B( 22-C , 24-H ) :   0.9309 B( 22-C , 25-C ) :   1.0771 B( 25-C , 26-H ) :   0.9596
B( 25-C , 27-H ) :   0.9504 B( 25-C , 28-C ) :   1.0606 B( 28-C , 29-H ) :   0.9720
B( 28-C , 30-H ) :   0.9761 B( 28-C , 31-H ) :   0.9740

Dispersion correction           -0.015079083
FINAL SINGLE POINT ENERGY     -1339.881139540595

DIPOLE MOMENT
-------------
                                X             Y             Z
Electronic contribution:      3.47383      24.08740       3.76738
Nuclear contribution   :     -3.70681     -24.55414      -3.53590
                        -----------------------------------------
Total Dipole Moment    :     -0.23298      -0.46674       0.23148
                        -----------------------------------------
Magnitude (a.u.)       :      0.57071
Magnitude (Debye)      :      1.45063

Rotational constants in cm-1:     0.019291     0.008977     0.007177
Rotational constants in MHz :   578.321504   269.124197   215.170205

                             ****ORCA TERMINATED NORMALLY****
TOTAL RUN TIME: 0 days 0 hours 0 minutes 22 seconds 169 msec
