                         Program Version 4.2.1 -  RELEASE  -
|  1> ! wB97X-D3 SP def2-SVP
|  2> %pal
|  3> nprocs 24
|  4> end
|  5>
|  6> * xyz 0 1
|  7> S 	 -83.6598 	 -21.4627 	 -47.34
|  8> C 	 -84.3629 	 -19.8812 	 -47.2533
|  9> C 	 -83.5182 	 -18.9723 	 -47.9044
| 10> C 	 -82.4965 	 -19.5924 	 -48.7338
| 11> C 	 -82.628 	 -20.9565 	 -48.657
| 12> H 	 -81.7703 	 -19.2012 	 -49.459
| 13> C 	 -83.7634 	 -17.4623 	 -47.9458
| 14> H 	 -84.4163 	 -17.233 	 -47.0687
| 15> H 	 -84.4502 	 -17.2085 	 -48.7383
| 16> C 	 -82.5017 	 -16.5681 	 -47.6965
| 17> H 	 -82.1925 	 -16.8625 	 -46.6498
| 18> H 	 -81.5814 	 -16.7601 	 -48.2907
| 19> C 	 -82.7859 	 -15.0098 	 -47.9037
| 20> H 	 -83.4196 	 -14.8255 	 -48.7814
| 21> H 	 -83.3649 	 -14.7614 	 -47.0364
| 22> H 	 -81.8149 	 -14.4693 	 -47.9303
| 23> S 	 -80.3815 	 -22.3205 	 -48.4669
| 24> C 	 -79.9796 	 -23.5073 	 -49.7719
| 25> C 	 -80.8518 	 -23.3964 	 -50.8077
| 26> C 	 -81.9385 	 -22.5574 	 -50.4775
| 27> C 	 -81.8161 	 -21.9561 	 -49.2926
| 28> H 	 -80.7136 	 -23.8728 	 -51.8004
| 29> C 	 -83.0139 	 -22.253 	 -51.4948
| 30> H 	 -82.6272 	 -21.8261 	 -52.3809
| 31> H 	 -83.7133 	 -21.4964 	 -51.0768
| 32> C 	 -83.8177 	 -23.4965 	 -51.934
| 33> H 	 -83.9814 	 -24.0848 	 -51.0956
| 34> H 	 -83.1837 	 -24.1775 	 -52.4304
| 35> C 	 -85.1917 	 -23.256 	 -52.6186
| 36> H 	 -85.6149 	 -22.2916 	 -52.2158
| 37> H 	 -85.8753 	 -24.0336 	 -52.239
| 38> H 	 -85.1971 	 -23.2453 	 -53.7142
| 39> H 	 -85.2061 	 -19.5856 	 -46.6384
| 40> H 	 -79.0594 	 -24.0137 	 -49.6928
| 41> *
| 42>
| 43>                          ****END OF INPUT****

CARTESIAN COORDINATES (ANGSTROEM)
---------------------------------
  S    -83.659800  -21.462700  -47.340000
  C    -84.362900  -19.881200  -47.253300
  C    -83.518200  -18.972300  -47.904400
  C    -82.496500  -19.592400  -48.733800
  C    -82.628000  -20.956500  -48.657000
  H    -81.770300  -19.201200  -49.459000
  C    -83.763400  -17.462300  -47.945800
  H    -84.416300  -17.233000  -47.068700
  H    -84.450200  -17.208500  -48.738300
  C    -82.501700  -16.568100  -47.696500
  H    -82.192500  -16.862500  -46.649800
  H    -81.581400  -16.760100  -48.290700
  C    -82.785900  -15.009800  -47.903700
  H    -83.419600  -14.825500  -48.781400
  H    -83.364900  -14.761400  -47.036400
  H    -81.814900  -14.469300  -47.930300
  S    -80.381500  -22.320500  -48.466900
  C    -79.979600  -23.507300  -49.771900
  C    -80.851800  -23.396400  -50.807700
  C    -81.938500  -22.557400  -50.477500
  C    -81.816100  -21.956100  -49.292600
  H    -80.713600  -23.872800  -51.800400
  C    -83.013900  -22.253000  -51.494800
  H    -82.627200  -21.826100  -52.380900
  H    -83.713300  -21.496400  -51.076800
  C    -83.817700  -23.496500  -51.934000
  H    -83.981400  -24.084800  -51.095600
  H    -83.183700  -24.177500  -52.430400
  C    -85.191700  -23.256000  -52.618600
  H    -85.614900  -22.291600  -52.215800
  H    -85.875300  -24.033600  -52.239000
  H    -85.197100  -23.245300  -53.714200
  H    -85.206100  -19.585600  -46.638400
  H    -79.059400  -24.013700  -49.692800

 Total Charge           Charge          ....    0
 Multiplicity           Mult            ....    1
 Number of Electrons    NEL             ....  134
 Basis Dimension        Dim             ....  322

ORBITAL ENERGIES
----------------

  NO   OCC          E(Eh)            E(eV)
   0   2.0000     -88.962124     -2420.7825
   1   2.0000     -88.960714     -2420.7441
   2   2.0000     -10.321781      -280.8699
   3   2.0000     -10.316262      -280.7198
   4   2.0000     -10.313514      -280.6450
   5   2.0000     -10.311129      -280.5801
   6   2.0000     -10.306234      -280.4469
   7   2.0000     -10.298070      -280.2247
   8   2.0000     -10.297586      -280.2116
   9   2.0000     -10.295626      -280.1582
  10   2.0000     -10.294713      -280.1334
  11   2.0000     -10.292143      -280.0634
  12   2.0000     -10.284242      -279.8485
  13   2.0000     -10.284213      -279.8477
  14   2.0000     -10.282889      -279.8116
  15   2.0000     -10.272429      -279.5270
  16   2.0000      -8.077452      -219.7986
  17   2.0000      -8.076293      -219.7671
  18   2.0000      -6.035860      -164.2441
  19   2.0000      -6.034710      -164.2128
  20   2.0000      -6.032090      -164.1415
  21   2.0000      -6.030884      -164.1087
  22   2.0000      -6.028059      -164.0318
  23   2.0000      -6.026883      -163.9998
  24   2.0000      -1.015482       -27.6327
  25   2.0000      -0.986019       -26.8309
  26   2.0000      -0.905403       -24.6373
  27   2.0000      -0.900187       -24.4953
  28   2.0000      -0.872787       -23.7498
  29   2.0000      -0.847284       -23.0558
  30   2.0000      -0.842668       -22.9302
  31   2.0000      -0.816874       -22.2283
  32   2.0000      -0.778008       -21.1707
  33   2.0000      -0.766859       -20.8673
  34   2.0000      -0.706141       -19.2151
  35   2.0000      -0.703487       -19.1429
  36   2.0000      -0.688904       -18.7460
  37   2.0000      -0.668426       -18.1888
  38   2.0000      -0.645778       -17.5725
  39   2.0000      -0.612314       -16.6619
  40   2.0000      -0.602410       -16.3924
  41   2.0000      -0.560686       -15.2570
  42   2.0000      -0.558881       -15.2079
  43   2.0000      -0.554596       -15.0913
  44   2.0000      -0.527299       -14.3485
  45   2.0000      -0.519476       -14.1357
  46   2.0000      -0.517719       -14.0878
  47   2.0000      -0.508800       -13.8451
  48   2.0000      -0.504986       -13.7414
  49   2.0000      -0.501750       -13.6533
  50   2.0000      -0.493904       -13.4398
  51   2.0000      -0.476187       -12.9577
  52   2.0000      -0.466942       -12.7061
  53   2.0000      -0.462995       -12.5987
  54   2.0000      -0.455792       -12.4027
  55   2.0000      -0.447755       -12.1840
  56   2.0000      -0.446980       -12.1629
  57   2.0000      -0.438669       -11.9368
  58   2.0000      -0.431923       -11.7532
  59   2.0000      -0.423289       -11.5183
  60   2.0000      -0.418476       -11.3873
  61   2.0000      -0.413090       -11.2407
  62   2.0000      -0.404133       -10.9970
  63   2.0000      -0.340850        -9.2750
  64   2.0000      -0.328336        -8.9345
  65   2.0000      -0.317513        -8.6400
  66   2.0000      -0.308517        -8.3952
  67   0.0000       0.046530         1.2661
  68   0.0000       0.054166         1.4739
  69   0.0000       0.109112         2.9691
  70   0.0000       0.111652         3.0382
  71   0.0000       0.137232         3.7343

MULLIKEN ATOMIC CHARGES
-----------------------
   0 S :    0.114778
   1 C :   -0.104173
   2 C :   -0.091768
   3 C :    0.053301
   4 C :   -0.195103
   5 H :    0.031518
   6 C :    0.050488
   7 H :    0.012562
   8 H :    0.039675
   9 C :   -0.136228
  10 H :    0.042748
  11 H :    0.039320
  12 C :   -0.048628
  13 H :    0.042138
  14 H :    0.029564
  15 H :    0.051124
  16 S :    0.103318
  17 C :   -0.085219
  18 C :   -0.022821
  19 C :   -0.012781
  20 C :   -0.192867
  21 H :    0.038147
  22 C :    0.097363
  23 H :    0.021015
  24 H :    0.029593
  25 C :   -0.069398
  26 H :    0.006174
  27 H :    0.003987
  28 C :   -0.054446
  29 H :    0.032575
  30 H :    0.037732
  31 H :    0.045005
  32 H :    0.047939
  33 H :    0.043369
Sum of atomic charges:    0.0000000

LOEWDIN ATOMIC CHARGES
----------------------
   0 S :    0.409710
   1 C :   -0.205825
   2 C :   -0.060505
   3 C :   -0.059523
   4 C :   -0.193635
   5 H :    0.041875
   6 C :   -0.042453
   7 H :    0.031861
   8 H :    0.027587
   9 C :   -0.047028
  10 H :    0.031589
  11 H :    0.020058
  12 C :   -0.065439
  13 H :    0.027996
  14 H :    0.021805
  15 H :    0.032929
  16 S :    0.402050
  17 C :   -0.151881
  18 C :   -0.065196
  19 C :   -0.062425
  20 C :   -0.222828
  21 H :    0.041642
  22 C :   -0.023682
  23 H :    0.023905
  24 H :    0.032379
  25 C :   -0.044152
  26 H :    0.017708
  27 H :    0.015109
  28 C :   -0.067110
  29 H :    0.031398
  30 H :    0.032014
  31 H :    0.024797
  32 H :    0.029352
  33 H :    0.015920

  Mayer bond orders larger than 0.100000
B(  0-S ,  1-C ) :   1.1336 B(  0-S ,  4-C ) :   1.1551 B(  1-C ,  2-C ) :   1.6189
B(  1-C , 32-H ) :   0.9718 B(  2-C ,  3-C ) :   1.1894 B(  2-C ,  6-C ) :   1.0275
B(  3-C ,  4-C ) :   1.6137 B(  3-C ,  5-H ) :   0.9944 B(  4-C , 20-C ) :   0.9908
B(  6-C ,  7-H ) :   0.9412 B(  6-C ,  8-H ) :   0.9490 B(  6-C ,  9-C ) :   1.0295
B(  9-C , 10-H ) :   0.9614 B(  9-C , 11-H ) :   0.9683 B(  9-C , 12-C ) :   1.0588
B( 12-C , 13-H ) :   0.9783 B( 12-C , 14-H ) :   0.9793 B( 12-C , 15-H ) :   0.9777
B( 16-S , 17-C ) :   1.1348 B( 16-S , 20-C ) :   1.1578 B( 17-C , 18-C ) :   1.6202
B( 17-C , 33-H ) :   0.9790 B( 18-C , 19-C ) :   1.2107 B( 18-C , 21-H ) :   0.9855
B( 19-C , 20-C ) :   1.6598 B( 19-C , 22-C ) :   1.0553 B( 22-C , 23-H ) :   0.9375
B( 22-C , 24-H ) :   0.9290 B( 22-C , 25-C ) :   1.0517 B( 25-C , 26-H ) :   0.9574
B( 25-C , 27-H ) :   0.9508 B( 25-C , 28-C ) :   1.0726 B( 28-C , 29-H ) :   0.9755
B( 28-C , 30-H ) :   0.9792 B( 28-C , 31-H ) :   0.9783

Dispersion correction           -0.013704128
FINAL SINGLE POINT ENERGY     -1339.856566052452

DIPOLE MOMENT
-------------
                                X             Y             Z
Electronic contribution:     10.56722     -15.13696      12.42144
Nuclear contribution   :    -10.60840      15.46126     -12.81317
                        -----------------------------------------
Total Dipole Moment    :     -0.04118       0.32430      -0.39173
                        -----------------------------------------
Magnitude (a.u.)       :      0.51021
Magnitude (Debye)      :      1.29685

Rotational constants in cm-1:     0.018717     0.007623     0.006694
Rotational constants in MHz :   561.124401   228.542717   200.686143

                             ****ORCA TERMINATED NORMALLY****
TOTAL RUN TIME: 0 days 0 hours 0 minutes 19 seconds 828 msec
