                         Program Version 4.2.1 -  RELEASE  -
|  1> ! wB97X-D3 SP def2-SVP
|  2> %pal
|  3> nprocs 24
|  4> end
|  5>
|  6> * xyz 0 1
|  7> S 	 -122.952 	 54.9235 	 -30.1392
|  8> C 	 -124.055 	 53.5343 	 -30.1746
|  9> C 	 -123.683 	 52.685 	 -31.2513
| 10> C 	 -122.69 	 53.2803 	 -32.1354
| 11> C 	 -122.166 	 54.4748 	 -31.6677
| 12> H 	 -122.311 	 52.8822 	 -33.1051
| 13> C 	 -124.476 	 51.4701 	 -31.7416
| 14> H 	 -124.574 	 50.8234 	 -30.8577
| 15> H 	 -123.855 	 50.9693 	 -32.4406
| 16> C 	 -125.823 	 51.7496 	 -32.4329
| 17> H 	 -125.683 	 52.2469 	 -33.3851
| 18> H 	 -126.249 	 50.7549 	 -32.7173
| 19> C 	 -126.786 	 52.5572 	 -31.6424
| 20> H 	 -127.727 	 52.5951 	 -32.1887
| 21> H 	 -127.039 	 52.0279 	 -30.7504
| 22> H 	 -126.44 	 53.5769 	 -31.4245
| 23> S 	 -119.471 	 54.832 	 -31.8854
| 24> C 	 -118.798 	 55.9998 	 -32.9728
| 25> C 	 -119.763 	 56.964 	 -33.2334
| 26> C 	 -121.048 	 56.5946 	 -32.7488
| 27> C 	 -121.107 	 55.31 	 -32.2349
| 28> H 	 -119.355 	 57.835 	 -33.7762
| 29> C 	 -122.243 	 57.3921 	 -33.0829
| 30> H 	 -122.921 	 56.7734 	 -33.6522
| 31> H 	 -121.976 	 58.1522 	 -33.7918
| 32> C 	 -122.968 	 58.0802 	 -31.885
| 33> H 	 -123.496 	 57.2169 	 -31.3951
| 34> H 	 -123.592 	 58.8455 	 -32.3383
| 35> C 	 -121.96 	 58.7473 	 -30.9688
| 36> H 	 -122.323 	 59.4648 	 -30.3199
| 37> H 	 -121.168 	 59.2819 	 -31.4136
| 38> H 	 -121.61 	 57.9866 	 -30.3526
| 39> H 	 -124.89 	 53.4104 	 -29.489
| 40> H 	 -117.696 	 56.1229 	 -33.1586
| 41> *
| 42>
| 43>                          ****END OF INPUT****

CARTESIAN COORDINATES (ANGSTROEM)
---------------------------------
  S    -122.952000   54.923500  -30.139200
  C    -124.055000   53.534300  -30.174600
  C    -123.683000   52.685000  -31.251300
  C    -122.690000   53.280300  -32.135400
  C    -122.166000   54.474800  -31.667700
  H    -122.311000   52.882200  -33.105100
  C    -124.476000   51.470100  -31.741600
  H    -124.574000   50.823400  -30.857700
  H    -123.855000   50.969300  -32.440600
  C    -125.823000   51.749600  -32.432900
  H    -125.683000   52.246900  -33.385100
  H    -126.249000   50.754900  -32.717300
  C    -126.786000   52.557200  -31.642400
  H    -127.727000   52.595100  -32.188700
  H    -127.039000   52.027900  -30.750400
  H    -126.440000   53.576900  -31.424500
  S    -119.471000   54.832000  -31.885400
  C    -118.798000   55.999800  -32.972800
  C    -119.763000   56.964000  -33.233400
  C    -121.048000   56.594600  -32.748800
  C    -121.107000   55.310000  -32.234900
  H    -119.355000   57.835000  -33.776200
  C    -122.243000   57.392100  -33.082900
  H    -122.921000   56.773400  -33.652200
  H    -121.976000   58.152200  -33.791800
  C    -122.968000   58.080200  -31.885000
  H    -123.496000   57.216900  -31.395100
  H    -123.592000   58.845500  -32.338300
  C    -121.960000   58.747300  -30.968800
  H    -122.323000   59.464800  -30.319900
  H    -121.168000   59.281900  -31.413600
  H    -121.610000   57.986600  -30.352600
  H    -124.890000   53.410400  -29.489000
  H    -117.696000   56.122900  -33.158600

 Total Charge           Charge          ....    0
 Multiplicity           Mult            ....    1
 Number of Electrons    NEL             ....  134
 Basis Dimension        Dim             ....  322

ORBITAL ENERGIES
----------------

  NO   OCC          E(Eh)            E(eV)
   0   2.0000     -88.968893     -2420.9667
   1   2.0000     -88.959056     -2420.6990
   2   2.0000     -10.334390      -281.2130
   3   2.0000     -10.325825      -280.9800
   4   2.0000     -10.323266      -280.9104
   5   2.0000     -10.318116      -280.7702
   6   2.0000     -10.310933      -280.5747
   7   2.0000     -10.304472      -280.3989
   8   2.0000     -10.301725      -280.3242
   9   2.0000     -10.294683      -280.1326
  10   2.0000     -10.290513      -280.0191
  11   2.0000     -10.286742      -279.9165
  12   2.0000     -10.280707      -279.7523
  13   2.0000     -10.277020      -279.6519
  14   2.0000     -10.271783      -279.5094
  15   2.0000     -10.253248      -279.0051
  16   2.0000      -8.082121      -219.9257
  17   2.0000      -8.074616      -219.7215
  18   2.0000      -6.040707      -164.3760
  19   2.0000      -6.036607      -164.2644
  20   2.0000      -6.033106      -164.1692
  21   2.0000      -6.032989      -164.1660
  22   2.0000      -6.029064      -164.0592
  23   2.0000      -6.025394      -163.9593
  24   2.0000      -1.007181       -27.4068
  25   2.0000      -0.980830       -26.6897
  26   2.0000      -0.913618       -24.8608
  27   2.0000      -0.908656       -24.7258
  28   2.0000      -0.867826       -23.6147
  29   2.0000      -0.847574       -23.0637
  30   2.0000      -0.846558       -23.0360
  31   2.0000      -0.813982       -22.1496
  32   2.0000      -0.785378       -21.3712
  33   2.0000      -0.775081       -21.0910
  34   2.0000      -0.708219       -19.2716
  35   2.0000      -0.695229       -18.9181
  36   2.0000      -0.687246       -18.7009
  37   2.0000      -0.658551       -17.9201
  38   2.0000      -0.641914       -17.4674
  39   2.0000      -0.613007       -16.6808
  40   2.0000      -0.589862       -16.0510
  41   2.0000      -0.570690       -15.5293
  42   2.0000      -0.560555       -15.2535
  43   2.0000      -0.550637       -14.9836
  44   2.0000      -0.544941       -14.8286
  45   2.0000      -0.537992       -14.6395
  46   2.0000      -0.524333       -14.2678
  47   2.0000      -0.515816       -14.0361
  48   2.0000      -0.507065       -13.7979
  49   2.0000      -0.491013       -13.3611
  50   2.0000      -0.484265       -13.1775
  51   2.0000      -0.480430       -13.0732
  52   2.0000      -0.473890       -12.8952
  53   2.0000      -0.466612       -12.6972
  54   2.0000      -0.459868       -12.5136
  55   2.0000      -0.448551       -12.2057
  56   2.0000      -0.440001       -11.9730
  57   2.0000      -0.432849       -11.7784
  58   2.0000      -0.427740       -11.6394
  59   2.0000      -0.424429       -11.5493
  60   2.0000      -0.414701       -11.2846
  61   2.0000      -0.410264       -11.1639
  62   2.0000      -0.404617       -11.0102
  63   2.0000      -0.335162        -9.1202
  64   2.0000      -0.326729        -8.8908
  65   2.0000      -0.318645        -8.6708
  66   2.0000      -0.309312        -8.4168
  67   0.0000       0.027229         0.7409
  68   0.0000       0.055656         1.5145
  69   0.0000       0.107524         2.9259
  70   0.0000       0.117403         3.1947
  71   0.0000       0.119342         3.2475

MULLIKEN ATOMIC CHARGES
-----------------------
   0 S :    0.106324
   1 C :   -0.134884
   2 C :   -0.101979
   3 C :    0.033320
   4 C :   -0.161271
   5 H :    0.034018
   6 C :    0.071120
   7 H :    0.032746
   8 H :    0.013216
   9 C :   -0.062635
  10 H :    0.021865
  11 H :    0.031562
  12 C :   -0.040783
  13 H :    0.028432
  14 H :    0.013643
  15 H :    0.053427
  16 S :    0.107351
  17 C :   -0.113000
  18 C :   -0.065360
  19 C :   -0.012389
  20 C :   -0.172917
  21 H :    0.033468
  22 C :    0.064141
  23 H :    0.030781
  24 H :    0.001738
  25 C :   -0.085274
  26 H :    0.047022
  27 H :    0.028994
  28 C :    0.025552
  29 H :    0.006730
  30 H :    0.009196
  31 H :    0.012978
  32 H :    0.065886
  33 H :    0.076985
Sum of atomic charges:    0.0000000

LOEWDIN ATOMIC CHARGES
----------------------
   0 S :    0.404367
   1 C :   -0.189954
   2 C :   -0.061840
   3 C :   -0.057287
   4 C :   -0.195210
   5 H :    0.042674
   6 C :   -0.032548
   7 H :    0.032501
   8 H :    0.025476
   9 C :   -0.040210
  10 H :    0.022881
  11 H :    0.030014
  12 C :   -0.066908
  13 H :    0.029610
  14 H :    0.018229
  15 H :    0.029493
  16 S :    0.418538
  17 C :   -0.196488
  18 C :   -0.081972
  19 C :   -0.052860
  20 C :   -0.211818
  21 H :    0.039713
  22 C :   -0.035117
  23 H :    0.032346
  24 H :    0.022571
  25 C :   -0.036185
  26 H :    0.017448
  27 H :    0.022055
  28 C :   -0.060025
  29 H :    0.017905
  30 H :    0.020524
  31 H :    0.019556
  32 H :    0.031671
  33 H :    0.040851

  Mayer bond orders larger than 0.100000
B(  0-S ,  1-C ) :   1.1435 B(  0-S ,  4-C ) :   1.1344 B(  1-C ,  2-C ) :   1.5846
B(  1-C ,  4-C ) :   0.1027 B(  1-C , 32-H ) :   0.9704 B(  2-C ,  3-C ) :   1.2237
B(  2-C ,  6-C ) :   1.0336 B(  3-C ,  4-C ) :   1.6073 B(  3-C ,  5-H ) :   0.9833
B(  4-C , 20-C ) :   1.0301 B(  6-C ,  7-H ) :   0.9390 B(  6-C ,  8-H ) :   0.9380
B(  6-C ,  9-C ) :   1.0713 B(  9-C , 10-H ) :   0.9515 B(  9-C , 11-H ) :   0.9500
B(  9-C , 12-C ) :   1.1003 B( 12-C , 13-H ) :   0.9660 B( 12-C , 14-H ) :   0.9715
B( 12-C , 15-H ) :   0.9653 B( 16-S , 17-C ) :   1.1758 B( 16-S , 20-C ) :   1.1552
B( 17-C , 18-C ) :   1.5888 B( 17-C , 20-C ) :   0.1098 B( 17-C , 33-H ) :   0.9606
B( 18-C , 19-C ) :   1.2388 B( 18-C , 21-H ) :   0.9923 B( 19-C , 20-C ) :   1.5485
B( 19-C , 22-C ) :   1.0522 B( 22-C , 23-H ) :   0.9400 B( 22-C , 24-H ) :   0.9346
B( 22-C , 25-C ) :   1.0576 B( 25-C , 26-H ) :   0.9508 B( 25-C , 27-H ) :   0.9576
B( 25-C , 28-C ) :   1.0816 B( 28-C , 29-H ) :   0.9690 B( 28-C , 30-H ) :   0.9731
B( 28-C , 31-H ) :   0.9619

Dispersion correction           -0.015699867
FINAL SINGLE POINT ENERGY     -1339.862411407397

DIPOLE MOMENT
-------------
                                X             Y             Z
Electronic contribution:     18.80654      -2.30810       4.31371
Nuclear contribution   :    -19.14082       2.31180      -4.65868
                        -----------------------------------------
Total Dipole Moment    :     -0.33428       0.00370      -0.34497
                        -----------------------------------------
Magnitude (a.u.)       :      0.48038
Magnitude (Debye)      :      1.22103

Rotational constants in cm-1:     0.023419     0.008367     0.007259
Rotational constants in MHz :   702.091030   250.826778   217.606106

                             ****ORCA TERMINATED NORMALLY****
TOTAL RUN TIME: 0 days 0 hours 0 minutes 21 seconds 72 msec
