                         Program Version 4.2.1 -  RELEASE  -
|  1> ! wB97X-D3 SP def2-SVP
|  2> %pal
|  3> nprocs 24
|  4> end
|  5>
|  6> * xyz 0 1
|  7> S 	 -113.012 	 16.4853 	 -11.9733
|  8> C 	 -112.661 	 17.2365 	 -10.458
|  9> C 	 -112.831 	 16.3864 	 -9.39827
| 10> C 	 -113.101 	 15.0791 	 -9.82929
| 11> C 	 -113.107 	 14.9827 	 -11.1556
| 12> H 	 -113.255 	 14.2872 	 -9.21059
| 13> C 	 -112.959 	 16.78 	 -7.94597
| 14> H 	 -113.949 	 16.3462 	 -7.78057
| 15> H 	 -113.215 	 17.8544 	 -8.0331
| 16> C 	 -111.951 	 16.4815 	 -6.91136
| 17> H 	 -110.987 	 16.2836 	 -7.37952
| 18> H 	 -111.739 	 17.4291 	 -6.34766
| 19> C 	 -112.261 	 15.202 	 -6.05514
| 20> H 	 -111.419 	 14.8617 	 -5.5228
| 21> H 	 -113.106 	 15.2348 	 -5.35489
| 22> H 	 -112.454 	 14.379 	 -6.794
| 23> S 	 -111.953 	 13.0546 	 -12.7118
| 24> C 	 -113.006 	 11.735 	 -13.2827
| 25> C 	 -114.299 	 11.8083 	 -12.8517
| 26> C 	 -114.493 	 12.97 	 -12.0172
| 27> C 	 -113.367 	 13.7882 	 -11.9056
| 28> H 	 -115.068 	 11.1465 	 -13.225
| 29> C 	 -115.654 	 13.1484 	 -11.0665
| 30> H 	 -115.374 	 13.8971 	 -10.3283
| 31> H 	 -115.718 	 12.2191 	 -10.5882
| 32> C 	 -116.99 	 13.4061 	 -11.7136
| 33> H 	 -117.737 	 13.719 	 -10.9694
| 34> H 	 -117.268 	 12.4317 	 -12.1096
| 35> C 	 -116.941 	 14.5039 	 -12.7281
| 36> H 	 -117.925 	 14.5515 	 -13.1169
| 37> H 	 -116.236 	 14.4048 	 -13.4494
| 38> H 	 -116.818 	 15.4174 	 -12.1833
| 39> H 	 -112.472 	 18.2827 	 -10.3438
| 40> H 	 -112.763 	 10.9965 	 -13.9809
| 41> *
| 42>
| 43>                          ****END OF INPUT****

CARTESIAN COORDINATES (ANGSTROEM)
---------------------------------
  S    -113.012000   16.485300  -11.973300
  C    -112.661000   17.236500  -10.458000
  C    -112.831000   16.386400   -9.398270
  C    -113.101000   15.079100   -9.829290
  C    -113.107000   14.982700  -11.155600
  H    -113.255000   14.287200   -9.210590
  C    -112.959000   16.780000   -7.945970
  H    -113.949000   16.346200   -7.780570
  H    -113.215000   17.854400   -8.033100
  C    -111.951000   16.481500   -6.911360
  H    -110.987000   16.283600   -7.379520
  H    -111.739000   17.429100   -6.347660
  C    -112.261000   15.202000   -6.055140
  H    -111.419000   14.861700   -5.522800
  H    -113.106000   15.234800   -5.354890
  H    -112.454000   14.379000   -6.794000
  S    -111.953000   13.054600  -12.711800
  C    -113.006000   11.735000  -13.282700
  C    -114.299000   11.808300  -12.851700
  C    -114.493000   12.970000  -12.017200
  C    -113.367000   13.788200  -11.905600
  H    -115.068000   11.146500  -13.225000
  C    -115.654000   13.148400  -11.066500
  H    -115.374000   13.897100  -10.328300
  H    -115.718000   12.219100  -10.588200
  C    -116.990000   13.406100  -11.713600
  H    -117.737000   13.719000  -10.969400
  H    -117.268000   12.431700  -12.109600
  C    -116.941000   14.503900  -12.728100
  H    -117.925000   14.551500  -13.116900
  H    -116.236000   14.404800  -13.449400
  H    -116.818000   15.417400  -12.183300
  H    -112.472000   18.282700  -10.343800
  H    -112.763000   10.996500  -13.980900

 Total Charge           Charge          ....    0
 Multiplicity           Mult            ....    1
 Number of Electrons    NEL             ....  134
 Basis Dimension        Dim             ....  322

ORBITAL ENERGIES
----------------

  NO   OCC          E(Eh)            E(eV)
   0   2.0000     -88.964686     -2420.8522
   1   2.0000     -88.962441     -2420.7911
   2   2.0000     -10.320614      -280.8382
   3   2.0000     -10.315080      -280.6876
   4   2.0000     -10.313377      -280.6413
   5   2.0000     -10.305719      -280.4329
   6   2.0000     -10.301522      -280.3187
   7   2.0000     -10.293176      -280.0915
   8   2.0000     -10.292460      -280.0721
   9   2.0000     -10.291811      -280.0544
  10   2.0000     -10.288329      -279.9597
  11   2.0000     -10.284151      -279.8460
  12   2.0000     -10.277376      -279.6616
  13   2.0000     -10.276976      -279.6507
  14   2.0000     -10.276860      -279.6476
  15   2.0000     -10.254401      -279.0364
  16   2.0000      -8.080758      -219.8886
  17   2.0000      -8.076323      -219.7679
  18   2.0000      -6.039099      -164.3322
  19   2.0000      -6.035274      -164.2282
  20   2.0000      -6.034962      -164.2197
  21   2.0000      -6.031421      -164.1233
  22   2.0000      -6.031068      -164.1137
  23   2.0000      -6.026881      -163.9998
  24   2.0000      -1.016344       -27.6561
  25   2.0000      -0.982002       -26.7216
  26   2.0000      -0.917050       -24.9542
  27   2.0000      -0.914691       -24.8900
  28   2.0000      -0.873049       -23.7569
  29   2.0000      -0.856159       -23.2973
  30   2.0000      -0.846231       -23.0271
  31   2.0000      -0.819668       -22.3043
  32   2.0000      -0.788996       -21.4697
  33   2.0000      -0.773972       -21.0609
  34   2.0000      -0.712123       -19.3778
  35   2.0000      -0.704777       -19.1780
  36   2.0000      -0.691611       -18.8197
  37   2.0000      -0.657905       -17.9025
  38   2.0000      -0.650774       -17.7085
  39   2.0000      -0.623328       -16.9616
  40   2.0000      -0.591902       -16.1065
  41   2.0000      -0.569992       -15.5103
  42   2.0000      -0.562183       -15.2978
  43   2.0000      -0.554186       -15.0802
  44   2.0000      -0.551804       -15.0153
  45   2.0000      -0.532258       -14.4835
  46   2.0000      -0.525721       -14.3056
  47   2.0000      -0.515798       -14.0356
  48   2.0000      -0.502512       -13.6740
  49   2.0000      -0.500271       -13.6131
  50   2.0000      -0.490232       -13.3399
  51   2.0000      -0.477439       -12.9918
  52   2.0000      -0.471729       -12.8364
  53   2.0000      -0.464022       -12.6267
  54   2.0000      -0.459866       -12.5136
  55   2.0000      -0.451081       -12.2745
  56   2.0000      -0.449271       -12.2253
  57   2.0000      -0.447260       -12.1706
  58   2.0000      -0.428909       -11.6712
  59   2.0000      -0.419184       -11.4066
  60   2.0000      -0.416683       -11.3385
  61   2.0000      -0.414278       -11.2731
  62   2.0000      -0.409089       -11.1319
  63   2.0000      -0.341437        -9.2910
  64   2.0000      -0.328943        -8.9510
  65   2.0000      -0.321827        -8.7573
  66   2.0000      -0.304255        -8.2792
  67   0.0000       0.043573         1.1857
  68   0.0000       0.063834         1.7370
  69   0.0000       0.109445         2.9781
  70   0.0000       0.111734         3.0404
  71   0.0000       0.126641         3.4461

MULLIKEN ATOMIC CHARGES
-----------------------
   0 S :    0.132325
   1 C :   -0.119387
   2 C :   -0.091960
   3 C :    0.069970
   4 C :   -0.150554
   5 H :   -0.030124
   6 C :    0.047751
   7 H :    0.030009
   8 H :    0.013398
   9 C :   -0.027434
  10 H :    0.030026
  11 H :    0.037992
  12 C :   -0.057130
  13 H :    0.025416
  14 H :    0.042617
  15 H :    0.029473
  16 S :    0.099125
  17 C :   -0.054790
  18 C :   -0.042359
  19 C :   -0.040478
  20 C :   -0.200924
  21 H :    0.026505
  22 C :    0.109034
  23 H :    0.013091
  24 H :    0.016643
  25 C :   -0.097557
  26 H :    0.027587
  27 H :    0.016187
  28 C :    0.029457
  29 H :    0.015211
  30 H :    0.021821
  31 H :    0.016208
  32 H :    0.030948
  33 H :    0.031905
Sum of atomic charges:   -0.0000000

LOEWDIN ATOMIC CHARGES
----------------------
   0 S :    0.432342
   1 C :   -0.201546
   2 C :   -0.062185
   3 C :   -0.049883
   4 C :   -0.207232
   5 H :    0.015667
   6 C :   -0.042182
   7 H :    0.038010
   8 H :    0.034945
   9 C :   -0.047949
  10 H :    0.030202
  11 H :    0.033440
  12 C :   -0.063061
  13 H :    0.019681
  14 H :    0.025817
  15 H :    0.030185
  16 S :    0.373449
  17 C :   -0.159758
  18 C :   -0.072263
  19 C :   -0.046805
  20 C :   -0.194490
  21 H :    0.034271
  22 C :   -0.029111
  23 H :    0.026439
  24 H :    0.026674
  25 C :   -0.039889
  26 H :    0.028087
  27 H :    0.016814
  28 C :   -0.047694
  29 H :    0.023895
  30 H :    0.009437
  31 H :    0.026581
  32 H :    0.020420
  33 H :    0.017691

  Mayer bond orders larger than 0.100000
B(  0-S ,  1-C ) :   1.1397 B(  0-S ,  4-C ) :   1.1667 B(  1-C ,  2-C ) :   1.6215
B(  1-C , 32-H ) :   0.9683 B(  2-C ,  3-C ) :   1.2316 B(  2-C ,  6-C ) :   1.0104
B(  3-C ,  4-C ) :   1.5844 B(  3-C ,  5-H ) :   1.0209 B(  4-C , 20-C ) :   1.0104
B(  6-C ,  7-H ) :   0.9430 B(  6-C ,  8-H ) :   0.9349 B(  6-C ,  9-C ) :   1.0414
B(  9-C , 10-H ) :   0.9594 B(  9-C , 11-H ) :   0.9554 B(  9-C , 12-C ) :   1.0671
B( 12-C , 13-H ) :   0.9745 B( 12-C , 14-H ) :   0.9784 B( 12-C , 15-H ) :   0.9756
B( 16-S , 17-C ) :   1.1336 B( 16-S , 20-C ) :   1.1212 B( 17-C , 18-C ) :   1.6680
B( 17-C , 33-H ) :   0.9669 B( 18-C , 19-C ) :   1.1937 B( 18-C , 21-H ) :   0.9852
B( 19-C , 20-C ) :   1.6327 B( 19-C , 22-C ) :   1.0368 B( 22-C , 23-H ) :   0.9303
B( 22-C , 24-H ) :   0.9343 B( 22-C , 25-C ) :   1.0732 B( 25-C , 26-H ) :   0.9536
B( 25-C , 27-H ) :   0.9563 B( 25-C , 28-C ) :   1.0902 B( 28-C , 29-H ) :   0.9689
B( 28-C , 30-H ) :   0.9707 B( 28-C , 31-H ) :   0.9713

Dispersion correction           -0.015114843
FINAL SINGLE POINT ENERGY     -1339.854657443785

DIPOLE MOMENT
-------------
                                X             Y             Z
Electronic contribution:     12.92497      -0.86677     -18.48298
Nuclear contribution   :    -13.33734       0.79797      18.99479
                        -----------------------------------------
Total Dipole Moment    :     -0.41237      -0.06880       0.51181
                        -----------------------------------------
Magnitude (a.u.)       :      0.66086
Magnitude (Debye)      :      1.67977

Rotational constants in cm-1:     0.019061     0.008418     0.007938
Rotational constants in MHz :   571.427077   252.371039   237.978046

                             ****ORCA TERMINATED NORMALLY****
TOTAL RUN TIME: 0 days 0 hours 0 minutes 22 seconds 537 msec
