                         Program Version 4.2.1 -  RELEASE  -
|  1> ! wB97X-D3 SP def2-SVP
|  2> %pal
|  3> nprocs 24
|  4> end
|  5>
|  6> * xyz 0 1
|  7> S 	 -107.68 	 61.3119 	 -97.2914
|  8> C 	 -106.486 	 61.4685 	 -96.0196
|  9> C 	 -106.06 	 60.1465 	 -95.5683
| 10> C 	 -106.996 	 59.2039 	 -96.0172
| 11> C 	 -108.063 	 59.6837 	 -96.7547
| 12> H 	 -106.95 	 58.1253 	 -95.8231
| 13> C 	 -104.931 	 59.8689 	 -94.5646
| 14> H 	 -105.312 	 59.208 	 -93.8397
| 15> H 	 -104.853 	 60.7656 	 -94.035
| 16> C 	 -103.537 	 59.4311 	 -95.1418
| 17> H 	 -102.755 	 59.1085 	 -94.4154
| 18> H 	 -103.627 	 58.5434 	 -95.7203
| 19> C 	 -102.908 	 60.5024 	 -96.1095
| 20> H 	 -101.974 	 60.1575 	 -96.5564
| 21> H 	 -103.551 	 60.7818 	 -96.8825
| 22> H 	 -102.574 	 61.4053 	 -95.5148
| 23> S 	 -109.65 	 59.4872 	 -98.9008
| 24> C 	 -111.092 	 58.4992 	 -98.961
| 25> C 	 -111.055 	 57.685 	 -97.8551
| 26> C 	 -110.045 	 58.0023 	 -96.8606
| 27> C 	 -109.177 	 59.0055 	 -97.3417
| 28> H 	 -111.764 	 56.8697 	 -97.659
| 29> C 	 -109.799 	 57.1534 	 -95.5853
| 30> H 	 -110.81 	 57.0096 	 -95.209
| 31> H 	 -109.309 	 57.7867 	 -94.8113
| 32> C 	 -109.083 	 55.7489 	 -95.8216
| 33> H 	 -108.134 	 55.9885 	 -96.3249
| 34> H 	 -109.751 	 55.1748 	 -96.5128
| 35> C 	 -108.644 	 54.9678 	 -94.6099
| 36> H 	 -109.513 	 54.783 	 -93.9692
| 37> H 	 -108.119 	 55.6102 	 -94.0174
| 38> H 	 -108.033 	 54.0405 	 -94.8469
| 39> H 	 -105.87 	 62.3723 	 -95.7672
| 40> H 	 -111.759 	 58.3912 	 -99.8021
| 41> *
| 42>
| 43>                          ****END OF INPUT****

CARTESIAN COORDINATES (ANGSTROEM)
---------------------------------
  S    -107.680000   61.311900  -97.291400
  C    -106.486000   61.468500  -96.019600
  C    -106.060000   60.146500  -95.568300
  C    -106.996000   59.203900  -96.017200
  C    -108.063000   59.683700  -96.754700
  H    -106.950000   58.125300  -95.823100
  C    -104.931000   59.868900  -94.564600
  H    -105.312000   59.208000  -93.839700
  H    -104.853000   60.765600  -94.035000
  C    -103.537000   59.431100  -95.141800
  H    -102.755000   59.108500  -94.415400
  H    -103.627000   58.543400  -95.720300
  C    -102.908000   60.502400  -96.109500
  H    -101.974000   60.157500  -96.556400
  H    -103.551000   60.781800  -96.882500
  H    -102.574000   61.405300  -95.514800
  S    -109.650000   59.487200  -98.900800
  C    -111.092000   58.499200  -98.961000
  C    -111.055000   57.685000  -97.855100
  C    -110.045000   58.002300  -96.860600
  C    -109.177000   59.005500  -97.341700
  H    -111.764000   56.869700  -97.659000
  C    -109.799000   57.153400  -95.585300
  H    -110.810000   57.009600  -95.209000
  H    -109.309000   57.786700  -94.811300
  C    -109.083000   55.748900  -95.821600
  H    -108.134000   55.988500  -96.324900
  H    -109.751000   55.174800  -96.512800
  C    -108.644000   54.967800  -94.609900
  H    -109.513000   54.783000  -93.969200
  H    -108.119000   55.610200  -94.017400
  H    -108.033000   54.040500  -94.846900
  H    -105.870000   62.372300  -95.767200
  H    -111.759000   58.391200  -99.802100

 Total Charge           Charge          ....    0
 Multiplicity           Mult            ....    1
 Number of Electrons    NEL             ....  134
 Basis Dimension        Dim             ....  322

ORBITAL ENERGIES
----------------

  NO   OCC          E(Eh)            E(eV)
   0   2.0000     -88.970585     -2421.0127
   1   2.0000     -88.963797     -2420.8280
   2   2.0000     -10.329511      -281.0803
   3   2.0000     -10.326356      -280.9944
   4   2.0000     -10.326298      -280.9929
   5   2.0000     -10.317784      -280.7612
   6   2.0000     -10.310688      -280.5681
   7   2.0000     -10.306300      -280.4487
   8   2.0000     -10.300679      -280.2957
   9   2.0000     -10.297781      -280.2169
  10   2.0000     -10.296447      -280.1806
  11   2.0000     -10.294742      -280.1342
  12   2.0000     -10.294251      -280.1208
  13   2.0000     -10.292818      -280.0818
  14   2.0000     -10.277511      -279.6653
  15   2.0000     -10.277415      -279.6627
  16   2.0000      -8.084881      -220.0008
  17   2.0000      -8.079665      -219.8589
  18   2.0000      -6.043294      -164.4464
  19   2.0000      -6.039684      -164.3482
  20   2.0000      -6.038211      -164.3081
  21   2.0000      -6.035520      -164.2348
  22   2.0000      -6.033887      -164.1904
  23   2.0000      -6.030440      -164.0966
  24   2.0000      -1.012787       -27.5593
  25   2.0000      -0.984391       -26.7867
  26   2.0000      -0.907060       -24.6824
  27   2.0000      -0.902927       -24.5699
  28   2.0000      -0.869556       -23.6618
  29   2.0000      -0.854629       -23.2556
  30   2.0000      -0.845113       -22.9967
  31   2.0000      -0.815001       -22.1773
  32   2.0000      -0.783429       -21.3182
  33   2.0000      -0.770938       -20.9783
  34   2.0000      -0.711674       -19.3656
  35   2.0000      -0.699312       -19.0293
  36   2.0000      -0.695439       -18.9239
  37   2.0000      -0.662586       -18.0299
  38   2.0000      -0.638585       -17.3768
  39   2.0000      -0.620069       -16.8729
  40   2.0000      -0.592110       -16.1121
  41   2.0000      -0.564413       -15.3585
  42   2.0000      -0.562444       -15.3049
  43   2.0000      -0.548045       -14.9131
  44   2.0000      -0.541663       -14.7394
  45   2.0000      -0.530662       -14.4400
  46   2.0000      -0.516477       -14.0540
  47   2.0000      -0.514664       -14.0047
  48   2.0000      -0.511246       -13.9117
  49   2.0000      -0.494743       -13.4626
  50   2.0000      -0.489608       -13.3229
  51   2.0000      -0.480326       -13.0703
  52   2.0000      -0.468268       -12.7422
  53   2.0000      -0.464224       -12.6322
  54   2.0000      -0.459305       -12.4983
  55   2.0000      -0.451865       -12.2959
  56   2.0000      -0.445169       -12.1137
  57   2.0000      -0.439084       -11.9481
  58   2.0000      -0.431856       -11.7514
  59   2.0000      -0.429188       -11.6788
  60   2.0000      -0.421267       -11.4633
  61   2.0000      -0.419575       -11.4172
  62   2.0000      -0.410145       -11.1606
  63   2.0000      -0.357071        -9.7164
  64   2.0000      -0.335133        -9.1194
  65   2.0000      -0.324923        -8.8416
  66   2.0000      -0.281081        -7.6486
  67   0.0000       0.013943         0.3794
  68   0.0000       0.067311         1.8316
  69   0.0000       0.098132         2.6703
  70   0.0000       0.121856         3.3159
  71   0.0000       0.130571         3.5530

MULLIKEN ATOMIC CHARGES
-----------------------
   0 S :    0.113439
   1 C :   -0.116213
   2 C :   -0.131760
   3 C :    0.010429
   4 C :   -0.122995
   5 H :    0.010790
   6 C :    0.125330
   7 H :    0.017235
   8 H :    0.004416
   9 C :   -0.061607
  10 H :    0.037541
  11 H :    0.020215
  12 C :   -0.070994
  13 H :    0.029711
  14 H :    0.037857
  15 H :    0.030756
  16 S :    0.087688
  17 C :   -0.084553
  18 C :   -0.034277
  19 C :   -0.070755
  20 C :   -0.131694
  21 H :    0.023722
  22 C :    0.029308
  23 H :    0.021906
  24 H :    0.033858
  25 C :   -0.085492
  26 H :    0.030284
  27 H :    0.035803
  28 C :   -0.001129
  29 H :    0.020900
  30 H :   -0.002082
  31 H :    0.059351
  32 H :    0.069766
  33 H :    0.063244
Sum of atomic charges:    0.0000000

LOEWDIN ATOMIC CHARGES
----------------------
   0 S :    0.410148
   1 C :   -0.204919
   2 C :   -0.057659
   3 C :   -0.064614
   4 C :   -0.189921
   5 H :    0.032273
   6 C :   -0.023030
   7 H :    0.026855
   8 H :    0.025615
   9 C :   -0.038335
  10 H :    0.031077
  11 H :    0.018215
  12 C :   -0.065264
  13 H :    0.026150
  14 H :    0.015738
  15 H :    0.027933
  16 S :    0.422406
  17 C :   -0.193279
  18 C :   -0.069041
  19 C :   -0.065583
  20 C :   -0.209027
  21 H :    0.031336
  22 C :   -0.037518
  23 H :    0.027026
  24 H :    0.031405
  25 C :   -0.041570
  26 H :    0.022852
  27 H :    0.026589
  28 C :   -0.065508
  29 H :    0.026250
  30 H :    0.011031
  31 H :    0.041359
  32 H :    0.037321
  33 H :    0.033689

  Mayer bond orders larger than 0.100000
B(  0-S ,  1-C ) :   1.1648 B(  0-S ,  4-C ) :   1.1421 B(  1-C ,  2-C ) :   1.5391
B(  1-C ,  4-C ) :   0.1175 B(  1-C , 32-H ) :   0.9604 B(  2-C ,  3-C ) :   1.2872
B(  2-C ,  6-C ) :   1.0147 B(  3-C ,  4-C ) :   1.5259 B(  3-C ,  5-H ) :   0.9933
B(  4-C , 20-C ) :   1.0907 B(  6-C ,  7-H ) :   0.9456 B(  6-C ,  8-H ) :   0.9398
B(  6-C ,  9-C ) :   1.0487 B(  9-C , 10-H ) :   0.9601 B(  9-C , 11-H ) :   0.9601
B(  9-C , 12-C ) :   1.0723 B( 12-C , 13-H ) :   0.9748 B( 12-C , 14-H ) :   0.9781
B( 12-C , 15-H ) :   0.9779 B( 16-S , 17-C ) :   1.1411 B( 16-S , 20-C ) :   1.1636
B( 17-C , 18-C ) :   1.5844 B( 17-C , 33-H ) :   0.9747 B( 18-C , 19-C ) :   1.2704
B( 18-C , 21-H ) :   0.9812 B( 19-C , 20-C ) :   1.5432 B( 19-C , 22-C ) :   1.0568
B( 22-C , 23-H ) :   0.9288 B( 22-C , 24-H ) :   0.9372 B( 22-C , 25-C ) :   1.0455
B( 25-C , 26-H ) :   0.9571 B( 25-C , 27-H ) :   0.9545 B( 25-C , 28-C ) :   1.0816
B( 28-C , 29-H ) :   0.9698 B( 28-C , 30-H ) :   0.9673 B( 28-C , 31-H ) :   0.9713

Dispersion correction           -0.014325956
FINAL SINGLE POINT ENERGY     -1339.854981373178

DIPOLE MOMENT
-------------
                                X             Y             Z
Electronic contribution:    -16.10635      15.68221     -16.84565
Nuclear contribution   :     16.41116     -16.19311      17.22328
                        -----------------------------------------
Total Dipole Moment    :      0.30481      -0.51090       0.37762
                        -----------------------------------------
Magnitude (a.u.)       :      0.70465
Magnitude (Debye)      :      1.79107

Rotational constants in cm-1:     0.018018     0.008973     0.006457
Rotational constants in MHz :   540.152485   268.994644   193.565114

                             ****ORCA TERMINATED NORMALLY****
TOTAL RUN TIME: 0 days 0 hours 0 minutes 20 seconds 192 msec
