                         Program Version 4.2.1 -  RELEASE  -
|  1> ! wB97X-D3 SP def2-SVP
|  2> %pal
|  3> nprocs 24
|  4> end
|  5>
|  6> * xyz 0 1
|  7> S 	 -122.375 	 24.1717 	 -18.0686
|  8> C 	 -120.984 	 23.5893 	 -19.0631
|  9> C 	 -120.429 	 22.4239 	 -18.5181
| 10> C 	 -121.176 	 22.0135 	 -17.3808
| 11> C 	 -122.13 	 22.9037 	 -16.9724
| 12> H 	 -121.091 	 21.1128 	 -16.9018
| 13> C 	 -119.174 	 21.7191 	 -19.0011
| 14> H 	 -118.811 	 21.2317 	 -18.1417
| 15> H 	 -118.384 	 22.4227 	 -19.2914
| 16> C 	 -119.286 	 20.6302 	 -20.045
| 17> H 	 -118.309 	 20.2988 	 -20.3314
| 18> H 	 -120.006 	 19.8918 	 -19.8895
| 19> C 	 -119.892 	 21.0657 	 -21.4261
| 20> H 	 -120.921 	 21.1936 	 -21.3645
| 21> H 	 -119.532 	 22.0439 	 -21.7414
| 22> H 	 -119.547 	 20.509 	 -22.2341
| 23> S 	 -124.83 	 22.2875 	 -16.5248
| 24> C 	 -125.379 	 22.3256 	 -14.8523
| 25> C 	 -124.347 	 22.686 	 -14.017
| 26> C 	 -123.081 	 22.8781 	 -14.6419
| 27> C 	 -123.183 	 22.7671 	 -15.9932
| 28> H 	 -124.455 	 22.728 	 -13.0098
| 29> C 	 -121.722 	 23.0299 	 -13.9512
| 30> H 	 -120.88 	 23.2615 	 -14.5975
| 31> H 	 -121.433 	 22.0325 	 -13.7134
| 32> C 	 -121.82 	 23.9376 	 -12.6979
| 33> H 	 -120.823 	 23.9432 	 -12.1738
| 34> H 	 -122.465 	 23.4666 	 -12.0511
| 35> C 	 -122.182 	 25.3953 	 -12.8684
| 36> H 	 -121.562 	 25.7708 	 -13.6693
| 37> H 	 -121.992 	 25.9656 	 -11.9536
| 38> H 	 -123.181 	 25.4876 	 -13.2735
| 39> H 	 -120.563 	 24.1647 	 -19.8476
| 40> H 	 -126.358 	 22.1166 	 -14.3365
| 41> *
| 42>
| 43>                          ****END OF INPUT****

CARTESIAN COORDINATES (ANGSTROEM)
---------------------------------
  S    -122.375000   24.171700  -18.068600
  C    -120.984000   23.589300  -19.063100
  C    -120.429000   22.423900  -18.518100
  C    -121.176000   22.013500  -17.380800
  C    -122.130000   22.903700  -16.972400
  H    -121.091000   21.112800  -16.901800
  C    -119.174000   21.719100  -19.001100
  H    -118.811000   21.231700  -18.141700
  H    -118.384000   22.422700  -19.291400
  C    -119.286000   20.630200  -20.045000
  H    -118.309000   20.298800  -20.331400
  H    -120.006000   19.891800  -19.889500
  C    -119.892000   21.065700  -21.426100
  H    -120.921000   21.193600  -21.364500
  H    -119.532000   22.043900  -21.741400
  H    -119.547000   20.509000  -22.234100
  S    -124.830000   22.287500  -16.524800
  C    -125.379000   22.325600  -14.852300
  C    -124.347000   22.686000  -14.017000
  C    -123.081000   22.878100  -14.641900
  C    -123.183000   22.767100  -15.993200
  H    -124.455000   22.728000  -13.009800
  C    -121.722000   23.029900  -13.951200
  H    -120.880000   23.261500  -14.597500
  H    -121.433000   22.032500  -13.713400
  C    -121.820000   23.937600  -12.697900
  H    -120.823000   23.943200  -12.173800
  H    -122.465000   23.466600  -12.051100
  C    -122.182000   25.395300  -12.868400
  H    -121.562000   25.770800  -13.669300
  H    -121.992000   25.965600  -11.953600
  H    -123.181000   25.487600  -13.273500
  H    -120.563000   24.164700  -19.847600
  H    -126.358000   22.116600  -14.336500

 Total Charge           Charge          ....    0
 Multiplicity           Mult            ....    1
 Number of Electrons    NEL             ....  134
 Basis Dimension        Dim             ....  322

ORBITAL ENERGIES
----------------

  NO   OCC          E(Eh)            E(eV)
   0   2.0000     -88.967270     -2420.9225
   1   2.0000     -88.964237     -2420.8400
   2   2.0000     -10.321526      -280.8630
   3   2.0000     -10.320276      -280.8290
   4   2.0000     -10.319658      -280.8122
   5   2.0000     -10.315517      -280.6995
   6   2.0000     -10.305082      -280.4155
   7   2.0000     -10.298672      -280.2411
   8   2.0000     -10.291178      -280.0372
   9   2.0000     -10.290663      -280.0232
  10   2.0000     -10.286694      -279.9152
  11   2.0000     -10.284659      -279.8598
  12   2.0000     -10.280672      -279.7513
  13   2.0000     -10.280552      -279.7480
  14   2.0000     -10.271053      -279.4896
  15   2.0000     -10.261917      -279.2409
  16   2.0000      -8.080826      -219.8905
  17   2.0000      -8.079394      -219.8515
  18   2.0000      -6.039568      -164.3450
  19   2.0000      -6.037767      -164.2960
  20   2.0000      -6.035569      -164.2362
  21   2.0000      -6.033794      -164.1879
  22   2.0000      -6.031320      -164.1206
  23   2.0000      -6.030296      -164.0927
  24   2.0000      -1.009297       -27.4644
  25   2.0000      -0.981703       -26.7135
  26   2.0000      -0.916311       -24.9341
  27   2.0000      -0.907985       -24.7075
  28   2.0000      -0.870248       -23.6807
  29   2.0000      -0.851665       -23.1750
  30   2.0000      -0.844471       -22.9792
  31   2.0000      -0.815447       -22.1894
  32   2.0000      -0.793547       -21.5935
  33   2.0000      -0.778703       -21.1896
  34   2.0000      -0.708484       -19.2788
  35   2.0000      -0.698938       -19.0191
  36   2.0000      -0.698176       -18.9983
  37   2.0000      -0.657543       -17.8927
  38   2.0000      -0.649986       -17.6870
  39   2.0000      -0.624550       -16.9949
  40   2.0000      -0.598868       -16.2960
  41   2.0000      -0.576517       -15.6878
  42   2.0000      -0.557202       -15.1622
  43   2.0000      -0.551804       -15.0153
  44   2.0000      -0.545508       -14.8440
  45   2.0000      -0.543501       -14.7894
  46   2.0000      -0.520227       -14.1561
  47   2.0000      -0.514912       -14.0115
  48   2.0000      -0.500153       -13.6099
  49   2.0000      -0.495668       -13.4878
  50   2.0000      -0.488377       -13.2894
  51   2.0000      -0.483317       -13.1517
  52   2.0000      -0.468522       -12.7491
  53   2.0000      -0.465499       -12.6669
  54   2.0000      -0.458529       -12.4772
  55   2.0000      -0.449632       -12.2351
  56   2.0000      -0.445320       -12.1178
  57   2.0000      -0.439369       -11.9558
  58   2.0000      -0.436430       -11.8759
  59   2.0000      -0.428530       -11.6609
  60   2.0000      -0.420477       -11.4418
  61   2.0000      -0.408943       -11.1279
  62   2.0000      -0.404213       -10.9992
  63   2.0000      -0.338767        -9.2183
  64   2.0000      -0.329727        -8.9723
  65   2.0000      -0.327214        -8.9039
  66   2.0000      -0.303535        -8.2596
  67   0.0000       0.041204         1.1212
  68   0.0000       0.056194         1.5291
  69   0.0000       0.112977         3.0742
  70   0.0000       0.119597         3.2544
  71   0.0000       0.123162         3.3514

MULLIKEN ATOMIC CHARGES
-----------------------
   0 S :    0.108380
   1 C :   -0.117664
   2 C :   -0.094030
   3 C :    0.075430
   4 C :   -0.181446
   5 H :   -0.025314
   6 C :    0.107116
   7 H :    0.008476
   8 H :    0.031898
   9 C :   -0.036361
  10 H :    0.026887
  11 H :    0.023705
  12 C :   -0.044045
  13 H :    0.030364
  14 H :   -0.006954
  15 H :    0.019591
  16 S :    0.123266
  17 C :   -0.089952
  18 C :   -0.011274
  19 C :   -0.024401
  20 C :   -0.188359
  21 H :   -0.029018
  22 C :    0.113949
  23 H :    0.025870
  24 H :    0.023370
  25 C :   -0.093411
  26 H :    0.026332
  27 H :    0.008705
  28 C :   -0.020001
  29 H :    0.022089
  30 H :    0.044921
  31 H :    0.031928
  32 H :    0.037729
  33 H :    0.072221
Sum of atomic charges:    0.0000000

LOEWDIN ATOMIC CHARGES
----------------------
   0 S :    0.417141
   1 C :   -0.174670
   2 C :   -0.055525
   3 C :   -0.053580
   4 C :   -0.206888
   5 H :    0.017115
   6 C :   -0.027978
   7 H :    0.027687
   8 H :    0.036967
   9 C :   -0.028845
  10 H :    0.025446
  11 H :    0.021366
  12 C :   -0.059825
  13 H :    0.016067
  14 H :    0.016961
  15 H :    0.018892
  16 S :    0.383162
  17 C :   -0.190910
  18 C :   -0.066126
  19 C :   -0.050119
  20 C :   -0.198830
  21 H :    0.010003
  22 C :   -0.024610
  23 H :    0.031820
  24 H :    0.033854
  25 C :   -0.041552
  26 H :    0.029885
  27 H :    0.006659
  28 C :   -0.062381
  29 H :    0.026128
  30 H :    0.031461
  31 H :    0.024532
  32 H :    0.017239
  33 H :    0.049454

  Mayer bond orders larger than 0.100000
B(  0-S ,  1-C ) :   1.1383 B(  0-S ,  4-C ) :   1.1742 B(  1-C ,  2-C ) :   1.5990
B(  1-C , 32-H ) :   0.9761 B(  2-C ,  3-C ) :   1.2369 B(  2-C ,  6-C ) :   1.0132
B(  3-C ,  4-C ) :   1.5813 B(  3-C ,  5-H ) :   1.0069 B(  4-C , 20-C ) :   1.0039
B(  6-C ,  7-H ) :   0.9308 B(  6-C ,  8-H ) :   0.9397 B(  6-C ,  9-C ) :   1.0929
B(  9-C , 10-H ) :   0.9555 B(  9-C , 11-H ) :   0.9614 B(  9-C , 12-C ) :   1.0649
B( 12-C , 13-H ) :   0.9800 B( 12-C , 14-H ) :   0.9689 B( 12-C , 15-H ) :   0.9752
B( 16-S , 17-C ) :   1.1313 B( 16-S , 20-C ) :   1.1180 B( 17-C , 18-C ) :   1.6452
B( 17-C , 33-H ) :   0.9551 B( 18-C , 19-C ) :   1.2237 B( 18-C , 21-H ) :   0.9948
B( 19-C , 20-C ) :   1.6412 B( 19-C , 22-C ) :   1.0310 B( 22-C , 23-H ) :   0.9277
B( 22-C , 24-H ) :   0.9292 B( 22-C , 25-C ) :   1.0698 B( 25-C , 26-H ) :   0.9529
B( 25-C , 27-H ) :   0.9551 B( 25-C , 28-C ) :   1.0828 B( 28-C , 29-H ) :   0.9718
B( 28-C , 30-H ) :   0.9735 B( 28-C , 31-H ) :   0.9700

Dispersion correction           -0.014542888
FINAL SINGLE POINT ENERGY     -1339.846882610523

DIPOLE MOMENT
-------------
                                X             Y             Z
Electronic contribution:    -17.51415       2.51647      -2.21724
Nuclear contribution   :     18.05759      -2.79607       2.50041
                        -----------------------------------------
Total Dipole Moment    :      0.54343      -0.27960       0.28317
                        -----------------------------------------
Magnitude (a.u.)       :      0.67356
Magnitude (Debye)      :      1.71204

Rotational constants in cm-1:     0.023227     0.007539     0.006696
Rotational constants in MHz :   696.331381   226.015170   200.746723

                             ****ORCA TERMINATED NORMALLY****
TOTAL RUN TIME: 0 days 0 hours 0 minutes 20 seconds 504 msec
