                         Program Version 4.2.1 -  RELEASE  -
|  1> ! wB97X-D3 SP def2-SVP
|  2> %pal
|  3> nprocs 24
|  4> end
|  5>
|  6> * xyz 0 1
|  7> S 	 -68.3904 	 5.14637 	 -72.3677
|  8> C 	 -67.5397 	 5.65889 	 -73.8075
|  9> C 	 -66.6438 	 4.63169 	 -74.2731
| 10> C 	 -66.6855 	 3.45801 	 -73.451
| 11> C 	 -67.6173 	 3.56471 	 -72.4189
| 12> H 	 -66.1581 	 2.58093 	 -73.5652
| 13> C 	 -65.9404 	 4.70205 	 -75.6347
| 14> H 	 -65.234 	 3.90706 	 -75.65
| 15> H 	 -65.2951 	 5.59886 	 -75.7236
| 16> C 	 -66.8818 	 4.75088 	 -76.8895
| 17> H 	 -67.4235 	 5.68257 	 -76.8503
| 18> H 	 -66.3243 	 4.82784 	 -77.8711
| 19> C 	 -67.7935 	 3.5848 	 -77.0068
| 20> H 	 -68.2736 	 3.32537 	 -76.046
| 21> H 	 -68.5026 	 3.68405 	 -77.786
| 22> H 	 -67.201 	 2.65032 	 -77.2892
| 23> S 	 -67.2671 	 2.81724 	 -69.7385
| 24> C 	 -67.8795 	 1.28465 	 -69.1351
| 25> C 	 -68.5129 	 0.593359 	 -70.1533
| 26> C 	 -68.4834 	 1.30418 	 -71.4343
| 27> C 	 -67.9068 	 2.5595 	 -71.3952
| 28> H 	 -69.0513 	 -0.306441 	 -69.8968
| 29> C 	 -69.3304 	 0.693705 	 -72.5892
| 30> H 	 -69.3985 	 1.37708 	 -73.3733
| 31> H 	 -70.3296 	 0.47604 	 -72.2791
| 32> C 	 -68.6751 	 -0.556668 	 -73.1358
| 33> H 	 -69.3252 	 -0.958655 	 -73.8819
| 34> H 	 -68.4943 	 -1.20856 	 -72.3239
| 35> C 	 -67.4402 	 -0.313444 	 -74.0247
| 36> H 	 -67.0844 	 -1.23766 	 -74.5049
| 37> H 	 -66.5955 	 -0.0249542 	 -73.3438
| 38> H 	 -67.5271 	 0.440542 	 -74.808
| 39> H 	 -67.7189 	 6.59798 	 -74.3072
| 40> H 	 -67.8745 	 0.904662 	 -68.1096
| 41> *
| 42>
| 43>                          ****END OF INPUT****

CARTESIAN COORDINATES (ANGSTROEM)
---------------------------------
  S    -68.390400    5.146370  -72.367700
  C    -67.539700    5.658890  -73.807500
  C    -66.643800    4.631690  -74.273100
  C    -66.685500    3.458010  -73.451000
  C    -67.617300    3.564710  -72.418900
  H    -66.158100    2.580930  -73.565200
  C    -65.940400    4.702050  -75.634700
  H    -65.234000    3.907060  -75.650000
  H    -65.295100    5.598860  -75.723600
  C    -66.881800    4.750880  -76.889500
  H    -67.423500    5.682570  -76.850300
  H    -66.324300    4.827840  -77.871100
  C    -67.793500    3.584800  -77.006800
  H    -68.273600    3.325370  -76.046000
  H    -68.502600    3.684050  -77.786000
  H    -67.201000    2.650320  -77.289200
  S    -67.267100    2.817240  -69.738500
  C    -67.879500    1.284650  -69.135100
  C    -68.512900    0.593359  -70.153300
  C    -68.483400    1.304180  -71.434300
  C    -67.906800    2.559500  -71.395200
  H    -69.051300   -0.306441  -69.896800
  C    -69.330400    0.693705  -72.589200
  H    -69.398500    1.377080  -73.373300
  H    -70.329600    0.476040  -72.279100
  C    -68.675100   -0.556668  -73.135800
  H    -69.325200   -0.958655  -73.881900
  H    -68.494300   -1.208560  -72.323900
  C    -67.440200   -0.313444  -74.024700
  H    -67.084400   -1.237660  -74.504900
  H    -66.595500   -0.024954  -73.343800
  H    -67.527100    0.440542  -74.808000
  H    -67.718900    6.597980  -74.307200
  H    -67.874500    0.904662  -68.109600

 Total Charge           Charge          ....    0
 Multiplicity           Mult            ....    1
 Number of Electrons    NEL             ....  134
 Basis Dimension        Dim             ....  322

ORBITAL ENERGIES
----------------

  NO   OCC          E(Eh)            E(eV)
   0   2.0000     -88.972367     -2421.0612
   1   2.0000     -88.961674     -2420.7702
   2   2.0000     -10.333249      -281.1820
   3   2.0000     -10.330933      -281.1190
   4   2.0000     -10.321921      -280.8738
   5   2.0000     -10.321548      -280.8636
   6   2.0000     -10.311113      -280.5796
   7   2.0000     -10.309019      -280.5227
   8   2.0000     -10.296523      -280.1826
   9   2.0000     -10.295879      -280.1651
  10   2.0000     -10.295021      -280.1418
  11   2.0000     -10.290169      -280.0097
  12   2.0000     -10.283094      -279.8172
  13   2.0000     -10.279332      -279.7148
  14   2.0000     -10.277992      -279.6784
  15   2.0000     -10.274629      -279.5869
  16   2.0000      -8.086534      -220.0458
  17   2.0000      -8.075805      -219.7538
  18   2.0000      -6.044903      -164.4902
  19   2.0000      -6.040984      -164.3835
  20   2.0000      -6.037613      -164.2918
  21   2.0000      -6.034528      -164.2078
  22   2.0000      -6.030284      -164.0924
  23   2.0000      -6.026465      -163.9884
  24   2.0000      -0.999456       -27.1966
  25   2.0000      -0.976908       -26.5830
  26   2.0000      -0.910628       -24.7795
  27   2.0000      -0.908737       -24.7280
  28   2.0000      -0.866384       -23.5755
  29   2.0000      -0.852162       -23.1885
  30   2.0000      -0.838920       -22.8282
  31   2.0000      -0.814402       -22.1610
  32   2.0000      -0.782759       -21.3000
  33   2.0000      -0.772165       -21.0117
  34   2.0000      -0.703501       -19.1432
  35   2.0000      -0.700123       -19.0513
  36   2.0000      -0.691980       -18.8297
  37   2.0000      -0.655833       -17.8461
  38   2.0000      -0.648652       -17.6507
  39   2.0000      -0.614697       -16.7267
  40   2.0000      -0.598808       -16.2944
  41   2.0000      -0.571875       -15.5615
  42   2.0000      -0.554095       -15.0777
  43   2.0000      -0.550877       -14.9901
  44   2.0000      -0.546561       -14.8727
  45   2.0000      -0.540776       -14.7153
  46   2.0000      -0.517666       -14.0864
  47   2.0000      -0.512420       -13.9437
  48   2.0000      -0.503739       -13.7074
  49   2.0000      -0.494843       -13.4654
  50   2.0000      -0.491845       -13.3838
  51   2.0000      -0.478895       -13.0314
  52   2.0000      -0.468390       -12.7455
  53   2.0000      -0.462992       -12.5987
  54   2.0000      -0.462250       -12.5785
  55   2.0000      -0.440273       -11.9804
  56   2.0000      -0.438176       -11.9234
  57   2.0000      -0.436587       -11.8801
  58   2.0000      -0.433728       -11.8023
  59   2.0000      -0.432322       -11.7641
  60   2.0000      -0.426449       -11.6043
  61   2.0000      -0.410632       -11.1739
  62   2.0000      -0.400028       -10.8853
  63   2.0000      -0.341711        -9.2984
  64   2.0000      -0.328666        -8.9435
  65   2.0000      -0.325816        -8.8659
  66   2.0000      -0.303001        -8.2451
  67   0.0000       0.032966         0.8970
  68   0.0000       0.055906         1.5213
  69   0.0000       0.117231         3.1900
  70   0.0000       0.118639         3.2283
  71   0.0000       0.121384         3.3030

MULLIKEN ATOMIC CHARGES
-----------------------
   0 S :    0.129762
   1 C :   -0.119312
   2 C :   -0.106799
   3 C :    0.093944
   4 C :   -0.189195
   5 H :   -0.021219
   6 C :    0.077534
   7 H :    0.009133
   8 H :    0.034247
   9 C :   -0.069219
  10 H :    0.020065
  11 H :    0.033815
  12 C :   -0.055578
  13 H :    0.048282
  14 H :    0.026682
  15 H :    0.025834
  16 S :    0.091988
  17 C :   -0.092705
  18 C :   -0.045422
  19 C :   -0.037955
  20 C :   -0.158793
  21 H :    0.025266
  22 C :    0.123499
  23 H :   -0.002857
  24 H :    0.028595
  25 C :   -0.055141
  26 H :    0.022864
  27 H :    0.022986
  28 C :   -0.091237
  29 H :    0.034360
  30 H :    0.038869
  31 H :    0.036892
  32 H :    0.054687
  33 H :    0.066130
Sum of atomic charges:   -0.0000000

LOEWDIN ATOMIC CHARGES
----------------------
   0 S :    0.420251
   1 C :   -0.196331
   2 C :   -0.059753
   3 C :   -0.042131
   4 C :   -0.196774
   5 H :    0.021033
   6 C :   -0.031429
   7 H :    0.021670
   8 H :    0.036396
   9 C :   -0.043263
  10 H :    0.018274
  11 H :    0.031777
  12 C :   -0.071011
  13 H :    0.027785
  14 H :    0.019812
  15 H :    0.029568
  16 S :    0.379320
  17 C :   -0.180878
  18 C :   -0.078432
  19 C :   -0.048733
  20 C :   -0.195222
  21 H :    0.030819
  22 C :   -0.016223
  23 H :    0.018301
  24 H :    0.029874
  25 C :   -0.034695
  26 H :    0.022866
  27 H :    0.017531
  28 C :   -0.070219
  29 H :    0.027374
  30 H :    0.025568
  31 H :    0.023100
  32 H :    0.026285
  33 H :    0.037488

  Mayer bond orders larger than 0.100000
B(  0-S ,  1-C ) :   1.1648 B(  0-S ,  4-C ) :   1.1654 B(  1-C ,  2-C ) :   1.5548
B(  1-C ,  4-C ) :   0.1082 B(  1-C , 32-H ) :   0.9733 B(  2-C ,  3-C ) :   1.2519
B(  2-C ,  6-C ) :   1.0278 B(  3-C ,  4-C ) :   1.5590 B(  3-C ,  5-H ) :   1.0073
B(  4-C , 20-C ) :   1.0154 B(  6-C ,  7-H ) :   0.9455 B(  6-C ,  8-H ) :   0.9389
B(  6-C ,  9-C ) :   1.0617 B(  9-C , 10-H ) :   0.9545 B(  9-C , 11-H ) :   0.9534
B(  9-C , 12-C ) :   1.0854 B( 12-C , 13-H ) :   0.9734 B( 12-C , 14-H ) :   0.9705
B( 12-C , 15-H ) :   0.9715 B( 16-S , 17-C ) :   1.1497 B( 16-S , 20-C ) :   1.1157
B( 17-C , 18-C ) :   1.6401 B( 17-C , 33-H ) :   0.9630 B( 18-C , 19-C ) :   1.1994
B( 18-C , 21-H ) :   0.9867 B( 19-C , 20-C ) :   1.6441 B( 19-C , 22-C ) :   1.0343
B( 22-C , 23-H ) :   0.9334 B( 22-C , 24-H ) :   0.9445 B( 22-C , 25-C ) :   1.0724
B( 25-C , 26-H ) :   0.9539 B( 25-C , 27-H ) :   0.9606 B( 25-C , 28-C ) :   1.0757
B( 28-C , 29-H ) :   0.9729 B( 28-C , 30-H ) :   0.9715 B( 28-C , 31-H ) :   0.9736

Dispersion correction           -0.015779774
FINAL SINGLE POINT ENERGY     -1339.878915823684

DIPOLE MOMENT
-------------
                                X             Y             Z
Electronic contribution:     -1.01284      12.67577      25.83372
Nuclear contribution   :      0.86946     -13.02787     -26.34972
                        -----------------------------------------
Total Dipole Moment    :     -0.14339      -0.35209      -0.51600
                        -----------------------------------------
Magnitude (a.u.)       :      0.64092
Magnitude (Debye)      :      1.62910

Rotational constants in cm-1:     0.019720     0.009568     0.007213
Rotational constants in MHz :   591.196572   286.853849   216.246613

                             ****ORCA TERMINATED NORMALLY****
TOTAL RUN TIME: 0 days 0 hours 0 minutes 22 seconds 518 msec
