                         Program Version 4.2.1 -  RELEASE  -
|  1> ! wB97X-D3 SP def2-SVP
|  2> %pal
|  3> nprocs 24
|  4> end
|  5>
|  6> * xyz 0 1
|  7> S 	 -65.2192 	 10.1512 	 -75.2621
|  8> C 	 -64.6536 	 8.54558 	 -75.5684
|  9> C 	 -65.7139 	 7.65663 	 -75.6616
| 10> C 	 -67.0272 	 8.23157 	 -75.523
| 11> C 	 -66.9007 	 9.62689 	 -75.2999
| 12> H 	 -67.9819 	 7.81342 	 -75.6429
| 13> C 	 -65.4806 	 6.15128 	 -75.876
| 14> H 	 -65.5133 	 5.68905 	 -74.9113
| 15> H 	 -64.4445 	 6.01162 	 -76.1433
| 16> C 	 -66.448 	 5.27976 	 -76.681
| 17> H 	 -66.0383 	 4.21814 	 -76.6574
| 18> H 	 -67.4794 	 5.3806 	 -76.174
| 19> C 	 -66.5112 	 5.68307 	 -78.1551
| 20> H 	 -67.0124 	 4.91046 	 -78.712
| 21> H 	 -66.9774 	 6.64746 	 -78.2414
| 22> H 	 -65.4873 	 5.69435 	 -78.5947
| 23> S 	 -67.8409 	 11.9185 	 -76.3253
| 24> C 	 -69.5297 	 12.3613 	 -76.0231
| 25> C 	 -70.131 	 11.4215 	 -75.2254
| 26> C 	 -69.2835 	 10.3577 	 -74.7621
| 27> C 	 -67.9961 	 10.5498 	 -75.2107
| 28> H 	 -71.1792 	 11.5285 	 -74.9767
| 29> C 	 -69.879 	 9.22864 	 -73.9084
| 30> H 	 -70.0613 	 8.39047 	 -74.6007
| 31> H 	 -70.8664 	 9.57483 	 -73.6809
| 32> C 	 -69.2425 	 8.86563 	 -72.5388
| 33> H 	 -69.3073 	 9.78981 	 -71.98
| 34> H 	 -68.179 	 8.57514 	 -72.6318
| 35> C 	 -70.1237 	 7.8021 	 -71.8022
| 36> H 	 -70.9336 	 8.19361 	 -71.2793
| 37> H 	 -69.6509 	 7.34914 	 -70.8307
| 38> H 	 -70.3015 	 7.02564 	 -72.5567
| 39> H 	 -63.5683 	 8.32261 	 -75.5702
| 40> H 	 -69.9787 	 13.2011 	 -76.4758
| 41> *
| 42>
| 43>                          ****END OF INPUT****

CARTESIAN COORDINATES (ANGSTROEM)
---------------------------------
  S    -65.219200   10.151200  -75.262100
  C    -64.653600    8.545580  -75.568400
  C    -65.713900    7.656630  -75.661600
  C    -67.027200    8.231570  -75.523000
  C    -66.900700    9.626890  -75.299900
  H    -67.981900    7.813420  -75.642900
  C    -65.480600    6.151280  -75.876000
  H    -65.513300    5.689050  -74.911300
  H    -64.444500    6.011620  -76.143300
  C    -66.448000    5.279760  -76.681000
  H    -66.038300    4.218140  -76.657400
  H    -67.479400    5.380600  -76.174000
  C    -66.511200    5.683070  -78.155100
  H    -67.012400    4.910460  -78.712000
  H    -66.977400    6.647460  -78.241400
  H    -65.487300    5.694350  -78.594700
  S    -67.840900   11.918500  -76.325300
  C    -69.529700   12.361300  -76.023100
  C    -70.131000   11.421500  -75.225400
  C    -69.283500   10.357700  -74.762100
  C    -67.996100   10.549800  -75.210700
  H    -71.179200   11.528500  -74.976700
  C    -69.879000    9.228640  -73.908400
  H    -70.061300    8.390470  -74.600700
  H    -70.866400    9.574830  -73.680900
  C    -69.242500    8.865630  -72.538800
  H    -69.307300    9.789810  -71.980000
  H    -68.179000    8.575140  -72.631800
  C    -70.123700    7.802100  -71.802200
  H    -70.933600    8.193610  -71.279300
  H    -69.650900    7.349140  -70.830700
  H    -70.301500    7.025640  -72.556700
  H    -63.568300    8.322610  -75.570200
  H    -69.978700   13.201100  -76.475800

 Total Charge           Charge          ....    0
 Multiplicity           Mult            ....    1
 Number of Electrons    NEL             ....  134
 Basis Dimension        Dim             ....  322

ORBITAL ENERGIES
----------------

  NO   OCC          E(Eh)            E(eV)
   0   2.0000     -88.966879     -2420.9119
   1   2.0000     -88.963152     -2420.8104
   2   2.0000     -10.331123      -281.1242
   3   2.0000     -10.324600      -280.9467
   4   2.0000     -10.316067      -280.7144
   5   2.0000     -10.314102      -280.6610
   6   2.0000     -10.306085      -280.4428
   7   2.0000     -10.305789      -280.4348
   8   2.0000     -10.297779      -280.2168
   9   2.0000     -10.297739      -280.2157
  10   2.0000     -10.296600      -280.1847
  11   2.0000     -10.294743      -280.1342
  12   2.0000     -10.291502      -280.0460
  13   2.0000     -10.285235      -279.8755
  14   2.0000     -10.284706      -279.8611
  15   2.0000     -10.272166      -279.5198
  16   2.0000      -8.081678      -219.9136
  17   2.0000      -8.077641      -219.8038
  18   2.0000      -6.040139      -164.3605
  19   2.0000      -6.036223      -164.2540
  20   2.0000      -6.036103      -164.2507
  21   2.0000      -6.032580      -164.1548
  22   2.0000      -6.032216      -164.1449
  23   2.0000      -6.028284      -164.0379
  24   2.0000      -1.005612       -27.3641
  25   2.0000      -0.980181       -26.6721
  26   2.0000      -0.908243       -24.7146
  27   2.0000      -0.905166       -24.6308
  28   2.0000      -0.871361       -23.7109
  29   2.0000      -0.851653       -23.1746
  30   2.0000      -0.843431       -22.9509
  31   2.0000      -0.812560       -22.1109
  32   2.0000      -0.782659       -21.2972
  33   2.0000      -0.772388       -21.0177
  34   2.0000      -0.711794       -19.3689
  35   2.0000      -0.697080       -18.9685
  36   2.0000      -0.684719       -18.6321
  37   2.0000      -0.664219       -18.0743
  38   2.0000      -0.642220       -17.4757
  39   2.0000      -0.618028       -16.8174
  40   2.0000      -0.595261       -16.1979
  41   2.0000      -0.569237       -15.4897
  42   2.0000      -0.558245       -15.1906
  43   2.0000      -0.546659       -14.8754
  44   2.0000      -0.544568       -14.8185
  45   2.0000      -0.532489       -14.4898
  46   2.0000      -0.518247       -14.1022
  47   2.0000      -0.516161       -14.0455
  48   2.0000      -0.500588       -13.6217
  49   2.0000      -0.497165       -13.5285
  50   2.0000      -0.490699       -13.3526
  51   2.0000      -0.481678       -13.1071
  52   2.0000      -0.464053       -12.6275
  53   2.0000      -0.460929       -12.5425
  54   2.0000      -0.459920       -12.5151
  55   2.0000      -0.449585       -12.2338
  56   2.0000      -0.445478       -12.1221
  57   2.0000      -0.431841       -11.7510
  58   2.0000      -0.428691       -11.6653
  59   2.0000      -0.423556       -11.5256
  60   2.0000      -0.418529       -11.3887
  61   2.0000      -0.415861       -11.3161
  62   2.0000      -0.413603       -11.2547
  63   2.0000      -0.352553        -9.5934
  64   2.0000      -0.331345        -9.0164
  65   2.0000      -0.329043        -8.9537
  66   2.0000      -0.286035        -7.7834
  67   0.0000       0.023661         0.6438
  68   0.0000       0.074534         2.0282
  69   0.0000       0.105828         2.8797
  70   0.0000       0.119165         3.2426
  71   0.0000       0.133969         3.6455

MULLIKEN ATOMIC CHARGES
-----------------------
   0 S :    0.111705
   1 C :   -0.141033
   2 C :   -0.075465
   3 C :    0.046040
   4 C :   -0.169651
   5 H :   -0.009082
   6 C :    0.083458
   7 H :    0.029388
   8 H :    0.002781
   9 C :   -0.129783
  10 H :    0.042763
  11 H :    0.044103
  12 C :   -0.031786
  13 H :    0.029713
  14 H :    0.041265
  15 H :    0.028202
  16 S :    0.085473
  17 C :   -0.075228
  18 C :   -0.033949
  19 C :   -0.057333
  20 C :   -0.117779
  21 H :    0.018354
  22 C :    0.058327
  23 H :    0.036924
  24 H :    0.001286
  25 C :   -0.055695
  26 H :    0.031711
  27 H :    0.056757
  28 C :   -0.068345
  29 H :    0.025591
  30 H :    0.036945
  31 H :    0.044294
  32 H :    0.065701
  33 H :    0.044346
Sum of atomic charges:    0.0000000

LOEWDIN ATOMIC CHARGES
----------------------
   0 S :    0.409952
   1 C :   -0.216141
   2 C :   -0.056932
   3 C :   -0.059254
   4 C :   -0.185831
   5 H :    0.022855
   6 C :   -0.040136
   7 H :    0.032502
   8 H :    0.023917
   9 C :   -0.048914
  10 H :    0.035284
  11 H :    0.029941
  12 C :   -0.067909
  13 H :    0.022300
  14 H :    0.024219
  15 H :    0.029470
  16 S :    0.385866
  17 C :   -0.168042
  18 C :   -0.068894
  19 C :   -0.056856
  20 C :   -0.190334
  21 H :    0.030432
  22 C :   -0.033055
  23 H :    0.029556
  24 H :    0.027157
  25 C :   -0.036158
  26 H :    0.026554
  27 H :    0.029366
  28 C :   -0.072799
  29 H :    0.016506
  30 H :    0.039955
  31 H :    0.027744
  32 H :    0.036433
  33 H :    0.021245

  Mayer bond orders larger than 0.100000
B(  0-S ,  1-C ) :   1.1296 B(  0-S ,  4-C ) :   1.1707 B(  1-C ,  2-C ) :   1.6047
B(  1-C , 32-H ) :   0.9663 B(  2-C ,  3-C ) :   1.2342 B(  2-C ,  6-C ) :   1.0148
B(  3-C ,  4-C ) :   1.5424 B(  3-C ,  5-H ) :   0.9976 B(  4-C , 20-C ) :   1.0532
B(  6-C ,  7-H ) :   0.9306 B(  6-C ,  8-H ) :   0.9391 B(  6-C ,  9-C ) :   1.0801
B(  9-C , 10-H ) :   0.9511 B(  9-C , 11-H ) :   0.9476 B(  9-C , 12-C ) :   1.0826
B( 12-C , 13-H ) :   0.9754 B( 12-C , 14-H ) :   0.9744 B( 12-C , 15-H ) :   0.9724
B( 16-S , 17-C ) :   1.1391 B( 16-S , 20-C ) :   1.1344 B( 17-C , 18-C ) :   1.6188
B( 17-C , 33-H ) :   0.9759 B( 18-C , 19-C ) :   1.2342 B( 18-C , 21-H ) :   0.9871
B( 19-C , 20-C ) :   1.6081 B( 19-C , 22-C ) :   1.0315 B( 22-C , 23-H ) :   0.9242
B( 22-C , 24-H ) :   0.9306 B( 22-C , 25-C ) :   1.0538 B( 25-C , 26-H ) :   0.9565
B( 25-C , 27-H ) :   0.9588 B( 25-C , 28-C ) :   1.0713 B( 28-C , 29-H ) :   0.9758
B( 28-C , 30-H ) :   0.9718 B( 28-C , 31-H ) :   0.9775

Dispersion correction           -0.014347752
FINAL SINGLE POINT ENERGY     -1339.872462158023

DIPOLE MOMENT
-------------
                                X             Y             Z
Electronic contribution:      9.32407      25.56723      -5.42646
Nuclear contribution   :     -9.74119     -26.08039       5.56691
                        -----------------------------------------
Total Dipole Moment    :     -0.41712      -0.51316       0.14045
                        -----------------------------------------
Magnitude (a.u.)       :      0.67606
Magnitude (Debye)      :      1.71840

Rotational constants in cm-1:     0.015693     0.009665     0.007587
Rotational constants in MHz :   470.457627   289.747470   227.443259

                             ****ORCA TERMINATED NORMALLY****
TOTAL RUN TIME: 0 days 0 hours 0 minutes 20 seconds 758 msec
