                         Program Version 4.2.1 -  RELEASE  -
|  1> ! wB97X-D3 SP def2-SVP
|  2> %pal
|  3> nprocs 24
|  4> end
|  5>
|  6> * xyz 0 1
|  7> S 	 -81.2133 	 -18.5848 	 -54.0169
|  8> C 	 -82.6079 	 -17.9809 	 -53.0856
|  9> C 	 -82.5669 	 -18.3738 	 -51.7963
| 10> C 	 -81.3386 	 -18.9888 	 -51.5083
| 11> C 	 -80.4985 	 -19.2487 	 -52.5785
| 12> H 	 -81.0581 	 -19.3953 	 -50.5147
| 13> C 	 -83.7934 	 -18.2586 	 -50.768
| 14> H 	 -84.6389 	 -17.7469 	 -51.2993
| 15> H 	 -83.5114 	 -17.5367 	 -49.9505
| 16> C 	 -84.3082 	 -19.5468 	 -50.112
| 17> H 	 -83.5587 	 -19.8853 	 -49.3818
| 18> H 	 -85.2355 	 -19.332 	 -49.5154
| 19> C 	 -84.8008 	 -20.6536 	 -51.1293
| 20> H 	 -85.7215 	 -20.4528 	 -51.6344
| 21> H 	 -83.9996 	 -20.9587 	 -51.8177
| 22> H 	 -84.9326 	 -21.626 	 -50.6739
| 23> S 	 -79.6683 	 -21.6711 	 -51.6924
| 24> C 	 -78.0117 	 -22.2571 	 -52.0068
| 25> C 	 -77.3512 	 -21.3308 	 -52.7322
| 26> C 	 -78.0904 	 -20.134 	 -53.0776
| 27> C 	 -79.3897 	 -20.1765 	 -52.5615
| 28> H 	 -76.2992 	 -21.5617 	 -52.9315
| 29> C 	 -77.5136 	 -18.8872 	 -53.725
| 30> H 	 -76.69 	 -18.7331 	 -53.0052
| 31> H 	 -78.2078 	 -18.0246 	 -53.6232
| 32> C 	 -76.9406 	 -19.0443 	 -55.1877
| 33> H 	 -76.7295 	 -18.0871 	 -55.5385
| 34> H 	 -77.6312 	 -19.3674 	 -55.883
| 35> C 	 -75.6285 	 -19.8683 	 -55.2048
| 36> H 	 -74.8649 	 -19.4253 	 -54.5407
| 37> H 	 -75.1076 	 -19.8574 	 -56.1471
| 38> H 	 -75.6989 	 -20.9428 	 -54.8647
| 39> H 	 -83.3985 	 -17.4511 	 -53.5406
| 40> H 	 -77.5411 	 -23.0469 	 -51.4593
| 41> *
| 42>
| 43>                          ****END OF INPUT****

CARTESIAN COORDINATES (ANGSTROEM)
---------------------------------
  S    -81.213300  -18.584800  -54.016900
  C    -82.607900  -17.980900  -53.085600
  C    -82.566900  -18.373800  -51.796300
  C    -81.338600  -18.988800  -51.508300
  C    -80.498500  -19.248700  -52.578500
  H    -81.058100  -19.395300  -50.514700
  C    -83.793400  -18.258600  -50.768000
  H    -84.638900  -17.746900  -51.299300
  H    -83.511400  -17.536700  -49.950500
  C    -84.308200  -19.546800  -50.112000
  H    -83.558700  -19.885300  -49.381800
  H    -85.235500  -19.332000  -49.515400
  C    -84.800800  -20.653600  -51.129300
  H    -85.721500  -20.452800  -51.634400
  H    -83.999600  -20.958700  -51.817700
  H    -84.932600  -21.626000  -50.673900
  S    -79.668300  -21.671100  -51.692400
  C    -78.011700  -22.257100  -52.006800
  C    -77.351200  -21.330800  -52.732200
  C    -78.090400  -20.134000  -53.077600
  C    -79.389700  -20.176500  -52.561500
  H    -76.299200  -21.561700  -52.931500
  C    -77.513600  -18.887200  -53.725000
  H    -76.690000  -18.733100  -53.005200
  H    -78.207800  -18.024600  -53.623200
  C    -76.940600  -19.044300  -55.187700
  H    -76.729500  -18.087100  -55.538500
  H    -77.631200  -19.367400  -55.883000
  C    -75.628500  -19.868300  -55.204800
  H    -74.864900  -19.425300  -54.540700
  H    -75.107600  -19.857400  -56.147100
  H    -75.698900  -20.942800  -54.864700
  H    -83.398500  -17.451100  -53.540600
  H    -77.541100  -23.046900  -51.459300

 Total Charge           Charge          ....    0
 Multiplicity           Mult            ....    1
 Number of Electrons    NEL             ....  134
 Basis Dimension        Dim             ....  322

ORBITAL ENERGIES
----------------

  NO   OCC          E(Eh)            E(eV)
   0   2.0000     -88.965950     -2420.8866
   1   2.0000     -88.960151     -2420.7288
   2   2.0000     -10.327958      -281.0380
   3   2.0000     -10.326013      -280.9851
   4   2.0000     -10.315078      -280.6875
   5   2.0000     -10.311880      -280.6005
   6   2.0000     -10.307620      -280.4846
   7   2.0000     -10.306851      -280.4637
   8   2.0000     -10.302469      -280.3444
   9   2.0000     -10.297557      -280.2108
  10   2.0000     -10.297523      -280.2098
  11   2.0000     -10.295456      -280.1536
  12   2.0000     -10.293097      -280.0894
  13   2.0000     -10.281938      -279.7858
  14   2.0000     -10.281870      -279.7839
  15   2.0000     -10.274604      -279.5862
  16   2.0000      -8.080426      -219.8796
  17   2.0000      -8.074510      -219.7186
  18   2.0000      -6.038933      -164.3277
  19   2.0000      -6.035024      -164.2213
  20   2.0000      -6.033156      -164.1705
  21   2.0000      -6.031145      -164.1158
  22   2.0000      -6.029031      -164.0583
  23   2.0000      -6.025176      -163.9534
  24   2.0000      -1.007289       -27.4097
  25   2.0000      -0.982958       -26.7476
  26   2.0000      -0.902770       -24.5656
  27   2.0000      -0.900400       -24.5011
  28   2.0000      -0.872595       -23.7445
  29   2.0000      -0.846049       -23.0222
  30   2.0000      -0.839271       -22.8377
  31   2.0000      -0.813853       -22.1461
  32   2.0000      -0.784464       -21.3464
  33   2.0000      -0.771553       -20.9950
  34   2.0000      -0.717085       -19.5129
  35   2.0000      -0.703331       -19.1386
  36   2.0000      -0.692060       -18.8319
  37   2.0000      -0.663741       -18.0613
  38   2.0000      -0.633655       -17.2426
  39   2.0000      -0.616173       -16.7669
  40   2.0000      -0.590089       -16.0571
  41   2.0000      -0.565152       -15.3786
  42   2.0000      -0.550670       -14.9845
  43   2.0000      -0.546986       -14.8843
  44   2.0000      -0.537751       -14.6329
  45   2.0000      -0.537546       -14.6274
  46   2.0000      -0.516264       -14.0483
  47   2.0000      -0.509652       -13.8683
  48   2.0000      -0.500854       -13.6289
  49   2.0000      -0.494196       -13.4478
  50   2.0000      -0.488968       -13.3055
  51   2.0000      -0.477824       -13.0023
  52   2.0000      -0.471885       -12.8406
  53   2.0000      -0.466162       -12.6849
  54   2.0000      -0.458233       -12.4692
  55   2.0000      -0.445837       -12.1319
  56   2.0000      -0.437646       -11.9090
  57   2.0000      -0.434659       -11.8277
  58   2.0000      -0.430692       -11.7197
  59   2.0000      -0.426220       -11.5980
  60   2.0000      -0.425344       -11.5742
  61   2.0000      -0.412747       -11.2314
  62   2.0000      -0.409257       -11.1365
  63   2.0000      -0.347597        -9.4586
  64   2.0000      -0.334058        -9.0902
  65   2.0000      -0.326580        -8.8867
  66   2.0000      -0.294527        -8.0145
  67   0.0000       0.027121         0.7380
  68   0.0000       0.075644         2.0584
  69   0.0000       0.112195         3.0530
  70   0.0000       0.114474         3.1150
  71   0.0000       0.133509         3.6330

MULLIKEN ATOMIC CHARGES
-----------------------
   0 S :    0.105456
   1 C :   -0.125847
   2 C :   -0.047421
   3 C :   -0.017211
   4 C :   -0.139354
   5 H :    0.021741
   6 C :    0.047644
   7 H :    0.023784
   8 H :    0.048146
   9 C :   -0.091752
  10 H :    0.039621
  11 H :    0.042789
  12 C :   -0.053996
  13 H :    0.034431
  14 H :    0.040676
  15 H :    0.021309
  16 S :    0.083455
  17 C :   -0.084861
  18 C :   -0.049687
  19 C :   -0.012111
  20 C :   -0.155320
  21 H :    0.028051
  22 C :    0.010734
  23 H :    0.040293
  24 H :    0.038315
  25 C :    0.028674
  26 H :    0.010261
  27 H :    0.017978
  28 C :   -0.092739
  29 H :    0.022741
  30 H :    0.029643
  31 H :    0.046082
  32 H :    0.031916
  33 H :    0.056558
Sum of atomic charges:   -0.0000000

LOEWDIN ATOMIC CHARGES
----------------------
   0 S :    0.397950
   1 C :   -0.171815
   2 C :   -0.067003
   3 C :   -0.072292
   4 C :   -0.202366
   5 H :    0.030197
   6 C :   -0.030973
   7 H :    0.030560
   8 H :    0.037559
   9 C :   -0.046562
  10 H :    0.025731
  11 H :    0.034329
  12 C :   -0.073065
  13 H :    0.022577
  14 H :    0.030786
  15 H :    0.026921
  16 S :    0.387070
  17 C :   -0.173107
  18 C :   -0.075081
  19 C :   -0.055693
  20 C :   -0.195687
  21 H :    0.034078
  22 C :   -0.031688
  23 H :    0.039296
  24 H :    0.031540
  25 C :   -0.024115
  26 H :    0.020573
  27 H :    0.017568
  28 C :   -0.074356
  29 H :    0.025497
  30 H :    0.023807
  31 H :    0.029025
  32 H :    0.018818
  33 H :    0.029919

  Mayer bond orders larger than 0.100000
B(  0-S ,  1-C ) :   1.1368 B(  0-S ,  4-C ) :   1.1427 B(  1-C ,  2-C ) :   1.6285
B(  1-C , 32-H ) :   0.9704 B(  2-C ,  3-C ) :   1.2448 B(  2-C ,  6-C ) :   0.9942
B(  3-C ,  4-C ) :   1.5600 B(  3-C ,  5-H ) :   0.9909 B(  4-C , 20-C ) :   1.0580
B(  6-C ,  7-H ) :   0.9474 B(  6-C ,  8-H ) :   0.9446 B(  6-C ,  9-C ) :   1.0734
B(  9-C , 10-H ) :   0.9570 B(  9-C , 11-H ) :   0.9558 B(  9-C , 12-C ) :   1.0659
B( 12-C , 13-H ) :   0.9786 B( 12-C , 14-H ) :   0.9748 B( 12-C , 15-H ) :   0.9727
B( 16-S , 17-C ) :   1.1286 B( 16-S , 20-C ) :   1.1356 B( 17-C , 18-C ) :   1.6536
B( 17-C , 33-H ) :   0.9651 B( 18-C , 19-C ) :   1.2117 B( 18-C , 21-H ) :   0.9784
B( 19-C , 20-C ) :   1.5880 B( 19-C , 22-C ) :   1.0274 B( 22-C , 23-H ) :   0.9410
B( 22-C , 24-H ) :   0.9380 B( 22-C , 25-C ) :   1.0595 B( 25-C , 26-H ) :   0.9508
B( 25-C , 27-H ) :   0.9574 B( 25-C , 28-C ) :   1.0737 B( 28-C , 29-H ) :   0.9745
B( 28-C , 30-H ) :   0.9717 B( 28-C , 31-H ) :   0.9726

Dispersion correction           -0.014615628
FINAL SINGLE POINT ENERGY     -1339.873178017073

DIPOLE MOMENT
-------------
                                X             Y             Z
Electronic contribution:      0.07410      -1.92253      -0.58973
Nuclear contribution   :      0.01760       2.03830       0.78079
                        -----------------------------------------
Total Dipole Moment    :      0.09170       0.11576       0.19106
                        -----------------------------------------
Magnitude (a.u.)       :      0.24148
Magnitude (Debye)      :      0.61380

Rotational constants in cm-1:     0.025719     0.007801     0.006385
Rotational constants in MHz :   771.025694   233.880698   191.422379

                             ****ORCA TERMINATED NORMALLY****
TOTAL RUN TIME: 0 days 0 hours 0 minutes 21 seconds 264 msec
