                         Program Version 4.2.1 -  RELEASE  -
|  1> ! wB97X-D3 SP def2-SVP
|  2> %pal
|  3> nprocs 24
|  4> end
|  5>
|  6> * xyz 0 1
|  7> S 	 -44.2906 	 10.044 	 30.6046
|  8> C 	 -44.5223 	 10.4781 	 28.9441
|  9> C 	 -45.4091 	 9.73415 	 28.2407
| 10> C 	 -45.9421 	 8.72252 	 29.0479
| 11> C 	 -45.502 	 8.78128 	 30.372
| 12> H 	 -46.7267 	 7.95155 	 28.9072
| 13> C 	 -45.8117 	 9.99075 	 26.7787
| 14> H 	 -44.9302 	 10.331 	 26.2389
| 15> H 	 -46.475 	 10.8933 	 26.7976
| 16> C 	 -46.3914 	 8.7797 	 25.9704
| 17> H 	 -47.2288 	 8.26364 	 26.3797
| 18> H 	 -46.6695 	 9.15011 	 25.0072
| 19> C 	 -45.2002 	 7.85759 	 25.5316
| 20> H 	 -44.5746 	 7.53709 	 26.3249
| 21> H 	 -45.5687 	 6.90724 	 25.0695
| 22> H 	 -44.5701 	 8.34253 	 24.7535
| 23> S 	 -44.6559 	 6.2998 	 31.191
| 24> C 	 -45.3759 	 5.60255 	 32.6347
| 25> C 	 -46.5985 	 6.21345 	 32.9338
| 26> C 	 -46.8085 	 7.3922 	 32.1237
| 27> C 	 -45.6657 	 7.68947 	 31.3382
| 28> H 	 -47.3383 	 5.76362 	 33.6104
| 29> C 	 -48.0715 	 8.23256 	 32.2346
| 30> H 	 -48.0765 	 9.10179 	 31.5977
| 31> H 	 -48.0709 	 8.76264 	 33.1436
| 32> C 	 -49.5178 	 7.61651 	 32.0727
| 33> H 	 -50.3138 	 8.31281 	 32.3875
| 34> H 	 -49.6931 	 6.86762 	 32.7648
| 35> C 	 -49.9503 	 6.98534 	 30.7949
| 36> H 	 -50.1221 	 7.71934 	 29.95
| 37> H 	 -50.847 	 6.34928 	 30.7565
| 38> H 	 -49.1535 	 6.29733 	 30.4772
| 39> H 	 -43.9451 	 11.2703 	 28.4058
| 40> H 	 -45.1228 	 4.64059 	 33.0288
| 41> *
| 42>
| 43>                          ****END OF INPUT****

CARTESIAN COORDINATES (ANGSTROEM)
---------------------------------
  S    -44.290600   10.044000   30.604600
  C    -44.522300   10.478100   28.944100
  C    -45.409100    9.734150   28.240700
  C    -45.942100    8.722520   29.047900
  C    -45.502000    8.781280   30.372000
  H    -46.726700    7.951550   28.907200
  C    -45.811700    9.990750   26.778700
  H    -44.930200   10.331000   26.238900
  H    -46.475000   10.893300   26.797600
  C    -46.391400    8.779700   25.970400
  H    -47.228800    8.263640   26.379700
  H    -46.669500    9.150110   25.007200
  C    -45.200200    7.857590   25.531600
  H    -44.574600    7.537090   26.324900
  H    -45.568700    6.907240   25.069500
  H    -44.570100    8.342530   24.753500
  S    -44.655900    6.299800   31.191000
  C    -45.375900    5.602550   32.634700
  C    -46.598500    6.213450   32.933800
  C    -46.808500    7.392200   32.123700
  C    -45.665700    7.689470   31.338200
  H    -47.338300    5.763620   33.610400
  C    -48.071500    8.232560   32.234600
  H    -48.076500    9.101790   31.597700
  H    -48.070900    8.762640   33.143600
  C    -49.517800    7.616510   32.072700
  H    -50.313800    8.312810   32.387500
  H    -49.693100    6.867620   32.764800
  C    -49.950300    6.985340   30.794900
  H    -50.122100    7.719340   29.950000
  H    -50.847000    6.349280   30.756500
  H    -49.153500    6.297330   30.477200
  H    -43.945100   11.270300   28.405800
  H    -45.122800    4.640590   33.028800

 Total Charge           Charge          ....    0
 Multiplicity           Mult            ....    1
 Number of Electrons    NEL             ....  134
 Basis Dimension        Dim             ....  322

ORBITAL ENERGIES
----------------

  NO   OCC          E(Eh)            E(eV)
   0   2.0000     -88.967945     -2420.9409
   1   2.0000     -88.965758     -2420.8814
   2   2.0000     -10.323859      -280.9265
   3   2.0000     -10.323599      -280.9194
   4   2.0000     -10.317141      -280.7437
   5   2.0000     -10.310637      -280.5667
   6   2.0000     -10.308955      -280.5209
   7   2.0000     -10.300240      -280.2838
   8   2.0000     -10.298695      -280.2417
   9   2.0000     -10.296776      -280.1895
  10   2.0000     -10.294379      -280.1243
  11   2.0000     -10.289924      -280.0031
  12   2.0000     -10.289223      -279.9840
  13   2.0000     -10.283576      -279.8303
  14   2.0000     -10.279768      -279.7267
  15   2.0000     -10.278104      -279.6814
  16   2.0000      -8.082646      -219.9400
  17   2.0000      -8.080735      -219.8880
  18   2.0000      -6.040957      -164.3828
  19   2.0000      -6.039167      -164.3341
  20   2.0000      -6.037239      -164.2816
  21   2.0000      -6.035484      -164.2339
  22   2.0000      -6.033537      -164.1809
  23   2.0000      -6.031267      -164.1191
  24   2.0000      -1.006135       -27.3783
  25   2.0000      -0.984056       -26.7775
  26   2.0000      -0.905758       -24.6469
  27   2.0000      -0.904553       -24.6141
  28   2.0000      -0.866337       -23.5742
  29   2.0000      -0.850425       -23.1412
  30   2.0000      -0.848083       -23.0775
  31   2.0000      -0.811246       -22.0751
  32   2.0000      -0.783638       -21.3239
  33   2.0000      -0.769521       -20.9397
  34   2.0000      -0.710567       -19.3355
  35   2.0000      -0.700450       -19.0602
  36   2.0000      -0.689569       -18.7641
  37   2.0000      -0.653283       -17.7767
  38   2.0000      -0.639724       -17.4078
  39   2.0000      -0.616259       -16.7693
  40   2.0000      -0.599328       -16.3086
  41   2.0000      -0.565594       -15.3906
  42   2.0000      -0.550182       -14.9712
  43   2.0000      -0.547251       -14.8915
  44   2.0000      -0.538851       -14.6629
  45   2.0000      -0.538312       -14.6482
  46   2.0000      -0.514006       -13.9868
  47   2.0000      -0.507767       -13.8171
  48   2.0000      -0.490214       -13.3394
  49   2.0000      -0.488170       -13.2838
  50   2.0000      -0.483116       -13.1462
  51   2.0000      -0.476404       -12.9636
  52   2.0000      -0.469077       -12.7642
  53   2.0000      -0.463794       -12.6205
  54   2.0000      -0.456589       -12.4244
  55   2.0000      -0.451810       -12.2944
  56   2.0000      -0.446279       -12.1439
  57   2.0000      -0.440697       -11.9920
  58   2.0000      -0.439430       -11.9575
  59   2.0000      -0.428273       -11.6539
  60   2.0000      -0.420341       -11.4381
  61   2.0000      -0.417474       -11.3600
  62   2.0000      -0.407407       -11.0861
  63   2.0000      -0.339929        -9.2499
  64   2.0000      -0.326237        -8.8773
  65   2.0000      -0.312853        -8.5132
  66   2.0000      -0.308285        -8.3889
  67   0.0000       0.037631         1.0240
  68   0.0000       0.049538         1.3480
  69   0.0000       0.099789         2.7154
  70   0.0000       0.121826         3.3150
  71   0.0000       0.133576         3.6348

MULLIKEN ATOMIC CHARGES
-----------------------
   0 S :    0.128707
   1 C :   -0.135585
   2 C :   -0.056536
   3 C :    0.011544
   4 C :   -0.202721
   5 H :    0.028382
   6 C :    0.049393
   7 H :    0.017255
   8 H :    0.051592
   9 C :   -0.033927
  10 H :    0.038129
  11 H :    0.023505
  12 C :   -0.090236
  13 H :    0.035462
  14 H :    0.035077
  15 H :    0.037254
  16 S :    0.126587
  17 C :   -0.083662
  18 C :   -0.039187
  19 C :   -0.029164
  20 C :   -0.167885
  21 H :    0.033510
  22 C :    0.097189
  23 H :    0.015678
  24 H :    0.021116
  25 C :   -0.048293
  26 H :    0.023050
  27 H :   -0.000345
  28 C :   -0.082768
  29 H :    0.029906
  30 H :    0.035300
  31 H :    0.030896
  32 H :    0.050448
  33 H :    0.050332
Sum of atomic charges:    0.0000000

LOEWDIN ATOMIC CHARGES
----------------------
   0 S :    0.413825
   1 C :   -0.203933
   2 C :   -0.075522
   3 C :   -0.059445
   4 C :   -0.203697
   5 H :    0.040188
   6 C :   -0.028783
   7 H :    0.029909
   8 H :    0.038365
   9 C :   -0.034631
  10 H :    0.020368
  11 H :    0.027378
  12 C :   -0.067186
  13 H :    0.016991
  14 H :    0.029084
  15 H :    0.028057
  16 S :    0.422371
  17 C :   -0.182812
  18 C :   -0.069257
  19 C :   -0.050659
  20 C :   -0.217811
  21 H :    0.035794
  22 C :   -0.032160
  23 H :    0.031211
  24 H :    0.033335
  25 C :   -0.043840
  26 H :    0.031056
  27 H :    0.012694
  28 C :   -0.077652
  29 H :    0.024764
  30 H :    0.029164
  31 H :    0.025937
  32 H :    0.034027
  33 H :    0.022869

  Mayer bond orders larger than 0.100000
B(  0-S ,  1-C ) :   1.1541 B(  0-S ,  4-C ) :   1.1498 B(  1-C ,  2-C ) :   1.6329
B(  1-C , 32-H ) :   0.9570 B(  2-C ,  3-C ) :   1.2307 B(  2-C ,  6-C ) :   0.9957
B(  3-C ,  4-C ) :   1.5866 B(  3-C ,  5-H ) :   0.9926 B(  4-C , 20-C ) :   1.0169
B(  6-C ,  7-H ) :   0.9403 B(  6-C ,  8-H ) :   0.9407 B(  6-C ,  9-C ) :   1.0765
B(  9-C , 10-H ) :   0.9602 B(  9-C , 11-H ) :   0.9535 B(  9-C , 12-C ) :   1.0617
B( 12-C , 13-H ) :   0.9822 B( 12-C , 14-H ) :   0.9756 B( 12-C , 15-H ) :   0.9774
B( 16-S , 17-C ) :   1.1610 B( 16-S , 20-C ) :   1.1619 B( 17-C , 18-C ) :   1.5921
B( 17-C , 20-C ) :   0.1004 B( 17-C , 33-H ) :   0.9700 B( 18-C , 19-C ) :   1.2527
B( 18-C , 21-H ) :   0.9873 B( 19-C , 20-C ) :   1.5619 B( 19-C , 22-C ) :   1.0443
B( 22-C , 23-H ) :   0.9312 B( 22-C , 24-H ) :   0.9299 B( 22-C , 25-C ) :   1.0651
B( 25-C , 26-H ) :   0.9502 B( 25-C , 27-H ) :   0.9515 B( 25-C , 28-C ) :   1.0790
B( 28-C , 29-H ) :   0.9742 B( 28-C , 30-H ) :   0.9728 B( 28-C , 31-H ) :   0.9724

Dispersion correction           -0.014604813
FINAL SINGLE POINT ENERGY     -1339.853420382008

DIPOLE MOMENT
-------------
                                X             Y             Z
Electronic contribution:     19.32331       1.92517      15.30712
Nuclear contribution   :    -19.85565      -2.02463     -15.66164
                        -----------------------------------------
Total Dipole Moment    :     -0.53234      -0.09946      -0.35452
                        -----------------------------------------
Magnitude (a.u.)       :      0.64727
Magnitude (Debye)      :      1.64524

Rotational constants in cm-1:     0.017099     0.008873     0.007770
Rotational constants in MHz :   512.610499   265.999052   232.949968

                             ****ORCA TERMINATED NORMALLY****
TOTAL RUN TIME: 0 days 0 hours 0 minutes 21 seconds 662 msec
