                         Program Version 4.2.1 -  RELEASE  -
|  1> ! wB97X-D3 SP def2-SVP
|  2> %pal
|  3> nprocs 24
|  4> end
|  5>
|  6> * xyz 0 1
|  7> S 	 -68.1289 	 7.20787 	 17.3681
|  8> C 	 -66.91 	 8.1131 	 18.2656
|  9> C 	 -67.1861 	 8.15613 	 19.6292
| 10> C 	 -68.502 	 7.65663 	 19.9429
| 11> C 	 -69.1141 	 7.02505 	 18.8746
| 12> H 	 -68.9631 	 7.64286 	 20.8993
| 13> C 	 -66.26 	 8.59112 	 20.7626
| 14> H 	 -66.4711 	 8.09411 	 21.7227
| 15> H 	 -66.3257 	 9.69309 	 20.8459
| 16> C 	 -64.8708 	 8.14207 	 20.4565
| 17> H 	 -65.0208 	 7.07046 	 20.1354
| 18> H 	 -64.5143 	 8.63865 	 19.5843
| 19> C 	 -63.8717 	 8.33906 	 21.6313
| 20> H 	 -63.8125 	 9.40254 	 21.8816
| 21> H 	 -64.1873 	 7.70352 	 22.5052
| 22> H 	 -62.9133 	 8.04288 	 21.1468
| 23> S 	 -71.7827 	 7.05861 	 18.1413
| 24> C 	 -72.7211 	 5.66305 	 18.4545
| 25> C 	 -71.9534 	 4.61021 	 18.9205
| 26> C 	 -70.5725 	 4.92337 	 19.1215
| 27> C 	 -70.3582 	 6.26088 	 18.8655
| 28> H 	 -72.5385 	 3.77173 	 19.2251
| 29> C 	 -69.6253 	 3.90897 	 19.6965
| 30> H 	 -70.159 	 2.97574 	 19.7609
| 31> H 	 -69.5288 	 4.12062 	 20.797
| 32> C 	 -68.2537 	 3.89445 	 19.0356
| 33> H 	 -67.8101 	 4.91792 	 19.1277
| 34> H 	 -68.577 	 3.6948 	 17.9878
| 35> C 	 -67.3771 	 2.85537 	 19.6391
| 36> H 	 -67.1397 	 2.94696 	 20.6912
| 37> H 	 -66.5937 	 2.76187 	 18.9104
| 38> H 	 -67.9422 	 1.87886 	 19.6419
| 39> H 	 -65.8906 	 8.32807 	 17.8389
| 40> H 	 -73.7428 	 5.61565 	 18.178
| 41> *
| 42>
| 43>                          ****END OF INPUT****

CARTESIAN COORDINATES (ANGSTROEM)
---------------------------------
  S    -68.128900    7.207870   17.368100
  C    -66.910000    8.113100   18.265600
  C    -67.186100    8.156130   19.629200
  C    -68.502000    7.656630   19.942900
  C    -69.114100    7.025050   18.874600
  H    -68.963100    7.642860   20.899300
  C    -66.260000    8.591120   20.762600
  H    -66.471100    8.094110   21.722700
  H    -66.325700    9.693090   20.845900
  C    -64.870800    8.142070   20.456500
  H    -65.020800    7.070460   20.135400
  H    -64.514300    8.638650   19.584300
  C    -63.871700    8.339060   21.631300
  H    -63.812500    9.402540   21.881600
  H    -64.187300    7.703520   22.505200
  H    -62.913300    8.042880   21.146800
  S    -71.782700    7.058610   18.141300
  C    -72.721100    5.663050   18.454500
  C    -71.953400    4.610210   18.920500
  C    -70.572500    4.923370   19.121500
  C    -70.358200    6.260880   18.865500
  H    -72.538500    3.771730   19.225100
  C    -69.625300    3.908970   19.696500
  H    -70.159000    2.975740   19.760900
  H    -69.528800    4.120620   20.797000
  C    -68.253700    3.894450   19.035600
  H    -67.810100    4.917920   19.127700
  H    -68.577000    3.694800   17.987800
  C    -67.377100    2.855370   19.639100
  H    -67.139700    2.946960   20.691200
  H    -66.593700    2.761870   18.910400
  H    -67.942200    1.878860   19.641900
  H    -65.890600    8.328070   17.838900
  H    -73.742800    5.615650   18.178000

 Total Charge           Charge          ....    0
 Multiplicity           Mult            ....    1
 Number of Electrons    NEL             ....  134
 Basis Dimension        Dim             ....  322

ORBITAL ENERGIES
----------------

  NO   OCC          E(Eh)            E(eV)
   0   2.0000     -88.964995     -2420.8606
   1   2.0000     -88.962421     -2420.7905
   2   2.0000     -10.331032      -281.1217
   3   2.0000     -10.323211      -280.9088
   4   2.0000     -10.319697      -280.8132
   5   2.0000     -10.310831      -280.5720
   6   2.0000     -10.303896      -280.3833
   7   2.0000     -10.303727      -280.3787
   8   2.0000     -10.294116      -280.1171
   9   2.0000     -10.291657      -280.0502
  10   2.0000     -10.288805      -279.9726
  11   2.0000     -10.288285      -279.9585
  12   2.0000     -10.288253      -279.9576
  13   2.0000     -10.283180      -279.8196
  14   2.0000     -10.282022      -279.7880
  15   2.0000     -10.274638      -279.5871
  16   2.0000      -8.078327      -219.8224
  17   2.0000      -8.077627      -219.8034
  18   2.0000      -6.036973      -164.2744
  19   2.0000      -6.035936      -164.2462
  20   2.0000      -6.033064      -164.1680
  21   2.0000      -6.032133      -164.1427
  22   2.0000      -6.028971      -164.0567
  23   2.0000      -6.028507      -164.0440
  24   2.0000      -1.001943       -27.2643
  25   2.0000      -0.978972       -26.6392
  26   2.0000      -0.916434       -24.9374
  27   2.0000      -0.914308       -24.8796
  28   2.0000      -0.863990       -23.5104
  29   2.0000      -0.855193       -23.2710
  30   2.0000      -0.844854       -22.9896
  31   2.0000      -0.810083       -22.0435
  32   2.0000      -0.782943       -21.3050
  33   2.0000      -0.767768       -20.8920
  34   2.0000      -0.707826       -19.2609
  35   2.0000      -0.697911       -18.9911
  36   2.0000      -0.681907       -18.5556
  37   2.0000      -0.659107       -17.9352
  38   2.0000      -0.639192       -17.3933
  39   2.0000      -0.611951       -16.6520
  40   2.0000      -0.595457       -16.2032
  41   2.0000      -0.581100       -15.8125
  42   2.0000      -0.567087       -15.4312
  43   2.0000      -0.559710       -15.2305
  44   2.0000      -0.535547       -14.5730
  45   2.0000      -0.518001       -14.0955
  46   2.0000      -0.516953       -14.0670
  47   2.0000      -0.513529       -13.9738
  48   2.0000      -0.507491       -13.8095
  49   2.0000      -0.493769       -13.4361
  50   2.0000      -0.492396       -13.3988
  51   2.0000      -0.479562       -13.0496
  52   2.0000      -0.477349       -12.9893
  53   2.0000      -0.466351       -12.6900
  54   2.0000      -0.453975       -12.3533
  55   2.0000      -0.445876       -12.1329
  56   2.0000      -0.437700       -11.9104
  57   2.0000      -0.431059       -11.7297
  58   2.0000      -0.427020       -11.6198
  59   2.0000      -0.422957       -11.5093
  60   2.0000      -0.418722       -11.3940
  61   2.0000      -0.412928       -11.2363
  62   2.0000      -0.409810       -11.1515
  63   2.0000      -0.335853        -9.1390
  64   2.0000      -0.327997        -8.9252
  65   2.0000      -0.317555        -8.6411
  66   2.0000      -0.307403        -8.3649
  67   0.0000       0.042399         1.1537
  68   0.0000       0.048645         1.3237
  69   0.0000       0.111755         3.0410
  70   0.0000       0.119340         3.2474
  71   0.0000       0.126877         3.4525

MULLIKEN ATOMIC CHARGES
-----------------------
   0 S :    0.106435
   1 C :   -0.140174
   2 C :   -0.109304
   3 C :    0.067986
   4 C :   -0.196556
   5 H :    0.004683
   6 C :    0.091935
   7 H :    0.023567
   8 H :    0.045499
   9 C :   -0.163862
  10 H :    0.042266
  11 H :    0.020262
  12 C :   -0.031063
  13 H :    0.036708
  14 H :    0.049089
  15 H :    0.043186
  16 S :    0.112291
  17 C :   -0.087738
  18 C :   -0.040105
  19 C :    0.001708
  20 C :   -0.194598
  21 H :    0.011960
  22 C :    0.077680
  23 H :    0.002966
  24 H :    0.030163
  25 C :   -0.129703
  26 H :    0.072524
  27 H :    0.039807
  28 C :    0.009665
  29 H :    0.032848
  30 H :    0.036445
  31 H :    0.013244
  32 H :    0.073057
  33 H :    0.047127
Sum of atomic charges:   -0.0000000

LOEWDIN ATOMIC CHARGES
----------------------
   0 S :    0.377086
   1 C :   -0.206369
   2 C :   -0.062574
   3 C :   -0.051688
   4 C :   -0.178439
   5 H :    0.029680
   6 C :   -0.035012
   7 H :    0.030760
   8 H :    0.035549
   9 C :   -0.051980
  10 H :    0.030122
  11 H :    0.012686
  12 C :   -0.066276
  13 H :    0.026449
  14 H :    0.031872
  15 H :    0.034199
  16 S :    0.409394
  17 C :   -0.185179
  18 C :   -0.077312
  19 C :   -0.045853
  20 C :   -0.200611
  21 H :    0.028089
  22 C :   -0.037905
  23 H :    0.024615
  24 H :    0.036070
  25 C :   -0.048742
  26 H :    0.033233
  27 H :    0.031876
  28 C :   -0.066256
  29 H :    0.026266
  30 H :    0.028988
  31 H :    0.028232
  32 H :    0.037445
  33 H :    0.021585

  Mayer bond orders larger than 0.100000
B(  0-S ,  1-C ) :   1.1260 B(  0-S ,  4-C ) :   1.1315 B(  1-C ,  2-C ) :   1.6359
B(  1-C , 32-H ) :   0.9551 B(  2-C ,  3-C ) :   1.2117 B(  2-C ,  6-C ) :   1.0105
B(  3-C ,  4-C ) :   1.6193 B(  3-C ,  5-H ) :   0.9975 B(  4-C , 20-C ) :   1.0192
B(  6-C ,  7-H ) :   0.9529 B(  6-C ,  8-H ) :   0.9246 B(  6-C ,  9-C ) :   1.0669
B(  9-C , 10-H ) :   0.9619 B(  9-C , 11-H ) :   0.9468 B(  9-C , 12-C ) :   1.0796
B( 12-C , 13-H ) :   0.9720 B( 12-C , 14-H ) :   0.9736 B( 12-C , 15-H ) :   0.9742
B( 16-S , 17-C ) :   1.1719 B( 16-S , 20-C ) :   1.1413 B( 17-C , 18-C ) :   1.6169
B( 17-C , 33-H ) :   0.9685 B( 18-C , 19-C ) :   1.2174 B( 18-C , 21-H ) :   0.9926
B( 19-C , 20-C ) :   1.6019 B( 19-C , 22-C ) :   1.0421 B( 22-C , 23-H ) :   0.9293
B( 22-C , 24-H ) :   0.9216 B( 22-C , 25-C ) :   1.0445 B( 25-C , 26-H ) :   0.9431
B( 25-C , 27-H ) :   0.9594 B( 25-C , 28-C ) :   1.0917 B( 28-C , 29-H ) :   0.9698
B( 28-C , 30-H ) :   0.9698 B( 28-C , 31-H ) :   0.9662

Dispersion correction           -0.014772678
FINAL SINGLE POINT ENERGY     -1339.869742379116

DIPOLE MOMENT
-------------
                                X             Y             Z
Electronic contribution:    -23.10069       8.58611     -15.47240
Nuclear contribution   :     23.37365      -8.89931      15.98297
                        -----------------------------------------
Total Dipole Moment    :      0.27296      -0.31320       0.51057
                        -----------------------------------------
Magnitude (a.u.)       :      0.65824
Magnitude (Debye)      :      1.67311

Rotational constants in cm-1:     0.021324     0.008321     0.006949
Rotational constants in MHz :   639.276085   249.465196   208.338119

                             ****ORCA TERMINATED NORMALLY****
TOTAL RUN TIME: 0 days 0 hours 0 minutes 20 seconds 970 msec
