                         Program Version 4.2.1 -  RELEASE  -
|  1> ! wB97X-D3 SP def2-SVP
|  2> %pal
|  3> nprocs 24
|  4> end
|  5>
|  6> * xyz 0 1
|  7> S 	 -91.3903 	 -11.1593 	 -117.685
|  8> C 	 -90.1762 	 -11.3881 	 -118.919
|  9> C 	 -88.9864 	 -10.8183 	 -118.483
| 10> C 	 -89.2026 	 -9.7637 	 -117.574
| 11> C 	 -90.5865 	 -9.69419 	 -117.187
| 12> H 	 -88.4629 	 -9.07662 	 -117.227
| 13> C 	 -87.6323 	 -11.0813 	 -119.115
| 14> H 	 -87.8407 	 -11.8883 	 -119.873
| 15> H 	 -86.9368 	 -11.3969 	 -118.332
| 16> C 	 -86.8093 	 -9.86963 	 -119.775
| 17> H 	 -86.5781 	 -9.21598 	 -118.937
| 18> H 	 -85.8823 	 -10.2911 	 -120.117
| 19> C 	 -87.6255 	 -9.28491 	 -120.934
| 20> H 	 -87.146 	 -8.8185 	 -121.76
| 21> H 	 -88.16 	 -10.1061 	 -121.44
| 22> H 	 -88.428 	 -8.61819 	 -120.498
| 23> S 	 -90.485 	 -8.44129 	 -114.744
| 24> C 	 -91.7715 	 -7.40687 	 -114.284
| 25> C 	 -92.6138 	 -7.17009 	 -115.359
| 26> C 	 -92.3904 	 -7.9742 	 -116.448
| 27> C 	 -91.2387 	 -8.71375 	 -116.322
| 28> H 	 -93.3885 	 -6.47167 	 -115.309
| 29> C 	 -93.2423 	 -7.90845 	 -117.712
| 30> H 	 -94.0431 	 -8.62422 	 -117.562
| 31> H 	 -92.6317 	 -8.31655 	 -118.502
| 32> C 	 -93.622 	 -6.48335 	 -118.189
| 33> H 	 -92.5899 	 -6.01675 	 -118.269
| 34> H 	 -94.2139 	 -5.92067 	 -117.368
| 35> C 	 -94.3826 	 -6.53015 	 -119.516
| 36> H 	 -94.5814 	 -5.46572 	 -119.867
| 37> H 	 -95.3499 	 -7.0437 	 -119.466
| 38> H 	 -93.8099 	 -7.0573 	 -120.357
| 39> H 	 -90.1977 	 -12.1274 	 -119.711
| 40> H 	 -91.6716 	 -6.9352 	 -113.313
| 41> *
| 42>
| 43>                          ****END OF INPUT****

CARTESIAN COORDINATES (ANGSTROEM)
---------------------------------
  S    -91.390300  -11.159300  -117.685000
  C    -90.176200  -11.388100  -118.919000
  C    -88.986400  -10.818300  -118.483000
  C    -89.202600   -9.763700  -117.574000
  C    -90.586500   -9.694190  -117.187000
  H    -88.462900   -9.076620  -117.227000
  C    -87.632300  -11.081300  -119.115000
  H    -87.840700  -11.888300  -119.873000
  H    -86.936800  -11.396900  -118.332000
  C    -86.809300   -9.869630  -119.775000
  H    -86.578100   -9.215980  -118.937000
  H    -85.882300  -10.291100  -120.117000
  C    -87.625500   -9.284910  -120.934000
  H    -87.146000   -8.818500  -121.760000
  H    -88.160000  -10.106100  -121.440000
  H    -88.428000   -8.618190  -120.498000
  S    -90.485000   -8.441290  -114.744000
  C    -91.771500   -7.406870  -114.284000
  C    -92.613800   -7.170090  -115.359000
  C    -92.390400   -7.974200  -116.448000
  C    -91.238700   -8.713750  -116.322000
  H    -93.388500   -6.471670  -115.309000
  C    -93.242300   -7.908450  -117.712000
  H    -94.043100   -8.624220  -117.562000
  H    -92.631700   -8.316550  -118.502000
  C    -93.622000   -6.483350  -118.189000
  H    -92.589900   -6.016750  -118.269000
  H    -94.213900   -5.920670  -117.368000
  C    -94.382600   -6.530150  -119.516000
  H    -94.581400   -5.465720  -119.867000
  H    -95.349900   -7.043700  -119.466000
  H    -93.809900   -7.057300  -120.357000
  H    -90.197700  -12.127400  -119.711000
  H    -91.671600   -6.935200  -113.313000

 Total Charge           Charge          ....    0
 Multiplicity           Mult            ....    1
 Number of Electrons    NEL             ....  134
 Basis Dimension        Dim             ....  322

ORBITAL ENERGIES
----------------

  NO   OCC          E(Eh)            E(eV)
   0   2.0000     -88.965047     -2420.8620
   1   2.0000     -88.962931     -2420.8044
   2   2.0000     -10.331519      -281.1349
   3   2.0000     -10.321829      -280.8712
   4   2.0000     -10.316856      -280.7359
   5   2.0000     -10.310077      -280.5515
   6   2.0000     -10.301730      -280.3243
   7   2.0000     -10.298815      -280.2450
   8   2.0000     -10.297358      -280.2054
   9   2.0000     -10.296661      -280.1864
  10   2.0000     -10.294289      -280.1218
  11   2.0000     -10.291094      -280.0349
  12   2.0000     -10.290598      -280.0214
  13   2.0000     -10.286937      -279.9218
  14   2.0000     -10.285745      -279.8894
  15   2.0000     -10.277197      -279.6567
  16   2.0000      -8.079760      -219.8614
  17   2.0000      -8.078393      -219.8243
  18   2.0000      -6.038106      -164.3052
  19   2.0000      -6.036601      -164.2643
  20   2.0000      -6.034712      -164.2129
  21   2.0000      -6.032760      -164.1597
  22   2.0000      -6.030250      -164.0914
  23   2.0000      -6.029476      -164.0704
  24   2.0000      -1.009284       -27.4640
  25   2.0000      -0.988313       -26.8934
  26   2.0000      -0.907591       -24.6968
  27   2.0000      -0.904234       -24.6054
  28   2.0000      -0.864910       -23.5354
  29   2.0000      -0.853288       -23.2191
  30   2.0000      -0.843239       -22.9457
  31   2.0000      -0.806953       -21.9583
  32   2.0000      -0.780384       -21.2353
  33   2.0000      -0.769148       -20.9296
  34   2.0000      -0.708209       -19.2714
  35   2.0000      -0.698703       -19.0127
  36   2.0000      -0.690823       -18.7982
  37   2.0000      -0.662258       -18.0210
  38   2.0000      -0.633712       -17.2442
  39   2.0000      -0.613229       -16.6868
  40   2.0000      -0.602934       -16.4067
  41   2.0000      -0.565991       -15.4014
  42   2.0000      -0.560832       -15.2610
  43   2.0000      -0.548643       -14.9293
  44   2.0000      -0.541386       -14.7319
  45   2.0000      -0.524244       -14.2654
  46   2.0000      -0.513321       -13.9682
  47   2.0000      -0.510323       -13.8866
  48   2.0000      -0.505332       -13.7508
  49   2.0000      -0.491681       -13.3793
  50   2.0000      -0.486157       -13.2290
  51   2.0000      -0.473951       -12.8968
  52   2.0000      -0.471979       -12.8432
  53   2.0000      -0.463692       -12.6177
  54   2.0000      -0.457023       -12.4362
  55   2.0000      -0.451022       -12.2729
  56   2.0000      -0.449573       -12.2335
  57   2.0000      -0.436307       -11.8725
  58   2.0000      -0.427272       -11.6267
  59   2.0000      -0.425610       -11.5814
  60   2.0000      -0.420495       -11.4423
  61   2.0000      -0.416231       -11.3262
  62   2.0000      -0.411219       -11.1898
  63   2.0000      -0.336808        -9.1650
  64   2.0000      -0.333982        -9.0881
  65   2.0000      -0.322662        -8.7801
  66   2.0000      -0.288109        -7.8398
  67   0.0000       0.019541         0.5317
  68   0.0000       0.066778         1.8171
  69   0.0000       0.095605         2.6016
  70   0.0000       0.124111         3.3772
  71   0.0000       0.135979         3.7002

MULLIKEN ATOMIC CHARGES
-----------------------
   0 S :    0.122930
   1 C :   -0.126448
   2 C :   -0.071697
   3 C :    0.024431
   4 C :   -0.155606
   5 H :    0.006061
   6 C :    0.009080
   7 H :    0.027683
   8 H :    0.040569
   9 C :   -0.057704
  10 H :    0.033309
  11 H :    0.028468
  12 C :   -0.049512
  13 H :    0.031132
  14 H :    0.017020
  15 H :    0.050447
  16 S :    0.108198
  17 C :   -0.096515
  18 C :   -0.012894
  19 C :   -0.021394
  20 C :   -0.185991
  21 H :   -0.011577
  22 C :    0.094806
  23 H :    0.035105
  24 H :    0.021297
  25 C :   -0.133410
  26 H :    0.052713
  27 H :    0.049789
  28 C :   -0.067012
  29 H :    0.046126
  30 H :    0.039445
  31 H :    0.044625
  32 H :    0.042852
  33 H :    0.063675
Sum of atomic charges:   -0.0000000

LOEWDIN ATOMIC CHARGES
----------------------
   0 S :    0.411180
   1 C :   -0.202955
   2 C :   -0.065028
   3 C :   -0.064055
   4 C :   -0.189694
   5 H :    0.025050
   6 C :   -0.032357
   7 H :    0.030073
   8 H :    0.034821
   9 C :   -0.035406
  10 H :    0.021390
  11 H :    0.022071
  12 C :   -0.073814
  13 H :    0.019248
  14 H :    0.026233
  15 H :    0.037543
  16 S :    0.418630
  17 C :   -0.185163
  18 C :   -0.068697
  19 C :   -0.054436
  20 C :   -0.205466
  21 H :    0.020121
  22 C :   -0.031707
  23 H :    0.030502
  24 H :    0.028625
  25 C :   -0.050547
  26 H :    0.037170
  27 H :    0.029079
  28 C :   -0.077521
  29 H :    0.033529
  30 H :    0.026991
  31 H :    0.034432
  32 H :    0.023032
  33 H :    0.027125

  Mayer bond orders larger than 0.100000
B(  0-S ,  1-C ) :   1.1385 B(  0-S ,  4-C ) :   1.1636 B(  1-C ,  2-C ) :   1.5731
B(  1-C ,  4-C ) :   0.1070 B(  1-C , 32-H ) :   0.9691 B(  2-C ,  3-C ) :   1.2454
B(  2-C ,  6-C ) :   1.0398 B(  3-C ,  4-C ) :   1.5199 B(  3-C ,  5-H ) :   1.0039
B(  4-C , 20-C ) :   1.0549 B(  6-C ,  7-H ) :   0.9455 B(  6-C ,  8-H ) :   0.9353
B(  6-C ,  9-C ) :   1.0695 B(  9-C , 10-H ) :   0.9568 B(  9-C , 11-H ) :   0.9558
B(  9-C , 12-C ) :   1.0632 B( 12-C , 13-H ) :   0.9782 B( 12-C , 14-H ) :   0.9749
B( 12-C , 15-H ) :   0.9727 B( 16-S , 17-C ) :   1.1951 B( 16-S , 20-C ) :   1.1493
B( 17-C , 18-C ) :   1.5312 B( 17-C , 20-C ) :   0.1089 B( 17-C , 33-H ) :   0.9714
B( 18-C , 19-C ) :   1.2866 B( 18-C , 21-H ) :   1.0046 B( 19-C , 20-C ) :   1.5604
B( 19-C , 22-C ) :   1.0280 B( 22-C , 23-H ) :   0.9226 B( 22-C , 24-H ) :   0.9364
B( 22-C , 25-C ) :   1.0536 B( 25-C , 26-H ) :   0.9568 B( 25-C , 27-H ) :   0.9489
B( 25-C , 28-C ) :   1.0825 B( 28-C , 29-H ) :   0.9735 B( 28-C , 30-H ) :   0.9730
B( 28-C , 31-H ) :   0.9715

Dispersion correction           -0.014328465
FINAL SINGLE POINT ENERGY     -1339.859406926807

DIPOLE MOMENT
-------------
                                X             Y             Z
Electronic contribution:     -1.91784      -9.18998      21.40757
Nuclear contribution   :      2.02388       9.44445     -21.66550
                        -----------------------------------------
Total Dipole Moment    :      0.10604       0.25447      -0.25793
                        -----------------------------------------
Magnitude (a.u.)       :      0.37753
Magnitude (Debye)      :      0.95960

Rotational constants in cm-1:     0.017537     0.008451     0.007135
Rotational constants in MHz :   525.749684   253.345794   213.912053

                             ****ORCA TERMINATED NORMALLY****
TOTAL RUN TIME: 0 days 0 hours 0 minutes 21 seconds 353 msec
