                         Program Version 4.2.1 -  RELEASE  -
|  1> ! wB97X-D3 SP def2-SVP
|  2> %pal
|  3> nprocs 24
|  4> end
|  5>
|  6> * xyz 0 1
|  7> S 	 -92.8747 	 -7.58357 	 -116.613
|  8> C 	 -93.7028 	 -6.34345 	 -117.474
|  9> C 	 -94.9823 	 -6.73428 	 -117.873
| 10> C 	 -95.2223 	 -8.08059 	 -117.455
| 11> C 	 -94.15 	 -8.72669 	 -116.847
| 12> H 	 -96.1245 	 -8.58777 	 -117.653
| 13> C 	 -95.9673 	 -6.00162 	 -118.697
| 14> H 	 -96.6781 	 -6.72361 	 -119.114
| 15> H 	 -95.473 	 -5.60625 	 -119.598
| 16> C 	 -96.8397 	 -4.94367 	 -117.958
| 17> H 	 -97.4999 	 -5.5032 	 -117.291
| 18> H 	 -96.1229 	 -4.41623 	 -117.328
| 19> C 	 -97.6389 	 -4.0094 	 -118.973
| 20> H 	 -97.0281 	 -3.59821 	 -119.747
| 21> H 	 -98.444 	 -4.59786 	 -119.38
| 22> H 	 -98.2703 	 -3.22633 	 -118.478
| 23> S 	 -94.0399 	 -10.1761 	 -114.651
| 24> C 	 -94.0956 	 -11.8678 	 -114.615
| 25> C 	 -94.1132 	 -12.368 	 -115.899
| 26> C 	 -94.3171 	 -11.3258 	 -116.891
| 27> C 	 -94.176 	 -10.0475 	 -116.378
| 28> H 	 -94.1101 	 -13.3998 	 -116.025
| 29> C 	 -94.5518 	 -11.6858 	 -118.352
| 30> H 	 -95.6176 	 -11.6477 	 -118.548
| 31> H 	 -94.0773 	 -12.6437 	 -118.511
| 32> C 	 -93.8639 	 -10.8449 	 -119.386
| 33> H 	 -94.3048 	 -9.90367 	 -119.519
| 34> H 	 -93.9853 	 -11.3187 	 -120.342
| 35> C 	 -92.3316 	 -10.6259 	 -119.143
| 36> H 	 -91.8332 	 -10.2737 	 -119.992
| 37> H 	 -91.8192 	 -11.5458 	 -118.899
| 38> H 	 -92.0865 	 -9.94759 	 -118.333
| 39> H 	 -93.2116 	 -5.47972 	 -117.857
| 40> H 	 -93.9458 	 -12.3651 	 -113.658
| 41> *
| 42>
| 43>                          ****END OF INPUT****

CARTESIAN COORDINATES (ANGSTROEM)
---------------------------------
  S    -92.874700   -7.583570  -116.613000
  C    -93.702800   -6.343450  -117.474000
  C    -94.982300   -6.734280  -117.873000
  C    -95.222300   -8.080590  -117.455000
  C    -94.150000   -8.726690  -116.847000
  H    -96.124500   -8.587770  -117.653000
  C    -95.967300   -6.001620  -118.697000
  H    -96.678100   -6.723610  -119.114000
  H    -95.473000   -5.606250  -119.598000
  C    -96.839700   -4.943670  -117.958000
  H    -97.499900   -5.503200  -117.291000
  H    -96.122900   -4.416230  -117.328000
  C    -97.638900   -4.009400  -118.973000
  H    -97.028100   -3.598210  -119.747000
  H    -98.444000   -4.597860  -119.380000
  H    -98.270300   -3.226330  -118.478000
  S    -94.039900  -10.176100  -114.651000
  C    -94.095600  -11.867800  -114.615000
  C    -94.113200  -12.368000  -115.899000
  C    -94.317100  -11.325800  -116.891000
  C    -94.176000  -10.047500  -116.378000
  H    -94.110100  -13.399800  -116.025000
  C    -94.551800  -11.685800  -118.352000
  H    -95.617600  -11.647700  -118.548000
  H    -94.077300  -12.643700  -118.511000
  C    -93.863900  -10.844900  -119.386000
  H    -94.304800   -9.903670  -119.519000
  H    -93.985300  -11.318700  -120.342000
  C    -92.331600  -10.625900  -119.143000
  H    -91.833200  -10.273700  -119.992000
  H    -91.819200  -11.545800  -118.899000
  H    -92.086500   -9.947590  -118.333000
  H    -93.211600   -5.479720  -117.857000
  H    -93.945800  -12.365100  -113.658000

 Total Charge           Charge          ....    0
 Multiplicity           Mult            ....    1
 Number of Electrons    NEL             ....  134
 Basis Dimension        Dim             ....  322

ORBITAL ENERGIES
----------------

  NO   OCC          E(Eh)            E(eV)
   0   2.0000     -88.970623     -2421.0137
   1   2.0000     -88.955594     -2420.6048
   2   2.0000     -10.324900      -280.9548
   3   2.0000     -10.319218      -280.8002
   4   2.0000     -10.312458      -280.6162
   5   2.0000     -10.312285      -280.6115
   6   2.0000     -10.305386      -280.4238
   7   2.0000     -10.300692      -280.2961
   8   2.0000     -10.293515      -280.1008
   9   2.0000     -10.291882      -280.0564
  10   2.0000     -10.289963      -280.0041
  11   2.0000     -10.289378      -279.9882
  12   2.0000     -10.285847      -279.8921
  13   2.0000     -10.284950      -279.8677
  14   2.0000     -10.272685      -279.5340
  15   2.0000     -10.262109      -279.2462
  16   2.0000      -8.085554      -220.0191
  17   2.0000      -8.072386      -219.6608
  18   2.0000      -6.044006      -164.4658
  19   2.0000      -6.039833      -164.3522
  20   2.0000      -6.036551      -164.2629
  21   2.0000      -6.030746      -164.1049
  22   2.0000      -6.026420      -163.9872
  23   2.0000      -6.023360      -163.9040
  24   2.0000      -1.015209       -27.6252
  25   2.0000      -0.989798       -26.9338
  26   2.0000      -0.911858       -24.8129
  27   2.0000      -0.910318       -24.7710
  28   2.0000      -0.875449       -23.8222
  29   2.0000      -0.849985       -23.1293
  30   2.0000      -0.841299       -22.8929
  31   2.0000      -0.812093       -22.0982
  32   2.0000      -0.785174       -21.3657
  33   2.0000      -0.775752       -21.1093
  34   2.0000      -0.712909       -19.3992
  35   2.0000      -0.707373       -19.2486
  36   2.0000      -0.691637       -18.8204
  37   2.0000      -0.668455       -18.1896
  38   2.0000      -0.647016       -17.6062
  39   2.0000      -0.619377       -16.8541
  40   2.0000      -0.588882       -16.0243
  41   2.0000      -0.573512       -15.6061
  42   2.0000      -0.567748       -15.4492
  43   2.0000      -0.559845       -15.2341
  44   2.0000      -0.544830       -14.8256
  45   2.0000      -0.523606       -14.2480
  46   2.0000      -0.517278       -14.0759
  47   2.0000      -0.509449       -13.8628
  48   2.0000      -0.505675       -13.7601
  49   2.0000      -0.500499       -13.6193
  50   2.0000      -0.486335       -13.2338
  51   2.0000      -0.479544       -13.0490
  52   2.0000      -0.476088       -12.9550
  53   2.0000      -0.467507       -12.7215
  54   2.0000      -0.457966       -12.4619
  55   2.0000      -0.451750       -12.2927
  56   2.0000      -0.436803       -11.8860
  57   2.0000      -0.435141       -11.8408
  58   2.0000      -0.434660       -11.8277
  59   2.0000      -0.427763       -11.6400
  60   2.0000      -0.423932       -11.5358
  61   2.0000      -0.415760       -11.3134
  62   2.0000      -0.406604       -11.0643
  63   2.0000      -0.342956        -9.3323
  64   2.0000      -0.330352        -8.9893
  65   2.0000      -0.324323        -8.8253
  66   2.0000      -0.295794        -8.0490
  67   0.0000       0.035845         0.9754
  68   0.0000       0.061910         1.6847
  69   0.0000       0.117095         3.1863
  70   0.0000       0.126345         3.4380
  71   0.0000       0.132643         3.6094

MULLIKEN ATOMIC CHARGES
-----------------------
   0 S :    0.139546
   1 C :   -0.113362
   2 C :   -0.082856
   3 C :    0.055273
   4 C :   -0.166162
   5 H :   -0.009019
   6 C :    0.038043
   7 H :    0.014468
   8 H :    0.030781
   9 C :   -0.062129
  10 H :    0.030322
  11 H :    0.029671
  12 C :   -0.044957
  13 H :    0.039689
  14 H :    0.023814
  15 H :    0.040193
  16 S :    0.093910
  17 C :   -0.092814
  18 C :   -0.019287
  19 C :   -0.047166
  20 C :   -0.167172
  21 H :   -0.002278
  22 C :    0.099983
  23 H :    0.042044
  24 H :    0.016992
  25 C :   -0.054602
  26 H :    0.013825
  27 H :    0.016776
  28 C :   -0.024913
  29 H :    0.015579
  30 H :    0.010322
  31 H :    0.025468
  32 H :    0.043013
  33 H :    0.067006
Sum of atomic charges:    0.0000000

LOEWDIN ATOMIC CHARGES
----------------------
   0 S :    0.441969
   1 C :   -0.202947
   2 C :   -0.063278
   3 C :   -0.048522
   4 C :   -0.214401
   5 H :    0.021233
   6 C :   -0.040135
   7 H :    0.028922
   8 H :    0.032255
   9 C :   -0.031693
  10 H :    0.025581
  11 H :    0.019908
  12 C :   -0.068046
  13 H :    0.022409
  14 H :    0.024641
  15 H :    0.034167
  16 S :    0.432165
  17 C :   -0.197710
  18 C :   -0.069819
  19 C :   -0.050724
  20 C :   -0.208029
  21 H :    0.020643
  22 C :   -0.027913
  23 H :    0.036242
  24 H :    0.031662
  25 C :   -0.037332
  26 H :    0.013598
  27 H :    0.023540
  28 C :   -0.060373
  29 H :    0.017719
  30 H :    0.020517
  31 H :    0.019129
  32 H :    0.023452
  33 H :    0.031171

  Mayer bond orders larger than 0.100000
B(  0-S ,  1-C ) :   1.1612 B(  0-S ,  4-C ) :   1.1602 B(  1-C ,  2-C ) :   1.5648
B(  1-C ,  4-C ) :   0.1016 B(  1-C , 32-H ) :   0.9707 B(  2-C ,  3-C ) :   1.2783
B(  2-C ,  6-C ) :   1.0324 B(  3-C ,  4-C ) :   1.5368 B(  3-C ,  5-H ) :   0.9982
B(  4-C , 20-C ) :   1.0573 B(  6-C ,  7-H ) :   0.9398 B(  6-C ,  8-H ) :   0.9411
B(  6-C ,  9-C ) :   1.0417 B(  9-C , 10-H ) :   0.9577 B(  9-C , 11-H ) :   0.9668
B(  9-C , 12-C ) :   1.0650 B( 12-C , 13-H ) :   0.9797 B( 12-C , 14-H ) :   0.9745
B( 12-C , 15-H ) :   0.9754 B( 16-S , 17-C ) :   1.1850 B( 16-S , 20-C ) :   1.1546
B( 17-C , 18-C ) :   1.5769 B( 17-C , 20-C ) :   0.1009 B( 17-C , 33-H ) :   0.9677
B( 18-C , 19-C ) :   1.2408 B( 18-C , 21-H ) :   1.0048 B( 19-C , 20-C ) :   1.5820
B( 19-C , 22-C ) :   1.0358 B( 22-C , 23-H ) :   0.9290 B( 22-C , 24-H ) :   0.9369
B( 22-C , 25-C ) :   1.0958 B( 25-C , 26-H ) :   0.9435 B( 25-C , 27-H ) :   0.9523
B( 25-C , 28-C ) :   1.0793 B( 28-C , 29-H ) :   0.9743 B( 28-C , 30-H ) :   0.9743
B( 28-C , 31-H ) :   0.9693

Dispersion correction           -0.015371171
FINAL SINGLE POINT ENERGY     -1339.876526527633

DIPOLE MOMENT
-------------
                                X             Y             Z
Electronic contribution:     10.20492      -7.33829      20.17232
Nuclear contribution   :    -10.55449       7.30429     -20.69225
                        -----------------------------------------
Total Dipole Moment    :     -0.34957      -0.03400      -0.51993
                        -----------------------------------------
Magnitude (a.u.)       :      0.62744
Magnitude (Debye)      :      1.59483

Rotational constants in cm-1:     0.022566     0.007877     0.007247
Rotational constants in MHz :   676.502223   236.150704   217.251212

                             ****ORCA TERMINATED NORMALLY****
TOTAL RUN TIME: 0 days 0 hours 0 minutes 21 seconds 166 msec
