                         Program Version 4.2.1 -  RELEASE  -
|  1> ! wB97X-D3 SP def2-SVP
|  2> %pal
|  3> nprocs 24
|  4> end
|  5>
|  6> * xyz 0 1
|  7> S 	 -34.4133 	 -35.7873 	 -92.713
|  8> C 	 -33.0769 	 -35.4871 	 -91.5843
|  9> C 	 -33.4726 	 -35.623 	 -90.285
| 10> C 	 -34.8461 	 -35.8866 	 -90.1809
| 11> C 	 -35.5239 	 -35.8524 	 -91.3609
| 12> H 	 -35.4231 	 -36.0297 	 -89.2549
| 13> C 	 -32.5742 	 -35.6248 	 -89.0019
| 14> H 	 -32.7296 	 -34.7219 	 -88.4248
| 15> H 	 -31.5537 	 -35.4476 	 -89.437
| 16> C 	 -32.3927 	 -36.9721 	 -88.3188
| 17> H 	 -32.0794 	 -37.7496 	 -89.1158
| 18> H 	 -31.5618 	 -36.8566 	 -87.6298
| 19> C 	 -33.5385 	 -37.6524 	 -87.5376
| 20> H 	 -34.4947 	 -37.7876 	 -88.1091
| 21> H 	 -33.3399 	 -38.7208 	 -87.284
| 22> H 	 -33.7406 	 -37.0779 	 -86.6982
| 23> S 	 -37.9189 	 -37.0428 	 -90.7157
| 24> C 	 -39.4747 	 -36.6115 	 -91.5645
| 25> C 	 -39.1072 	 -35.6294 	 -92.5026
| 26> C 	 -37.8263 	 -35.0869 	 -92.381
| 27> C 	 -36.9605 	 -35.833 	 -91.5464
| 28> H 	 -39.8137 	 -35.3785 	 -93.2771
| 29> C 	 -37.2944 	 -34.0219 	 -93.2753
| 30> H 	 -36.3688 	 -33.5691 	 -92.851
| 31> H 	 -38.0265 	 -33.2158 	 -93.4273
| 32> C 	 -36.8987 	 -34.4416 	 -94.7201
| 33> H 	 -37.5869 	 -35.0848 	 -95.1656
| 34> H 	 -35.9504 	 -34.9856 	 -94.693
| 35> C 	 -36.7 	 -33.2223 	 -95.6571
| 36> H 	 -36.0365 	 -32.6099 	 -95.2791
| 37> H 	 -37.573 	 -32.6203 	 -95.8736
| 38> H 	 -36.257 	 -33.4824 	 -96.5768
| 39> H 	 -32.1001 	 -35.281 	 -91.917
| 40> H 	 -40.285 	 -37.2043 	 -91.6492
| 41> *
| 42>
| 43>                          ****END OF INPUT****

CARTESIAN COORDINATES (ANGSTROEM)
---------------------------------
  S    -34.413300  -35.787300  -92.713000
  C    -33.076900  -35.487100  -91.584300
  C    -33.472600  -35.623000  -90.285000
  C    -34.846100  -35.886600  -90.180900
  C    -35.523900  -35.852400  -91.360900
  H    -35.423100  -36.029700  -89.254900
  C    -32.574200  -35.624800  -89.001900
  H    -32.729600  -34.721900  -88.424800
  H    -31.553700  -35.447600  -89.437000
  C    -32.392700  -36.972100  -88.318800
  H    -32.079400  -37.749600  -89.115800
  H    -31.561800  -36.856600  -87.629800
  C    -33.538500  -37.652400  -87.537600
  H    -34.494700  -37.787600  -88.109100
  H    -33.339900  -38.720800  -87.284000
  H    -33.740600  -37.077900  -86.698200
  S    -37.918900  -37.042800  -90.715700
  C    -39.474700  -36.611500  -91.564500
  C    -39.107200  -35.629400  -92.502600
  C    -37.826300  -35.086900  -92.381000
  C    -36.960500  -35.833000  -91.546400
  H    -39.813700  -35.378500  -93.277100
  C    -37.294400  -34.021900  -93.275300
  H    -36.368800  -33.569100  -92.851000
  H    -38.026500  -33.215800  -93.427300
  C    -36.898700  -34.441600  -94.720100
  H    -37.586900  -35.084800  -95.165600
  H    -35.950400  -34.985600  -94.693000
  C    -36.700000  -33.222300  -95.657100
  H    -36.036500  -32.609900  -95.279100
  H    -37.573000  -32.620300  -95.873600
  H    -36.257000  -33.482400  -96.576800
  H    -32.100100  -35.281000  -91.917000
  H    -40.285000  -37.204300  -91.649200

 Total Charge           Charge          ....    0
 Multiplicity           Mult            ....    1
 Number of Electrons    NEL             ....  134
 Basis Dimension        Dim             ....  322

ORBITAL ENERGIES
----------------

  NO   OCC          E(Eh)            E(eV)
   0   2.0000     -88.970449     -2421.0090
   1   2.0000     -88.964471     -2420.8463
   2   2.0000     -10.331550      -281.1358
   3   2.0000     -10.329772      -281.0874
   4   2.0000     -10.317136      -280.7435
   5   2.0000     -10.315178      -280.6903
   6   2.0000     -10.302858      -280.3550
   7   2.0000     -10.301522      -280.3187
   8   2.0000     -10.301338      -280.3137
   9   2.0000     -10.297001      -280.1957
  10   2.0000     -10.296584      -280.1843
  11   2.0000     -10.291586      -280.0483
  12   2.0000     -10.288222      -279.9567
  13   2.0000     -10.277230      -279.6576
  14   2.0000     -10.277204      -279.6569
  15   2.0000     -10.257996      -279.1343
  16   2.0000      -8.084383      -219.9872
  17   2.0000      -8.077827      -219.8088
  18   2.0000      -6.042952      -164.4371
  19   2.0000      -6.039092      -164.3320
  20   2.0000      -6.036433      -164.2597
  21   2.0000      -6.035022      -164.2213
  22   2.0000      -6.032335      -164.1482
  23   2.0000      -6.028745      -164.0505
  24   2.0000      -1.009060       -27.4579
  25   2.0000      -0.982263       -26.7287
  26   2.0000      -0.908388       -24.7185
  27   2.0000      -0.903829       -24.5944
  28   2.0000      -0.872356       -23.7380
  29   2.0000      -0.851030       -23.1577
  30   2.0000      -0.845192       -22.9989
  31   2.0000      -0.817984       -22.2585
  32   2.0000      -0.788533       -21.4571
  33   2.0000      -0.773598       -21.0507
  34   2.0000      -0.710998       -19.3472
  35   2.0000      -0.702926       -19.1276
  36   2.0000      -0.696999       -18.9663
  37   2.0000      -0.670693       -18.2505
  38   2.0000      -0.640962       -17.4415
  39   2.0000      -0.617849       -16.8125
  40   2.0000      -0.597381       -16.2556
  41   2.0000      -0.574655       -15.6372
  42   2.0000      -0.564212       -15.3530
  43   2.0000      -0.550157       -14.9705
  44   2.0000      -0.532490       -14.4898
  45   2.0000      -0.528980       -14.3943
  46   2.0000      -0.521781       -14.1984
  47   2.0000      -0.516387       -14.0516
  48   2.0000      -0.503540       -13.7020
  49   2.0000      -0.501747       -13.6532
  50   2.0000      -0.493353       -13.4248
  51   2.0000      -0.485468       -13.2103
  52   2.0000      -0.472298       -12.8519
  53   2.0000      -0.467366       -12.7177
  54   2.0000      -0.464921       -12.6511
  55   2.0000      -0.444316       -12.0904
  56   2.0000      -0.438695       -11.9375
  57   2.0000      -0.435264       -11.8441
  58   2.0000      -0.430864       -11.7244
  59   2.0000      -0.421804       -11.4779
  60   2.0000      -0.414331       -11.2745
  61   2.0000      -0.412986       -11.2379
  62   2.0000      -0.409500       -11.1431
  63   2.0000      -0.349095        -9.4994
  64   2.0000      -0.338021        -9.1980
  65   2.0000      -0.326372        -8.8810
  66   2.0000      -0.290185        -7.8963
  67   0.0000       0.018663         0.5079
  68   0.0000       0.065502         1.7824
  69   0.0000       0.106594         2.9006
  70   0.0000       0.117519         3.1979
  71   0.0000       0.125748         3.4218

MULLIKEN ATOMIC CHARGES
-----------------------
   0 S :    0.103498
   1 C :   -0.111341
   2 C :   -0.077811
   3 C :    0.013158
   4 C :   -0.139622
   5 H :    0.025478
   6 C :    0.074489
   7 H :    0.044191
   8 H :    0.016307
   9 C :   -0.087092
  10 H :    0.043291
  11 H :    0.035833
  12 C :   -0.051899
  13 H :    0.035187
  14 H :    0.038945
  15 H :    0.021757
  16 S :    0.078808
  17 C :   -0.051287
  18 C :   -0.056602
  19 C :   -0.001363
  20 C :   -0.135049
  21 H :    0.026674
  22 C :    0.012409
  23 H :    0.037558
  24 H :    0.023592
  25 C :   -0.050642
  26 H :    0.009305
  27 H :    0.025046
  28 C :    0.018594
  29 H :   -0.016246
  30 H :    0.024982
  31 H :    0.012275
  32 H :    0.028511
  33 H :    0.029065
Sum of atomic charges:   -0.0000000

LOEWDIN ATOMIC CHARGES
----------------------
   0 S :    0.417543
   1 C :   -0.177354
   2 C :   -0.062741
   3 C :   -0.064059
   4 C :   -0.190887
   5 H :    0.034708
   6 C :   -0.032360
   7 H :    0.031061
   8 H :    0.038054
   9 C :   -0.044680
  10 H :    0.037935
  11 H :    0.026593
  12 C :   -0.072993
  13 H :    0.029148
  14 H :    0.034280
  15 H :    0.012769
  16 S :    0.383399
  17 C :   -0.158929
  18 C :   -0.055357
  19 C :   -0.068521
  20 C :   -0.186406
  21 H :    0.031764
  22 C :   -0.041063
  23 H :    0.032498
  24 H :    0.030601
  25 C :   -0.031426
  26 H :    0.010581
  27 H :    0.009767
  28 C :   -0.051710
  29 H :    0.003504
  30 H :    0.024809
  31 H :    0.024183
  32 H :    0.017373
  33 H :    0.007917

  Mayer bond orders larger than 0.100000
B(  0-S ,  1-C ) :   1.1273 B(  0-S ,  4-C ) :   1.1376 B(  1-C ,  2-C ) :   1.6316
B(  1-C , 32-H ) :   0.9735 B(  2-C ,  3-C ) :   1.2417 B(  2-C ,  6-C ) :   1.0045
B(  3-C ,  4-C ) :   1.5835 B(  3-C ,  5-H ) :   0.9869 B(  4-C , 20-C ) :   1.0434
B(  6-C ,  7-H ) :   0.9438 B(  6-C ,  8-H ) :   0.9351 B(  6-C ,  9-C ) :   1.0647
B(  9-C , 10-H ) :   0.9531 B(  9-C , 11-H ) :   0.9563 B(  9-C , 12-C ) :   1.0809
B( 12-C , 13-H ) :   0.9687 B( 12-C , 14-H ) :   0.9713 B( 12-C , 15-H ) :   0.9771
B( 16-S , 17-C ) :   1.1382 B( 16-S , 20-C ) :   1.1566 B( 17-C , 18-C ) :   1.5881
B( 17-C , 20-C ) :   0.1174 B( 17-C , 33-H ) :   0.9788 B( 18-C , 19-C ) :   1.2680
B( 18-C , 21-H ) :   0.9843 B( 19-C , 20-C ) :   1.5264 B( 19-C , 22-C ) :   1.0745
B( 22-C , 23-H ) :   0.9295 B( 22-C , 24-H ) :   0.9351 B( 22-C , 25-C ) :   1.0565
B( 25-C , 26-H ) :   0.9590 B( 25-C , 27-H ) :   0.9444 B( 25-C , 28-C ) :   1.0850
B( 28-C , 29-H ) :   0.9679 B( 28-C , 30-H ) :   0.9742 B( 28-C , 31-H ) :   0.9677

Dispersion correction           -0.014591903
FINAL SINGLE POINT ENERGY     -1339.847385915570

DIPOLE MOMENT
-------------
                                X             Y             Z
Electronic contribution:     -8.30343      -5.65139      -0.40446
Nuclear contribution   :      8.62836       5.78304       0.35448
                        -----------------------------------------
Total Dipole Moment    :      0.32492       0.13164      -0.04999
                        -----------------------------------------
Magnitude (a.u.)       :      0.35412
Magnitude (Debye)      :      0.90011

Rotational constants in cm-1:     0.020603     0.008943     0.006571
Rotational constants in MHz :   617.649479   268.115182   197.004245

                             ****ORCA TERMINATED NORMALLY****
TOTAL RUN TIME: 0 days 0 hours 0 minutes 20 seconds 435 msec
