                         Program Version 4.2.1 -  RELEASE  -
|  1> ! wB97X-D3 SP def2-SVP
|  2> %pal
|  3> nprocs 24
|  4> end
|  5>
|  6> * xyz 0 1
|  7> S 	 -122.249 	 64.1288 	 -48.0748
|  8> C 	 -121.342 	 62.9351 	 -47.1174
|  9> C 	 -121.891 	 61.6547 	 -47.3283
| 10> C 	 -122.95 	 61.6459 	 -48.2649
| 11> C 	 -123.18 	 62.8917 	 -48.783
| 12> H 	 -123.44 	 60.7723 	 -48.6984
| 13> C 	 -121.286 	 60.4565 	 -46.7496
| 14> H 	 -120.263 	 60.3733 	 -47.0863
| 15> H 	 -121.785 	 59.5686 	 -47.1477
| 16> C 	 -121.287 	 60.308 	 -45.2882
| 17> H 	 -120.777 	 59.3976 	 -45.0021
| 18> H 	 -120.525 	 61.0842 	 -45.0353
| 19> C 	 -122.645 	 60.3813 	 -44.5932
| 20> H 	 -123.326 	 61.3179 	 -44.7973
| 21> H 	 -123.323 	 59.489 	 -44.8553
| 22> H 	 -122.482 	 60.2204 	 -43.516
| 23> S 	 -123.123 	 64.0194 	 -51.2137
| 24> C 	 -124.379 	 63.9537 	 -52.2761
| 25> C 	 -125.424 	 63.2312 	 -51.7218
| 26> C 	 -125.246 	 62.8754 	 -50.3492
| 27> C 	 -123.991 	 63.196 	 -49.9521
| 28> H 	 -126.2 	 63.0114 	 -52.4501
| 29> C 	 -126.192 	 61.9692 	 -49.5907
| 30> H 	 -126.231 	 62.2178 	 -48.5406
| 31> H 	 -125.734 	 60.9712 	 -49.5569
| 32> C 	 -127.662 	 61.8456 	 -49.9934
| 33> H 	 -127.575 	 61.7188 	 -51.0465
| 34> H 	 -128.236 	 62.7525 	 -49.6982
| 35> C 	 -128.37 	 60.6994 	 -49.3608
| 36> H 	 -128.008 	 59.7122 	 -49.7353
| 37> H 	 -129.465 	 60.7194 	 -49.5537
| 38> H 	 -128.355 	 60.7822 	 -48.2803
| 39> H 	 -120.408 	 63.1104 	 -46.5469
| 40> H 	 -124.462 	 64.2296 	 -53.3209
| 41> *
| 42>
| 43>                          ****END OF INPUT****

CARTESIAN COORDINATES (ANGSTROEM)
---------------------------------
  S    -122.249000   64.128800  -48.074800
  C    -121.342000   62.935100  -47.117400
  C    -121.891000   61.654700  -47.328300
  C    -122.950000   61.645900  -48.264900
  C    -123.180000   62.891700  -48.783000
  H    -123.440000   60.772300  -48.698400
  C    -121.286000   60.456500  -46.749600
  H    -120.263000   60.373300  -47.086300
  H    -121.785000   59.568600  -47.147700
  C    -121.287000   60.308000  -45.288200
  H    -120.777000   59.397600  -45.002100
  H    -120.525000   61.084200  -45.035300
  C    -122.645000   60.381300  -44.593200
  H    -123.326000   61.317900  -44.797300
  H    -123.323000   59.489000  -44.855300
  H    -122.482000   60.220400  -43.516000
  S    -123.123000   64.019400  -51.213700
  C    -124.379000   63.953700  -52.276100
  C    -125.424000   63.231200  -51.721800
  C    -125.246000   62.875400  -50.349200
  C    -123.991000   63.196000  -49.952100
  H    -126.200000   63.011400  -52.450100
  C    -126.192000   61.969200  -49.590700
  H    -126.231000   62.217800  -48.540600
  H    -125.734000   60.971200  -49.556900
  C    -127.662000   61.845600  -49.993400
  H    -127.575000   61.718800  -51.046500
  H    -128.236000   62.752500  -49.698200
  C    -128.370000   60.699400  -49.360800
  H    -128.008000   59.712200  -49.735300
  H    -129.465000   60.719400  -49.553700
  H    -128.355000   60.782200  -48.280300
  H    -120.408000   63.110400  -46.546900
  H    -124.462000   64.229600  -53.320900

 Total Charge           Charge          ....    0
 Multiplicity           Mult            ....    1
 Number of Electrons    NEL             ....  134
 Basis Dimension        Dim             ....  322

ORBITAL ENERGIES
----------------

  NO   OCC          E(Eh)            E(eV)
   0   2.0000     -88.968114     -2420.9455
   1   2.0000     -88.962247     -2420.7858
   2   2.0000     -10.323196      -280.9085
   3   2.0000     -10.318497      -280.7806
   4   2.0000     -10.315690      -280.7042
   5   2.0000     -10.306424      -280.4521
   6   2.0000     -10.302058      -280.3333
   7   2.0000     -10.298282      -280.2305
   8   2.0000     -10.291007      -280.0325
   9   2.0000     -10.290878      -280.0290
  10   2.0000     -10.288644      -279.9682
  11   2.0000     -10.288559      -279.9659
  12   2.0000     -10.284372      -279.8520
  13   2.0000     -10.282811      -279.8095
  14   2.0000     -10.281060      -279.7619
  15   2.0000     -10.278731      -279.6985
  16   2.0000      -8.082969      -219.9488
  17   2.0000      -8.079200      -219.8462
  18   2.0000      -6.041333      -164.3930
  19   2.0000      -6.037439      -164.2871
  20   2.0000      -6.037394      -164.2858
  21   2.0000      -6.033923      -164.1914
  22   2.0000      -6.033206      -164.1719
  23   2.0000      -6.030257      -164.0916
  24   2.0000      -1.019730       -27.7483
  25   2.0000      -0.992335       -27.0028
  26   2.0000      -0.924973       -25.1698
  27   2.0000      -0.916959       -24.9517
  28   2.0000      -0.870443       -23.6860
  29   2.0000      -0.858722       -23.3670
  30   2.0000      -0.845813       -23.0157
  31   2.0000      -0.813020       -22.1234
  32   2.0000      -0.785768       -21.3818
  33   2.0000      -0.775413       -21.1001
  34   2.0000      -0.705016       -19.1845
  35   2.0000      -0.702038       -19.1034
  36   2.0000      -0.696444       -18.9512
  37   2.0000      -0.651063       -17.7163
  38   2.0000      -0.635103       -17.2820
  39   2.0000      -0.617092       -16.7919
  40   2.0000      -0.600159       -16.3311
  41   2.0000      -0.578003       -15.7282
  42   2.0000      -0.576437       -15.6856
  43   2.0000      -0.557932       -15.1821
  44   2.0000      -0.545396       -14.8410
  45   2.0000      -0.520679       -14.1684
  46   2.0000      -0.518378       -14.1058
  47   2.0000      -0.510139       -13.8816
  48   2.0000      -0.503144       -13.6913
  49   2.0000      -0.499838       -13.6013
  50   2.0000      -0.490693       -13.3524
  51   2.0000      -0.478719       -13.0266
  52   2.0000      -0.476025       -12.9533
  53   2.0000      -0.468061       -12.7366
  54   2.0000      -0.463360       -12.6087
  55   2.0000      -0.452056       -12.3011
  56   2.0000      -0.444255       -12.0888
  57   2.0000      -0.434902       -11.8343
  58   2.0000      -0.430532       -11.7154
  59   2.0000      -0.427927       -11.6445
  60   2.0000      -0.420885       -11.4529
  61   2.0000      -0.409281       -11.1371
  62   2.0000      -0.399216       -10.8632
  63   2.0000      -0.344048        -9.3620
  64   2.0000      -0.334741        -9.1088
  65   2.0000      -0.326579        -8.8867
  66   2.0000      -0.291976        -7.9451
  67   0.0000       0.032651         0.8885
  68   0.0000       0.073927         2.0117
  69   0.0000       0.118001         3.2110
  70   0.0000       0.123617         3.3638
  71   0.0000       0.129805         3.5322

MULLIKEN ATOMIC CHARGES
-----------------------
   0 S :    0.126631
   1 C :   -0.148568
   2 C :   -0.086149
   3 C :    0.029814
   4 C :   -0.153138
   5 H :    0.017089
   6 C :    0.078577
   7 H :    0.030636
   8 H :    0.001374
   9 C :   -0.055703
  10 H :    0.022540
  11 H :    0.016321
  12 C :   -0.097778
  13 H :    0.069878
  14 H :    0.033400
  15 H :    0.040309
  16 S :    0.130642
  17 C :   -0.077533
  18 C :   -0.107900
  19 C :    0.037837
  20 C :   -0.168503
  21 H :    0.020313
  22 C :    0.024049
  23 H :    0.018262
  24 H :    0.031891
  25 C :   -0.056611
  26 H :    0.021985
  27 H :    0.041743
  28 C :   -0.056027
  29 H :    0.036411
  30 H :    0.033520
  31 H :    0.027333
  32 H :    0.064233
  33 H :    0.053120
Sum of atomic charges:   -0.0000000

LOEWDIN ATOMIC CHARGES
----------------------
   0 S :    0.423683
   1 C :   -0.205644
   2 C :   -0.057813
   3 C :   -0.066404
   4 C :   -0.206071
   5 H :    0.035488
   6 C :   -0.041453
   7 H :    0.035655
   8 H :    0.023872
   9 C :   -0.048019
  10 H :    0.025892
  11 H :    0.024433
  12 C :   -0.083928
  13 H :    0.042559
  14 H :    0.031598
  15 H :    0.028592
  16 S :    0.458354
  17 C :   -0.225080
  18 C :   -0.083596
  19 C :   -0.057656
  20 C :   -0.203385
  21 H :    0.029135
  22 C :   -0.036133
  23 H :    0.029322
  24 H :    0.032741
  25 C :   -0.043133
  26 H :    0.017947
  27 H :    0.032767
  28 C :   -0.067742
  29 H :    0.027720
  30 H :    0.031534
  31 H :    0.023883
  32 H :    0.034859
  33 H :    0.036026

  Mayer bond orders larger than 0.100000
B(  0-S ,  1-C ) :   1.1274 B(  0-S ,  4-C ) :   1.1829 B(  1-C ,  2-C ) :   1.5772
B(  1-C , 32-H ) :   0.9673 B(  2-C ,  3-C ) :   1.2575 B(  2-C ,  6-C ) :   1.0311
B(  3-C ,  4-C ) :   1.5517 B(  3-C ,  5-H ) :   0.9920 B(  4-C , 20-C ) :   1.0155
B(  6-C ,  7-H ) :   0.9325 B(  6-C ,  8-H ) :   0.9330 B(  6-C ,  9-C ) :   1.0902
B(  9-C , 10-H ) :   0.9477 B(  9-C , 11-H ) :   0.9516 B(  9-C , 12-C ) :   1.0715
B( 12-C , 13-H ) :   0.9698 B( 12-C , 14-H ) :   0.9695 B( 12-C , 15-H ) :   0.9729
B( 16-S , 17-C ) :   1.1833 B( 16-S , 20-C ) :   1.1648 B( 17-C , 18-C ) :   1.6038
B( 17-C , 33-H ) :   0.9635 B( 18-C , 19-C ) :   1.2230 B( 18-C , 21-H ) :   0.9883
B( 19-C , 20-C ) :   1.5974 B( 19-C , 22-C ) :   1.0450 B( 22-C , 23-H ) :   0.9232
B( 22-C , 24-H ) :   0.9362 B( 22-C , 25-C ) :   1.0660 B( 25-C , 26-H ) :   0.9488
B( 25-C , 27-H ) :   0.9530 B( 25-C , 28-C ) :   1.1042 B( 28-C , 29-H ) :   0.9709
B( 28-C , 30-H ) :   0.9699 B( 28-C , 31-H ) :   0.9708

Dispersion correction           -0.013712578
FINAL SINGLE POINT ENERGY     -1339.867168431373

DIPOLE MOMENT
-------------
                                X             Y             Z
Electronic contribution:     13.21332      21.10325     -14.00221
Nuclear contribution   :    -13.34482     -21.75887      13.98757
                        -----------------------------------------
Total Dipole Moment    :     -0.13150      -0.65562      -0.01465
                        -----------------------------------------
Magnitude (a.u.)       :      0.66884
Magnitude (Debye)      :      1.70005

Rotational constants in cm-1:     0.017844     0.008822     0.006369
Rotational constants in MHz :   534.938292   264.465643   190.929443

                             ****ORCA TERMINATED NORMALLY****
TOTAL RUN TIME: 0 days 0 hours 0 minutes 20 seconds 190 msec
