                         Program Version 4.2.1 -  RELEASE  -
|  1> ! wB97X-D3 SP def2-SVP
|  2> %pal
|  3> nprocs 24
|  4> end
|  5>
|  6> * xyz 0 1
|  7> S 	 -112.347 	 49.2465 	 -72.8446
|  8> C 	 -112.9 	 48.9388 	 -74.4613
|  9> C 	 -111.871 	 48.3794 	 -75.2442
| 10> C 	 -110.64 	 48.38 	 -74.4836
| 11> C 	 -110.706 	 48.7778 	 -73.1659
| 12> H 	 -109.631 	 48.1747 	 -74.9259
| 13> C 	 -111.886 	 48.0948 	 -76.7435
| 14> H 	 -112.877 	 47.6643 	 -76.9098
| 15> H 	 -111.161 	 47.2438 	 -76.943
| 16> C 	 -111.854 	 49.2635 	 -77.734
| 17> H 	 -112.117 	 49.0384 	 -78.7934
| 18> H 	 -112.546 	 49.9986 	 -77.4529
| 19> C 	 -110.411 	 49.8829 	 -77.6923
| 20> H 	 -109.715 	 49.0932 	 -77.9341
| 21> H 	 -110.153 	 50.6476 	 -78.4297
| 22> H 	 -110.095 	 50.2105 	 -76.6848
| 23> S 	 -110.013 	 47.7559 	 -70.6716
| 24> C 	 -108.498 	 48.1954 	 -69.9078
| 25> C 	 -107.793 	 49.0003 	 -70.8378
| 26> C 	 -108.441 	 49.2507 	 -72.0708
| 27> C 	 -109.723 	 48.7581 	 -72.1043
| 28> H 	 -106.849 	 49.3803 	 -70.6759
| 29> C 	 -107.874 	 50.2401 	 -73.0658
| 30> H 	 -108.243 	 50.1998 	 -74.0788
| 31> H 	 -106.9 	 49.8553 	 -73.2325
| 32> C 	 -107.964 	 51.7693 	 -72.7193
| 33> H 	 -107.478 	 51.9876 	 -71.7575
| 34> H 	 -108.985 	 52.1818 	 -72.5775
| 35> C 	 -107.071 	 52.6388 	 -73.7005
| 36> H 	 -107.304 	 53.7123 	 -73.5283
| 37> H 	 -107.259 	 52.451 	 -74.7816
| 38> H 	 -105.956 	 52.3534 	 -73.5881
| 39> H 	 -113.833 	 49.1757 	 -74.9653
| 40> H 	 -108.18 	 47.8693 	 -68.9632
| 41> *
| 42>
| 43>                          ****END OF INPUT****

CARTESIAN COORDINATES (ANGSTROEM)
---------------------------------
  S    -112.347000   49.246500  -72.844600
  C    -112.900000   48.938800  -74.461300
  C    -111.871000   48.379400  -75.244200
  C    -110.640000   48.380000  -74.483600
  C    -110.706000   48.777800  -73.165900
  H    -109.631000   48.174700  -74.925900
  C    -111.886000   48.094800  -76.743500
  H    -112.877000   47.664300  -76.909800
  H    -111.161000   47.243800  -76.943000
  C    -111.854000   49.263500  -77.734000
  H    -112.117000   49.038400  -78.793400
  H    -112.546000   49.998600  -77.452900
  C    -110.411000   49.882900  -77.692300
  H    -109.715000   49.093200  -77.934100
  H    -110.153000   50.647600  -78.429700
  H    -110.095000   50.210500  -76.684800
  S    -110.013000   47.755900  -70.671600
  C    -108.498000   48.195400  -69.907800
  C    -107.793000   49.000300  -70.837800
  C    -108.441000   49.250700  -72.070800
  C    -109.723000   48.758100  -72.104300
  H    -106.849000   49.380300  -70.675900
  C    -107.874000   50.240100  -73.065800
  H    -108.243000   50.199800  -74.078800
  H    -106.900000   49.855300  -73.232500
  C    -107.964000   51.769300  -72.719300
  H    -107.478000   51.987600  -71.757500
  H    -108.985000   52.181800  -72.577500
  C    -107.071000   52.638800  -73.700500
  H    -107.304000   53.712300  -73.528300
  H    -107.259000   52.451000  -74.781600
  H    -105.956000   52.353400  -73.588100
  H    -113.833000   49.175700  -74.965300
  H    -108.180000   47.869300  -68.963200

 Total Charge           Charge          ....    0
 Multiplicity           Mult            ....    1
 Number of Electrons    NEL             ....  134
 Basis Dimension        Dim             ....  322

ORBITAL ENERGIES
----------------

  NO   OCC          E(Eh)            E(eV)
   0   2.0000     -88.968573     -2420.9580
   1   2.0000     -88.966162     -2420.8924
   2   2.0000     -10.328513      -281.0531
   3   2.0000     -10.328031      -281.0400
   4   2.0000     -10.322262      -280.8830
   5   2.0000     -10.319144      -280.7982
   6   2.0000     -10.306887      -280.4646
   7   2.0000     -10.300771      -280.2982
   8   2.0000     -10.300416      -280.2886
   9   2.0000     -10.298257      -280.2298
  10   2.0000     -10.295966      -280.1675
  11   2.0000     -10.292752      -280.0800
  12   2.0000     -10.292688      -280.0783
  13   2.0000     -10.292561      -280.0748
  14   2.0000     -10.291297      -280.0404
  15   2.0000     -10.276825      -279.6466
  16   2.0000      -8.083389      -219.9602
  17   2.0000      -8.080419      -219.8794
  18   2.0000      -6.041983      -164.4107
  19   2.0000      -6.038980      -164.3290
  20   2.0000      -6.037636      -164.2924
  21   2.0000      -6.034774      -164.2145
  22   2.0000      -6.034290      -164.2014
  23   2.0000      -6.031354      -164.1215
  24   2.0000      -1.007866       -27.4254
  25   2.0000      -0.984417       -26.7873
  26   2.0000      -0.911098       -24.7922
  27   2.0000      -0.901886       -24.5416
  28   2.0000      -0.868957       -23.6455
  29   2.0000      -0.847957       -23.0741
  30   2.0000      -0.840699       -22.8766
  31   2.0000      -0.812083       -22.0979
  32   2.0000      -0.781013       -21.2525
  33   2.0000      -0.772100       -21.0099
  34   2.0000      -0.709908       -19.3176
  35   2.0000      -0.705186       -19.1891
  36   2.0000      -0.699572       -19.0363
  37   2.0000      -0.670463       -18.2442
  38   2.0000      -0.638111       -17.3639
  39   2.0000      -0.613956       -16.7066
  40   2.0000      -0.602019       -16.3818
  41   2.0000      -0.573259       -15.5992
  42   2.0000      -0.553276       -15.0554
  43   2.0000      -0.548164       -14.9163
  44   2.0000      -0.543298       -14.7839
  45   2.0000      -0.528140       -14.3714
  46   2.0000      -0.517792       -14.0898
  47   2.0000      -0.506672       -13.7872
  48   2.0000      -0.504670       -13.7328
  49   2.0000      -0.501452       -13.6452
  50   2.0000      -0.487118       -13.2552
  51   2.0000      -0.473620       -12.8879
  52   2.0000      -0.470339       -12.7986
  53   2.0000      -0.461606       -12.5609
  54   2.0000      -0.456360       -12.4182
  55   2.0000      -0.447713       -12.1829
  56   2.0000      -0.445980       -12.1357
  57   2.0000      -0.440737       -11.9931
  58   2.0000      -0.434592       -11.8258
  59   2.0000      -0.421710       -11.4753
  60   2.0000      -0.418343       -11.3837
  61   2.0000      -0.417251       -11.3540
  62   2.0000      -0.407609       -11.0916
  63   2.0000      -0.346098        -9.4178
  64   2.0000      -0.333366        -9.0713
  65   2.0000      -0.327683        -8.9167
  66   2.0000      -0.295352        -8.0369
  67   0.0000       0.029612         0.8058
  68   0.0000       0.061941         1.6855
  69   0.0000       0.115510         3.1432
  70   0.0000       0.120702         3.2845
  71   0.0000       0.123983         3.3737

MULLIKEN ATOMIC CHARGES
-----------------------
   0 S :    0.122210
   1 C :   -0.101121
   2 C :   -0.120818
   3 C :    0.028183
   4 C :   -0.178167
   5 H :    0.024189
   6 C :    0.022048
   7 H :    0.024418
   8 H :    0.047543
   9 C :   -0.015704
  10 H :    0.040039
  11 H :    0.015887
  12 C :   -0.078527
  13 H :    0.012193
  14 H :    0.033722
  15 H :    0.042479
  16 S :    0.107598
  17 C :   -0.071288
  18 C :   -0.006562
  19 C :   -0.017981
  20 C :   -0.140427
  21 H :   -0.015460
  22 C :    0.076984
  23 H :    0.008668
  24 H :    0.010849
  25 C :   -0.064359
  26 H :    0.025687
  27 H :    0.048564
  28 C :   -0.107441
  29 H :    0.051036
  30 H :    0.032932
  31 H :    0.047518
  32 H :    0.047924
  33 H :    0.047185
Sum of atomic charges:    0.0000000

LOEWDIN ATOMIC CHARGES
----------------------
   0 S :    0.427651
   1 C :   -0.203127
   2 C :   -0.067055
   3 C :   -0.066516
   4 C :   -0.207834
   5 H :    0.034457
   6 C :   -0.039294
   7 H :    0.032855
   8 H :    0.039994
   9 C :   -0.032098
  10 H :    0.031987
  11 H :    0.016780
  12 C :   -0.074832
  13 H :    0.019357
  14 H :    0.023683
  15 H :    0.026912
  16 S :    0.404417
  17 C :   -0.175060
  18 C :   -0.056009
  19 C :   -0.060640
  20 C :   -0.192946
  21 H :    0.015252
  22 C :   -0.033928
  23 H :    0.028229
  24 H :    0.028200
  25 C :   -0.038027
  26 H :    0.023030
  27 H :    0.031942
  28 C :   -0.079409
  29 H :    0.031498
  30 H :    0.021075
  31 H :    0.034462
  32 H :    0.033210
  33 H :    0.021782

  Mayer bond orders larger than 0.100000
B(  0-S ,  1-C ) :   1.1581 B(  0-S ,  4-C ) :   1.1501 B(  1-C ,  2-C ) :   1.5879
B(  1-C ,  4-C ) :   0.1029 B(  1-C , 32-H ) :   0.9665 B(  2-C ,  3-C ) :   1.2560
B(  2-C ,  6-C ) :   1.0265 B(  3-C ,  4-C ) :   1.5792 B(  3-C ,  5-H ) :   0.9822
B(  4-C , 20-C ) :   1.0255 B(  6-C ,  7-H ) :   0.9303 B(  6-C ,  8-H ) :   0.9482
B(  6-C ,  9-C ) :   1.0683 B(  9-C , 10-H ) :   0.9567 B(  9-C , 11-H ) :   0.9523
B(  9-C , 12-C ) :   1.0658 B( 12-C , 13-H ) :   0.9750 B( 12-C , 14-H ) :   0.9754
B( 12-C , 15-H ) :   0.9770 B( 16-S , 17-C ) :   1.1606 B( 16-S , 20-C ) :   1.1507
B( 17-C , 18-C ) :   1.5476 B( 17-C , 20-C ) :   0.1113 B( 17-C , 33-H ) :   0.9832
B( 18-C , 19-C ) :   1.2746 B( 18-C , 21-H ) :   0.9991 B( 19-C , 20-C ) :   1.5732
B( 19-C , 22-C ) :   1.0551 B( 22-C , 23-H ) :   0.9352 B( 22-C , 24-H ) :   0.9275
B( 22-C , 25-C ) :   1.0468 B( 25-C , 26-H ) :   0.9582 B( 25-C , 27-H ) :   0.9609
B( 25-C , 28-C ) :   1.0593 B( 28-C , 29-H ) :   0.9750 B( 28-C , 30-H ) :   0.9783
B( 28-C , 31-H ) :   0.9766

Dispersion correction           -0.014584218
FINAL SINGLE POINT ENERGY     -1339.866920624362

DIPOLE MOMENT
-------------
                                X             Y             Z
Electronic contribution:    -12.21847     -14.18163      23.32597
Nuclear contribution   :     12.57101      14.42735     -23.84011
                        -----------------------------------------
Total Dipole Moment    :      0.35254       0.24573      -0.51414
                        -----------------------------------------
Magnitude (a.u.)       :      0.67008
Magnitude (Debye)      :      1.70321

Rotational constants in cm-1:     0.017164     0.009440     0.006917
Rotational constants in MHz :   514.562800   283.018153   207.368780

                             ****ORCA TERMINATED NORMALLY****
TOTAL RUN TIME: 0 days 0 hours 0 minutes 20 seconds 640 msec
