                         Program Version 4.2.1 -  RELEASE  -
|  1> ! wB97X-D3 SP def2-SVP
|  2> %pal
|  3> nprocs 24
|  4> end
|  5>
|  6> * xyz 0 1
|  7> S 	 -100.927 	 0.25118 	 -105.673
|  8> C 	 -99.9456 	 1.73734 	 -105.685
|  9> C 	 -100.659 	 2.85478 	 -105.546
| 10> C 	 -102.09 	 2.53368 	 -105.523
| 11> C 	 -102.448 	 1.2376 	 -105.5
| 12> H 	 -102.833 	 3.26373 	 -105.421
| 13> C 	 -100.127 	 4.3194 	 -105.661
| 14> H 	 -100.417 	 4.72861 	 -106.685
| 15> H 	 -99.0885 	 4.33701 	 -105.801
| 16> C 	 -100.346 	 5.28794 	 -104.542
| 17> H 	 -99.9724 	 6.27181 	 -104.816
| 18> H 	 -101.45 	 5.36348 	 -104.448
| 19> C 	 -99.7267 	 4.8046 	 -103.202
| 20> H 	 -100.155 	 3.90275 	 -102.882
| 21> H 	 -98.705 	 5.08284 	 -103.026
| 22> H 	 -100.12 	 5.51451 	 -102.533
| 23> S 	 -103.905 	 -0.534575 	 -106.986
| 24> C 	 -105.628 	 -0.562978 	 -106.922
| 25> C 	 -106.027 	 0.236892 	 -105.873
| 26> C 	 -105.058 	 0.964902 	 -105.214
| 27> C 	 -103.757 	 0.718495 	 -105.733
| 28> H 	 -107.108 	 0.34412 	 -105.726
| 29> C 	 -105.429 	 1.86989 	 -103.984
| 30> H 	 -105.255 	 2.95717 	 -104.224
| 31> H 	 -104.543 	 1.76762 	 -103.454
| 32> C 	 -106.794 	 1.50037 	 -103.24
| 33> H 	 -106.889 	 0.418213 	 -103.154
| 34> H 	 -107.665 	 1.79682 	 -103.842
| 35> C 	 -106.985 	 2.28787 	 -101.957
| 36> H 	 -107.955 	 2.24088 	 -101.53
| 37> H 	 -106.922 	 3.28818 	 -102.266
| 38> H 	 -106.18 	 2.07601 	 -101.146
| 39> H 	 -98.9112 	 1.68899 	 -105.809
| 40> H 	 -106.345 	 -1.06501 	 -107.567
| 41> *
| 42>
| 43>                          ****END OF INPUT****

CARTESIAN COORDINATES (ANGSTROEM)
---------------------------------
  S    -100.927000    0.251180  -105.673000
  C    -99.945600    1.737340  -105.685000
  C    -100.659000    2.854780  -105.546000
  C    -102.090000    2.533680  -105.523000
  C    -102.448000    1.237600  -105.500000
  H    -102.833000    3.263730  -105.421000
  C    -100.127000    4.319400  -105.661000
  H    -100.417000    4.728610  -106.685000
  H    -99.088500    4.337010  -105.801000
  C    -100.346000    5.287940  -104.542000
  H    -99.972400    6.271810  -104.816000
  H    -101.450000    5.363480  -104.448000
  C    -99.726700    4.804600  -103.202000
  H    -100.155000    3.902750  -102.882000
  H    -98.705000    5.082840  -103.026000
  H    -100.120000    5.514510  -102.533000
  S    -103.905000   -0.534575  -106.986000
  C    -105.628000   -0.562978  -106.922000
  C    -106.027000    0.236892  -105.873000
  C    -105.058000    0.964902  -105.214000
  C    -103.757000    0.718495  -105.733000
  H    -107.108000    0.344120  -105.726000
  C    -105.429000    1.869890  -103.984000
  H    -105.255000    2.957170  -104.224000
  H    -104.543000    1.767620  -103.454000
  C    -106.794000    1.500370  -103.240000
  H    -106.889000    0.418213  -103.154000
  H    -107.665000    1.796820  -103.842000
  C    -106.985000    2.287870  -101.957000
  H    -107.955000    2.240880  -101.530000
  H    -106.922000    3.288180  -102.266000
  H    -106.180000    2.076010  -101.146000
  H    -98.911200    1.688990  -105.809000
  H    -106.345000   -1.065010  -107.567000

 Total Charge           Charge          ....    0
 Multiplicity           Mult            ....    1
 Number of Electrons    NEL             ....  134
 Basis Dimension        Dim             ....  322

ORBITAL ENERGIES
----------------

  NO   OCC          E(Eh)            E(eV)
   0   2.0000     -88.964913     -2420.8583
   1   2.0000     -88.961149     -2420.7559
   2   2.0000     -10.331149      -281.1249
   3   2.0000     -10.330580      -281.1094
   4   2.0000     -10.314480      -280.6713
   5   2.0000     -10.311361      -280.5864
   6   2.0000     -10.306846      -280.4636
   7   2.0000     -10.303780      -280.3801
   8   2.0000     -10.299351      -280.2596
   9   2.0000     -10.297723      -280.2153
  10   2.0000     -10.292447      -280.0717
  11   2.0000     -10.291274      -280.0398
  12   2.0000     -10.290118      -280.0084
  13   2.0000     -10.285723      -279.8888
  14   2.0000     -10.279823      -279.7282
  15   2.0000     -10.268744      -279.4267
  16   2.0000      -8.079405      -219.8518
  17   2.0000      -8.074940      -219.7303
  18   2.0000      -6.037856      -164.2984
  19   2.0000      -6.033851      -164.1894
  20   2.0000      -6.033776      -164.1874
  21   2.0000      -6.030387      -164.0952
  22   2.0000      -6.029779      -164.0786
  23   2.0000      -6.025118      -163.9518
  24   2.0000      -1.005278       -27.3550
  25   2.0000      -0.982211       -26.7273
  26   2.0000      -0.913058       -24.8456
  27   2.0000      -0.903403       -24.5828
  28   2.0000      -0.877633       -23.8816
  29   2.0000      -0.854343       -23.2478
  30   2.0000      -0.839357       -22.8401
  31   2.0000      -0.817781       -22.2529
  32   2.0000      -0.789638       -21.4872
  33   2.0000      -0.777119       -21.1465
  34   2.0000      -0.713731       -19.4216
  35   2.0000      -0.709303       -19.3011
  36   2.0000      -0.695192       -18.9171
  37   2.0000      -0.652988       -17.7687
  38   2.0000      -0.644123       -17.5275
  39   2.0000      -0.624747       -17.0002
  40   2.0000      -0.594748       -16.1839
  41   2.0000      -0.574707       -15.6386
  42   2.0000      -0.560201       -15.2438
  43   2.0000      -0.551559       -15.0087
  44   2.0000      -0.542798       -14.7703
  45   2.0000      -0.534135       -14.5346
  46   2.0000      -0.512905       -13.9569
  47   2.0000      -0.510684       -13.8964
  48   2.0000      -0.509266       -13.8578
  49   2.0000      -0.502026       -13.6608
  50   2.0000      -0.487201       -13.2574
  51   2.0000      -0.477969       -13.0062
  52   2.0000      -0.475540       -12.9401
  53   2.0000      -0.468882       -12.7589
  54   2.0000      -0.458708       -12.4821
  55   2.0000      -0.449049       -12.2192
  56   2.0000      -0.445395       -12.1198
  57   2.0000      -0.434204       -11.8153
  58   2.0000      -0.427613       -11.6359
  59   2.0000      -0.424793       -11.5592
  60   2.0000      -0.418741       -11.3945
  61   2.0000      -0.411606       -11.2004
  62   2.0000      -0.409954       -11.1554
  63   2.0000      -0.357957        -9.7405
  64   2.0000      -0.331942        -9.0326
  65   2.0000      -0.328200        -8.9308
  66   2.0000      -0.287525        -7.8240
  67   0.0000       0.024617         0.6699
  68   0.0000       0.071012         1.9323
  69   0.0000       0.109595         2.9822
  70   0.0000       0.123932         3.3724
  71   0.0000       0.134879         3.6702

MULLIKEN ATOMIC CHARGES
-----------------------
   0 S :    0.071289
   1 C :   -0.108511
   2 C :   -0.050382
   3 C :    0.023129
   4 C :   -0.120265
   5 H :   -0.013274
   6 C :    0.075342
   7 H :    0.042865
   8 H :   -0.009475
   9 C :   -0.095150
  10 H :    0.027547
  11 H :    0.025702
  12 C :    0.008533
  13 H :    0.039916
  14 H :    0.029067
  15 H :    0.002073
  16 S :    0.108781
  17 C :   -0.082137
  18 C :   -0.079320
  19 C :   -0.032374
  20 C :   -0.160282
  21 H :    0.020978
  22 C :    0.090092
  23 H :    0.034460
  24 H :    0.003031
  25 C :   -0.080857
  26 H :    0.042513
  27 H :    0.036315
  28 C :   -0.026971
  29 H :    0.026928
  30 H :    0.014702
  31 H :    0.049529
  32 H :    0.028008
  33 H :    0.058197
Sum of atomic charges:    0.0000000

LOEWDIN ATOMIC CHARGES
----------------------
   0 S :    0.342675
   1 C :   -0.156941
   2 C :   -0.063421
   3 C :   -0.048759
   4 C :   -0.173125
   5 H :    0.018186
   6 C :   -0.037990
   7 H :    0.040362
   8 H :    0.018753
   9 C :   -0.038859
  10 H :    0.026622
  11 H :    0.021981
  12 C :   -0.063617
  13 H :    0.025457
  14 H :    0.029941
  15 H :    0.027024
  16 S :    0.417204
  17 C :   -0.197607
  18 C :   -0.086658
  19 C :   -0.054100
  20 C :   -0.191947
  21 H :    0.032406
  22 C :   -0.032921
  23 H :    0.037792
  24 H :    0.023093
  25 C :   -0.037295
  26 H :    0.025461
  27 H :    0.028874
  28 C :   -0.065005
  29 H :    0.022401
  30 H :    0.020163
  31 H :    0.035977
  32 H :    0.017449
  33 H :    0.036425

  Mayer bond orders larger than 0.100000
B(  0-S ,  1-C ) :   1.1142 B(  0-S ,  4-C ) :   1.0854 B(  1-C ,  2-C ) :   1.6808
B(  1-C , 32-H ) :   0.9677 B(  2-C ,  3-C ) :   1.1757 B(  2-C ,  6-C ) :   1.0125
B(  3-C ,  4-C ) :   1.6423 B(  3-C ,  5-H ) :   0.9969 B(  4-C , 20-C ) :   1.0828
B(  6-C ,  7-H ) :   0.9418 B(  6-C ,  8-H ) :   0.9341 B(  6-C ,  9-C ) :   1.0736
B(  9-C , 10-H ) :   0.9501 B(  9-C , 11-H ) :   0.9614 B(  9-C , 12-C ) :   1.0851
B( 12-C , 13-H ) :   0.9716 B( 12-C , 14-H ) :   0.9694 B( 12-C , 15-H ) :   0.9606
B( 16-S , 17-C ) :   1.1714 B( 16-S , 20-C ) :   1.1507 B( 17-C , 18-C ) :   1.5635
B( 17-C , 20-C ) :   0.1145 B( 17-C , 33-H ) :   0.9645 B( 18-C , 19-C ) :   1.3153
B( 18-C , 21-H ) :   0.9811 B( 19-C , 20-C ) :   1.5286 B( 19-C , 22-C ) :   1.0102
B( 22-C , 23-H ) :   0.9282 B( 22-C , 24-H ) :   0.9279 B( 22-C , 25-C ) :   1.0520
B( 25-C , 26-H ) :   0.9602 B( 25-C , 27-H ) :   0.9480 B( 25-C , 28-C ) :   1.0817
B( 28-C , 29-H ) :   0.9726 B( 28-C , 30-H ) :   0.9703 B( 28-C , 31-H ) :   0.9757

Dispersion correction           -0.013454679
FINAL SINGLE POINT ENERGY     -1339.838498190636

DIPOLE MOMENT
-------------
                                X             Y             Z
Electronic contribution:      5.48701     -22.74687     -18.07445
Nuclear contribution   :     -5.78249      23.55585      18.30111
                        -----------------------------------------
Total Dipole Moment    :     -0.29548       0.80898       0.22667
                        -----------------------------------------
Magnitude (a.u.)       :      0.89058
Magnitude (Debye)      :      2.26367

Rotational constants in cm-1:     0.016606     0.008577     0.006153
Rotational constants in MHz :   497.830515   257.129127   184.454430

                             ****ORCA TERMINATED NORMALLY****
TOTAL RUN TIME: 0 days 0 hours 0 minutes 21 seconds 17 msec
