                         Program Version 4.2.1 -  RELEASE  -
|  1> ! wB97X-D3 SP def2-SVP
|  2> %pal
|  3> nprocs 24
|  4> end
|  5>
|  6> * xyz 0 1
|  7> S 	 -53.681 	 6.28826 	 -100.932
|  8> C 	 -54.8587 	 6.91088 	 -102.019
|  9> C 	 -55.2062 	 8.23446 	 -101.775
| 10> C 	 -54.3907 	 8.70213 	 -100.778
| 11> C 	 -53.4782 	 7.84626 	 -100.212
| 12> H 	 -54.4267 	 9.70626 	 -100.328
| 13> C 	 -56.1244 	 9.11378 	 -102.616
| 14> H 	 -57.0544 	 9.38569 	 -102.144
| 15> H 	 -56.4722 	 8.53289 	 -103.5
| 16> C 	 -55.273 	 10.3449 	 -103.167
| 17> H 	 -55.1636 	 10.9942 	 -102.234
| 18> H 	 -54.2777 	 10.0556 	 -103.48
| 19> C 	 -55.8326 	 11.2127 	 -104.354
| 20> H 	 -56.8951 	 11.4528 	 -104.237
| 21> H 	 -55.4023 	 12.2171 	 -104.404
| 22> H 	 -55.8539 	 10.7164 	 -105.355
| 23> S 	 -53.411 	 7.64466 	 -97.5543
| 24> C 	 -52.2349 	 8.55702 	 -96.5645
| 25> C 	 -51.3576 	 9.21925 	 -97.3891
| 26> C 	 -51.7497 	 9.19237 	 -98.7976
| 27> C 	 -52.66 	 8.12949 	 -99.0705
| 28> H 	 -50.5613 	 9.79753 	 -96.9898
| 29> C 	 -50.9821 	 10.0111 	 -99.8179
| 30> H 	 -50.9345 	 9.4605 	 -100.771
| 31> H 	 -49.9524 	 10.1646 	 -99.4416
| 32> C 	 -51.6504 	 11.3783 	 -99.9227
| 33> H 	 -51.7978 	 11.8973 	 -98.9137
| 34> H 	 -52.6471 	 11.1622 	 -100.386
| 35> C 	 -50.9539 	 12.4466 	 -100.82
| 36> H 	 -49.9626 	 12.5694 	 -100.378
| 37> H 	 -51.4056 	 13.4192 	 -100.835
| 38> H 	 -50.9412 	 12.077 	 -101.821
| 39> H 	 -55.3543 	 6.38442 	 -102.833
| 40> H 	 -52.2158 	 8.45247 	 -95.5223
| 41> *
| 42>
| 43>                          ****END OF INPUT****

CARTESIAN COORDINATES (ANGSTROEM)
---------------------------------
  S    -53.681000    6.288260  -100.932000
  C    -54.858700    6.910880  -102.019000
  C    -55.206200    8.234460  -101.775000
  C    -54.390700    8.702130  -100.778000
  C    -53.478200    7.846260  -100.212000
  H    -54.426700    9.706260  -100.328000
  C    -56.124400    9.113780  -102.616000
  H    -57.054400    9.385690  -102.144000
  H    -56.472200    8.532890  -103.500000
  C    -55.273000   10.344900  -103.167000
  H    -55.163600   10.994200  -102.234000
  H    -54.277700   10.055600  -103.480000
  C    -55.832600   11.212700  -104.354000
  H    -56.895100   11.452800  -104.237000
  H    -55.402300   12.217100  -104.404000
  H    -55.853900   10.716400  -105.355000
  S    -53.411000    7.644660  -97.554300
  C    -52.234900    8.557020  -96.564500
  C    -51.357600    9.219250  -97.389100
  C    -51.749700    9.192370  -98.797600
  C    -52.660000    8.129490  -99.070500
  H    -50.561300    9.797530  -96.989800
  C    -50.982100   10.011100  -99.817900
  H    -50.934500    9.460500  -100.771000
  H    -49.952400   10.164600  -99.441600
  C    -51.650400   11.378300  -99.922700
  H    -51.797800   11.897300  -98.913700
  H    -52.647100   11.162200  -100.386000
  C    -50.953900   12.446600  -100.820000
  H    -49.962600   12.569400  -100.378000
  H    -51.405600   13.419200  -100.835000
  H    -50.941200   12.077000  -101.821000
  H    -55.354300    6.384420  -102.833000
  H    -52.215800    8.452470  -95.522300

 Total Charge           Charge          ....    0
 Multiplicity           Mult            ....    1
 Number of Electrons    NEL             ....  134
 Basis Dimension        Dim             ....  322

ORBITAL ENERGIES
----------------

  NO   OCC          E(Eh)            E(eV)
   0   2.0000     -88.969715     -2420.9890
   1   2.0000     -88.958533     -2420.6848
   2   2.0000     -10.327122      -281.0153
   3   2.0000     -10.320490      -280.8348
   4   2.0000     -10.318398      -280.7779
   5   2.0000     -10.312800      -280.6256
   6   2.0000     -10.312367      -280.6138
   7   2.0000     -10.302458      -280.3441
   8   2.0000     -10.300726      -280.2970
   9   2.0000     -10.296765      -280.1892
  10   2.0000     -10.296503      -280.1821
  11   2.0000     -10.295927      -280.1664
  12   2.0000     -10.293857      -280.1101
  13   2.0000     -10.285998      -279.8962
  14   2.0000     -10.285872      -279.8928
  15   2.0000     -10.274832      -279.5924
  16   2.0000      -8.085000      -220.0040
  17   2.0000      -8.073030      -219.6783
  18   2.0000      -6.043264      -164.4456
  19   2.0000      -6.039379      -164.3399
  20   2.0000      -6.036039      -164.2490
  21   2.0000      -6.031693      -164.1307
  22   2.0000      -6.027497      -164.0165
  23   2.0000      -6.023682      -163.9127
  24   2.0000      -1.013119       -27.5684
  25   2.0000      -0.982065       -26.7233
  26   2.0000      -0.907690       -24.6995
  27   2.0000      -0.904419       -24.6105
  28   2.0000      -0.871347       -23.7106
  29   2.0000      -0.848983       -23.1020
  30   2.0000      -0.842660       -22.9300
  31   2.0000      -0.813279       -22.1305
  32   2.0000      -0.784267       -21.3410
  33   2.0000      -0.770691       -20.9716
  34   2.0000      -0.709878       -19.3168
  35   2.0000      -0.695108       -18.9148
  36   2.0000      -0.686636       -18.6843
  37   2.0000      -0.663466       -18.0538
  38   2.0000      -0.644979       -17.5508
  39   2.0000      -0.621147       -16.9023
  40   2.0000      -0.595760       -16.2115
  41   2.0000      -0.571549       -15.5526
  42   2.0000      -0.568205       -15.4616
  43   2.0000      -0.552314       -15.0292
  44   2.0000      -0.525226       -14.2921
  45   2.0000      -0.522317       -14.2130
  46   2.0000      -0.519036       -14.1237
  47   2.0000      -0.514318       -13.9953
  48   2.0000      -0.500900       -13.6302
  49   2.0000      -0.498153       -13.5554
  50   2.0000      -0.493165       -13.4197
  51   2.0000      -0.484536       -13.1849
  52   2.0000      -0.470231       -12.7956
  53   2.0000      -0.465486       -12.6665
  54   2.0000      -0.461472       -12.5573
  55   2.0000      -0.448617       -12.2075
  56   2.0000      -0.444324       -12.0907
  57   2.0000      -0.432298       -11.7634
  58   2.0000      -0.430342       -11.7102
  59   2.0000      -0.425305       -11.5731
  60   2.0000      -0.417891       -11.3714
  61   2.0000      -0.412244       -11.2177
  62   2.0000      -0.410059       -11.1583
  63   2.0000      -0.344165        -9.3652
  64   2.0000      -0.333669        -9.0796
  65   2.0000      -0.317890        -8.6502
  66   2.0000      -0.300564        -8.1788
  67   0.0000       0.035274         0.9598
  68   0.0000       0.058069         1.5801
  69   0.0000       0.114810         3.1241
  70   0.0000       0.120388         3.2759
  71   0.0000       0.127360         3.4656

MULLIKEN ATOMIC CHARGES
-----------------------
   0 S :    0.137723
   1 C :   -0.117059
   2 C :   -0.073196
   3 C :    0.007456
   4 C :   -0.181429
   5 H :    0.020850
   6 C :    0.092998
   7 H :    0.040192
   8 H :    0.015316
   9 C :   -0.125059
  10 H :    0.047176
  11 H :    0.045964
  12 C :   -0.062030
  13 H :    0.017525
  14 H :    0.041822
  15 H :    0.043305
  16 S :    0.079408
  17 C :   -0.072647
  18 C :    0.002173
  19 C :   -0.075378
  20 C :   -0.125632
  21 H :    0.013188
  22 C :    0.074200
  23 H :    0.043801
  24 H :    0.023365
  25 C :   -0.158155
  26 H :    0.045775
  27 H :    0.030021
  28 C :   -0.006792
  29 H :    0.025278
  30 H :    0.033907
  31 H :    0.027400
  32 H :    0.042732
  33 H :    0.045802
Sum of atomic charges:   -0.0000000

LOEWDIN ATOMIC CHARGES
----------------------
   0 S :    0.439319
   1 C :   -0.201710
   2 C :   -0.071988
   3 C :   -0.060404
   4 C :   -0.226752
   5 H :    0.031233
   6 C :   -0.025909
   7 H :    0.030745
   8 H :    0.029409
   9 C :   -0.041029
  10 H :    0.030397
  11 H :    0.025475
  12 C :   -0.081179
  13 H :    0.023031
  14 H :    0.031175
  15 H :    0.030458
  16 S :    0.385392
  17 C :   -0.157679
  18 C :   -0.065189
  19 C :   -0.039647
  20 C :   -0.203066
  21 H :    0.026469
  22 C :   -0.033425
  23 H :    0.036751
  24 H :    0.030248
  25 C :   -0.049363
  26 H :    0.031309
  27 H :    0.022769
  28 C :   -0.063380
  29 H :    0.024022
  30 H :    0.024600
  31 H :    0.021009
  32 H :    0.028474
  33 H :    0.018435

  Mayer bond orders larger than 0.100000
B(  0-S ,  1-C ) :   1.1784 B(  0-S ,  4-C ) :   1.1489 B(  1-C ,  2-C ) :   1.5781
B(  1-C ,  4-C ) :   0.1026 B(  1-C , 32-H ) :   0.9587 B(  2-C ,  3-C ) :   1.2822
B(  2-C ,  6-C ) :   1.0249 B(  3-C ,  4-C ) :   1.5626 B(  3-C ,  5-H ) :   0.9846
B(  4-C , 20-C ) :   1.0187 B(  6-C ,  7-H ) :   0.9376 B(  6-C ,  8-H ) :   0.9445
B(  6-C ,  9-C ) :   1.0424 B(  9-C , 10-H ) :   0.9540 B(  9-C , 11-H ) :   0.9646
B(  9-C , 12-C ) :   1.0746 B( 12-C , 13-H ) :   0.9732 B( 12-C , 14-H ) :   0.9749
B( 12-C , 15-H ) :   0.9759 B( 16-S , 17-C ) :   1.1533 B( 16-S , 20-C ) :   1.1388
B( 17-C , 18-C ) :   1.6137 B( 17-C , 20-C ) :   0.1004 B( 17-C , 33-H ) :   0.9761
B( 18-C , 19-C ) :   1.2202 B( 18-C , 21-H ) :   0.9901 B( 19-C , 20-C ) :   1.5891
B( 19-C , 22-C ) :   1.0536 B( 22-C , 23-H ) :   0.9420 B( 22-C , 24-H ) :   0.9397
B( 22-C , 25-C ) :   1.0412 B( 25-C , 26-H ) :   0.9614 B( 25-C , 27-H ) :   0.9503
B( 25-C , 28-C ) :   1.0791 B( 28-C , 29-H ) :   0.9739 B( 28-C , 30-H ) :   0.9756
B( 28-C , 31-H ) :   0.9739

Dispersion correction           -0.014553716
FINAL SINGLE POINT ENERGY     -1339.865910022271

DIPOLE MOMENT
-------------
                                X             Y             Z
Electronic contribution:      0.12327     -26.93195      17.68023
Nuclear contribution   :     -0.14973      27.62219     -17.92911
                        -----------------------------------------
Total Dipole Moment    :     -0.02646       0.69025      -0.24887
                        -----------------------------------------
Magnitude (a.u.)       :      0.73422
Magnitude (Debye)      :      1.86624

Rotational constants in cm-1:     0.016183     0.009969     0.006959
Rotational constants in MHz :   485.161278   298.873523   208.632880

                             ****ORCA TERMINATED NORMALLY****
TOTAL RUN TIME: 0 days 0 hours 0 minutes 22 seconds 37 msec
