                         Program Version 4.2.1 -  RELEASE  -
|  1> ! wB97X-D3 SP def2-SVP
|  2> %pal
|  3> nprocs 24
|  4> end
|  5>
|  6> * xyz 0 1
|  7> S 	 -50.5484 	 17.6887 	 24.5795
|  8> C 	 -49.3258 	 16.498 	 24.9975
|  9> C 	 -48.4222 	 16.9049 	 25.9772
| 10> C 	 -48.9778 	 18.1079 	 26.5849
| 11> C 	 -50.1005 	 18.6703 	 25.965
| 12> H 	 -48.6379 	 18.5301 	 27.4933
| 13> C 	 -47.1401 	 16.3039 	 26.4112
| 14> H 	 -46.3775 	 17.054 	 26.4258
| 15> H 	 -46.7939 	 15.6263 	 25.6195
| 16> C 	 -47.2255 	 15.3067 	 27.6409
| 17> H 	 -47.7664 	 14.3854 	 27.3636
| 18> H 	 -46.2115 	 14.8339 	 27.8174
| 19> C 	 -47.6472 	 15.966 	 28.9858
| 20> H 	 -46.8953 	 16.682 	 29.2884
| 21> H 	 -48.6863 	 16.3312 	 28.95
| 22> H 	 -47.7294 	 15.2376 	 29.7635
| 23> S 	 -49.7052 	 21.3074 	 26.1132
| 24> C 	 -51.0187 	 22.4008 	 26.618
| 25> C 	 -52.1909 	 21.6502 	 26.9465
| 26> C 	 -52.049 	 20.2159 	 26.7758
| 27> C 	 -50.7495 	 19.8865 	 26.3267
| 28> H 	 -53.0465 	 22.1408 	 27.4424
| 29> C 	 -53.0768 	 19.2639 	 27.3287
| 30> H 	 -53.1381 	 18.4483 	 26.6269
| 31> H 	 -53.9893 	 19.787 	 27.2013
| 32> C 	 -52.8416 	 18.7998 	 28.7584
| 33> H 	 -53.6745 	 18.1504 	 28.9875
| 34> H 	 -52.8905 	 19.5868 	 29.5022
| 35> C 	 -51.5422 	 17.9613 	 29.0127
| 36> H 	 -50.6894 	 18.6045 	 29.0244
| 37> H 	 -51.3186 	 17.1122 	 28.3665
| 38> H 	 -51.5019 	 17.4515 	 30.019
| 39> H 	 -49.0516 	 15.6762 	 24.3616
| 40> H 	 -50.9497 	 23.4457 	 26.8782
| 41> *
| 42>
| 43>                          ****END OF INPUT****

CARTESIAN COORDINATES (ANGSTROEM)
---------------------------------
  S    -50.548400   17.688700   24.579500
  C    -49.325800   16.498000   24.997500
  C    -48.422200   16.904900   25.977200
  C    -48.977800   18.107900   26.584900
  C    -50.100500   18.670300   25.965000
  H    -48.637900   18.530100   27.493300
  C    -47.140100   16.303900   26.411200
  H    -46.377500   17.054000   26.425800
  H    -46.793900   15.626300   25.619500
  C    -47.225500   15.306700   27.640900
  H    -47.766400   14.385400   27.363600
  H    -46.211500   14.833900   27.817400
  C    -47.647200   15.966000   28.985800
  H    -46.895300   16.682000   29.288400
  H    -48.686300   16.331200   28.950000
  H    -47.729400   15.237600   29.763500
  S    -49.705200   21.307400   26.113200
  C    -51.018700   22.400800   26.618000
  C    -52.190900   21.650200   26.946500
  C    -52.049000   20.215900   26.775800
  C    -50.749500   19.886500   26.326700
  H    -53.046500   22.140800   27.442400
  C    -53.076800   19.263900   27.328700
  H    -53.138100   18.448300   26.626900
  H    -53.989300   19.787000   27.201300
  C    -52.841600   18.799800   28.758400
  H    -53.674500   18.150400   28.987500
  H    -52.890500   19.586800   29.502200
  C    -51.542200   17.961300   29.012700
  H    -50.689400   18.604500   29.024400
  H    -51.318600   17.112200   28.366500
  H    -51.501900   17.451500   30.019000
  H    -49.051600   15.676200   24.361600
  H    -50.949700   23.445700   26.878200

 Total Charge           Charge          ....    0
 Multiplicity           Mult            ....    1
 Number of Electrons    NEL             ....  134
 Basis Dimension        Dim             ....  322

ORBITAL ENERGIES
----------------

  NO   OCC          E(Eh)            E(eV)
   0   2.0000     -88.967902     -2420.9397
   1   2.0000     -88.967308     -2420.9235
   2   2.0000     -10.327116      -281.0151
   3   2.0000     -10.325572      -280.9731
   4   2.0000     -10.322627      -280.8930
   5   2.0000     -10.313518      -280.6451
   6   2.0000     -10.306683      -280.4591
   7   2.0000     -10.303383      -280.3693
   8   2.0000     -10.301628      -280.3216
   9   2.0000     -10.299848      -280.2731
  10   2.0000     -10.296138      -280.1722
  11   2.0000     -10.291166      -280.0369
  12   2.0000     -10.288537      -279.9653
  13   2.0000     -10.286998      -279.9234
  14   2.0000     -10.278022      -279.6792
  15   2.0000     -10.274908      -279.5945
  16   2.0000      -8.081456      -219.9076
  17   2.0000      -8.081252      -219.9021
  18   2.0000      -6.039978      -164.3562
  19   2.0000      -6.039893      -164.3538
  20   2.0000      -6.036116      -164.2511
  21   2.0000      -6.035826      -164.2432
  22   2.0000      -6.032166      -164.1436
  23   2.0000      -6.032065      -164.1408
  24   2.0000      -0.998877       -27.1808
  25   2.0000      -0.972471       -26.4623
  26   2.0000      -0.907912       -24.7055
  27   2.0000      -0.905992       -24.6533
  28   2.0000      -0.865377       -23.5481
  29   2.0000      -0.845632       -23.0108
  30   2.0000      -0.839402       -22.8413
  31   2.0000      -0.807565       -21.9750
  32   2.0000      -0.786815       -21.4103
  33   2.0000      -0.773136       -21.0381
  34   2.0000      -0.709219       -19.2988
  35   2.0000      -0.705178       -19.1889
  36   2.0000      -0.693120       -18.8607
  37   2.0000      -0.661523       -18.0010
  38   2.0000      -0.638283       -17.3686
  39   2.0000      -0.610367       -16.6089
  40   2.0000      -0.588638       -16.0176
  41   2.0000      -0.568784       -15.4774
  42   2.0000      -0.550193       -14.9715
  43   2.0000      -0.542966       -14.7748
  44   2.0000      -0.539311       -14.6754
  45   2.0000      -0.535123       -14.5614
  46   2.0000      -0.517935       -14.0937
  47   2.0000      -0.512993       -13.9592
  48   2.0000      -0.503086       -13.6897
  49   2.0000      -0.491777       -13.3819
  50   2.0000      -0.490782       -13.3549
  51   2.0000      -0.473689       -12.8897
  52   2.0000      -0.470515       -12.8034
  53   2.0000      -0.459042       -12.4912
  54   2.0000      -0.455964       -12.4074
  55   2.0000      -0.442864       -12.0510
  56   2.0000      -0.440652       -11.9908
  57   2.0000      -0.437517       -11.9055
  58   2.0000      -0.429419       -11.6851
  59   2.0000      -0.426856       -11.6153
  60   2.0000      -0.421199       -11.4614
  61   2.0000      -0.418446       -11.3865
  62   2.0000      -0.412343       -11.2204
  63   2.0000      -0.332305        -9.0425
  64   2.0000      -0.330531        -8.9942
  65   2.0000      -0.324157        -8.8208
  66   2.0000      -0.294876        -8.0240
  67   0.0000       0.029382         0.7995
  68   0.0000       0.060597         1.6489
  69   0.0000       0.100231         2.7274
  70   0.0000       0.112895         3.0720
  71   0.0000       0.124035         3.3752

MULLIKEN ATOMIC CHARGES
-----------------------
   0 S :    0.122672
   1 C :   -0.107338
   2 C :   -0.098282
   3 C :    0.024317
   4 C :   -0.143983
   5 H :   -0.003718
   6 C :    0.085907
   7 H :    0.035483
   8 H :    0.014374
   9 C :   -0.101036
  10 H :    0.032800
  11 H :    0.030564
  12 C :   -0.040264
  13 H :    0.039949
  14 H :    0.042942
  15 H :    0.020668
  16 S :    0.119656
  17 C :   -0.095389
  18 C :   -0.068148
  19 C :   -0.043186
  20 C :   -0.202308
  21 H :    0.033407
  22 C :    0.123889
  23 H :    0.017987
  24 H :    0.007555
  25 C :   -0.016193
  26 H :    0.026224
  27 H :    0.024658
  28 C :   -0.092430
  29 H :    0.032690
  30 H :    0.047353
  31 H :    0.029106
  32 H :    0.039114
  33 H :    0.060960
Sum of atomic charges:   -0.0000000

LOEWDIN ATOMIC CHARGES
----------------------
   0 S :    0.403931
   1 C :   -0.193683
   2 C :   -0.059613
   3 C :   -0.052935
   4 C :   -0.208100
   5 H :    0.018200
   6 C :   -0.034798
   7 H :    0.032288
   8 H :    0.035922
   9 C :   -0.040042
  10 H :    0.026342
  11 H :    0.028211
  12 C :   -0.070513
  13 H :    0.027230
  14 H :    0.030155
  15 H :    0.023197
  16 S :    0.402331
  17 C :   -0.187846
  18 C :   -0.072086
  19 C :   -0.051978
  20 C :   -0.196723
  21 H :    0.034217
  22 C :   -0.028266
  23 H :    0.030576
  24 H :    0.028061
  25 C :   -0.029213
  26 H :    0.025834
  27 H :    0.025203
  28 C :   -0.073153
  29 H :    0.018504
  30 H :    0.026040
  31 H :    0.031503
  32 H :    0.021843
  33 H :    0.029359

  Mayer bond orders larger than 0.100000
B(  0-S ,  1-C ) :   1.1456 B(  0-S ,  4-C ) :   1.1231 B(  1-C ,  2-C ) :   1.6260
B(  1-C , 32-H ) :   0.9577 B(  2-C ,  3-C ) :   1.2163 B(  2-C ,  6-C ) :   1.0349
B(  3-C ,  4-C ) :   1.5773 B(  3-C ,  5-H ) :   0.9976 B(  4-C , 20-C ) :   1.0705
B(  6-C ,  7-H ) :   0.9442 B(  6-C ,  8-H ) :   0.9281 B(  6-C ,  9-C ) :   1.0618
B(  9-C , 10-H ) :   0.9582 B(  9-C , 11-H ) :   0.9555 B(  9-C , 12-C ) :   1.0789
B( 12-C , 13-H ) :   0.9747 B( 12-C , 14-H ) :   0.9712 B( 12-C , 15-H ) :   0.9696
B( 16-S , 17-C ) :   1.1495 B( 16-S , 20-C ) :   1.1443 B( 17-C , 18-C ) :   1.6042
B( 17-C , 20-C ) :   0.1101 B( 17-C , 33-H ) :   0.9660 B( 18-C , 19-C ) :   1.2467
B( 18-C , 21-H ) :   0.9769 B( 19-C , 20-C ) :   1.5608 B( 19-C , 22-C ) :   1.0485
B( 22-C , 23-H ) :   0.9214 B( 22-C , 24-H ) :   0.9220 B( 22-C , 25-C ) :   1.0770
B( 25-C , 26-H ) :   0.9515 B( 25-C , 27-H ) :   0.9542 B( 25-C , 28-C ) :   1.0748
B( 28-C , 29-H ) :   0.9750 B( 28-C , 30-H ) :   0.9730 B( 28-C , 31-H ) :   0.9717

Dispersion correction           -0.016688683
FINAL SINGLE POINT ENERGY     -1339.872167017740

DIPOLE MOMENT
-------------
                                X             Y             Z
Electronic contribution:     -2.87448      15.33061     -19.58174
Nuclear contribution   :      2.98385     -15.61282      20.12676
                        -----------------------------------------
Total Dipole Moment    :      0.10937      -0.28222       0.54502
                        -----------------------------------------
Magnitude (a.u.)       :      0.62342
Magnitude (Debye)      :      1.58461

Rotational constants in cm-1:     0.019984     0.009152     0.008301
Rotational constants in MHz :   599.113886   274.375130   248.849894

                             ****ORCA TERMINATED NORMALLY****
TOTAL RUN TIME: 0 days 0 hours 0 minutes 21 seconds 729 msec
