                         Program Version 4.2.1 -  RELEASE  -
|  1> ! wB97X-D3 SP def2-SVP
|  2> %pal
|  3> nprocs 24
|  4> end
|  5>
|  6> * xyz 0 1
|  7> S 	 -70.8599 	 14.6652 	 -74.5486
|  8> C 	 -69.9392 	 15.1712 	 -73.1905
|  9> C 	 -69.0785 	 16.1922 	 -73.5035
| 10> C 	 -69.0744 	 16.5126 	 -74.9119
| 11> C 	 -70.101 	 15.9181 	 -75.5722
| 12> H 	 -68.3751 	 17.1446 	 -75.4932
| 13> C 	 -68.0623 	 16.7326 	 -72.5731
| 14> H 	 -67.1997 	 16.2036 	 -72.8449
| 15> H 	 -68.2477 	 16.3096 	 -71.5539
| 16> C 	 -67.9428 	 18.2678 	 -72.4517
| 17> H 	 -67.0481 	 18.6075 	 -71.8972
| 18> H 	 -67.8024 	 18.8143 	 -73.4483
| 19> C 	 -69.1373 	 18.9865 	 -71.737
| 20> H 	 -70.0337 	 18.9165 	 -72.339
| 21> H 	 -69.3645 	 18.5526 	 -70.7562
| 22> H 	 -68.8518 	 20.0009 	 -71.5596
| 23> S 	 -69.9914 	 14.606 	 -78.1033
| 24> C 	 -70.4141 	 15.4714 	 -79.5529
| 25> C 	 -70.836 	 16.7654 	 -79.2389
| 26> C 	 -70.7675 	 16.993 	 -77.7943
| 27> C 	 -70.3671 	 15.9381 	 -76.9971
| 28> H 	 -71.199 	 17.424 	 -80.0153
| 29> C 	 -71.3009 	 18.259 	 -77.1505
| 30> H 	 -71.7097 	 17.8811 	 -76.2445
| 31> H 	 -72.1737 	 18.5172 	 -77.8266
| 32> C 	 -70.3981 	 19.4842 	 -77.0275
| 33> H 	 -70.129 	 20.1509 	 -77.8908
| 34> H 	 -69.4521 	 19.1235 	 -76.8058
| 35> C 	 -70.9224 	 20.4833 	 -75.9988
| 36> H 	 -71.0182 	 20.112 	 -75.0258
| 37> H 	 -71.8839 	 20.8102 	 -76.1377
| 38> H 	 -70.2681 	 21.351 	 -75.8999
| 39> H 	 -69.9715 	 14.6872 	 -72.2242
| 40> H 	 -70.2773 	 15.0428 	 -80.5629
| 41> *
| 42>
| 43>                          ****END OF INPUT****

CARTESIAN COORDINATES (ANGSTROEM)
---------------------------------
  S    -70.859900   14.665200  -74.548600
  C    -69.939200   15.171200  -73.190500
  C    -69.078500   16.192200  -73.503500
  C    -69.074400   16.512600  -74.911900
  C    -70.101000   15.918100  -75.572200
  H    -68.375100   17.144600  -75.493200
  C    -68.062300   16.732600  -72.573100
  H    -67.199700   16.203600  -72.844900
  H    -68.247700   16.309600  -71.553900
  C    -67.942800   18.267800  -72.451700
  H    -67.048100   18.607500  -71.897200
  H    -67.802400   18.814300  -73.448300
  C    -69.137300   18.986500  -71.737000
  H    -70.033700   18.916500  -72.339000
  H    -69.364500   18.552600  -70.756200
  H    -68.851800   20.000900  -71.559600
  S    -69.991400   14.606000  -78.103300
  C    -70.414100   15.471400  -79.552900
  C    -70.836000   16.765400  -79.238900
  C    -70.767500   16.993000  -77.794300
  C    -70.367100   15.938100  -76.997100
  H    -71.199000   17.424000  -80.015300
  C    -71.300900   18.259000  -77.150500
  H    -71.709700   17.881100  -76.244500
  H    -72.173700   18.517200  -77.826600
  C    -70.398100   19.484200  -77.027500
  H    -70.129000   20.150900  -77.890800
  H    -69.452100   19.123500  -76.805800
  C    -70.922400   20.483300  -75.998800
  H    -71.018200   20.112000  -75.025800
  H    -71.883900   20.810200  -76.137700
  H    -70.268100   21.351000  -75.899900
  H    -69.971500   14.687200  -72.224200
  H    -70.277300   15.042800  -80.562900

 Total Charge           Charge          ....    0
 Multiplicity           Mult            ....    1
 Number of Electrons    NEL             ....  134
 Basis Dimension        Dim             ....  322

ORBITAL ENERGIES
----------------

  NO   OCC          E(Eh)            E(eV)
   0   2.0000     -88.964628     -2420.8506
   1   2.0000     -88.961422     -2420.7634
   2   2.0000     -10.330691      -281.1124
   3   2.0000     -10.324204      -280.9359
   4   2.0000     -10.323584      -280.9190
   5   2.0000     -10.313035      -280.6320
   6   2.0000     -10.303344      -280.3683
   7   2.0000     -10.301204      -280.3100
   8   2.0000     -10.300946      -280.3030
   9   2.0000     -10.298631      -280.2400
  10   2.0000     -10.297973      -280.2221
  11   2.0000     -10.291642      -280.0498
  12   2.0000     -10.287269      -279.9308
  13   2.0000     -10.282151      -279.7915
  14   2.0000     -10.276124      -279.6276
  15   2.0000     -10.262139      -279.2470
  16   2.0000      -8.079648      -219.8584
  17   2.0000      -8.076069      -219.7610
  18   2.0000      -6.038154      -164.3065
  19   2.0000      -6.034652      -164.2112
  20   2.0000      -6.034168      -164.1981
  21   2.0000      -6.030441      -164.0967
  22   2.0000      -6.030333      -164.0937
  23   2.0000      -6.026877      -163.9997
  24   2.0000      -1.007528       -27.4162
  25   2.0000      -0.984092       -26.7785
  26   2.0000      -0.910229       -24.7686
  27   2.0000      -0.906886       -24.6776
  28   2.0000      -0.872692       -23.7472
  29   2.0000      -0.849602       -23.1188
  30   2.0000      -0.846635       -23.0381
  31   2.0000      -0.820592       -22.3294
  32   2.0000      -0.782227       -21.2855
  33   2.0000      -0.770256       -20.9597
  34   2.0000      -0.713732       -19.4216
  35   2.0000      -0.704427       -19.1684
  36   2.0000      -0.692733       -18.8502
  37   2.0000      -0.658236       -17.9115
  38   2.0000      -0.646652       -17.5963
  39   2.0000      -0.619513       -16.8578
  40   2.0000      -0.588852       -16.0235
  41   2.0000      -0.568408       -15.4672
  42   2.0000      -0.561797       -15.2873
  43   2.0000      -0.554048       -15.0764
  44   2.0000      -0.535400       -14.5690
  45   2.0000      -0.534939       -14.5564
  46   2.0000      -0.517684       -14.0869
  47   2.0000      -0.513685       -13.9781
  48   2.0000      -0.508877       -13.8472
  49   2.0000      -0.496692       -13.5157
  50   2.0000      -0.488394       -13.2899
  51   2.0000      -0.483282       -13.1508
  52   2.0000      -0.469297       -12.7702
  53   2.0000      -0.464923       -12.6512
  54   2.0000      -0.462827       -12.5942
  55   2.0000      -0.450010       -12.2454
  56   2.0000      -0.444934       -12.1073
  57   2.0000      -0.441565       -12.0156
  58   2.0000      -0.435703       -11.8561
  59   2.0000      -0.420702       -11.4479
  60   2.0000      -0.416108       -11.3229
  61   2.0000      -0.409881       -11.1534
  62   2.0000      -0.401866       -10.9353
  63   2.0000      -0.346377        -9.4254
  64   2.0000      -0.326205        -8.8765
  65   2.0000      -0.324059        -8.8181
  66   2.0000      -0.304200        -8.2777
  67   0.0000       0.034636         0.9425
  68   0.0000       0.063300         1.7225
  69   0.0000       0.116709         3.1758
  70   0.0000       0.120865         3.2889
  71   0.0000       0.126308         3.4370

MULLIKEN ATOMIC CHARGES
-----------------------
   0 S :    0.106600
   1 C :   -0.112181
   2 C :   -0.094352
   3 C :    0.036753
   4 C :   -0.191705
   5 H :    0.042073
   6 C :    0.094296
   7 H :    0.031096
   8 H :    0.013122
   9 C :   -0.109978
  10 H :    0.031396
  11 H :    0.037292
  12 C :   -0.048278
  13 H :    0.045582
  14 H :    0.024908
  15 H :    0.030961
  16 S :    0.097132
  17 C :   -0.112755
  18 C :   -0.013505
  19 C :   -0.076002
  20 C :   -0.128557
  21 H :    0.024756
  22 C :    0.051308
  23 H :    0.029585
  24 H :    0.029768
  25 C :   -0.011915
  26 H :    0.029903
  27 H :   -0.011076
  28 C :   -0.006096
  29 H :    0.003608
  30 H :    0.004017
  31 H :    0.025042
  32 H :    0.050009
  33 H :    0.077193
Sum of atomic charges:    0.0000000

LOEWDIN ATOMIC CHARGES
----------------------
   0 S :    0.399190
   1 C :   -0.199996
   2 C :   -0.067898
   3 C :   -0.047487
   4 C :   -0.185032
   5 H :    0.041954
   6 C :   -0.036512
   7 H :    0.031639
   8 H :    0.034071
   9 C :   -0.047416
  10 H :    0.026139
  11 H :    0.029054
  12 C :   -0.061574
  13 H :    0.024293
  14 H :    0.023418
  15 H :    0.023846
  16 S :    0.395941
  17 C :   -0.185351
  18 C :   -0.077977
  19 C :   -0.053419
  20 C :   -0.211129
  21 H :    0.033284
  22 C :   -0.031321
  23 H :    0.029983
  24 H :    0.037721
  25 C :   -0.039394
  26 H :    0.034132
  27 H :    0.008835
  28 C :   -0.057291
  29 H :    0.017117
  30 H :    0.014853
  31 H :    0.027638
  32 H :    0.030049
  33 H :    0.038640

  Mayer bond orders larger than 0.100000
B(  0-S ,  1-C ) :   1.1400 B(  0-S ,  4-C ) :   1.1271 B(  1-C ,  2-C ) :   1.6259
B(  1-C , 32-H ) :   0.9667 B(  2-C ,  3-C ) :   1.1965 B(  2-C ,  6-C ) :   1.0276
B(  3-C ,  4-C ) :   1.6276 B(  3-C ,  5-H ) :   0.9821 B(  4-C , 20-C ) :   1.0328
B(  6-C ,  7-H ) :   0.9337 B(  6-C ,  8-H ) :   0.9391 B(  6-C ,  9-C ) :   1.0569
B(  9-C , 10-H ) :   0.9592 B(  9-C , 11-H ) :   0.9579 B(  9-C , 12-C ) :   1.0720
B( 12-C , 13-H ) :   0.9782 B( 12-C , 14-H ) :   0.9739 B( 12-C , 15-H ) :   0.9756
B( 16-S , 17-C ) :   1.1774 B( 16-S , 20-C ) :   1.1109 B( 17-C , 18-C ) :   1.5851
B( 17-C , 33-H ) :   0.9636 B( 18-C , 19-C ) :   1.2381 B( 18-C , 21-H ) :   0.9953
B( 19-C , 20-C ) :   1.6054 B( 19-C , 22-C ) :   1.0448 B( 22-C , 23-H ) :   0.9408
B( 22-C , 24-H ) :   0.9352 B( 22-C , 25-C ) :   1.0467 B( 25-C , 26-H ) :   0.9531
B( 25-C , 27-H ) :   0.9518 B( 25-C , 28-C ) :   1.0846 B( 28-C , 29-H ) :   0.9715
B( 28-C , 30-H ) :   0.9694 B( 28-C , 31-H ) :   0.9734

Dispersion correction           -0.015074233
FINAL SINGLE POINT ENERGY     -1339.867540647128

DIPOLE MOMENT
-------------
                                X             Y             Z
Electronic contribution:     -4.53376     -27.83801     -13.12940
Nuclear contribution   :      4.86757      28.34765      13.28904
                        -----------------------------------------
Total Dipole Moment    :      0.33381       0.50965       0.15964
                        -----------------------------------------
Magnitude (a.u.)       :      0.62980
Magnitude (Debye)      :      1.60083

Rotational constants in cm-1:     0.018232     0.009860     0.007169
Rotational constants in MHz :   546.588039   295.590139   214.927171

                             ****ORCA TERMINATED NORMALLY****
TOTAL RUN TIME: 0 days 0 hours 0 minutes 21 seconds 268 msec
