                         Program Version 4.2.1 -  RELEASE  -
|  1> ! wB97X-D3 SP def2-SVP
|  2> %pal
|  3> nprocs 24
|  4> end
|  5>
|  6> * xyz 0 1
|  7> S 	 -51.3157 	 18.9444 	 -88.3826
|  8> C 	 -51.3658 	 20.4274 	 -87.571
|  9> C 	 -52.2393 	 21.3005 	 -88.1631
| 10> C 	 -52.5639 	 20.9096 	 -89.5119
| 11> C 	 -52.0307 	 19.6651 	 -89.8323
| 12> H 	 -53.1069 	 21.5134 	 -90.1834
| 13> C 	 -52.6508 	 22.6621 	 -87.713
| 14> H 	 -52.8045 	 22.5514 	 -86.64
| 15> H 	 -53.5661 	 22.9435 	 -88.2339
| 16> C 	 -51.5418 	 23.7006 	 -88.0843
| 17> H 	 -51.2519 	 23.6544 	 -89.0939
| 18> H 	 -51.8973 	 24.7214 	 -87.8681
| 19> C 	 -50.2001 	 23.4396 	 -87.3317
| 20> H 	 -50.1852 	 23.2964 	 -86.2467
| 21> H 	 -49.6448 	 22.5789 	 -87.6846
| 22> H 	 -49.5173 	 24.2336 	 -87.5469
| 23> S 	 -52.5049 	 17.1971 	 -91.1679
| 24> C 	 -52.4603 	 17.2218 	 -92.8937
| 25> C 	 -52.1265 	 18.4326 	 -93.4657
| 26> C 	 -51.8445 	 19.4125 	 -92.4594
| 27> C 	 -52.0055 	 18.9343 	 -91.1262
| 28> H 	 -52.2081 	 18.5232 	 -94.5897
| 29> C 	 -51.5151 	 20.824 	 -92.8751
| 30> H 	 -52.2327 	 21.5564 	 -92.4849
| 31> H 	 -51.4827 	 20.8349 	 -93.9563
| 32> C 	 -50.1358 	 21.4285 	 -92.3952
| 33> H 	 -50.0358 	 21.286 	 -91.3401
| 34> H 	 -50.0223 	 22.5353 	 -92.5427
| 35> C 	 -48.8697 	 20.721 	 -92.9787
| 36> H 	 -48.001 	 21.0924 	 -92.4996
| 37> H 	 -48.7541 	 20.9501 	 -94.0938
| 38> H 	 -49.0134 	 19.6513 	 -92.8526
| 39> H 	 -50.836 	 20.6106 	 -86.6992
| 40> H 	 -52.7576 	 16.4272 	 -93.5846
| 41> *
| 42>
| 43>                          ****END OF INPUT****

CARTESIAN COORDINATES (ANGSTROEM)
---------------------------------
  S    -51.315700   18.944400  -88.382600
  C    -51.365800   20.427400  -87.571000
  C    -52.239300   21.300500  -88.163100
  C    -52.563900   20.909600  -89.511900
  C    -52.030700   19.665100  -89.832300
  H    -53.106900   21.513400  -90.183400
  C    -52.650800   22.662100  -87.713000
  H    -52.804500   22.551400  -86.640000
  H    -53.566100   22.943500  -88.233900
  C    -51.541800   23.700600  -88.084300
  H    -51.251900   23.654400  -89.093900
  H    -51.897300   24.721400  -87.868100
  C    -50.200100   23.439600  -87.331700
  H    -50.185200   23.296400  -86.246700
  H    -49.644800   22.578900  -87.684600
  H    -49.517300   24.233600  -87.546900
  S    -52.504900   17.197100  -91.167900
  C    -52.460300   17.221800  -92.893700
  C    -52.126500   18.432600  -93.465700
  C    -51.844500   19.412500  -92.459400
  C    -52.005500   18.934300  -91.126200
  H    -52.208100   18.523200  -94.589700
  C    -51.515100   20.824000  -92.875100
  H    -52.232700   21.556400  -92.484900
  H    -51.482700   20.834900  -93.956300
  C    -50.135800   21.428500  -92.395200
  H    -50.035800   21.286000  -91.340100
  H    -50.022300   22.535300  -92.542700
  C    -48.869700   20.721000  -92.978700
  H    -48.001000   21.092400  -92.499600
  H    -48.754100   20.950100  -94.093800
  H    -49.013400   19.651300  -92.852600
  H    -50.836000   20.610600  -86.699200
  H    -52.757600   16.427200  -93.584600

 Total Charge           Charge          ....    0
 Multiplicity           Mult            ....    1
 Number of Electrons    NEL             ....  134
 Basis Dimension        Dim             ....  322

ORBITAL ENERGIES
----------------

  NO   OCC          E(Eh)            E(eV)
   0   2.0000     -88.970990     -2421.0237
   1   2.0000     -88.962754     -2420.7996
   2   2.0000     -10.337054      -281.2855
   3   2.0000     -10.334467      -281.2152
   4   2.0000     -10.316996      -280.7397
   5   2.0000     -10.311046      -280.5778
   6   2.0000     -10.304826      -280.4086
   7   2.0000     -10.298951      -280.2487
   8   2.0000     -10.296645      -280.1860
   9   2.0000     -10.294248      -280.1207
  10   2.0000     -10.294193      -280.1192
  11   2.0000     -10.292915      -280.0844
  12   2.0000     -10.292177      -280.0644
  13   2.0000     -10.285539      -279.8837
  14   2.0000     -10.275296      -279.6050
  15   2.0000     -10.273504      -279.5563
  16   2.0000      -8.084983      -220.0036
  17   2.0000      -8.078761      -219.8343
  18   2.0000      -6.043504      -164.4521
  19   2.0000      -6.039676      -164.3479
  20   2.0000      -6.037207      -164.2808
  21   2.0000      -6.035713      -164.2401
  22   2.0000      -6.033282      -164.1739
  23   2.0000      -6.029317      -164.0660
  24   2.0000      -1.005887       -27.3716
  25   2.0000      -0.984440       -26.7880
  26   2.0000      -0.912182       -24.8217
  27   2.0000      -0.900649       -24.5079
  28   2.0000      -0.864876       -23.5345
  29   2.0000      -0.850404       -23.1407
  30   2.0000      -0.844417       -22.9778
  31   2.0000      -0.812612       -22.1123
  32   2.0000      -0.784035       -21.3347
  33   2.0000      -0.771940       -21.0056
  34   2.0000      -0.711965       -19.3736
  35   2.0000      -0.703857       -19.1529
  36   2.0000      -0.683086       -18.5877
  37   2.0000      -0.659119       -17.9355
  38   2.0000      -0.644090       -17.5266
  39   2.0000      -0.622210       -16.9312
  40   2.0000      -0.587427       -15.9847
  41   2.0000      -0.570613       -15.5272
  42   2.0000      -0.551905       -15.0181
  43   2.0000      -0.546643       -14.8749
  44   2.0000      -0.542433       -14.7604
  45   2.0000      -0.535721       -14.5777
  46   2.0000      -0.525942       -14.3116
  47   2.0000      -0.506007       -13.7692
  48   2.0000      -0.502415       -13.6714
  49   2.0000      -0.493313       -13.4237
  50   2.0000      -0.491202       -13.3663
  51   2.0000      -0.475349       -12.9349
  52   2.0000      -0.471430       -12.8283
  53   2.0000      -0.466182       -12.6854
  54   2.0000      -0.460659       -12.5352
  55   2.0000      -0.448133       -12.1943
  56   2.0000      -0.444780       -12.1031
  57   2.0000      -0.438269       -11.9259
  58   2.0000      -0.433404       -11.7935
  59   2.0000      -0.424923       -11.5627
  60   2.0000      -0.420890       -11.4530
  61   2.0000      -0.417322       -11.3559
  62   2.0000      -0.411077       -11.1860
  63   2.0000      -0.350855        -9.5472
  64   2.0000      -0.334231        -9.0949
  65   2.0000      -0.326912        -8.8957
  66   2.0000      -0.282835        -7.6963
  67   0.0000       0.024092         0.6556
  68   0.0000       0.061796         1.6816
  69   0.0000       0.102628         2.7927
  70   0.0000       0.121012         3.2929
  71   0.0000       0.123375         3.3572

MULLIKEN ATOMIC CHARGES
-----------------------
   0 S :    0.111483
   1 C :   -0.100620
   2 C :   -0.106941
   3 C :    0.030808
   4 C :   -0.141675
   5 H :   -0.006487
   6 C :    0.082057
   7 H :    0.033934
   8 H :    0.026542
   9 C :   -0.028089
  10 H :    0.021469
  11 H :    0.037161
  12 C :   -0.086681
  13 H :    0.028514
  14 H :    0.034389
  15 H :    0.024642
  16 S :    0.111879
  17 C :   -0.088090
  18 C :   -0.070006
  19 C :   -0.051487
  20 C :   -0.128771
  21 H :    0.047382
  22 C :    0.082576
  23 H :    0.038740
  24 H :    0.015104
  25 C :   -0.106851
  26 H :    0.036466
  27 H :    0.032818
  28 C :   -0.064338
  29 H :    0.029301
  30 H :    0.030052
  31 H :    0.045895
  32 H :    0.021386
  33 H :    0.057438
Sum of atomic charges:    0.0000000

LOEWDIN ATOMIC CHARGES
----------------------
   0 S :    0.413924
   1 C :   -0.200476
   2 C :   -0.062226
   3 C :   -0.052664
   4 C :   -0.183233
   5 H :    0.022406
   6 C :   -0.029245
   7 H :    0.032394
   8 H :    0.031628
   9 C :   -0.025040
  10 H :    0.021484
  11 H :    0.025366
  12 C :   -0.074390
  13 H :    0.021744
  14 H :    0.024734
  15 H :    0.024519
  16 S :    0.397079
  17 C :   -0.194777
  18 C :   -0.084069
  19 C :   -0.055231
  20 C :   -0.187117
  21 H :    0.047049
  22 C :   -0.031025
  23 H :    0.034152
  24 H :    0.027311
  25 C :   -0.042960
  26 H :    0.019528
  27 H :    0.025673
  28 C :   -0.066232
  29 H :    0.019178
  30 H :    0.026116
  31 H :    0.026441
  32 H :    0.013666
  33 H :    0.034291

  Mayer bond orders larger than 0.100000
B(  0-S ,  1-C ) :   1.1494 B(  0-S ,  4-C ) :   1.1497 B(  1-C ,  2-C ) :   1.6023
B(  1-C , 32-H ) :   0.9775 B(  2-C ,  3-C ) :   1.2213 B(  2-C ,  6-C ) :   1.0359
B(  3-C ,  4-C ) :   1.5633 B(  3-C ,  5-H ) :   1.0089 B(  4-C , 20-C ) :   1.0441
B(  6-C ,  7-H ) :   0.9412 B(  6-C ,  8-H ) :   0.9383 B(  6-C ,  9-C ) :   1.0642
B(  9-C , 10-H ) :   0.9538 B(  9-C , 11-H ) :   0.9616 B(  9-C , 12-C ) :   1.0718
B( 12-C , 13-H ) :   0.9784 B( 12-C , 14-H ) :   0.9697 B( 12-C , 15-H ) :   0.9710
B( 16-S , 17-C ) :   1.1606 B( 16-S , 20-C ) :   1.1271 B( 17-C , 18-C ) :   1.6349
B( 17-C , 33-H ) :   0.9562 B( 18-C , 19-C ) :   1.2409 B( 18-C , 21-H ) :   0.9771
B( 19-C , 20-C ) :   1.5797 B( 19-C , 22-C ) :   1.0461 B( 22-C , 23-H ) :   0.9327
B( 22-C , 24-H ) :   0.9386 B( 22-C , 25-C ) :   1.0580 B( 25-C , 26-H ) :   0.9590
B( 25-C , 27-H ) :   0.9599 B( 25-C , 28-C ) :   1.0731 B( 28-C , 29-H ) :   0.9759
B( 28-C , 30-H ) :   0.9765 B( 28-C , 31-H ) :   0.9779

Dispersion correction           -0.015549270
FINAL SINGLE POINT ENERGY     -1339.869572110768

DIPOLE MOMENT
-------------
                                X             Y             Z
Electronic contribution:    -10.71051     -25.62797       2.70857
Nuclear contribution   :     10.66341      26.30426      -2.90060
                        -----------------------------------------
Total Dipole Moment    :     -0.04710       0.67629      -0.19203
                        -----------------------------------------
Magnitude (a.u.)       :      0.70460
Magnitude (Debye)      :      1.79095

Rotational constants in cm-1:     0.020472     0.009325     0.007412
Rotational constants in MHz :   613.734068   279.563722   222.215426

                             ****ORCA TERMINATED NORMALLY****
TOTAL RUN TIME: 0 days 0 hours 0 minutes 22 seconds 869 msec
