                         Program Version 4.2.1 -  RELEASE  -
|  1> ! wB97X-D3 SP def2-SVP
|  2> %pal
|  3> nprocs 24
|  4> end
|  5>
|  6> * xyz 0 1
|  7> S 	 -138.377 	 68.09 	 -63.9348
|  8> C 	 -138.528 	 68.9711 	 -65.4408
|  9> C 	 -137.992 	 70.3027 	 -65.3022
| 10> C 	 -137.459 	 70.4985 	 -64.0154
| 11> C 	 -137.506 	 69.3987 	 -63.1716
| 12> H 	 -136.979 	 71.3561 	 -63.6548
| 13> C 	 -138.148 	 71.4049 	 -66.3121
| 14> H 	 -138.532 	 70.9153 	 -67.2184
| 15> H 	 -137.11 	 71.8016 	 -66.3834
| 16> C 	 -139.172 	 72.6011 	 -65.9472
| 17> H 	 -138.857 	 73.2387 	 -65.1217
| 18> H 	 -139.213 	 73.2157 	 -66.8604
| 19> C 	 -140.453 	 72.0401 	 -65.5279
| 20> H 	 -140.367 	 71.3275 	 -64.6226
| 21> H 	 -141.084 	 72.8648 	 -65.2436
| 22> H 	 -140.912 	 71.417 	 -66.3381
| 23> S 	 -138.525 	 68.4441 	 -60.8436
| 24> C 	 -137.696 	 68.9005 	 -59.3518
| 25> C 	 -136.587 	 69.6624 	 -59.5614
| 26> C 	 -136.25 	 69.8257 	 -60.9582
| 27> C 	 -137.255 	 69.3682 	 -61.7577
| 28> H 	 -135.997 	 69.9019 	 -58.6849
| 29> C 	 -134.955 	 70.481 	 -61.427
| 30> H 	 -135.04 	 71.5495 	 -61.2851
| 31> H 	 -134.811 	 70.2528 	 -62.47
| 32> C 	 -133.691 	 69.9835 	 -60.6943
| 33> H 	 -132.883 	 69.4833 	 -61.2412
| 34> H 	 -133.932 	 69.1612 	 -60.0813
| 35> C 	 -133.129 	 71.0809 	 -59.8008
| 36> H 	 -133.925 	 71.5255 	 -59.254
| 37> H 	 -132.787 	 71.9136 	 -60.5542
| 38> H 	 -132.308 	 70.9045 	 -59.1485
| 39> H 	 -139.159 	 68.6381 	 -66.2824
| 40> H 	 -138.017 	 68.6998 	 -58.3128
| 41> *
| 42>
| 43>                          ****END OF INPUT****

CARTESIAN COORDINATES (ANGSTROEM)
---------------------------------
  S    -138.377000   68.090000  -63.934800
  C    -138.528000   68.971100  -65.440800
  C    -137.992000   70.302700  -65.302200
  C    -137.459000   70.498500  -64.015400
  C    -137.506000   69.398700  -63.171600
  H    -136.979000   71.356100  -63.654800
  C    -138.148000   71.404900  -66.312100
  H    -138.532000   70.915300  -67.218400
  H    -137.110000   71.801600  -66.383400
  C    -139.172000   72.601100  -65.947200
  H    -138.857000   73.238700  -65.121700
  H    -139.213000   73.215700  -66.860400
  C    -140.453000   72.040100  -65.527900
  H    -140.367000   71.327500  -64.622600
  H    -141.084000   72.864800  -65.243600
  H    -140.912000   71.417000  -66.338100
  S    -138.525000   68.444100  -60.843600
  C    -137.696000   68.900500  -59.351800
  C    -136.587000   69.662400  -59.561400
  C    -136.250000   69.825700  -60.958200
  C    -137.255000   69.368200  -61.757700
  H    -135.997000   69.901900  -58.684900
  C    -134.955000   70.481000  -61.427000
  H    -135.040000   71.549500  -61.285100
  H    -134.811000   70.252800  -62.470000
  C    -133.691000   69.983500  -60.694300
  H    -132.883000   69.483300  -61.241200
  H    -133.932000   69.161200  -60.081300
  C    -133.129000   71.080900  -59.800800
  H    -133.925000   71.525500  -59.254000
  H    -132.787000   71.913600  -60.554200
  H    -132.308000   70.904500  -59.148500
  H    -139.159000   68.638100  -66.282400
  H    -138.017000   68.699800  -58.312800

 Total Charge           Charge          ....    0
 Multiplicity           Mult            ....    1
 Number of Electrons    NEL             ....  134
 Basis Dimension        Dim             ....  322

ORBITAL ENERGIES
----------------

  NO   OCC          E(Eh)            E(eV)
   0   2.0000     -88.968665     -2420.9605
   1   2.0000     -88.964813     -2420.8556
   2   2.0000     -10.328950      -281.0650
   3   2.0000     -10.327555      -281.0271
   4   2.0000     -10.320384      -280.8319
   5   2.0000     -10.318155      -280.7713
   6   2.0000     -10.306860      -280.4639
   7   2.0000     -10.304497      -280.3996
   8   2.0000     -10.298277      -280.2304
   9   2.0000     -10.294771      -280.1350
  10   2.0000     -10.293542      -280.1015
  11   2.0000     -10.289227      -279.9841
  12   2.0000     -10.289161      -279.9823
  13   2.0000     -10.282356      -279.7971
  14   2.0000     -10.280741      -279.7532
  15   2.0000     -10.276332      -279.6332
  16   2.0000      -8.083132      -219.9532
  17   2.0000      -8.078584      -219.8294
  18   2.0000      -6.041591      -164.4000
  19   2.0000      -6.037584      -164.2910
  20   2.0000      -6.037300      -164.2833
  21   2.0000      -6.034058      -164.1951
  22   2.0000      -6.033477      -164.1793
  23   2.0000      -6.028907      -164.0549
  24   2.0000      -1.006206       -27.3803
  25   2.0000      -0.979509       -26.6538
  26   2.0000      -0.913663       -24.8620
  27   2.0000      -0.910543       -24.7771
  28   2.0000      -0.870596       -23.6901
  29   2.0000      -0.856619       -23.3098
  30   2.0000      -0.844716       -22.9859
  31   2.0000      -0.815116       -22.1804
  32   2.0000      -0.781909       -21.2768
  33   2.0000      -0.767143       -20.8750
  34   2.0000      -0.710848       -19.3432
  35   2.0000      -0.701381       -19.0855
  36   2.0000      -0.691489       -18.8164
  37   2.0000      -0.658229       -17.9113
  38   2.0000      -0.640268       -17.4226
  39   2.0000      -0.621903       -16.9229
  40   2.0000      -0.597572       -16.2608
  41   2.0000      -0.565999       -15.4016
  42   2.0000      -0.558470       -15.1967
  43   2.0000      -0.552406       -15.0317
  44   2.0000      -0.541195       -14.7267
  45   2.0000      -0.532425       -14.4880
  46   2.0000      -0.522664       -14.2224
  47   2.0000      -0.516912       -14.0659
  48   2.0000      -0.500868       -13.6293
  49   2.0000      -0.497272       -13.5315
  50   2.0000      -0.486574       -13.2403
  51   2.0000      -0.479038       -13.0353
  52   2.0000      -0.473353       -12.8806
  53   2.0000      -0.462344       -12.5810
  54   2.0000      -0.457624       -12.4526
  55   2.0000      -0.449709       -12.2372
  56   2.0000      -0.445949       -12.1349
  57   2.0000      -0.442089       -12.0299
  58   2.0000      -0.429323       -11.6825
  59   2.0000      -0.425434       -11.5766
  60   2.0000      -0.419520       -11.4157
  61   2.0000      -0.412396       -11.2219
  62   2.0000      -0.406121       -11.0511
  63   2.0000      -0.354073        -9.6348
  64   2.0000      -0.333376        -9.0716
  65   2.0000      -0.329070        -8.9544
  66   2.0000      -0.284005        -7.7282
  67   0.0000       0.021052         0.5729
  68   0.0000       0.070101         1.9076
  69   0.0000       0.100558         2.7363
  70   0.0000       0.118358         3.2207
  71   0.0000       0.134773         3.6674

MULLIKEN ATOMIC CHARGES
-----------------------
   0 S :    0.104156
   1 C :   -0.132444
   2 C :   -0.116468
   3 C :    0.038738
   4 C :   -0.144567
   5 H :   -0.010813
   6 C :    0.055420
   7 H :    0.023615
   8 H :    0.044023
   9 C :   -0.064306
  10 H :    0.030575
  11 H :    0.041468
  12 C :   -0.076595
  13 H :    0.062714
  14 H :    0.034345
  15 H :    0.026832
  16 S :    0.083224
  17 C :   -0.087397
  18 C :   -0.039224
  19 C :   -0.065540
  20 C :   -0.133370
  21 H :    0.023790
  22 C :    0.098143
  23 H :    0.042453
  24 H :    0.031557
  25 C :   -0.053366
  26 H :    0.030826
  27 H :    0.013929
  28 C :   -0.079864
  29 H :    0.022558
  30 H :    0.035486
  31 H :    0.035327
  32 H :    0.063891
  33 H :    0.060885
Sum of atomic charges:    0.0000000

LOEWDIN ATOMIC CHARGES
----------------------
   0 S :    0.411121
   1 C :   -0.212133
   2 C :   -0.064752
   3 C :   -0.058632
   4 C :   -0.194889
   5 H :    0.022150
   6 C :   -0.033130
   7 H :    0.030913
   8 H :    0.037417
   9 C :   -0.041547
  10 H :    0.024343
  11 H :    0.028764
  12 C :   -0.075059
  13 H :    0.040527
  14 H :    0.023980
  15 H :    0.024046
  16 S :    0.356960
  17 C :   -0.177859
  18 C :   -0.074715
  19 C :   -0.053736
  20 C :   -0.167116
  21 H :    0.032759
  22 C :   -0.020916
  23 H :    0.033123
  24 H :    0.034707
  25 C :   -0.045322
  26 H :    0.029242
  27 H :    0.017127
  28 C :   -0.065024
  29 H :    0.015222
  30 H :    0.033531
  31 H :    0.019652
  32 H :    0.032682
  33 H :    0.036562

  Mayer bond orders larger than 0.100000
B(  0-S ,  1-C ) :   1.1539 B(  0-S ,  4-C ) :   1.1526 B(  1-C ,  2-C ) :   1.5442
B(  1-C ,  4-C ) :   0.1025 B(  1-C , 32-H ) :   0.9639 B(  2-C ,  3-C ) :   1.2729
B(  2-C ,  6-C ) :   1.0337 B(  3-C ,  4-C ) :   1.5350 B(  3-C ,  5-H ) :   1.0029
B(  4-C , 20-C ) :   1.0722 B(  6-C ,  7-H ) :   0.9419 B(  6-C ,  8-H ) :   0.9379
B(  6-C ,  9-C ) :   1.0542 B(  9-C , 10-H ) :   0.9537 B(  9-C , 11-H ) :   0.9569
B(  9-C , 12-C ) :   1.0870 B( 12-C , 13-H ) :   0.9640 B( 12-C , 14-H ) :   0.9700
B( 12-C , 15-H ) :   0.9746 B( 16-S , 17-C ) :   1.1191 B( 16-S , 20-C ) :   1.0949
B( 17-C , 18-C ) :   1.6967 B( 17-C , 33-H ) :   0.9577 B( 18-C , 19-C ) :   1.1654
B( 18-C , 21-H ) :   0.9809 B( 19-C , 20-C ) :   1.6672 B( 19-C , 22-C ) :   1.0561
B( 22-C , 23-H ) :   0.9431 B( 22-C , 24-H ) :   0.9248 B( 22-C , 25-C ) :   1.0273
B( 25-C , 26-H ) :   0.9588 B( 25-C , 27-H ) :   0.9623 B( 25-C , 28-C ) :   1.0680
B( 28-C , 29-H ) :   0.9757 B( 28-C , 30-H ) :   0.9765 B( 28-C , 31-H ) :   0.9748

Dispersion correction           -0.014393384
FINAL SINGLE POINT ENERGY     -1339.863398269607

DIPOLE MOMENT
-------------
                                X             Y             Z
Electronic contribution:    -10.30044     -19.17945       3.84088
Nuclear contribution   :     10.55679      19.73303      -3.79074
                        -----------------------------------------
Total Dipole Moment    :      0.25634       0.55358       0.05014
                        -----------------------------------------
Magnitude (a.u.)       :      0.61211
Magnitude (Debye)      :      1.55586

Rotational constants in cm-1:     0.020083     0.008058     0.006774
Rotational constants in MHz :   602.065751   241.561387   203.074210

                             ****ORCA TERMINATED NORMALLY****
TOTAL RUN TIME: 0 days 0 hours 0 minutes 20 seconds 411 msec
