                         Program Version 4.2.1 -  RELEASE  -
|  1> ! wB97X-D3 SP def2-SVP
|  2> %pal
|  3> nprocs 24
|  4> end
|  5>
|  6> * xyz 0 1
|  7> S 	 -145.685 	 27.5471 	 -15.3891
|  8> C 	 -145.633 	 25.8243 	 -15.6808
|  9> C 	 -144.324 	 25.3319 	 -15.6506
| 10> C 	 -143.387 	 26.3406 	 -15.2575
| 11> C 	 -143.925 	 27.5858 	 -15.0414
| 12> H 	 -142.354 	 26.1915 	 -15.0598
| 13> C 	 -143.86 	 23.8879 	 -15.9376
| 14> H 	 -143.399 	 23.3846 	 -15.0934
| 15> H 	 -143.146 	 23.8704 	 -16.7273
| 16> C 	 -145.003 	 22.8953 	 -16.337
| 17> H 	 -145.72 	 22.8226 	 -15.5347
| 18> H 	 -145.574 	 23.2022 	 -17.2687
| 19> C 	 -144.402 	 21.4692 	 -16.5507
| 20> H 	 -143.684 	 21.076 	 -15.8506
| 21> H 	 -145.085 	 20.639 	 -16.8963
| 22> H 	 -143.788 	 21.5092 	 -17.4625
| 23> S 	 -144.003 	 29.6376 	 -13.1808
| 24> C 	 -142.618 	 30.6779 	 -12.9887
| 25> C 	 -141.611 	 30.3984 	 -13.881
| 26> C 	 -141.955 	 29.3127 	 -14.7271
| 27> C 	 -143.205 	 28.7628 	 -14.5216
| 28> H 	 -140.81 	 31.1439 	 -13.9602
| 29> C 	 -140.988 	 28.838 	 -15.7692
| 30> H 	 -140.765 	 27.779 	 -15.5583
| 31> H 	 -140.131 	 29.515 	 -15.6921
| 32> C 	 -141.606 	 28.9557 	 -17.2062
| 33> H 	 -142.075 	 29.8916 	 -17.2797
| 34> H 	 -142.336 	 28.1544 	 -17.2469
| 35> C 	 -140.648 	 28.5612 	 -18.3968
| 36> H 	 -140.11 	 27.6769 	 -18.321
| 37> H 	 -139.992 	 29.458 	 -18.4302
| 38> H 	 -141.129 	 28.5806 	 -19.3711
| 39> H 	 -146.535 	 25.2718 	 -15.9027
| 40> H 	 -142.726 	 31.5422 	 -12.3165
| 41> *
| 42>
| 43>                          ****END OF INPUT****

CARTESIAN COORDINATES (ANGSTROEM)
---------------------------------
  S    -145.685000   27.547100  -15.389100
  C    -145.633000   25.824300  -15.680800
  C    -144.324000   25.331900  -15.650600
  C    -143.387000   26.340600  -15.257500
  C    -143.925000   27.585800  -15.041400
  H    -142.354000   26.191500  -15.059800
  C    -143.860000   23.887900  -15.937600
  H    -143.399000   23.384600  -15.093400
  H    -143.146000   23.870400  -16.727300
  C    -145.003000   22.895300  -16.337000
  H    -145.720000   22.822600  -15.534700
  H    -145.574000   23.202200  -17.268700
  C    -144.402000   21.469200  -16.550700
  H    -143.684000   21.076000  -15.850600
  H    -145.085000   20.639000  -16.896300
  H    -143.788000   21.509200  -17.462500
  S    -144.003000   29.637600  -13.180800
  C    -142.618000   30.677900  -12.988700
  C    -141.611000   30.398400  -13.881000
  C    -141.955000   29.312700  -14.727100
  C    -143.205000   28.762800  -14.521600
  H    -140.810000   31.143900  -13.960200
  C    -140.988000   28.838000  -15.769200
  H    -140.765000   27.779000  -15.558300
  H    -140.131000   29.515000  -15.692100
  C    -141.606000   28.955700  -17.206200
  H    -142.075000   29.891600  -17.279700
  H    -142.336000   28.154400  -17.246900
  C    -140.648000   28.561200  -18.396800
  H    -140.110000   27.676900  -18.321000
  H    -139.992000   29.458000  -18.430200
  H    -141.129000   28.580600  -19.371100
  H    -146.535000   25.271800  -15.902700
  H    -142.726000   31.542200  -12.316500

 Total Charge           Charge          ....    0
 Multiplicity           Mult            ....    1
 Number of Electrons    NEL             ....  134
 Basis Dimension        Dim             ....  322

ORBITAL ENERGIES
----------------

  NO   OCC          E(Eh)            E(eV)
   0   2.0000     -88.967879     -2420.9391
   1   2.0000     -88.962284     -2420.7868
   2   2.0000     -10.334989      -281.2294
   3   2.0000     -10.329374      -281.0766
   4   2.0000     -10.319621      -280.8112
   5   2.0000     -10.319337      -280.8034
   6   2.0000     -10.308872      -280.5187
   7   2.0000     -10.303352      -280.3685
   8   2.0000     -10.297852      -280.2188
   9   2.0000     -10.297568      -280.2111
  10   2.0000     -10.296325      -280.1772
  11   2.0000     -10.293020      -280.0873
  12   2.0000     -10.291947      -280.0581
  13   2.0000     -10.284206      -279.8475
  14   2.0000     -10.280613      -279.7497
  15   2.0000     -10.274475      -279.5827
  16   2.0000      -8.081919      -219.9202
  17   2.0000      -8.076988      -219.7860
  18   2.0000      -6.040540      -164.3715
  19   2.0000      -6.036571      -164.2635
  20   2.0000      -6.035416      -164.2320
  21   2.0000      -6.032558      -164.1543
  22   2.0000      -6.031434      -164.1237
  23   2.0000      -6.027893      -164.0273
  24   2.0000      -1.003498       -27.3066
  25   2.0000      -0.982590       -26.7376
  26   2.0000      -0.906168       -24.6581
  27   2.0000      -0.904502       -24.6128
  28   2.0000      -0.867143       -23.5962
  29   2.0000      -0.850357       -23.1394
  30   2.0000      -0.845224       -22.9997
  31   2.0000      -0.813604       -22.1393
  32   2.0000      -0.780470       -21.2377
  33   2.0000      -0.769437       -20.9374
  34   2.0000      -0.713450       -19.4140
  35   2.0000      -0.704360       -19.1666
  36   2.0000      -0.685637       -18.6571
  37   2.0000      -0.666294       -18.1308
  38   2.0000      -0.644655       -17.5420
  39   2.0000      -0.616943       -16.7879
  40   2.0000      -0.592710       -16.1285
  41   2.0000      -0.570348       -15.5200
  42   2.0000      -0.568871       -15.4798
  43   2.0000      -0.564711       -15.3666
  44   2.0000      -0.523195       -14.2369
  45   2.0000      -0.520067       -14.1517
  46   2.0000      -0.514556       -14.0018
  47   2.0000      -0.511036       -13.9060
  48   2.0000      -0.501657       -13.6508
  49   2.0000      -0.498025       -13.5520
  50   2.0000      -0.491252       -13.3677
  51   2.0000      -0.485699       -13.2165
  52   2.0000      -0.477115       -12.9830
  53   2.0000      -0.465214       -12.6591
  54   2.0000      -0.455938       -12.4067
  55   2.0000      -0.450747       -12.2655
  56   2.0000      -0.445200       -12.1145
  57   2.0000      -0.434840       -11.8326
  58   2.0000      -0.431241       -11.7347
  59   2.0000      -0.426122       -11.5954
  60   2.0000      -0.422418       -11.4946
  61   2.0000      -0.419193       -11.4068
  62   2.0000      -0.401407       -10.9228
  63   2.0000      -0.350785        -9.5454
  64   2.0000      -0.332485        -9.0474
  65   2.0000      -0.330511        -8.9937
  66   2.0000      -0.291288        -7.9263
  67   0.0000       0.024891         0.6773
  68   0.0000       0.072323         1.9680
  69   0.0000       0.108617         2.9556
  70   0.0000       0.121132         3.2962
  71   0.0000       0.135883         3.6976

MULLIKEN ATOMIC CHARGES
-----------------------
   0 S :    0.108504
   1 C :   -0.134532
   2 C :   -0.055119
   3 C :    0.027600
   4 C :   -0.129498
   5 H :   -0.001376
   6 C :    0.061935
   7 H :    0.037513
   8 H :    0.027533
   9 C :   -0.100274
  10 H :    0.036078
  11 H :    0.046497
  12 C :   -0.072143
  13 H :    0.031688
  14 H :    0.042366
  15 H :    0.013918
  16 S :    0.088853
  17 C :   -0.109002
  18 C :   -0.035299
  19 C :   -0.056008
  20 C :   -0.144381
  21 H :    0.034063
  22 C :    0.075362
  23 H :    0.035297
  24 H :    0.014491
  25 C :   -0.090115
  26 H :    0.027985
  27 H :    0.039314
  28 C :   -0.027075
  29 H :    0.025035
  30 H :    0.023537
  31 H :    0.032867
  32 H :    0.054695
  33 H :    0.069691
Sum of atomic charges:   -0.0000000

LOEWDIN ATOMIC CHARGES
----------------------
   0 S :    0.387432
   1 C :   -0.193752
   2 C :   -0.060334
   3 C :   -0.058758
   4 C :   -0.177722
   5 H :    0.026433
   6 C :   -0.025331
   7 H :    0.034304
   8 H :    0.027141
   9 C :   -0.041391
  10 H :    0.018658
  11 H :    0.031157
  12 C :   -0.083096
  13 H :    0.022369
  14 H :    0.034851
  15 H :    0.025059
  16 S :    0.391201
  17 C :   -0.177986
  18 C :   -0.081961
  19 C :   -0.057746
  20 C :   -0.187563
  21 H :    0.040318
  22 C :   -0.027215
  23 H :    0.031636
  24 H :    0.026383
  25 C :   -0.031024
  26 H :    0.018294
  27 H :    0.022625
  28 C :   -0.062668
  29 H :    0.015004
  30 H :    0.026631
  31 H :    0.027679
  32 H :    0.027901
  33 H :    0.031469

  Mayer bond orders larger than 0.100000
B(  0-S ,  1-C ) :   1.1335 B(  0-S ,  4-C ) :   1.1345 B(  1-C ,  2-C ) :   1.6145
B(  1-C , 32-H ) :   0.9653 B(  2-C ,  3-C ) :   1.2410 B(  2-C ,  6-C ) :   1.0060
B(  3-C ,  4-C ) :   1.5858 B(  3-C ,  5-H ) :   0.9991 B(  4-C , 20-C ) :   1.0466
B(  6-C ,  7-H ) :   0.9446 B(  6-C ,  8-H ) :   0.9449 B(  6-C ,  9-C ) :   1.0689
B(  9-C , 10-H ) :   0.9567 B(  9-C , 11-H ) :   0.9551 B(  9-C , 12-C ) :   1.0708
B( 12-C , 13-H ) :   0.9772 B( 12-C , 14-H ) :   0.9735 B( 12-C , 15-H ) :   0.9716
B( 16-S , 17-C ) :   1.1754 B( 16-S , 20-C ) :   1.1256 B( 17-C , 18-C ) :   1.5991
B( 17-C , 20-C ) :   0.1001 B( 17-C , 33-H ) :   0.9612 B( 18-C , 19-C ) :   1.2428
B( 18-C , 21-H ) :   0.9879 B( 19-C , 20-C ) :   1.5944 B( 19-C , 22-C ) :   1.0480
B( 22-C , 23-H ) :   0.9293 B( 22-C , 24-H ) :   0.9341 B( 22-C , 25-C ) :   1.0607
B( 25-C , 26-H ) :   0.9634 B( 25-C , 27-H ) :   0.9533 B( 25-C , 28-C ) :   1.0743
B( 28-C , 29-H ) :   0.9766 B( 28-C , 30-H ) :   0.9786 B( 28-C , 31-H ) :   0.9759

Dispersion correction           -0.014001019
FINAL SINGLE POINT ENERGY     -1339.875487250018

DIPOLE MOMENT
-------------
                                X             Y             Z
Electronic contribution:    -12.58593      19.78837      17.29843
Nuclear contribution   :     13.03294     -20.07278     -17.57457
                        -----------------------------------------
Total Dipole Moment    :      0.44701      -0.28441      -0.27614
                        -----------------------------------------
Magnitude (a.u.)       :      0.59746
Magnitude (Debye)      :      1.51863

Rotational constants in cm-1:     0.019871     0.007772     0.006293
Rotational constants in MHz :   595.719273   232.995800   188.645237

                             ****ORCA TERMINATED NORMALLY****
TOTAL RUN TIME: 0 days 0 hours 0 minutes 21 seconds 255 msec
