                         Program Version 4.2.1 -  RELEASE  -
|  1> ! wB97X-D3 SP def2-SVP
|  2> %pal
|  3> nprocs 24
|  4> end
|  5>
|  6> * xyz 0 1
|  7> S 	 40.6517 	 -12.3114 	 -123.004
|  8> C 	 42.0981 	 -11.9491 	 -121.998
|  9> C 	 43.1334 	 -12.8634 	 -122.21
| 10> C 	 42.7793 	 -13.7735 	 -123.269
| 11> C 	 41.4854 	 -13.6552 	 -123.69
| 12> H 	 43.3253 	 -14.5044 	 -123.791
| 13> C 	 44.477 	 -13.036 	 -121.458
| 14> H 	 45.2395 	 -13.3111 	 -122.196
| 15> H 	 44.5369 	 -13.952 	 -120.872
| 16> C 	 44.9889 	 -11.8071 	 -120.75
| 17> H 	 44.2519 	 -11.5292 	 -119.996
| 18> H 	 45.886 	 -12.1141 	 -120.205
| 19> C 	 45.341 	 -10.6967 	 -121.645
| 20> H 	 45.9909 	 -11.1503 	 -122.458
| 21> H 	 44.4191 	 -10.3442 	 -122.088
| 22> H 	 45.8376 	 -9.89825 	 -121.122
| 23> S 	 39.5535 	 -15.341 	 -124.377
| 24> C 	 39.3202 	 -15.9251 	 -126.021
| 25> C 	 40.3327 	 -15.3783 	 -126.798
| 26> C 	 41.2575 	 -14.5401 	 -126.115
| 27> C 	 40.9437 	 -14.4243 	 -124.774
| 28> H 	 40.3476 	 -15.6152 	 -127.842
| 29> C 	 42.3662 	 -13.7619 	 -126.879
| 30> H 	 42.5706 	 -12.9739 	 -126.2
| 31> H 	 41.8851 	 -13.1552 	 -127.666
| 32> C 	 43.511 	 -14.6523 	 -127.446
| 33> H 	 42.9946 	 -14.9823 	 -128.329
| 34> H 	 43.7061 	 -15.5414 	 -126.83
| 35> C 	 44.7868 	 -13.8442 	 -127.651
| 36> H 	 45.1245 	 -13.3735 	 -126.764
| 37> H 	 44.7408 	 -13.1133 	 -128.414
| 38> H 	 45.585 	 -14.539 	 -127.976
| 39> H 	 42.2482 	 -11.1894 	 -121.261
| 40> H 	 38.4866 	 -16.4665 	 -126.495
| 41> *
| 42>
| 43>                          ****END OF INPUT****

CARTESIAN COORDINATES (ANGSTROEM)
---------------------------------
  S     40.651700  -12.311400  -123.004000
  C     42.098100  -11.949100  -121.998000
  C     43.133400  -12.863400  -122.210000
  C     42.779300  -13.773500  -123.269000
  C     41.485400  -13.655200  -123.690000
  H     43.325300  -14.504400  -123.791000
  C     44.477000  -13.036000  -121.458000
  H     45.239500  -13.311100  -122.196000
  H     44.536900  -13.952000  -120.872000
  C     44.988900  -11.807100  -120.750000
  H     44.251900  -11.529200  -119.996000
  H     45.886000  -12.114100  -120.205000
  C     45.341000  -10.696700  -121.645000
  H     45.990900  -11.150300  -122.458000
  H     44.419100  -10.344200  -122.088000
  H     45.837600   -9.898250  -121.122000
  S     39.553500  -15.341000  -124.377000
  C     39.320200  -15.925100  -126.021000
  C     40.332700  -15.378300  -126.798000
  C     41.257500  -14.540100  -126.115000
  C     40.943700  -14.424300  -124.774000
  H     40.347600  -15.615200  -127.842000
  C     42.366200  -13.761900  -126.879000
  H     42.570600  -12.973900  -126.200000
  H     41.885100  -13.155200  -127.666000
  C     43.511000  -14.652300  -127.446000
  H     42.994600  -14.982300  -128.329000
  H     43.706100  -15.541400  -126.830000
  C     44.786800  -13.844200  -127.651000
  H     45.124500  -13.373500  -126.764000
  H     44.740800  -13.113300  -128.414000
  H     45.585000  -14.539000  -127.976000
  H     42.248200  -11.189400  -121.261000
  H     38.486600  -16.466500  -126.495000

 Total Charge           Charge          ....    0
 Multiplicity           Mult            ....    1
 Number of Electrons    NEL             ....  134
 Basis Dimension        Dim             ....  322

ORBITAL ENERGIES
----------------

  NO   OCC          E(Eh)            E(eV)
   0   2.0000     -88.971306     -2421.0323
   1   2.0000     -88.962639     -2420.7965
   2   2.0000     -10.321641      -280.8661
   3   2.0000     -10.319656      -280.8121
   4   2.0000     -10.319034      -280.7952
   5   2.0000     -10.317040      -280.7409
   6   2.0000     -10.309106      -280.5250
   7   2.0000     -10.300896      -280.3016
   8   2.0000     -10.295667      -280.1593
   9   2.0000     -10.289361      -279.9878
  10   2.0000     -10.288909      -279.9755
  11   2.0000     -10.288563      -279.9660
  12   2.0000     -10.288225      -279.9568
  13   2.0000     -10.281308      -279.7686
  14   2.0000     -10.275418      -279.6083
  15   2.0000     -10.274579      -279.5855
  16   2.0000      -8.085378      -220.0143
  17   2.0000      -8.077846      -219.8094
  18   2.0000      -6.043986      -164.4652
  19   2.0000      -6.040086      -164.3591
  20   2.0000      -6.036355      -164.2576
  21   2.0000      -6.035937      -164.2462
  22   2.0000      -6.032091      -164.1415
  23   2.0000      -6.028759      -164.0509
  24   2.0000      -1.010759       -27.5042
  25   2.0000      -0.982387       -26.7321
  26   2.0000      -0.922532       -25.1034
  27   2.0000      -0.905268       -24.6336
  28   2.0000      -0.871991       -23.7281
  29   2.0000      -0.852440       -23.1961
  30   2.0000      -0.847353       -23.0576
  31   2.0000      -0.812861       -22.1191
  32   2.0000      -0.787797       -21.4371
  33   2.0000      -0.775175       -21.0936
  34   2.0000      -0.709800       -19.3146
  35   2.0000      -0.704822       -19.1792
  36   2.0000      -0.694688       -18.9034
  37   2.0000      -0.660438       -17.9714
  38   2.0000      -0.643243       -17.5035
  39   2.0000      -0.608183       -16.5495
  40   2.0000      -0.591656       -16.0998
  41   2.0000      -0.581156       -15.8141
  42   2.0000      -0.563708       -15.3393
  43   2.0000      -0.561838       -15.2884
  44   2.0000      -0.543468       -14.7885
  45   2.0000      -0.526902       -14.3377
  46   2.0000      -0.516390       -14.0517
  47   2.0000      -0.511956       -13.9310
  48   2.0000      -0.503404       -13.6983
  49   2.0000      -0.496643       -13.5144
  50   2.0000      -0.492595       -13.4042
  51   2.0000      -0.480386       -13.0720
  52   2.0000      -0.477801       -13.0016
  53   2.0000      -0.467602       -12.7241
  54   2.0000      -0.462798       -12.5934
  55   2.0000      -0.444424       -12.0934
  56   2.0000      -0.443012       -12.0550
  57   2.0000      -0.440706       -11.9922
  58   2.0000      -0.432266       -11.7626
  59   2.0000      -0.422493       -11.4966
  60   2.0000      -0.419311       -11.4100
  61   2.0000      -0.417975       -11.3737
  62   2.0000      -0.411522       -11.1981
  63   2.0000      -0.338291        -9.2054
  64   2.0000      -0.333605        -9.0779
  65   2.0000      -0.327109        -8.9011
  66   2.0000      -0.300330        -8.1724
  67   0.0000       0.038016         1.0345
  68   0.0000       0.066230         1.8022
  69   0.0000       0.110867         3.0168
  70   0.0000       0.113907         3.0996
  71   0.0000       0.130797         3.5592

MULLIKEN ATOMIC CHARGES
-----------------------
   0 S :    0.131960
   1 C :   -0.114345
   2 C :   -0.075499
   3 C :    0.041709
   4 C :   -0.145852
   5 H :   -0.008608
   6 C :    0.062694
   7 H :    0.011450
   8 H :    0.042564
   9 C :   -0.083147
  10 H :    0.026811
  11 H :    0.022947
  12 C :   -0.024943
  13 H :    0.030937
  14 H :    0.025522
  15 H :    0.039305
  16 S :    0.107316
  17 C :   -0.098735
  18 C :   -0.049720
  19 C :   -0.021300
  20 C :   -0.207375
  21 H :    0.010336
  22 C :    0.060684
  23 H :    0.009181
  24 H :    0.030314
  25 C :   -0.062571
  26 H :    0.027726
  27 H :    0.042659
  28 C :   -0.012264
  29 H :    0.027674
  30 H :    0.021160
  31 H :    0.030026
  32 H :    0.034620
  33 H :    0.066763
Sum of atomic charges:    0.0000000

LOEWDIN ATOMIC CHARGES
----------------------
   0 S :    0.405463
   1 C :   -0.188320
   2 C :   -0.050629
   3 C :   -0.052570
   4 C :   -0.208669
   5 H :    0.025212
   6 C :   -0.033261
   7 H :    0.030220
   8 H :    0.037289
   9 C :   -0.051994
  10 H :    0.020291
  11 H :    0.026691
  12 C :   -0.061135
  13 H :    0.033082
  14 H :    0.022442
  15 H :    0.025718
  16 S :    0.422066
  17 C :   -0.197840
  18 C :   -0.072211
  19 C :   -0.059300
  20 C :   -0.214779
  21 H :    0.025337
  22 C :   -0.031775
  23 H :    0.020346
  24 H :    0.034304
  25 C :   -0.036302
  26 H :    0.025238
  27 H :    0.028071
  28 C :   -0.057986
  29 H :    0.022252
  30 H :    0.020330
  31 H :    0.030508
  32 H :    0.021648
  33 H :    0.040262

  Mayer bond orders larger than 0.100000
B(  0-S ,  1-C ) :   1.1175 B(  0-S ,  4-C ) :   1.1370 B(  1-C ,  2-C ) :   1.6488
B(  1-C , 32-H ) :   0.9622 B(  2-C ,  3-C ) :   1.1899 B(  2-C ,  6-C ) :   0.9993
B(  3-C ,  4-C ) :   1.6180 B(  3-C ,  5-H ) :   1.0060 B(  4-C , 20-C ) :   1.0130
B(  6-C ,  7-H ) :   0.9357 B(  6-C ,  8-H ) :   0.9379 B(  6-C ,  9-C ) :   1.0860
B(  9-C , 10-H ) :   0.9465 B(  9-C , 11-H ) :   0.9469 B(  9-C , 12-C ) :   1.0885
B( 12-C , 13-H ) :   0.9694 B( 12-C , 14-H ) :   0.9704 B( 12-C , 15-H ) :   0.9716
B( 16-S , 17-C ) :   1.1464 B( 16-S , 20-C ) :   1.1628 B( 17-C , 18-C ) :   1.6103
B( 17-C , 20-C ) :   0.1032 B( 17-C , 33-H ) :   0.9654 B( 18-C , 19-C ) :   1.2461
B( 18-C , 21-H ) :   0.9890 B( 19-C , 20-C ) :   1.5886 B( 19-C , 22-C ) :   1.0302
B( 22-C , 23-H ) :   0.9408 B( 22-C , 24-H ) :   0.9428 B( 22-C , 25-C ) :   1.0169
B( 25-C , 26-H ) :   0.9565 B( 25-C , 27-H ) :   0.9661 B( 25-C , 28-C ) :   1.0855
B( 28-C , 29-H ) :   0.9771 B( 28-C , 30-H ) :   0.9733 B( 28-C , 31-H ) :   0.9736

Dispersion correction           -0.014285126
FINAL SINGLE POINT ENERGY     -1339.869160148694

DIPOLE MOMENT
-------------
                                X             Y             Z
Electronic contribution:    -27.66022      -7.00239       4.69718
Nuclear contribution   :     28.30255       7.04665      -4.95760
                        -----------------------------------------
Total Dipole Moment    :      0.64233       0.04426      -0.26042
                        -----------------------------------------
Magnitude (a.u.)       :      0.69452
Magnitude (Debye)      :      1.76533

Rotational constants in cm-1:     0.018713     0.008797     0.006593
Rotational constants in MHz :   560.998936   263.719958   197.655510

                             ****ORCA TERMINATED NORMALLY****
TOTAL RUN TIME: 0 days 0 hours 0 minutes 21 seconds 543 msec
