                         Program Version 4.2.1 -  RELEASE  -
|  1> ! wB97X-D3 SP def2-SVP
|  2> %pal
|  3> nprocs 24
|  4> end
|  5>
|  6> * xyz 0 1
|  7> S 	 -107.586 	 1.40706 	 -112.723
|  8> C 	 -109.262 	 1.42132 	 -112.342
|  9> C 	 -109.924 	 0.281564 	 -112.835
| 10> C 	 -108.987 	 -0.637609 	 -113.364
| 11> C 	 -107.697 	 -0.142433 	 -113.551
| 12> H 	 -109.268 	 -1.5734 	 -113.853
| 13> C 	 -111.39 	 -0.050064 	 -112.703
| 14> H 	 -111.538 	 -0.517981 	 -111.665
| 15> H 	 -111.591 	 -0.85328 	 -113.373
| 16> C 	 -112.487 	 0.959007 	 -112.891
| 17> H 	 -112.454 	 1.70732 	 -112.08
| 18> H 	 -112.232 	 1.53996 	 -113.75
| 19> C 	 -113.921 	 0.455476 	 -113.155
| 20> H 	 -113.841 	 -0.224837 	 -113.986
| 21> H 	 -114.355 	 -0.15098 	 -112.316
| 22> H 	 -114.644 	 1.17518 	 -113.472
| 23> S 	 -105.887 	 0.256199 	 -115.502
| 24> C 	 -104.956 	 -1.07006 	 -116.176
| 25> C 	 -104.881 	 -2.06623 	 -115.195
| 26> C 	 -105.907 	 -1.92351 	 -114.148
| 27> C 	 -106.534 	 -0.710008 	 -114.24
| 28> H 	 -104.189 	 -2.86596 	 -115.319
| 29> C 	 -106.111 	 -2.95518 	 -113.162
| 30> H 	 -106.449 	 -2.37845 	 -112.323
| 31> H 	 -105.179 	 -3.2987 	 -112.703
| 32> C 	 -107.112 	 -4.10195 	 -113.422
| 33> H 	 -108.024 	 -3.66282 	 -113.789
| 34> H 	 -107.217 	 -4.61603 	 -112.443
| 35> C 	 -106.735 	 -5.01409 	 -114.595
| 36> H 	 -105.83 	 -5.59707 	 -114.467
| 37> H 	 -106.863 	 -4.46384 	 -115.516
| 38> H 	 -107.422 	 -5.863 	 -114.686
| 39> H 	 -109.689 	 2.19004 	 -111.781
| 40> H 	 -104.154 	 -1.00709 	 -116.956
| 41> *
| 42>
| 43>                          ****END OF INPUT****

CARTESIAN COORDINATES (ANGSTROEM)
---------------------------------
  S    -107.586000    1.407060  -112.723000
  C    -109.262000    1.421320  -112.342000
  C    -109.924000    0.281564  -112.835000
  C    -108.987000   -0.637609  -113.364000
  C    -107.697000   -0.142433  -113.551000
  H    -109.268000   -1.573400  -113.853000
  C    -111.390000   -0.050064  -112.703000
  H    -111.538000   -0.517981  -111.665000
  H    -111.591000   -0.853280  -113.373000
  C    -112.487000    0.959007  -112.891000
  H    -112.454000    1.707320  -112.080000
  H    -112.232000    1.539960  -113.750000
  C    -113.921000    0.455476  -113.155000
  H    -113.841000   -0.224837  -113.986000
  H    -114.355000   -0.150980  -112.316000
  H    -114.644000    1.175180  -113.472000
  S    -105.887000    0.256199  -115.502000
  C    -104.956000   -1.070060  -116.176000
  C    -104.881000   -2.066230  -115.195000
  C    -105.907000   -1.923510  -114.148000
  C    -106.534000   -0.710008  -114.240000
  H    -104.189000   -2.865960  -115.319000
  C    -106.111000   -2.955180  -113.162000
  H    -106.449000   -2.378450  -112.323000
  H    -105.179000   -3.298700  -112.703000
  C    -107.112000   -4.101950  -113.422000
  H    -108.024000   -3.662820  -113.789000
  H    -107.217000   -4.616030  -112.443000
  C    -106.735000   -5.014090  -114.595000
  H    -105.830000   -5.597070  -114.467000
  H    -106.863000   -4.463840  -115.516000
  H    -107.422000   -5.863000  -114.686000
  H    -109.689000    2.190040  -111.781000
  H    -104.154000   -1.007090  -116.956000

 Total Charge           Charge          ....    0
 Multiplicity           Mult            ....    1
 Number of Electrons    NEL             ....  134
 Basis Dimension        Dim             ....  322

ORBITAL ENERGIES
----------------

  NO   OCC          E(Eh)            E(eV)
   0   2.0000     -88.967295     -2420.9232
   1   2.0000     -88.962415     -2420.7904
   2   2.0000     -10.332886      -281.1721
   3   2.0000     -10.324996      -280.9574
   4   2.0000     -10.320724      -280.8412
   5   2.0000     -10.311444      -280.5886
   6   2.0000     -10.305487      -280.4266
   7   2.0000     -10.300792      -280.2988
   8   2.0000     -10.297028      -280.1964
   9   2.0000     -10.296078      -280.1705
  10   2.0000     -10.294605      -280.1305
  11   2.0000     -10.289788      -279.9994
  12   2.0000     -10.286068      -279.8981
  13   2.0000     -10.282281      -279.7951
  14   2.0000     -10.280659      -279.7510
  15   2.0000     -10.274500      -279.5834
  16   2.0000      -8.082350      -219.9319
  17   2.0000      -8.077861      -219.8098
  18   2.0000      -6.040694      -164.3756
  19   2.0000      -6.036700      -164.2670
  20   2.0000      -6.036493      -164.2613
  21   2.0000      -6.033385      -164.1768
  22   2.0000      -6.032290      -164.1470
  23   2.0000      -6.028387      -164.0407
  24   2.0000      -1.010047       -27.4848
  25   2.0000      -0.986853       -26.8536
  26   2.0000      -0.914483       -24.8843
  27   2.0000      -0.912884       -24.8408
  28   2.0000      -0.869319       -23.6554
  29   2.0000      -0.854407       -23.2496
  30   2.0000      -0.849045       -23.1037
  31   2.0000      -0.816380       -22.2148
  32   2.0000      -0.785319       -21.3696
  33   2.0000      -0.774847       -21.0847
  34   2.0000      -0.710512       -19.3340
  35   2.0000      -0.705057       -19.1856
  36   2.0000      -0.689300       -18.7568
  37   2.0000      -0.665438       -18.1075
  38   2.0000      -0.646412       -17.5898
  39   2.0000      -0.615354       -16.7446
  40   2.0000      -0.598933       -16.2978
  41   2.0000      -0.572549       -15.5799
  42   2.0000      -0.565230       -15.3807
  43   2.0000      -0.551265       -15.0007
  44   2.0000      -0.543545       -14.7906
  45   2.0000      -0.526126       -14.3166
  46   2.0000      -0.517742       -14.0885
  47   2.0000      -0.511805       -13.9269
  48   2.0000      -0.507764       -13.8169
  49   2.0000      -0.501157       -13.6372
  50   2.0000      -0.492041       -13.3891
  51   2.0000      -0.481245       -13.0953
  52   2.0000      -0.476647       -12.9702
  53   2.0000      -0.465072       -12.6552
  54   2.0000      -0.459244       -12.4967
  55   2.0000      -0.453424       -12.3383
  56   2.0000      -0.444800       -12.1036
  57   2.0000      -0.436711       -11.8835
  58   2.0000      -0.428019       -11.6470
  59   2.0000      -0.424706       -11.5568
  60   2.0000      -0.418471       -11.3872
  61   2.0000      -0.415436       -11.3046
  62   2.0000      -0.406769       -11.0687
  63   2.0000      -0.347556        -9.4575
  64   2.0000      -0.331434        -9.0188
  65   2.0000      -0.322107        -8.7650
  66   2.0000      -0.294513        -8.0141
  67   0.0000       0.032618         0.8876
  68   0.0000       0.061060         1.6615
  69   0.0000       0.107178         2.9165
  70   0.0000       0.118493         3.2244
  71   0.0000       0.126941         3.4542

MULLIKEN ATOMIC CHARGES
-----------------------
   0 S :    0.115989
   1 C :   -0.102318
   2 C :   -0.088765
   3 C :    0.029748
   4 C :   -0.160278
   5 H :    0.018487
   6 C :    0.064173
   7 H :    0.049024
   8 H :    0.001766
   9 C :   -0.066907
  10 H :    0.024982
  11 H :    0.019930
  12 C :   -0.046322
  13 H :    0.018952
  14 H :    0.037099
  15 H :    0.037922
  16 S :    0.106353
  17 C :   -0.106974
  18 C :   -0.031375
  19 C :   -0.051748
  20 C :   -0.140543
  21 H :    0.014914
  22 C :    0.054972
  23 H :    0.011731
  24 H :    0.020809
  25 C :   -0.028411
  26 H :    0.014202
  27 H :    0.040582
  28 C :   -0.056273
  29 H :    0.024573
  30 H :    0.044982
  31 H :    0.020853
  32 H :    0.031241
  33 H :    0.076632
Sum of atomic charges:   -0.0000000

LOEWDIN ATOMIC CHARGES
----------------------
   0 S :    0.421949
   1 C :   -0.196937
   2 C :   -0.061864
   3 C :   -0.062815
   4 C :   -0.193408
   5 H :    0.030474
   6 C :   -0.037698
   7 H :    0.044288
   8 H :    0.023341
   9 C :   -0.046278
  10 H :    0.021194
  11 H :    0.022981
  12 C :   -0.062449
  13 H :    0.022877
  14 H :    0.029095
  15 H :    0.027256
  16 S :    0.416387
  17 C :   -0.200571
  18 C :   -0.057388
  19 C :   -0.060253
  20 C :   -0.209409
  21 H :    0.024462
  22 C :   -0.048395
  23 H :    0.033603
  24 H :    0.035000
  25 C :   -0.028856
  26 H :    0.021404
  27 H :    0.030847
  28 C :   -0.073244
  29 H :    0.021893
  30 H :    0.028926
  31 H :    0.027534
  32 H :    0.015067
  33 H :    0.040989

  Mayer bond orders larger than 0.100000
B(  0-S ,  1-C ) :   1.1640 B(  0-S ,  4-C ) :   1.1641 B(  1-C ,  2-C ) :   1.5549
B(  1-C ,  4-C ) :   0.1103 B(  1-C , 32-H ) :   0.9815 B(  2-C ,  3-C ) :   1.2880
B(  2-C ,  6-C ) :   1.0313 B(  3-C ,  4-C ) :   1.5615 B(  3-C ,  5-H ) :   0.9822
B(  4-C , 20-C ) :   1.0047 B(  6-C ,  7-H ) :   0.9249 B(  6-C ,  8-H ) :   0.9378
B(  6-C ,  9-C ) :   1.0686 B(  9-C , 10-H ) :   0.9486 B(  9-C , 11-H ) :   0.9551
B(  9-C , 12-C ) :   1.0854 B( 12-C , 13-H ) :   0.9718 B( 12-C , 14-H ) :   0.9766
B( 12-C , 15-H ) :   0.9750 B( 16-S , 17-C ) :   1.1436 B( 16-S , 20-C ) :   1.1456
B( 17-C , 18-C ) :   1.6220 B( 17-C , 33-H ) :   0.9582 B( 18-C , 19-C ) :   1.2045
B( 18-C , 21-H ) :   0.9901 B( 19-C , 20-C ) :   1.6081 B( 19-C , 22-C ) :   1.0658
B( 22-C , 23-H ) :   0.9149 B( 22-C , 24-H ) :   0.9298 B( 22-C , 25-C ) :   1.0686
B( 25-C , 26-H ) :   0.9510 B( 25-C , 27-H ) :   0.9536 B( 25-C , 28-C ) :   1.0856
B( 28-C , 29-H ) :   0.9736 B( 28-C , 30-H ) :   0.9721 B( 28-C , 31-H ) :   0.9694

Dispersion correction           -0.014146867
FINAL SINGLE POINT ENERGY     -1339.864696246409

DIPOLE MOMENT
-------------
                                X             Y             Z
Electronic contribution:     20.30168      17.09553      -3.50681
Nuclear contribution   :    -20.59251     -17.59108       3.63152
                        -----------------------------------------
Total Dipole Moment    :     -0.29083      -0.49555       0.12472
                        -----------------------------------------
Magnitude (a.u.)       :      0.58797
Magnitude (Debye)      :      1.49449

Rotational constants in cm-1:     0.020198     0.007596     0.006270
Rotational constants in MHz :   605.516405   227.720704   187.964713

                             ****ORCA TERMINATED NORMALLY****
TOTAL RUN TIME: 0 days 0 hours 0 minutes 21 seconds 321 msec
