                         Program Version 4.2.1 -  RELEASE  -
|  1> ! wB97X-D3 SP def2-SVP
|  2> %pal
|  3> nprocs 24
|  4> end
|  5>
|  6> * xyz 0 1
|  7> S 	 -80.8425 	 -39.1594 	 -75.4199
|  8> C 	 -82.0794 	 -40.1808 	 -76.0875
|  9> C 	 -82.888 	 -39.4881 	 -76.9285
| 10> C 	 -82.5997 	 -38.068 	 -76.8989
| 11> C 	 -81.6028 	 -37.7383 	 -76.0551
| 12> H 	 -83.1069 	 -37.4044 	 -77.4828
| 13> C 	 -84.1505 	 -39.9506 	 -77.5329
| 14> H 	 -84.9442 	 -39.798 	 -76.7848
| 15> H 	 -84.0372 	 -41.0704 	 -77.6226
| 16> C 	 -84.6396 	 -39.4081 	 -78.8673
| 17> H 	 -85.4089 	 -40.0145 	 -79.3573
| 18> H 	 -84.984 	 -38.4116 	 -78.7609
| 19> C 	 -83.4351 	 -39.2773 	 -79.8904
| 20> H 	 -82.883 	 -40.1856 	 -79.8622
| 21> H 	 -83.8812 	 -39.0613 	 -80.9172
| 22> H 	 -82.8028 	 -38.4328 	 -79.6276
| 23> S 	 -81.0573 	 -36.0504 	 -74.0136
| 24> C 	 -80.5108 	 -34.402 	 -74.3242
| 25> C 	 -80.556 	 -34.1006 	 -75.6803
| 26> C 	 -80.8293 	 -35.2428 	 -76.4887
| 27> C 	 -81.1539 	 -36.3962 	 -75.7204
| 28> H 	 -80.3545 	 -33.0674 	 -75.935
| 29> C 	 -80.7724 	 -35.1885 	 -77.9844
| 30> H 	 -81.4306 	 -34.3331 	 -78.2237
| 31> H 	 -81.2003 	 -36.0731 	 -78.4368
| 32> C 	 -79.424 	 -34.9063 	 -78.6474
| 33> H 	 -78.7922 	 -35.701 	 -78.2957
| 34> H 	 -79.108 	 -33.9393 	 -78.3189
| 35> C 	 -79.4417 	 -34.965 	 -80.1745
| 36> H 	 -79.7383 	 -34.0616 	 -80.6291
| 37> H 	 -80.1762 	 -35.6992 	 -80.3927
| 38> H 	 -78.4175 	 -35.0232 	 -80.447
| 39> H 	 -82.0462 	 -41.2105 	 -75.9725
| 40> H 	 -80.3216 	 -33.7193 	 -73.534
| 41> *
| 42>
| 43>                          ****END OF INPUT****

CARTESIAN COORDINATES (ANGSTROEM)
---------------------------------
  S    -80.842500  -39.159400  -75.419900
  C    -82.079400  -40.180800  -76.087500
  C    -82.888000  -39.488100  -76.928500
  C    -82.599700  -38.068000  -76.898900
  C    -81.602800  -37.738300  -76.055100
  H    -83.106900  -37.404400  -77.482800
  C    -84.150500  -39.950600  -77.532900
  H    -84.944200  -39.798000  -76.784800
  H    -84.037200  -41.070400  -77.622600
  C    -84.639600  -39.408100  -78.867300
  H    -85.408900  -40.014500  -79.357300
  H    -84.984000  -38.411600  -78.760900
  C    -83.435100  -39.277300  -79.890400
  H    -82.883000  -40.185600  -79.862200
  H    -83.881200  -39.061300  -80.917200
  H    -82.802800  -38.432800  -79.627600
  S    -81.057300  -36.050400  -74.013600
  C    -80.510800  -34.402000  -74.324200
  C    -80.556000  -34.100600  -75.680300
  C    -80.829300  -35.242800  -76.488700
  C    -81.153900  -36.396200  -75.720400
  H    -80.354500  -33.067400  -75.935000
  C    -80.772400  -35.188500  -77.984400
  H    -81.430600  -34.333100  -78.223700
  H    -81.200300  -36.073100  -78.436800
  C    -79.424000  -34.906300  -78.647400
  H    -78.792200  -35.701000  -78.295700
  H    -79.108000  -33.939300  -78.318900
  C    -79.441700  -34.965000  -80.174500
  H    -79.738300  -34.061600  -80.629100
  H    -80.176200  -35.699200  -80.392700
  H    -78.417500  -35.023200  -80.447000
  H    -82.046200  -41.210500  -75.972500
  H    -80.321600  -33.719300  -73.534000

 Total Charge           Charge          ....    0
 Multiplicity           Mult            ....    1
 Number of Electrons    NEL             ....  134
 Basis Dimension        Dim             ....  322

ORBITAL ENERGIES
----------------

  NO   OCC          E(Eh)            E(eV)
   0   2.0000     -88.964324     -2420.8423
   1   2.0000     -88.961821     -2420.7742
   2   2.0000     -10.327878      -281.0358
   3   2.0000     -10.325092      -280.9600
   4   2.0000     -10.316844      -280.7356
   5   2.0000     -10.308235      -280.5013
   6   2.0000     -10.305913      -280.4381
   7   2.0000     -10.297002      -280.1957
   8   2.0000     -10.296561      -280.1837
   9   2.0000     -10.293078      -280.0889
  10   2.0000     -10.287885      -279.9476
  11   2.0000     -10.287446      -279.9356
  12   2.0000     -10.283035      -279.8156
  13   2.0000     -10.280273      -279.7404
  14   2.0000     -10.277638      -279.6688
  15   2.0000     -10.268012      -279.4068
  16   2.0000      -8.079012      -219.8411
  17   2.0000      -8.077579      -219.8021
  18   2.0000      -6.037420      -164.2866
  19   2.0000      -6.036146      -164.2519
  20   2.0000      -6.033437      -164.1782
  21   2.0000      -6.032018      -164.1396
  22   2.0000      -6.029969      -164.0838
  23   2.0000      -6.028132      -164.0338
  24   2.0000      -1.010923       -27.5086
  25   2.0000      -0.985147       -26.8072
  26   2.0000      -0.916084       -24.9279
  27   2.0000      -0.912739       -24.8369
  28   2.0000      -0.872905       -23.7530
  29   2.0000      -0.854999       -23.2657
  30   2.0000      -0.843987       -22.9661
  31   2.0000      -0.820308       -22.3217
  32   2.0000      -0.782958       -21.3054
  33   2.0000      -0.772226       -21.0133
  34   2.0000      -0.710691       -19.3389
  35   2.0000      -0.699252       -19.0276
  36   2.0000      -0.696210       -18.9448
  37   2.0000      -0.660390       -17.9701
  38   2.0000      -0.647566       -17.6212
  39   2.0000      -0.629356       -17.1256
  40   2.0000      -0.601491       -16.3674
  41   2.0000      -0.571408       -15.5488
  42   2.0000      -0.565502       -15.3881
  43   2.0000      -0.559536       -15.2257
  44   2.0000      -0.542723       -14.7682
  45   2.0000      -0.538536       -14.6543
  46   2.0000      -0.522588       -14.2203
  47   2.0000      -0.515432       -14.0256
  48   2.0000      -0.510273       -13.8852
  49   2.0000      -0.499917       -13.6034
  50   2.0000      -0.495230       -13.4759
  51   2.0000      -0.482629       -13.1330
  52   2.0000      -0.468053       -12.7364
  53   2.0000      -0.464871       -12.6498
  54   2.0000      -0.460244       -12.5239
  55   2.0000      -0.448826       -12.2132
  56   2.0000      -0.448023       -12.1913
  57   2.0000      -0.432054       -11.7568
  58   2.0000      -0.428226       -11.6526
  59   2.0000      -0.423001       -11.5104
  60   2.0000      -0.420836       -11.4515
  61   2.0000      -0.416654       -11.3377
  62   2.0000      -0.415886       -11.3168
  63   2.0000      -0.348549        -9.4845
  64   2.0000      -0.329599        -8.9689
  65   2.0000      -0.325333        -8.8528
  66   2.0000      -0.292992        -7.9727
  67   0.0000       0.031892         0.8678
  68   0.0000       0.073152         1.9906
  69   0.0000       0.110897         3.0177
  70   0.0000       0.115385         3.1398
  71   0.0000       0.129973         3.5368

MULLIKEN ATOMIC CHARGES
-----------------------
   0 S :    0.111985
   1 C :   -0.108170
   2 C :   -0.069929
   3 C :    0.059079
   4 C :   -0.128590
   5 H :   -0.033613
   6 C :    0.035014
   7 H :    0.054981
   8 H :    0.024539
   9 C :   -0.076679
  10 H :    0.042273
  11 H :    0.023732
  12 C :   -0.072195
  13 H :    0.034387
  14 H :    0.042579
  15 H :    0.031931
  16 S :    0.103362
  17 C :   -0.092980
  18 C :   -0.042841
  19 C :   -0.007901
  20 C :   -0.166269
  21 H :    0.023855
  22 C :    0.049416
  23 H :    0.025000
  24 H :    0.006945
  25 C :   -0.073551
  26 H :    0.031431
  27 H :    0.015478
  28 C :    0.021194
  29 H :    0.009873
  30 H :    0.023097
  31 H :    0.031281
  32 H :    0.021805
  33 H :    0.049483
Sum of atomic charges:   -0.0000000

LOEWDIN ATOMIC CHARGES
----------------------
   0 S :    0.409991
   1 C :   -0.184342
   2 C :   -0.063782
   3 C :   -0.050274
   4 C :   -0.196191
   5 H :    0.011368
   6 C :   -0.042074
   7 H :    0.040832
   8 H :    0.033996
   9 C :   -0.039644
  10 H :    0.030698
  11 H :    0.016027
  12 C :   -0.063738
  13 H :    0.019237
  14 H :    0.032311
  15 H :    0.020918
  16 S :    0.407873
  17 C :   -0.174309
  18 C :   -0.069299
  19 C :   -0.052499
  20 C :   -0.202479
  21 H :    0.034387
  22 C :   -0.038572
  23 H :    0.033607
  24 H :    0.021786
  25 C :   -0.030752
  26 H :    0.024149
  27 H :    0.016455
  28 C :   -0.052440
  29 H :    0.018449
  30 H :    0.023564
  31 H :    0.029502
  32 H :    0.014074
  33 H :    0.021171

  Mayer bond orders larger than 0.100000
B(  0-S ,  1-C ) :   1.1268 B(  0-S ,  4-C ) :   1.1516 B(  1-C ,  2-C ) :   1.6223
B(  1-C , 32-H ) :   0.9795 B(  2-C ,  3-C ) :   1.2031 B(  2-C ,  6-C ) :   1.0340
B(  3-C ,  4-C ) :   1.5948 B(  3-C ,  5-H ) :   1.0150 B(  4-C , 20-C ) :   1.0263
B(  6-C ,  7-H ) :   0.9404 B(  6-C ,  8-H ) :   0.9355 B(  6-C ,  9-C ) :   1.0715
B(  9-C , 10-H ) :   0.9596 B(  9-C , 11-H ) :   0.9496 B(  9-C , 12-C ) :   1.0842
B( 12-C , 13-H ) :   0.9786 B( 12-C , 14-H ) :   0.9761 B( 12-C , 15-H ) :   0.9712
B( 16-S , 17-C ) :   1.1605 B( 16-S , 20-C ) :   1.1573 B( 17-C , 18-C ) :   1.6007
B( 17-C , 20-C ) :   0.1066 B( 17-C , 33-H ) :   0.9722 B( 18-C , 19-C ) :   1.2314
B( 18-C , 21-H ) :   0.9931 B( 19-C , 20-C ) :   1.5635 B( 19-C , 22-C ) :   1.0578
B( 22-C , 23-H ) :   0.9263 B( 22-C , 24-H ) :   0.9282 B( 22-C , 25-C ) :   1.0753
B( 25-C , 26-H ) :   0.9570 B( 25-C , 27-H ) :   0.9514 B( 25-C , 28-C ) :   1.0867
B( 28-C , 29-H ) :   0.9721 B( 28-C , 30-H ) :   0.9741 B( 28-C , 31-H ) :   0.9724

Dispersion correction           -0.014270796
FINAL SINGLE POINT ENERGY     -1339.870094196364

DIPOLE MOMENT
-------------
                                X             Y             Z
Electronic contribution:      5.41129      -2.38848      28.22225
Nuclear contribution   :     -5.68769       2.65116     -28.73647
                        -----------------------------------------
Total Dipole Moment    :     -0.27640       0.26268      -0.51422
                        -----------------------------------------
Magnitude (a.u.)       :      0.64017
Magnitude (Debye)      :      1.62718

Rotational constants in cm-1:     0.016366     0.009900     0.007124
Rotational constants in MHz :   490.643114   296.797940   213.560124

                             ****ORCA TERMINATED NORMALLY****
TOTAL RUN TIME: 0 days 0 hours 0 minutes 22 seconds 90 msec
