                         Program Version 4.2.1 -  RELEASE  -
|  1> ! wB97X-D3 SP def2-SVP
|  2> %pal
|  3> nprocs 24
|  4> end
|  5>
|  6> * xyz 0 1
|  7> S 	 -105.108 	 19.0494 	 -120.92
|  8> C 	 -104.54 	 20.4157 	 -119.969
|  9> C 	 -103.76 	 20.0659 	 -118.887
| 10> C 	 -103.827 	 18.6301 	 -118.665
| 11> C 	 -104.517 	 17.9238 	 -119.668
| 12> H 	 -103.583 	 18.0849 	 -117.742
| 13> C 	 -103.046 	 21.0497 	 -118.044
| 14> H 	 -103.787 	 21.859 	 -117.849
| 15> H 	 -102.164 	 21.5012 	 -118.551
| 16> C 	 -102.602 	 20.5768 	 -116.647
| 17> H 	 -101.928 	 19.7789 	 -116.664
| 18> H 	 -102.021 	 21.3111 	 -116.175
| 19> C 	 -103.821 	 20.2261 	 -115.751
| 20> H 	 -104.566 	 19.6258 	 -116.319
| 21> H 	 -103.5 	 19.6359 	 -114.971
| 22> H 	 -104.235 	 21.1282 	 -115.24
| 23> S 	 -103.43 	 15.8649 	 -120.939
| 24> C 	 -103.809 	 14.2434 	 -120.444
| 25> C 	 -104.772 	 14.1916 	 -119.438
| 26> C 	 -105.282 	 15.4585 	 -119.099
| 27> C 	 -104.632 	 16.4697 	 -119.818
| 28> H 	 -105.011 	 13.25 	 -119.007
| 29> C 	 -106.122 	 15.8009 	 -117.944
| 30> H 	 -107.008 	 15.1482 	 -117.921
| 31> H 	 -106.577 	 16.8245 	 -118.032
| 32> C 	 -105.41 	 15.8055 	 -116.539
| 33> H 	 -104.786 	 16.6863 	 -116.449
| 34> H 	 -104.617 	 15.077 	 -116.606
| 35> C 	 -106.393 	 15.6032 	 -115.362
| 36> H 	 -107.347 	 15.8824 	 -115.645
| 37> H 	 -106.065 	 16.1469 	 -114.458
| 38> H 	 -106.482 	 14.561 	 -115.166
| 39> H 	 -104.562 	 21.4588 	 -120.322
| 40> H 	 -103.477 	 13.3362 	 -120.952
| 41> *
| 42>
| 43>                          ****END OF INPUT****

CARTESIAN COORDINATES (ANGSTROEM)
---------------------------------
  S    -105.108000   19.049400  -120.920000
  C    -104.540000   20.415700  -119.969000
  C    -103.760000   20.065900  -118.887000
  C    -103.827000   18.630100  -118.665000
  C    -104.517000   17.923800  -119.668000
  H    -103.583000   18.084900  -117.742000
  C    -103.046000   21.049700  -118.044000
  H    -103.787000   21.859000  -117.849000
  H    -102.164000   21.501200  -118.551000
  C    -102.602000   20.576800  -116.647000
  H    -101.928000   19.778900  -116.664000
  H    -102.021000   21.311100  -116.175000
  C    -103.821000   20.226100  -115.751000
  H    -104.566000   19.625800  -116.319000
  H    -103.500000   19.635900  -114.971000
  H    -104.235000   21.128200  -115.240000
  S    -103.430000   15.864900  -120.939000
  C    -103.809000   14.243400  -120.444000
  C    -104.772000   14.191600  -119.438000
  C    -105.282000   15.458500  -119.099000
  C    -104.632000   16.469700  -119.818000
  H    -105.011000   13.250000  -119.007000
  C    -106.122000   15.800900  -117.944000
  H    -107.008000   15.148200  -117.921000
  H    -106.577000   16.824500  -118.032000
  C    -105.410000   15.805500  -116.539000
  H    -104.786000   16.686300  -116.449000
  H    -104.617000   15.077000  -116.606000
  C    -106.393000   15.603200  -115.362000
  H    -107.347000   15.882400  -115.645000
  H    -106.065000   16.146900  -114.458000
  H    -106.482000   14.561000  -115.166000
  H    -104.562000   21.458800  -120.322000
  H    -103.477000   13.336200  -120.952000

 Total Charge           Charge          ....    0
 Multiplicity           Mult            ....    1
 Number of Electrons    NEL             ....  134
 Basis Dimension        Dim             ....  322

ORBITAL ENERGIES
----------------

  NO   OCC          E(Eh)            E(eV)
   0   2.0000     -88.966340     -2420.8972
   1   2.0000     -88.965906     -2420.8854
   2   2.0000     -10.332358      -281.1577
   3   2.0000     -10.324221      -280.9363
   4   2.0000     -10.316714      -280.7321
   5   2.0000     -10.313226      -280.6371
   6   2.0000     -10.302476      -280.3446
   7   2.0000     -10.302087      -280.3340
   8   2.0000     -10.300918      -280.3022
   9   2.0000     -10.295268      -280.1485
  10   2.0000     -10.292239      -280.0660
  11   2.0000     -10.291966      -280.0586
  12   2.0000     -10.286182      -279.9012
  13   2.0000     -10.279350      -279.7153
  14   2.0000     -10.275861      -279.6204
  15   2.0000     -10.274216      -279.5756
  16   2.0000      -8.080914      -219.8928
  17   2.0000      -8.080256      -219.8750
  18   2.0000      -6.039278      -164.3371
  19   2.0000      -6.038806      -164.3243
  20   2.0000      -6.035325      -164.2295
  21   2.0000      -6.034917      -164.2185
  22   2.0000      -6.031861      -164.1353
  23   2.0000      -6.030988      -164.1115
  24   2.0000      -1.004084       -27.3225
  25   2.0000      -0.979904       -26.6645
  26   2.0000      -0.913479       -24.8570
  27   2.0000      -0.907326       -24.6896
  28   2.0000      -0.868117       -23.6227
  29   2.0000      -0.854330       -23.2475
  30   2.0000      -0.841551       -22.8998
  31   2.0000      -0.814110       -22.1531
  32   2.0000      -0.783609       -21.3231
  33   2.0000      -0.768998       -20.9255
  34   2.0000      -0.714480       -19.4420
  35   2.0000      -0.706563       -19.2265
  36   2.0000      -0.690977       -18.8024
  37   2.0000      -0.663178       -18.0460
  38   2.0000      -0.637169       -17.3382
  39   2.0000      -0.618353       -16.8262
  40   2.0000      -0.598115       -16.2755
  41   2.0000      -0.566029       -15.4024
  42   2.0000      -0.558399       -15.1948
  43   2.0000      -0.552123       -15.0240
  44   2.0000      -0.534462       -14.5434
  45   2.0000      -0.524087       -14.2611
  46   2.0000      -0.519700       -14.1418
  47   2.0000      -0.513051       -13.9608
  48   2.0000      -0.503838       -13.7101
  49   2.0000      -0.497544       -13.5389
  50   2.0000      -0.490937       -13.3591
  51   2.0000      -0.476823       -12.9750
  52   2.0000      -0.467276       -12.7152
  53   2.0000      -0.463581       -12.6147
  54   2.0000      -0.459402       -12.5010
  55   2.0000      -0.453839       -12.3496
  56   2.0000      -0.445321       -12.1178
  57   2.0000      -0.439995       -11.9729
  58   2.0000      -0.435108       -11.8399
  59   2.0000      -0.429075       -11.6757
  60   2.0000      -0.425783       -11.5861
  61   2.0000      -0.421815       -11.4782
  62   2.0000      -0.405521       -11.0348
  63   2.0000      -0.339125        -9.2281
  64   2.0000      -0.326718        -8.8904
  65   2.0000      -0.319803        -8.7023
  66   2.0000      -0.302053        -8.2193
  67   0.0000       0.038116         1.0372
  68   0.0000       0.052560         1.4302
  69   0.0000       0.114199         3.1075
  70   0.0000       0.119727         3.2580
  71   0.0000       0.123617         3.3638

MULLIKEN ATOMIC CHARGES
-----------------------
   0 S :    0.113124
   1 C :   -0.121450
   2 C :   -0.097442
   3 C :    0.048245
   4 C :   -0.177646
   5 H :    0.020641
   6 C :    0.042525
   7 H :    0.037799
   8 H :    0.052141
   9 C :   -0.038906
  10 H :    0.012817
  11 H :    0.009711
  12 C :   -0.063883
  13 H :    0.050398
  14 H :    0.010304
  15 H :    0.040082
  16 S :    0.124979
  17 C :   -0.095091
  18 C :   -0.046497
  19 C :    0.015892
  20 C :   -0.191594
  21 H :    0.007674
  22 C :    0.019117
  23 H :    0.023732
  24 H :    0.042943
  25 C :   -0.064156
  26 H :    0.009041
  27 H :    0.014225
  28 C :    0.004091
  29 H :    0.015679
  30 H :    0.040526
  31 H :    0.026881
  32 H :    0.053627
  33 H :    0.060471
Sum of atomic charges:   -0.0000000

LOEWDIN ATOMIC CHARGES
----------------------
   0 S :    0.389702
   1 C :   -0.195728
   2 C :   -0.067995
   3 C :   -0.061069
   4 C :   -0.196688
   5 H :    0.031272
   6 C :   -0.037239
   7 H :    0.040463
   8 H :    0.039368
   9 C :   -0.036243
  10 H :    0.014501
  11 H :    0.021055
  12 C :   -0.064614
  13 H :    0.030151
  14 H :    0.013485
  15 H :    0.032084
  16 S :    0.424615
  17 C :   -0.190559
  18 C :   -0.067541
  19 C :   -0.057909
  20 C :   -0.200186
  21 H :    0.027588
  22 C :   -0.039009
  23 H :    0.028814
  24 H :    0.039277
  25 C :   -0.037076
  26 H :    0.017531
  27 H :    0.018517
  28 C :   -0.053573
  29 H :    0.015541
  30 H :    0.033429
  31 H :    0.025873
  32 H :    0.031669
  33 H :    0.030492

  Mayer bond orders larger than 0.100000
B(  0-S ,  1-C ) :   1.1358 B(  0-S ,  4-C ) :   1.1427 B(  1-C ,  2-C ) :   1.6414
B(  1-C , 32-H ) :   0.9619 B(  2-C ,  3-C ) :   1.2183 B(  2-C ,  6-C ) :   1.0171
B(  3-C ,  4-C ) :   1.5957 B(  3-C ,  5-H ) :   0.9793 B(  4-C , 20-C ) :   1.0043
B(  6-C ,  7-H ) :   0.9417 B(  6-C ,  8-H ) :   0.9323 B(  6-C ,  9-C ) :   1.0929
B(  9-C , 10-H ) :   0.9507 B(  9-C , 11-H ) :   0.9482 B(  9-C , 12-C ) :   1.0746
B( 12-C , 13-H ) :   0.9769 B( 12-C , 14-H ) :   0.9728 B( 12-C , 15-H ) :   0.9731
B( 16-S , 17-C ) :   1.1669 B( 16-S , 20-C ) :   1.1703 B( 17-C , 18-C ) :   1.5966
B( 17-C , 20-C ) :   0.1064 B( 17-C , 33-H ) :   0.9641 B( 18-C , 19-C ) :   1.2401
B( 18-C , 21-H ) :   0.9998 B( 19-C , 20-C ) :   1.5690 B( 19-C , 22-C ) :   1.0796
B( 22-C , 23-H ) :   0.9338 B( 22-C , 24-H ) :   0.9253 B( 22-C , 25-C ) :   1.0422
B( 25-C , 26-H ) :   0.9506 B( 25-C , 27-H ) :   0.9633 B( 25-C , 28-C ) :   1.0623
B( 28-C , 29-H ) :   0.9773 B( 28-C , 30-H ) :   0.9753 B( 28-C , 31-H ) :   0.9752

Dispersion correction           -0.015250672
FINAL SINGLE POINT ENERGY     -1339.869387502602

DIPOLE MOMENT
-------------
                                X             Y             Z
Electronic contribution:      2.17035      -4.47832     -29.42785
Nuclear contribution   :     -2.00898       4.48841      30.11097
                        -----------------------------------------
Total Dipole Moment    :      0.16137       0.01009       0.68312
                        -----------------------------------------
Magnitude (a.u.)       :      0.70200
Magnitude (Debye)      :      1.78433

Rotational constants in cm-1:     0.016106     0.010538     0.007527
Rotational constants in MHz :   482.850779   315.922320   225.655148

                             ****ORCA TERMINATED NORMALLY****
TOTAL RUN TIME: 0 days 0 hours 0 minutes 22 seconds 515 msec
