                         Program Version 4.2.1 -  RELEASE  -
|  1> ! wB97X-D3 SP def2-SVP
|  2> %pal
|  3> nprocs 24
|  4> end
|  5>
|  6> * xyz 0 1
|  7> S 	 -122.151 	 54.829 	 -30.3285
|  8> C 	 -122.17 	 53.1556 	 -30.82
|  9> C 	 -121.862 	 53.0597 	 -32.1254
| 10> C 	 -121.436 	 54.345 	 -32.6841
| 11> C 	 -121.545 	 55.4008 	 -31.8106
| 12> H 	 -120.994 	 54.3895 	 -33.6753
| 13> C 	 -121.81 	 51.7759 	 -32.9716
| 14> H 	 -121.763 	 50.7755 	 -32.4143
| 15> H 	 -120.898 	 51.7389 	 -33.5243
| 16> C 	 -122.788 	 51.618 	 -34.1851
| 17> H 	 -122.634 	 52.5081 	 -34.8485
| 18> H 	 -122.332 	 50.8257 	 -34.7893
| 19> C 	 -124.191 	 51.3655 	 -33.822
| 20> H 	 -124.743 	 50.9568 	 -34.5836
| 21> H 	 -124.206 	 50.6317 	 -32.9952
| 22> H 	 -124.825 	 52.2318 	 -33.5489
| 23> S 	 -120.091 	 57.5168 	 -30.7123
| 24> C 	 -119.838 	 58.9795 	 -31.7214
| 25> C 	 -120.171 	 58.7768 	 -33.0439
| 26> C 	 -120.756 	 57.4838 	 -33.2026
| 27> C 	 -120.995 	 56.7294 	 -32.0466
| 28> H 	 -119.797 	 59.4612 	 -33.768
| 29> C 	 -121.183 	 57.2065 	 -34.6734
| 30> H 	 -120.765 	 56.2737 	 -35.0156
| 31> H 	 -120.945 	 58.0431 	 -35.3234
| 32> C 	 -122.743 	 56.9256 	 -34.7729
| 33> H 	 -123.108 	 56.0885 	 -34.1897
| 34> H 	 -123.08 	 56.7936 	 -35.7737
| 35> C 	 -123.557 	 58.101 	 -34.2894
| 36> H 	 -124.599 	 58.0075 	 -34.545
| 37> H 	 -123.202 	 58.9822 	 -34.7276
| 38> H 	 -123.512 	 58.1665 	 -33.2285
| 39> H 	 -122.577 	 52.3838 	 -30.1995
| 40> H 	 -119.272 	 59.7738 	 -31.4319
| 41> *
| 42>
| 43>                          ****END OF INPUT****

CARTESIAN COORDINATES (ANGSTROEM)
---------------------------------
  S    -122.151000   54.829000  -30.328500
  C    -122.170000   53.155600  -30.820000
  C    -121.862000   53.059700  -32.125400
  C    -121.436000   54.345000  -32.684100
  C    -121.545000   55.400800  -31.810600
  H    -120.994000   54.389500  -33.675300
  C    -121.810000   51.775900  -32.971600
  H    -121.763000   50.775500  -32.414300
  H    -120.898000   51.738900  -33.524300
  C    -122.788000   51.618000  -34.185100
  H    -122.634000   52.508100  -34.848500
  H    -122.332000   50.825700  -34.789300
  C    -124.191000   51.365500  -33.822000
  H    -124.743000   50.956800  -34.583600
  H    -124.206000   50.631700  -32.995200
  H    -124.825000   52.231800  -33.548900
  S    -120.091000   57.516800  -30.712300
  C    -119.838000   58.979500  -31.721400
  C    -120.171000   58.776800  -33.043900
  C    -120.756000   57.483800  -33.202600
  C    -120.995000   56.729400  -32.046600
  H    -119.797000   59.461200  -33.768000
  C    -121.183000   57.206500  -34.673400
  H    -120.765000   56.273700  -35.015600
  H    -120.945000   58.043100  -35.323400
  C    -122.743000   56.925600  -34.772900
  H    -123.108000   56.088500  -34.189700
  H    -123.080000   56.793600  -35.773700
  C    -123.557000   58.101000  -34.289400
  H    -124.599000   58.007500  -34.545000
  H    -123.202000   58.982200  -34.727600
  H    -123.512000   58.166500  -33.228500
  H    -122.577000   52.383800  -30.199500
  H    -119.272000   59.773800  -31.431900

 Total Charge           Charge          ....    0
 Multiplicity           Mult            ....    1
 Number of Electrons    NEL             ....  134
 Basis Dimension        Dim             ....  322

ORBITAL ENERGIES
----------------

  NO   OCC          E(Eh)            E(eV)
   0   2.0000     -88.966695     -2420.9068
   1   2.0000     -88.964859     -2420.8569
   2   2.0000     -10.336269      -281.2642
   3   2.0000     -10.331628      -281.1379
   4   2.0000     -10.315231      -280.6917
   5   2.0000     -10.312182      -280.6087
   6   2.0000     -10.309966      -280.5485
   7   2.0000     -10.304866      -280.4097
   8   2.0000     -10.297840      -280.2185
   9   2.0000     -10.296242      -280.1750
  10   2.0000     -10.295671      -280.1594
  11   2.0000     -10.294171      -280.1186
  12   2.0000     -10.290307      -280.0135
  13   2.0000     -10.275391      -279.6076
  14   2.0000     -10.269641      -279.4511
  15   2.0000     -10.255076      -279.0548
  16   2.0000      -8.080833      -219.8906
  17   2.0000      -8.080083      -219.8702
  18   2.0000      -6.039428      -164.3412
  19   2.0000      -6.038762      -164.3231
  20   2.0000      -6.035101      -164.2234
  21   2.0000      -6.034913      -164.2183
  22   2.0000      -6.031472      -164.1247
  23   2.0000      -6.030601      -164.1010
  24   2.0000      -1.011708       -27.5300
  25   2.0000      -0.982995       -26.7487
  26   2.0000      -0.912609       -24.8333
  27   2.0000      -0.902394       -24.5554
  28   2.0000      -0.877521       -23.8786
  29   2.0000      -0.849064       -23.1042
  30   2.0000      -0.844038       -22.9674
  31   2.0000      -0.817425       -22.2433
  32   2.0000      -0.788706       -21.4618
  33   2.0000      -0.775112       -21.0919
  34   2.0000      -0.712659       -19.3924
  35   2.0000      -0.698007       -18.9937
  36   2.0000      -0.686280       -18.6746
  37   2.0000      -0.666709       -18.1421
  38   2.0000      -0.642602       -17.4861
  39   2.0000      -0.623734       -16.9727
  40   2.0000      -0.589747       -16.0478
  41   2.0000      -0.576555       -15.6889
  42   2.0000      -0.560216       -15.2443
  43   2.0000      -0.555220       -15.1083
  44   2.0000      -0.544981       -14.8297
  45   2.0000      -0.542508       -14.7624
  46   2.0000      -0.519527       -14.1371
  47   2.0000      -0.512630       -13.9494
  48   2.0000      -0.506481       -13.7821
  49   2.0000      -0.499500       -13.5921
  50   2.0000      -0.494202       -13.4479
  51   2.0000      -0.478032       -13.0079
  52   2.0000      -0.471122       -12.8199
  53   2.0000      -0.465143       -12.6572
  54   2.0000      -0.460000       -12.5172
  55   2.0000      -0.444950       -12.1077
  56   2.0000      -0.438317       -11.9272
  57   2.0000      -0.433054       -11.7840
  58   2.0000      -0.425982       -11.5916
  59   2.0000      -0.422591       -11.4993
  60   2.0000      -0.421478       -11.4690
  61   2.0000      -0.411578       -11.1996
  62   2.0000      -0.409343       -11.1388
  63   2.0000      -0.360060        -9.7977
  64   2.0000      -0.331103        -9.0098
  65   2.0000      -0.327502        -8.9118
  66   2.0000      -0.290562        -7.9066
  67   0.0000       0.019617         0.5338
  68   0.0000       0.079113         2.1528
  69   0.0000       0.098508         2.6805
  70   0.0000       0.117558         3.1989
  71   0.0000       0.128865         3.5066

MULLIKEN ATOMIC CHARGES
-----------------------
   0 S :    0.099681
   1 C :   -0.130588
   2 C :   -0.029745
   3 C :   -0.001686
   4 C :   -0.110701
   5 H :    0.008125
   6 C :    0.017786
   7 H :    0.035507
   8 H :    0.015891
   9 C :   -0.098232
  10 H :    0.024888
  11 H :    0.026288
  12 C :    0.006020
  13 H :    0.008967
  14 H :    0.018598
  15 H :    0.040387
  16 S :    0.087704
  17 C :   -0.049745
  18 C :   -0.027744
  19 C :   -0.059786
  20 C :   -0.112239
  21 H :    0.023247
  22 C :    0.083187
  23 H :    0.029776
  24 H :    0.026473
  25 C :   -0.091714
  26 H :    0.038241
  27 H :    0.016638
  28 C :   -0.020019
  29 H :    0.021240
  30 H :    0.002993
  31 H :    0.031170
  32 H :    0.047598
  33 H :    0.021793
Sum of atomic charges:   -0.0000000

LOEWDIN ATOMIC CHARGES
----------------------
   0 S :    0.421563
   1 C :   -0.189467
   2 C :   -0.063098
   3 C :   -0.060238
   4 C :   -0.210337
   5 H :    0.028272
   6 C :   -0.038543
   7 H :    0.035734
   8 H :    0.028077
   9 C :   -0.044808
  10 H :    0.025035
  11 H :    0.026693
  12 C :   -0.068246
  13 H :    0.015530
  14 H :    0.027864
  15 H :    0.034594
  16 S :    0.372737
  17 C :   -0.145826
  18 C :   -0.067130
  19 C :   -0.048579
  20 C :   -0.183461
  21 H :    0.033799
  22 C :   -0.020282
  23 H :    0.024841
  24 H :    0.028891
  25 C :   -0.038678
  26 H :    0.023645
  27 H :    0.016559
  28 C :   -0.057137
  29 H :    0.023150
  30 H :    0.011610
  31 H :    0.021092
  32 H :    0.028648
  33 H :    0.007493

  Mayer bond orders larger than 0.100000
B(  0-S ,  1-C ) :   1.1248 B(  0-S ,  4-C ) :   1.1564 B(  1-C ,  2-C ) :   1.6275
B(  1-C , 32-H ) :   0.9738 B(  2-C ,  3-C ) :   1.2379 B(  2-C ,  6-C ) :   1.0160
B(  3-C ,  4-C ) :   1.5477 B(  3-C ,  5-H ) :   0.9917 B(  4-C , 20-C ) :   1.0668
B(  6-C ,  7-H ) :   0.9504 B(  6-C ,  8-H ) :   0.9380 B(  6-C ,  9-C ) :   1.0829
B(  9-C , 10-H ) :   0.9503 B(  9-C , 11-H ) :   0.9537 B(  9-C , 12-C ) :   1.0805
B( 12-C , 13-H ) :   0.9678 B( 12-C , 14-H ) :   0.9710 B( 12-C , 15-H ) :   0.9706
B( 16-S , 17-C ) :   1.1501 B( 16-S , 20-C ) :   1.1170 B( 17-C , 18-C ) :   1.6203
B( 17-C , 20-C ) :   0.1023 B( 17-C , 33-H ) :   0.9732 B( 18-C , 19-C ) :   1.2374
B( 18-C , 21-H ) :   0.9922 B( 19-C , 20-C ) :   1.5916 B( 19-C , 22-C ) :   1.0339
B( 22-C , 23-H ) :   0.9327 B( 22-C , 24-H ) :   0.9463 B( 22-C , 25-C ) :   1.0676
B( 25-C , 26-H ) :   0.9558 B( 25-C , 27-H ) :   0.9602 B( 25-C , 28-C ) :   1.0808
B( 28-C , 29-H ) :   0.9730 B( 28-C , 30-H ) :   0.9758 B( 28-C , 31-H ) :   0.9734

Dispersion correction           -0.015077139
FINAL SINGLE POINT ENERGY     -1339.856117347283

DIPOLE MOMENT
-------------
                                X             Y             Z
Electronic contribution:     12.61414      10.51759      22.64479
Nuclear contribution   :    -12.53630     -10.80914     -23.38509
                        -----------------------------------------
Total Dipole Moment    :      0.07783      -0.29155      -0.74030
                        -----------------------------------------
Magnitude (a.u.)       :      0.79944
Magnitude (Debye)      :      2.03202

Rotational constants in cm-1:     0.020814     0.009063     0.007159
Rotational constants in MHz :   623.983821   271.690487   214.608031

                             ****ORCA TERMINATED NORMALLY****
TOTAL RUN TIME: 0 days 0 hours 0 minutes 22 seconds 635 msec
