                         Program Version 4.2.1 -  RELEASE  -
|  1> ! wB97X-D3 SP def2-SVP
|  2> %pal
|  3> nprocs 24
|  4> end
|  5>
|  6> * xyz 0 1
|  7> S 	 -87.8418 	 -29.8038 	 -70.97
|  8> C 	 -87.354 	 -31.0148 	 -72.1238
|  9> C 	 -88.3583 	 -31.4202 	 -72.9692
| 10> C 	 -89.6481 	 -31.0113 	 -72.4603
| 11> C 	 -89.5293 	 -30.0619 	 -71.4442
| 12> H 	 -90.6533 	 -31.2001 	 -72.8253
| 13> C 	 -88.212 	 -32.4323 	 -74.0885
| 14> H 	 -87.8915 	 -33.487 	 -73.7809
| 15> H 	 -87.2584 	 -32.1249 	 -74.6056
| 16> C 	 -89.4025 	 -32.3964 	 -75.0859
| 17> H 	 -90.3246 	 -32.8286 	 -74.6871
| 18> H 	 -89.6011 	 -31.3598 	 -75.2552
| 19> C 	 -89.1273 	 -33.0589 	 -76.4627
| 20> H 	 -89.1567 	 -34.1228 	 -76.4598
| 21> H 	 -89.9503 	 -32.6442 	 -77.0296
| 22> H 	 -88.2296 	 -32.6353 	 -76.8962
| 23> S 	 -90.5015 	 -29.499 	 -68.9966
| 24> C 	 -91.8536 	 -28.4115 	 -68.8784
| 25> C 	 -92.4753 	 -28.2004 	 -70.1
| 26> C 	 -91.6654 	 -28.7671 	 -71.1625
| 27> C 	 -90.5159 	 -29.3307 	 -70.7327
| 28> H 	 -93.4589 	 -27.7628 	 -70.1492
| 29> C 	 -92.0593 	 -28.7106 	 -72.6228
| 30> H 	 -92.7177 	 -29.6035 	 -72.7262
| 31> H 	 -91.1591 	 -28.7599 	 -73.3018
| 32> C 	 -92.8893 	 -27.5362 	 -73.0385
| 33> H 	 -93.8205 	 -27.588 	 -72.4894
| 34> H 	 -93.078 	 -27.609 	 -74.1335
| 35> C 	 -92.2619 	 -26.1323 	 -72.6964
| 36> H 	 -92.6534 	 -25.3779 	 -73.295
| 37> H 	 -91.1845 	 -26.0462 	 -72.91
| 38> H 	 -92.459 	 -25.9236 	 -71.6337
| 39> H 	 -86.3801 	 -31.4111 	 -72.1947
| 40> H 	 -92.2832 	 -28.1165 	 -67.9974
| 41> *
| 42>
| 43>                          ****END OF INPUT****

CARTESIAN COORDINATES (ANGSTROEM)
---------------------------------
  S    -87.841800  -29.803800  -70.970000
  C    -87.354000  -31.014800  -72.123800
  C    -88.358300  -31.420200  -72.969200
  C    -89.648100  -31.011300  -72.460300
  C    -89.529300  -30.061900  -71.444200
  H    -90.653300  -31.200100  -72.825300
  C    -88.212000  -32.432300  -74.088500
  H    -87.891500  -33.487000  -73.780900
  H    -87.258400  -32.124900  -74.605600
  C    -89.402500  -32.396400  -75.085900
  H    -90.324600  -32.828600  -74.687100
  H    -89.601100  -31.359800  -75.255200
  C    -89.127300  -33.058900  -76.462700
  H    -89.156700  -34.122800  -76.459800
  H    -89.950300  -32.644200  -77.029600
  H    -88.229600  -32.635300  -76.896200
  S    -90.501500  -29.499000  -68.996600
  C    -91.853600  -28.411500  -68.878400
  C    -92.475300  -28.200400  -70.100000
  C    -91.665400  -28.767100  -71.162500
  C    -90.515900  -29.330700  -70.732700
  H    -93.458900  -27.762800  -70.149200
  C    -92.059300  -28.710600  -72.622800
  H    -92.717700  -29.603500  -72.726200
  H    -91.159100  -28.759900  -73.301800
  C    -92.889300  -27.536200  -73.038500
  H    -93.820500  -27.588000  -72.489400
  H    -93.078000  -27.609000  -74.133500
  C    -92.261900  -26.132300  -72.696400
  H    -92.653400  -25.377900  -73.295000
  H    -91.184500  -26.046200  -72.910000
  H    -92.459000  -25.923600  -71.633700
  H    -86.380100  -31.411100  -72.194700
  H    -92.283200  -28.116500  -67.997400

 Total Charge           Charge          ....    0
 Multiplicity           Mult            ....    1
 Number of Electrons    NEL             ....  134
 Basis Dimension        Dim             ....  322

ORBITAL ENERGIES
----------------

  NO   OCC          E(Eh)            E(eV)
   0   2.0000     -88.963543     -2420.8211
   1   2.0000     -88.961620     -2420.7688
   2   2.0000     -10.323936      -280.9286
   3   2.0000     -10.313669      -280.6492
   4   2.0000     -10.311843      -280.5995
   5   2.0000     -10.307036      -280.4687
   6   2.0000     -10.301440      -280.3164
   7   2.0000     -10.300304      -280.2855
   8   2.0000     -10.300124      -280.2806
   9   2.0000     -10.296803      -280.1902
  10   2.0000     -10.296219      -280.1744
  11   2.0000     -10.293295      -280.0948
  12   2.0000     -10.288466      -279.9634
  13   2.0000     -10.286965      -279.9226
  14   2.0000     -10.276673      -279.6425
  15   2.0000     -10.271631      -279.5053
  16   2.0000      -8.078207      -219.8192
  17   2.0000      -8.077024      -219.7870
  18   2.0000      -6.036669      -164.2661
  19   2.0000      -6.035479      -164.2337
  20   2.0000      -6.032792      -164.1606
  21   2.0000      -6.031650      -164.1295
  22   2.0000      -6.028962      -164.0564
  23   2.0000      -6.027568      -164.0185
  24   2.0000      -1.009943       -27.4820
  25   2.0000      -0.982355       -26.7312
  26   2.0000      -0.911469       -24.8023
  27   2.0000      -0.907743       -24.7009
  28   2.0000      -0.874298       -23.7909
  29   2.0000      -0.849296       -23.1105
  30   2.0000      -0.839508       -22.8442
  31   2.0000      -0.815333       -22.1863
  32   2.0000      -0.784971       -21.3602
  33   2.0000      -0.773130       -21.0379
  34   2.0000      -0.714426       -19.4405
  35   2.0000      -0.697008       -18.9665
  36   2.0000      -0.689891       -18.7729
  37   2.0000      -0.658767       -17.9260
  38   2.0000      -0.644197       -17.5295
  39   2.0000      -0.615045       -16.7362
  40   2.0000      -0.598810       -16.2944
  41   2.0000      -0.569676       -15.5017
  42   2.0000      -0.562933       -15.3182
  43   2.0000      -0.555980       -15.1290
  44   2.0000      -0.540130       -14.6977
  45   2.0000      -0.526733       -14.3331
  46   2.0000      -0.521207       -14.1828
  47   2.0000      -0.504968       -13.7409
  48   2.0000      -0.502149       -13.6642
  49   2.0000      -0.497659       -13.5420
  50   2.0000      -0.488949       -13.3050
  51   2.0000      -0.481568       -13.1041
  52   2.0000      -0.471169       -12.8211
  53   2.0000      -0.463800       -12.6206
  54   2.0000      -0.456408       -12.4195
  55   2.0000      -0.451092       -12.2748
  56   2.0000      -0.447191       -12.1687
  57   2.0000      -0.436323       -11.8729
  58   2.0000      -0.432883       -11.7794
  59   2.0000      -0.428220       -11.6524
  60   2.0000      -0.421066       -11.4578
  61   2.0000      -0.414234       -11.2719
  62   2.0000      -0.410663       -11.1747
  63   2.0000      -0.343183        -9.3385
  64   2.0000      -0.330638        -8.9971
  65   2.0000      -0.324365        -8.8264
  66   2.0000      -0.290381        -7.9017
  67   0.0000       0.028384         0.7724
  68   0.0000       0.072921         1.9843
  69   0.0000       0.106799         2.9062
  70   0.0000       0.112546         3.0625
  71   0.0000       0.131739         3.5848

MULLIKEN ATOMIC CHARGES
-----------------------
   0 S :    0.111446
   1 C :   -0.095336
   2 C :   -0.079173
   3 C :    0.035900
   4 C :   -0.186943
   5 H :    0.014258
   6 C :    0.031146
   7 H :    0.050200
   8 H :    0.023507
   9 C :   -0.117620
  10 H :    0.039111
  11 H :    0.026376
  12 C :   -0.007864
  13 H :    0.039599
  14 H :    0.026916
  15 H :    0.027389
  16 S :    0.107635
  17 C :   -0.038938
  18 C :   -0.053661
  19 C :   -0.045248
  20 C :   -0.135669
  21 H :    0.024195
  22 C :    0.034659
  23 H :    0.047700
  24 H :    0.054091
  25 C :   -0.086816
  26 H :    0.022373
  27 H :    0.037312
  28 C :   -0.037429
  29 H :    0.016969
  30 H :    0.032723
  31 H :    0.036989
  32 H :    0.026133
  33 H :    0.018071
Sum of atomic charges:    0.0000000

LOEWDIN ATOMIC CHARGES
----------------------
   0 S :    0.398846
   1 C :   -0.188687
   2 C :   -0.066233
   3 C :   -0.057093
   4 C :   -0.185861
   5 H :    0.031690
   6 C :   -0.046604
   7 H :    0.038066
   8 H :    0.034421
   9 C :   -0.040326
  10 H :    0.024275
  11 H :    0.022059
  12 C :   -0.055721
  13 H :    0.021164
  14 H :    0.029788
  15 H :    0.023940
  16 S :    0.408706
  17 C :   -0.163997
  18 C :   -0.069407
  19 C :   -0.051761
  20 C :   -0.213663
  21 H :    0.031738
  22 C :   -0.041456
  23 H :    0.039397
  24 H :    0.038268
  25 C :   -0.044174
  26 H :    0.019022
  27 H :    0.029515
  28 C :   -0.065030
  29 H :    0.015522
  30 H :    0.028821
  31 H :    0.028111
  32 H :    0.018065
  33 H :    0.008597

  Mayer bond orders larger than 0.100000
B(  0-S ,  1-C ) :   1.1374 B(  0-S ,  4-C ) :   1.1403 B(  1-C ,  2-C ) :   1.6296
B(  1-C , 32-H ) :   0.9743 B(  2-C ,  3-C ) :   1.2079 B(  2-C ,  6-C ) :   1.0191
B(  3-C ,  4-C ) :   1.5876 B(  3-C ,  5-H ) :   0.9847 B(  4-C , 20-C ) :   1.0513
B(  6-C ,  7-H ) :   0.9402 B(  6-C ,  8-H ) :   0.9370 B(  6-C ,  9-C ) :   1.0673
B(  9-C , 10-H ) :   0.9471 B(  9-C , 11-H ) :   0.9610 B(  9-C , 12-C ) :   1.0831
B( 12-C , 13-H ) :   0.9773 B( 12-C , 14-H ) :   0.9744 B( 12-C , 15-H ) :   0.9746
B( 16-S , 17-C ) :   1.1575 B( 16-S , 20-C ) :   1.1244 B( 17-C , 18-C ) :   1.6186
B( 17-C , 33-H ) :   0.9751 B( 18-C , 19-C ) :   1.2035 B( 18-C , 21-H ) :   0.9895
B( 19-C , 20-C ) :   1.6410 B( 19-C , 22-C ) :   1.0341 B( 22-C , 23-H ) :   0.9226
B( 22-C , 24-H ) :   0.9364 B( 22-C , 25-C ) :   1.0898 B( 25-C , 26-H ) :   0.9465
B( 25-C , 27-H ) :   0.9552 B( 25-C , 28-C ) :   1.0773 B( 28-C , 29-H ) :   0.9753
B( 28-C , 30-H ) :   0.9764 B( 28-C , 31-H ) :   0.9718

Dispersion correction           -0.014253775
FINAL SINGLE POINT ENERGY     -1339.870188924798

DIPOLE MOMENT
-------------
                                X             Y             Z
Electronic contribution:      9.51034       1.36817      26.46398
Nuclear contribution   :     -9.96862      -1.52802     -27.02600
                        -----------------------------------------
Total Dipole Moment    :     -0.45828      -0.15985      -0.56202
                        -----------------------------------------
Magnitude (a.u.)       :      0.74259
Magnitude (Debye)      :      1.88752

Rotational constants in cm-1:     0.018603     0.008744     0.006701
Rotational constants in MHz :   557.716636   262.138318   200.886043

                             ****ORCA TERMINATED NORMALLY****
TOTAL RUN TIME: 0 days 0 hours 0 minutes 21 seconds 911 msec
