                         Program Version 4.2.1 -  RELEASE  -
|  1> ! wB97X-D3 SP def2-SVP
|  2> %pal
|  3> nprocs 24
|  4> end
|  5>
|  6> * xyz 0 1
|  7> S 	 16.3141 	 -13.3572 	 -121.229
|  8> C 	 14.7846 	 -12.696 	 -121.572
|  9> C 	 13.7871 	 -13.2396 	 -120.715
| 10> C 	 14.3133 	 -14.0224 	 -119.612
| 11> C 	 15.7318 	 -14.1246 	 -119.718
| 12> H 	 13.7559 	 -14.4859 	 -118.794
| 13> C 	 12.2971 	 -13.0366 	 -120.873
| 14> H 	 12.1539 	 -12.3167 	 -121.764
| 15> H 	 11.9089 	 -12.6828 	 -119.927
| 16> C 	 11.5865 	 -14.3663 	 -121.285
| 17> H 	 11.8591 	 -14.7404 	 -122.333
| 18> H 	 11.9257 	 -15.1964 	 -120.639
| 19> C 	 10.0029 	 -14.2039 	 -121.336
| 20> H 	 9.69242 	 -13.6055 	 -120.43
| 21> H 	 9.70811 	 -13.6354 	 -122.226
| 22> H 	 9.47531 	 -15.1475 	 -121.489
| 23> S 	 17.9656 	 -15.5037 	 -119.251
| 24> C 	 18.7253 	 -15.5586 	 -117.688
| 25> C 	 18.0021 	 -14.8361 	 -116.767
| 26> C 	 16.7922 	 -14.3815 	 -117.322
| 27> C 	 16.659 	 -14.5969 	 -118.71
| 28> H 	 18.3549 	 -14.5876 	 -115.759
| 29> C 	 15.7203 	 -13.7782 	 -116.397
| 30> H 	 15.3809 	 -12.7839 	 -116.752
| 31> H 	 16.2845 	 -13.6186 	 -115.416
| 32> C 	 14.5638 	 -14.7312 	 -116.041
| 33> H 	 15.0624 	 -15.5321 	 -115.431
| 34> H 	 14.2484 	 -15.247 	 -116.984
| 35> C 	 13.5022 	 -14.1086 	 -115.195
| 36> H 	 13.9508 	 -13.8328 	 -114.229
| 37> H 	 12.8166 	 -14.8764 	 -114.858
| 38> H 	 13.0614 	 -13.2891 	 -115.758
| 39> H 	 14.2552 	 -12.214 	 -122.401
| 40> H 	 19.7172 	 -16.0091 	 -117.523
| 41> *
| 42>
| 43>                          ****END OF INPUT****

CARTESIAN COORDINATES (ANGSTROEM)
---------------------------------
  S     16.314100  -13.357200  -121.229000
  C     14.784600  -12.696000  -121.572000
  C     13.787100  -13.239600  -120.715000
  C     14.313300  -14.022400  -119.612000
  C     15.731800  -14.124600  -119.718000
  H     13.755900  -14.485900  -118.794000
  C     12.297100  -13.036600  -120.873000
  H     12.153900  -12.316700  -121.764000
  H     11.908900  -12.682800  -119.927000
  C     11.586500  -14.366300  -121.285000
  H     11.859100  -14.740400  -122.333000
  H     11.925700  -15.196400  -120.639000
  C     10.002900  -14.203900  -121.336000
  H      9.692420  -13.605500  -120.430000
  H      9.708110  -13.635400  -122.226000
  H      9.475310  -15.147500  -121.489000
  S     17.965600  -15.503700  -119.251000
  C     18.725300  -15.558600  -117.688000
  C     18.002100  -14.836100  -116.767000
  C     16.792200  -14.381500  -117.322000
  C     16.659000  -14.596900  -118.710000
  H     18.354900  -14.587600  -115.759000
  C     15.720300  -13.778200  -116.397000
  H     15.380900  -12.783900  -116.752000
  H     16.284500  -13.618600  -115.416000
  C     14.563800  -14.731200  -116.041000
  H     15.062400  -15.532100  -115.431000
  H     14.248400  -15.247000  -116.984000
  C     13.502200  -14.108600  -115.195000
  H     13.950800  -13.832800  -114.229000
  H     12.816600  -14.876400  -114.858000
  H     13.061400  -13.289100  -115.758000
  H     14.255200  -12.214000  -122.401000
  H     19.717200  -16.009100  -117.523000

 Total Charge           Charge          ....    0
 Multiplicity           Mult            ....    1
 Number of Electrons    NEL             ....  134
 Basis Dimension        Dim             ....  322

ORBITAL ENERGIES
----------------

  NO   OCC          E(Eh)            E(eV)
   0   2.0000     -88.974400     -2421.1165
   1   2.0000     -88.965659     -2420.8787
   2   2.0000     -10.338381      -281.3216
   3   2.0000     -10.323690      -280.9219
   4   2.0000     -10.317640      -280.7573
   5   2.0000     -10.314837      -280.6810
   6   2.0000     -10.304207      -280.3917
   7   2.0000     -10.303179      -280.3638
   8   2.0000     -10.302986      -280.3585
   9   2.0000     -10.302815      -280.3539
  10   2.0000     -10.299200      -280.2555
  11   2.0000     -10.296373      -280.1786
  12   2.0000     -10.295475      -280.1541
  13   2.0000     -10.289593      -279.9941
  14   2.0000     -10.287202      -279.9290
  15   2.0000     -10.279703      -279.7249
  16   2.0000      -8.088373      -220.0958
  17   2.0000      -8.082012      -219.9227
  18   2.0000      -6.047043      -164.5484
  19   2.0000      -6.042914      -164.4360
  20   2.0000      -6.040289      -164.3646
  21   2.0000      -6.039049      -164.3309
  22   2.0000      -6.036129      -164.2514
  23   2.0000      -6.033073      -164.1683
  24   2.0000      -1.013231       -27.5714
  25   2.0000      -0.984568       -26.7915
  26   2.0000      -0.911024       -24.7902
  27   2.0000      -0.904732       -24.6190
  28   2.0000      -0.872779       -23.7495
  29   2.0000      -0.854735       -23.2585
  30   2.0000      -0.843412       -22.9504
  31   2.0000      -0.814037       -22.1511
  32   2.0000      -0.777270       -21.1506
  33   2.0000      -0.765477       -20.8297
  34   2.0000      -0.707102       -19.2412
  35   2.0000      -0.693593       -18.8736
  36   2.0000      -0.686828       -18.6895
  37   2.0000      -0.667676       -18.1684
  38   2.0000      -0.632377       -17.2079
  39   2.0000      -0.617791       -16.8109
  40   2.0000      -0.594077       -16.1656
  41   2.0000      -0.572452       -15.5772
  42   2.0000      -0.568100       -15.4588
  43   2.0000      -0.553029       -15.0487
  44   2.0000      -0.525571       -14.3015
  45   2.0000      -0.523952       -14.2575
  46   2.0000      -0.521351       -14.1867
  47   2.0000      -0.510648       -13.8954
  48   2.0000      -0.506666       -13.7871
  49   2.0000      -0.501009       -13.6331
  50   2.0000      -0.491697       -13.3798
  51   2.0000      -0.476460       -12.9651
  52   2.0000      -0.473743       -12.8912
  53   2.0000      -0.464052       -12.6275
  54   2.0000      -0.457957       -12.4617
  55   2.0000      -0.450834       -12.2678
  56   2.0000      -0.448932       -12.2161
  57   2.0000      -0.434646       -11.8273
  58   2.0000      -0.429031       -11.6745
  59   2.0000      -0.424125       -11.5410
  60   2.0000      -0.419975       -11.4281
  61   2.0000      -0.411710       -11.2032
  62   2.0000      -0.408125       -11.1057
  63   2.0000      -0.354706        -9.6521
  64   2.0000      -0.334240        -9.0951
  65   2.0000      -0.326654        -8.8887
  66   2.0000      -0.284581        -7.7438
  67   0.0000       0.022955         0.6246
  68   0.0000       0.068733         1.8703
  69   0.0000       0.108650         2.9565
  70   0.0000       0.119924         3.2633
  71   0.0000       0.123134         3.3506

MULLIKEN ATOMIC CHARGES
-----------------------
   0 S :    0.135828
   1 C :   -0.068491
   2 C :   -0.155269
   3 C :    0.022041
   4 C :   -0.124884
   5 H :    0.019859
   6 C :    0.052719
   7 H :    0.033760
   8 H :    0.036026
   9 C :   -0.124329
  10 H :    0.037485
  11 H :    0.039227
  12 C :   -0.058803
  13 H :    0.039943
  14 H :    0.031563
  15 H :    0.042557
  16 S :    0.110259
  17 C :   -0.105386
  18 C :   -0.028695
  19 C :   -0.050127
  20 C :   -0.162416
  21 H :    0.030774
  22 C :    0.025654
  23 H :    0.038622
  24 H :    0.016809
  25 C :   -0.110941
  26 H :    0.022248
  27 H :    0.036984
  28 C :    0.004072
  29 H :    0.025643
  30 H :    0.033606
  31 H :    0.040106
  32 H :    0.045798
  33 H :    0.067759
Sum of atomic charges:    0.0000000

LOEWDIN ATOMIC CHARGES
----------------------
   0 S :    0.421857
   1 C :   -0.234856
   2 C :   -0.062962
   3 C :   -0.062439
   4 C :   -0.181706
   5 H :    0.032257
   6 C :   -0.035600
   7 H :    0.037438
   8 H :    0.029471
   9 C :   -0.047457
  10 H :    0.031018
  11 H :    0.021765
  12 C :   -0.074792
  13 H :    0.028793
  14 H :    0.025098
  15 H :    0.027820
  16 S :    0.447574
  17 C :   -0.196213
  18 C :   -0.073375
  19 C :   -0.058642
  20 C :   -0.229871
  21 H :    0.038302
  22 C :   -0.037485
  23 H :    0.027986
  24 H :    0.032139
  25 C :   -0.051609
  26 H :    0.028467
  27 H :    0.019643
  28 C :   -0.063270
  29 H :    0.030699
  30 H :    0.029771
  31 H :    0.026776
  32 H :    0.039305
  33 H :    0.034098

  Mayer bond orders larger than 0.100000
B(  0-S ,  1-C ) :   1.1392 B(  0-S ,  4-C ) :   1.1478 B(  1-C ,  2-C ) :   1.6044
B(  1-C ,  4-C ) :   0.1013 B(  1-C , 32-H ) :   0.9502 B(  2-C ,  3-C ) :   1.2378
B(  2-C ,  6-C ) :   1.0438 B(  3-C ,  4-C ) :   1.5398 B(  3-C ,  5-H ) :   0.9866
B(  4-C , 20-C ) :   1.0634 B(  6-C ,  7-H ) :   0.9418 B(  6-C ,  8-H ) :   0.9372
B(  6-C ,  9-C ) :   1.0473 B(  9-C , 10-H ) :   0.9575 B(  9-C , 11-H ) :   0.9631
B(  9-C , 12-C ) :   1.0635 B( 12-C , 13-H ) :   0.9767 B( 12-C , 14-H ) :   0.9771
B( 12-C , 15-H ) :   0.9757 B( 16-S , 17-C ) :   1.1792 B( 16-S , 20-C ) :   1.1729
B( 17-C , 18-C ) :   1.5525 B( 17-C , 20-C ) :   0.1026 B( 17-C , 33-H ) :   0.9654
B( 18-C , 19-C ) :   1.3155 B( 18-C , 21-H ) :   0.9860 B( 19-C , 20-C ) :   1.5157
B( 19-C , 22-C ) :   1.0400 B( 22-C , 23-H ) :   0.9368 B( 22-C , 24-H ) :   0.9375
B( 22-C , 25-C ) :   1.0520 B( 25-C , 26-H ) :   0.9462 B( 25-C , 27-H ) :   0.9550
B( 25-C , 28-C ) :   1.0849 B( 28-C , 29-H ) :   0.9667 B( 28-C , 30-H ) :   0.9691
B( 28-C , 31-H ) :   0.9739

Dispersion correction           -0.014123907
FINAL SINGLE POINT ENERGY     -1339.864961358936

DIPOLE MOMENT
-------------
                                X             Y             Z
Electronic contribution:     29.02186      -1.68399     -10.85670
Nuclear contribution   :    -29.46334       1.66847      11.26376
                        -----------------------------------------
Total Dipole Moment    :     -0.44148      -0.01552       0.40706
                        -----------------------------------------
Magnitude (a.u.)       :      0.60070
Magnitude (Debye)      :      1.52686

Rotational constants in cm-1:     0.017926     0.008933     0.006548
Rotational constants in MHz :   537.418149   267.809603   196.301736

                             ****ORCA TERMINATED NORMALLY****
TOTAL RUN TIME: 0 days 0 hours 0 minutes 21 seconds 583 msec
