                         Program Version 4.2.1 -  RELEASE  -
|  1> ! wB97X-D3 SP def2-SVP
|  2> %pal
|  3> nprocs 24
|  4> end
|  5>
|  6> * xyz 0 1
|  7> S 	 45.7341 	 -14.6458 	 -125.975
|  8> C 	 46.2293 	 -13.2098 	 -125.082
|  9> C 	 45.1549 	 -12.7159 	 -124.422
| 10> C 	 43.9903 	 -13.5169 	 -124.505
| 11> C 	 44.1364 	 -14.4935 	 -125.446
| 12> H 	 43.0597 	 -13.4761 	 -123.982
| 13> C 	 45.1622 	 -11.313 	 -123.804
| 14> H 	 46.1723 	 -10.9145 	 -123.777
| 15> H 	 44.8681 	 -11.3335 	 -122.745
| 16> C 	 44.2005 	 -10.3366 	 -124.404
| 17> H 	 43.1579 	 -10.7246 	 -124.338
| 18> H 	 44.3054 	 -9.46149 	 -123.722
| 19> C 	 44.3158 	 -9.86905 	 -125.953
| 20> H 	 44.7613 	 -10.6738 	 -126.699
| 21> H 	 43.348 	 -9.58134 	 -126.257
| 22> H 	 45.0782 	 -9.12404 	 -125.886
| 23> S 	 43.5116 	 -17.1342 	 -124.941
| 24> C 	 42.053 	 -17.699 	 -125.731
| 25> C 	 41.4304 	 -16.8059 	 -126.531
| 26> C 	 42.0799 	 -15.5998 	 -126.516
| 27> C 	 43.1836 	 -15.5785 	 -125.705
| 28> H 	 40.5076 	 -17.0526 	 -127.041
| 29> C 	 41.6719 	 -14.4587 	 -127.407
| 30> H 	 41.8384 	 -13.5919 	 -126.9
| 31> H 	 40.5961 	 -14.4117 	 -127.493
| 32> C 	 42.2184 	 -14.5202 	 -128.86
| 33> H 	 43.2647 	 -14.2562 	 -128.767
| 34> H 	 41.7288 	 -13.7863 	 -129.434
| 35> C 	 41.9324 	 -15.8409 	 -129.621
| 36> H 	 42.0096 	 -15.7869 	 -130.684
| 37> H 	 40.9053 	 -16.1459 	 -129.362
| 38> H 	 42.6454 	 -16.5172 	 -129.274
| 39> H 	 47.1177 	 -12.6196 	 -125.38
| 40> H 	 41.6871 	 -18.7181 	 -125.611
| 41> *
| 42>
| 43>                          ****END OF INPUT****

CARTESIAN COORDINATES (ANGSTROEM)
---------------------------------
  S     45.734100  -14.645800  -125.975000
  C     46.229300  -13.209800  -125.082000
  C     45.154900  -12.715900  -124.422000
  C     43.990300  -13.516900  -124.505000
  C     44.136400  -14.493500  -125.446000
  H     43.059700  -13.476100  -123.982000
  C     45.162200  -11.313000  -123.804000
  H     46.172300  -10.914500  -123.777000
  H     44.868100  -11.333500  -122.745000
  C     44.200500  -10.336600  -124.404000
  H     43.157900  -10.724600  -124.338000
  H     44.305400   -9.461490  -123.722000
  C     44.315800   -9.869050  -125.953000
  H     44.761300  -10.673800  -126.699000
  H     43.348000   -9.581340  -126.257000
  H     45.078200   -9.124040  -125.886000
  S     43.511600  -17.134200  -124.941000
  C     42.053000  -17.699000  -125.731000
  C     41.430400  -16.805900  -126.531000
  C     42.079900  -15.599800  -126.516000
  C     43.183600  -15.578500  -125.705000
  H     40.507600  -17.052600  -127.041000
  C     41.671900  -14.458700  -127.407000
  H     41.838400  -13.591900  -126.900000
  H     40.596100  -14.411700  -127.493000
  C     42.218400  -14.520200  -128.860000
  H     43.264700  -14.256200  -128.767000
  H     41.728800  -13.786300  -129.434000
  C     41.932400  -15.840900  -129.621000
  H     42.009600  -15.786900  -130.684000
  H     40.905300  -16.145900  -129.362000
  H     42.645400  -16.517200  -129.274000
  H     47.117700  -12.619600  -125.380000
  H     41.687100  -18.718100  -125.611000

 Total Charge           Charge          ....    0
 Multiplicity           Mult            ....    1
 Number of Electrons    NEL             ....  134
 Basis Dimension        Dim             ....  322

ORBITAL ENERGIES
----------------

  NO   OCC          E(Eh)            E(eV)
   0   2.0000     -88.966764     -2420.9087
   1   2.0000     -88.961039     -2420.7529
   2   2.0000     -10.320617      -280.8383
   3   2.0000     -10.319204      -280.7998
   4   2.0000     -10.312241      -280.6103
   5   2.0000     -10.310320      -280.5581
   6   2.0000     -10.298149      -280.2269
   7   2.0000     -10.292568      -280.0750
   8   2.0000     -10.292115      -280.0627
   9   2.0000     -10.290565      -280.0205
  10   2.0000     -10.287966      -279.9498
  11   2.0000     -10.284279      -279.8495
  12   2.0000     -10.283698      -279.8337
  13   2.0000     -10.279173      -279.7105
  14   2.0000     -10.278294      -279.6866
  15   2.0000     -10.270381      -279.4713
  16   2.0000      -8.081426      -219.9068
  17   2.0000      -8.077056      -219.7879
  18   2.0000      -6.039712      -164.3489
  19   2.0000      -6.036194      -164.2532
  20   2.0000      -6.035461      -164.2332
  21   2.0000      -6.032180      -164.1440
  22   2.0000      -6.031329      -164.1208
  23   2.0000      -6.027889      -164.0272
  24   2.0000      -1.016019       -27.6473
  25   2.0000      -0.993212       -27.0267
  26   2.0000      -0.910202       -24.7679
  27   2.0000      -0.907961       -24.7069
  28   2.0000      -0.868675       -23.6378
  29   2.0000      -0.851242       -23.1635
  30   2.0000      -0.842166       -22.9165
  31   2.0000      -0.816989       -22.2314
  32   2.0000      -0.789486       -21.4830
  33   2.0000      -0.777263       -21.1504
  34   2.0000      -0.708892       -19.2899
  35   2.0000      -0.694288       -18.8925
  36   2.0000      -0.684434       -18.6244
  37   2.0000      -0.662106       -18.0168
  38   2.0000      -0.643816       -17.5191
  39   2.0000      -0.619334       -16.8529
  40   2.0000      -0.598898       -16.2968
  41   2.0000      -0.570264       -15.5177
  42   2.0000      -0.559000       -15.2112
  43   2.0000      -0.549376       -14.9493
  44   2.0000      -0.548023       -14.9125
  45   2.0000      -0.535589       -14.5741
  46   2.0000      -0.519959       -14.1488
  47   2.0000      -0.514812       -14.0087
  48   2.0000      -0.495938       -13.4952
  49   2.0000      -0.491594       -13.3769
  50   2.0000      -0.483673       -13.1614
  51   2.0000      -0.478499       -13.0206
  52   2.0000      -0.472113       -12.8468
  53   2.0000      -0.467686       -12.7264
  54   2.0000      -0.459971       -12.5164
  55   2.0000      -0.454086       -12.3563
  56   2.0000      -0.444492       -12.0952
  57   2.0000      -0.443343       -12.0640
  58   2.0000      -0.439959       -11.9719
  59   2.0000      -0.420004       -11.4289
  60   2.0000      -0.413279       -11.2459
  61   2.0000      -0.410237       -11.1631
  62   2.0000      -0.402892       -10.9632
  63   2.0000      -0.342936        -9.3318
  64   2.0000      -0.331313        -9.0155
  65   2.0000      -0.327412        -8.9093
  66   2.0000      -0.304523        -8.2865
  67   0.0000       0.046625         1.2687
  68   0.0000       0.057190         1.5562
  69   0.0000       0.114429         3.1138
  70   0.0000       0.127599         3.4722
  71   0.0000       0.128090         3.4855

MULLIKEN ATOMIC CHARGES
-----------------------
   0 S :    0.097206
   1 C :   -0.135868
   2 C :   -0.062976
   3 C :    0.042940
   4 C :   -0.175548
   5 H :    0.009928
   6 C :    0.091620
   7 H :    0.010654
   8 H :    0.028199
   9 C :   -0.132105
  10 H :    0.032864
  11 H :    0.038644
  12 C :   -0.059648
  13 H :    0.054301
  14 H :    0.038871
  15 H :    0.029917
  16 S :    0.125506
  17 C :   -0.091672
  18 C :   -0.033342
  19 C :   -0.028930
  20 C :   -0.193287
  21 H :    0.016396
  22 C :    0.137106
  23 H :   -0.011684
  24 H :    0.000418
  25 C :   -0.049063
  26 H :    0.029566
  27 H :    0.015944
  28 C :   -0.034712
  29 H :    0.033251
  30 H :    0.022026
  31 H :    0.037046
  32 H :    0.067803
  33 H :    0.048626
Sum of atomic charges:   -0.0000000

LOEWDIN ATOMIC CHARGES
----------------------
   0 S :    0.417830
   1 C :   -0.204885
   2 C :   -0.060762
   3 C :   -0.062530
   4 C :   -0.207325
   5 H :    0.031654
   6 C :   -0.034649
   7 H :    0.025264
   8 H :    0.036746
   9 C :   -0.046102
  10 H :    0.022408
  11 H :    0.029390
  12 C :   -0.069023
  13 H :    0.040738
  14 H :    0.019572
  15 H :    0.019257
  16 S :    0.400816
  17 C :   -0.173917
  18 C :   -0.071768
  19 C :   -0.056574
  20 C :   -0.200541
  21 H :    0.035704
  22 C :   -0.022975
  23 H :    0.016753
  24 H :    0.026332
  25 C :   -0.025478
  26 H :    0.022001
  27 H :    0.016372
  28 C :   -0.056085
  29 H :    0.024142
  30 H :    0.024701
  31 H :    0.020812
  32 H :    0.036348
  33 H :    0.025775

  Mayer bond orders larger than 0.100000
B(  0-S ,  1-C ) :   1.1182 B(  0-S ,  4-C ) :   1.1856 B(  1-C ,  2-C ) :   1.6370
B(  1-C , 32-H ) :   0.9597 B(  2-C ,  3-C ) :   1.2065 B(  2-C ,  6-C ) :   1.0288
B(  3-C ,  4-C ) :   1.5909 B(  3-C ,  5-H ) :   1.0001 B(  4-C , 20-C ) :   0.9803
B(  6-C ,  7-H ) :   0.9439 B(  6-C ,  8-H ) :   0.9282 B(  6-C ,  9-C ) :   1.0750
B(  9-C , 10-H ) :   0.9602 B(  9-C , 11-H ) :   0.9594 B(  9-C , 12-C ) :   1.0446
B( 12-C , 13-H ) :   0.9788 B( 12-C , 14-H ) :   0.9800 B( 12-C , 15-H ) :   0.9803
B( 16-S , 17-C ) :   1.1535 B( 16-S , 20-C ) :   1.1446 B( 17-C , 18-C ) :   1.6245
B( 17-C , 33-H ) :   0.9607 B( 18-C , 19-C ) :   1.2448 B( 18-C , 21-H ) :   0.9927
B( 19-C , 20-C ) :   1.6252 B( 19-C , 22-C ) :   1.0482 B( 22-C , 23-H ) :   0.9140
B( 22-C , 24-H ) :   0.9242 B( 22-C , 25-C ) :   1.0752 B( 25-C , 26-H ) :   0.9590
B( 25-C , 27-H ) :   0.9566 B( 25-C , 28-C ) :   1.0748 B( 28-C , 29-H ) :   0.9750
B( 28-C , 30-H ) :   0.9725 B( 28-C , 31-H ) :   0.9731

Dispersion correction           -0.015432709
FINAL SINGLE POINT ENERGY     -1339.859596756550

DIPOLE MOMENT
-------------
                                X             Y             Z
Electronic contribution:      8.68140     -19.81431      10.40859
Nuclear contribution   :     -9.07952      20.25273     -10.51774
                        -----------------------------------------
Total Dipole Moment    :     -0.39812       0.43842      -0.10915
                        -----------------------------------------
Magnitude (a.u.)       :      0.60218
Magnitude (Debye)      :      1.53062

Rotational constants in cm-1:     0.020605     0.009095     0.007590
Rotational constants in MHz :   617.724682   272.672390   227.549066

                             ****ORCA TERMINATED NORMALLY****
TOTAL RUN TIME: 0 days 0 hours 0 minutes 22 seconds 492 msec
