                         Program Version 4.2.1 -  RELEASE  -
|  1> ! wB97X-D3 SP def2-SVP
|  2> %pal
|  3> nprocs 24
|  4> end
|  5>
|  6> * xyz 0 1
|  7> S 	 -53.9016 	 -51.0485 	 -75.0589
|  8> C 	 -52.2642 	 -51.4063 	 -74.4213
|  9> C 	 -51.8348 	 -52.7318 	 -74.5962
| 10> C 	 -52.9216 	 -53.5088 	 -75.0757
| 11> C 	 -54.113 	 -52.7723 	 -75.2748
| 12> H 	 -52.9814 	 -54.5517 	 -75.284
| 13> C 	 -50.525 	 -53.3782 	 -74.2156
| 14> H 	 -49.7771 	 -52.6245 	 -73.8706
| 15> H 	 -50.2545 	 -53.805 	 -75.1524
| 16> C 	 -50.6652 	 -54.2896 	 -73.0126
| 17> H 	 -50.8576 	 -53.5852 	 -72.2643
| 18> H 	 -51.4759 	 -54.9555 	 -73.0403
| 19> C 	 -49.4831 	 -55.0424 	 -72.5568
| 20> H 	 -49.1525 	 -55.8787 	 -73.1167
| 21> H 	 -48.6447 	 -54.3191 	 -72.5239
| 22> H 	 -49.7258 	 -55.5491 	 -71.6248
| 23> S 	 -56.5766 	 -53.8859 	 -74.5833
| 24> C 	 -57.5757 	 -54.4616 	 -75.8726
| 25> C 	 -57.036 	 -54.2541 	 -77.1545
| 26> C 	 -55.8075 	 -53.6649 	 -77.0674
| 27> C 	 -55.3206 	 -53.4051 	 -75.7363
| 28> H 	 -57.5371 	 -54.5794 	 -78.0796
| 29> C 	 -55.0488 	 -53.2489 	 -78.3194
| 30> H 	 -54.4684 	 -52.3543 	 -78.1555
| 31> H 	 -55.8386 	 -52.9463 	 -79.0312
| 32> C 	 -54.1135 	 -54.2565 	 -78.9115
| 33> H 	 -54.7683 	 -55.0783 	 -79.1405
| 34> H 	 -53.3406 	 -54.6653 	 -78.2456
| 35> C 	 -53.4734 	 -53.7311 	 -80.2223
| 36> H 	 -52.6952 	 -53.0477 	 -79.9611
| 37> H 	 -54.2013 	 -53.2516 	 -80.9089
| 38> H 	 -53.0334 	 -54.4949 	 -80.8191
| 39> H 	 -51.5446 	 -50.6866 	 -74.1728
| 40> H 	 -58.6125 	 -54.7292 	 -75.7382
| 41> *
| 42>
| 43>                          ****END OF INPUT****

CARTESIAN COORDINATES (ANGSTROEM)
---------------------------------
  S    -53.901600  -51.048500  -75.058900
  C    -52.264200  -51.406300  -74.421300
  C    -51.834800  -52.731800  -74.596200
  C    -52.921600  -53.508800  -75.075700
  C    -54.113000  -52.772300  -75.274800
  H    -52.981400  -54.551700  -75.284000
  C    -50.525000  -53.378200  -74.215600
  H    -49.777100  -52.624500  -73.870600
  H    -50.254500  -53.805000  -75.152400
  C    -50.665200  -54.289600  -73.012600
  H    -50.857600  -53.585200  -72.264300
  H    -51.475900  -54.955500  -73.040300
  C    -49.483100  -55.042400  -72.556800
  H    -49.152500  -55.878700  -73.116700
  H    -48.644700  -54.319100  -72.523900
  H    -49.725800  -55.549100  -71.624800
  S    -56.576600  -53.885900  -74.583300
  C    -57.575700  -54.461600  -75.872600
  C    -57.036000  -54.254100  -77.154500
  C    -55.807500  -53.664900  -77.067400
  C    -55.320600  -53.405100  -75.736300
  H    -57.537100  -54.579400  -78.079600
  C    -55.048800  -53.248900  -78.319400
  H    -54.468400  -52.354300  -78.155500
  H    -55.838600  -52.946300  -79.031200
  C    -54.113500  -54.256500  -78.911500
  H    -54.768300  -55.078300  -79.140500
  H    -53.340600  -54.665300  -78.245600
  C    -53.473400  -53.731100  -80.222300
  H    -52.695200  -53.047700  -79.961100
  H    -54.201300  -53.251600  -80.908900
  H    -53.033400  -54.494900  -80.819100
  H    -51.544600  -50.686600  -74.172800
  H    -58.612500  -54.729200  -75.738200

 Total Charge           Charge          ....    0
 Multiplicity           Mult            ....    1
 Number of Electrons    NEL             ....  134
 Basis Dimension        Dim             ....  322

ORBITAL ENERGIES
----------------

  NO   OCC          E(Eh)            E(eV)
   0   2.0000     -88.972257     -2421.0582
   1   2.0000     -88.969097     -2420.9722
   2   2.0000     -10.326988      -281.0116
   3   2.0000     -10.323483      -280.9163
   4   2.0000     -10.316337      -280.7218
   5   2.0000     -10.314198      -280.6636
   6   2.0000     -10.303635      -280.3762
   7   2.0000     -10.299550      -280.2650
   8   2.0000     -10.294677      -280.1324
   9   2.0000     -10.293042      -280.0879
  10   2.0000     -10.291725      -280.0521
  11   2.0000     -10.282911      -279.8122
  12   2.0000     -10.280078      -279.7351
  13   2.0000     -10.273163      -279.5470
  14   2.0000     -10.273010      -279.5428
  15   2.0000     -10.272797      -279.5370
  16   2.0000      -8.085744      -220.0243
  17   2.0000      -8.083423      -219.9611
  18   2.0000      -6.044152      -164.4697
  19   2.0000      -6.041638      -164.4013
  20   2.0000      -6.040628      -164.3738
  21   2.0000      -6.037819      -164.2974
  22   2.0000      -6.036489      -164.2612
  23   2.0000      -6.034697      -164.2125
  24   2.0000      -1.000778       -27.2326
  25   2.0000      -0.979897       -26.6643
  26   2.0000      -0.923754       -25.1366
  27   2.0000      -0.909799       -24.7569
  28   2.0000      -0.870474       -23.6868
  29   2.0000      -0.854569       -23.2540
  30   2.0000      -0.849499       -23.1160
  31   2.0000      -0.808032       -21.9877
  32   2.0000      -0.786672       -21.4064
  33   2.0000      -0.768656       -20.9162
  34   2.0000      -0.706954       -19.2372
  35   2.0000      -0.703688       -19.1483
  36   2.0000      -0.692426       -18.8419
  37   2.0000      -0.658655       -17.9229
  38   2.0000      -0.642284       -17.4774
  39   2.0000      -0.620249       -16.8778
  40   2.0000      -0.597931       -16.2705
  41   2.0000      -0.575265       -15.6537
  42   2.0000      -0.566299       -15.4098
  43   2.0000      -0.562017       -15.2933
  44   2.0000      -0.529897       -14.4192
  45   2.0000      -0.525498       -14.2995
  46   2.0000      -0.514533       -14.0011
  47   2.0000      -0.512306       -13.9405
  48   2.0000      -0.504833       -13.7372
  49   2.0000      -0.499527       -13.5928
  50   2.0000      -0.489830       -13.3290
  51   2.0000      -0.473057       -12.8725
  52   2.0000      -0.471866       -12.8401
  53   2.0000      -0.462799       -12.5934
  54   2.0000      -0.461084       -12.5467
  55   2.0000      -0.451960       -12.2984
  56   2.0000      -0.447077       -12.1656
  57   2.0000      -0.440143       -11.9769
  58   2.0000      -0.432181       -11.7602
  59   2.0000      -0.429310       -11.6821
  60   2.0000      -0.420290       -11.4367
  61   2.0000      -0.416938       -11.3455
  62   2.0000      -0.409395       -11.1402
  63   2.0000      -0.339950        -9.2505
  64   2.0000      -0.332746        -9.0545
  65   2.0000      -0.309966        -8.4346
  66   2.0000      -0.303975        -8.2716
  67   0.0000       0.038545         1.0489
  68   0.0000       0.044429         1.2090
  69   0.0000       0.105635         2.8745
  70   0.0000       0.120632         3.2826
  71   0.0000       0.130382         3.5479

MULLIKEN ATOMIC CHARGES
-----------------------
   0 S :    0.130704
   1 C :   -0.096936
   2 C :   -0.090518
   3 C :    0.033964
   4 C :   -0.178499
   5 H :    0.008552
   6 C :    0.095233
   7 H :    0.019857
   8 H :    0.029094
   9 C :   -0.046758
  10 H :    0.013550
  11 H :    0.016357
  12 C :   -0.014562
  13 H :    0.016268
  14 H :    0.022985
  15 H :    0.029702
  16 S :    0.129545
  17 C :   -0.098974
  18 C :   -0.054587
  19 C :   -0.002326
  20 C :   -0.205398
  21 H :    0.030630
  22 C :    0.062443
  23 H :    0.010863
  24 H :    0.021103
  25 C :   -0.051838
  26 H :    0.007793
  27 H :    0.032818
  28 C :   -0.034449
  29 H :    0.031382
  30 H :    0.027899
  31 H :    0.024000
  32 H :    0.023008
  33 H :    0.057093
Sum of atomic charges:    0.0000000

LOEWDIN ATOMIC CHARGES
----------------------
   0 S :    0.398699
   1 C :   -0.183264
   2 C :   -0.054484
   3 C :   -0.047261
   4 C :   -0.204961
   5 H :    0.026908
   6 C :   -0.024570
   7 H :    0.034189
   8 H :    0.027952
   9 C :   -0.038106
  10 H :    0.025570
  11 H :    0.016994
  12 C :   -0.060823
  13 H :    0.017412
  14 H :    0.026409
  15 H :    0.031962
  16 S :    0.426762
  17 C :   -0.192049
  18 C :   -0.079634
  19 C :   -0.049460
  20 C :   -0.215056
  21 H :    0.039631
  22 C :   -0.032678
  23 H :    0.022617
  24 H :    0.032600
  25 C :   -0.038527
  26 H :    0.017218
  27 H :    0.026928
  28 C :   -0.062060
  29 H :    0.022909
  30 H :    0.027874
  31 H :    0.021329
  32 H :    0.013197
  33 H :    0.025772

  Mayer bond orders larger than 0.100000
B(  0-S ,  1-C ) :   1.1339 B(  0-S ,  4-C ) :   1.1395 B(  1-C ,  2-C ) :   1.6156
B(  1-C , 32-H ) :   0.9651 B(  2-C ,  3-C ) :   1.2268 B(  2-C ,  6-C ) :   1.0256
B(  3-C ,  4-C ) :   1.5831 B(  3-C ,  5-H ) :   0.9908 B(  4-C , 20-C ) :   1.0646
B(  6-C ,  7-H ) :   0.9369 B(  6-C ,  8-H ) :   0.9331 B(  6-C ,  9-C ) :   1.0598
B(  9-C , 10-H ) :   0.9476 B(  9-C , 11-H ) :   0.9564 B(  9-C , 12-C ) :   1.1046
B( 12-C , 13-H ) :   0.9721 B( 12-C , 14-H ) :   0.9685 B( 12-C , 15-H ) :   0.9675
B( 16-S , 17-C ) :   1.2062 B( 16-S , 20-C ) :   1.1545 B( 17-C , 18-C ) :   1.5275
B( 17-C , 20-C ) :   0.1239 B( 17-C , 33-H ) :   0.9633 B( 18-C , 19-C ) :   1.3321
B( 18-C , 21-H ) :   0.9858 B( 19-C , 20-C ) :   1.5175 B( 19-C , 22-C ) :   1.0327
B( 22-C , 23-H ) :   0.9287 B( 22-C , 24-H ) :   0.9367 B( 22-C , 25-C ) :   1.0710
B( 25-C , 26-H ) :   0.9521 B( 25-C , 27-H ) :   0.9528 B( 25-C , 28-C ) :   1.0821
B( 28-C , 29-H ) :   0.9764 B( 28-C , 30-H ) :   0.9737 B( 28-C , 31-H ) :   0.9740

Dispersion correction           -0.014164920
FINAL SINGLE POINT ENERGY     -1339.861659373578

DIPOLE MOMENT
-------------
                                X             Y             Z
Electronic contribution:    -20.48305      10.35108       8.87806
Nuclear contribution   :     20.81404     -10.63334      -9.13401
                        -----------------------------------------
Total Dipole Moment    :      0.33100      -0.28226      -0.25595
                        -----------------------------------------
Magnitude (a.u.)       :      0.50472
Magnitude (Debye)      :      1.28289

Rotational constants in cm-1:     0.016951     0.008208     0.007166
Rotational constants in MHz :   508.187628   246.075895   214.825173

                             ****ORCA TERMINATED NORMALLY****
TOTAL RUN TIME: 0 days 0 hours 0 minutes 21 seconds 319 msec
