                         Program Version 4.2.1 -  RELEASE  -
|  1> ! wB97X-D3 SP def2-SVP
|  2> %pal
|  3> nprocs 24
|  4> end
|  5>
|  6> * xyz 0 1
|  7> S 	 -109.534 	 55.4909 	 -93.7964
|  8> C 	 -109.761 	 56.8582 	 -92.7012
|  9> C 	 -110.443 	 57.8512 	 -93.2867
| 10> C 	 -110.797 	 57.5838 	 -94.6286
| 11> C 	 -110.484 	 56.2826 	 -94.9764
| 12> H 	 -111.395 	 58.183 	 -95.278
| 13> C 	 -110.97 	 59.0493 	 -92.6487
| 14> H 	 -110.866 	 59.8999 	 -93.2827
| 15> H 	 -110.236 	 59.3549 	 -91.8828
| 16> C 	 -112.277 	 58.9598 	 -91.8771
| 17> H 	 -112.563 	 59.951 	 -91.5071
| 18> H 	 -113.14 	 58.6828 	 -92.4855
| 19> C 	 -112.286 	 57.8922 	 -90.7075
| 20> H 	 -111.522 	 58.0077 	 -89.901
| 21> H 	 -113.287 	 57.9544 	 -90.1828
| 22> H 	 -112.187 	 56.8877 	 -91.1211
| 23> S 	 -112 	 54.2318 	 -96.0051
| 24> C 	 -112.338 	 54.2448 	 -97.696
| 25> C 	 -111.445 	 55.0722 	 -98.3486
| 26> C 	 -110.716 	 55.9436 	 -97.4922
| 27> C 	 -110.912 	 55.6455 	 -96.1688
| 28> H 	 -111.584 	 55.1543 	 -99.4224
| 29> C 	 -109.836 	 57.0746 	 -98.052
| 30> H 	 -109.19 	 57.5527 	 -97.357
| 31> H 	 -110.502 	 57.8954 	 -98.3546
| 32> C 	 -108.938 	 56.7714 	 -99.328
| 33> H 	 -109.594 	 56.2893 	 -100.096
| 34> H 	 -108.296 	 55.9125 	 -99.0921
| 35> C 	 -108.108 	 57.9571 	 -99.8415
| 36> H 	 -107.49 	 57.7323 	 -100.715
| 37> H 	 -107.334 	 58.2877 	 -99.1256
| 38> H 	 -108.766 	 58.8552 	 -100.056
| 39> H 	 -109.363 	 56.8728 	 -91.6639
| 40> H 	 -113.212 	 53.7443 	 -98.135
| 41> *
| 42>
| 43>                          ****END OF INPUT****

CARTESIAN COORDINATES (ANGSTROEM)
---------------------------------
  S    -109.534000   55.490900  -93.796400
  C    -109.761000   56.858200  -92.701200
  C    -110.443000   57.851200  -93.286700
  C    -110.797000   57.583800  -94.628600
  C    -110.484000   56.282600  -94.976400
  H    -111.395000   58.183000  -95.278000
  C    -110.970000   59.049300  -92.648700
  H    -110.866000   59.899900  -93.282700
  H    -110.236000   59.354900  -91.882800
  C    -112.277000   58.959800  -91.877100
  H    -112.563000   59.951000  -91.507100
  H    -113.140000   58.682800  -92.485500
  C    -112.286000   57.892200  -90.707500
  H    -111.522000   58.007700  -89.901000
  H    -113.287000   57.954400  -90.182800
  H    -112.187000   56.887700  -91.121100
  S    -112.000000   54.231800  -96.005100
  C    -112.338000   54.244800  -97.696000
  C    -111.445000   55.072200  -98.348600
  C    -110.716000   55.943600  -97.492200
  C    -110.912000   55.645500  -96.168800
  H    -111.584000   55.154300  -99.422400
  C    -109.836000   57.074600  -98.052000
  H    -109.190000   57.552700  -97.357000
  H    -110.502000   57.895400  -98.354600
  C    -108.938000   56.771400  -99.328000
  H    -109.594000   56.289300  -100.096000
  H    -108.296000   55.912500  -99.092100
  C    -108.108000   57.957100  -99.841500
  H    -107.490000   57.732300  -100.715000
  H    -107.334000   58.287700  -99.125600
  H    -108.766000   58.855200  -100.056000
  H    -109.363000   56.872800  -91.663900
  H    -113.212000   53.744300  -98.135000

 Total Charge           Charge          ....    0
 Multiplicity           Mult            ....    1
 Number of Electrons    NEL             ....  134
 Basis Dimension        Dim             ....  322

ORBITAL ENERGIES
----------------

  NO   OCC          E(Eh)            E(eV)
   0   2.0000     -88.964900     -2420.8580
   1   2.0000     -88.961301     -2420.7601
   2   2.0000     -10.322504      -280.8896
   3   2.0000     -10.321081      -280.8509
   4   2.0000     -10.318401      -280.7780
   5   2.0000     -10.309951      -280.5480
   6   2.0000     -10.307088      -280.4701
   7   2.0000     -10.294304      -280.1223
   8   2.0000     -10.294000      -280.1140
   9   2.0000     -10.293193      -280.0920
  10   2.0000     -10.290849      -280.0282
  11   2.0000     -10.289631      -279.9951
  12   2.0000     -10.288074      -279.9527
  13   2.0000     -10.286287      -279.9041
  14   2.0000     -10.284556      -279.8570
  15   2.0000     -10.283648      -279.8323
  16   2.0000      -8.080316      -219.8766
  17   2.0000      -8.076416      -219.7705
  18   2.0000      -6.038767      -164.3232
  19   2.0000      -6.034852      -164.2167
  20   2.0000      -6.034771      -164.2145
  21   2.0000      -6.031061      -164.1135
  22   2.0000      -6.030920      -164.1097
  23   2.0000      -6.027160      -164.0074
  24   2.0000      -1.013290       -27.5730
  25   2.0000      -0.988607       -26.9014
  26   2.0000      -0.915972       -24.9249
  27   2.0000      -0.899571       -24.4786
  28   2.0000      -0.869929       -23.6720
  29   2.0000      -0.850518       -23.1438
  30   2.0000      -0.844591       -22.9825
  31   2.0000      -0.809854       -22.0372
  32   2.0000      -0.784420       -21.3451
  33   2.0000      -0.775452       -21.1011
  34   2.0000      -0.709552       -19.3079
  35   2.0000      -0.700001       -19.0480
  36   2.0000      -0.698667       -19.0117
  37   2.0000      -0.656381       -17.8610
  38   2.0000      -0.641256       -17.4495
  39   2.0000      -0.620913       -16.8959
  40   2.0000      -0.601397       -16.3648
  41   2.0000      -0.570042       -15.5116
  42   2.0000      -0.554706       -15.0943
  43   2.0000      -0.547662       -14.9026
  44   2.0000      -0.537103       -14.6153
  45   2.0000      -0.522412       -14.2155
  46   2.0000      -0.518549       -14.1104
  47   2.0000      -0.512035       -13.9332
  48   2.0000      -0.499472       -13.5913
  49   2.0000      -0.494833       -13.4651
  50   2.0000      -0.489193       -13.3116
  51   2.0000      -0.479721       -13.0539
  52   2.0000      -0.470530       -12.8038
  53   2.0000      -0.463519       -12.6130
  54   2.0000      -0.461536       -12.5590
  55   2.0000      -0.452328       -12.3085
  56   2.0000      -0.447982       -12.1902
  57   2.0000      -0.439018       -11.9463
  58   2.0000      -0.428623       -11.6634
  59   2.0000      -0.421690       -11.4748
  60   2.0000      -0.421352       -11.4656
  61   2.0000      -0.411737       -11.2039
  62   2.0000      -0.408573       -11.1178
  63   2.0000      -0.342522        -9.3205
  64   2.0000      -0.334560        -9.1039
  65   2.0000      -0.328879        -8.9493
  66   2.0000      -0.292504        -7.9594
  67   0.0000       0.037691         1.0256
  68   0.0000       0.058860         1.6017
  69   0.0000       0.118127         3.2144
  70   0.0000       0.126948         3.4544
  71   0.0000       0.131477         3.5777

MULLIKEN ATOMIC CHARGES
-----------------------
   0 S :    0.118499
   1 C :   -0.151753
   2 C :   -0.061080
   3 C :    0.042513
   4 C :   -0.172216
   5 H :    0.001363
   6 C :    0.087607
   7 H :    0.013206
   8 H :    0.007896
   9 C :   -0.039473
  10 H :    0.027744
  11 H :    0.025944
  12 C :   -0.107030
  13 H :    0.033260
  14 H :    0.042125
  15 H :    0.054139
  16 S :    0.104046
  17 C :   -0.116441
  18 C :   -0.042106
  19 C :    0.018550
  20 C :   -0.176473
  21 H :    0.025126
  22 C :    0.071206
  23 H :    0.018018
  24 H :    0.029504
  25 C :   -0.101426
  26 H :    0.030342
  27 H :    0.033420
  28 C :   -0.064715
  29 H :    0.040127
  30 H :    0.036737
  31 H :    0.041446
  32 H :    0.055829
  33 H :    0.074065
Sum of atomic charges:   -0.0000000

LOEWDIN ATOMIC CHARGES
----------------------
   0 S :    0.413771
   1 C :   -0.195497
   2 C :   -0.070906
   3 C :   -0.053521
   4 C :   -0.203022
   5 H :    0.028287
   6 C :   -0.040638
   7 H :    0.028682
   8 H :    0.034051
   9 C :   -0.034516
  10 H :    0.025173
  11 H :    0.023802
  12 C :   -0.075166
  13 H :    0.022465
  14 H :    0.033544
  15 H :    0.026710
  16 S :    0.393118
  17 C :   -0.187468
  18 C :   -0.078592
  19 C :   -0.050241
  20 C :   -0.189332
  21 H :    0.030643
  22 C :   -0.028777
  23 H :    0.023580
  24 H :    0.032825
  25 C :   -0.047206
  26 H :    0.023106
  27 H :    0.025710
  28 C :   -0.074492
  29 H :    0.030609
  30 H :    0.029360
  31 H :    0.031675
  32 H :    0.035205
  33 H :    0.037056

  Mayer bond orders larger than 0.100000
B(  0-S ,  1-C ) :   1.1109 B(  0-S ,  4-C ) :   1.1705 B(  1-C ,  2-C ) :   1.6319
B(  1-C , 32-H ) :   0.9645 B(  2-C ,  3-C ) :   1.2247 B(  2-C ,  6-C ) :   1.0422
B(  3-C ,  4-C ) :   1.5653 B(  3-C ,  5-H ) :   1.0056 B(  4-C , 20-C ) :   1.0492
B(  6-C ,  7-H ) :   0.9309 B(  6-C ,  8-H ) :   0.9261 B(  6-C ,  9-C ) :   1.0672
B(  9-C , 10-H ) :   0.9556 B(  9-C , 11-H ) :   0.9553 B(  9-C , 12-C ) :   1.0679
B( 12-C , 13-H ) :   0.9778 B( 12-C , 14-H ) :   0.9742 B( 12-C , 15-H ) :   0.9734
B( 16-S , 17-C ) :   1.1660 B( 16-S , 20-C ) :   1.1212 B( 17-C , 18-C ) :   1.6129
B( 17-C , 20-C ) :   0.1018 B( 17-C , 33-H ) :   0.9650 B( 18-C , 19-C ) :   1.2188
B( 18-C , 21-H ) :   0.9855 B( 19-C , 20-C ) :   1.6189 B( 19-C , 22-C ) :   1.0394
B( 22-C , 23-H ) :   0.9412 B( 22-C , 24-H ) :   0.9311 B( 22-C , 25-C ) :   1.0498
B( 25-C , 26-H ) :   0.9534 B( 25-C , 27-H ) :   0.9570 B( 25-C , 28-C ) :   1.0806
B( 28-C , 29-H ) :   0.9726 B( 28-C , 30-H ) :   0.9731 B( 28-C , 31-H ) :   0.9749

Dispersion correction           -0.014190784
FINAL SINGLE POINT ENERGY     -1339.879098505187

DIPOLE MOMENT
-------------
                                X             Y             Z
Electronic contribution:     -1.86068     -19.18083       2.34053
Nuclear contribution   :      1.70228      19.76088      -2.58217
                        -----------------------------------------
Total Dipole Moment    :     -0.15839       0.58005      -0.24164
                        -----------------------------------------
Magnitude (a.u.)       :      0.64803
Magnitude (Debye)      :      1.64716

Rotational constants in cm-1:     0.019899     0.007879     0.006668
Rotational constants in MHz :   596.551821   236.212651   199.895385

                             ****ORCA TERMINATED NORMALLY****
TOTAL RUN TIME: 0 days 0 hours 0 minutes 21 seconds 181 msec
