                         Program Version 4.2.1 -  RELEASE  -
|  1> ! wB97X-D3 SP def2-SVP
|  2> %pal
|  3> nprocs 24
|  4> end
|  5>
|  6> * xyz 0 1
|  7> S 	 -71.8655 	 8.11684 	 -111.424
|  8> C 	 -72.9697 	 8.20866 	 -110.041
|  9> C 	 -72.6967 	 7.25158 	 -109.094
| 10> C 	 -71.4936 	 6.52728 	 -109.413
| 11> C 	 -70.8944 	 6.94975 	 -110.553
| 12> H 	 -71.0654 	 5.68481 	 -108.773
| 13> C 	 -73.4786 	 7.12237 	 -107.792
| 14> H 	 -73.1744 	 6.30831 	 -107.191
| 15> H 	 -74.514 	 6.85075 	 -108.101
| 16> C 	 -73.7048 	 8.36634 	 -106.957
| 17> H 	 -72.7797 	 8.72791 	 -106.57
| 18> H 	 -74.2112 	 9.14892 	 -107.605
| 19> C 	 -74.4324 	 8.0837 	 -105.646
| 20> H 	 -73.9983 	 7.41734 	 -105.043
| 21> H 	 -74.8043 	 9.01148 	 -105.187
| 22> H 	 -75.4052 	 7.57171 	 -105.836
| 23> S 	 -69.4385 	 5.92767 	 -112.714
| 24> C 	 -67.7497 	 5.40035 	 -112.404
| 25> C 	 -67.326 	 5.73774 	 -111.144
| 26> C 	 -68.3253 	 6.40738 	 -110.397
| 27> C 	 -69.5674 	 6.55056 	 -111.059
| 28> H 	 -66.3449 	 5.50617 	 -110.878
| 29> C 	 -67.9818 	 6.73893 	 -108.895
| 30> H 	 -68.7965 	 7.4775 	 -108.565
| 31> H 	 -67.0941 	 7.28206 	 -108.807
| 32> C 	 -67.8202 	 5.58433 	 -107.936
| 33> H 	 -67.0364 	 4.93126 	 -108.346
| 34> H 	 -68.7654 	 5.01824 	 -107.856
| 35> C 	 -67.4255 	 6.04488 	 -106.516
| 36> H 	 -68.3181 	 6.25559 	 -106.052
| 37> H 	 -66.8264 	 6.94513 	 -106.541
| 38> H 	 -66.8221 	 5.35274 	 -105.903
| 39> H 	 -73.8179 	 8.9517 	 -109.992
| 40> H 	 -67.0628 	 4.8635 	 -113.048
| 41> *
| 42>
| 43>                          ****END OF INPUT****

CARTESIAN COORDINATES (ANGSTROEM)
---------------------------------
  S    -71.865500    8.116840  -111.424000
  C    -72.969700    8.208660  -110.041000
  C    -72.696700    7.251580  -109.094000
  C    -71.493600    6.527280  -109.413000
  C    -70.894400    6.949750  -110.553000
  H    -71.065400    5.684810  -108.773000
  C    -73.478600    7.122370  -107.792000
  H    -73.174400    6.308310  -107.191000
  H    -74.514000    6.850750  -108.101000
  C    -73.704800    8.366340  -106.957000
  H    -72.779700    8.727910  -106.570000
  H    -74.211200    9.148920  -107.605000
  C    -74.432400    8.083700  -105.646000
  H    -73.998300    7.417340  -105.043000
  H    -74.804300    9.011480  -105.187000
  H    -75.405200    7.571710  -105.836000
  S    -69.438500    5.927670  -112.714000
  C    -67.749700    5.400350  -112.404000
  C    -67.326000    5.737740  -111.144000
  C    -68.325300    6.407380  -110.397000
  C    -69.567400    6.550560  -111.059000
  H    -66.344900    5.506170  -110.878000
  C    -67.981800    6.738930  -108.895000
  H    -68.796500    7.477500  -108.565000
  H    -67.094100    7.282060  -108.807000
  C    -67.820200    5.584330  -107.936000
  H    -67.036400    4.931260  -108.346000
  H    -68.765400    5.018240  -107.856000
  C    -67.425500    6.044880  -106.516000
  H    -68.318100    6.255590  -106.052000
  H    -66.826400    6.945130  -106.541000
  H    -66.822100    5.352740  -105.903000
  H    -73.817900    8.951700  -109.992000
  H    -67.062800    4.863500  -113.048000

 Total Charge           Charge          ....    0
 Multiplicity           Mult            ....    1
 Number of Electrons    NEL             ....  134
 Basis Dimension        Dim             ....  322

ORBITAL ENERGIES
----------------

  NO   OCC          E(Eh)            E(eV)
   0   2.0000     -88.968404     -2420.9534
   1   2.0000     -88.966046     -2420.8892
   2   2.0000     -10.334010      -281.2027
   3   2.0000     -10.330009      -281.0938
   4   2.0000     -10.319712      -280.8136
   5   2.0000     -10.319280      -280.8019
   6   2.0000     -10.308925      -280.5201
   7   2.0000     -10.304273      -280.3935
   8   2.0000     -10.300580      -280.2930
   9   2.0000     -10.292029      -280.0604
  10   2.0000     -10.292006      -280.0597
  11   2.0000     -10.289833      -280.0006
  12   2.0000     -10.288558      -279.9659
  13   2.0000     -10.288373      -279.9609
  14   2.0000     -10.274282      -279.5774
  15   2.0000     -10.273659      -279.5605
  16   2.0000      -8.081916      -219.9201
  17   2.0000      -8.080730      -219.8879
  18   2.0000      -6.040567      -164.3722
  19   2.0000      -6.039296      -164.3376
  20   2.0000      -6.036622      -164.2648
  21   2.0000      -6.035363      -164.2306
  22   2.0000      -6.032564      -164.1544
  23   2.0000      -6.031316      -164.1204
  24   2.0000      -1.003569       -27.3085
  25   2.0000      -0.980072       -26.6691
  26   2.0000      -0.917111       -24.9559
  27   2.0000      -0.907975       -24.7073
  28   2.0000      -0.870642       -23.6914
  29   2.0000      -0.849499       -23.1160
  30   2.0000      -0.846137       -23.0246
  31   2.0000      -0.817060       -22.2333
  32   2.0000      -0.785396       -21.3717
  33   2.0000      -0.771719       -20.9996
  34   2.0000      -0.707522       -19.2527
  35   2.0000      -0.702595       -19.1186
  36   2.0000      -0.691667       -18.8212
  37   2.0000      -0.661411       -17.9979
  38   2.0000      -0.638080       -17.3630
  39   2.0000      -0.617233       -16.7958
  40   2.0000      -0.591891       -16.1062
  41   2.0000      -0.580452       -15.7949
  42   2.0000      -0.572347       -15.5744
  43   2.0000      -0.563967       -15.3463
  44   2.0000      -0.529498       -14.4084
  45   2.0000      -0.522212       -14.2101
  46   2.0000      -0.516587       -14.0570
  47   2.0000      -0.513503       -13.9731
  48   2.0000      -0.505419       -13.7531
  49   2.0000      -0.497926       -13.5492
  50   2.0000      -0.493248       -13.4219
  51   2.0000      -0.477395       -12.9906
  52   2.0000      -0.469055       -12.7636
  53   2.0000      -0.465611       -12.6699
  54   2.0000      -0.456000       -12.4084
  55   2.0000      -0.454089       -12.3564
  56   2.0000      -0.448045       -12.1919
  57   2.0000      -0.436383       -11.8746
  58   2.0000      -0.433289       -11.7904
  59   2.0000      -0.429486       -11.6869
  60   2.0000      -0.423102       -11.5132
  61   2.0000      -0.412741       -11.2313
  62   2.0000      -0.410160       -11.1610
  63   2.0000      -0.347979        -9.4690
  64   2.0000      -0.333166        -9.0659
  65   2.0000      -0.330451        -8.9920
  66   2.0000      -0.292886        -7.9698
  67   0.0000       0.029949         0.8149
  68   0.0000       0.064794         1.7631
  69   0.0000       0.100747         2.7415
  70   0.0000       0.122721         3.3394
  71   0.0000       0.129679         3.5287

MULLIKEN ATOMIC CHARGES
-----------------------
   0 S :    0.108713
   1 C :   -0.161387
   2 C :   -0.057686
   3 C :    0.001586
   4 C :   -0.140773
   5 H :    0.038889
   6 C :    0.068574
   7 H :    0.002358
   8 H :    0.029651
   9 C :   -0.069518
  10 H :    0.026447
  11 H :    0.038301
  12 C :   -0.017718
  13 H :    0.008232
  14 H :    0.040539
  15 H :    0.005111
  16 S :    0.100201
  17 C :   -0.085332
  18 C :   -0.020119
  19 C :   -0.011459
  20 C :   -0.147973
  21 H :   -0.000470
  22 C :    0.041006
  23 H :    0.038743
  24 H :    0.006960
  25 C :   -0.078996
  26 H :    0.027677
  27 H :    0.029469
  28 C :   -0.018384
  29 H :    0.017692
  30 H :    0.019825
  31 H :    0.038172
  32 H :    0.069543
  33 H :    0.052124
Sum of atomic charges:   -0.0000000

LOEWDIN ATOMIC CHARGES
----------------------
   0 S :    0.391321
   1 C :   -0.193560
   2 C :   -0.063462
   3 C :   -0.067737
   4 C :   -0.192229
   5 H :    0.045512
   6 C :   -0.034150
   7 H :    0.020914
   8 H :    0.038388
   9 C :   -0.037300
  10 H :    0.020731
  11 H :    0.029988
  12 C :   -0.058980
  13 H :    0.006792
  14 H :    0.034534
  15 H :    0.024996
  16 S :    0.380182
  17 C :   -0.167892
  18 C :   -0.064690
  19 C :   -0.050633
  20 C :   -0.192655
  21 H :    0.024079
  22 C :   -0.033585
  23 H :    0.035692
  24 H :    0.019036
  25 C :   -0.040219
  26 H :    0.022528
  27 H :    0.022445
  28 C :   -0.058644
  29 H :    0.016063
  30 H :    0.023145
  31 H :    0.030773
  32 H :    0.037230
  33 H :    0.031389

  Mayer bond orders larger than 0.100000
B(  0-S ,  1-C ) :   1.1249 B(  0-S ,  4-C ) :   1.1451 B(  1-C ,  2-C ) :   1.6333
B(  1-C , 32-H ) :   0.9625 B(  2-C ,  3-C ) :   1.2176 B(  2-C ,  6-C ) :   1.0188
B(  3-C ,  4-C ) :   1.6035 B(  3-C ,  5-H ) :   0.9863 B(  4-C , 20-C ) :   1.0152
B(  6-C ,  7-H ) :   0.9471 B(  6-C ,  8-H ) :   0.9282 B(  6-C ,  9-C ) :   1.0734
B(  9-C , 10-H ) :   0.9558 B(  9-C , 11-H ) :   0.9503 B(  9-C , 12-C ) :   1.0835
B( 12-C , 13-H ) :   0.9749 B( 12-C , 14-H ) :   0.9713 B( 12-C , 15-H ) :   0.9676
B( 16-S , 17-C ) :   1.1372 B( 16-S , 20-C ) :   1.1317 B( 17-C , 18-C ) :   1.6372
B( 17-C , 20-C ) :   0.1009 B( 17-C , 33-H ) :   0.9631 B( 18-C , 19-C ) :   1.2259
B( 18-C , 21-H ) :   0.9985 B( 19-C , 20-C ) :   1.6052 B( 19-C , 22-C ) :   1.0339
B( 22-C , 23-H ) :   0.9398 B( 22-C , 24-H ) :   0.9324 B( 22-C , 25-C ) :   1.0704
B( 25-C , 26-H ) :   0.9525 B( 25-C , 27-H ) :   0.9578 B( 25-C , 28-C ) :   1.0676
B( 28-C , 29-H ) :   0.9787 B( 28-C , 30-H ) :   0.9741 B( 28-C , 31-H ) :   0.9760

Dispersion correction           -0.013682411
FINAL SINGLE POINT ENERGY     -1339.860067353334

DIPOLE MOMENT
-------------
                                X             Y             Z
Electronic contribution:      1.97049      -0.14449     -32.99148
Nuclear contribution   :     -1.85056      -0.00021      33.78706
                        -----------------------------------------
Total Dipole Moment    :      0.11993      -0.14470       0.79558
                        -----------------------------------------
Magnitude (a.u.)       :      0.81748
Magnitude (Debye)      :      2.07786

Rotational constants in cm-1:     0.017643     0.008573     0.006071
Rotational constants in MHz :   528.924195   257.004230   181.991591

                             ****ORCA TERMINATED NORMALLY****
TOTAL RUN TIME: 0 days 0 hours 0 minutes 21 seconds 130 msec
