                         Program Version 4.2.1 -  RELEASE  -
|  1> ! wB97X-D3 SP def2-SVP
|  2> %pal
|  3> nprocs 24
|  4> end
|  5>
|  6> * xyz 0 1
|  7> S 	 -59.0371 	 -4.37429 	 -26.2834
|  8> C 	 -60.018 	 -5.80795 	 -26.6139
|  9> C 	 -60.9904 	 -5.9076 	 -25.6527
| 10> C 	 -60.955 	 -4.88251 	 -24.6676
| 11> C 	 -59.9339 	 -3.93385 	 -24.781
| 12> H 	 -61.7199 	 -4.7502 	 -23.9342
| 13> C 	 -62.0526 	 -7.08523 	 -25.6023
| 14> H 	 -62.7252 	 -6.83208 	 -24.8206
| 15> H 	 -61.6604 	 -8.04456 	 -25.4549
| 16> C 	 -63.0238 	 -7.10162 	 -26.7623
| 17> H 	 -63.4975 	 -6.13552 	 -26.7081
| 18> H 	 -62.4151 	 -7.13775 	 -27.7275
| 19> C 	 -64.1248 	 -8.14874 	 -26.6379
| 20> H 	 -63.8539 	 -9.11753 	 -27.0574
| 21> H 	 -64.5534 	 -8.35799 	 -25.6373
| 22> H 	 -65.0006 	 -7.90014 	 -27.2176
| 23> S 	 -58.239 	 -2.7421 	 -23.0028
| 24> C 	 -58.5496 	 -1.16798 	 -22.4663
| 25> C 	 -59.6553 	 -0.638023 	 -23.0527
| 26> C 	 -60.3659 	 -1.53645 	 -23.9365
| 27> C 	 -59.6389 	 -2.70282 	 -24.05
| 28> H 	 -59.9992 	 0.37258 	 -22.7094
| 29> C 	 -61.5734 	 -1.06484 	 -24.6791
| 30> H 	 -61.8827 	 -0.0656401 	 -24.3537
| 31> H 	 -62.3554 	 -1.77167 	 -24.3912
| 32> C 	 -61.4489 	 -1.04789 	 -26.1997
| 33> H 	 -62.4131 	 -0.729973 	 -26.652
| 34> H 	 -61.1648 	 -2.05917 	 -26.5587
| 35> C 	 -60.3739 	 -0.13834 	 -26.764
| 36> H 	 -59.537 	 0.0114798 	 -26.1581
| 37> H 	 -60.8728 	 0.766346 	 -26.8678
| 38> H 	 -59.9306 	 -0.554402 	 -27.7518
| 39> H 	 -59.8518 	 -6.46023 	 -27.4459
| 40> H 	 -57.9708 	 -0.627637 	 -21.7283
| 41> *
| 42>
| 43>                          ****END OF INPUT****

CARTESIAN COORDINATES (ANGSTROEM)
---------------------------------
  S    -59.037100   -4.374290  -26.283400
  C    -60.018000   -5.807950  -26.613900
  C    -60.990400   -5.907600  -25.652700
  C    -60.955000   -4.882510  -24.667600
  C    -59.933900   -3.933850  -24.781000
  H    -61.719900   -4.750200  -23.934200
  C    -62.052600   -7.085230  -25.602300
  H    -62.725200   -6.832080  -24.820600
  H    -61.660400   -8.044560  -25.454900
  C    -63.023800   -7.101620  -26.762300
  H    -63.497500   -6.135520  -26.708100
  H    -62.415100   -7.137750  -27.727500
  C    -64.124800   -8.148740  -26.637900
  H    -63.853900   -9.117530  -27.057400
  H    -64.553400   -8.357990  -25.637300
  H    -65.000600   -7.900140  -27.217600
  S    -58.239000   -2.742100  -23.002800
  C    -58.549600   -1.167980  -22.466300
  C    -59.655300   -0.638023  -23.052700
  C    -60.365900   -1.536450  -23.936500
  C    -59.638900   -2.702820  -24.050000
  H    -59.999200    0.372580  -22.709400
  C    -61.573400   -1.064840  -24.679100
  H    -61.882700   -0.065640  -24.353700
  H    -62.355400   -1.771670  -24.391200
  C    -61.448900   -1.047890  -26.199700
  H    -62.413100   -0.729973  -26.652000
  H    -61.164800   -2.059170  -26.558700
  C    -60.373900   -0.138340  -26.764000
  H    -59.537000    0.011480  -26.158100
  H    -60.872800    0.766346  -26.867800
  H    -59.930600   -0.554402  -27.751800
  H    -59.851800   -6.460230  -27.445900
  H    -57.970800   -0.627637  -21.728300

 Total Charge           Charge          ....    0
 Multiplicity           Mult            ....    1
 Number of Electrons    NEL             ....  134
 Basis Dimension        Dim             ....  322

ORBITAL ENERGIES
----------------

  NO   OCC          E(Eh)            E(eV)
   0   2.0000     -88.965950     -2420.8866
   1   2.0000     -88.962608     -2420.7956
   2   2.0000     -10.335679      -281.2481
   3   2.0000     -10.326917      -281.0097
   4   2.0000     -10.316975      -280.7392
   5   2.0000     -10.312040      -280.6049
   6   2.0000     -10.306406      -280.4516
   7   2.0000     -10.303837      -280.3817
   8   2.0000     -10.297138      -280.1994
   9   2.0000     -10.293531      -280.1012
  10   2.0000     -10.292202      -280.0651
  11   2.0000     -10.288261      -279.9578
  12   2.0000     -10.285952      -279.8950
  13   2.0000     -10.281931      -279.7856
  14   2.0000     -10.279862      -279.7293
  15   2.0000     -10.263961      -279.2966
  16   2.0000      -8.081980      -219.9219
  17   2.0000      -8.076163      -219.7636
  18   2.0000      -6.040363      -164.3666
  19   2.0000      -6.036232      -164.2542
  20   2.0000      -6.034732      -164.2134
  21   2.0000      -6.032856      -164.1624
  22   2.0000      -6.030660      -164.1026
  23   2.0000      -6.027084      -164.0053
  24   2.0000      -1.009536       -27.4709
  25   2.0000      -0.983168       -26.7534
  26   2.0000      -0.914119       -24.8745
  27   2.0000      -0.911525       -24.8039
  28   2.0000      -0.870110       -23.6769
  29   2.0000      -0.851866       -23.1805
  30   2.0000      -0.840765       -22.8784
  31   2.0000      -0.814605       -22.1665
  32   2.0000      -0.787793       -21.4369
  33   2.0000      -0.776742       -21.1362
  34   2.0000      -0.708295       -19.2737
  35   2.0000      -0.696453       -18.9515
  36   2.0000      -0.684713       -18.6320
  37   2.0000      -0.660076       -17.9616
  38   2.0000      -0.645438       -17.5633
  39   2.0000      -0.618541       -16.8313
  40   2.0000      -0.593724       -16.1560
  41   2.0000      -0.572468       -15.5777
  42   2.0000      -0.565996       -15.4015
  43   2.0000      -0.559773       -15.2322
  44   2.0000      -0.547386       -14.8951
  45   2.0000      -0.516509       -14.0549
  46   2.0000      -0.514452       -13.9989
  47   2.0000      -0.511810       -13.9271
  48   2.0000      -0.506943       -13.7946
  49   2.0000      -0.498938       -13.5768
  50   2.0000      -0.493654       -13.4330
  51   2.0000      -0.482517       -13.1299
  52   2.0000      -0.477764       -13.0006
  53   2.0000      -0.470517       -12.8034
  54   2.0000      -0.462650       -12.5894
  55   2.0000      -0.444226       -12.0880
  56   2.0000      -0.439827       -11.9683
  57   2.0000      -0.429485       -11.6869
  58   2.0000      -0.425904       -11.5894
  59   2.0000      -0.421706       -11.4752
  60   2.0000      -0.418856       -11.3977
  61   2.0000      -0.409713       -11.1489
  62   2.0000      -0.407327       -11.0839
  63   2.0000      -0.336177        -9.1478
  64   2.0000      -0.331898        -9.0314
  65   2.0000      -0.329251        -8.9594
  66   2.0000      -0.307836        -8.3766
  67   0.0000       0.037673         1.0251
  68   0.0000       0.056652         1.5416
  69   0.0000       0.121421         3.3040
  70   0.0000       0.123147         3.3510
  71   0.0000       0.129951         3.5361

MULLIKEN ATOMIC CHARGES
-----------------------
   0 S :    0.085295
   1 C :   -0.118772
   2 C :   -0.092629
   3 C :    0.069373
   4 C :   -0.178331
   5 H :    0.001907
   6 C :    0.106740
   7 H :   -0.001477
   8 H :    0.029827
   9 C :   -0.093841
  10 H :    0.023913
  11 H :    0.036897
  12 C :   -0.045690
  13 H :    0.027133
  14 H :    0.031254
  15 H :    0.027255
  16 S :    0.134395
  17 C :   -0.078323
  18 C :   -0.068900
  19 C :   -0.017694
  20 C :   -0.199812
  21 H :    0.029508
  22 C :    0.118861
  23 H :    0.013873
  24 H :    0.030316
  25 C :   -0.094122
  26 H :    0.032920
  27 H :    0.039098
  28 C :   -0.033589
  29 H :    0.022965
  30 H :    0.012243
  31 H :    0.045808
  32 H :    0.049887
  33 H :    0.053712
Sum of atomic charges:   -0.0000000

LOEWDIN ATOMIC CHARGES
----------------------
   0 S :    0.376681
   1 C :   -0.180181
   2 C :   -0.066241
   3 C :   -0.058909
   4 C :   -0.182372
   5 H :    0.026567
   6 C :   -0.019485
   7 H :    0.023179
   8 H :    0.020476
   9 C :   -0.044030
  10 H :    0.022776
  11 H :    0.027168
  12 C :   -0.073392
  13 H :    0.025319
  14 H :    0.029667
  15 H :    0.027251
  16 S :    0.438831
  17 C :   -0.200618
  18 C :   -0.083198
  19 C :   -0.044484
  20 C :   -0.214059
  21 H :    0.036392
  22 C :   -0.030120
  23 H :    0.029036
  24 H :    0.037908
  25 C :   -0.041884
  26 H :    0.026845
  27 H :    0.023823
  28 C :   -0.063400
  29 H :    0.015732
  30 H :    0.014838
  31 H :    0.040564
  32 H :    0.027460
  33 H :    0.031861

  Mayer bond orders larger than 0.100000
B(  0-S ,  1-C ) :   1.1428 B(  0-S ,  4-C ) :   1.1413 B(  1-C ,  2-C ) :   1.5949
B(  1-C ,  4-C ) :   0.1074 B(  1-C , 32-H ) :   0.9776 B(  2-C ,  3-C ) :   1.2650
B(  2-C ,  6-C ) :   1.0008 B(  3-C ,  4-C ) :   1.5822 B(  3-C ,  5-H ) :   0.9976
B(  4-C , 20-C ) :   1.0089 B(  6-C ,  7-H ) :   0.9419 B(  6-C ,  8-H ) :   0.9530
B(  6-C ,  9-C ) :   1.0587 B(  9-C , 10-H ) :   0.9602 B(  9-C , 11-H ) :   0.9571
B(  9-C , 12-C ) :   1.0772 B( 12-C , 13-H ) :   0.9733 B( 12-C , 14-H ) :   0.9728
B( 12-C , 15-H ) :   0.9749 B( 16-S , 17-C ) :   1.1652 B( 16-S , 20-C ) :   1.1601
B( 17-C , 18-C ) :   1.6234 B( 17-C , 33-H ) :   0.9653 B( 18-C , 19-C ) :   1.2283
B( 18-C , 21-H ) :   0.9796 B( 19-C , 20-C ) :   1.5899 B( 19-C , 22-C ) :   1.0442
B( 22-C , 23-H ) :   0.9365 B( 22-C , 24-H ) :   0.9142 B( 22-C , 25-C ) :   1.0819
B( 25-C , 26-H ) :   0.9611 B( 25-C , 27-H ) :   0.9579 B( 25-C , 28-C ) :   1.0589
B( 28-C , 29-H ) :   0.9785 B( 28-C , 30-H ) :   0.9783 B( 28-C , 31-H ) :   0.9758

Dispersion correction           -0.014841802
FINAL SINGLE POINT ENERGY     -1339.874112053832

DIPOLE MOMENT
-------------
                                X             Y             Z
Electronic contribution:     22.38131       3.61648      11.59185
Nuclear contribution   :    -23.02807      -3.56484     -11.51991
                        -----------------------------------------
Total Dipole Moment    :     -0.64676       0.05164       0.07194
                        -----------------------------------------
Magnitude (a.u.)       :      0.65280
Magnitude (Debye)      :      1.65928

Rotational constants in cm-1:     0.022321     0.007549     0.006844
Rotational constants in MHz :   669.166921   226.320934   205.174696

                             ****ORCA TERMINATED NORMALLY****
TOTAL RUN TIME: 0 days 0 hours 0 minutes 21 seconds 637 msec
