                         Program Version 4.2.1 -  RELEASE  -
|  1> ! wB97X-D3 SP def2-SVP
|  2> %pal
|  3> nprocs 24
|  4> end
|  5>
|  6> * xyz 0 1
|  7> S 	 -48.3481 	 21.0105 	 28.7958
|  8> C 	 -48.5545 	 21.1484 	 27.0201
|  9> C 	 -48.4447 	 19.9093 	 26.4031
| 10> C 	 -48.3244 	 18.8644 	 27.4011
| 11> C 	 -48.2807 	 19.2909 	 28.7137
| 12> H 	 -48.3405 	 17.815 	 27.0576
| 13> C 	 -48.5493 	 19.6169 	 24.9374
| 14> H 	 -47.9731 	 18.6982 	 24.7276
| 15> H 	 -47.9781 	 20.4055 	 24.4867
| 16> C 	 -49.8904 	 19.5983 	 24.2364
| 17> H 	 -50.3726 	 20.4926 	 24.2101
| 18> H 	 -49.7659 	 19.5337 	 23.1718
| 19> C 	 -50.8301 	 18.465 	 24.6943
| 20> H 	 -50.9706 	 18.5249 	 25.7781
| 21> H 	 -51.767 	 18.6643 	 24.1769
| 22> H 	 -50.3643 	 17.4768 	 24.3768
| 23> S 	 -46.7028 	 19.2328 	 31.0057
| 24> C 	 -47.0645 	 18.0966 	 32.286
| 25> C 	 -47.9523 	 17.1341 	 31.8171
| 26> C 	 -48.5307 	 17.4233 	 30.5166
| 27> C 	 -47.9824 	 18.5449 	 29.981
| 28> H 	 -48.203 	 16.3046 	 32.4376
| 29> C 	 -49.5493 	 16.5877 	 29.7394
| 30> H 	 -49.6088 	 15.6072 	 30.2155
| 31> H 	 -49.1491 	 16.2985 	 28.7474
| 32> C 	 -50.969 	 17.2606 	 29.6692
| 33> H 	 -51.7561 	 16.5423 	 29.3507
| 34> H 	 -50.9374 	 18.1132 	 29.0062
| 35> C 	 -51.383 	 17.9433 	 30.9869
| 36> H 	 -50.4902 	 18.5726 	 31.3779
| 37> H 	 -51.4005 	 17.2267 	 31.8463
| 38> H 	 -52.2798 	 18.5689 	 30.9033
| 39> H 	 -48.6922 	 22.033 	 26.4779
| 40> H 	 -46.5027 	 18.1386 	 33.1679
| 41> *
| 42>
| 43>                          ****END OF INPUT****

CARTESIAN COORDINATES (ANGSTROEM)
---------------------------------
  S    -48.348100   21.010500   28.795800
  C    -48.554500   21.148400   27.020100
  C    -48.444700   19.909300   26.403100
  C    -48.324400   18.864400   27.401100
  C    -48.280700   19.290900   28.713700
  H    -48.340500   17.815000   27.057600
  C    -48.549300   19.616900   24.937400
  H    -47.973100   18.698200   24.727600
  H    -47.978100   20.405500   24.486700
  C    -49.890400   19.598300   24.236400
  H    -50.372600   20.492600   24.210100
  H    -49.765900   19.533700   23.171800
  C    -50.830100   18.465000   24.694300
  H    -50.970600   18.524900   25.778100
  H    -51.767000   18.664300   24.176900
  H    -50.364300   17.476800   24.376800
  S    -46.702800   19.232800   31.005700
  C    -47.064500   18.096600   32.286000
  C    -47.952300   17.134100   31.817100
  C    -48.530700   17.423300   30.516600
  C    -47.982400   18.544900   29.981000
  H    -48.203000   16.304600   32.437600
  C    -49.549300   16.587700   29.739400
  H    -49.608800   15.607200   30.215500
  H    -49.149100   16.298500   28.747400
  C    -50.969000   17.260600   29.669200
  H    -51.756100   16.542300   29.350700
  H    -50.937400   18.113200   29.006200
  C    -51.383000   17.943300   30.986900
  H    -50.490200   18.572600   31.377900
  H    -51.400500   17.226700   31.846300
  H    -52.279800   18.568900   30.903300
  H    -48.692200   22.033000   26.477900
  H    -46.502700   18.138600   33.167900

 Total Charge           Charge          ....    0
 Multiplicity           Mult            ....    1
 Number of Electrons    NEL             ....  134
 Basis Dimension        Dim             ....  322

ORBITAL ENERGIES
----------------

  NO   OCC          E(Eh)            E(eV)
   0   2.0000     -88.967991     -2420.9421
   1   2.0000     -88.963258     -2420.8133
   2   2.0000     -10.332656      -281.1659
   3   2.0000     -10.328535      -281.0537
   4   2.0000     -10.318040      -280.7681
   5   2.0000     -10.314262      -280.6653
   6   2.0000     -10.304908      -280.4108
   7   2.0000     -10.302779      -280.3529
   8   2.0000     -10.299461      -280.2626
   9   2.0000     -10.299017      -280.2505
  10   2.0000     -10.297019      -280.1961
  11   2.0000     -10.291263      -280.0395
  12   2.0000     -10.287757      -279.9441
  13   2.0000     -10.282602      -279.8038
  14   2.0000     -10.278308      -279.6870
  15   2.0000     -10.277427      -279.6630
  16   2.0000      -8.082297      -219.9305
  17   2.0000      -8.077958      -219.8124
  18   2.0000      -6.040897      -164.3812
  19   2.0000      -6.036811      -164.2700
  20   2.0000      -6.036488      -164.2612
  21   2.0000      -6.033024      -164.1669
  22   2.0000      -6.032468      -164.1518
  23   2.0000      -6.028688      -164.0489
  24   2.0000      -1.004677       -27.3386
  25   2.0000      -0.981724       -26.7141
  26   2.0000      -0.916987       -24.9525
  27   2.0000      -0.902845       -24.5677
  28   2.0000      -0.866367       -23.5751
  29   2.0000      -0.845820       -23.0159
  30   2.0000      -0.838432       -22.8149
  31   2.0000      -0.813864       -22.1464
  32   2.0000      -0.783928       -21.3318
  33   2.0000      -0.774490       -21.0749
  34   2.0000      -0.712050       -19.3759
  35   2.0000      -0.701892       -19.0995
  36   2.0000      -0.686174       -18.6717
  37   2.0000      -0.667708       -18.1692
  38   2.0000      -0.637933       -17.3590
  39   2.0000      -0.616355       -16.7719
  40   2.0000      -0.592451       -16.1214
  41   2.0000      -0.572667       -15.5831
  42   2.0000      -0.557354       -15.1664
  43   2.0000      -0.553400       -15.0588
  44   2.0000      -0.549289       -14.9469
  45   2.0000      -0.539332       -14.6760
  46   2.0000      -0.511156       -13.9093
  47   2.0000      -0.508528       -13.8378
  48   2.0000      -0.501970       -13.6593
  49   2.0000      -0.493874       -13.4390
  50   2.0000      -0.483214       -13.1489
  51   2.0000      -0.480661       -13.0794
  52   2.0000      -0.468251       -12.7418
  53   2.0000      -0.465676       -12.6717
  54   2.0000      -0.455899       -12.4056
  55   2.0000      -0.444917       -12.1068
  56   2.0000      -0.442233       -12.0338
  57   2.0000      -0.440364       -11.9829
  58   2.0000      -0.428798       -11.6682
  59   2.0000      -0.424790       -11.5591
  60   2.0000      -0.418738       -11.3944
  61   2.0000      -0.414772       -11.2865
  62   2.0000      -0.404985       -11.0202
  63   2.0000      -0.345788        -9.4094
  64   2.0000      -0.333077        -9.0635
  65   2.0000      -0.328064        -8.9271
  66   2.0000      -0.296045        -8.0558
  67   0.0000       0.029142         0.7930
  68   0.0000       0.067746         1.8435
  69   0.0000       0.105373         2.8673
  70   0.0000       0.116922         3.1816
  71   0.0000       0.124751         3.3946

MULLIKEN ATOMIC CHARGES
-----------------------
   0 S :    0.108560
   1 C :   -0.101944
   2 C :   -0.112024
   3 C :    0.025016
   4 C :   -0.133418
   5 H :    0.014122
   6 C :    0.072813
   7 H :    0.025536
   8 H :    0.018953
   9 C :   -0.010931
  10 H :   -0.009681
  11 H :    0.011238
  12 C :   -0.071152
  13 H :    0.049825
  14 H :    0.036839
  15 H :    0.039123
  16 S :    0.093958
  17 C :   -0.083446
  18 C :   -0.012647
  19 C :   -0.087573
  20 C :   -0.140025
  21 H :    0.011547
  22 C :    0.087154
  23 H :    0.013287
  24 H :    0.038628
  25 C :   -0.069779
  26 H :    0.043173
  27 H :    0.046837
  28 C :   -0.103171
  29 H :    0.056088
  30 H :    0.022610
  31 H :    0.050734
  32 H :    0.022725
  33 H :    0.047025
Sum of atomic charges:   -0.0000000

LOEWDIN ATOMIC CHARGES
----------------------
   0 S :    0.407170
   1 C :   -0.177370
   2 C :   -0.059807
   3 C :   -0.069152
   4 C :   -0.201286
   5 H :    0.031086
   6 C :   -0.034649
   7 H :    0.034522
   8 H :    0.033697
   9 C :   -0.038971
  10 H :    0.010339
  11 H :    0.026221
  12 C :   -0.063974
  13 H :    0.026508
  14 H :    0.027594
  15 H :    0.030481
  16 S :    0.388693
  17 C :   -0.172170
  18 C :   -0.064313
  19 C :   -0.063898
  20 C :   -0.183004
  21 H :    0.026175
  22 C :   -0.029579
  23 H :    0.029030
  24 H :    0.033930
  25 C :   -0.041360
  26 H :    0.028313
  27 H :    0.024859
  28 C :   -0.081695
  29 H :    0.039237
  30 H :    0.020798
  31 H :    0.027570
  32 H :    0.016328
  33 H :    0.018678

  Mayer bond orders larger than 0.100000
B(  0-S ,  1-C ) :   1.1292 B(  0-S ,  4-C ) :   1.1583 B(  1-C ,  2-C ) :   1.6121
B(  1-C , 32-H ) :   0.9762 B(  2-C ,  3-C ) :   1.2460 B(  2-C ,  6-C ) :   1.0251
B(  3-C ,  4-C ) :   1.5625 B(  3-C ,  5-H ) :   0.9894 B(  4-C , 20-C ) :   1.0054
B(  6-C ,  7-H ) :   0.9399 B(  6-C ,  8-H ) :   0.9249 B(  6-C ,  9-C ) :   1.0875
B(  9-C , 10-H ) :   0.9469 B(  9-C , 11-H ) :   0.9423 B(  9-C , 12-C ) :   1.0754
B( 12-C , 13-H ) :   0.9779 B( 12-C , 14-H ) :   0.9728 B( 12-C , 15-H ) :   0.9761
B( 16-S , 17-C ) :   1.1496 B( 16-S , 20-C ) :   1.1425 B( 17-C , 18-C ) :   1.6006
B( 17-C , 33-H ) :   0.9795 B( 18-C , 19-C ) :   1.2213 B( 18-C , 21-H ) :   0.9938
B( 19-C , 20-C ) :   1.6311 B( 19-C , 22-C ) :   1.0320 B( 22-C , 23-H ) :   0.9302
B( 22-C , 24-H ) :   0.9462 B( 22-C , 25-C ) :   1.0481 B( 25-C , 26-H ) :   0.9592
B( 25-C , 27-H ) :   0.9555 B( 25-C , 28-C ) :   1.0782 B( 28-C , 29-H ) :   0.9599
B( 28-C , 30-H ) :   0.9751 B( 28-C , 31-H ) :   0.9752

Dispersion correction           -0.015809623
FINAL SINGLE POINT ENERGY     -1339.876382263478

DIPOLE MOMENT
-------------
                                X             Y             Z
Electronic contribution:     18.63883      10.94439      15.16365
Nuclear contribution   :    -18.85949     -11.26246     -15.63051
                        -----------------------------------------
Total Dipole Moment    :     -0.22066      -0.31807      -0.46686
                        -----------------------------------------
Magnitude (a.u.)       :      0.60648
Magnitude (Debye)      :      1.54155

Rotational constants in cm-1:     0.021553     0.009145     0.007399
Rotational constants in MHz :   646.153113   274.145342   221.819713

                             ****ORCA TERMINATED NORMALLY****
TOTAL RUN TIME: 0 days 0 hours 0 minutes 22 seconds 691 msec
