                         Program Version 4.2.1 -  RELEASE  -
|  1> ! wB97X-D3 SP def2-SVP
|  2> %pal
|  3> nprocs 24
|  4> end
|  5>
|  6> * xyz 0 1
|  7> S 	 -132.048 	 31.8868 	 -16.5696
|  8> C 	 -130.305 	 31.9278 	 -16.6065
|  9> C 	 -129.715 	 32.415 	 -17.7432
| 10> C 	 -130.699 	 32.7828 	 -18.6456
| 11> C 	 -132.024 	 32.4727 	 -18.2078
| 12> H 	 -130.603 	 33.2196 	 -19.666
| 13> C 	 -128.172 	 32.6109 	 -18.0588
| 14> H 	 -127.594 	 32.9643 	 -17.1823
| 15> H 	 -128.018 	 33.312 	 -18.9091
| 16> C 	 -127.53 	 31.2438 	 -18.4537
| 17> H 	 -126.503 	 31.4527 	 -18.7165
| 18> H 	 -127.572 	 30.4115 	 -17.6937
| 19> C 	 -128.066 	 30.6255 	 -19.8285
| 20> H 	 -127.389 	 29.8466 	 -20.26
| 21> H 	 -129.158 	 30.4374 	 -19.9312
| 22> H 	 -127.961 	 31.4926 	 -20.6432
| 23> S 	 -134.317 	 33.8154 	 -18.3797
| 24> C 	 -135.31 	 33.778 	 -19.797
| 25> C 	 -135.033 	 32.7025 	 -20.5619
| 26> C 	 -133.803 	 32.0572 	 -20.1042
| 27> C 	 -133.297 	 32.6002 	 -18.9404
| 28> H 	 -135.694 	 32.483 	 -21.4129
| 29> C 	 -132.984 	 31.0333 	 -20.8948
| 30> H 	 -131.923 	 31.4116 	 -20.8584
| 31> H 	 -133.248 	 31.1705 	 -21.952
| 32> C 	 -133.226 	 29.6171 	 -20.3501
| 33> H 	 -134.252 	 29.3076 	 -20.4032
| 34> H 	 -132.78 	 29.6167 	 -19.2834
| 35> C 	 -132.49 	 28.5084 	 -21.1376
| 36> H 	 -133.068 	 28.3744 	 -22.0476
| 37> H 	 -132.73 	 27.6097 	 -20.666
| 38> H 	 -131.443 	 28.5582 	 -21.3993
| 39> H 	 -129.81 	 31.5471 	 -15.7245
| 40> H 	 -136.144 	 34.5028 	 -20.0155
| 41> *
| 42>
| 43>                          ****END OF INPUT****

CARTESIAN COORDINATES (ANGSTROEM)
---------------------------------
  S    -132.048000   31.886800  -16.569600
  C    -130.305000   31.927800  -16.606500
  C    -129.715000   32.415000  -17.743200
  C    -130.699000   32.782800  -18.645600
  C    -132.024000   32.472700  -18.207800
  H    -130.603000   33.219600  -19.666000
  C    -128.172000   32.610900  -18.058800
  H    -127.594000   32.964300  -17.182300
  H    -128.018000   33.312000  -18.909100
  C    -127.530000   31.243800  -18.453700
  H    -126.503000   31.452700  -18.716500
  H    -127.572000   30.411500  -17.693700
  C    -128.066000   30.625500  -19.828500
  H    -127.389000   29.846600  -20.260000
  H    -129.158000   30.437400  -19.931200
  H    -127.961000   31.492600  -20.643200
  S    -134.317000   33.815400  -18.379700
  C    -135.310000   33.778000  -19.797000
  C    -135.033000   32.702500  -20.561900
  C    -133.803000   32.057200  -20.104200
  C    -133.297000   32.600200  -18.940400
  H    -135.694000   32.483000  -21.412900
  C    -132.984000   31.033300  -20.894800
  H    -131.923000   31.411600  -20.858400
  H    -133.248000   31.170500  -21.952000
  C    -133.226000   29.617100  -20.350100
  H    -134.252000   29.307600  -20.403200
  H    -132.780000   29.616700  -19.283400
  C    -132.490000   28.508400  -21.137600
  H    -133.068000   28.374400  -22.047600
  H    -132.730000   27.609700  -20.666000
  H    -131.443000   28.558200  -21.399300
  H    -129.810000   31.547100  -15.724500
  H    -136.144000   34.502800  -20.015500

 Total Charge           Charge          ....    0
 Multiplicity           Mult            ....    1
 Number of Electrons    NEL             ....  134
 Basis Dimension        Dim             ....  322

ORBITAL ENERGIES
----------------

  NO   OCC          E(Eh)            E(eV)
   0   2.0000     -88.971698     -2421.0430
   1   2.0000     -88.956597     -2420.6321
   2   2.0000     -10.331559      -281.1360
   3   2.0000     -10.315637      -280.7028
   4   2.0000     -10.314212      -280.6640
   5   2.0000     -10.312693      -280.6226
   6   2.0000     -10.311016      -280.5770
   7   2.0000     -10.305282      -280.4210
   8   2.0000     -10.301564      -280.3198
   9   2.0000     -10.299323      -280.2588
  10   2.0000     -10.299019      -280.2506
  11   2.0000     -10.294939      -280.1395
  12   2.0000     -10.294634      -280.1312
  13   2.0000     -10.290718      -280.0247
  14   2.0000     -10.289124      -279.9813
  15   2.0000     -10.265571      -279.3404
  16   2.0000      -8.086635      -220.0485
  17   2.0000      -8.073518      -219.6916
  18   2.0000      -6.044748      -164.4860
  19   2.0000      -6.041240      -164.3905
  20   2.0000      -6.037686      -164.2938
  21   2.0000      -6.031928      -164.1371
  22   2.0000      -6.027666      -164.0211
  23   2.0000      -6.024278      -163.9289
  24   2.0000      -1.012803       -27.5598
  25   2.0000      -0.990042       -26.9404
  26   2.0000      -0.902857       -24.5680
  27   2.0000      -0.901998       -24.5446
  28   2.0000      -0.867885       -23.6164
  29   2.0000      -0.848912       -23.1001
  30   2.0000      -0.844564       -22.9817
  31   2.0000      -0.809487       -22.0273
  32   2.0000      -0.779850       -21.2208
  33   2.0000      -0.767125       -20.8745
  34   2.0000      -0.698774       -19.0146
  35   2.0000      -0.694467       -18.8974
  36   2.0000      -0.685945       -18.6655
  37   2.0000      -0.658367       -17.9151
  38   2.0000      -0.643273       -17.5043
  39   2.0000      -0.614538       -16.7224
  40   2.0000      -0.586601       -15.9622
  41   2.0000      -0.572397       -15.5757
  42   2.0000      -0.561092       -15.2681
  43   2.0000      -0.542452       -14.7609
  44   2.0000      -0.539241       -14.6735
  45   2.0000      -0.525692       -14.3048
  46   2.0000      -0.510891       -13.9021
  47   2.0000      -0.503718       -13.7069
  48   2.0000      -0.500143       -13.6096
  49   2.0000      -0.492811       -13.4101
  50   2.0000      -0.488321       -13.2879
  51   2.0000      -0.476147       -12.9566
  52   2.0000      -0.473641       -12.8884
  53   2.0000      -0.462650       -12.5893
  54   2.0000      -0.459000       -12.4900
  55   2.0000      -0.446887       -12.1604
  56   2.0000      -0.445191       -12.1143
  57   2.0000      -0.434257       -11.8167
  58   2.0000      -0.432553       -11.7704
  59   2.0000      -0.421266       -11.4632
  60   2.0000      -0.417418       -11.3585
  61   2.0000      -0.410691       -11.1755
  62   2.0000      -0.406440       -11.0598
  63   2.0000      -0.341993        -9.3061
  64   2.0000      -0.341687        -9.2978
  65   2.0000      -0.318454        -8.6656
  66   2.0000      -0.295511        -8.0413
  67   0.0000       0.040492         1.1018
  68   0.0000       0.062888         1.7113
  69   0.0000       0.108651         2.9565
  70   0.0000       0.122223         3.3259
  71   0.0000       0.129348         3.5197

MULLIKEN ATOMIC CHARGES
-----------------------
   0 S :    0.133773
   1 C :   -0.142977
   2 C :   -0.026709
   3 C :    0.025664
   4 C :   -0.197433
   5 H :    0.030528
   6 C :    0.063898
   7 H :    0.046132
   8 H :    0.039851
   9 C :   -0.082402
  10 H :    0.033082
  11 H :    0.052911
  12 C :   -0.137115
  13 H :    0.054403
  14 H :    0.061800
  15 H :    0.016430
  16 S :    0.105392
  17 C :   -0.119789
  18 C :   -0.036851
  19 C :   -0.062872
  20 C :   -0.152299
  21 H :    0.029979
  22 C :    0.065635
  23 H :    0.030546
  24 H :    0.012690
  25 C :   -0.092743
  26 H :    0.030940
  27 H :    0.050586
  28 C :   -0.005984
  29 H :    0.007716
  30 H :    0.011068
  31 H :    0.039299
  32 H :    0.041601
  33 H :    0.073247
Sum of atomic charges:   -0.0000000

LOEWDIN ATOMIC CHARGES
----------------------
   0 S :    0.426643
   1 C :   -0.193451
   2 C :   -0.066118
   3 C :   -0.064535
   4 C :   -0.203423
   5 H :    0.038517
   6 C :   -0.021193
   7 H :    0.036891
   8 H :    0.035816
   9 C :   -0.043992
  10 H :    0.023476
  11 H :    0.029708
  12 C :   -0.090145
  13 H :    0.031583
  14 H :    0.026637
  15 H :    0.026654
  16 S :    0.431599
  17 C :   -0.197039
  18 C :   -0.080570
  19 C :   -0.056139
  20 C :   -0.234203
  21 H :    0.038701
  22 C :   -0.038975
  23 H :    0.035906
  24 H :    0.024540
  25 C :   -0.035751
  26 H :    0.026340
  27 H :    0.035062
  28 C :   -0.068203
  29 H :    0.023097
  30 H :    0.018987
  31 H :    0.023197
  32 H :    0.019420
  33 H :    0.040965

  Mayer bond orders larger than 0.100000
B(  0-S ,  1-C ) :   1.1611 B(  0-S ,  4-C ) :   1.1838 B(  1-C ,  2-C ) :   1.5928
B(  1-C ,  4-C ) :   0.1168 B(  1-C , 32-H ) :   0.9684 B(  2-C ,  3-C ) :   1.2701
B(  2-C ,  6-C ) :   0.9986 B(  3-C ,  4-C ) :   1.5551 B(  3-C ,  5-H ) :   0.9851
B(  4-C , 20-C ) :   0.9840 B(  6-C ,  7-H ) :   0.9452 B(  6-C ,  8-H ) :   0.9481
B(  6-C ,  9-C ) :   1.0691 B(  9-C , 10-H ) :   0.9572 B(  9-C , 11-H ) :   0.9606
B(  9-C , 12-C ) :   1.0524 B( 12-C , 13-H ) :   0.9760 B( 12-C , 14-H ) :   0.9749
B( 12-C , 15-H ) :   0.9736 B( 16-S , 17-C ) :   1.1645 B( 16-S , 20-C ) :   1.1557
B( 17-C , 18-C ) :   1.6281 B( 17-C , 33-H ) :   0.9596 B( 18-C , 19-C ) :   1.2147
B( 18-C , 21-H ) :   0.9929 B( 19-C , 20-C ) :   1.6254 B( 19-C , 22-C ) :   1.0338
B( 22-C , 23-H ) :   0.9389 B( 22-C , 24-H ) :   0.9353 B( 22-C , 25-C ) :   1.0598
B( 25-C , 26-H ) :   0.9555 B( 25-C , 27-H ) :   0.9576 B( 25-C , 28-C ) :   1.0840
B( 28-C , 29-H ) :   0.9693 B( 28-C , 30-H ) :   0.9703 B( 28-C , 31-H ) :   0.9765

Dispersion correction           -0.015199884
FINAL SINGLE POINT ENERGY     -1339.858073977692

DIPOLE MOMENT
-------------
                                X             Y             Z
Electronic contribution:    -18.00801      16.55209      16.39774
Nuclear contribution   :     18.35321     -16.70390     -16.82505
                        -----------------------------------------
Total Dipole Moment    :      0.34520      -0.15181      -0.42731
                        -----------------------------------------
Magnitude (a.u.)       :      0.56992
Magnitude (Debye)      :      1.44861

Rotational constants in cm-1:     0.017893     0.009796     0.007494
Rotational constants in MHz :   536.431059   293.667443   224.676602

                             ****ORCA TERMINATED NORMALLY****
TOTAL RUN TIME: 0 days 0 hours 0 minutes 22 seconds 362 msec
