                         Program Version 4.2.1 -  RELEASE  -
|  1> ! wB97X-D3 SP def2-SVP
|  2> %pal
|  3> nprocs 24
|  4> end
|  5>
|  6> * xyz 0 1
|  7> S 	 -112.71 	 51.1114 	 -74.7803
|  8> C 	 -112.87 	 51.582 	 -76.4599
|  9> C 	 -112.471 	 52.8877 	 -76.706
| 10> C 	 -111.843 	 53.5435 	 -75.5528
| 11> C 	 -111.842 	 52.7076 	 -74.443
| 12> H 	 -111.382 	 54.6003 	 -75.5297
| 13> C 	 -112.419 	 53.6204 	 -78.0426
| 14> H 	 -111.637 	 53.1582 	 -78.7507
| 15> H 	 -112.068 	 54.6491 	 -77.7288
| 16> C 	 -113.643 	 53.8476 	 -78.9484
| 17> H 	 -113.435 	 54.4334 	 -79.8786
| 18> H 	 -113.966 	 52.8802 	 -79.3848
| 19> C 	 -114.88 	 54.634 	 -78.1797
| 20> H 	 -114.626 	 55.5858 	 -77.7048
| 21> H 	 -115.658 	 55.0105 	 -78.8403
| 22> H 	 -115.281 	 53.9855 	 -77.4389
| 23> S 	 -110.419 	 51.6383 	 -72.2641
| 24> C 	 -109.959 	 52.6724 	 -70.9147
| 25> C 	 -110.52 	 53.9304 	 -71.0596
| 26> C 	 -111.173 	 54.2126 	 -72.3215
| 27> C 	 -111.248 	 53.0045 	 -73.0956
| 28> H 	 -110.465 	 54.6865 	 -70.2442
| 29> C 	 -111.821 	 55.551 	 -72.5669
| 30> H 	 -112.059 	 55.9495 	 -71.546
| 31> H 	 -112.845 	 55.3624 	 -73.081
| 32> C 	 -111.112 	 56.7394 	 -73.2557
| 33> H 	 -110.962 	 56.4929 	 -74.2684
| 34> H 	 -110.121 	 56.7126 	 -72.8648
| 35> C 	 -111.836 	 57.9991 	 -73.1769
| 36> H 	 -112.409 	 58.0693 	 -72.3011
| 37> H 	 -112.529 	 58.2009 	 -73.9309
| 38> H 	 -111.136 	 58.8208 	 -73.0971
| 39> H 	 -113.237 	 50.8927 	 -77.1655
| 40> H 	 -109.434 	 52.3149 	 -70.078
| 41> *
| 42>
| 43>                          ****END OF INPUT****

CARTESIAN COORDINATES (ANGSTROEM)
---------------------------------
  S    -112.710000   51.111400  -74.780300
  C    -112.870000   51.582000  -76.459900
  C    -112.471000   52.887700  -76.706000
  C    -111.843000   53.543500  -75.552800
  C    -111.842000   52.707600  -74.443000
  H    -111.382000   54.600300  -75.529700
  C    -112.419000   53.620400  -78.042600
  H    -111.637000   53.158200  -78.750700
  H    -112.068000   54.649100  -77.728800
  C    -113.643000   53.847600  -78.948400
  H    -113.435000   54.433400  -79.878600
  H    -113.966000   52.880200  -79.384800
  C    -114.880000   54.634000  -78.179700
  H    -114.626000   55.585800  -77.704800
  H    -115.658000   55.010500  -78.840300
  H    -115.281000   53.985500  -77.438900
  S    -110.419000   51.638300  -72.264100
  C    -109.959000   52.672400  -70.914700
  C    -110.520000   53.930400  -71.059600
  C    -111.173000   54.212600  -72.321500
  C    -111.248000   53.004500  -73.095600
  H    -110.465000   54.686500  -70.244200
  C    -111.821000   55.551000  -72.566900
  H    -112.059000   55.949500  -71.546000
  H    -112.845000   55.362400  -73.081000
  C    -111.112000   56.739400  -73.255700
  H    -110.962000   56.492900  -74.268400
  H    -110.121000   56.712600  -72.864800
  C    -111.836000   57.999100  -73.176900
  H    -112.409000   58.069300  -72.301100
  H    -112.529000   58.200900  -73.930900
  H    -111.136000   58.820800  -73.097100
  H    -113.237000   50.892700  -77.165500
  H    -109.434000   52.314900  -70.078000

 Total Charge           Charge          ....    0
 Multiplicity           Mult            ....    1
 Number of Electrons    NEL             ....  134
 Basis Dimension        Dim             ....  322

ORBITAL ENERGIES
----------------

  NO   OCC          E(Eh)            E(eV)
   0   2.0000     -88.969205     -2420.9751
   1   2.0000     -88.967546     -2420.9300
   2   2.0000     -10.343018      -281.4478
   3   2.0000     -10.341106      -281.3958
   4   2.0000     -10.318403      -280.7780
   5   2.0000     -10.316129      -280.7161
   6   2.0000     -10.314598      -280.6745
   7   2.0000     -10.309980      -280.5488
   8   2.0000     -10.309429      -280.5338
   9   2.0000     -10.304484      -280.3993
  10   2.0000     -10.302461      -280.3442
  11   2.0000     -10.302112      -280.3347
  12   2.0000     -10.301201      -280.3099
  13   2.0000     -10.279236      -279.7122
  14   2.0000     -10.279200      -279.7113
  15   2.0000     -10.267303      -279.3875
  16   2.0000      -8.082511      -219.9363
  17   2.0000      -8.081286      -219.9030
  18   2.0000      -6.041200      -164.3894
  19   2.0000      -6.039888      -164.3537
  20   2.0000      -6.037410      -164.2863
  21   2.0000      -6.035890      -164.2449
  22   2.0000      -6.032976      -164.1656
  23   2.0000      -6.032044      -164.1403
  24   2.0000      -0.991789       -26.9880
  25   2.0000      -0.973329       -26.4856
  26   2.0000      -0.918353       -24.9897
  27   2.0000      -0.895392       -24.3648
  28   2.0000      -0.862613       -23.4729
  29   2.0000      -0.856958       -23.3190
  30   2.0000      -0.839807       -22.8523
  31   2.0000      -0.807984       -21.9864
  32   2.0000      -0.781626       -21.2691
  33   2.0000      -0.771416       -20.9913
  34   2.0000      -0.713234       -19.4081
  35   2.0000      -0.706955       -19.2372
  36   2.0000      -0.691319       -18.8118
  37   2.0000      -0.660298       -17.9676
  38   2.0000      -0.638353       -17.3705
  39   2.0000      -0.607468       -16.5301
  40   2.0000      -0.593894       -16.1607
  41   2.0000      -0.572938       -15.5904
  42   2.0000      -0.558197       -15.1893
  43   2.0000      -0.540982       -14.7209
  44   2.0000      -0.535471       -14.5709
  45   2.0000      -0.529866       -14.4184
  46   2.0000      -0.522247       -14.2111
  47   2.0000      -0.510215       -13.8836
  48   2.0000      -0.504219       -13.7205
  49   2.0000      -0.491981       -13.3875
  50   2.0000      -0.487173       -13.2567
  51   2.0000      -0.479698       -13.0533
  52   2.0000      -0.467514       -12.7217
  53   2.0000      -0.463980       -12.6255
  54   2.0000      -0.458271       -12.4702
  55   2.0000      -0.456058       -12.4100
  56   2.0000      -0.443485       -12.0679
  57   2.0000      -0.432571       -11.7708
  58   2.0000      -0.430593       -11.7170
  59   2.0000      -0.428275       -11.6540
  60   2.0000      -0.420770       -11.4497
  61   2.0000      -0.413504       -11.2520
  62   2.0000      -0.406957       -11.0739
  63   2.0000      -0.353478        -9.6186
  64   2.0000      -0.330621        -8.9967
  65   2.0000      -0.328406        -8.9364
  66   2.0000      -0.287255        -7.8166
  67   0.0000       0.018551         0.5048
  68   0.0000       0.066354         1.8056
  69   0.0000       0.096548         2.6272
  70   0.0000       0.112724         3.0674
  71   0.0000       0.120950         3.2912

MULLIKEN ATOMIC CHARGES
-----------------------
   0 S :    0.093690
   1 C :   -0.108199
   2 C :   -0.059876
   3 C :   -0.017732
   4 C :   -0.119094
   5 H :    0.056694
   6 C :    0.012049
   7 H :    0.062510
   8 H :    0.025814
   9 C :   -0.083370
  10 H :    0.039399
  11 H :    0.030140
  12 C :   -0.071708
  13 H :    0.023448
  14 H :    0.030163
  15 H :    0.044905
  16 S :    0.094746
  17 C :   -0.074556
  18 C :   -0.044870
  19 C :   -0.007172
  20 C :   -0.159235
  21 H :    0.032288
  22 C :   -0.048222
  23 H :    0.023697
  24 H :    0.050598
  25 C :   -0.000663
  26 H :    0.002820
  27 H :    0.015176
  28 C :    0.019080
  29 H :    0.001689
  30 H :    0.022595
  31 H :    0.027726
  32 H :    0.038806
  33 H :    0.046665
Sum of atomic charges:    0.0000000

LOEWDIN ATOMIC CHARGES
----------------------
   0 S :    0.362218
   1 C :   -0.182677
   2 C :   -0.065876
   3 C :   -0.068775
   4 C :   -0.161493
   5 H :    0.050818
   6 C :   -0.046025
   7 H :    0.045949
   8 H :    0.032504
   9 C :   -0.044091
  10 H :    0.030231
  11 H :    0.022052
  12 C :   -0.072963
  13 H :    0.024450
  14 H :    0.025340
  15 H :    0.021859
  16 S :    0.384985
  17 C :   -0.176978
  18 C :   -0.071955
  19 C :   -0.058707
  20 C :   -0.179784
  21 H :    0.035210
  22 C :   -0.043436
  23 H :    0.032911
  24 H :    0.041100
  25 C :   -0.038596
  26 H :    0.015065
  27 H :    0.023801
  28 C :   -0.054767
  29 H :    0.019833
  30 H :    0.023064
  31 H :    0.033734
  32 H :    0.019528
  33 H :    0.021471

  Mayer bond orders larger than 0.100000
B(  0-S ,  1-C ) :   1.1227 B(  0-S ,  4-C ) :   1.1207 B(  1-C ,  2-C ) :   1.6284
B(  1-C , 32-H ) :   0.9779 B(  2-C ,  3-C ) :   1.2064 B(  2-C ,  6-C ) :   1.0120
B(  3-C ,  4-C ) :   1.6206 B(  3-C ,  5-H ) :   0.9670 B(  4-C , 20-C ) :   1.0500
B(  6-C ,  7-H ) :   0.9397 B(  6-C ,  8-H ) :   0.9456 B(  6-C ,  9-C ) :   1.0714
B(  9-C , 10-H ) :   0.9589 B(  9-C , 11-H ) :   0.9577 B(  9-C , 12-C ) :   1.0499
B( 12-C , 13-H ) :   0.9787 B( 12-C , 14-H ) :   0.9797 B( 12-C , 15-H ) :   0.9813
B( 16-S , 17-C ) :   1.1427 B( 16-S , 20-C ) :   1.1446 B( 17-C , 18-C ) :   1.6065
B( 17-C , 20-C ) :   0.1008 B( 17-C , 33-H ) :   0.9758 B( 18-C , 19-C ) :   1.2516
B( 18-C , 21-H ) :   0.9764 B( 19-C , 20-C ) :   1.5549 B( 19-C , 22-C ) :   1.0441
B( 22-C , 23-H ) :   0.9348 B( 22-C , 24-H ) :   0.9362 B( 22-C , 25-C ) :   1.0653
B( 25-C , 26-H ) :   0.9426 B( 25-C , 27-H ) :   0.9465 B( 25-C , 28-C ) :   1.0885
B( 28-C , 29-H ) :   0.9696 B( 28-C , 30-H ) :   0.9707 B( 28-C , 31-H ) :   0.9673

Dispersion correction           -0.013734820
FINAL SINGLE POINT ENERGY     -1339.852551626250

DIPOLE MOMENT
-------------
                                X             Y             Z
Electronic contribution:      8.48389     -27.26780      13.88658
Nuclear contribution   :     -8.50552      27.95112     -14.04988
                        -----------------------------------------
Total Dipole Moment    :     -0.02162       0.68332      -0.16329
                        -----------------------------------------
Magnitude (a.u.)       :      0.70289
Magnitude (Debye)      :      1.78661

Rotational constants in cm-1:     0.016664     0.009001     0.006202
Rotational constants in MHz :   499.577289   269.855068   185.935618

                             ****ORCA TERMINATED NORMALLY****
TOTAL RUN TIME: 0 days 0 hours 0 minutes 21 seconds 12 msec
