                         Program Version 4.2.1 -  RELEASE  -
|  1> ! wB97X-D3 SP def2-SVP
|  2> %pal
|  3> nprocs 24
|  4> end
|  5>
|  6> * xyz 0 1
|  7> S 	 -61.2884 	 13.1394 	 -92.4479
|  8> C 	 -61.3561 	 14.0742 	 -93.8715
|  9> C 	 -62.1428 	 15.1764 	 -93.6616
| 10> C 	 -62.472 	 15.3917 	 -92.3032
| 11> C 	 -62.0486 	 14.3844 	 -91.5065
| 12> H 	 -63.0283 	 16.2758 	 -91.9571
| 13> C 	 -62.6305 	 16.1318 	 -94.6999
| 14> H 	 -61.7774 	 16.1659 	 -95.3643
| 15> H 	 -62.6835 	 17.1364 	 -94.2811
| 16> C 	 -63.9222 	 15.7007 	 -95.3485
| 17> H 	 -63.9898 	 16.3819 	 -96.1955
| 18> H 	 -63.7864 	 14.6406 	 -95.6219
| 19> C 	 -65.1489 	 15.8176 	 -94.5
| 20> H 	 -66.0888 	 15.6042 	 -95.0287
| 21> H 	 -65.0453 	 15.1809 	 -93.6901
| 22> H 	 -65.2515 	 16.8466 	 -94.0678
| 23> S 	 -63.2183 	 12.7477 	 -89.6341
| 24> C 	 -63.2369 	 13.1906 	 -87.9571
| 25> C 	 -62.4707 	 14.3046 	 -87.7204
| 26> C 	 -61.9512 	 14.9248 	 -88.9095
| 27> C 	 -62.3018 	 14.1885 	 -90.0726
| 28> H 	 -62.4015 	 14.7283 	 -86.6672
| 29> C 	 -61.0726 	 16.1472 	 -88.8442
| 30> H 	 -61.555 	 16.7698 	 -88.0823
| 31> H 	 -60.9656 	 16.6955 	 -89.7671
| 32> C 	 -59.6468 	 15.7093 	 -88.4193
| 33> H 	 -59.3318 	 14.9475 	 -89.1265
| 34> H 	 -59.7618 	 15.1106 	 -87.4557
| 35> C 	 -58.6339 	 16.8753 	 -88.2831
| 36> H 	 -58.9234 	 17.6225 	 -87.5411
| 37> H 	 -58.4117 	 17.2969 	 -89.2404
| 38> H 	 -57.7277 	 16.4326 	 -87.843
| 39> H 	 -60.9208 	 13.8232 	 -94.8005
| 40> H 	 -63.7669 	 12.676 	 -87.1851
| 41> *
| 42>
| 43>                          ****END OF INPUT****

CARTESIAN COORDINATES (ANGSTROEM)
---------------------------------
  S    -61.288400   13.139400  -92.447900
  C    -61.356100   14.074200  -93.871500
  C    -62.142800   15.176400  -93.661600
  C    -62.472000   15.391700  -92.303200
  C    -62.048600   14.384400  -91.506500
  H    -63.028300   16.275800  -91.957100
  C    -62.630500   16.131800  -94.699900
  H    -61.777400   16.165900  -95.364300
  H    -62.683500   17.136400  -94.281100
  C    -63.922200   15.700700  -95.348500
  H    -63.989800   16.381900  -96.195500
  H    -63.786400   14.640600  -95.621900
  C    -65.148900   15.817600  -94.500000
  H    -66.088800   15.604200  -95.028700
  H    -65.045300   15.180900  -93.690100
  H    -65.251500   16.846600  -94.067800
  S    -63.218300   12.747700  -89.634100
  C    -63.236900   13.190600  -87.957100
  C    -62.470700   14.304600  -87.720400
  C    -61.951200   14.924800  -88.909500
  C    -62.301800   14.188500  -90.072600
  H    -62.401500   14.728300  -86.667200
  C    -61.072600   16.147200  -88.844200
  H    -61.555000   16.769800  -88.082300
  H    -60.965600   16.695500  -89.767100
  C    -59.646800   15.709300  -88.419300
  H    -59.331800   14.947500  -89.126500
  H    -59.761800   15.110600  -87.455700
  C    -58.633900   16.875300  -88.283100
  H    -58.923400   17.622500  -87.541100
  H    -58.411700   17.296900  -89.240400
  H    -57.727700   16.432600  -87.843000
  H    -60.920800   13.823200  -94.800500
  H    -63.766900   12.676000  -87.185100

 Total Charge           Charge          ....    0
 Multiplicity           Mult            ....    1
 Number of Electrons    NEL             ....  134
 Basis Dimension        Dim             ....  322

ORBITAL ENERGIES
----------------

  NO   OCC          E(Eh)            E(eV)
   0   2.0000     -88.964178     -2420.8383
   1   2.0000     -88.964101     -2420.8363
   2   2.0000     -10.328678      -281.0576
   3   2.0000     -10.325470      -280.9703
   4   2.0000     -10.313616      -280.6478
   5   2.0000     -10.306902      -280.4651
   6   2.0000     -10.306376      -280.4507
   7   2.0000     -10.297820      -280.2179
   8   2.0000     -10.291120      -280.0356
   9   2.0000     -10.288993      -279.9777
  10   2.0000     -10.288592      -279.9668
  11   2.0000     -10.288500      -279.9643
  12   2.0000     -10.283641      -279.8321
  13   2.0000     -10.282463      -279.8000
  14   2.0000     -10.277980      -279.6780
  15   2.0000     -10.271373      -279.4983
  16   2.0000      -8.080054      -219.8695
  17   2.0000      -8.078953      -219.8395
  18   2.0000      -6.038506      -164.3161
  19   2.0000      -6.037449      -164.2873
  20   2.0000      -6.034390      -164.2041
  21   2.0000      -6.033420      -164.1777
  22   2.0000      -6.030797      -164.1063
  23   2.0000      -6.029769      -164.0784
  24   2.0000      -1.012905       -27.5625
  25   2.0000      -0.986854       -26.8537
  26   2.0000      -0.920566       -25.0499
  27   2.0000      -0.906128       -24.6570
  28   2.0000      -0.870203       -23.6794
  29   2.0000      -0.851936       -23.1823
  30   2.0000      -0.844412       -22.9776
  31   2.0000      -0.817827       -22.2542
  32   2.0000      -0.783855       -21.3298
  33   2.0000      -0.770744       -20.9730
  34   2.0000      -0.703171       -19.1343
  35   2.0000      -0.699644       -19.0383
  36   2.0000      -0.691602       -18.8194
  37   2.0000      -0.656595       -17.8669
  38   2.0000      -0.643545       -17.5118
  39   2.0000      -0.618924       -16.8418
  40   2.0000      -0.597542       -16.2600
  41   2.0000      -0.579323       -15.7642
  42   2.0000      -0.558362       -15.1938
  43   2.0000      -0.551744       -15.0137
  44   2.0000      -0.544177       -14.8078
  45   2.0000      -0.517221       -14.0743
  46   2.0000      -0.516062       -14.0428
  47   2.0000      -0.511285       -13.9128
  48   2.0000      -0.505377       -13.7520
  49   2.0000      -0.503214       -13.6931
  50   2.0000      -0.493281       -13.4229
  51   2.0000      -0.480822       -13.0838
  52   2.0000      -0.474990       -12.9251
  53   2.0000      -0.466281       -12.6881
  54   2.0000      -0.460825       -12.5397
  55   2.0000      -0.449845       -12.2409
  56   2.0000      -0.446212       -12.1420
  57   2.0000      -0.435938       -11.8625
  58   2.0000      -0.431098       -11.7308
  59   2.0000      -0.423846       -11.5334
  60   2.0000      -0.421311       -11.4645
  61   2.0000      -0.412948       -11.2369
  62   2.0000      -0.407919       -11.1001
  63   2.0000      -0.347659        -9.4603
  64   2.0000      -0.329143        -8.9564
  65   2.0000      -0.327797        -8.9198
  66   2.0000      -0.292604        -7.9622
  67   0.0000       0.040143         1.0924
  68   0.0000       0.062974         1.7136
  69   0.0000       0.119258         3.2452
  70   0.0000       0.125571         3.4170
  71   0.0000       0.134168         3.6509

MULLIKEN ATOMIC CHARGES
-----------------------
   0 S :    0.117881
   1 C :   -0.098721
   2 C :   -0.136423
   3 C :    0.040488
   4 C :   -0.151151
   5 H :    0.019283
   6 C :    0.065717
   7 H :    0.015685
   8 H :    0.014393
   9 C :   -0.033212
  10 H :    0.029814
  11 H :    0.029249
  12 C :   -0.036232
  13 H :    0.041913
  14 H :    0.024987
  15 H :    0.020098
  16 S :    0.105127
  17 C :   -0.081984
  18 C :   -0.066651
  19 C :   -0.040125
  20 C :   -0.170042
  21 H :    0.043786
  22 C :    0.096757
  23 H :    0.024545
  24 H :    0.020232
  25 C :   -0.128638
  26 H :    0.033869
  27 H :    0.028393
  28 C :   -0.007011
  29 H :    0.031486
  30 H :    0.036219
  31 H :    0.032188
  32 H :    0.028479
  33 H :    0.049602
Sum of atomic charges:   -0.0000000

LOEWDIN ATOMIC CHARGES
----------------------
   0 S :    0.428382
   1 C :   -0.207615
   2 C :   -0.067256
   3 C :   -0.066226
   4 C :   -0.201412
   5 H :    0.037535
   6 C :   -0.033778
   7 H :    0.030121
   8 H :    0.026424
   9 C :   -0.037308
  10 H :    0.024653
  11 H :    0.028916
  12 C :   -0.062301
  13 H :    0.031381
  14 H :    0.016197
  15 H :    0.026801
  16 S :    0.405445
  17 C :   -0.189080
  18 C :   -0.082606
  19 C :   -0.052107
  20 C :   -0.199842
  21 H :    0.042944
  22 C :   -0.032010
  23 H :    0.030363
  24 H :    0.026769
  25 C :   -0.042109
  26 H :    0.025752
  27 H :    0.026785
  28 C :   -0.064506
  29 H :    0.026533
  30 H :    0.022893
  31 H :    0.031528
  32 H :    0.021706
  33 H :    0.027028

  Mayer bond orders larger than 0.100000
B(  0-S ,  1-C ) :   1.1394 B(  0-S ,  4-C ) :   1.1681 B(  1-C ,  2-C ) :   1.6004
B(  1-C , 32-H ) :   0.9763 B(  2-C ,  3-C ) :   1.2532 B(  2-C ,  6-C ) :   1.0177
B(  3-C ,  4-C ) :   1.5681 B(  3-C ,  5-H ) :   0.9969 B(  4-C , 20-C ) :   1.0096
B(  6-C ,  7-H ) :   0.9339 B(  6-C ,  8-H ) :   0.9386 B(  6-C ,  9-C ) :   1.0707
B(  9-C , 10-H ) :   0.9529 B(  9-C , 11-H ) :   0.9503 B(  9-C , 12-C ) :   1.0881
B( 12-C , 13-H ) :   0.9709 B( 12-C , 14-H ) :   0.9716 B( 12-C , 15-H ) :   0.9706
B( 16-S , 17-C ) :   1.1550 B( 16-S , 20-C ) :   1.1481 B( 17-C , 18-C ) :   1.6187
B( 17-C , 20-C ) :   0.1013 B( 17-C , 33-H ) :   0.9691 B( 18-C , 19-C ) :   1.2402
B( 18-C , 21-H ) :   0.9736 B( 19-C , 20-C ) :   1.5879 B( 19-C , 22-C ) :   1.0532
B( 22-C , 23-H ) :   0.9280 B( 22-C , 24-H ) :   0.9356 B( 22-C , 25-C ) :   1.0592
B( 25-C , 26-H ) :   0.9552 B( 25-C , 27-H ) :   0.9574 B( 25-C , 28-C ) :   1.0764
B( 28-C , 29-H ) :   0.9744 B( 28-C , 30-H ) :   0.9743 B( 28-C , 31-H ) :   0.9723

Dispersion correction           -0.014316778
FINAL SINGLE POINT ENERGY     -1339.891002705377

DIPOLE MOMENT
-------------
                                X             Y             Z
Electronic contribution:     -2.44042     -19.29603       3.28452
Nuclear contribution   :      2.44913      19.83030      -3.27690
                        -----------------------------------------
Total Dipole Moment    :      0.00871       0.53427       0.00762
                        -----------------------------------------
Magnitude (a.u.)       :      0.53440
Magnitude (Debye)      :      1.35833

Rotational constants in cm-1:     0.019069     0.008312     0.007187
Rotational constants in MHz :   571.686912   249.201314   215.454934

                             ****ORCA TERMINATED NORMALLY****
TOTAL RUN TIME: 0 days 0 hours 0 minutes 21 seconds 598 msec
