                         Program Version 4.2.1 -  RELEASE  -
|  1> ! wB97X-D3 SP def2-SVP
|  2> %pal
|  3> nprocs 24
|  4> end
|  5>
|  6> * xyz 0 1
|  7> S 	 -120.767 	 62.2421 	 -38.3403
|  8> C 	 -122.542 	 62.051 	 -38.5559
|  9> C 	 -123.02 	 61.0537 	 -37.7159
| 10> C 	 -121.995 	 60.4603 	 -36.8871
| 11> C 	 -120.715 	 60.9739 	 -37.0937
| 12> H 	 -122.126 	 59.709 	 -36.1898
| 13> C 	 -124.525 	 60.6925 	 -37.6432
| 14> H 	 -124.982 	 61.6595 	 -37.8162
| 15> H 	 -124.742 	 60.4782 	 -36.59
| 16> C 	 -125.061 	 59.6772 	 -38.6795
| 17> H 	 -126.025 	 59.8795 	 -39.1077
| 18> H 	 -124.51 	 59.8266 	 -39.6073
| 19> C 	 -124.965 	 58.2655 	 -38.182
| 20> H 	 -125.677 	 58.1013 	 -37.3795
| 21> H 	 -125.189 	 57.4947 	 -38.8999
| 22> H 	 -123.879 	 58.0501 	 -37.881
| 23> S 	 -118.237 	 61.7795 	 -36.3742
| 24> C 	 -117.284 	 60.7844 	 -35.3132
| 25> C 	 -117.755 	 59.4795 	 -35.3571
| 26> C 	 -119.09 	 59.3489 	 -35.865
| 27> C 	 -119.495 	 60.5511 	 -36.4107
| 28> H 	 -117.173 	 58.7321 	 -34.9307
| 29> C 	 -119.698 	 58.0104 	 -36.0806
| 30> H 	 -120.639 	 58.1001 	 -36.4679
| 31> H 	 -119.802 	 57.5483 	 -35.0516
| 32> C 	 -118.963 	 57.1207 	 -37.0478
| 33> H 	 -119.294 	 56.0971 	 -36.9694
| 34> H 	 -117.929 	 57.0974 	 -36.8072
| 35> C 	 -119.155 	 57.5727 	 -38.4694
| 36> H 	 -120.141 	 57.3044 	 -38.8788
| 37> H 	 -118.37 	 57.1241 	 -39.0794
| 38> H 	 -119.123 	 58.6587 	 -38.5219
| 39> H 	 -123.213 	 62.4517 	 -39.3117
| 40> H 	 -116.276 	 61.0026 	 -34.9851
| 41> *
| 42>
| 43>                          ****END OF INPUT****

CARTESIAN COORDINATES (ANGSTROEM)
---------------------------------
  S    -120.767000   62.242100  -38.340300
  C    -122.542000   62.051000  -38.555900
  C    -123.020000   61.053700  -37.715900
  C    -121.995000   60.460300  -36.887100
  C    -120.715000   60.973900  -37.093700
  H    -122.126000   59.709000  -36.189800
  C    -124.525000   60.692500  -37.643200
  H    -124.982000   61.659500  -37.816200
  H    -124.742000   60.478200  -36.590000
  C    -125.061000   59.677200  -38.679500
  H    -126.025000   59.879500  -39.107700
  H    -124.510000   59.826600  -39.607300
  C    -124.965000   58.265500  -38.182000
  H    -125.677000   58.101300  -37.379500
  H    -125.189000   57.494700  -38.899900
  H    -123.879000   58.050100  -37.881000
  S    -118.237000   61.779500  -36.374200
  C    -117.284000   60.784400  -35.313200
  C    -117.755000   59.479500  -35.357100
  C    -119.090000   59.348900  -35.865000
  C    -119.495000   60.551100  -36.410700
  H    -117.173000   58.732100  -34.930700
  C    -119.698000   58.010400  -36.080600
  H    -120.639000   58.100100  -36.467900
  H    -119.802000   57.548300  -35.051600
  C    -118.963000   57.120700  -37.047800
  H    -119.294000   56.097100  -36.969400
  H    -117.929000   57.097400  -36.807200
  C    -119.155000   57.572700  -38.469400
  H    -120.141000   57.304400  -38.878800
  H    -118.370000   57.124100  -39.079400
  H    -119.123000   58.658700  -38.521900
  H    -123.213000   62.451700  -39.311700
  H    -116.276000   61.002600  -34.985100

 Total Charge           Charge          ....    0
 Multiplicity           Mult            ....    1
 Number of Electrons    NEL             ....  134
 Basis Dimension        Dim             ....  322

ORBITAL ENERGIES
----------------

  NO   OCC          E(Eh)            E(eV)
   0   2.0000     -88.970430     -2421.0085
   1   2.0000     -88.965385     -2420.8712
   2   2.0000     -10.336080      -281.2590
   3   2.0000     -10.331282      -281.1285
   4   2.0000     -10.317594      -280.7560
   5   2.0000     -10.317314      -280.7484
   6   2.0000     -10.305458      -280.4258
   7   2.0000     -10.304053      -280.3875
   8   2.0000     -10.295800      -280.1630
   9   2.0000     -10.291805      -280.0542
  10   2.0000     -10.291217      -280.0382
  11   2.0000     -10.286076      -279.8983
  12   2.0000     -10.285675      -279.8874
  13   2.0000     -10.280454      -279.7454
  14   2.0000     -10.277522      -279.6656
  15   2.0000     -10.270490      -279.4743
  16   2.0000      -8.083439      -219.9615
  17   2.0000      -8.080504      -219.8817
  18   2.0000      -6.042258      -164.4182
  19   2.0000      -6.039026      -164.3302
  20   2.0000      -6.038201      -164.3078
  21   2.0000      -6.035158      -164.2250
  22   2.0000      -6.033964      -164.1925
  23   2.0000      -6.031040      -164.1130
  24   2.0000      -1.007468       -27.4146
  25   2.0000      -0.978648       -26.6304
  26   2.0000      -0.922587       -25.1049
  27   2.0000      -0.910299       -24.7705
  28   2.0000      -0.870460       -23.6864
  29   2.0000      -0.854830       -23.2611
  30   2.0000      -0.842044       -22.9132
  31   2.0000      -0.816583       -22.2204
  32   2.0000      -0.784727       -21.3535
  33   2.0000      -0.772752       -21.0277
  34   2.0000      -0.708833       -19.2883
  35   2.0000      -0.707393       -19.2491
  36   2.0000      -0.699366       -19.0307
  37   2.0000      -0.664801       -18.0902
  38   2.0000      -0.637166       -17.3382
  39   2.0000      -0.620507       -16.8849
  40   2.0000      -0.602145       -16.3852
  41   2.0000      -0.568735       -15.4761
  42   2.0000      -0.562515       -15.3068
  43   2.0000      -0.558200       -15.1894
  44   2.0000      -0.546241       -14.8640
  45   2.0000      -0.530458       -14.4345
  46   2.0000      -0.519555       -14.1378
  47   2.0000      -0.510435       -13.8896
  48   2.0000      -0.506051       -13.7703
  49   2.0000      -0.498505       -13.5650
  50   2.0000      -0.488420       -13.2906
  51   2.0000      -0.484232       -13.1766
  52   2.0000      -0.470378       -12.7996
  53   2.0000      -0.463172       -12.6035
  54   2.0000      -0.458344       -12.4722
  55   2.0000      -0.447935       -12.1889
  56   2.0000      -0.443589       -12.0707
  57   2.0000      -0.438615       -11.9353
  58   2.0000      -0.436256       -11.8711
  59   2.0000      -0.430319       -11.7096
  60   2.0000      -0.422872       -11.5069
  61   2.0000      -0.414357       -11.2752
  62   2.0000      -0.408697       -11.1212
  63   2.0000      -0.359216        -9.7748
  64   2.0000      -0.334689        -9.1073
  65   2.0000      -0.327217        -8.9040
  66   2.0000      -0.283308        -7.7092
  67   0.0000       0.017346         0.4720
  68   0.0000       0.069822         1.8999
  69   0.0000       0.096809         2.6343
  70   0.0000       0.115798         3.1510
  71   0.0000       0.131542         3.5795

MULLIKEN ATOMIC CHARGES
-----------------------
   0 S :    0.097850
   1 C :   -0.109908
   2 C :   -0.112644
   3 C :    0.031117
   4 C :   -0.104277
   5 H :   -0.014994
   6 C :    0.053614
   7 H :    0.021325
   8 H :    0.031298
   9 C :   -0.017025
  10 H :    0.017093
  11 H :    0.013348
  12 C :   -0.063042
  13 H :    0.034332
  14 H :    0.027429
  15 H :    0.038253
  16 S :    0.096139
  17 C :   -0.076271
  18 C :   -0.030418
  19 C :   -0.065485
  20 C :   -0.140096
  21 H :   -0.000062
  22 C :    0.091328
  23 H :   -0.020794
  24 H :    0.036043
  25 C :   -0.028250
  26 H :    0.023512
  27 H :    0.011713
  28 C :   -0.055728
  29 H :    0.030324
  30 H :    0.035161
  31 H :    0.040218
  32 H :    0.050701
  33 H :    0.058194
Sum of atomic charges:   -0.0000000

LOEWDIN ATOMIC CHARGES
----------------------
   0 S :    0.371855
   1 C :   -0.193735
   2 C :   -0.055022
   3 C :   -0.065572
   4 C :   -0.176049
   5 H :    0.015563
   6 C :   -0.028770
   7 H :    0.032712
   8 H :    0.032085
   9 C :   -0.047238
  10 H :    0.022304
  11 H :    0.026232
  12 C :   -0.068650
  13 H :    0.024562
  14 H :    0.022676
  15 H :    0.033118
  16 S :    0.400812
  17 C :   -0.185591
  18 C :   -0.054942
  19 C :   -0.057942
  20 C :   -0.184155
  21 H :    0.019080
  22 C :   -0.027808
  23 H :    0.012924
  24 H :    0.040105
  25 C :   -0.033909
  26 H :    0.025169
  27 H :    0.016455
  28 C :   -0.061450
  29 H :    0.025863
  30 H :    0.028221
  31 H :    0.027623
  32 H :    0.033964
  33 H :    0.029510

  Mayer bond orders larger than 0.100000
B(  0-S ,  1-C ) :   1.1098 B(  0-S ,  4-C ) :   1.1283 B(  1-C ,  2-C ) :   1.6439
B(  1-C , 32-H ) :   0.9615 B(  2-C ,  3-C ) :   1.2255 B(  2-C ,  6-C ) :   1.0136
B(  3-C ,  4-C ) :   1.5747 B(  3-C ,  5-H ) :   1.0030 B(  4-C , 20-C ) :   1.0709
B(  6-C ,  7-H ) :   0.9390 B(  6-C ,  8-H ) :   0.9517 B(  6-C ,  9-C ) :   1.0453
B(  9-C , 10-H ) :   0.9533 B(  9-C , 11-H ) :   0.9494 B(  9-C , 12-C ) :   1.0844
B( 12-C , 13-H ) :   0.9765 B( 12-C , 14-H ) :   0.9712 B( 12-C , 15-H ) :   0.9744
B( 16-S , 17-C ) :   1.1466 B( 16-S , 20-C ) :   1.1367 B( 17-C , 18-C ) :   1.6229
B( 17-C , 33-H ) :   0.9664 B( 18-C , 19-C ) :   1.2205 B( 18-C , 21-H ) :   0.9918
B( 19-C , 20-C ) :   1.5796 B( 19-C , 22-C ) :   1.0666 B( 22-C , 23-H ) :   0.9276
B( 22-C , 24-H ) :   0.9187 B( 22-C , 25-C ) :   1.0803 B( 25-C , 26-H ) :   0.9474
B( 25-C , 27-H ) :   0.9556 B( 25-C , 28-C ) :   1.0768 B( 28-C , 29-H ) :   0.9717
B( 28-C , 30-H ) :   0.9714 B( 28-C , 31-H ) :   0.9789

Dispersion correction           -0.015066417
FINAL SINGLE POINT ENERGY     -1339.868443755006

DIPOLE MOMENT
-------------
                                X             Y             Z
Electronic contribution:     15.71379      22.90760       4.73867
Nuclear contribution   :    -15.98269     -23.59083      -4.76664
                        -----------------------------------------
Total Dipole Moment    :     -0.26890      -0.68323      -0.02797
                        -----------------------------------------
Magnitude (a.u.)       :      0.73478
Magnitude (Debye)      :      1.86766

Rotational constants in cm-1:     0.020186     0.009242     0.007147
Rotational constants in MHz :   605.147437   277.082776   214.249212

                             ****ORCA TERMINATED NORMALLY****
TOTAL RUN TIME: 0 days 0 hours 0 minutes 21 seconds 238 msec
