                         Program Version 4.2.1 -  RELEASE  -
|  1> ! wB97X-D3 SP def2-SVP
|  2> %pal
|  3> nprocs 24
|  4> end
|  5>
|  6> * xyz 0 1
|  7> S 	 -46.6023 	 15.8342 	 26.6612
|  8> C 	 -48.13 	 15.3095 	 26.1322
|  9> C 	 -49.0106 	 16.4296 	 26.0576
| 10> C 	 -48.3872 	 17.6406 	 26.2551
| 11> C 	 -47.0568 	 17.5186 	 26.566
| 12> H 	 -48.7845 	 18.643 	 26.3406
| 13> C 	 -50.4979 	 16.3796 	 25.7419
| 14> H 	 -50.5377 	 16.6965 	 24.7221
| 15> H 	 -51.1416 	 16.985 	 26.3995
| 16> C 	 -51.1783 	 15.1065 	 25.8464
| 17> H 	 -50.698 	 14.3996 	 25.147
| 18> H 	 -51.0317 	 14.787 	 26.8839
| 19> C 	 -52.6771 	 15.1982 	 25.4658
| 20> H 	 -52.7657 	 15.9023 	 24.6884
| 21> H 	 -53.0788 	 14.1374 	 25.2274
| 22> H 	 -53.0853 	 15.5064 	 26.4082
| 23> S 	 -45.6461 	 18.2938 	 28.9113
| 24> C 	 -45.0043 	 19.8994 	 29.0067
| 25> C 	 -45.2431 	 20.605 	 27.854
| 26> C 	 -45.9158 	 19.8443 	 26.8212
| 27> C 	 -46.1908 	 18.5503 	 27.1872
| 28> H 	 -44.7537 	 21.5823 	 27.8505
| 29> C 	 -46.2374 	 20.4718 	 25.4791
| 30> H 	 -46.124 	 21.5768 	 25.4568
| 31> H 	 -47.3381 	 20.3872 	 25.3202
| 32> C 	 -45.4603 	 19.8844 	 24.2551
| 33> H 	 -46.1264 	 20.0343 	 23.3454
| 34> H 	 -45.4138 	 18.8373 	 24.3443
| 35> C 	 -44.1576 	 20.585 	 23.9348
| 36> H 	 -44.2052 	 21.6074 	 23.4072
| 37> H 	 -43.6228 	 19.9059 	 23.2493
| 38> H 	 -43.3649 	 20.7275 	 24.7187
| 39> H 	 -48.4998 	 14.3013 	 26.0516
| 40> H 	 -44.4295 	 20.24 	 29.8776
| 41> *
| 42>
| 43>                          ****END OF INPUT****

CARTESIAN COORDINATES (ANGSTROEM)
---------------------------------
  S    -46.602300   15.834200   26.661200
  C    -48.130000   15.309500   26.132200
  C    -49.010600   16.429600   26.057600
  C    -48.387200   17.640600   26.255100
  C    -47.056800   17.518600   26.566000
  H    -48.784500   18.643000   26.340600
  C    -50.497900   16.379600   25.741900
  H    -50.537700   16.696500   24.722100
  H    -51.141600   16.985000   26.399500
  C    -51.178300   15.106500   25.846400
  H    -50.698000   14.399600   25.147000
  H    -51.031700   14.787000   26.883900
  C    -52.677100   15.198200   25.465800
  H    -52.765700   15.902300   24.688400
  H    -53.078800   14.137400   25.227400
  H    -53.085300   15.506400   26.408200
  S    -45.646100   18.293800   28.911300
  C    -45.004300   19.899400   29.006700
  C    -45.243100   20.605000   27.854000
  C    -45.915800   19.844300   26.821200
  C    -46.190800   18.550300   27.187200
  H    -44.753700   21.582300   27.850500
  C    -46.237400   20.471800   25.479100
  H    -46.124000   21.576800   25.456800
  H    -47.338100   20.387200   25.320200
  C    -45.460300   19.884400   24.255100
  H    -46.126400   20.034300   23.345400
  H    -45.413800   18.837300   24.344300
  C    -44.157600   20.585000   23.934800
  H    -44.205200   21.607400   23.407200
  H    -43.622800   19.905900   23.249300
  H    -43.364900   20.727500   24.718700
  H    -48.499800   14.301300   26.051600
  H    -44.429500   20.240000   29.877600

 Total Charge           Charge          ....    0
 Multiplicity           Mult            ....    1
 Number of Electrons    NEL             ....  134
 Basis Dimension        Dim             ....  322

ORBITAL ENERGIES
----------------

  NO   OCC          E(Eh)            E(eV)
   0   2.0000     -88.969822     -2420.9919
   1   2.0000     -88.960778     -2420.7458
   2   2.0000     -10.331135      -281.1245
   3   2.0000     -10.328153      -281.0433
   4   2.0000     -10.316539      -280.7273
   5   2.0000     -10.315745      -280.7057
   6   2.0000     -10.306598      -280.4568
   7   2.0000     -10.301626      -280.3215
   8   2.0000     -10.295303      -280.1495
   9   2.0000     -10.293561      -280.1020
  10   2.0000     -10.289909      -280.0027
  11   2.0000     -10.288131      -279.9543
  12   2.0000     -10.284855      -279.8651
  13   2.0000     -10.283925      -279.8398
  14   2.0000     -10.282999      -279.8146
  15   2.0000     -10.279716      -279.7253
  16   2.0000      -8.085045      -220.0053
  17   2.0000      -8.075066      -219.7337
  18   2.0000      -6.043314      -164.4469
  19   2.0000      -6.039335      -164.3387
  20   2.0000      -6.036181      -164.2528
  21   2.0000      -6.033666      -164.1844
  22   2.0000      -6.029653      -164.0752
  23   2.0000      -6.025726      -163.9683
  24   2.0000      -1.009955       -27.4823
  25   2.0000      -0.983520       -26.7629
  26   2.0000      -0.927075       -25.2270
  27   2.0000      -0.902432       -24.5564
  28   2.0000      -0.867060       -23.5939
  29   2.0000      -0.859618       -23.3914
  30   2.0000      -0.843842       -22.9621
  31   2.0000      -0.813042       -22.1240
  32   2.0000      -0.781606       -21.2686
  33   2.0000      -0.770057       -20.9543
  34   2.0000      -0.708786       -19.2870
  35   2.0000      -0.698484       -19.0067
  36   2.0000      -0.681703       -18.5501
  37   2.0000      -0.658794       -17.9267
  38   2.0000      -0.643963       -17.5231
  39   2.0000      -0.615346       -16.7444
  40   2.0000      -0.594622       -16.1805
  41   2.0000      -0.592026       -16.1098
  42   2.0000      -0.570483       -15.5236
  43   2.0000      -0.543879       -14.7997
  44   2.0000      -0.537225       -14.6186
  45   2.0000      -0.526294       -14.3212
  46   2.0000      -0.516931       -14.0664
  47   2.0000      -0.512559       -13.9474
  48   2.0000      -0.504913       -13.7394
  49   2.0000      -0.497987       -13.5509
  50   2.0000      -0.488898       -13.3036
  51   2.0000      -0.482629       -13.1330
  52   2.0000      -0.477141       -12.9837
  53   2.0000      -0.467053       -12.7091
  54   2.0000      -0.460351       -12.5268
  55   2.0000      -0.442588       -12.0434
  56   2.0000      -0.437868       -11.9150
  57   2.0000      -0.434823       -11.8321
  58   2.0000      -0.424300       -11.5458
  59   2.0000      -0.422566       -11.4986
  60   2.0000      -0.420968       -11.4551
  61   2.0000      -0.409197       -11.1348
  62   2.0000      -0.407077       -11.0771
  63   2.0000      -0.350985        -9.5508
  64   2.0000      -0.331311        -9.0154
  65   2.0000      -0.327884        -8.9222
  66   2.0000      -0.292794        -7.9673
  67   0.0000       0.028633         0.7791
  68   0.0000       0.066168         1.8005
  69   0.0000       0.116134         3.1602
  70   0.0000       0.125619         3.4183
  71   0.0000       0.128007         3.4832

MULLIKEN ATOMIC CHARGES
-----------------------
   0 S :    0.123777
   1 C :   -0.097702
   2 C :   -0.106810
   3 C :    0.040021
   4 C :   -0.172769
   5 H :    0.019147
   6 C :    0.071695
   7 H :    0.029925
   8 H :    0.025869
   9 C :   -0.143453
  10 H :    0.023302
  11 H :    0.031593
  12 C :   -0.018387
  13 H :    0.029580
  14 H :    0.052085
  15 H :    0.030895
  16 S :    0.085145
  17 C :   -0.115130
  18 C :   -0.035620
  19 C :   -0.024086
  20 C :   -0.133735
  21 H :    0.027338
  22 C :    0.038982
  23 H :    0.021464
  24 H :    0.028523
  25 C :   -0.037645
  26 H :    0.031876
  27 H :    0.030486
  28 C :   -0.094433
  29 H :    0.046890
  30 H :    0.030828
  31 H :    0.038791
  32 H :    0.052028
  33 H :    0.069529
Sum of atomic charges:   -0.0000000

LOEWDIN ATOMIC CHARGES
----------------------
   0 S :    0.441800
   1 C :   -0.218634
   2 C :   -0.061022
   3 C :   -0.057655
   4 C :   -0.200777
   5 H :    0.037139
   6 C :   -0.038054
   7 H :    0.030669
   8 H :    0.033524
   9 C :   -0.051188
  10 H :    0.015877
  11 H :    0.022724
  12 C :   -0.055336
  13 H :    0.017881
  14 H :    0.040668
  15 H :    0.024502
  16 S :    0.372698
  17 C :   -0.187713
  18 C :   -0.081682
  19 C :   -0.057580
  20 C :   -0.179281
  21 H :    0.036592
  22 C :   -0.039150
  23 H :    0.032168
  24 H :    0.033006
  25 C :   -0.037422
  26 H :    0.036089
  27 H :    0.020064
  28 C :   -0.085706
  29 H :    0.033789
  30 H :    0.030140
  31 H :    0.027885
  32 H :    0.028861
  33 H :    0.035125

  Mayer bond orders larger than 0.100000
B(  0-S ,  1-C ) :   1.1660 B(  0-S ,  4-C ) :   1.1726 B(  1-C ,  2-C ) :   1.5461
B(  1-C ,  4-C ) :   0.1060 B(  1-C , 32-H ) :   0.9658 B(  2-C ,  3-C ) :   1.3064
B(  2-C ,  6-C ) :   1.0098 B(  3-C ,  4-C ) :   1.5312 B(  3-C ,  5-H ) :   0.9947
B(  4-C , 20-C ) :   1.0218 B(  6-C ,  7-H ) :   0.9229 B(  6-C ,  8-H ) :   0.9495
B(  6-C ,  9-C ) :   1.0892 B(  9-C , 10-H ) :   0.9397 B(  9-C , 11-H ) :   0.9640
B(  9-C , 12-C ) :   1.0671 B( 12-C , 13-H ) :   0.9751 B( 12-C , 14-H ) :   0.9749
B( 12-C , 15-H ) :   0.9763 B( 16-S , 17-C ) :   1.1563 B( 16-S , 20-C ) :   1.1116
B( 17-C , 18-C ) :   1.6329 B( 17-C , 33-H ) :   0.9619 B( 18-C , 19-C ) :   1.2057
B( 18-C , 21-H ) :   0.9911 B( 19-C , 20-C ) :   1.6367 B( 19-C , 22-C ) :   1.0420
B( 22-C , 23-H ) :   0.9421 B( 22-C , 24-H ) :   0.9334 B( 22-C , 25-C ) :   1.0609
B( 25-C , 26-H ) :   0.9507 B( 25-C , 27-H ) :   0.9640 B( 25-C , 28-C ) :   1.0727
B( 28-C , 29-H ) :   0.9738 B( 28-C , 30-H ) :   0.9711 B( 28-C , 31-H ) :   0.9764

Dispersion correction           -0.013752284
FINAL SINGLE POINT ENERGY     -1339.861156733544

DIPOLE MOMENT
-------------
                                X             Y             Z
Electronic contribution:     14.19895      -4.61579      17.13123
Nuclear contribution   :    -14.59504       4.90384     -17.35393
                        -----------------------------------------
Total Dipole Moment    :     -0.39609       0.28805      -0.22270
                        -----------------------------------------
Magnitude (a.u.)       :      0.53801
Magnitude (Debye)      :      1.36750

Rotational constants in cm-1:     0.021489     0.007254     0.006380
Rotational constants in MHz :   644.236722   217.465891   191.258797

                             ****ORCA TERMINATED NORMALLY****
TOTAL RUN TIME: 0 days 0 hours 0 minutes 21 seconds 183 msec
