                         Program Version 4.2.1 -  RELEASE  -
|  1> ! wB97X-D3 SP def2-SVP
|  2> %pal
|  3> nprocs 24
|  4> end
|  5>
|  6> * xyz 0 1
|  7> S 	 -145.433 	 10.1236 	 -0.316815
|  8> C 	 -144.103 	 11.3371 	 -0.208612
|  9> C 	 -142.855 	 10.7326 	 -0.369195
| 10> C 	 -142.932 	 9.37533 	 -0.552583
| 11> C 	 -144.208 	 8.81997 	 -0.569183
| 12> H 	 -142.023 	 8.87322 	 -0.740484
| 13> C 	 -141.597 	 11.5546 	 -0.378796
| 14> H 	 -141.718 	 12.6315 	 -0.467147
| 15> H 	 -141.084 	 11.1664 	 -1.37714
| 16> C 	 -140.719 	 11.2235 	 0.865555
| 17> H 	 -141.309 	 11.107 	 1.75954
| 18> H 	 -140.292 	 10.2359 	 0.660619
| 19> C 	 -139.631 	 12.3454 	 0.935339
| 20> H 	 -139.043 	 12.2056 	 1.82761
| 21> H 	 -139.051 	 12.2365 	 -0.0025663
| 22> H 	 -140.082 	 13.3221 	 1.09829
| 23> S 	 -145.667 	 6.6178 	 0.494408
| 24> C 	 -145.506 	 5.04738 	 -0.257503
| 25> C 	 -144.668 	 5.17311 	 -1.30241
| 26> C 	 -144.125 	 6.48131 	 -1.52777
| 27> C 	 -144.614 	 7.37997 	 -0.641847
| 28> H 	 -144.53 	 4.33633 	 -1.92884
| 29> C 	 -143.302 	 6.76507 	 -2.78133
| 30> H 	 -142.41 	 7.19356 	 -2.43906
| 31> H 	 -143.786 	 7.6012 	 -3.32558
| 32> C 	 -142.862 	 5.60824 	 -3.60393
| 33> H 	 -143.642 	 5.00367 	 -3.9547
| 34> H 	 -142.296 	 4.99792 	 -3.0037
| 35> C 	 -141.985 	 6.00423 	 -4.78876
| 36> H 	 -142.527 	 6.60717 	 -5.47332
| 37> H 	 -141.691 	 5.04198 	 -5.26627
| 38> H 	 -141.216 	 6.62793 	 -4.5569
| 39> H 	 -144.228 	 12.3457 	 -0.145511
| 40> H 	 -146.173 	 4.15919 	 -0.126411
| 41> *
| 42>
| 43>                          ****END OF INPUT****

CARTESIAN COORDINATES (ANGSTROEM)
---------------------------------
  S    -145.433000   10.123600   -0.316815
  C    -144.103000   11.337100   -0.208612
  C    -142.855000   10.732600   -0.369195
  C    -142.932000    9.375330   -0.552583
  C    -144.208000    8.819970   -0.569183
  H    -142.023000    8.873220   -0.740484
  C    -141.597000   11.554600   -0.378796
  H    -141.718000   12.631500   -0.467147
  H    -141.084000   11.166400   -1.377140
  C    -140.719000   11.223500    0.865555
  H    -141.309000   11.107000    1.759540
  H    -140.292000   10.235900    0.660619
  C    -139.631000   12.345400    0.935339
  H    -139.043000   12.205600    1.827610
  H    -139.051000   12.236500   -0.002566
  H    -140.082000   13.322100    1.098290
  S    -145.667000    6.617800    0.494408
  C    -145.506000    5.047380   -0.257503
  C    -144.668000    5.173110   -1.302410
  C    -144.125000    6.481310   -1.527770
  C    -144.614000    7.379970   -0.641847
  H    -144.530000    4.336330   -1.928840
  C    -143.302000    6.765070   -2.781330
  H    -142.410000    7.193560   -2.439060
  H    -143.786000    7.601200   -3.325580
  C    -142.862000    5.608240   -3.603930
  H    -143.642000    5.003670   -3.954700
  H    -142.296000    4.997920   -3.003700
  C    -141.985000    6.004230   -4.788760
  H    -142.527000    6.607170   -5.473320
  H    -141.691000    5.041980   -5.266270
  H    -141.216000    6.627930   -4.556900
  H    -144.228000   12.345700   -0.145511
  H    -146.173000    4.159190   -0.126411

 Total Charge           Charge          ....    0
 Multiplicity           Mult            ....    1
 Number of Electrons    NEL             ....  134
 Basis Dimension        Dim             ....  322

ORBITAL ENERGIES
----------------

  NO   OCC          E(Eh)            E(eV)
   0   2.0000     -88.967759     -2420.9358
   1   2.0000     -88.962059     -2420.7807
   2   2.0000     -10.339831      -281.3611
   3   2.0000     -10.323582      -280.9189
   4   2.0000     -10.314637      -280.6756
   5   2.0000     -10.310598      -280.5656
   6   2.0000     -10.302419      -280.3431
   7   2.0000     -10.296181      -280.1733
   8   2.0000     -10.295441      -280.1532
   9   2.0000     -10.291328      -280.0413
  10   2.0000     -10.289882      -280.0019
  11   2.0000     -10.284287      -279.8497
  12   2.0000     -10.283994      -279.8417
  13   2.0000     -10.283385      -279.8251
  14   2.0000     -10.272355      -279.5250
  15   2.0000     -10.270114      -279.4640
  16   2.0000      -8.080584      -219.8839
  17   2.0000      -8.077305      -219.7947
  18   2.0000      -6.039160      -164.3339
  19   2.0000      -6.035950      -164.2466
  20   2.0000      -6.035345      -164.2301
  21   2.0000      -6.031685      -164.1305
  22   2.0000      -6.031414      -164.1231
  23   2.0000      -6.027926      -164.0282
  24   2.0000      -1.007187       -27.4069
  25   2.0000      -0.983641       -26.7662
  26   2.0000      -0.920597       -25.0507
  27   2.0000      -0.909837       -24.7579
  28   2.0000      -0.868272       -23.6269
  29   2.0000      -0.853533       -23.2258
  30   2.0000      -0.845108       -22.9966
  31   2.0000      -0.818437       -22.2708
  32   2.0000      -0.783962       -21.3327
  33   2.0000      -0.769692       -20.9444
  34   2.0000      -0.716077       -19.4854
  35   2.0000      -0.708628       -19.2827
  36   2.0000      -0.697551       -18.9813
  37   2.0000      -0.652188       -17.7469
  38   2.0000      -0.641160       -17.4469
  39   2.0000      -0.631240       -17.1769
  40   2.0000      -0.600986       -16.3537
  41   2.0000      -0.577980       -15.7276
  42   2.0000      -0.571085       -15.5400
  43   2.0000      -0.562563       -15.3081
  44   2.0000      -0.538121       -14.6430
  45   2.0000      -0.525064       -14.2877
  46   2.0000      -0.515585       -14.0298
  47   2.0000      -0.508762       -13.8441
  48   2.0000      -0.503651       -13.7051
  49   2.0000      -0.501170       -13.6375
  50   2.0000      -0.491035       -13.3618
  51   2.0000      -0.481991       -13.1156
  52   2.0000      -0.473721       -12.8906
  53   2.0000      -0.464775       -12.6472
  54   2.0000      -0.460540       -12.5319
  55   2.0000      -0.449066       -12.2197
  56   2.0000      -0.447444       -12.1756
  57   2.0000      -0.442161       -12.0318
  58   2.0000      -0.437206       -11.8970
  59   2.0000      -0.431092       -11.7306
  60   2.0000      -0.427645       -11.6368
  61   2.0000      -0.413883       -11.2623
  62   2.0000      -0.405549       -11.0356
  63   2.0000      -0.347622        -9.4593
  64   2.0000      -0.333466        -9.0741
  65   2.0000      -0.327252        -8.9050
  66   2.0000      -0.292652        -7.9635
  67   0.0000       0.026159         0.7118
  68   0.0000       0.075076         2.0429
  69   0.0000       0.106304         2.8927
  70   0.0000       0.128249         3.4898
  71   0.0000       0.136135         3.7044

MULLIKEN ATOMIC CHARGES
-----------------------
   0 S :    0.094310
   1 C :   -0.088405
   2 C :   -0.075749
   3 C :    0.058423
   4 C :   -0.161275
   5 H :   -0.009909
   6 C :    0.004455
   7 H :    0.025224
   8 H :    0.047825
   9 C :   -0.087439
  10 H :    0.040229
  11 H :    0.030471
  12 C :   -0.035422
  13 H :    0.031224
  14 H :    0.044818
  15 H :    0.035584
  16 S :    0.103508
  17 C :   -0.095534
  18 C :   -0.040636
  19 C :   -0.054464
  20 C :   -0.130687
  21 H :   -0.001196
  22 C :    0.106097
  23 H :   -0.009809
  24 H :    0.041644
  25 C :   -0.050362
  26 H :    0.017733
  27 H :    0.005637
  28 C :    0.020208
  29 H :    0.011677
  30 H :    0.039300
  31 H :    0.000132
  32 H :    0.006986
  33 H :    0.075405
Sum of atomic charges:    0.0000000

LOEWDIN ATOMIC CHARGES
----------------------
   0 S :    0.366074
   1 C :   -0.165825
   2 C :   -0.065419
   3 C :   -0.058211
   4 C :   -0.163089
   5 H :    0.023925
   6 C :   -0.033303
   7 H :    0.025440
   8 H :    0.043062
   9 C :   -0.037140
  10 H :    0.022517
  11 H :    0.023386
  12 C :   -0.063472
  13 H :    0.023312
  14 H :    0.033152
  15 H :    0.025134
  16 S :    0.409802
  17 C :   -0.195169
  18 C :   -0.072318
  19 C :   -0.058359
  20 C :   -0.210249
  21 H :    0.022476
  22 C :   -0.029127
  23 H :    0.023184
  24 H :    0.038510
  25 C :   -0.033148
  26 H :    0.016037
  27 H :    0.016075
  28 C :   -0.045664
  29 H :    0.021049
  30 H :    0.035560
  31 H :    0.009814
  32 H :    0.005556
  33 H :    0.046429

  Mayer bond orders larger than 0.100000
B(  0-S ,  1-C ) :   1.1321 B(  0-S ,  4-C ) :   1.1495 B(  1-C ,  2-C ) :   1.5837
B(  1-C ,  4-C ) :   0.1128 B(  1-C , 32-H ) :   0.9798 B(  2-C ,  3-C ) :   1.2953
B(  2-C ,  6-C ) :   1.0157 B(  3-C ,  4-C ) :   1.5400 B(  3-C ,  5-H ) :   0.9912
B(  4-C , 20-C ) :   1.0232 B(  6-C ,  7-H ) :   0.9560 B(  6-C ,  8-H ) :   0.9379
B(  6-C ,  9-C ) :   1.0333 B(  9-C , 10-H ) :   0.9642 B(  9-C , 11-H ) :   0.9541
B(  9-C , 12-C ) :   1.0794 B( 12-C , 13-H ) :   0.9751 B( 12-C , 14-H ) :   0.9724
B( 12-C , 15-H ) :   0.9769 B( 16-S , 17-C ) :   1.1425 B( 16-S , 20-C ) :   1.1399
B( 17-C , 18-C ) :   1.6201 B( 17-C , 33-H ) :   0.9543 B( 18-C , 19-C ) :   1.2520
B( 18-C , 21-H ) :   0.9915 B( 19-C , 20-C ) :   1.6171 B( 19-C , 22-C ) :   1.0211
B( 22-C , 23-H ) :   0.9062 B( 22-C , 24-H ) :   0.9308 B( 22-C , 25-C ) :   1.1006
B( 25-C , 26-H ) :   0.9417 B( 25-C , 27-H ) :   0.9419 B( 25-C , 28-C ) :   1.0911
B( 28-C , 29-H ) :   0.9712 B( 28-C , 30-H ) :   0.9717 B( 28-C , 31-H ) :   0.9706

Dispersion correction           -0.013412166
FINAL SINGLE POINT ENERGY     -1339.855865135362

DIPOLE MOMENT
-------------
                                X             Y             Z
Electronic contribution:    -26.08719      -3.83169      11.64047
Nuclear contribution   :     26.73905       3.83867     -12.03720
                        -----------------------------------------
Total Dipole Moment    :      0.65186       0.00699      -0.39673
                        -----------------------------------------
Magnitude (a.u.)       :      0.76313
Magnitude (Debye)      :      1.93972

Rotational constants in cm-1:     0.017062     0.008022     0.006291
Rotational constants in MHz :   511.502852   240.495339   188.604932

                             ****ORCA TERMINATED NORMALLY****
TOTAL RUN TIME: 0 days 0 hours 0 minutes 21 seconds 178 msec
