                         Program Version 4.2.1 -  RELEASE  -
|  1> ! wB97X-D3 SP def2-SVP
|  2> %pal
|  3> nprocs 24
|  4> end
|  5>
|  6> * xyz 0 1
|  7> S 	 -110.043 	 49.4184 	 -73.0898
|  8> C 	 -110.221 	 49.1731 	 -74.8415
|  9> C 	 -110.309 	 50.2927 	 -75.5906
| 10> C 	 -110.153 	 51.4322 	 -74.7291
| 11> C 	 -110.015 	 51.1228 	 -73.3348
| 12> H 	 -109.928 	 52.4077 	 -75.1138
| 13> C 	 -110.497 	 50.2803 	 -77.0893
| 14> H 	 -109.904 	 49.4841 	 -77.5146
| 15> H 	 -110.036 	 51.1529 	 -77.511
| 16> C 	 -111.899 	 50.0287 	 -77.5488
| 17> H 	 -111.991 	 50.0808 	 -78.6304
| 18> H 	 -112.219 	 49.052 	 -77.3314
| 19> C 	 -112.926 	 50.9672 	 -76.8016
| 20> H 	 -113.916 	 51.045 	 -77.3021
| 21> H 	 -112.993 	 50.6615 	 -75.7264
| 22> H 	 -112.392 	 51.9766 	 -76.6543
| 23> S 	 -108.427 	 51.8231 	 -71.1305
| 24> C 	 -108.64 	 53.3888 	 -70.3643
| 25> C 	 -109.756 	 54.0419 	 -70.905
| 26> C 	 -110.515 	 53.2301 	 -71.8293
| 27> C 	 -109.832 	 52.0665 	 -72.1921
| 28> H 	 -109.985 	 55.1128 	 -70.5891
| 29> C 	 -111.617 	 53.8393 	 -72.6671
| 30> H 	 -112.113 	 53.0934 	 -73.1905
| 31> H 	 -111.127 	 54.3442 	 -73.4327
| 32> C 	 -112.601 	 54.761 	 -71.9598
| 33> H 	 -112.049 	 55.3681 	 -71.2547
| 34> H 	 -113.251 	 54.154 	 -71.3521
| 35> C 	 -113.4 	 55.7321 	 -72.8298
| 36> H 	 -114.022 	 55.274 	 -73.6006
| 37> H 	 -112.725 	 56.4269 	 -73.342
| 38> H 	 -114.086 	 56.4364 	 -72.3162
| 39> H 	 -110.5 	 48.2201 	 -75.2502
| 40> H 	 -107.891 	 53.691 	 -69.5798
| 41> *
| 42>
| 43>                          ****END OF INPUT****

CARTESIAN COORDINATES (ANGSTROEM)
---------------------------------
  S    -110.043000   49.418400  -73.089800
  C    -110.221000   49.173100  -74.841500
  C    -110.309000   50.292700  -75.590600
  C    -110.153000   51.432200  -74.729100
  C    -110.015000   51.122800  -73.334800
  H    -109.928000   52.407700  -75.113800
  C    -110.497000   50.280300  -77.089300
  H    -109.904000   49.484100  -77.514600
  H    -110.036000   51.152900  -77.511000
  C    -111.899000   50.028700  -77.548800
  H    -111.991000   50.080800  -78.630400
  H    -112.219000   49.052000  -77.331400
  C    -112.926000   50.967200  -76.801600
  H    -113.916000   51.045000  -77.302100
  H    -112.993000   50.661500  -75.726400
  H    -112.392000   51.976600  -76.654300
  S    -108.427000   51.823100  -71.130500
  C    -108.640000   53.388800  -70.364300
  C    -109.756000   54.041900  -70.905000
  C    -110.515000   53.230100  -71.829300
  C    -109.832000   52.066500  -72.192100
  H    -109.985000   55.112800  -70.589100
  C    -111.617000   53.839300  -72.667100
  H    -112.113000   53.093400  -73.190500
  H    -111.127000   54.344200  -73.432700
  C    -112.601000   54.761000  -71.959800
  H    -112.049000   55.368100  -71.254700
  H    -113.251000   54.154000  -71.352100
  C    -113.400000   55.732100  -72.829800
  H    -114.022000   55.274000  -73.600600
  H    -112.725000   56.426900  -73.342000
  H    -114.086000   56.436400  -72.316200
  H    -110.500000   48.220100  -75.250200
  H    -107.891000   53.691000  -69.579800

 Total Charge           Charge          ....    0
 Multiplicity           Mult            ....    1
 Number of Electrons    NEL             ....  134
 Basis Dimension        Dim             ....  322

ORBITAL ENERGIES
----------------

  NO   OCC          E(Eh)            E(eV)
   0   2.0000     -88.970516     -2421.0108
   1   2.0000     -88.963250     -2420.8131
   2   2.0000     -10.338380      -281.3216
   3   2.0000     -10.332504      -281.1617
   4   2.0000     -10.327227      -281.0181
   5   2.0000     -10.310633      -280.5666
   6   2.0000     -10.308426      -280.5065
   7   2.0000     -10.305870      -280.4370
   8   2.0000     -10.300999      -280.3044
   9   2.0000     -10.300730      -280.2971
  10   2.0000     -10.291861      -280.0558
  11   2.0000     -10.287441      -279.9355
  12   2.0000     -10.285059      -279.8707
  13   2.0000     -10.283418      -279.8260
  14   2.0000     -10.280751      -279.7535
  15   2.0000     -10.278346      -279.6880
  16   2.0000      -8.085224      -220.0101
  17   2.0000      -8.077798      -219.8081
  18   2.0000      -6.043604      -164.4548
  19   2.0000      -6.039776      -164.3506
  20   2.0000      -6.036250      -164.2547
  21   2.0000      -6.036075      -164.2500
  22   2.0000      -6.032288      -164.1469
  23   2.0000      -6.028671      -164.0485
  24   2.0000      -1.002726       -27.2856
  25   2.0000      -0.981955       -26.7204
  26   2.0000      -0.919629       -25.0244
  27   2.0000      -0.911285       -24.7973
  28   2.0000      -0.863437       -23.4953
  29   2.0000      -0.850432       -23.1414
  30   2.0000      -0.839490       -22.8437
  31   2.0000      -0.808486       -22.0000
  32   2.0000      -0.785991       -21.3879
  33   2.0000      -0.775703       -21.1080
  34   2.0000      -0.709741       -19.3130
  35   2.0000      -0.706225       -19.2174
  36   2.0000      -0.695660       -18.9299
  37   2.0000      -0.652422       -17.7533
  38   2.0000      -0.637155       -17.3379
  39   2.0000      -0.616668       -16.7804
  40   2.0000      -0.599185       -16.3046
  41   2.0000      -0.575262       -15.6537
  42   2.0000      -0.565367       -15.3844
  43   2.0000      -0.556542       -15.1443
  44   2.0000      -0.541336       -14.7305
  45   2.0000      -0.521939       -14.2027
  46   2.0000      -0.512286       -13.9400
  47   2.0000      -0.508581       -13.8392
  48   2.0000      -0.505555       -13.7569
  49   2.0000      -0.493196       -13.4205
  50   2.0000      -0.489696       -13.3253
  51   2.0000      -0.478416       -13.0184
  52   2.0000      -0.468590       -12.7510
  53   2.0000      -0.464377       -12.6364
  54   2.0000      -0.458900       -12.4873
  55   2.0000      -0.453912       -12.3516
  56   2.0000      -0.449551       -12.2329
  57   2.0000      -0.436851       -11.8873
  58   2.0000      -0.428659       -11.6644
  59   2.0000      -0.428180       -11.6514
  60   2.0000      -0.423847       -11.5335
  61   2.0000      -0.416526       -11.3342
  62   2.0000      -0.411333       -11.1929
  63   2.0000      -0.343807        -9.3555
  64   2.0000      -0.335746        -9.1361
  65   2.0000      -0.327707        -8.9174
  66   2.0000      -0.293072        -7.9749
  67   0.0000       0.026438         0.7194
  68   0.0000       0.065116         1.7719
  69   0.0000       0.107774         2.9327
  70   0.0000       0.116956         3.1825
  71   0.0000       0.126676         3.4470

MULLIKEN ATOMIC CHARGES
-----------------------
   0 S :    0.120557
   1 C :   -0.113024
   2 C :   -0.117222
   3 C :    0.028638
   4 C :   -0.162224
   5 H :    0.010182
   6 C :    0.099844
   7 H :    0.024470
   8 H :    0.020556
   9 C :   -0.037861
  10 H :    0.030437
  11 H :    0.012330
  12 C :   -0.106416
  13 H :    0.055146
  14 H :    0.054785
  15 H :    0.028388
  16 S :    0.092595
  17 C :   -0.122122
  18 C :   -0.071120
  19 C :   -0.025075
  20 C :   -0.153460
  21 H :    0.059412
  22 C :    0.107561
  23 H :    0.006781
  24 H :    0.014350
  25 C :   -0.047554
  26 H :    0.011850
  27 H :    0.025427
  28 C :   -0.061117
  29 H :    0.031782
  30 H :    0.022980
  31 H :    0.034084
  32 H :    0.037526
  33 H :    0.087516
Sum of atomic charges:    0.0000000

LOEWDIN ATOMIC CHARGES
----------------------
   0 S :    0.414050
   1 C :   -0.182449
   2 C :   -0.063005
   3 C :   -0.062091
   4 C :   -0.201469
   5 H :    0.024766
   6 C :   -0.028364
   7 H :    0.035886
   8 H :    0.029442
   9 C :   -0.036448
  10 H :    0.025473
  11 H :    0.015160
  12 C :   -0.078403
  13 H :    0.029419
  14 H :    0.032677
  15 H :    0.027749
  16 S :    0.387997
  17 C :   -0.189467
  18 C :   -0.082587
  19 C :   -0.050300
  20 C :   -0.195725
  21 H :    0.043745
  22 C :   -0.023579
  23 H :    0.022807
  24 H :    0.026256
  25 C :   -0.035992
  26 H :    0.019963
  27 H :    0.024109
  28 C :   -0.070584
  29 H :    0.023383
  30 H :    0.024237
  31 H :    0.030774
  32 H :    0.020866
  33 H :    0.041702

  Mayer bond orders larger than 0.100000
B(  0-S ,  1-C ) :   1.1361 B(  0-S ,  4-C ) :   1.1768 B(  1-C ,  2-C ) :   1.6377
B(  1-C , 32-H ) :   0.9603 B(  2-C ,  3-C ) :   1.2487 B(  2-C ,  6-C ) :   1.0139
B(  3-C ,  4-C ) :   1.5462 B(  3-C ,  5-H ) :   0.9906 B(  4-C , 20-C ) :   1.0266
B(  6-C ,  7-H ) :   0.9362 B(  6-C ,  8-H ) :   0.9361 B(  6-C ,  9-C ) :   1.0806
B(  9-C , 10-H ) :   0.9565 B(  9-C , 11-H ) :   0.9548 B(  9-C , 12-C ) :   1.0624
B( 12-C , 13-H ) :   0.9748 B( 12-C , 14-H ) :   0.9663 B( 12-C , 15-H ) :   0.9784
B( 16-S , 17-C ) :   1.1605 B( 16-S , 20-C ) :   1.1424 B( 17-C , 18-C ) :   1.6003
B( 17-C , 20-C ) :   0.1020 B( 17-C , 33-H ) :   0.9631 B( 18-C , 19-C ) :   1.2263
B( 18-C , 21-H ) :   0.9734 B( 19-C , 20-C ) :   1.5848 B( 19-C , 22-C ) :   1.0556
B( 22-C , 23-H ) :   0.9211 B( 22-C , 24-H ) :   0.9346 B( 22-C , 25-C ) :   1.0535
B( 25-C , 26-H ) :   0.9569 B( 25-C , 27-H ) :   0.9547 B( 25-C , 28-C ) :   1.0843
B( 28-C , 29-H ) :   0.9768 B( 28-C , 30-H ) :   0.9729 B( 28-C , 31-H ) :   0.9745

Dispersion correction           -0.014423161
FINAL SINGLE POINT ENERGY     -1339.870985758158

DIPOLE MOMENT
-------------
                                X             Y             Z
Electronic contribution:     20.21802     -14.17942      17.10590
Nuclear contribution   :    -20.44178      14.55006     -17.62578
                        -----------------------------------------
Total Dipole Moment    :     -0.22376       0.37065      -0.51988
                        -----------------------------------------
Magnitude (a.u.)       :      0.67655
Magnitude (Debye)      :      1.71966

Rotational constants in cm-1:     0.016853     0.009374     0.006477
Rotational constants in MHz :   505.226487   281.034062   194.187832

                             ****ORCA TERMINATED NORMALLY****
TOTAL RUN TIME: 0 days 0 hours 0 minutes 21 seconds 666 msec
