                         Program Version 4.2.1 -  RELEASE  -
|  1> ! wB97X-D3 SP def2-SVP
|  2> %pal
|  3> nprocs 24
|  4> end
|  5>
|  6> * xyz 0 1
|  7> S 	 -48.9947 	 12.3724 	 22.6269
|  8> C 	 -48.32 	 10.8168 	 22.2449
|  9> C 	 -48.8586 	 9.81529 	 23.0567
| 10> C 	 -49.741 	 10.4396 	 24.0331
| 11> C 	 -49.882 	 11.8191 	 23.96
| 12> H 	 -50.2942 	 9.94127 	 24.7919
| 13> C 	 -48.5681 	 8.30685 	 23.0077
| 14> H 	 -48.2802 	 7.9917 	 24.0276
| 15> H 	 -47.5197 	 8.1801 	 22.5862
| 16> C 	 -49.635 	 7.43224 	 22.4987
| 17> H 	 -50.4724 	 7.42033 	 23.1979
| 18> H 	 -49.9045 	 7.98175 	 21.5886
| 19> C 	 -49.2171 	 5.9893 	 22.046
| 20> H 	 -50.0319 	 5.38007 	 21.6341
| 21> H 	 -48.4626 	 6.14176 	 21.2449
| 22> H 	 -48.7645 	 5.42047 	 22.7992
| 23> S 	 -51.748 	 13.7394 	 23.9991
| 24> C 	 -52.6773 	 14.1344 	 25.4307
| 25> C 	 -52.1084 	 13.4974 	 26.5324
| 26> C 	 -50.9559 	 12.6964 	 26.1613
| 27> C 	 -50.7205 	 12.624 	 24.7712
| 28> H 	 -52.425 	 13.5911 	 27.4831
| 29> C 	 -50.1239 	 11.9615 	 27.1565
| 30> H 	 -49.6127 	 11.1021 	 26.7092
| 31> H 	 -50.8057 	 11.5755 	 27.8844
| 32> C 	 -48.9559 	 12.7973 	 27.7144
| 33> H 	 -49.2034 	 13.7685 	 28.0612
| 34> H 	 -48.2806 	 13.0356 	 26.8893
| 35> C 	 -48.1668 	 12.0114 	 28.7175
| 36> H 	 -47.1705 	 12.5126 	 28.7268
| 37> H 	 -47.9521 	 11.0279 	 28.5183
| 38> H 	 -48.6475 	 12.051 	 29.694
| 39> H 	 -47.591 	 10.6415 	 21.4249
| 40> H 	 -53.474 	 14.8094 	 25.4748
| 41> *
| 42>
| 43>                          ****END OF INPUT****

CARTESIAN COORDINATES (ANGSTROEM)
---------------------------------
  S    -48.994700   12.372400   22.626900
  C    -48.320000   10.816800   22.244900
  C    -48.858600    9.815290   23.056700
  C    -49.741000   10.439600   24.033100
  C    -49.882000   11.819100   23.960000
  H    -50.294200    9.941270   24.791900
  C    -48.568100    8.306850   23.007700
  H    -48.280200    7.991700   24.027600
  H    -47.519700    8.180100   22.586200
  C    -49.635000    7.432240   22.498700
  H    -50.472400    7.420330   23.197900
  H    -49.904500    7.981750   21.588600
  C    -49.217100    5.989300   22.046000
  H    -50.031900    5.380070   21.634100
  H    -48.462600    6.141760   21.244900
  H    -48.764500    5.420470   22.799200
  S    -51.748000   13.739400   23.999100
  C    -52.677300   14.134400   25.430700
  C    -52.108400   13.497400   26.532400
  C    -50.955900   12.696400   26.161300
  C    -50.720500   12.624000   24.771200
  H    -52.425000   13.591100   27.483100
  C    -50.123900   11.961500   27.156500
  H    -49.612700   11.102100   26.709200
  H    -50.805700   11.575500   27.884400
  C    -48.955900   12.797300   27.714400
  H    -49.203400   13.768500   28.061200
  H    -48.280600   13.035600   26.889300
  C    -48.166800   12.011400   28.717500
  H    -47.170500   12.512600   28.726800
  H    -47.952100   11.027900   28.518300
  H    -48.647500   12.051000   29.694000
  H    -47.591000   10.641500   21.424900
  H    -53.474000   14.809400   25.474800

 Total Charge           Charge          ....    0
 Multiplicity           Mult            ....    1
 Number of Electrons    NEL             ....  134
 Basis Dimension        Dim             ....  322

ORBITAL ENERGIES
----------------

  NO   OCC          E(Eh)            E(eV)
   0   2.0000     -88.967059     -2420.9168
   1   2.0000     -88.963051     -2420.8077
   2   2.0000     -10.325102      -280.9603
   3   2.0000     -10.322630      -280.8931
   4   2.0000     -10.320231      -280.8278
   5   2.0000     -10.317417      -280.7512
   6   2.0000     -10.309408      -280.5333
   7   2.0000     -10.302405      -280.3427
   8   2.0000     -10.297858      -280.2190
   9   2.0000     -10.292419      -280.0710
  10   2.0000     -10.291703      -280.0515
  11   2.0000     -10.287757      -279.9441
  12   2.0000     -10.283283      -279.8224
  13   2.0000     -10.281711      -279.7796
  14   2.0000     -10.277270      -279.6587
  15   2.0000     -10.267782      -279.4005
  16   2.0000      -8.082917      -219.9473
  17   2.0000      -8.078720      -219.8331
  18   2.0000      -6.041380      -164.3943
  19   2.0000      -6.037245      -164.2818
  20   2.0000      -6.037108      -164.2781
  21   2.0000      -6.033810      -164.1883
  22   2.0000      -6.032832      -164.1617
  23   2.0000      -6.029673      -164.0757
  24   2.0000      -1.014799       -27.6141
  25   2.0000      -0.987017       -26.8581
  26   2.0000      -0.917047       -24.9541
  27   2.0000      -0.912442       -24.8288
  28   2.0000      -0.876845       -23.8602
  29   2.0000      -0.853827       -23.2338
  30   2.0000      -0.844654       -22.9842
  31   2.0000      -0.816751       -22.2249
  32   2.0000      -0.786020       -21.3887
  33   2.0000      -0.770311       -20.9612
  34   2.0000      -0.710587       -19.3361
  35   2.0000      -0.701146       -19.0791
  36   2.0000      -0.697609       -18.9829
  37   2.0000      -0.673213       -18.3191
  38   2.0000      -0.645110       -17.5543
  39   2.0000      -0.619318       -16.8525
  40   2.0000      -0.598809       -16.2944
  41   2.0000      -0.576291       -15.6817
  42   2.0000      -0.568512       -15.4700
  43   2.0000      -0.561376       -15.2758
  44   2.0000      -0.529316       -14.4034
  45   2.0000      -0.526256       -14.3201
  46   2.0000      -0.519496       -14.1362
  47   2.0000      -0.517871       -14.0920
  48   2.0000      -0.510237       -13.8843
  49   2.0000      -0.504661       -13.7325
  50   2.0000      -0.501597       -13.6491
  51   2.0000      -0.482679       -13.1344
  52   2.0000      -0.473672       -12.8893
  53   2.0000      -0.463163       -12.6033
  54   2.0000      -0.461243       -12.5510
  55   2.0000      -0.454395       -12.3647
  56   2.0000      -0.445339       -12.1183
  57   2.0000      -0.439749       -11.9662
  58   2.0000      -0.432008       -11.7555
  59   2.0000      -0.421878       -11.4799
  60   2.0000      -0.418154       -11.3786
  61   2.0000      -0.408198       -11.1076
  62   2.0000      -0.405200       -11.0260
  63   2.0000      -0.353965        -9.6319
  64   2.0000      -0.330612        -8.9964
  65   2.0000      -0.325582        -8.8595
  66   2.0000      -0.288653        -7.8546
  67   0.0000       0.029992         0.8161
  68   0.0000       0.073311         1.9949
  69   0.0000       0.114414         3.1134
  70   0.0000       0.116911         3.1813
  71   0.0000       0.137651         3.7457

MULLIKEN ATOMIC CHARGES
-----------------------
   0 S :    0.119834
   1 C :   -0.137570
   2 C :   -0.087325
   3 C :    0.030302
   4 C :   -0.145424
   5 H :    0.001294
   6 C :    0.039322
   7 H :    0.018290
   8 H :    0.022232
   9 C :   -0.054337
  10 H :    0.036885
  11 H :    0.032959
  12 C :   -0.039497
  13 H :    0.043751
  14 H :    0.029902
  15 H :    0.021863
  16 S :    0.101537
  17 C :   -0.063685
  18 C :    0.025799
  19 C :   -0.069278
  20 C :   -0.139119
  21 H :   -0.028999
  22 C :    0.070289
  23 H :    0.012349
  24 H :    0.015327
  25 C :   -0.058726
  26 H :    0.013692
  27 H :    0.022654
  28 C :   -0.008065
  29 H :    0.031063
  30 H :    0.007872
  31 H :    0.030921
  32 H :    0.063499
  33 H :    0.040391
Sum of atomic charges:    0.0000000

LOEWDIN ATOMIC CHARGES
----------------------
   0 S :    0.435278
   1 C :   -0.206620
   2 C :   -0.060645
   3 C :   -0.060399
   4 C :   -0.219069
   5 H :    0.021903
   6 C :   -0.045509
   7 H :    0.028749
   8 H :    0.036100
   9 C :   -0.044195
  10 H :    0.025854
  11 H :    0.030236
  12 C :   -0.060011
  13 H :    0.031137
  14 H :    0.029897
  15 H :    0.014531
  16 S :    0.428373
  17 C :   -0.173527
  18 C :   -0.051846
  19 C :   -0.052594
  20 C :   -0.217753
  21 H :    0.011014
  22 C :   -0.034920
  23 H :    0.031177
  24 H :    0.023998
  25 C :   -0.034524
  26 H :    0.017293
  27 H :    0.027306
  28 C :   -0.059033
  29 H :    0.034752
  30 H :    0.011102
  31 H :    0.025651
  32 H :    0.036829
  33 H :    0.019463

  Mayer bond orders larger than 0.100000
B(  0-S ,  1-C ) :   1.1528 B(  0-S ,  4-C ) :   1.1579 B(  1-C ,  2-C ) :   1.5883
B(  1-C , 32-H ) :   0.9658 B(  2-C ,  3-C ) :   1.2509 B(  2-C ,  6-C ) :   1.0249
B(  3-C ,  4-C ) :   1.5568 B(  3-C ,  5-H ) :   0.9956 B(  4-C , 20-C ) :   1.0602
B(  6-C ,  7-H ) :   0.9313 B(  6-C ,  8-H ) :   0.9422 B(  6-C ,  9-C ) :   1.0500
B(  9-C , 10-H ) :   0.9523 B(  9-C , 11-H ) :   0.9589 B(  9-C , 12-C ) :   1.0773
B( 12-C , 13-H ) :   0.9765 B( 12-C , 14-H ) :   0.9761 B( 12-C , 15-H ) :   0.9780
B( 16-S , 17-C ) :   1.1696 B( 16-S , 20-C ) :   1.1504 B( 17-C , 18-C ) :   1.5514
B( 17-C , 20-C ) :   0.1038 B( 17-C , 33-H ) :   0.9806 B( 18-C , 19-C ) :   1.2710
B( 18-C , 21-H ) :   1.0106 B( 19-C , 20-C ) :   1.5444 B( 19-C , 22-C ) :   1.0609
B( 22-C , 23-H ) :   0.9299 B( 22-C , 24-H ) :   0.9337 B( 22-C , 25-C ) :   1.0575
B( 25-C , 26-H ) :   0.9552 B( 25-C , 27-H ) :   0.9550 B( 25-C , 28-C ) :   1.0875
B( 28-C , 29-H ) :   0.9732 B( 28-C , 30-H ) :   0.9712 B( 28-C , 31-H ) :   0.9748

Dispersion correction           -0.013641470
FINAL SINGLE POINT ENERGY     -1339.866884150018

DIPOLE MOMENT
-------------
                                X             Y             Z
Electronic contribution:     -9.51668      22.19916     -11.52067
Nuclear contribution   :      9.61956     -22.68246      11.90342
                        -----------------------------------------
Total Dipole Moment    :      0.10288      -0.48330       0.38276
                        -----------------------------------------
Magnitude (a.u.)       :      0.62503
Magnitude (Debye)      :      1.58871

Rotational constants in cm-1:     0.018203     0.007839     0.006640
Rotational constants in MHz :   545.715875   234.992674   199.056634

                             ****ORCA TERMINATED NORMALLY****
TOTAL RUN TIME: 0 days 0 hours 0 minutes 21 seconds 124 msec
