                         Program Version 4.2.1 -  RELEASE  -
|  1> ! wB97X-D3 SP def2-SVP
|  2> %pal
|  3> nprocs 24
|  4> end
|  5>
|  6> * xyz 0 1
|  7> S 	 -105.907 	 42.887 	 -92.3085
|  8> C 	 -105.441 	 42.0535 	 -90.7942
|  9> C 	 -104.343 	 41.2391 	 -90.9906
| 10> C 	 -103.932 	 41.2325 	 -92.3442
| 11> C 	 -104.532 	 42.1553 	 -93.1427
| 12> H 	 -103.076 	 40.6559 	 -92.676
| 13> C 	 -103.596 	 40.3863 	 -89.9712
| 14> H 	 -103.322 	 39.5201 	 -90.6401
| 15> H 	 -104.342 	 40.2038 	 -89.1233
| 16> C 	 -102.329 	 41.0038 	 -89.4462
| 17> H 	 -101.591 	 41.0323 	 -90.2846
| 18> H 	 -102.509 	 42.0396 	 -89.1811
| 19> C 	 -101.574 	 40.2832 	 -88.2597
| 20> H 	 -100.873 	 40.9862 	 -87.845
| 21> H 	 -102.292 	 39.9225 	 -87.4639
| 22> H 	 -100.97 	 39.4074 	 -88.6708
| 23> S 	 -105.584 	 42.5204 	 -95.7093
| 24> C 	 -104.562 	 42.5278 	 -97.0741
| 25> C 	 -103.302 	 42.6236 	 -96.6852
| 26> C 	 -103.078 	 42.6347 	 -95.2222
| 27> C 	 -104.25 	 42.3645 	 -94.5893
| 28> H 	 -102.545 	 42.6878 	 -97.4574
| 29> C 	 -101.726 	 42.6878 	 -94.6958
| 30> H 	 -101.102 	 42.4355 	 -95.6009
| 31> H 	 -101.52 	 41.8965 	 -94.001
| 32> C 	 -101.277 	 44.0466 	 -94.2108
| 33> H 	 -102.113 	 44.3475 	 -93.5331
| 34> H 	 -101.337 	 44.7355 	 -95.0511
| 35> C 	 -99.9163 	 44.1833 	 -93.5894
| 36> H 	 -99.6914 	 45.2399 	 -93.1583
| 37> H 	 -99.144 	 44.0043 	 -94.3209
| 38> H 	 -99.8001 	 43.4627 	 -92.7607
| 39> H 	 -105.862 	 42.2819 	 -89.8517
| 40> H 	 -104.93 	 42.6734 	 -98.0797
| 41> *
| 42>
| 43>                          ****END OF INPUT****

CARTESIAN COORDINATES (ANGSTROEM)
---------------------------------
  S    -105.907000   42.887000  -92.308500
  C    -105.441000   42.053500  -90.794200
  C    -104.343000   41.239100  -90.990600
  C    -103.932000   41.232500  -92.344200
  C    -104.532000   42.155300  -93.142700
  H    -103.076000   40.655900  -92.676000
  C    -103.596000   40.386300  -89.971200
  H    -103.322000   39.520100  -90.640100
  H    -104.342000   40.203800  -89.123300
  C    -102.329000   41.003800  -89.446200
  H    -101.591000   41.032300  -90.284600
  H    -102.509000   42.039600  -89.181100
  C    -101.574000   40.283200  -88.259700
  H    -100.873000   40.986200  -87.845000
  H    -102.292000   39.922500  -87.463900
  H    -100.970000   39.407400  -88.670800
  S    -105.584000   42.520400  -95.709300
  C    -104.562000   42.527800  -97.074100
  C    -103.302000   42.623600  -96.685200
  C    -103.078000   42.634700  -95.222200
  C    -104.250000   42.364500  -94.589300
  H    -102.545000   42.687800  -97.457400
  C    -101.726000   42.687800  -94.695800
  H    -101.102000   42.435500  -95.600900
  H    -101.520000   41.896500  -94.001000
  C    -101.277000   44.046600  -94.210800
  H    -102.113000   44.347500  -93.533100
  H    -101.337000   44.735500  -95.051100
  C    -99.916300   44.183300  -93.589400
  H    -99.691400   45.239900  -93.158300
  H    -99.144000   44.004300  -94.320900
  H    -99.800100   43.462700  -92.760700
  H    -105.862000   42.281900  -89.851700
  H    -104.930000   42.673400  -98.079700

 Total Charge           Charge          ....    0
 Multiplicity           Mult            ....    1
 Number of Electrons    NEL             ....  134
 Basis Dimension        Dim             ....  322

ORBITAL ENERGIES
----------------

  NO   OCC          E(Eh)            E(eV)
   0   2.0000     -88.967556     -2420.9303
   1   2.0000     -88.957410     -2420.6542
   2   2.0000     -10.333010      -281.1755
   3   2.0000     -10.327445      -281.0241
   4   2.0000     -10.315566      -280.7008
   5   2.0000     -10.308389      -280.5055
   6   2.0000     -10.303522      -280.3731
   7   2.0000     -10.301255      -280.3114
   8   2.0000     -10.300823      -280.2996
   9   2.0000     -10.292112      -280.0626
  10   2.0000     -10.291930      -280.0577
  11   2.0000     -10.291022      -280.0329
  12   2.0000     -10.289306      -279.9863
  13   2.0000     -10.287446      -279.9356
  14   2.0000     -10.284977      -279.8684
  15   2.0000     -10.283308      -279.8230
  16   2.0000      -8.081439      -219.9071
  17   2.0000      -8.073820      -219.6998
  18   2.0000      -6.040142      -164.3606
  19   2.0000      -6.036100      -164.2506
  20   2.0000      -6.032435      -164.1509
  21   2.0000      -6.032004      -164.1392
  22   2.0000      -6.028165      -164.0347
  23   2.0000      -6.024288      -163.9292
  24   2.0000      -1.012171       -27.5426
  25   2.0000      -0.989080       -26.9142
  26   2.0000      -0.919436       -25.0191
  27   2.0000      -0.911720       -24.8092
  28   2.0000      -0.870804       -23.6958
  29   2.0000      -0.853587       -23.2273
  30   2.0000      -0.844880       -22.9904
  31   2.0000      -0.819547       -22.3010
  32   2.0000      -0.782792       -21.3008
  33   2.0000      -0.775535       -21.1034
  34   2.0000      -0.706755       -19.2318
  35   2.0000      -0.696247       -18.9458
  36   2.0000      -0.691995       -18.8301
  37   2.0000      -0.662471       -18.0268
  38   2.0000      -0.639863       -17.4115
  39   2.0000      -0.625887       -17.0313
  40   2.0000      -0.602133       -16.3849
  41   2.0000      -0.569613       -15.5000
  42   2.0000      -0.565984       -15.4012
  43   2.0000      -0.558154       -15.1881
  44   2.0000      -0.528320       -14.3763
  45   2.0000      -0.523884       -14.2556
  46   2.0000      -0.517344       -14.0776
  47   2.0000      -0.514872       -14.0104
  48   2.0000      -0.509460       -13.8631
  49   2.0000      -0.501348       -13.6424
  50   2.0000      -0.492761       -13.4087
  51   2.0000      -0.485152       -13.2017
  52   2.0000      -0.471464       -12.8292
  53   2.0000      -0.465620       -12.6702
  54   2.0000      -0.461682       -12.5630
  55   2.0000      -0.454736       -12.3740
  56   2.0000      -0.444674       -12.1002
  57   2.0000      -0.440686       -11.9917
  58   2.0000      -0.428607       -11.6630
  59   2.0000      -0.421932       -11.4814
  60   2.0000      -0.418598       -11.3906
  61   2.0000      -0.413468       -11.2510
  62   2.0000      -0.405119       -11.0239
  63   2.0000      -0.354685        -9.6515
  64   2.0000      -0.333207        -9.0670
  65   2.0000      -0.324467        -8.8292
  66   2.0000      -0.298273        -8.1164
  67   0.0000       0.031017         0.8440
  68   0.0000       0.075669         2.0591
  69   0.0000       0.102271         2.7829
  70   0.0000       0.121794         3.3142
  71   0.0000       0.124787         3.3956

MULLIKEN ATOMIC CHARGES
-----------------------
   0 S :    0.098820
   1 C :   -0.116423
   2 C :   -0.082147
   3 C :    0.008100
   4 C :   -0.122300
   5 H :    0.013406
   6 C :    0.056178
   7 H :    0.041539
   8 H :    0.038518
   9 C :   -0.090524
  10 H :    0.024633
  11 H :    0.029292
  12 C :   -0.063549
  13 H :    0.039418
  14 H :    0.044499
  15 H :    0.044588
  16 S :    0.085337
  17 C :   -0.068550
  18 C :   -0.037620
  19 C :   -0.042152
  20 C :   -0.146726
  21 H :    0.014228
  22 C :    0.068199
  23 H :    0.014882
  24 H :    0.012322
  25 C :   -0.079684
  26 H :    0.037333
  27 H :    0.020163
  28 C :   -0.038915
  29 H :    0.050266
  30 H :    0.027162
  31 H :    0.030415
  32 H :    0.032477
  33 H :    0.056818
Sum of atomic charges:    0.0000000

LOEWDIN ATOMIC CHARGES
----------------------
   0 S :    0.379172
   1 C :   -0.178614
   2 C :   -0.062351
   3 C :   -0.067181
   4 C :   -0.178540
   5 H :    0.029320
   6 C :   -0.036567
   7 H :    0.041089
   8 H :    0.038272
   9 C :   -0.049832
  10 H :    0.025980
  11 H :    0.021975
  12 C :   -0.070392
  13 H :    0.025308
  14 H :    0.029831
  15 H :    0.032456
  16 S :    0.403057
  17 C :   -0.191619
  18 C :   -0.073628
  19 C :   -0.057178
  20 C :   -0.187350
  21 H :    0.028872
  22 C :   -0.038496
  23 H :    0.035042
  24 H :    0.023836
  25 C :   -0.046937
  26 H :    0.029953
  27 H :    0.023966
  28 C :   -0.069750
  29 H :    0.040536
  30 H :    0.021799
  31 H :    0.024576
  32 H :    0.019328
  33 H :    0.034069

  Mayer bond orders larger than 0.100000
B(  0-S ,  1-C ) :   1.1205 B(  0-S ,  4-C ) :   1.1371 B(  1-C ,  2-C ) :   1.6277
B(  1-C , 32-H ) :   0.9731 B(  2-C ,  3-C ) :   1.2376 B(  2-C ,  6-C ) :   1.0119
B(  3-C ,  4-C ) :   1.6075 B(  3-C ,  5-H ) :   0.9835 B(  4-C , 20-C ) :   1.0289
B(  6-C ,  7-H ) :   0.9377 B(  6-C ,  8-H ) :   0.9369 B(  6-C ,  9-C ) :   1.0739
B(  9-C , 10-H ) :   0.9521 B(  9-C , 11-H ) :   0.9577 B(  9-C , 12-C ) :   1.0730
B( 12-C , 13-H ) :   0.9757 B( 12-C , 14-H ) :   0.9765 B( 12-C , 15-H ) :   0.9775
B( 16-S , 17-C ) :   1.1386 B( 16-S , 20-C ) :   1.1254 B( 17-C , 18-C ) :   1.6637
B( 17-C , 33-H ) :   0.9656 B( 18-C , 19-C ) :   1.1970 B( 18-C , 21-H ) :   0.9856
B( 19-C , 20-C ) :   1.6297 B( 19-C , 22-C ) :   1.0561 B( 22-C , 23-H ) :   0.9237
B( 22-C , 24-H ) :   0.9318 B( 22-C , 25-C ) :   1.0554 B( 25-C , 26-H ) :   0.9579
B( 25-C , 27-H ) :   0.9486 B( 25-C , 28-C ) :   1.0865 B( 28-C , 29-H ) :   0.9714
B( 28-C , 30-H ) :   0.9711 B( 28-C , 31-H ) :   0.9726

Dispersion correction           -0.013894070
FINAL SINGLE POINT ENERGY     -1339.876412986843

DIPOLE MOMENT
-------------
                                X             Y             Z
Electronic contribution:    -27.53054       2.81751     -15.91074
Nuclear contribution   :     28.27020      -2.88674      16.05888
                        -----------------------------------------
Total Dipole Moment    :      0.73965      -0.06923       0.14814
                        -----------------------------------------
Magnitude (a.u.)       :      0.75751
Magnitude (Debye)      :      1.92545

Rotational constants in cm-1:     0.017791     0.008918     0.006628
Rotational constants in MHz :   533.354977   267.364810   198.687869

                             ****ORCA TERMINATED NORMALLY****
TOTAL RUN TIME: 0 days 0 hours 0 minutes 21 seconds 600 msec
