                         Program Version 4.2.1 -  RELEASE  -
|  1> ! wB97X-D3 SP def2-SVP
|  2> %pal
|  3> nprocs 24
|  4> end
|  5>
|  6> * xyz 0 1
|  7> S 	 -125.694 	 19.9357 	 -20.1752
|  8> C 	 -124.62 	 20.6976 	 -18.9648
|  9> C 	 -124.069 	 21.8854 	 -19.4336
| 10> C 	 -124.258 	 22.0366 	 -20.8336
| 11> C 	 -125.131 	 21.0995 	 -21.4135
| 12> H 	 -123.917 	 22.8501 	 -21.4597
| 13> C 	 -123.226 	 22.8971 	 -18.6341
| 14> H 	 -122.334 	 23.2262 	 -19.2155
| 15> H 	 -122.814 	 22.2793 	 -17.8319
| 16> C 	 -123.998 	 24.1218 	 -18.1069
| 17> H 	 -124.457 	 24.631 	 -18.9977
| 18> H 	 -124.811 	 23.7507 	 -17.4378
| 19> C 	 -123.085 	 25.111 	 -17.2584
| 20> H 	 -123.179 	 24.8414 	 -16.2623
| 21> H 	 -122.004 	 25.0843 	 -17.4495
| 22> H 	 -123.404 	 26.1441 	 -17.3855
| 23> S 	 -127.241 	 21.8488 	 -22.9471
| 24> C 	 -127.178 	 21.565 	 -24.6613
| 25> C 	 -125.876 	 21.3403 	 -25.1001
| 26> C 	 -125.009 	 21.0638 	 -23.9443
| 27> C 	 -125.668 	 21.1388 	 -22.7635
| 28> H 	 -125.59 	 21.1725 	 -26.1116
| 29> C 	 -123.617 	 20.4886 	 -24.1534
| 30> H 	 -122.954 	 21.1394 	 -23.586
| 31> H 	 -123.312 	 20.7317 	 -25.1745
| 32> C 	 -123.558 	 18.9957 	 -24.0103
| 33> H 	 -124.393 	 18.5681 	 -24.4785
| 34> H 	 -123.724 	 18.7091 	 -22.9008
| 35> C 	 -122.315 	 18.4042 	 -24.6101
| 36> H 	 -122.165 	 17.3561 	 -24.5114
| 37> H 	 -121.52 	 18.8333 	 -23.9642
| 38> H 	 -122.141 	 18.6698 	 -25.6431
| 39> H 	 -124.572 	 20.3494 	 -17.9738
| 40> H 	 -128.068 	 21.5815 	 -25.1449
| 41> *
| 42>
| 43>                          ****END OF INPUT****

CARTESIAN COORDINATES (ANGSTROEM)
---------------------------------
  S    -125.694000   19.935700  -20.175200
  C    -124.620000   20.697600  -18.964800
  C    -124.069000   21.885400  -19.433600
  C    -124.258000   22.036600  -20.833600
  C    -125.131000   21.099500  -21.413500
  H    -123.917000   22.850100  -21.459700
  C    -123.226000   22.897100  -18.634100
  H    -122.334000   23.226200  -19.215500
  H    -122.814000   22.279300  -17.831900
  C    -123.998000   24.121800  -18.106900
  H    -124.457000   24.631000  -18.997700
  H    -124.811000   23.750700  -17.437800
  C    -123.085000   25.111000  -17.258400
  H    -123.179000   24.841400  -16.262300
  H    -122.004000   25.084300  -17.449500
  H    -123.404000   26.144100  -17.385500
  S    -127.241000   21.848800  -22.947100
  C    -127.178000   21.565000  -24.661300
  C    -125.876000   21.340300  -25.100100
  C    -125.009000   21.063800  -23.944300
  C    -125.668000   21.138800  -22.763500
  H    -125.590000   21.172500  -26.111600
  C    -123.617000   20.488600  -24.153400
  H    -122.954000   21.139400  -23.586000
  H    -123.312000   20.731700  -25.174500
  C    -123.558000   18.995700  -24.010300
  H    -124.393000   18.568100  -24.478500
  H    -123.724000   18.709100  -22.900800
  C    -122.315000   18.404200  -24.610100
  H    -122.165000   17.356100  -24.511400
  H    -121.520000   18.833300  -23.964200
  H    -122.141000   18.669800  -25.643100
  H    -124.572000   20.349400  -17.973800
  H    -128.068000   21.581500  -25.144900

 Total Charge           Charge          ....    0
 Multiplicity           Mult            ....    1
 Number of Electrons    NEL             ....  134
 Basis Dimension        Dim             ....  322

ORBITAL ENERGIES
----------------

  NO   OCC          E(Eh)            E(eV)
   0   2.0000     -88.967349     -2420.9246
   1   2.0000     -88.957856     -2420.6663
   2   2.0000     -10.330540      -281.1083
   3   2.0000     -10.316994      -280.7397
   4   2.0000     -10.316409      -280.7238
   5   2.0000     -10.312564      -280.6191
   6   2.0000     -10.304498      -280.3996
   7   2.0000     -10.300148      -280.2813
   8   2.0000     -10.298382      -280.2332
   9   2.0000     -10.297806      -280.2175
  10   2.0000     -10.297353      -280.2052
  11   2.0000     -10.295304      -280.1495
  12   2.0000     -10.286781      -279.9175
  13   2.0000     -10.280852      -279.7562
  14   2.0000     -10.278012      -279.6789
  15   2.0000     -10.271372      -279.4982
  16   2.0000      -8.080674      -219.8863
  17   2.0000      -8.073958      -219.7036
  18   2.0000      -6.039209      -164.3352
  19   2.0000      -6.035401      -164.2316
  20   2.0000      -6.032390      -164.1497
  21   2.0000      -6.031482      -164.1250
  22   2.0000      -6.028482      -164.0433
  23   2.0000      -6.024502      -163.9350
  24   2.0000      -1.004402       -27.3312
  25   2.0000      -0.977826       -26.6080
  26   2.0000      -0.914085       -24.8735
  27   2.0000      -0.902656       -24.5625
  28   2.0000      -0.866580       -23.5808
  29   2.0000      -0.850626       -23.1467
  30   2.0000      -0.843051       -22.9406
  31   2.0000      -0.810310       -22.0497
  32   2.0000      -0.782204       -21.2849
  33   2.0000      -0.772667       -21.0253
  34   2.0000      -0.704967       -19.1831
  35   2.0000      -0.698664       -19.0116
  36   2.0000      -0.694878       -18.9086
  37   2.0000      -0.672220       -18.2920
  38   2.0000      -0.644036       -17.5251
  39   2.0000      -0.612157       -16.6576
  40   2.0000      -0.598873       -16.2962
  41   2.0000      -0.566858       -15.4250
  42   2.0000      -0.563854       -15.3433
  43   2.0000      -0.553990       -15.0748
  44   2.0000      -0.530209       -14.4277
  45   2.0000      -0.521588       -14.1931
  46   2.0000      -0.519631       -14.1399
  47   2.0000      -0.511644       -13.9225
  48   2.0000      -0.504766       -13.7354
  49   2.0000      -0.501928       -13.6581
  50   2.0000      -0.492926       -13.4132
  51   2.0000      -0.475031       -12.9262
  52   2.0000      -0.469497       -12.7757
  53   2.0000      -0.460443       -12.5293
  54   2.0000      -0.458709       -12.4821
  55   2.0000      -0.452232       -12.3059
  56   2.0000      -0.441752       -12.0207
  57   2.0000      -0.437077       -11.8935
  58   2.0000      -0.430949       -11.7267
  59   2.0000      -0.422692       -11.5020
  60   2.0000      -0.420123       -11.4321
  61   2.0000      -0.418941       -11.4000
  62   2.0000      -0.403437       -10.9781
  63   2.0000      -0.336454        -9.1554
  64   2.0000      -0.327083        -8.9004
  65   2.0000      -0.324064        -8.8182
  66   2.0000      -0.303002        -8.2451
  67   0.0000       0.032601         0.8871
  68   0.0000       0.059895         1.6298
  69   0.0000       0.107949         2.9374
  70   0.0000       0.113974         3.1014
  71   0.0000       0.126051         3.4300

MULLIKEN ATOMIC CHARGES
-----------------------
   0 S :    0.101818
   1 C :   -0.104328
   2 C :   -0.082533
   3 C :    0.054850
   4 C :   -0.190703
   5 H :    0.015733
   6 C :    0.038324
   7 H :    0.035534
   8 H :    0.019471
   9 C :   -0.093965
  10 H :    0.042910
  11 H :    0.041942
  12 C :   -0.028553
  13 H :    0.021330
  14 H :    0.030941
  15 H :    0.038844
  16 S :    0.098747
  17 C :   -0.060874
  18 C :    0.007268
  19 C :   -0.087863
  20 C :   -0.151278
  21 H :    0.013516
  22 C :    0.105701
  23 H :    0.018871
  24 H :   -0.005201
  25 C :   -0.043373
  26 H :    0.012368
  27 H :    0.041996
  28 C :   -0.032581
  29 H :    0.027336
  30 H :    0.025056
  31 H :    0.030248
  32 H :    0.033526
  33 H :    0.024920
Sum of atomic charges:    0.0000000

LOEWDIN ATOMIC CHARGES
----------------------
   0 S :    0.377705
   1 C :   -0.175634
   2 C :   -0.061917
   3 C :   -0.055279
   4 C :   -0.187171
   5 H :    0.031833
   6 C :   -0.036689
   7 H :    0.032686
   8 H :    0.027847
   9 C :   -0.039725
  10 H :    0.028607
  11 H :    0.030316
  12 C :   -0.064530
  13 H :    0.017361
  14 H :    0.026892
  15 H :    0.029355
  16 S :    0.406884
  17 C :   -0.156695
  18 C :   -0.060438
  19 C :   -0.050515
  20 C :   -0.214734
  21 H :    0.026088
  22 C :   -0.030830
  23 H :    0.029498
  24 H :    0.025760
  25 C :   -0.041321
  26 H :    0.016198
  27 H :    0.036192
  28 C :   -0.064890
  29 H :    0.022265
  30 H :    0.031603
  31 H :    0.022829
  32 H :    0.016790
  33 H :    0.003660

  Mayer bond orders larger than 0.100000
B(  0-S ,  1-C ) :   1.1366 B(  0-S ,  4-C ) :   1.1358 B(  1-C ,  2-C ) :   1.6113
B(  1-C ,  4-C ) :   0.1061 B(  1-C , 32-H ) :   0.9748 B(  2-C ,  3-C ) :   1.2372
B(  2-C ,  6-C ) :   1.0134 B(  3-C ,  4-C ) :   1.5901 B(  3-C ,  5-H ) :   0.9897
B(  4-C , 20-C ) :   1.0233 B(  6-C ,  7-H ) :   0.9460 B(  6-C ,  8-H ) :   0.9434
B(  6-C ,  9-C ) :   1.0567 B(  9-C , 10-H ) :   0.9630 B(  9-C , 11-H ) :   0.9606
B(  9-C , 12-C ) :   1.0551 B( 12-C , 13-H ) :   0.9789 B( 12-C , 14-H ) :   0.9789
B( 12-C , 15-H ) :   0.9788 B( 16-S , 17-C ) :   1.1636 B( 16-S , 20-C ) :   1.1386
B( 17-C , 18-C ) :   1.5922 B( 17-C , 33-H ) :   0.9892 B( 18-C , 19-C ) :   1.2125
B( 18-C , 21-H ) :   0.9972 B( 19-C , 20-C ) :   1.6401 B( 19-C , 22-C ) :   1.0508
B( 22-C , 23-H ) :   0.9170 B( 22-C , 24-H ) :   0.9303 B( 22-C , 25-C ) :   1.0604
B( 25-C , 26-H ) :   0.9514 B( 25-C , 27-H ) :   0.9471 B( 25-C , 28-C ) :   1.0869
B( 28-C , 29-H ) :   0.9732 B( 28-C , 30-H ) :   0.9727 B( 28-C , 31-H ) :   0.9738

Dispersion correction           -0.014135778
FINAL SINGLE POINT ENERGY     -1339.864108890736

DIPOLE MOMENT
-------------
                                X             Y             Z
Electronic contribution:    -20.64954      -5.09053      -3.90929
Nuclear contribution   :     21.08305       5.31880       3.87882
                        -----------------------------------------
Total Dipole Moment    :      0.43351       0.22828      -0.03048
                        -----------------------------------------
Magnitude (a.u.)       :      0.49089
Magnitude (Debye)      :      1.24773

Rotational constants in cm-1:     0.018928     0.007598     0.006736
Rotational constants in MHz :   567.453076   227.775076   201.930353

                             ****ORCA TERMINATED NORMALLY****
TOTAL RUN TIME: 0 days 0 hours 0 minutes 21 seconds 72 msec
