                         Program Version 4.2.1 -  RELEASE  -
|  1> ! wB97X-D3 SP def2-SVP
|  2> %pal
|  3> nprocs 24
|  4> end
|  5>
|  6> * xyz 0 1
|  7> S 	 -25.9755 	 17.0051 	 8.08817
|  8> C 	 -27.2559 	 15.8983 	 7.53928
|  9> C 	 -28.4659 	 16.5597 	 7.60373
| 10> C 	 -28.406 	 17.8305 	 8.20584
| 11> C 	 -27.1246 	 18.2041 	 8.58066
| 12> H 	 -29.2438 	 18.3891 	 8.49288
| 13> C 	 -29.8091 	 15.9513 	 7.35023
| 14> H 	 -29.8159 	 15.3165 	 6.4294
| 15> H 	 -30.4133 	 16.7613 	 7.12506
| 16> C 	 -30.5556 	 15.4967 	 8.54512
| 17> H 	 -30.1421 	 14.6405 	 9.10969
| 18> H 	 -30.6199 	 16.3964 	 9.26741
| 19> C 	 -32.0215 	 15.0931 	 8.18993
| 20> H 	 -32.6932 	 15.9457 	 7.92347
| 21> H 	 -32.0152 	 14.2583 	 7.45146
| 22> H 	 -32.5767 	 14.5394 	 8.91326
| 23> S 	 -25.4251 	 18.9405 	 10.7068
| 24> C 	 -25.6632 	 20.5793 	 11.3007
| 25> C 	 -26.5743 	 21.3379 	 10.5866
| 26> C 	 -27.1649 	 20.6081 	 9.52163
| 27> C 	 -26.7262 	 19.285 	 9.48294
| 28> H 	 -26.5274 	 22.4369 	 10.7749
| 29> C 	 -28.0233 	 21.2256 	 8.4742
| 30> H 	 -28.7183 	 21.8284 	 9.15581
| 31> H 	 -28.548 	 20.5943 	 7.84097
| 32> C 	 -27.2212 	 22.1027 	 7.51044
| 33> H 	 -26.4177 	 21.6509 	 7.0538
| 34> H 	 -26.618 	 22.8704 	 8.101
| 35> C 	 -28.1931 	 22.8703 	 6.5251
| 36> H 	 -28.6122 	 22.0929 	 5.84306
| 37> H 	 -27.6862 	 23.6089 	 5.87404
| 38> H 	 -29.0584 	 23.3577 	 6.9735
| 39> H 	 -27.0885 	 14.961 	 7.16296
| 40> H 	 -25.0793 	 21.0649 	 12.0519
| 41> *
| 42>
| 43>                          ****END OF INPUT****

CARTESIAN COORDINATES (ANGSTROEM)
---------------------------------
  S    -25.975500   17.005100    8.088170
  C    -27.255900   15.898300    7.539280
  C    -28.465900   16.559700    7.603730
  C    -28.406000   17.830500    8.205840
  C    -27.124600   18.204100    8.580660
  H    -29.243800   18.389100    8.492880
  C    -29.809100   15.951300    7.350230
  H    -29.815900   15.316500    6.429400
  H    -30.413300   16.761300    7.125060
  C    -30.555600   15.496700    8.545120
  H    -30.142100   14.640500    9.109690
  H    -30.619900   16.396400    9.267410
  C    -32.021500   15.093100    8.189930
  H    -32.693200   15.945700    7.923470
  H    -32.015200   14.258300    7.451460
  H    -32.576700   14.539400    8.913260
  S    -25.425100   18.940500   10.706800
  C    -25.663200   20.579300   11.300700
  C    -26.574300   21.337900   10.586600
  C    -27.164900   20.608100    9.521630
  C    -26.726200   19.285000    9.482940
  H    -26.527400   22.436900   10.774900
  C    -28.023300   21.225600    8.474200
  H    -28.718300   21.828400    9.155810
  H    -28.548000   20.594300    7.840970
  C    -27.221200   22.102700    7.510440
  H    -26.417700   21.650900    7.053800
  H    -26.618000   22.870400    8.101000
  C    -28.193100   22.870300    6.525100
  H    -28.612200   22.092900    5.843060
  H    -27.686200   23.608900    5.874040
  H    -29.058400   23.357700    6.973500
  H    -27.088500   14.961000    7.162960
  H    -25.079300   21.064900   12.051900

 Total Charge           Charge          ....    0
 Multiplicity           Mult            ....    1
 Number of Electrons    NEL             ....  134
 Basis Dimension        Dim             ....  322

ORBITAL ENERGIES
----------------

  NO   OCC          E(Eh)            E(eV)
   0   2.0000     -88.970239     -2421.0033
   1   2.0000     -88.964414     -2420.8448
   2   2.0000     -10.330979      -281.1202
   3   2.0000     -10.329337      -281.0755
   4   2.0000     -10.317473      -280.7527
   5   2.0000     -10.308518      -280.5090
   6   2.0000     -10.305331      -280.4223
   7   2.0000     -10.297560      -280.2109
   8   2.0000     -10.296904      -280.1930
   9   2.0000     -10.295727      -280.1610
  10   2.0000     -10.292389      -280.0701
  11   2.0000     -10.288491      -279.9641
  12   2.0000     -10.287032      -279.9244
  13   2.0000     -10.285484      -279.8822
  14   2.0000     -10.283426      -279.8262
  15   2.0000     -10.282099      -279.7901
  16   2.0000      -8.083535      -219.9642
  17   2.0000      -8.079123      -219.8441
  18   2.0000      -6.042068      -164.4130
  19   2.0000      -6.038465      -164.3150
  20   2.0000      -6.037673      -164.2934
  21   2.0000      -6.034126      -164.1969
  22   2.0000      -6.033565      -164.1817
  23   2.0000      -6.029916      -164.0824
  24   2.0000      -1.005281       -27.3551
  25   2.0000      -0.982273       -26.7290
  26   2.0000      -0.920764       -25.0553
  27   2.0000      -0.910811       -24.7844
  28   2.0000      -0.867253       -23.5991
  29   2.0000      -0.851095       -23.1595
  30   2.0000      -0.843703       -22.9583
  31   2.0000      -0.813660       -22.1408
  32   2.0000      -0.784313       -21.3422
  33   2.0000      -0.772666       -21.0253
  34   2.0000      -0.711784       -19.3686
  35   2.0000      -0.702469       -19.1152
  36   2.0000      -0.698591       -19.0096
  37   2.0000      -0.659070       -17.9342
  38   2.0000      -0.646040       -17.5796
  39   2.0000      -0.625395       -17.0179
  40   2.0000      -0.602931       -16.4066
  41   2.0000      -0.576203       -15.6793
  42   2.0000      -0.562941       -15.3184
  43   2.0000      -0.552377       -15.0309
  44   2.0000      -0.525598       -14.3023
  45   2.0000      -0.518986       -14.1223
  46   2.0000      -0.516200       -14.0465
  47   2.0000      -0.512497       -13.9458
  48   2.0000      -0.508112       -13.8264
  49   2.0000      -0.497097       -13.5267
  50   2.0000      -0.493323       -13.4240
  51   2.0000      -0.476123       -12.9560
  52   2.0000      -0.474675       -12.9166
  53   2.0000      -0.466500       -12.6941
  54   2.0000      -0.458738       -12.4829
  55   2.0000      -0.455123       -12.3845
  56   2.0000      -0.447383       -12.1739
  57   2.0000      -0.444300       -12.0900
  58   2.0000      -0.427747       -11.6396
  59   2.0000      -0.420653       -11.4465
  60   2.0000      -0.418727       -11.3941
  61   2.0000      -0.411215       -11.1897
  62   2.0000      -0.408945       -11.1280
  63   2.0000      -0.351598        -9.5675
  64   2.0000      -0.334304        -9.0969
  65   2.0000      -0.331640        -9.0244
  66   2.0000      -0.283415        -7.7121
  67   0.0000       0.020534         0.5588
  68   0.0000       0.071391         1.9426
  69   0.0000       0.104202         2.8355
  70   0.0000       0.120555         3.2805
  71   0.0000       0.135304         3.6818

MULLIKEN ATOMIC CHARGES
-----------------------
   0 S :    0.091297
   1 C :   -0.096846
   2 C :   -0.058624
   3 C :    0.021356
   4 C :   -0.139194
   5 H :   -0.001429
   6 C :    0.106698
   7 H :    0.033575
   8 H :   -0.009636
   9 C :   -0.091133
  10 H :    0.035360
  11 H :    0.042141
  12 C :   -0.068819
  13 H :    0.045036
  14 H :    0.025938
  15 H :    0.019059
  16 S :    0.108994
  17 C :   -0.079373
  18 C :   -0.063322
  19 C :   -0.031366
  20 C :   -0.143288
  21 H :    0.042627
  22 C :    0.088522
  23 H :    0.043147
  24 H :   -0.000045
  25 C :   -0.061062
  26 H :    0.017763
  27 H :    0.017141
  28 C :   -0.061704
  29 H :    0.033044
  30 H :    0.042137
  31 H :    0.035084
  32 H :    0.011919
  33 H :    0.045004
Sum of atomic charges:    0.0000000

LOEWDIN ATOMIC CHARGES
----------------------
   0 S :    0.397339
   1 C :   -0.174637
   2 C :   -0.056691
   3 C :   -0.063608
   4 C :   -0.187884
   5 H :    0.021339
   6 C :   -0.040193
   7 H :    0.035004
   8 H :    0.025374
   9 C :   -0.038762
  10 H :    0.023662
  11 H :    0.034344
  12 C :   -0.079333
  13 H :    0.029373
  14 H :    0.029373
  15 H :    0.022489
  16 S :    0.374177
  17 C :   -0.173199
  18 C :   -0.079507
  19 C :   -0.053086
  20 C :   -0.179157
  21 H :    0.043352
  22 C :   -0.026348
  23 H :    0.044649
  24 H :    0.017333
  25 C :   -0.032212
  26 H :    0.016528
  27 H :    0.025333
  28 C :   -0.070723
  29 H :    0.027825
  30 H :    0.028907
  31 H :    0.024918
  32 H :    0.009951
  33 H :    0.024069

  Mayer bond orders larger than 0.100000
B(  0-S ,  1-C ) :   1.1207 B(  0-S ,  4-C ) :   1.1604 B(  1-C ,  2-C ) :   1.5886
B(  1-C , 32-H ) :   0.9896 B(  2-C ,  3-C ) :   1.2508 B(  2-C ,  6-C ) :   1.0438
B(  3-C ,  4-C ) :   1.5456 B(  3-C ,  5-H ) :   0.9958 B(  4-C , 20-C ) :   1.0653
B(  6-C ,  7-H ) :   0.9393 B(  6-C ,  8-H ) :   0.9207 B(  6-C ,  9-C ) :   1.0504
B(  9-C , 10-H ) :   0.9565 B(  9-C , 11-H ) :   0.9529 B(  9-C , 12-C ) :   1.0762
B( 12-C , 13-H ) :   0.9757 B( 12-C , 14-H ) :   0.9709 B( 12-C , 15-H ) :   0.9727
B( 16-S , 17-C ) :   1.1438 B( 16-S , 20-C ) :   1.1100 B( 17-C , 18-C ) :   1.6496
B( 17-C , 33-H ) :   0.9633 B( 18-C , 19-C ) :   1.2204 B( 18-C , 21-H ) :   0.9775
B( 19-C , 20-C ) :   1.6021 B( 19-C , 22-C ) :   1.0432 B( 22-C , 23-H ) :   0.9325
B( 22-C , 24-H ) :   0.9351 B( 22-C , 25-C ) :   1.0515 B( 25-C , 26-H ) :   0.9572
B( 25-C , 27-H ) :   0.9551 B( 25-C , 28-C ) :   1.0656 B( 28-C , 29-H ) :   0.9756
B( 28-C , 30-H ) :   0.9766 B( 28-C , 31-H ) :   0.9778

Dispersion correction           -0.013684676
FINAL SINGLE POINT ENERGY     -1339.851474764169

DIPOLE MOMENT
-------------
                                X             Y             Z
Electronic contribution:     24.14515      -5.48604      10.61330
Nuclear contribution   :    -24.62866       5.75324     -10.74495
                        -----------------------------------------
Total Dipole Moment    :     -0.48351       0.26720      -0.13165
                        -----------------------------------------
Magnitude (a.u.)       :      0.56790
Magnitude (Debye)      :      1.44349

Rotational constants in cm-1:     0.017270     0.008238     0.006805
Rotational constants in MHz :   517.739252   246.956990   203.993782

                             ****ORCA TERMINATED NORMALLY****
TOTAL RUN TIME: 0 days 0 hours 0 minutes 20 seconds 244 msec
