                         Program Version 4.2.1 -  RELEASE  -
|  1> ! wB97X-D3 SP def2-SVP
|  2> %pal
|  3> nprocs 24
|  4> end
|  5>
|  6> * xyz 0 1
|  7> S 	 27.5937 	 -28.1458 	 -128.351
|  8> C 	 25.9116 	 -28.3015 	 -127.846
|  9> C 	 25.2559 	 -29.0736 	 -128.781
| 10> C 	 26.1176 	 -29.7194 	 -129.694
| 11> C 	 27.432 	 -29.4625 	 -129.48
| 12> H 	 25.711 	 -30.3843 	 -130.499
| 13> C 	 23.7717 	 -29.3148 	 -128.736
| 14> H 	 23.3747 	 -29.2861 	 -129.733
| 15> H 	 23.3657 	 -28.4448 	 -128.216
| 16> C 	 23.1418 	 -30.4341 	 -127.92
| 17> H 	 23.5646 	 -31.3642 	 -128.261
| 18> H 	 23.5392 	 -30.2535 	 -126.908
| 19> C 	 21.6765 	 -30.5623 	 -128.07
| 20> H 	 21.4346 	 -31.0739 	 -128.996
| 21> H 	 21.2169 	 -31.2151 	 -127.324
| 22> H 	 21.1317 	 -29.6382 	 -128.144
| 23> S 	 29.4021 	 -28.8216 	 -131.438
| 24> C 	 30.2881 	 -30.1805 	 -132.131
| 25> C 	 29.8058 	 -31.4177 	 -131.669
| 26> C 	 28.7139 	 -31.253 	 -130.75
| 27> C 	 28.4685 	 -29.9148 	 -130.409
| 28> H 	 30.1441 	 -32.3456 	 -131.953
| 29> C 	 28.0232 	 -32.5289 	 -130.186
| 30> H 	 27.4609 	 -33.1373 	 -130.93
| 31> H 	 27.2256 	 -32.2638 	 -129.449
| 32> C 	 28.9963 	 -33.4662 	 -129.416
| 33> H 	 29.2531 	 -32.9865 	 -128.442
| 34> H 	 29.9995 	 -33.5053 	 -129.853
| 35> C 	 28.3942 	 -34.768 	 -128.909
| 36> H 	 28.9493 	 -35.1451 	 -128.077
| 37> H 	 28.3583 	 -35.4162 	 -129.82
| 38> H 	 27.3263 	 -34.5634 	 -128.577
| 39> H 	 25.4748 	 -27.7629 	 -127.07
| 40> H 	 31.1709 	 -30.0457 	 -132.739
| 41> *
| 42>
| 43>                          ****END OF INPUT****

CARTESIAN COORDINATES (ANGSTROEM)
---------------------------------
  S     27.593700  -28.145800  -128.351000
  C     25.911600  -28.301500  -127.846000
  C     25.255900  -29.073600  -128.781000
  C     26.117600  -29.719400  -129.694000
  C     27.432000  -29.462500  -129.480000
  H     25.711000  -30.384300  -130.499000
  C     23.771700  -29.314800  -128.736000
  H     23.374700  -29.286100  -129.733000
  H     23.365700  -28.444800  -128.216000
  C     23.141800  -30.434100  -127.920000
  H     23.564600  -31.364200  -128.261000
  H     23.539200  -30.253500  -126.908000
  C     21.676500  -30.562300  -128.070000
  H     21.434600  -31.073900  -128.996000
  H     21.216900  -31.215100  -127.324000
  H     21.131700  -29.638200  -128.144000
  S     29.402100  -28.821600  -131.438000
  C     30.288100  -30.180500  -132.131000
  C     29.805800  -31.417700  -131.669000
  C     28.713900  -31.253000  -130.750000
  C     28.468500  -29.914800  -130.409000
  H     30.144100  -32.345600  -131.953000
  C     28.023200  -32.528900  -130.186000
  H     27.460900  -33.137300  -130.930000
  H     27.225600  -32.263800  -129.449000
  C     28.996300  -33.466200  -129.416000
  H     29.253100  -32.986500  -128.442000
  H     29.999500  -33.505300  -129.853000
  C     28.394200  -34.768000  -128.909000
  H     28.949300  -35.145100  -128.077000
  H     28.358300  -35.416200  -129.820000
  H     27.326300  -34.563400  -128.577000
  H     25.474800  -27.762900  -127.070000
  H     31.170900  -30.045700  -132.739000

 Total Charge           Charge          ....    0
 Multiplicity           Mult            ....    1
 Number of Electrons    NEL             ....  134
 Basis Dimension        Dim             ....  322

ORBITAL ENERGIES
----------------

  NO   OCC          E(Eh)            E(eV)
   0   2.0000     -88.969318     -2420.9782
   1   2.0000     -88.966621     -2420.9048
   2   2.0000     -10.330084      -281.0959
   3   2.0000     -10.327309      -281.0204
   4   2.0000     -10.321429      -280.8603
   5   2.0000     -10.313165      -280.6355
   6   2.0000     -10.306461      -280.4531
   7   2.0000     -10.299714      -280.2695
   8   2.0000     -10.298524      -280.2371
   9   2.0000     -10.293712      -280.1062
  10   2.0000     -10.292834      -280.0822
  11   2.0000     -10.285511      -279.8830
  12   2.0000     -10.283953      -279.8406
  13   2.0000     -10.283450      -279.8269
  14   2.0000     -10.283051      -279.8160
  15   2.0000     -10.275999      -279.6241
  16   2.0000      -8.083290      -219.9575
  17   2.0000      -8.081364      -219.9051
  18   2.0000      -6.041855      -164.4072
  19   2.0000      -6.039882      -164.3535
  20   2.0000      -6.037938      -164.3006
  21   2.0000      -6.035974      -164.2472
  22   2.0000      -6.034011      -164.1938
  23   2.0000      -6.032002      -164.1391
  24   2.0000      -1.008617       -27.4459
  25   2.0000      -0.981840       -26.7172
  26   2.0000      -0.919286       -25.0150
  27   2.0000      -0.902630       -24.5618
  28   2.0000      -0.872665       -23.7464
  29   2.0000      -0.853975       -23.2378
  30   2.0000      -0.847539       -23.0627
  31   2.0000      -0.814564       -22.1654
  32   2.0000      -0.783156       -21.3108
  33   2.0000      -0.769959       -20.9517
  34   2.0000      -0.703321       -19.1383
  35   2.0000      -0.703042       -19.1307
  36   2.0000      -0.691184       -18.8081
  37   2.0000      -0.662442       -18.0260
  38   2.0000      -0.643142       -17.5008
  39   2.0000      -0.623181       -16.9576
  40   2.0000      -0.599806       -16.3216
  41   2.0000      -0.573757       -15.6127
  42   2.0000      -0.566884       -15.4257
  43   2.0000      -0.556672       -15.1478
  44   2.0000      -0.529350       -14.4043
  45   2.0000      -0.526582       -14.3290
  46   2.0000      -0.521649       -14.1948
  47   2.0000      -0.511495       -13.9185
  48   2.0000      -0.506720       -13.7886
  49   2.0000      -0.496877       -13.5207
  50   2.0000      -0.495717       -13.4892
  51   2.0000      -0.482993       -13.1429
  52   2.0000      -0.468418       -12.7463
  53   2.0000      -0.466493       -12.6939
  54   2.0000      -0.460796       -12.5389
  55   2.0000      -0.456279       -12.4160
  56   2.0000      -0.445631       -12.1262
  57   2.0000      -0.434084       -11.8120
  58   2.0000      -0.432289       -11.7632
  59   2.0000      -0.427492       -11.6326
  60   2.0000      -0.420750       -11.4492
  61   2.0000      -0.412272       -11.2185
  62   2.0000      -0.396184       -10.7807
  63   2.0000      -0.345890        -9.4121
  64   2.0000      -0.331432        -9.0187
  65   2.0000      -0.328638        -8.9427
  66   2.0000      -0.294012        -8.0005
  67   0.0000       0.027818         0.7570
  68   0.0000       0.064540         1.7562
  69   0.0000       0.108644         2.9564
  70   0.0000       0.115224         3.1354
  71   0.0000       0.130653         3.5553

MULLIKEN ATOMIC CHARGES
-----------------------
   0 S :    0.104413
   1 C :   -0.097098
   2 C :   -0.081821
   3 C :    0.022120
   4 C :   -0.150571
   5 H :    0.036827
   6 C :    0.033143
   7 H :    0.016830
   8 H :    0.008197
   9 C :   -0.023946
  10 H :    0.011671
  11 H :    0.022509
  12 C :   -0.025565
  13 H :    0.020508
  14 H :    0.036896
  15 H :    0.022659
  16 S :    0.112332
  17 C :   -0.102014
  18 C :    0.020552
  19 C :   -0.046111
  20 C :   -0.137681
  21 H :   -0.011146
  22 C :    0.047208
  23 H :    0.036547
  24 H :    0.030794
  25 C :   -0.125919
  26 H :    0.025011
  27 H :    0.029162
  28 C :   -0.043633
  29 H :    0.043564
  30 H :    0.038444
  31 H :    0.035596
  32 H :    0.026821
  33 H :    0.063701
Sum of atomic charges:    0.0000000

LOEWDIN ATOMIC CHARGES
----------------------
   0 S :    0.404090
   1 C :   -0.175709
   2 C :   -0.064410
   3 C :   -0.060526
   4 C :   -0.196917
   5 H :    0.042440
   6 C :   -0.036415
   7 H :    0.024925
   8 H :    0.029043
   9 C :   -0.040468
  10 H :    0.019087
  11 H :    0.024498
  12 C :   -0.065008
  13 H :    0.028139
  14 H :    0.032425
  15 H :    0.021545
  16 S :    0.395770
  17 C :   -0.180247
  18 C :   -0.053484
  19 C :   -0.052231
  20 C :   -0.193923
  21 H :    0.016564
  22 C :   -0.037648
  23 H :    0.030271
  24 H :    0.032340
  25 C :   -0.057126
  26 H :    0.028282
  27 H :    0.019919
  28 C :   -0.065426
  29 H :    0.025343
  30 H :    0.027137
  31 H :    0.032815
  32 H :    0.016851
  33 H :    0.028054

  Mayer bond orders larger than 0.100000
B(  0-S ,  1-C ) :   1.1351 B(  0-S ,  4-C ) :   1.1507 B(  1-C ,  2-C ) :   1.5845
B(  1-C , 32-H ) :   0.9838 B(  2-C ,  3-C ) :   1.2610 B(  2-C ,  6-C ) :   1.0379
B(  3-C ,  4-C ) :   1.5454 B(  3-C ,  5-H ) :   0.9899 B(  4-C , 20-C ) :   1.0426
B(  6-C ,  7-H ) :   0.9388 B(  6-C ,  8-H ) :   0.9331 B(  6-C ,  9-C ) :   1.0653
B(  9-C , 10-H ) :   0.9516 B(  9-C , 11-H ) :   0.9534 B(  9-C , 12-C ) :   1.0848
B( 12-C , 13-H ) :   0.9683 B( 12-C , 14-H ) :   0.9696 B( 12-C , 15-H ) :   0.9749
B( 16-S , 17-C ) :   1.1529 B( 16-S , 20-C ) :   1.1371 B( 17-C , 18-C ) :   1.5859
B( 17-C , 33-H ) :   0.9691 B( 18-C , 19-C ) :   1.2546 B( 18-C , 21-H ) :   1.0012
B( 19-C , 20-C ) :   1.6016 B( 19-C , 22-C ) :   1.0338 B( 22-C , 23-H ) :   0.9465
B( 22-C , 24-H ) :   0.9311 B( 22-C , 25-C ) :   1.0500 B( 25-C , 26-H ) :   0.9549
B( 25-C , 27-H ) :   0.9620 B( 25-C , 28-C ) :   1.0702 B( 28-C , 29-H ) :   0.9769
B( 28-C , 30-H ) :   0.9760 B( 28-C , 31-H ) :   0.9706

Dispersion correction           -0.013547295
FINAL SINGLE POINT ENERGY     -1339.867142992843

DIPOLE MOMENT
-------------
                                X             Y             Z
Electronic contribution:     19.50917      22.85929      -7.75039
Nuclear contribution   :    -19.98216     -23.32539       7.75802
                        -----------------------------------------
Total Dipole Moment    :     -0.47299      -0.46610       0.00763
                        -----------------------------------------
Magnitude (a.u.)       :      0.66410
Magnitude (Debye)      :      1.68800

Rotational constants in cm-1:     0.016670     0.008481     0.006382
Rotational constants in MHz :   499.763433   254.256449   191.317897

                             ****ORCA TERMINATED NORMALLY****
TOTAL RUN TIME: 0 days 0 hours 0 minutes 20 seconds 58 msec
