                         Program Version 4.2.1 -  RELEASE  -
|  1> ! wB97X-D3 SP def2-SVP
|  2> %pal
|  3> nprocs 24
|  4> end
|  5>
|  6> * xyz 0 1
|  7> S 	 -93.2092 	 -6.4002 	 -120.7
|  8> C 	 -94.708 	 -6.53402 	 -121.58
|  9> C 	 -95.7847 	 -6.12822 	 -120.766
| 10> C 	 -95.334 	 -5.7014 	 -119.475
| 11> C 	 -94.0042 	 -5.84047 	 -119.255
| 12> H 	 -96.0274 	 -5.4933 	 -118.688
| 13> C 	 -97.206 	 -5.84942 	 -121.16
| 14> H 	 -97.2352 	 -5.95942 	 -122.281
| 15> H 	 -97.4344 	 -4.7838 	 -120.985
| 16> C 	 -98.3731 	 -6.64402 	 -120.496
| 17> H 	 -98.2426 	 -6.65443 	 -119.451
| 18> H 	 -99.4033 	 -6.25498 	 -120.649
| 19> C 	 -98.4578 	 -8.14747 	 -120.847
| 20> H 	 -97.5321 	 -8.70449 	 -120.664
| 21> H 	 -99.2751 	 -8.61706 	 -120.31
| 22> H 	 -98.676 	 -8.29832 	 -121.894
| 23> S 	 -91.9889 	 -4.71879 	 -117.768
| 24> C 	 -91.7551 	 -5.30375 	 -116.182
| 25> C 	 -92.636 	 -6.29264 	 -115.841
| 26> C 	 -93.638 	 -6.54712 	 -116.815
| 27> C 	 -93.3301 	 -5.82635 	 -117.965
| 28> H 	 -92.6499 	 -6.71884 	 -114.854
| 29> C 	 -94.5832 	 -7.73282 	 -116.685
| 30> H 	 -95.6198 	 -7.5058 	 -117.092
| 31> H 	 -94.7019 	 -8.02234 	 -115.677
| 32> C 	 -94.1227 	 -8.89497 	 -117.586
| 33> H 	 -93.9091 	 -8.68511 	 -118.618
| 34> H 	 -94.9357 	 -9.61455 	 -117.797
| 35> C 	 -92.8182 	 -9.6222 	 -117.071
| 36> H 	 -92.6925 	 -10.4494 	 -117.768
| 37> H 	 -92.9207 	 -10.0884 	 -116.065
| 38> H 	 -91.8349 	 -9.04792 	 -117.231
| 39> H 	 -94.9141 	 -6.83275 	 -122.549
| 40> H 	 -90.9369 	 -5.11345 	 -115.55
| 41> *
| 42>
| 43>                          ****END OF INPUT****

CARTESIAN COORDINATES (ANGSTROEM)
---------------------------------
  S    -93.209200   -6.400200  -120.700000
  C    -94.708000   -6.534020  -121.580000
  C    -95.784700   -6.128220  -120.766000
  C    -95.334000   -5.701400  -119.475000
  C    -94.004200   -5.840470  -119.255000
  H    -96.027400   -5.493300  -118.688000
  C    -97.206000   -5.849420  -121.160000
  H    -97.235200   -5.959420  -122.281000
  H    -97.434400   -4.783800  -120.985000
  C    -98.373100   -6.644020  -120.496000
  H    -98.242600   -6.654430  -119.451000
  H    -99.403300   -6.254980  -120.649000
  C    -98.457800   -8.147470  -120.847000
  H    -97.532100   -8.704490  -120.664000
  H    -99.275100   -8.617060  -120.310000
  H    -98.676000   -8.298320  -121.894000
  S    -91.988900   -4.718790  -117.768000
  C    -91.755100   -5.303750  -116.182000
  C    -92.636000   -6.292640  -115.841000
  C    -93.638000   -6.547120  -116.815000
  C    -93.330100   -5.826350  -117.965000
  H    -92.649900   -6.718840  -114.854000
  C    -94.583200   -7.732820  -116.685000
  H    -95.619800   -7.505800  -117.092000
  H    -94.701900   -8.022340  -115.677000
  C    -94.122700   -8.894970  -117.586000
  H    -93.909100   -8.685110  -118.618000
  H    -94.935700   -9.614550  -117.797000
  C    -92.818200   -9.622200  -117.071000
  H    -92.692500  -10.449400  -117.768000
  H    -92.920700  -10.088400  -116.065000
  H    -91.834900   -9.047920  -117.231000
  H    -94.914100   -6.832750  -122.549000
  H    -90.936900   -5.113450  -115.550000

 Total Charge           Charge          ....    0
 Multiplicity           Mult            ....    1
 Number of Electrons    NEL             ....  134
 Basis Dimension        Dim             ....  322

ORBITAL ENERGIES
----------------

  NO   OCC          E(Eh)            E(eV)
   0   2.0000     -88.969133     -2420.9732
   1   2.0000     -88.968100     -2420.9451
   2   2.0000     -10.324060      -280.9320
   3   2.0000     -10.323869      -280.9268
   4   2.0000     -10.314856      -280.6815
   5   2.0000     -10.307602      -280.4841
   6   2.0000     -10.302776      -280.3528
   7   2.0000     -10.302244      -280.3383
   8   2.0000     -10.300231      -280.2835
   9   2.0000     -10.296570      -280.1839
  10   2.0000     -10.290056      -280.0067
  11   2.0000     -10.287655      -279.9413
  12   2.0000     -10.286540      -279.9110
  13   2.0000     -10.286271      -279.9037
  14   2.0000     -10.281499      -279.7738
  15   2.0000     -10.274497      -279.5833
  16   2.0000      -8.083644      -219.9671
  17   2.0000      -8.083549      -219.9645
  18   2.0000      -6.042226      -164.4173
  19   2.0000      -6.041828      -164.4065
  20   2.0000      -6.038080      -164.3045
  21   2.0000      -6.038003      -164.3024
  22   2.0000      -6.034485      -164.2067
  23   2.0000      -6.034411      -164.2047
  24   2.0000      -1.011432       -27.5225
  25   2.0000      -0.988591       -26.9009
  26   2.0000      -0.908072       -24.7099
  27   2.0000      -0.905445       -24.6384
  28   2.0000      -0.869559       -23.6619
  29   2.0000      -0.850291       -23.1376
  30   2.0000      -0.844871       -22.9901
  31   2.0000      -0.814159       -22.1544
  32   2.0000      -0.783536       -21.3211
  33   2.0000      -0.773805       -21.0563
  34   2.0000      -0.711620       -19.3642
  35   2.0000      -0.701814       -19.0973
  36   2.0000      -0.691270       -18.8104
  37   2.0000      -0.661943       -18.0124
  38   2.0000      -0.640343       -17.4246
  39   2.0000      -0.624484       -16.9931
  40   2.0000      -0.598133       -16.2760
  41   2.0000      -0.568593       -15.4722
  42   2.0000      -0.550281       -14.9739
  43   2.0000      -0.541027       -14.7221
  44   2.0000      -0.539732       -14.6868
  45   2.0000      -0.536026       -14.5860
  46   2.0000      -0.518785       -14.1169
  47   2.0000      -0.513130       -13.9630
  48   2.0000      -0.507235       -13.8026
  49   2.0000      -0.492304       -13.3963
  50   2.0000      -0.488324       -13.2880
  51   2.0000      -0.475199       -12.9308
  52   2.0000      -0.472892       -12.8680
  53   2.0000      -0.466768       -12.7014
  54   2.0000      -0.458885       -12.4869
  55   2.0000      -0.447382       -12.1739
  56   2.0000      -0.442618       -12.0442
  57   2.0000      -0.438035       -11.9196
  58   2.0000      -0.434458       -11.8222
  59   2.0000      -0.423106       -11.5133
  60   2.0000      -0.419705       -11.4208
  61   2.0000      -0.417061       -11.3488
  62   2.0000      -0.409340       -11.1387
  63   2.0000      -0.340851        -9.2750
  64   2.0000      -0.334032        -9.0895
  65   2.0000      -0.330133        -8.9834
  66   2.0000      -0.297235        -8.0882
  67   0.0000       0.033655         0.9158
  68   0.0000       0.066275         1.8034
  69   0.0000       0.114969         3.1285
  70   0.0000       0.120829         3.2879
  71   0.0000       0.122974         3.3463

MULLIKEN ATOMIC CHARGES
-----------------------
   0 S :    0.117641
   1 C :   -0.068129
   2 C :   -0.115795
   3 C :    0.039611
   4 C :   -0.132316
   5 H :    0.007685
   6 C :    0.035580
   7 H :    0.021892
   8 H :    0.047668
   9 C :   -0.058346
  10 H :    0.013836
  11 H :    0.036476
  12 C :   -0.066162
  13 H :    0.036420
  14 H :    0.031103
  15 H :    0.019389
  16 S :    0.128137
  17 C :   -0.053927
  18 C :   -0.050434
  19 C :   -0.004064
  20 C :   -0.199656
  21 H :    0.011922
  22 C :    0.105242
  23 H :    0.030477
  24 H :    0.014405
  25 C :   -0.080504
  26 H :    0.026573
  27 H :    0.024331
  28 C :   -0.091679
  29 H :    0.023438
  30 H :    0.038622
  31 H :    0.059864
  32 H :    0.013982
  33 H :    0.036719
Sum of atomic charges:    0.0000000

LOEWDIN ATOMIC CHARGES
----------------------
   0 S :    0.417076
   1 C :   -0.190466
   2 C :   -0.064681
   3 C :   -0.059003
   4 C :   -0.200396
   5 H :    0.027607
   6 C :   -0.037505
   7 H :    0.031693
   8 H :    0.040196
   9 C :   -0.041223
  10 H :    0.015292
  11 H :    0.031430
  12 C :   -0.067845
  13 H :    0.024795
  14 H :    0.025506
  15 H :    0.018706
  16 S :    0.429308
  17 C :   -0.194596
  18 C :   -0.068578
  19 C :   -0.048881
  20 C :   -0.202054
  21 H :    0.028728
  22 C :   -0.026463
  23 H :    0.038427
  24 H :    0.023533
  25 C :   -0.042932
  26 H :    0.023639
  27 H :    0.025875
  28 C :   -0.080827
  29 H :    0.024222
  30 H :    0.023843
  31 H :    0.038230
  32 H :    0.015710
  33 H :    0.021636

  Mayer bond orders larger than 0.100000
B(  0-S ,  1-C ) :   1.1377 B(  0-S ,  4-C ) :   1.1441 B(  1-C ,  2-C ) :   1.6028
B(  1-C , 32-H ) :   0.9722 B(  2-C ,  3-C ) :   1.2354 B(  2-C ,  6-C ) :   1.0280
B(  3-C ,  4-C ) :   1.5944 B(  3-C ,  5-H ) :   1.0009 B(  4-C , 20-C ) :   1.0076
B(  6-C ,  7-H ) :   0.9464 B(  6-C ,  8-H ) :   0.9451 B(  6-C ,  9-C ) :   1.0551
B(  9-C , 10-H ) :   0.9582 B(  9-C , 11-H ) :   0.9581 B(  9-C , 12-C ) :   1.0773
B( 12-C , 13-H ) :   0.9771 B( 12-C , 14-H ) :   0.9747 B( 12-C , 15-H ) :   0.9762
B( 16-S , 17-C ) :   1.1545 B( 16-S , 20-C ) :   1.1653 B( 17-C , 18-C ) :   1.6182
B( 17-C , 33-H ) :   0.9672 B( 18-C , 19-C ) :   1.2518 B( 18-C , 21-H ) :   0.9841
B( 19-C , 20-C ) :   1.5712 B( 19-C , 22-C ) :   1.0596 B( 22-C , 23-H ) :   0.9268
B( 22-C , 24-H ) :   0.9391 B( 22-C , 25-C ) :   1.0635 B( 25-C , 26-H ) :   0.9531
B( 25-C , 27-H ) :   0.9563 B( 25-C , 28-C ) :   1.0702 B( 28-C , 29-H ) :   0.9732
B( 28-C , 30-H ) :   0.9771 B( 28-C , 31-H ) :   0.9734

Dispersion correction           -0.015870973
FINAL SINGLE POINT ENERGY     -1339.876990638609

DIPOLE MOMENT
-------------
                                X             Y             Z
Electronic contribution:     20.38224      17.76727      -0.78086
Nuclear contribution   :    -20.89068     -18.09931       0.94500
                        -----------------------------------------
Total Dipole Moment    :     -0.50844      -0.33204       0.16413
                        -----------------------------------------
Magnitude (a.u.)       :      0.62905
Magnitude (Debye)      :      1.59892

Rotational constants in cm-1:     0.020761     0.009084     0.007791
Rotational constants in MHz :   622.391978   272.319483   233.555792

                             ****ORCA TERMINATED NORMALLY****
TOTAL RUN TIME: 0 days 0 hours 0 minutes 22 seconds 852 msec
