                         Program Version 4.2.1 -  RELEASE  -
|  1> ! wB97X-D3 SP def2-SVP
|  2> %pal
|  3> nprocs 24
|  4> end
|  5>
|  6> * xyz 0 1
|  7> S 	 -82.014 	 -12.3508 	 -59.2637
|  8> C 	 -81.9542 	 -10.7423 	 -59.8773
|  9> C 	 -82.3963 	 -9.78908 	 -58.9906
| 10> C 	 -83.0789 	 -10.4304 	 -57.908
| 11> C 	 -82.9456 	 -11.8372 	 -57.9108
| 12> H 	 -83.5776 	 -9.97133 	 -57.1144
| 13> C 	 -82.3149 	 -8.26681 	 -59.17
| 14> H 	 -82.3984 	 -8.03542 	 -60.2706
| 15> H 	 -81.3716 	 -7.83316 	 -58.7587
| 16> C 	 -83.4846 	 -7.43908 	 -58.4774
| 17> H 	 -84.444 	 -7.81624 	 -58.7197
| 18> H 	 -83.4703 	 -7.45052 	 -57.4513
| 19> C 	 -83.6037 	 -5.99869 	 -58.9354
| 20> H 	 -83.4748 	 -6.06712 	 -59.9974
| 21> H 	 -84.5708 	 -5.54618 	 -58.6057
| 22> H 	 -82.8045 	 -5.4439 	 -58.5158
| 23> S 	 -82.4096 	 -13.9524 	 -56.4123
| 24> C 	 -83.6355 	 -14.5551 	 -55.2525
| 25> C 	 -84.8093 	 -13.8696 	 -55.3544
| 26> C 	 -84.7649 	 -12.7927 	 -56.279
| 27> C 	 -83.5308 	 -12.7112 	 -56.8888
| 28> H 	 -85.6433 	 -14.2368 	 -54.7751
| 29> C 	 -85.862 	 -11.7435 	 -56.4179
| 30> H 	 -85.7825 	 -10.9891 	 -57.1703
| 31> H 	 -85.8701 	 -11.1371 	 -55.4879
| 32> C 	 -87.2818 	 -12.2714 	 -56.6349
| 33> H 	 -87.764 	 -11.3415 	 -56.8848
| 34> H 	 -87.6659 	 -12.5763 	 -55.6159
| 35> C 	 -87.5413 	 -13.1469 	 -57.8052
| 36> H 	 -87.0076 	 -12.6488 	 -58.6237
| 37> H 	 -88.5889 	 -13.208 	 -58.028
| 38> H 	 -87.2109 	 -14.1336 	 -57.6829
| 39> H 	 -81.5089 	 -10.4487 	 -60.7923
| 40> H 	 -83.3658 	 -15.3007 	 -54.5403
| 41> *
| 42>
| 43>                          ****END OF INPUT****

CARTESIAN COORDINATES (ANGSTROEM)
---------------------------------
  S    -82.014000  -12.350800  -59.263700
  C    -81.954200  -10.742300  -59.877300
  C    -82.396300   -9.789080  -58.990600
  C    -83.078900  -10.430400  -57.908000
  C    -82.945600  -11.837200  -57.910800
  H    -83.577600   -9.971330  -57.114400
  C    -82.314900   -8.266810  -59.170000
  H    -82.398400   -8.035420  -60.270600
  H    -81.371600   -7.833160  -58.758700
  C    -83.484600   -7.439080  -58.477400
  H    -84.444000   -7.816240  -58.719700
  H    -83.470300   -7.450520  -57.451300
  C    -83.603700   -5.998690  -58.935400
  H    -83.474800   -6.067120  -59.997400
  H    -84.570800   -5.546180  -58.605700
  H    -82.804500   -5.443900  -58.515800
  S    -82.409600  -13.952400  -56.412300
  C    -83.635500  -14.555100  -55.252500
  C    -84.809300  -13.869600  -55.354400
  C    -84.764900  -12.792700  -56.279000
  C    -83.530800  -12.711200  -56.888800
  H    -85.643300  -14.236800  -54.775100
  C    -85.862000  -11.743500  -56.417900
  H    -85.782500  -10.989100  -57.170300
  H    -85.870100  -11.137100  -55.487900
  C    -87.281800  -12.271400  -56.634900
  H    -87.764000  -11.341500  -56.884800
  H    -87.665900  -12.576300  -55.615900
  C    -87.541300  -13.146900  -57.805200
  H    -87.007600  -12.648800  -58.623700
  H    -88.588900  -13.208000  -58.028000
  H    -87.210900  -14.133600  -57.682900
  H    -81.508900  -10.448700  -60.792300
  H    -83.365800  -15.300700  -54.540300

 Total Charge           Charge          ....    0
 Multiplicity           Mult            ....    1
 Number of Electrons    NEL             ....  134
 Basis Dimension        Dim             ....  322

ORBITAL ENERGIES
----------------

  NO   OCC          E(Eh)            E(eV)
   0   2.0000     -88.970358     -2421.0065
   1   2.0000     -88.960746     -2420.7450
   2   2.0000     -10.326803      -281.0066
   3   2.0000     -10.324947      -280.9561
   4   2.0000     -10.315454      -280.6978
   5   2.0000     -10.307652      -280.4855
   6   2.0000     -10.306936      -280.4660
   7   2.0000     -10.303525      -280.3732
   8   2.0000     -10.302104      -280.3345
   9   2.0000     -10.294798      -280.1357
  10   2.0000     -10.290706      -280.0244
  11   2.0000     -10.288423      -279.9622
  12   2.0000     -10.281955      -279.7862
  13   2.0000     -10.277136      -279.6551
  14   2.0000     -10.275538      -279.6116
  15   2.0000     -10.267543      -279.3940
  16   2.0000      -8.085602      -220.0204
  17   2.0000      -8.075796      -219.7536
  18   2.0000      -6.044035      -164.4666
  19   2.0000      -6.040071      -164.3587
  20   2.0000      -6.036381      -164.2583
  21   2.0000      -6.034243      -164.2001
  22   2.0000      -6.030397      -164.0955
  23   2.0000      -6.026466      -163.9885
  24   2.0000      -1.009158       -27.4606
  25   2.0000      -0.985546       -26.8181
  26   2.0000      -0.914826       -24.8937
  27   2.0000      -0.909357       -24.7449
  28   2.0000      -0.873509       -23.7694
  29   2.0000      -0.854007       -23.2387
  30   2.0000      -0.848545       -23.0901
  31   2.0000      -0.814182       -22.1550
  32   2.0000      -0.786772       -21.4092
  33   2.0000      -0.774574       -21.0772
  34   2.0000      -0.710922       -19.3452
  35   2.0000      -0.694626       -18.9017
  36   2.0000      -0.689009       -18.7489
  37   2.0000      -0.660451       -17.9718
  38   2.0000      -0.641859       -17.4659
  39   2.0000      -0.619972       -16.8703
  40   2.0000      -0.602956       -16.4073
  41   2.0000      -0.575751       -15.6670
  42   2.0000      -0.566763       -15.4224
  43   2.0000      -0.562497       -15.3063
  44   2.0000      -0.542906       -14.7732
  45   2.0000      -0.526932       -14.3385
  46   2.0000      -0.520290       -14.1578
  47   2.0000      -0.503414       -13.6986
  48   2.0000      -0.501642       -13.6504
  49   2.0000      -0.500098       -13.6084
  50   2.0000      -0.490433       -13.3454
  51   2.0000      -0.484657       -13.1882
  52   2.0000      -0.476467       -12.9653
  53   2.0000      -0.467204       -12.7133
  54   2.0000      -0.459886       -12.5141
  55   2.0000      -0.446661       -12.1543
  56   2.0000      -0.444369       -12.0919
  57   2.0000      -0.440432       -11.9848
  58   2.0000      -0.432473       -11.7682
  59   2.0000      -0.428396       -11.6572
  60   2.0000      -0.421711       -11.4753
  61   2.0000      -0.415142       -11.2966
  62   2.0000      -0.406596       -11.0640
  63   2.0000      -0.352587        -9.5944
  64   2.0000      -0.332477        -9.0472
  65   2.0000      -0.330030        -8.9806
  66   2.0000      -0.284914        -7.7529
  67   0.0000       0.032986         0.8976
  68   0.0000       0.070496         1.9183
  69   0.0000       0.105460         2.8697
  70   0.0000       0.122123         3.3231
  71   0.0000       0.134527         3.6607

MULLIKEN ATOMIC CHARGES
-----------------------
   0 S :    0.139137
   1 C :   -0.113558
   2 C :   -0.053029
   3 C :    0.010100
   4 C :   -0.120364
   5 H :   -0.008966
   6 C :    0.037657
   7 H :    0.035379
   8 H :    0.055137
   9 C :   -0.083478
  10 H :    0.012843
  11 H :    0.015287
  12 C :   -0.027335
  13 H :    0.022232
  14 H :    0.044493
  15 H :    0.020430
  16 S :    0.075297
  17 C :   -0.088251
  18 C :   -0.029109
  19 C :    0.007154
  20 C :   -0.170781
  21 H :    0.022864
  22 C :    0.033334
  23 H :    0.013534
  24 H :    0.040202
  25 C :   -0.108999
  26 H :    0.016520
  27 H :    0.029522
  28 C :    0.013195
  29 H :    0.028395
  30 H :    0.030100
  31 H :    0.025148
  32 H :    0.025962
  33 H :    0.049948
Sum of atomic charges:   -0.0000000

LOEWDIN ATOMIC CHARGES
----------------------
   0 S :    0.434528
   1 C :   -0.203572
   2 C :   -0.061769
   3 C :   -0.058970
   4 C :   -0.208415
   5 H :    0.017638
   6 C :   -0.029179
   7 H :    0.035676
   8 H :    0.039163
   9 C :   -0.039806
  10 H :    0.018211
  11 H :    0.008899
  12 C :   -0.055111
  13 H :    0.021247
  14 H :    0.034053
  15 H :    0.016513
  16 S :    0.380007
  17 C :   -0.162584
  18 C :   -0.064978
  19 C :   -0.063696
  20 C :   -0.184650
  21 H :    0.035408
  22 C :   -0.033836
  23 H :    0.023721
  24 H :    0.039299
  25 C :   -0.048787
  26 H :    0.024976
  27 H :    0.020566
  28 C :   -0.055898
  29 H :    0.034191
  30 H :    0.027281
  31 H :    0.018276
  32 H :    0.019584
  33 H :    0.022012

  Mayer bond orders larger than 0.100000
B(  0-S ,  1-C ) :   1.1475 B(  0-S ,  4-C ) :   1.1627 B(  1-C ,  2-C ) :   1.6084
B(  1-C , 32-H ) :   0.9705 B(  2-C ,  3-C ) :   1.2549 B(  2-C ,  6-C ) :   1.0138
B(  3-C ,  4-C ) :   1.5345 B(  3-C ,  5-H ) :   1.0048 B(  4-C , 20-C ) :   1.0353
B(  6-C ,  7-H ) :   0.9483 B(  6-C ,  8-H ) :   0.9357 B(  6-C ,  9-C ) :   1.0679
B(  9-C , 10-H ) :   0.9602 B(  9-C , 11-H ) :   0.9488 B(  9-C , 12-C ) :   1.0846
B( 12-C , 13-H ) :   0.9762 B( 12-C , 14-H ) :   0.9739 B( 12-C , 15-H ) :   0.9761
B( 16-S , 17-C ) :   1.1301 B( 16-S , 20-C ) :   1.1414 B( 17-C , 18-C ) :   1.6396
B( 17-C , 33-H ) :   0.9741 B( 18-C , 19-C ) :   1.1960 B( 18-C , 21-H ) :   0.9925
B( 19-C , 20-C ) :   1.6220 B( 19-C , 22-C ) :   1.0353 B( 22-C , 23-H ) :   0.9399
B( 22-C , 24-H ) :   0.9345 B( 22-C , 25-C ) :   1.0824 B( 25-C , 26-H ) :   0.9567
B( 25-C , 27-H ) :   0.9506 B( 25-C , 28-C ) :   1.0813 B( 28-C , 29-H ) :   0.9668
B( 28-C , 30-H ) :   0.9715 B( 28-C , 31-H ) :   0.9715

Dispersion correction           -0.013910965
FINAL SINGLE POINT ENERGY     -1339.864922853882

DIPOLE MOMENT
-------------
                                X             Y             Z
Electronic contribution:     19.03929     -22.18552       1.47414
Nuclear contribution   :    -19.47610      22.70833      -1.30771
                        -----------------------------------------
Total Dipole Moment    :     -0.43681       0.52280       0.16643
                        -----------------------------------------
Magnitude (a.u.)       :      0.70130
Magnitude (Debye)      :      1.78257

Rotational constants in cm-1:     0.017875     0.008648     0.006760
Rotational constants in MHz :   535.877751   259.267323   202.661697

                             ****ORCA TERMINATED NORMALLY****
TOTAL RUN TIME: 0 days 0 hours 0 minutes 21 seconds 599 msec
