                         Program Version 4.2.1 -  RELEASE  -
|  1> ! wB97X-D3 SP def2-SVP
|  2> %pal
|  3> nprocs 24
|  4> end
|  5>
|  6> * xyz 0 1
|  7> S 	 -58.1297 	 1.64835 	 -28.8844
|  8> C 	 -59.7331 	 1.64766 	 -29.4913
|  9> C 	 -59.7747 	 1.32693 	 -30.8319
| 10> C 	 -58.4027 	 1.01622 	 -31.2426
| 11> C 	 -57.4215 	 1.02676 	 -30.3256
| 12> H 	 -58.1331 	 0.758235 	 -32.363
| 13> C 	 -60.8909 	 1.35444 	 -31.8685
| 14> H 	 -61.4782 	 0.490997 	 -31.6449
| 15> H 	 -60.4907 	 1.10596 	 -32.8667
| 16> C 	 -61.6985 	 2.59851 	 -32.0818
| 17> H 	 -62.1595 	 2.92995 	 -31.2078
| 18> H 	 -61.0664 	 3.36519 	 -32.3204
| 19> C 	 -62.7123 	 2.56923 	 -33.3157
| 20> H 	 -62.2154 	 2.88164 	 -34.2453
| 21> H 	 -63.0375 	 1.5522 	 -33.5785
| 22> H 	 -63.6584 	 3.08913 	 -33.0425
| 23> S 	 -54.9449 	 1.03442 	 -29.0863
| 24> C 	 -53.5193 	 0.570808 	 -29.9316
| 25> C 	 -53.8973 	 -0.2748 	 -30.9737
| 26> C 	 -55.316 	 -0.185924 	 -31.2728
| 27> C 	 -56.0643 	 0.591956 	 -30.4168
| 28> H 	 -53.1162 	 -0.82951 	 -31.4674
| 29> C 	 -55.7837 	 -0.923651 	 -32.5372
| 30> H 	 -56.8061 	 -1.38703 	 -32.3223
| 31> H 	 -55.0909 	 -1.78149 	 -32.6274
| 32> C 	 -55.762 	 -0.158854 	 -33.8016
| 33> H 	 -54.743 	 0.262263 	 -33.944
| 34> H 	 -56.4645 	 0.685878 	 -33.8326
| 35> C 	 -56.163 	 -1.0788 	 -34.9691
| 36> H 	 -57.1837 	 -1.47225 	 -34.72
| 37> H 	 -55.5729 	 -1.92939 	 -35.1285
| 38> H 	 -56.0518 	 -0.616232 	 -35.9971
| 39> H 	 -60.5476 	 1.90551 	 -28.8765
| 40> H 	 -52.5337 	 0.605 	 -29.4617
| 41> *
| 42>
| 43>                          ****END OF INPUT****

CARTESIAN COORDINATES (ANGSTROEM)
---------------------------------
  S    -58.129700    1.648350  -28.884400
  C    -59.733100    1.647660  -29.491300
  C    -59.774700    1.326930  -30.831900
  C    -58.402700    1.016220  -31.242600
  C    -57.421500    1.026760  -30.325600
  H    -58.133100    0.758235  -32.363000
  C    -60.890900    1.354440  -31.868500
  H    -61.478200    0.490997  -31.644900
  H    -60.490700    1.105960  -32.866700
  C    -61.698500    2.598510  -32.081800
  H    -62.159500    2.929950  -31.207800
  H    -61.066400    3.365190  -32.320400
  C    -62.712300    2.569230  -33.315700
  H    -62.215400    2.881640  -34.245300
  H    -63.037500    1.552200  -33.578500
  H    -63.658400    3.089130  -33.042500
  S    -54.944900    1.034420  -29.086300
  C    -53.519300    0.570808  -29.931600
  C    -53.897300   -0.274800  -30.973700
  C    -55.316000   -0.185924  -31.272800
  C    -56.064300    0.591956  -30.416800
  H    -53.116200   -0.829510  -31.467400
  C    -55.783700   -0.923651  -32.537200
  H    -56.806100   -1.387030  -32.322300
  H    -55.090900   -1.781490  -32.627400
  C    -55.762000   -0.158854  -33.801600
  H    -54.743000    0.262263  -33.944000
  H    -56.464500    0.685878  -33.832600
  C    -56.163000   -1.078800  -34.969100
  H    -57.183700   -1.472250  -34.720000
  H    -55.572900   -1.929390  -35.128500
  H    -56.051800   -0.616232  -35.997100
  H    -60.547600    1.905510  -28.876500
  H    -52.533700    0.605000  -29.461700

 Total Charge           Charge          ....    0
 Multiplicity           Mult            ....    1
 Number of Electrons    NEL             ....  134
 Basis Dimension        Dim             ....  322

ORBITAL ENERGIES
----------------

  NO   OCC          E(Eh)            E(eV)
   0   2.0000     -88.962567     -2420.7945
   1   2.0000     -88.959951     -2420.7233
   2   2.0000     -10.333381      -281.1856
   3   2.0000     -10.326554      -280.9998
   4   2.0000     -10.320562      -280.8368
   5   2.0000     -10.313795      -280.6526
   6   2.0000     -10.308783      -280.5162
   7   2.0000     -10.307337      -280.4769
   8   2.0000     -10.299288      -280.2579
   9   2.0000     -10.298586      -280.2388
  10   2.0000     -10.296246      -280.1751
  11   2.0000     -10.292954      -280.0855
  12   2.0000     -10.289337      -279.9871
  13   2.0000     -10.288071      -279.9526
  14   2.0000     -10.281849      -279.7833
  15   2.0000     -10.277640      -279.6688
  16   2.0000      -8.078896      -219.8379
  17   2.0000      -8.075134      -219.7356
  18   2.0000      -6.037583      -164.2910
  19   2.0000      -6.033768      -164.1872
  20   2.0000      -6.033155      -164.1705
  21   2.0000      -6.029692      -164.0763
  22   2.0000      -6.029371      -164.0675
  23   2.0000      -6.025603      -163.9650
  24   2.0000      -1.015301       -27.6277
  25   2.0000      -0.989330       -26.9210
  26   2.0000      -0.915904       -24.9230
  27   2.0000      -0.914535       -24.8858
  28   2.0000      -0.877746       -23.8847
  29   2.0000      -0.850647       -23.1473
  30   2.0000      -0.841292       -22.8927
  31   2.0000      -0.816667       -22.2226
  32   2.0000      -0.781506       -21.2659
  33   2.0000      -0.774968       -21.0880
  34   2.0000      -0.716368       -19.4934
  35   2.0000      -0.708920       -19.2907
  36   2.0000      -0.694054       -18.8862
  37   2.0000      -0.670215       -18.2375
  38   2.0000      -0.643097       -17.4995
  39   2.0000      -0.615883       -16.7590
  40   2.0000      -0.595074       -16.1928
  41   2.0000      -0.575645       -15.6641
  42   2.0000      -0.569598       -15.4995
  43   2.0000      -0.562849       -15.3159
  44   2.0000      -0.527114       -14.3435
  45   2.0000      -0.526495       -14.3267
  46   2.0000      -0.521738       -14.1972
  47   2.0000      -0.517372       -14.0784
  48   2.0000      -0.511601       -13.9214
  49   2.0000      -0.502564       -13.6755
  50   2.0000      -0.496298       -13.5049
  51   2.0000      -0.479121       -13.0375
  52   2.0000      -0.473555       -12.8861
  53   2.0000      -0.462141       -12.5755
  54   2.0000      -0.457757       -12.4562
  55   2.0000      -0.447049       -12.1648
  56   2.0000      -0.442471       -12.0402
  57   2.0000      -0.440067       -11.9748
  58   2.0000      -0.438197       -11.9240
  59   2.0000      -0.421616       -11.4728
  60   2.0000      -0.417197       -11.3525
  61   2.0000      -0.414888       -11.2897
  62   2.0000      -0.401781       -10.9330
  63   2.0000      -0.371511       -10.1093
  64   2.0000      -0.329798        -8.9743
  65   2.0000      -0.322925        -8.7872
  66   2.0000      -0.286939        -7.8080
  67   0.0000       0.019091         0.5195
  68   0.0000       0.078924         2.1476
  69   0.0000       0.102433         2.7873
  70   0.0000       0.115941         3.1549
  71   0.0000       0.128556         3.4982

MULLIKEN ATOMIC CHARGES
-----------------------
   0 S :    0.101906
   1 C :   -0.119000
   2 C :   -0.072163
   3 C :   -0.086996
   4 C :   -0.075421
   5 H :    0.031769
   6 C :    0.087884
   7 H :    0.029184
   8 H :    0.013020
   9 C :   -0.010339
  10 H :    0.009573
  11 H :    0.011358
  12 C :   -0.086488
  13 H :    0.043529
  14 H :    0.022242
  15 H :    0.049546
  16 S :    0.071142
  17 C :   -0.088876
  18 C :   -0.037530
  19 C :   -0.062563
  20 C :   -0.085654
  21 H :    0.022859
  22 C :   -0.000019
  23 H :    0.038566
  24 H :    0.022886
  25 C :   -0.040726
  26 H :    0.028125
  27 H :    0.037853
  28 C :   -0.050079
  29 H :    0.031203
  30 H :    0.012465
  31 H :    0.041852
  32 H :    0.036289
  33 H :    0.072602
Sum of atomic charges:   -0.0000000

LOEWDIN ATOMIC CHARGES
----------------------
   0 S :    0.423832
   1 C :   -0.191551
   2 C :   -0.061186
   3 C :   -0.079942
   4 C :   -0.206033
   5 H :    0.040566
   6 C :   -0.031685
   7 H :    0.030965
   8 H :    0.032759
   9 C :   -0.031242
  10 H :    0.014205
  11 H :    0.017849
  12 C :   -0.068654
  13 H :    0.029100
  14 H :    0.022427
  15 H :    0.035295
  16 S :    0.387197
  17 C :   -0.187055
  18 C :   -0.074309
  19 C :   -0.056208
  20 C :   -0.173464
  21 H :    0.030666
  22 C :   -0.040677
  23 H :    0.033722
  24 H :    0.033161
  25 C :   -0.044596
  26 H :    0.028710
  27 H :    0.023558
  28 C :   -0.070270
  29 H :    0.030183
  30 H :    0.013387
  31 H :    0.034213
  32 H :    0.020220
  33 H :    0.034856

  Mayer bond orders larger than 0.100000
B(  0-S ,  1-C ) :   1.1535 B(  0-S ,  4-C ) :   1.1231 B(  1-C ,  2-C ) :   1.5961
B(  1-C , 32-H ) :   0.9814 B(  2-C ,  3-C ) :   1.2485 B(  2-C ,  6-C ) :   1.0101
B(  3-C ,  4-C ) :   1.6004 B(  3-C ,  5-H ) :   0.9685 B(  4-C , 20-C ) :   1.1024
B(  6-C ,  7-H ) :   0.9247 B(  6-C ,  8-H ) :   0.9427 B(  6-C ,  9-C ) :   1.0716
B(  9-C , 10-H ) :   0.9590 B(  9-C , 11-H ) :   0.9554 B(  9-C , 12-C ) :   1.0636
B( 12-C , 13-H ) :   0.9786 B( 12-C , 14-H ) :   0.9806 B( 12-C , 15-H ) :   0.9773
B( 16-S , 17-C ) :   1.1694 B( 16-S , 20-C ) :   1.1091 B( 17-C , 18-C ) :   1.5940
B( 17-C , 20-C ) :   0.1015 B( 17-C , 33-H ) :   0.9640 B( 18-C , 19-C ) :   1.2321
B( 18-C , 21-H ) :   0.9926 B( 19-C , 20-C ) :   1.5959 B( 19-C , 22-C ) :   1.0379
B( 22-C , 23-H ) :   0.9325 B( 22-C , 24-H ) :   0.9342 B( 22-C , 25-C ) :   1.0796
B( 25-C , 26-H ) :   0.9441 B( 25-C , 27-H ) :   0.9485 B( 25-C , 28-C ) :   1.0761
B( 28-C , 29-H ) :   0.9708 B( 28-C , 30-H ) :   0.9753 B( 28-C , 31-H ) :   0.9728

Dispersion correction           -0.013450664
FINAL SINGLE POINT ENERGY     -1339.853477027637

DIPOLE MOMENT
-------------
                                X             Y             Z
Electronic contribution:     15.68421       3.62710      28.40435
Nuclear contribution   :    -15.83815      -3.88384     -29.03103
                        -----------------------------------------
Total Dipole Moment    :     -0.15395      -0.25674      -0.62668
                        -----------------------------------------
Magnitude (a.u.)       :      0.69451
Magnitude (Debye)      :      1.76530

Rotational constants in cm-1:     0.018192     0.008399     0.005935
Rotational constants in MHz :   545.385989   251.801516   177.941345

                             ****ORCA TERMINATED NORMALLY****
TOTAL RUN TIME: 0 days 0 hours 0 minutes 21 seconds 164 msec
