                         Program Version 4.2.1 -  RELEASE  -
|  1> ! wB97X-D3 SP def2-SVP
|  2> %pal
|  3> nprocs 24
|  4> end
|  5>
|  6> * xyz 0 1
|  7> S 	 -85.1616 	 -32.2368 	 -64.8133
|  8> C 	 -84.4004 	 -33.3166 	 -65.9794
|  9> C 	 -84.9624 	 -34.5894 	 -65.9263
| 10> C 	 -86.013 	 -34.6182 	 -64.9367
| 11> C 	 -86.2571 	 -33.445 	 -64.2248
| 12> H 	 -86.7447 	 -35.4243 	 -64.7384
| 13> C 	 -84.6891 	 -35.7324 	 -66.8592
| 14> H 	 -85.0972 	 -36.5851 	 -66.4014
| 15> H 	 -83.6371 	 -35.9524 	 -66.815
| 16> C 	 -85.0623 	 -35.663 	 -68.3992
| 17> H 	 -84.257 	 -35.067 	 -68.8522
| 18> H 	 -85.0215 	 -36.6532 	 -68.8855
| 19> C 	 -86.4609 	 -35.0356 	 -68.6594
| 20> H 	 -87.2838 	 -35.4526 	 -68.0272
| 21> H 	 -86.4154 	 -33.9824 	 -68.6336
| 22> H 	 -86.7499 	 -35.3368 	 -69.7145
| 23> S 	 -86.6761 	 -33.6129 	 -61.5212
| 24> C 	 -88.2583 	 -33.2536 	 -60.8306
| 25> C 	 -89.1172 	 -32.7986 	 -61.8319
| 26> C 	 -88.588 	 -32.8713 	 -63.15
| 27> C 	 -87.2773 	 -33.2964 	 -63.1114
| 28> H 	 -90.117 	 -32.4278 	 -61.5167
| 29> C 	 -89.3438 	 -32.4635 	 -64.4483
| 30> H 	 -89.4771 	 -33.3689 	 -64.9777
| 31> H 	 -88.6311 	 -31.8056 	 -64.9499
| 32> C 	 -90.7266 	 -31.7327 	 -64.2001
| 33> H 	 -91.3685 	 -32.3977 	 -63.6374
| 34> H 	 -91.3381 	 -31.6621 	 -65.1405
| 35> C 	 -90.6277 	 -30.3506 	 -63.5668
| 36> H 	 -91.666 	 -29.9466 	 -63.5871
| 37> H 	 -89.9716 	 -29.7864 	 -64.1109
| 38> H 	 -90.2245 	 -30.4345 	 -62.5205
| 39> H 	 -83.5738 	 -32.999 	 -66.6168
| 40> H 	 -88.6135 	 -33.1584 	 -59.7985
| 41> *
| 42>
| 43>                          ****END OF INPUT****

CARTESIAN COORDINATES (ANGSTROEM)
---------------------------------
  S    -85.161600  -32.236800  -64.813300
  C    -84.400400  -33.316600  -65.979400
  C    -84.962400  -34.589400  -65.926300
  C    -86.013000  -34.618200  -64.936700
  C    -86.257100  -33.445000  -64.224800
  H    -86.744700  -35.424300  -64.738400
  C    -84.689100  -35.732400  -66.859200
  H    -85.097200  -36.585100  -66.401400
  H    -83.637100  -35.952400  -66.815000
  C    -85.062300  -35.663000  -68.399200
  H    -84.257000  -35.067000  -68.852200
  H    -85.021500  -36.653200  -68.885500
  C    -86.460900  -35.035600  -68.659400
  H    -87.283800  -35.452600  -68.027200
  H    -86.415400  -33.982400  -68.633600
  H    -86.749900  -35.336800  -69.714500
  S    -86.676100  -33.612900  -61.521200
  C    -88.258300  -33.253600  -60.830600
  C    -89.117200  -32.798600  -61.831900
  C    -88.588000  -32.871300  -63.150000
  C    -87.277300  -33.296400  -63.111400
  H    -90.117000  -32.427800  -61.516700
  C    -89.343800  -32.463500  -64.448300
  H    -89.477100  -33.368900  -64.977700
  H    -88.631100  -31.805600  -64.949900
  C    -90.726600  -31.732700  -64.200100
  H    -91.368500  -32.397700  -63.637400
  H    -91.338100  -31.662100  -65.140500
  C    -90.627700  -30.350600  -63.566800
  H    -91.666000  -29.946600  -63.587100
  H    -89.971600  -29.786400  -64.110900
  H    -90.224500  -30.434500  -62.520500
  H    -83.573800  -32.999000  -66.616800
  H    -88.613500  -33.158400  -59.798500

 Total Charge           Charge          ....    0
 Multiplicity           Mult            ....    1
 Number of Electrons    NEL             ....  134
 Basis Dimension        Dim             ....  322

ORBITAL ENERGIES
----------------

  NO   OCC          E(Eh)            E(eV)
   0   2.0000     -88.968916     -2420.9673
   1   2.0000     -88.966871     -2420.9116
   2   2.0000     -10.330027      -281.0943
   3   2.0000     -10.327015      -281.0124
   4   2.0000     -10.318678      -280.7855
   5   2.0000     -10.318322      -280.7758
   6   2.0000     -10.305151      -280.4174
   7   2.0000     -10.304620      -280.4030
   8   2.0000     -10.295713      -280.1606
   9   2.0000     -10.295585      -280.1571
  10   2.0000     -10.295547      -280.1561
  11   2.0000     -10.294964      -280.1402
  12   2.0000     -10.291514      -280.0463
  13   2.0000     -10.286378      -279.9066
  14   2.0000     -10.280547      -279.7479
  15   2.0000     -10.276481      -279.6373
  16   2.0000      -8.083281      -219.9573
  17   2.0000      -8.081278      -219.9027
  18   2.0000      -6.041845      -164.4070
  19   2.0000      -6.039730      -164.3494
  20   2.0000      -6.037773      -164.2962
  21   2.0000      -6.035627      -164.2378
  22   2.0000      -6.034069      -164.1954
  23   2.0000      -6.032319      -164.1478
  24   2.0000      -1.003281       -27.3007
  25   2.0000      -0.983135       -26.7525
  26   2.0000      -0.904273       -24.6065
  27   2.0000      -0.903227       -24.5781
  28   2.0000      -0.861043       -23.4302
  29   2.0000      -0.848131       -23.0788
  30   2.0000      -0.842667       -22.9301
  31   2.0000      -0.812605       -22.1121
  32   2.0000      -0.783946       -21.3323
  33   2.0000      -0.774362       -21.0715
  34   2.0000      -0.702867       -19.1260
  35   2.0000      -0.700540       -19.0627
  36   2.0000      -0.692165       -18.8348
  37   2.0000      -0.652489       -17.7551
  38   2.0000      -0.641005       -17.4426
  39   2.0000      -0.606544       -16.5049
  40   2.0000      -0.586967       -15.9722
  41   2.0000      -0.570582       -15.5263
  42   2.0000      -0.557366       -15.1667
  43   2.0000      -0.547214       -14.8905
  44   2.0000      -0.536569       -14.6008
  45   2.0000      -0.530400       -14.4329
  46   2.0000      -0.522284       -14.2121
  47   2.0000      -0.511712       -13.9244
  48   2.0000      -0.500954       -13.6316
  49   2.0000      -0.496303       -13.5051
  50   2.0000      -0.489276       -13.3139
  51   2.0000      -0.474387       -12.9087
  52   2.0000      -0.468216       -12.7408
  53   2.0000      -0.466353       -12.6901
  54   2.0000      -0.460089       -12.5197
  55   2.0000      -0.446101       -12.1390
  56   2.0000      -0.438775       -11.9397
  57   2.0000      -0.437522       -11.9056
  58   2.0000      -0.428833       -11.6691
  59   2.0000      -0.425707       -11.5841
  60   2.0000      -0.423635       -11.5277
  61   2.0000      -0.415240       -11.2993
  62   2.0000      -0.412282       -11.2188
  63   2.0000      -0.335986        -9.1426
  64   2.0000      -0.327583        -8.9140
  65   2.0000      -0.318260        -8.6603
  66   2.0000      -0.315363        -8.5815
  67   0.0000       0.048735         1.3261
  68   0.0000       0.049241         1.3399
  69   0.0000       0.119655         3.2560
  70   0.0000       0.123747         3.3673
  71   0.0000       0.126366         3.4386

MULLIKEN ATOMIC CHARGES
-----------------------
   0 S :    0.113484
   1 C :   -0.143789
   2 C :   -0.080127
   3 C :    0.024124
   4 C :   -0.184584
   5 H :    0.022655
   6 C :    0.102055
   7 H :    0.003080
   8 H :    0.021970
   9 C :   -0.079911
  10 H :    0.030148
  11 H :    0.039108
  12 C :   -0.059502
  13 H :    0.042174
  14 H :    0.039261
  15 H :    0.031684
  16 S :    0.135573
  17 C :   -0.086018
  18 C :   -0.096351
  19 C :   -0.034708
  20 C :   -0.207288
  21 H :    0.034946
  22 C :    0.129185
  23 H :    0.032956
  24 H :    0.036497
  25 C :   -0.112012
  26 H :    0.020836
  27 H :    0.031883
  28 C :   -0.024195
  29 H :    0.045083
  30 H :    0.017808
  31 H :    0.038930
  32 H :    0.057519
  33 H :    0.057524
Sum of atomic charges:    0.0000000

LOEWDIN ATOMIC CHARGES
----------------------
   0 S :    0.410605
   1 C :   -0.191548
   2 C :   -0.066153
   3 C :   -0.067233
   4 C :   -0.216367
   5 H :    0.034766
   6 C :   -0.035324
   7 H :    0.022664
   8 H :    0.032398
   9 C :   -0.036453
  10 H :    0.023948
  11 H :    0.028735
  12 C :   -0.069880
  13 H :    0.030376
  14 H :    0.020234
  15 H :    0.031113
  16 S :    0.424843
  17 C :   -0.196431
  18 C :   -0.081088
  19 C :   -0.056466
  20 C :   -0.210492
  21 H :    0.035250
  22 C :   -0.018936
  23 H :    0.031066
  24 H :    0.032892
  25 C :   -0.047910
  26 H :    0.017792
  27 H :    0.030383
  28 C :   -0.059170
  29 H :    0.035357
  30 H :    0.012255
  31 H :    0.030561
  32 H :    0.031126
  33 H :    0.037086

  Mayer bond orders larger than 0.100000
B(  0-S ,  1-C ) :   1.1584 B(  0-S ,  4-C ) :   1.1536 B(  1-C ,  2-C ) :   1.5716
B(  1-C , 32-H ) :   0.9729 B(  2-C ,  3-C ) :   1.2498 B(  2-C ,  6-C ) :   1.0319
B(  3-C ,  4-C ) :   1.5909 B(  3-C ,  5-H ) :   0.9833 B(  4-C , 20-C ) :   0.9869
B(  6-C ,  7-H ) :   0.9350 B(  6-C ,  8-H ) :   0.9341 B(  6-C ,  9-C ) :   1.0583
B(  9-C , 10-H ) :   0.9575 B(  9-C , 11-H ) :   0.9611 B(  9-C , 12-C ) :   1.0750
B( 12-C , 13-H ) :   0.9783 B( 12-C , 14-H ) :   0.9744 B( 12-C , 15-H ) :   0.9758
B( 16-S , 17-C ) :   1.1504 B( 16-S , 20-C ) :   1.1688 B( 17-C , 18-C ) :   1.6227
B( 17-C , 20-C ) :   0.1015 B( 17-C , 33-H ) :   0.9594 B( 18-C , 19-C ) :   1.2517
B( 18-C , 21-H ) :   0.9717 B( 19-C , 20-C ) :   1.6131 B( 19-C , 22-C ) :   0.9965
B( 22-C , 23-H ) :   0.9311 B( 22-C , 24-H ) :   0.9372 B( 22-C , 25-C ) :   1.0802
B( 25-C , 26-H ) :   0.9494 B( 25-C , 27-H ) :   0.9554 B( 25-C , 28-C ) :   1.0742
B( 28-C , 29-H ) :   0.9721 B( 28-C , 30-H ) :   0.9746 B( 28-C , 31-H ) :   0.9723

Dispersion correction           -0.014609947
FINAL SINGLE POINT ENERGY     -1339.875321821445

DIPOLE MOMENT
-------------
                                X             Y             Z
Electronic contribution:     13.66012       1.75305      18.47210
Nuclear contribution   :    -14.01649      -1.89025     -18.89993
                        -----------------------------------------
Total Dipole Moment    :     -0.35637      -0.13720      -0.42783
                        -----------------------------------------
Magnitude (a.u.)       :      0.57347
Magnitude (Debye)      :      1.45764

Rotational constants in cm-1:     0.020394     0.007888     0.006695
Rotational constants in MHz :   611.406907   236.463037   200.705594

                             ****ORCA TERMINATED NORMALLY****
TOTAL RUN TIME: 0 days 0 hours 0 minutes 21 seconds 315 msec
