                         Program Version 4.2.1 -  RELEASE  -
|  1> ! wB97X-D3 SP def2-SVP
|  2> %pal
|  3> nprocs 24
|  4> end
|  5>
|  6> * xyz 0 1
|  7> S 	 -73.3404 	 9.0161 	 -111.458
|  8> C 	 -74.7703 	 8.67773 	 -110.512
|  9> C 	 -74.5162 	 8.1613 	 -109.293
| 10> C 	 -73.1058 	 8.07945 	 -109.042
| 11> C 	 -72.344 	 8.42497 	 -110.14
| 12> H 	 -72.5369 	 7.76674 	 -108.172
| 13> C 	 -75.5304 	 7.73273 	 -108.206
| 14> H 	 -75.2516 	 6.74344 	 -107.896
| 15> H 	 -76.4585 	 7.59122 	 -108.763
| 16> C 	 -75.7637 	 8.66187 	 -106.97
| 17> H 	 -76.6313 	 8.27659 	 -106.301
| 18> H 	 -74.9062 	 8.71807 	 -106.314
| 19> C 	 -76.1575 	 10.1178 	 -107.355
| 20> H 	 -77.1636 	 10.2506 	 -107.903
| 21> H 	 -76.4377 	 10.7484 	 -106.485
| 22> H 	 -75.3007 	 10.554 	 -107.885
| 23> S 	 -69.8778 	 7.21766 	 -110.734
| 24> C 	 -68.463 	 8.04315 	 -110.226
| 25> C 	 -68.7047 	 9.34853 	 -109.939
| 26> C 	 -70.0787 	 9.6789 	 -110.031
| 27> C 	 -70.8886 	 8.56997 	 -110.24
| 28> H 	 -67.8757 	 10.0077 	 -109.753
| 29> C 	 -70.6133 	 11.0531 	 -109.758
| 30> H 	 -70.3065 	 11.3391 	 -108.716
| 31> H 	 -71.7109 	 10.963 	 -109.65
| 32> C 	 -70.3635 	 12.0647 	 -110.883
| 33> H 	 -70.9185 	 12.9792 	 -110.752
| 34> H 	 -70.7133 	 11.6372 	 -111.862
| 35> C 	 -68.8118 	 12.4745 	 -110.953
| 36> H 	 -68.3648 	 12.6548 	 -109.917
| 37> H 	 -68.5833 	 13.3163 	 -111.599
| 38> H 	 -68.2579 	 11.6544 	 -111.434
| 39> H 	 -75.7525 	 9.02811 	 -110.676
| 40> H 	 -67.4558 	 7.73013 	 -110.452
| 41> *
| 42>
| 43>                          ****END OF INPUT****

CARTESIAN COORDINATES (ANGSTROEM)
---------------------------------
  S    -73.340400    9.016100  -111.458000
  C    -74.770300    8.677730  -110.512000
  C    -74.516200    8.161300  -109.293000
  C    -73.105800    8.079450  -109.042000
  C    -72.344000    8.424970  -110.140000
  H    -72.536900    7.766740  -108.172000
  C    -75.530400    7.732730  -108.206000
  H    -75.251600    6.743440  -107.896000
  H    -76.458500    7.591220  -108.763000
  C    -75.763700    8.661870  -106.970000
  H    -76.631300    8.276590  -106.301000
  H    -74.906200    8.718070  -106.314000
  C    -76.157500   10.117800  -107.355000
  H    -77.163600   10.250600  -107.903000
  H    -76.437700   10.748400  -106.485000
  H    -75.300700   10.554000  -107.885000
  S    -69.877800    7.217660  -110.734000
  C    -68.463000    8.043150  -110.226000
  C    -68.704700    9.348530  -109.939000
  C    -70.078700    9.678900  -110.031000
  C    -70.888600    8.569970  -110.240000
  H    -67.875700   10.007700  -109.753000
  C    -70.613300   11.053100  -109.758000
  H    -70.306500   11.339100  -108.716000
  H    -71.710900   10.963000  -109.650000
  C    -70.363500   12.064700  -110.883000
  H    -70.918500   12.979200  -110.752000
  H    -70.713300   11.637200  -111.862000
  C    -68.811800   12.474500  -110.953000
  H    -68.364800   12.654800  -109.917000
  H    -68.583300   13.316300  -111.599000
  H    -68.257900   11.654400  -111.434000
  H    -75.752500    9.028110  -110.676000
  H    -67.455800    7.730130  -110.452000

 Total Charge           Charge          ....    0
 Multiplicity           Mult            ....    1
 Number of Electrons    NEL             ....  134
 Basis Dimension        Dim             ....  322

ORBITAL ENERGIES
----------------

  NO   OCC          E(Eh)            E(eV)
   0   2.0000     -88.967375     -2420.9253
   1   2.0000     -88.962279     -2420.7867
   2   2.0000     -10.328109      -281.0421
   3   2.0000     -10.323769      -280.9240
   4   2.0000     -10.310014      -280.5497
   5   2.0000     -10.308435      -280.5068
   6   2.0000     -10.301364      -280.3144
   7   2.0000     -10.300819      -280.2995
   8   2.0000     -10.300180      -280.2822
   9   2.0000     -10.297477      -280.2086
  10   2.0000     -10.295594      -280.1574
  11   2.0000     -10.294056      -280.1155
  12   2.0000     -10.290969      -280.0315
  13   2.0000     -10.287062      -279.9252
  14   2.0000     -10.286851      -279.9194
  15   2.0000     -10.284418      -279.8532
  16   2.0000      -8.081936      -219.9207
  17   2.0000      -8.077711      -219.8057
  18   2.0000      -6.040477      -164.3697
  19   2.0000      -6.036516      -164.2620
  20   2.0000      -6.036089      -164.2503
  21   2.0000      -6.032619      -164.1559
  22   2.0000      -6.032209      -164.1448
  23   2.0000      -6.028478      -164.0432
  24   2.0000      -1.009410       -27.4674
  25   2.0000      -0.989469       -26.9248
  26   2.0000      -0.905432       -24.6381
  27   2.0000      -0.902586       -24.5606
  28   2.0000      -0.868969       -23.6458
  29   2.0000      -0.845182       -22.9986
  30   2.0000      -0.840014       -22.8579
  31   2.0000      -0.816952       -22.2304
  32   2.0000      -0.783374       -21.3167
  33   2.0000      -0.772127       -21.0106
  34   2.0000      -0.709526       -19.3072
  35   2.0000      -0.696030       -18.9399
  36   2.0000      -0.692094       -18.8328
  37   2.0000      -0.657458       -17.8903
  38   2.0000      -0.643165       -17.5014
  39   2.0000      -0.614962       -16.7340
  40   2.0000      -0.593276       -16.1439
  41   2.0000      -0.569455       -15.4957
  42   2.0000      -0.547988       -14.9115
  43   2.0000      -0.544299       -14.8111
  44   2.0000      -0.541846       -14.7444
  45   2.0000      -0.537810       -14.6345
  46   2.0000      -0.516518       -14.0552
  47   2.0000      -0.510022       -13.8784
  48   2.0000      -0.502482       -13.6732
  49   2.0000      -0.489490       -13.3197
  50   2.0000      -0.482086       -13.1182
  51   2.0000      -0.475261       -12.9325
  52   2.0000      -0.470066       -12.7911
  53   2.0000      -0.467757       -12.7283
  54   2.0000      -0.461157       -12.5487
  55   2.0000      -0.443388       -12.0652
  56   2.0000      -0.442163       -12.0319
  57   2.0000      -0.438537       -11.9332
  58   2.0000      -0.433877       -11.8064
  59   2.0000      -0.424823       -11.5600
  60   2.0000      -0.416836       -11.3427
  61   2.0000      -0.415305       -11.3010
  62   2.0000      -0.410249       -11.1635
  63   2.0000      -0.336979        -9.1697
  64   2.0000      -0.329645        -8.9701
  65   2.0000      -0.321918        -8.7598
  66   2.0000      -0.314706        -8.5636
  67   0.0000       0.043605         1.1866
  68   0.0000       0.055229         1.5029
  69   0.0000       0.113466         3.0876
  70   0.0000       0.122765         3.3406
  71   0.0000       0.124482         3.3873

MULLIKEN ATOMIC CHARGES
-----------------------
   0 S :    0.116006
   1 C :   -0.084314
   2 C :   -0.118534
   3 C :    0.050618
   4 C :   -0.198144
   5 H :    0.016149
   6 C :    0.110681
   7 H :    0.029701
   8 H :    0.015925
   9 C :   -0.081621
  10 H :    0.044426
  11 H :    0.035197
  12 C :   -0.107509
  13 H :    0.036874
  14 H :    0.035070
  15 H :    0.056254
  16 S :    0.113208
  17 C :   -0.070571
  18 C :   -0.046418
  19 C :   -0.009323
  20 C :   -0.192676
  21 H :    0.015623
  22 C :    0.045131
  23 H :    0.039542
  24 H :    0.027187
  25 C :   -0.049251
  26 H :    0.033985
  27 H :    0.038633
  28 C :   -0.099737
  29 H :    0.043469
  30 H :    0.035017
  31 H :    0.040004
  32 H :    0.027167
  33 H :    0.052231
Sum of atomic charges:    0.0000000

LOEWDIN ATOMIC CHARGES
----------------------
   0 S :    0.404366
   1 C :   -0.190258
   2 C :   -0.066326
   3 C :   -0.054038
   4 C :   -0.193786
   5 H :    0.036051
   6 C :   -0.026219
   7 H :    0.030960
   8 H :    0.030313
   9 C :   -0.044399
  10 H :    0.035795
  11 H :    0.021856
  12 C :   -0.084828
  13 H :    0.031630
  14 H :    0.028354
  15 H :    0.027483
  16 S :    0.413763
  17 C :   -0.191803
  18 C :   -0.074911
  19 C :   -0.051132
  20 C :   -0.210222
  21 H :    0.031048
  22 C :   -0.040797
  23 H :    0.035403
  24 H :    0.031153
  25 C :   -0.032886
  26 H :    0.021873
  27 H :    0.032174
  28 C :   -0.079612
  29 H :    0.030081
  30 H :    0.022712
  31 H :    0.024594
  32 H :    0.022558
  33 H :    0.029047

  Mayer bond orders larger than 0.100000
B(  0-S ,  1-C ) :   1.1311 B(  0-S ,  4-C ) :   1.1412 B(  1-C ,  2-C ) :   1.6652
B(  1-C , 32-H ) :   0.9581 B(  2-C ,  3-C ) :   1.1923 B(  2-C ,  6-C ) :   1.0099
B(  3-C ,  4-C ) :   1.6384 B(  3-C ,  5-H ) :   0.9934 B(  4-C , 20-C ) :   1.0018
B(  6-C ,  7-H ) :   0.9417 B(  6-C ,  8-H ) :   0.9409 B(  6-C ,  9-C ) :   1.0584
B(  9-C , 10-H ) :   0.9576 B(  9-C , 11-H ) :   0.9590 B(  9-C , 12-C ) :   1.0690
B( 12-C , 13-H ) :   0.9743 B( 12-C , 14-H ) :   0.9739 B( 12-C , 15-H ) :   0.9742
B( 16-S , 17-C ) :   1.1684 B( 16-S , 20-C ) :   1.1460 B( 17-C , 18-C ) :   1.6042
B( 17-C , 33-H ) :   0.9605 B( 18-C , 19-C ) :   1.2504 B( 18-C , 21-H ) :   0.9915
B( 19-C , 20-C ) :   1.5886 B( 19-C , 22-C ) :   1.0384 B( 22-C , 23-H ) :   0.9437
B( 22-C , 24-H ) :   0.9248 B( 22-C , 25-C ) :   1.0677 B( 25-C , 26-H ) :   0.9614
B( 25-C , 27-H ) :   0.9520 B( 25-C , 28-C ) :   1.0625 B( 28-C , 29-H ) :   0.9755
B( 28-C , 30-H ) :   0.9749 B( 28-C , 31-H ) :   0.9721

Dispersion correction           -0.015212748
FINAL SINGLE POINT ENERGY     -1339.877275623978

DIPOLE MOMENT
-------------
                                X             Y             Z
Electronic contribution:      7.41109     -16.72629     -12.62326
Nuclear contribution   :     -7.51079      17.12206      13.04389
                        -----------------------------------------
Total Dipole Moment    :     -0.09970       0.39576       0.42063
                        -----------------------------------------
Magnitude (a.u.)       :      0.58609
Magnitude (Debye)      :      1.48972

Rotational constants in cm-1:     0.021138     0.007994     0.007021
Rotational constants in MHz :   633.703965   239.667920   210.492172

                             ****ORCA TERMINATED NORMALLY****
TOTAL RUN TIME: 0 days 0 hours 0 minutes 21 seconds 818 msec
