                         Program Version 4.2.1 -  RELEASE  -
|  1> ! wB97X-D3 SP def2-SVP
|  2> %pal
|  3> nprocs 24
|  4> end
|  5>
|  6> * xyz 0 1
|  7> S 	 -31.4644 	 -37.2735 	 -95.0137
|  8> C 	 -32.9219 	 -37.2818 	 -94.0769
|  9> C 	 -32.6749 	 -36.8248 	 -92.7977
| 10> C 	 -31.3198 	 -36.4243 	 -92.6417
| 11> C 	 -30.5721 	 -36.4928 	 -93.7891
| 12> H 	 -30.965 	 -36.027 	 -91.6461
| 13> C 	 -33.491 	 -37.0856 	 -91.616
| 14> H 	 -34.4397 	 -37.4343 	 -92.0614
| 15> H 	 -33.7636 	 -36.2193 	 -91.0258
| 16> C 	 -32.9477 	 -38.117 	 -90.6736
| 17> H 	 -32.2893 	 -38.9226 	 -91.1468
| 18> H 	 -32.183 	 -37.6103 	 -90.148
| 19> C 	 -34.003 	 -38.7533 	 -89.79
| 20> H 	 -33.6338 	 -39.6719 	 -89.4678
| 21> H 	 -34.1376 	 -38.14 	 -88.9419
| 22> H 	 -34.9358 	 -38.928 	 -90.2956
| 23> S 	 -28.2713 	 -37.7097 	 -94.8816
| 24> C 	 -26.7156 	 -36.9685 	 -94.6096
| 25> C 	 -26.8338 	 -35.8368 	 -93.8313
| 26> C 	 -28.1604 	 -35.6013 	 -93.3636
| 27> C 	 -29.1257 	 -36.4906 	 -93.866
| 28> H 	 -25.9463 	 -35.2555 	 -93.5809
| 29> C 	 -28.3825 	 -34.4351 	 -92.3841
| 30> H 	 -27.4146 	 -34.0898 	 -91.9483
| 31> H 	 -28.8872 	 -34.8855 	 -91.5055
| 32> C 	 -29.0393 	 -33.174 	 -93.0361
| 33> H 	 -29.9418 	 -33.5092 	 -93.511
| 34> H 	 -28.3613 	 -32.6342 	 -93.7524
| 35> C 	 -29.3617 	 -32.3167 	 -91.8643
| 36> H 	 -29.5759 	 -31.2902 	 -92.2039
| 37> H 	 -28.5883 	 -32.1658 	 -91.1273
| 38> H 	 -30.2623 	 -32.6866 	 -91.3506
| 39> H 	 -33.8022 	 -37.8373 	 -94.3572
| 40> H 	 -25.8047 	 -37.2854 	 -95.1344
| 41> *
| 42>
| 43>                          ****END OF INPUT****

CARTESIAN COORDINATES (ANGSTROEM)
---------------------------------
  S    -31.464400  -37.273500  -95.013700
  C    -32.921900  -37.281800  -94.076900
  C    -32.674900  -36.824800  -92.797700
  C    -31.319800  -36.424300  -92.641700
  C    -30.572100  -36.492800  -93.789100
  H    -30.965000  -36.027000  -91.646100
  C    -33.491000  -37.085600  -91.616000
  H    -34.439700  -37.434300  -92.061400
  H    -33.763600  -36.219300  -91.025800
  C    -32.947700  -38.117000  -90.673600
  H    -32.289300  -38.922600  -91.146800
  H    -32.183000  -37.610300  -90.148000
  C    -34.003000  -38.753300  -89.790000
  H    -33.633800  -39.671900  -89.467800
  H    -34.137600  -38.140000  -88.941900
  H    -34.935800  -38.928000  -90.295600
  S    -28.271300  -37.709700  -94.881600
  C    -26.715600  -36.968500  -94.609600
  C    -26.833800  -35.836800  -93.831300
  C    -28.160400  -35.601300  -93.363600
  C    -29.125700  -36.490600  -93.866000
  H    -25.946300  -35.255500  -93.580900
  C    -28.382500  -34.435100  -92.384100
  H    -27.414600  -34.089800  -91.948300
  H    -28.887200  -34.885500  -91.505500
  C    -29.039300  -33.174000  -93.036100
  H    -29.941800  -33.509200  -93.511000
  H    -28.361300  -32.634200  -93.752400
  C    -29.361700  -32.316700  -91.864300
  H    -29.575900  -31.290200  -92.203900
  H    -28.588300  -32.165800  -91.127300
  H    -30.262300  -32.686600  -91.350600
  H    -33.802200  -37.837300  -94.357200
  H    -25.804700  -37.285400  -95.134400

 Total Charge           Charge          ....    0
 Multiplicity           Mult            ....    1
 Number of Electrons    NEL             ....  134
 Basis Dimension        Dim             ....  322

ORBITAL ENERGIES
----------------

  NO   OCC          E(Eh)            E(eV)
   0   2.0000     -88.966427     -2420.8996
   1   2.0000     -88.964110     -2420.8365
   2   2.0000     -10.330908      -281.1183
   3   2.0000     -10.326861      -281.0082
   4   2.0000     -10.316962      -280.7388
   5   2.0000     -10.312414      -280.6151
   6   2.0000     -10.302317      -280.3403
   7   2.0000     -10.296423      -280.1799
   8   2.0000     -10.295526      -280.1555
   9   2.0000     -10.295082      -280.1434
  10   2.0000     -10.291973      -280.0588
  11   2.0000     -10.286163      -279.9007
  12   2.0000     -10.285695      -279.8880
  13   2.0000     -10.282993      -279.8145
  14   2.0000     -10.273057      -279.5441
  15   2.0000     -10.268661      -279.4245
  16   2.0000      -8.082409      -219.9335
  17   2.0000      -8.078090      -219.8160
  18   2.0000      -6.040861      -164.3802
  19   2.0000      -6.036735      -164.2679
  20   2.0000      -6.036706      -164.2671
  21   2.0000      -6.033142      -164.1701
  22   2.0000      -6.032646      -164.1566
  23   2.0000      -6.028844      -164.0532
  24   2.0000      -1.013968       -27.5915
  25   2.0000      -0.982709       -26.7409
  26   2.0000      -0.924985       -25.1701
  27   2.0000      -0.909341       -24.7444
  28   2.0000      -0.873689       -23.7743
  29   2.0000      -0.855013       -23.2661
  30   2.0000      -0.846384       -23.0313
  31   2.0000      -0.814665       -22.1682
  32   2.0000      -0.783823       -21.3289
  33   2.0000      -0.767062       -20.8728
  34   2.0000      -0.712883       -19.3985
  35   2.0000      -0.700663       -19.0660
  36   2.0000      -0.691250       -18.8099
  37   2.0000      -0.659417       -17.9436
  38   2.0000      -0.639731       -17.4080
  39   2.0000      -0.625538       -17.0218
  40   2.0000      -0.592416       -16.1205
  41   2.0000      -0.576242       -15.6803
  42   2.0000      -0.569343       -15.4926
  43   2.0000      -0.559720       -15.2307
  44   2.0000      -0.531668       -14.4674
  45   2.0000      -0.524455       -14.2711
  46   2.0000      -0.517492       -14.0817
  47   2.0000      -0.510936       -13.9033
  48   2.0000      -0.507796       -13.8178
  49   2.0000      -0.502276       -13.6676
  50   2.0000      -0.495959       -13.4957
  51   2.0000      -0.480051       -13.0628
  52   2.0000      -0.476023       -12.9533
  53   2.0000      -0.466497       -12.6940
  54   2.0000      -0.455572       -12.3967
  55   2.0000      -0.453837       -12.3495
  56   2.0000      -0.445406       -12.1201
  57   2.0000      -0.442523       -12.0417
  58   2.0000      -0.434038       -11.8108
  59   2.0000      -0.426858       -11.6154
  60   2.0000      -0.416032       -11.3208
  61   2.0000      -0.407610       -11.0916
  62   2.0000      -0.401181       -10.9167
  63   2.0000      -0.356088        -9.6896
  64   2.0000      -0.331106        -9.0099
  65   2.0000      -0.328054        -8.9268
  66   2.0000      -0.284958        -7.7541
  67   0.0000       0.022309         0.6070
  68   0.0000       0.074168         2.0182
  69   0.0000       0.111405         3.0315
  70   0.0000       0.121101         3.2953
  71   0.0000       0.127688         3.4746

MULLIKEN ATOMIC CHARGES
-----------------------
   0 S :    0.097669
   1 C :   -0.114415
   2 C :   -0.077682
   3 C :   -0.036488
   4 C :   -0.093880
   5 H :    0.034194
   6 C :    0.072419
   7 H :    0.004449
   8 H :    0.028885
   9 C :   -0.112167
  10 H :    0.039700
  11 H :    0.008639
  12 C :    0.030657
  13 H :    0.014857
  14 H :    0.021712
  15 H :    0.027627
  16 S :    0.086665
  17 C :   -0.101711
  18 C :   -0.028923
  19 C :   -0.038031
  20 C :   -0.134195
  21 H :    0.022975
  22 C :   -0.009430
  23 H :    0.018440
  24 H :    0.039164
  25 C :   -0.040464
  26 H :    0.040048
  27 H :    0.045077
  28 C :   -0.040035
  29 H :    0.023394
  30 H :    0.021373
  31 H :    0.031206
  32 H :    0.050209
  33 H :    0.068064
Sum of atomic charges:    0.0000000

LOEWDIN ATOMIC CHARGES
----------------------
   0 S :    0.436066
   1 C :   -0.201335
   2 C :   -0.066186
   3 C :   -0.066588
   4 C :   -0.208794
   5 H :    0.036682
   6 C :   -0.036326
   7 H :    0.027076
   8 H :    0.030846
   9 C :   -0.044025
  10 H :    0.032171
  11 H :    0.016002
  12 C :   -0.048368
  13 H :    0.021811
  14 H :    0.022849
  15 H :    0.025447
  16 S :    0.380951
  17 C :   -0.189785
  18 C :   -0.076001
  19 C :   -0.059478
  20 C :   -0.184771
  21 H :    0.033755
  22 C :   -0.034211
  23 H :    0.029784
  24 H :    0.031479
  25 C :   -0.033883
  26 H :    0.025852
  27 H :    0.033222
  28 C :   -0.068032
  29 H :    0.023604
  30 H :    0.019460
  31 H :    0.027855
  32 H :    0.027758
  33 H :    0.035110

  Mayer bond orders larger than 0.100000
B(  0-S ,  1-C ) :   1.1496 B(  0-S ,  4-C ) :   1.1612 B(  1-C ,  2-C ) :   1.5865
B(  1-C , 32-H ) :   0.9645 B(  2-C ,  3-C ) :   1.2790 B(  2-C ,  6-C ) :   1.0523
B(  3-C ,  4-C ) :   1.5260 B(  3-C ,  5-H ) :   0.9829 B(  4-C , 20-C ) :   1.0756
B(  6-C ,  7-H ) :   0.9418 B(  6-C ,  8-H ) :   0.9261 B(  6-C ,  9-C ) :   1.0505
B(  9-C , 10-H ) :   0.9631 B(  9-C , 11-H ) :   0.9454 B(  9-C , 12-C ) :   1.0820
B( 12-C , 13-H ) :   0.9711 B( 12-C , 14-H ) :   0.9729 B( 12-C , 15-H ) :   0.9774
B( 16-S , 17-C ) :   1.1578 B( 16-S , 20-C ) :   1.1185 B( 17-C , 18-C ) :   1.5964
B( 17-C , 33-H ) :   0.9634 B( 18-C , 19-C ) :   1.2698 B( 18-C , 21-H ) :   0.9886
B( 19-C , 20-C ) :   1.5837 B( 19-C , 22-C ) :   1.0211 B( 22-C , 23-H ) :   0.9379
B( 22-C , 24-H ) :   0.9481 B( 22-C , 25-C ) :   1.0505 B( 25-C , 26-H ) :   0.9575
B( 25-C , 27-H ) :   0.9549 B( 25-C , 28-C ) :   1.0861 B( 28-C , 29-H ) :   0.9703
B( 28-C , 30-H ) :   0.9697 B( 28-C , 31-H ) :   0.9748

Dispersion correction           -0.014059048
FINAL SINGLE POINT ENERGY     -1339.868939550186

DIPOLE MOMENT
-------------
                                X             Y             Z
Electronic contribution:      9.06997     -10.78703     -23.00971
Nuclear contribution   :     -9.09532      10.93462      23.65194
                        -----------------------------------------
Total Dipole Moment    :     -0.02535       0.14760       0.64224
                        -----------------------------------------
Magnitude (a.u.)       :      0.65947
Magnitude (Debye)      :      1.67623

Rotational constants in cm-1:     0.017455     0.008844     0.007097
Rotational constants in MHz :   523.286432   265.137640   212.771884

                             ****ORCA TERMINATED NORMALLY****
TOTAL RUN TIME: 0 days 0 hours 0 minutes 21 seconds 837 msec
