                         Program Version 4.2.1 -  RELEASE  -
|  1> ! wB97X-D3 SP def2-SVP
|  2> %pal
|  3> nprocs 24
|  4> end
|  5>
|  6> * xyz 0 1
|  7> S 	 -105.927 	 50.1599 	 -71.5399
|  8> C 	 -106.481 	 50.2364 	 -73.2281
|  9> C 	 -107.248 	 51.32 	 -73.4979
| 10> C 	 -107.537 	 52.0629 	 -72.3075
| 11> C 	 -106.918 	 51.5693 	 -71.207
| 12> H 	 -108.155 	 52.912 	 -72.0489
| 13> C 	 -108.128 	 51.4828 	 -74.7596
| 14> H 	 -108.892 	 50.6756 	 -74.6526
| 15> H 	 -107.387 	 51.1105 	 -75.5552
| 16> C 	 -108.826 	 52.8804 	 -74.9222
| 17> H 	 -109.393 	 53.2065 	 -74.0025
| 18> H 	 -108.027 	 53.6092 	 -75.0732
| 19> C 	 -109.826 	 52.9385 	 -76.117
| 20> H 	 -110.555 	 52.1299 	 -76.0485
| 21> H 	 -110.442 	 53.8441 	 -75.9832
| 22> H 	 -109.401 	 52.9506 	 -77.1095
| 23> S 	 -106.956 	 51.3222 	 -68.413
| 24> C 	 -106.685 	 52.8116 	 -67.5074
| 25> C 	 -106.533 	 53.9388 	 -68.2951
| 26> C 	 -106.549 	 53.6283 	 -69.6807
| 27> C 	 -106.796 	 52.2756 	 -69.9564
| 28> H 	 -106.485 	 54.9645 	 -67.8149
| 29> C 	 -106.242 	 54.6558 	 -70.7191
| 30> H 	 -106.225 	 54.0657 	 -71.6406
| 31> H 	 -105.169 	 54.9638 	 -70.6242
| 32> C 	 -107.283 	 55.7674 	 -70.9253
| 33> H 	 -107.292 	 56.4437 	 -70.0221
| 34> H 	 -108.286 	 55.3451 	 -71.0715
| 35> C 	 -106.905 	 56.7096 	 -72.0682
| 36> H 	 -106.044 	 57.3378 	 -71.8682
| 37> H 	 -107.71 	 57.4781 	 -72.2612
| 38> H 	 -106.79 	 56.1766 	 -73.0275
| 39> H 	 -106.311 	 49.4906 	 -73.9851
| 40> H 	 -106.808 	 52.9316 	 -66.463
| 41> *
| 42>
| 43>                          ****END OF INPUT****

CARTESIAN COORDINATES (ANGSTROEM)
---------------------------------
  S    -105.927000   50.159900  -71.539900
  C    -106.481000   50.236400  -73.228100
  C    -107.248000   51.320000  -73.497900
  C    -107.537000   52.062900  -72.307500
  C    -106.918000   51.569300  -71.207000
  H    -108.155000   52.912000  -72.048900
  C    -108.128000   51.482800  -74.759600
  H    -108.892000   50.675600  -74.652600
  H    -107.387000   51.110500  -75.555200
  C    -108.826000   52.880400  -74.922200
  H    -109.393000   53.206500  -74.002500
  H    -108.027000   53.609200  -75.073200
  C    -109.826000   52.938500  -76.117000
  H    -110.555000   52.129900  -76.048500
  H    -110.442000   53.844100  -75.983200
  H    -109.401000   52.950600  -77.109500
  S    -106.956000   51.322200  -68.413000
  C    -106.685000   52.811600  -67.507400
  C    -106.533000   53.938800  -68.295100
  C    -106.549000   53.628300  -69.680700
  C    -106.796000   52.275600  -69.956400
  H    -106.485000   54.964500  -67.814900
  C    -106.242000   54.655800  -70.719100
  H    -106.225000   54.065700  -71.640600
  H    -105.169000   54.963800  -70.624200
  C    -107.283000   55.767400  -70.925300
  H    -107.292000   56.443700  -70.022100
  H    -108.286000   55.345100  -71.071500
  C    -106.905000   56.709600  -72.068200
  H    -106.044000   57.337800  -71.868200
  H    -107.710000   57.478100  -72.261200
  H    -106.790000   56.176600  -73.027500
  H    -106.311000   49.490600  -73.985100
  H    -106.808000   52.931600  -66.463000

 Total Charge           Charge          ....    0
 Multiplicity           Mult            ....    1
 Number of Electrons    NEL             ....  134
 Basis Dimension        Dim             ....  322

ORBITAL ENERGIES
----------------

  NO   OCC          E(Eh)            E(eV)
   0   2.0000     -88.966923     -2420.9130
   1   2.0000     -88.965748     -2420.8811
   2   2.0000     -10.329347      -281.0758
   3   2.0000     -10.322100      -280.8786
   4   2.0000     -10.316897      -280.7370
   5   2.0000     -10.311610      -280.5932
   6   2.0000     -10.306927      -280.4658
   7   2.0000     -10.304281      -280.3937
   8   2.0000     -10.301604      -280.3209
   9   2.0000     -10.301214      -280.3103
  10   2.0000     -10.297285      -280.2034
  11   2.0000     -10.295860      -280.1646
  12   2.0000     -10.289640      -279.9954
  13   2.0000     -10.289163      -279.9824
  14   2.0000     -10.283308      -279.8230
  15   2.0000     -10.283222      -279.8207
  16   2.0000      -8.080382      -219.8784
  17   2.0000      -8.080103      -219.8708
  18   2.0000      -6.038933      -164.3277
  19   2.0000      -6.038706      -164.3215
  20   2.0000      -6.035227      -164.2269
  21   2.0000      -6.034835      -164.2162
  22   2.0000      -6.031031      -164.1127
  23   2.0000      -6.030614      -164.1014
  24   2.0000      -1.004998       -27.3474
  25   2.0000      -0.978857       -26.6361
  26   2.0000      -0.908426       -24.7195
  27   2.0000      -0.903843       -24.5948
  28   2.0000      -0.871112       -23.7042
  29   2.0000      -0.852977       -23.2107
  30   2.0000      -0.844216       -22.9723
  31   2.0000      -0.815130       -22.1808
  32   2.0000      -0.780862       -21.2483
  33   2.0000      -0.768631       -20.9155
  34   2.0000      -0.712316       -19.3831
  35   2.0000      -0.697761       -18.9871
  36   2.0000      -0.693119       -18.8607
  37   2.0000      -0.654525       -17.8105
  38   2.0000      -0.644470       -17.5369
  39   2.0000      -0.612030       -16.6542
  40   2.0000      -0.591256       -16.0889
  41   2.0000      -0.567206       -15.4345
  42   2.0000      -0.565439       -15.3864
  43   2.0000      -0.557394       -15.1675
  44   2.0000      -0.526214       -14.3190
  45   2.0000      -0.524482       -14.2719
  46   2.0000      -0.511178       -13.9099
  47   2.0000      -0.507678       -13.8146
  48   2.0000      -0.502629       -13.6772
  49   2.0000      -0.494966       -13.4687
  50   2.0000      -0.492475       -13.4009
  51   2.0000      -0.481125       -13.0921
  52   2.0000      -0.467410       -12.7189
  53   2.0000      -0.462207       -12.5773
  54   2.0000      -0.458904       -12.4874
  55   2.0000      -0.451901       -12.2968
  56   2.0000      -0.443786       -12.0760
  57   2.0000      -0.435192       -11.8422
  58   2.0000      -0.434766       -11.8306
  59   2.0000      -0.432017       -11.7558
  60   2.0000      -0.422173       -11.4879
  61   2.0000      -0.415086       -11.2951
  62   2.0000      -0.411311       -11.1923
  63   2.0000      -0.345633        -9.4051
  64   2.0000      -0.333696        -9.0803
  65   2.0000      -0.332206        -9.0398
  66   2.0000      -0.290353        -7.9009
  67   0.0000       0.026226         0.7137
  68   0.0000       0.070053         1.9062
  69   0.0000       0.103241         2.8093
  70   0.0000       0.118959         3.2370
  71   0.0000       0.124508         3.3880

MULLIKEN ATOMIC CHARGES
-----------------------
   0 S :    0.108868
   1 C :   -0.112778
   2 C :   -0.042680
   3 C :   -0.018916
   4 C :   -0.122533
   5 H :    0.008554
   6 C :   -0.000996
   7 H :    0.053271
   8 H :    0.047305
   9 C :   -0.106107
  10 H :    0.051847
  11 H :    0.038932
  12 C :   -0.034003
  13 H :    0.027135
  14 H :    0.030850
  15 H :    0.040427
  16 S :    0.092955
  17 C :   -0.068264
  18 C :   -0.058949
  19 C :   -0.031252
  20 C :   -0.167620
  21 H :    0.045794
  22 C :    0.038719
  23 H :    0.016769
  24 H :    0.044852
  25 C :   -0.071515
  26 H :    0.033767
  27 H :    0.038015
  28 C :   -0.065474
  29 H :    0.034435
  30 H :    0.034860
  31 H :    0.034497
  32 H :    0.035585
  33 H :    0.043651
Sum of atomic charges:   -0.0000000

LOEWDIN ATOMIC CHARGES
----------------------
   0 S :    0.387032
   1 C :   -0.184063
   2 C :   -0.068104
   3 C :   -0.070060
   4 C :   -0.190227
   5 H :    0.032912
   6 C :   -0.039674
   7 H :    0.037424
   8 H :    0.041085
   9 C :   -0.044994
  10 H :    0.034045
  11 H :    0.025964
  12 C :   -0.065457
  13 H :    0.024164
  14 H :    0.029914
  15 H :    0.024319
  16 S :    0.367130
  17 C :   -0.169801
  18 C :   -0.077511
  19 C :   -0.052725
  20 C :   -0.180348
  21 H :    0.045466
  22 C :   -0.044114
  23 H :    0.029982
  24 H :    0.040546
  25 C :   -0.041050
  26 H :    0.027545
  27 H :    0.025839
  28 C :   -0.072316
  29 H :    0.024817
  30 H :    0.031296
  31 H :    0.024143
  32 H :    0.025061
  33 H :    0.021759

  Mayer bond orders larger than 0.100000
B(  0-S ,  1-C ) :   1.1164 B(  0-S ,  4-C ) :   1.1282 B(  1-C ,  2-C ) :   1.6640
B(  1-C , 32-H ) :   0.9691 B(  2-C ,  3-C ) :   1.1727 B(  2-C ,  6-C ) :   1.0024
B(  3-C ,  4-C ) :   1.6264 B(  3-C ,  5-H ) :   0.9971 B(  4-C , 20-C ) :   1.0453
B(  6-C ,  7-H ) :   0.9477 B(  6-C ,  8-H ) :   0.9441 B(  6-C ,  9-C ) :   1.0563
B(  9-C , 10-H ) :   0.9488 B(  9-C , 11-H ) :   0.9599 B(  9-C , 12-C ) :   1.0811
B( 12-C , 13-H ) :   0.9751 B( 12-C , 14-H ) :   0.9749 B( 12-C , 15-H ) :   0.9776
B( 16-S , 17-C ) :   1.1467 B( 16-S , 20-C ) :   1.1072 B( 17-C , 18-C ) :   1.6396
B( 17-C , 33-H ) :   0.9647 B( 18-C , 19-C ) :   1.2251 B( 18-C , 21-H ) :   0.9781
B( 19-C , 20-C ) :   1.6014 B( 19-C , 22-C ) :   1.0469 B( 22-C , 23-H ) :   0.9285
B( 22-C , 24-H ) :   0.9307 B( 22-C , 25-C ) :   1.0533 B( 25-C , 26-H ) :   0.9542
B( 25-C , 27-H ) :   0.9518 B( 25-C , 28-C ) :   1.0878 B( 28-C , 29-H ) :   0.9741
B( 28-C , 30-H ) :   0.9733 B( 28-C , 31-H ) :   0.9742

Dispersion correction           -0.014397706
FINAL SINGLE POINT ENERGY     -1339.876445449237

DIPOLE MOMENT
-------------
                                X             Y             Z
Electronic contribution:     10.57042     -22.63070      22.24275
Nuclear contribution   :    -10.88438      23.25109     -22.63889
                        -----------------------------------------
Total Dipole Moment    :     -0.31395       0.62039      -0.39614
                        -----------------------------------------
Magnitude (a.u.)       :      0.80023
Magnitude (Debye)      :      2.03403

Rotational constants in cm-1:     0.016499     0.009686     0.006732
Rotational constants in MHz :   494.631749   290.376226   201.807130

                             ****ORCA TERMINATED NORMALLY****
TOTAL RUN TIME: 0 days 0 hours 0 minutes 22 seconds 129 msec
