                         Program Version 4.2.1 -  RELEASE  -
|  1> ! wB97X-D3 SP def2-SVP
|  2> %pal
|  3> nprocs 24
|  4> end
|  5>
|  6> * xyz 0 1
|  7> S 	 -53.2746 	 17.1975 	 23.6279
|  8> C 	 -51.8146 	 17.1679 	 22.6604
|  9> C 	 -50.6797 	 17.0326 	 23.4686
| 10> C 	 -50.9823 	 17.2613 	 24.8726
| 11> C 	 -52.3362 	 17.4554 	 25.1281
| 12> H 	 -50.2339 	 17.2909 	 25.73
| 13> C 	 -49.3014 	 16.6896 	 22.9787
| 14> H 	 -49.3055 	 16.7264 	 21.8983
| 15> H 	 -49.2061 	 15.7031 	 23.2201
| 16> C 	 -48.1484 	 17.5554 	 23.4981
| 17> H 	 -48.1023 	 17.5088 	 24.6073
| 18> H 	 -47.162 	 17.253 	 23.0756
| 19> C 	 -48.2433 	 19.091 	 23.0922
| 20> H 	 -48.9577 	 19.5049 	 23.7671
| 21> H 	 -47.2791 	 19.6949 	 23.3715
| 22> H 	 -48.334 	 19.1939 	 21.9865
| 23> S 	 -54.5285 	 18.687 	 26.4164
| 24> C 	 -54.5965 	 18.7416 	 28.1345
| 25> C 	 -53.5252 	 18.0314 	 28.7328
| 26> C 	 -52.6279 	 17.4298 	 27.738
| 27> C 	 -53.0143 	 17.6907 	 26.4165
| 28> H 	 -53.386 	 17.8488 	 29.7752
| 29> C 	 -51.5381 	 16.4713 	 28.1855
| 30> H 	 -51.0236 	 16.0986 	 27.2851
| 31> H 	 -52.0817 	 15.6083 	 28.6211
| 32> C 	 -50.5443 	 16.9026 	 29.3301
| 33> H 	 -50.1776 	 15.9517 	 29.7624
| 34> H 	 -51.1652 	 17.4974 	 30.0227
| 35> C 	 -49.3735 	 17.6921 	 28.8951
| 36> H 	 -49.7048 	 18.7027 	 28.7022
| 37> H 	 -48.9855 	 17.3068 	 27.9514
| 38> H 	 -48.7155 	 17.6226 	 29.7212
| 39> H 	 -51.9011 	 17.0681 	 21.5756
| 40> H 	 -55.3661 	 19.1839 	 28.7504
| 41> *
| 42>
| 43>                          ****END OF INPUT****

CARTESIAN COORDINATES (ANGSTROEM)
---------------------------------
  S    -53.274600   17.197500   23.627900
  C    -51.814600   17.167900   22.660400
  C    -50.679700   17.032600   23.468600
  C    -50.982300   17.261300   24.872600
  C    -52.336200   17.455400   25.128100
  H    -50.233900   17.290900   25.730000
  C    -49.301400   16.689600   22.978700
  H    -49.305500   16.726400   21.898300
  H    -49.206100   15.703100   23.220100
  C    -48.148400   17.555400   23.498100
  H    -48.102300   17.508800   24.607300
  H    -47.162000   17.253000   23.075600
  C    -48.243300   19.091000   23.092200
  H    -48.957700   19.504900   23.767100
  H    -47.279100   19.694900   23.371500
  H    -48.334000   19.193900   21.986500
  S    -54.528500   18.687000   26.416400
  C    -54.596500   18.741600   28.134500
  C    -53.525200   18.031400   28.732800
  C    -52.627900   17.429800   27.738000
  C    -53.014300   17.690700   26.416500
  H    -53.386000   17.848800   29.775200
  C    -51.538100   16.471300   28.185500
  H    -51.023600   16.098600   27.285100
  H    -52.081700   15.608300   28.621100
  C    -50.544300   16.902600   29.330100
  H    -50.177600   15.951700   29.762400
  H    -51.165200   17.497400   30.022700
  C    -49.373500   17.692100   28.895100
  H    -49.704800   18.702700   28.702200
  H    -48.985500   17.306800   27.951400
  H    -48.715500   17.622600   29.721200
  H    -51.901100   17.068100   21.575600
  H    -55.366100   19.183900   28.750400

 Total Charge           Charge          ....    0
 Multiplicity           Mult            ....    1
 Number of Electrons    NEL             ....  134
 Basis Dimension        Dim             ....  322

ORBITAL ENERGIES
----------------

  NO   OCC          E(Eh)            E(eV)
   0   2.0000     -88.968819     -2420.9646
   1   2.0000     -88.964016     -2420.8339
   2   2.0000     -10.337736      -281.3041
   3   2.0000     -10.335160      -281.2340
   4   2.0000     -10.324969      -280.9567
   5   2.0000     -10.317589      -280.7559
   6   2.0000     -10.311128      -280.5800
   7   2.0000     -10.307943      -280.4934
   8   2.0000     -10.304389      -280.3967
   9   2.0000     -10.300018      -280.2777
  10   2.0000     -10.295804      -280.1631
  11   2.0000     -10.295724      -280.1609
  12   2.0000     -10.291435      -280.0442
  13   2.0000     -10.286806      -279.9182
  14   2.0000     -10.286205      -279.9019
  15   2.0000     -10.272744      -279.5356
  16   2.0000      -8.082881      -219.9464
  17   2.0000      -8.078340      -219.8228
  18   2.0000      -6.041526      -164.3983
  19   2.0000      -6.037387      -164.2857
  20   2.0000      -6.036974      -164.2744
  21   2.0000      -6.033619      -164.1831
  22   2.0000      -6.033048      -164.1676
  23   2.0000      -6.028858      -164.0536
  24   2.0000      -0.997378       -27.1400
  25   2.0000      -0.976810       -26.5804
  26   2.0000      -0.913160       -24.8483
  27   2.0000      -0.909507       -24.7489
  28   2.0000      -0.866270       -23.5724
  29   2.0000      -0.854175       -23.2433
  30   2.0000      -0.837991       -22.8029
  31   2.0000      -0.812004       -22.0958
  32   2.0000      -0.784890       -21.3580
  33   2.0000      -0.771902       -21.0045
  34   2.0000      -0.705730       -19.2039
  35   2.0000      -0.694071       -18.8866
  36   2.0000      -0.689731       -18.7685
  37   2.0000      -0.655300       -17.8316
  38   2.0000      -0.639038       -17.3891
  39   2.0000      -0.620881       -16.8950
  40   2.0000      -0.598237       -16.2789
  41   2.0000      -0.562836       -15.3155
  42   2.0000      -0.561993       -15.2926
  43   2.0000      -0.557014       -15.1571
  44   2.0000      -0.543645       -14.7933
  45   2.0000      -0.536716       -14.6048
  46   2.0000      -0.526610       -14.3298
  47   2.0000      -0.512683       -13.9508
  48   2.0000      -0.503355       -13.6970
  49   2.0000      -0.502018       -13.6606
  50   2.0000      -0.487990       -13.2789
  51   2.0000      -0.475001       -12.9254
  52   2.0000      -0.467583       -12.7236
  53   2.0000      -0.463245       -12.6055
  54   2.0000      -0.461019       -12.5450
  55   2.0000      -0.448632       -12.2079
  56   2.0000      -0.440560       -11.9883
  57   2.0000      -0.437160       -11.8957
  58   2.0000      -0.433374       -11.7927
  59   2.0000      -0.427397       -11.6301
  60   2.0000      -0.419565       -11.4169
  61   2.0000      -0.414796       -11.2872
  62   2.0000      -0.405525       -11.0349
  63   2.0000      -0.355510        -9.6739
  64   2.0000      -0.328285        -8.9331
  65   2.0000      -0.326630        -8.8880
  66   2.0000      -0.284739        -7.7482
  67   0.0000       0.019403         0.5280
  68   0.0000       0.075433         2.0526
  69   0.0000       0.098092         2.6692
  70   0.0000       0.109429         2.9777
  71   0.0000       0.124473         3.3871

MULLIKEN ATOMIC CHARGES
-----------------------
   0 S :    0.088183
   1 C :   -0.129428
   2 C :   -0.113945
   3 C :   -0.012844
   4 C :   -0.124456
   5 H :    0.030440
   6 C :    0.148907
   7 H :    0.008997
   8 H :    0.022682
   9 C :   -0.112178
  10 H :    0.033324
  11 H :    0.037695
  12 C :   -0.092461
  13 H :    0.045384
  14 H :    0.039632
  15 H :    0.048858
  16 S :    0.107987
  17 C :   -0.075425
  18 C :   -0.039584
  19 C :   -0.050916
  20 C :   -0.134936
  21 H :    0.018034
  22 C :    0.008354
  23 H :    0.018356
  24 H :    0.047287
  25 C :   -0.095746
  26 H :    0.033416
  27 H :    0.028144
  28 C :    0.002701
  29 H :    0.033044
  30 H :    0.023407
  31 H :    0.033960
  32 H :    0.059330
  33 H :    0.063799
Sum of atomic charges:   -0.0000000

LOEWDIN ATOMIC CHARGES
----------------------
   0 S :    0.380642
   1 C :   -0.198361
   2 C :   -0.055699
   3 C :   -0.079000
   4 C :   -0.173792
   5 H :    0.038244
   6 C :   -0.026345
   7 H :    0.030311
   8 H :    0.026159
   9 C :   -0.043297
  10 H :    0.021682
  11 H :    0.027252
  12 C :   -0.074028
  13 H :    0.022315
  14 H :    0.034946
  15 H :    0.029193
  16 S :    0.398760
  17 C :   -0.188220
  18 C :   -0.073525
  19 C :   -0.052100
  20 C :   -0.190354
  21 H :    0.024297
  22 C :   -0.040193
  23 H :    0.026010
  24 H :    0.041994
  25 C :   -0.038620
  26 H :    0.027000
  27 H :    0.024696
  28 C :   -0.058851
  29 H :    0.028047
  30 H :    0.021609
  31 H :    0.026206
  32 H :    0.029915
  33 H :    0.033107

  Mayer bond orders larger than 0.100000
B(  0-S ,  1-C ) :   1.1272 B(  0-S ,  4-C ) :   1.1448 B(  1-C ,  2-C ) :   1.6100
B(  1-C , 32-H ) :   0.9692 B(  2-C ,  3-C ) :   1.2227 B(  2-C ,  6-C ) :   1.0178
B(  3-C ,  4-C ) :   1.5940 B(  3-C ,  5-H ) :   0.9706 B(  4-C , 20-C ) :   1.0600
B(  6-C ,  7-H ) :   0.9364 B(  6-C ,  8-H ) :   0.9270 B(  6-C ,  9-C ) :   1.0686
B(  9-C , 10-H ) :   0.9570 B(  9-C , 11-H ) :   0.9598 B(  9-C , 12-C ) :   1.0643
B( 12-C , 13-H ) :   0.9769 B( 12-C , 14-H ) :   0.9765 B( 12-C , 15-H ) :   0.9762
B( 16-S , 17-C ) :   1.1694 B( 16-S , 20-C ) :   1.1130 B( 17-C , 18-C ) :   1.5894
B( 17-C , 33-H ) :   0.9665 B( 18-C , 19-C ) :   1.2437 B( 18-C , 21-H ) :   0.9851
B( 19-C , 20-C ) :   1.5907 B( 19-C , 22-C ) :   1.0363 B( 22-C , 23-H ) :   0.9418
B( 22-C , 24-H ) :   0.9347 B( 22-C , 25-C ) :   1.0621 B( 25-C , 26-H ) :   0.9576
B( 25-C , 27-H ) :   0.9529 B( 25-C , 28-C ) :   1.0827 B( 28-C , 29-H ) :   0.9746
B( 28-C , 30-H ) :   0.9703 B( 28-C , 31-H ) :   0.9705

Dispersion correction           -0.014409160
FINAL SINGLE POINT ENERGY     -1339.869570429859

DIPOLE MOMENT
-------------
                                X             Y             Z
Electronic contribution:    -29.00375       1.15613      -6.18017
Nuclear contribution   :     29.59248      -1.43732       6.55904
                        -----------------------------------------
Total Dipole Moment    :      0.58873      -0.28119       0.37887
                        -----------------------------------------
Magnitude (a.u.)       :      0.75446
Magnitude (Debye)      :      1.91769

Rotational constants in cm-1:     0.016947     0.009709     0.006897
Rotational constants in MHz :   508.051720   291.082141   206.776159

                             ****ORCA TERMINATED NORMALLY****
TOTAL RUN TIME: 0 days 0 hours 0 minutes 21 seconds 946 msec
