                         Program Version 4.2.1 -  RELEASE  -
|  1> ! wB97X-D3 SP def2-SVP
|  2> %pal
|  3> nprocs 24
|  4> end
|  5>
|  6> * xyz 0 1
|  7> S 	 32.4837 	 -29.0608 	 -128.373
|  8> C 	 34.0251 	 -28.8246 	 -129.239
|  9> C 	 34.5395 	 -30.0603 	 -129.683
| 10> C 	 33.9766 	 -31.1479 	 -129.005
| 11> C 	 32.8868 	 -30.8081 	 -128.224
| 12> H 	 34.3508 	 -32.1756 	 -129.061
| 13> C 	 35.7827 	 -30.24 	 -130.549
| 14> H 	 36.1577 	 -29.2267 	 -130.634
| 15> H 	 35.455 	 -30.5703 	 -131.541
| 16> C 	 36.9108 	 -31.1016 	 -129.887
| 17> H 	 36.5178 	 -32.0711 	 -129.558
| 18> H 	 37.6001 	 -31.2348 	 -130.744
| 19> C 	 37.6046 	 -30.3563 	 -128.774
| 20> H 	 36.9076 	 -29.9253 	 -128.052
| 21> H 	 38.318 	 -30.976 	 -128.187
| 22> H 	 38.1905 	 -29.6278 	 -129.34
| 23> S 	 30.5725 	 -31.3093 	 -126.844
| 24> C 	 30.505 	 -32.6417 	 -125.696
| 25> C 	 31.6152 	 -33.4116 	 -125.75
| 26> C 	 32.539 	 -32.9264 	 -126.73
| 27> C 	 32.1968 	 -31.6757 	 -127.262
| 28> H 	 31.6325 	 -34.3476 	 -125.209
| 29> C 	 33.8395 	 -33.6167 	 -126.867
| 30> H 	 33.9005 	 -34.0616 	 -125.877
| 31> H 	 34.5918 	 -32.8702 	 -126.805
| 32> C 	 33.8591 	 -34.6657 	 -128.014
| 33> H 	 34.7807 	 -35.2357 	 -128.111
| 34> H 	 33.6322 	 -34.0966 	 -128.857
| 35> C 	 32.8847 	 -35.8102 	 -127.778
| 36> H 	 33.2493 	 -36.3133 	 -126.924
| 37> H 	 32.8813 	 -36.535 	 -128.67
| 38> H 	 31.8693 	 -35.5643 	 -127.468
| 39> H 	 34.5015 	 -27.9195 	 -129.663
| 40> H 	 29.6293 	 -32.8977 	 -125.249
| 41> *
| 42>
| 43>                          ****END OF INPUT****

CARTESIAN COORDINATES (ANGSTROEM)
---------------------------------
  S     32.483700  -29.060800  -128.373000
  C     34.025100  -28.824600  -129.239000
  C     34.539500  -30.060300  -129.683000
  C     33.976600  -31.147900  -129.005000
  C     32.886800  -30.808100  -128.224000
  H     34.350800  -32.175600  -129.061000
  C     35.782700  -30.240000  -130.549000
  H     36.157700  -29.226700  -130.634000
  H     35.455000  -30.570300  -131.541000
  C     36.910800  -31.101600  -129.887000
  H     36.517800  -32.071100  -129.558000
  H     37.600100  -31.234800  -130.744000
  C     37.604600  -30.356300  -128.774000
  H     36.907600  -29.925300  -128.052000
  H     38.318000  -30.976000  -128.187000
  H     38.190500  -29.627800  -129.340000
  S     30.572500  -31.309300  -126.844000
  C     30.505000  -32.641700  -125.696000
  C     31.615200  -33.411600  -125.750000
  C     32.539000  -32.926400  -126.730000
  C     32.196800  -31.675700  -127.262000
  H     31.632500  -34.347600  -125.209000
  C     33.839500  -33.616700  -126.867000
  H     33.900500  -34.061600  -125.877000
  H     34.591800  -32.870200  -126.805000
  C     33.859100  -34.665700  -128.014000
  H     34.780700  -35.235700  -128.111000
  H     33.632200  -34.096600  -128.857000
  C     32.884700  -35.810200  -127.778000
  H     33.249300  -36.313300  -126.924000
  H     32.881300  -36.535000  -128.670000
  H     31.869300  -35.564300  -127.468000
  H     34.501500  -27.919500  -129.663000
  H     29.629300  -32.897700  -125.249000

 Total Charge           Charge          ....    0
 Multiplicity           Mult            ....    1
 Number of Electrons    NEL             ....  134
 Basis Dimension        Dim             ....  322

ORBITAL ENERGIES
----------------

  NO   OCC          E(Eh)            E(eV)
   0   2.0000     -88.972012     -2421.0515
   1   2.0000     -88.962079     -2420.7812
   2   2.0000     -10.335990      -281.2566
   3   2.0000     -10.327402      -281.0229
   4   2.0000     -10.320830      -280.8441
   5   2.0000     -10.308448      -280.5071
   6   2.0000     -10.299852      -280.2732
   7   2.0000     -10.299512      -280.2640
   8   2.0000     -10.295420      -280.1526
   9   2.0000     -10.292938      -280.0851
  10   2.0000     -10.292496      -280.0731
  11   2.0000     -10.292082      -280.0618
  12   2.0000     -10.286808      -279.9183
  13   2.0000     -10.284463      -279.8545
  14   2.0000     -10.279934      -279.7312
  15   2.0000     -10.279351      -279.7154
  16   2.0000      -8.085002      -220.0041
  17   2.0000      -8.077715      -219.8058
  18   2.0000      -6.043748      -164.4587
  19   2.0000      -6.040019      -164.3573
  20   2.0000      -6.036167      -164.2525
  21   2.0000      -6.035335      -164.2298
  22   2.0000      -6.032152      -164.1432
  23   2.0000      -6.028458      -164.0427
  24   2.0000      -1.008583       -27.4449
  25   2.0000      -0.983281       -26.7564
  26   2.0000      -0.917708       -24.9721
  27   2.0000      -0.912523       -24.8310
  28   2.0000      -0.871567       -23.7165
  29   2.0000      -0.854521       -23.2527
  30   2.0000      -0.846265       -23.0280
  31   2.0000      -0.819126       -22.2896
  32   2.0000      -0.782266       -21.2865
  33   2.0000      -0.770436       -20.9646
  34   2.0000      -0.715002       -19.4562
  35   2.0000      -0.702791       -19.1239
  36   2.0000      -0.691729       -18.8229
  37   2.0000      -0.667156       -18.1542
  38   2.0000      -0.633378       -17.2351
  39   2.0000      -0.624828       -17.0024
  40   2.0000      -0.597141       -16.2490
  41   2.0000      -0.571640       -15.5551
  42   2.0000      -0.564240       -15.3537
  43   2.0000      -0.556501       -15.1432
  44   2.0000      -0.550239       -14.9728
  45   2.0000      -0.543645       -14.7933
  46   2.0000      -0.518646       -14.1131
  47   2.0000      -0.506867       -13.7925
  48   2.0000      -0.496110       -13.4998
  49   2.0000      -0.495517       -13.4837
  50   2.0000      -0.487721       -13.2716
  51   2.0000      -0.483239       -13.1496
  52   2.0000      -0.470817       -12.8116
  53   2.0000      -0.466324       -12.6893
  54   2.0000      -0.456436       -12.4203
  55   2.0000      -0.448727       -12.2105
  56   2.0000      -0.446490       -12.1496
  57   2.0000      -0.442959       -12.0535
  58   2.0000      -0.432111       -11.7583
  59   2.0000      -0.424898       -11.5621
  60   2.0000      -0.422122       -11.4865
  61   2.0000      -0.418190       -11.3795
  62   2.0000      -0.413880       -11.2622
  63   2.0000      -0.360801        -9.8179
  64   2.0000      -0.337465        -9.1829
  65   2.0000      -0.326569        -8.8864
  66   2.0000      -0.279606        -7.6085
  67   0.0000       0.016304         0.4437
  68   0.0000       0.074063         2.0154
  69   0.0000       0.096469         2.6250
  70   0.0000       0.123691         3.3658
  71   0.0000       0.129748         3.5306

MULLIKEN ATOMIC CHARGES
-----------------------
   0 S :    0.110953
   1 C :   -0.120419
   2 C :   -0.114948
   3 C :   -0.025555
   4 C :   -0.092952
   5 H :    0.009650
   6 C :    0.073124
   7 H :    0.001195
   8 H :    0.047023
   9 C :   -0.088467
  10 H :    0.034015
  11 H :    0.036442
  12 C :   -0.053016
  13 H :    0.050414
  14 H :    0.038873
  15 H :    0.029759
  16 S :    0.083384
  17 C :   -0.044255
  18 C :   -0.023394
  19 C :   -0.109784
  20 C :   -0.094162
  21 H :    0.023923
  22 C :    0.037775
  23 H :    0.009260
  24 H :    0.023971
  25 C :   -0.001896
  26 H :    0.034727
  27 H :    0.026754
  28 C :   -0.077437
  29 H :    0.011067
  30 H :    0.050985
  31 H :    0.038453
  32 H :    0.056787
  33 H :    0.017752
Sum of atomic charges:   -0.0000000

LOEWDIN ATOMIC CHARGES
----------------------
   0 S :    0.372974
   1 C :   -0.199317
   2 C :   -0.063616
   3 C :   -0.068643
   4 C :   -0.166685
   5 H :    0.033637
   6 C :   -0.028324
   7 H :    0.025276
   8 H :    0.034984
   9 C :   -0.040750
  10 H :    0.017803
  11 H :    0.029144
  12 C :   -0.066525
  13 H :    0.028847
  14 H :    0.029956
  15 H :    0.028109
  16 S :    0.404964
  17 C :   -0.160335
  18 C :   -0.069149
  19 C :   -0.060362
  20 C :   -0.200813
  21 H :    0.035380
  22 C :   -0.037909
  23 H :    0.029915
  24 H :    0.026512
  25 C :   -0.029894
  26 H :    0.029523
  27 H :    0.011985
  28 C :   -0.066500
  29 H :    0.017530
  30 H :    0.037781
  31 H :    0.022064
  32 H :    0.035193
  33 H :    0.007246

  Mayer bond orders larger than 0.100000
B(  0-S ,  1-C ) :   1.1211 B(  0-S ,  4-C ) :   1.1224 B(  1-C ,  2-C ) :   1.6133
B(  1-C ,  4-C ) :   0.1030 B(  1-C , 32-H ) :   0.9546 B(  2-C ,  3-C ) :   1.2350
B(  2-C ,  6-C ) :   1.0245 B(  3-C ,  4-C ) :   1.5850 B(  3-C ,  5-H ) :   0.9801
B(  4-C , 20-C ) :   1.0745 B(  6-C ,  7-H ) :   0.9390 B(  6-C ,  8-H ) :   0.9337
B(  6-C ,  9-C ) :   1.0625 B(  9-C , 10-H ) :   0.9573 B(  9-C , 11-H ) :   0.9572
B(  9-C , 12-C ) :   1.0649 B( 12-C , 13-H ) :   0.9773 B( 12-C , 14-H ) :   0.9737
B( 12-C , 15-H ) :   0.9753 B( 16-S , 17-C ) :   1.1511 B( 16-S , 20-C ) :   1.1392
B( 17-C , 18-C ) :   1.6134 B( 17-C , 33-H ) :   0.9776 B( 18-C , 19-C ) :   1.2498
B( 18-C , 21-H ) :   0.9858 B( 19-C , 20-C ) :   1.5729 B( 19-C , 22-C ) :   1.0189
B( 22-C , 23-H ) :   0.9435 B( 22-C , 24-H ) :   0.9425 B( 22-C , 25-C ) :   1.0398
B( 25-C , 26-H ) :   0.9578 B( 25-C , 27-H ) :   0.9532 B( 25-C , 28-C ) :   1.0750
B( 28-C , 29-H ) :   0.9748 B( 28-C , 30-H ) :   0.9726 B( 28-C , 31-H ) :   0.9725

Dispersion correction           -0.015284502
FINAL SINGLE POINT ENERGY     -1339.857229508860

DIPOLE MOMENT
-------------
                                X             Y             Z
Electronic contribution:    -23.11304      16.34404       5.57764
Nuclear contribution   :     23.67264     -16.90060      -5.71190
                        -----------------------------------------
Total Dipole Moment    :      0.55960      -0.55657      -0.13426
                        -----------------------------------------
Magnitude (a.u.)       :      0.80059
Magnitude (Debye)      :      2.03494

Rotational constants in cm-1:     0.018577     0.010176     0.007155
Rotational constants in MHz :   556.921474   305.057892   214.513746

                             ****ORCA TERMINATED NORMALLY****
TOTAL RUN TIME: 0 days 0 hours 0 minutes 23 seconds 43 msec
