                         Program Version 4.2.1 -  RELEASE  -
|  1> ! wB97X-D3 SP def2-SVP
|  2> %pal
|  3> nprocs 24
|  4> end
|  5>
|  6> * xyz 0 1
|  7> S 	 45.6073 	 -13.0478 	 -128.335
|  8> C 	 46.5332 	 -11.7243 	 -127.706
|  9> C 	 46.6553 	 -11.8466 	 -126.296
| 10> C 	 45.8375 	 -12.8707 	 -125.8
| 11> C 	 45.0814 	 -13.5681 	 -126.761
| 12> H 	 45.6934 	 -13.0567 	 -124.757
| 13> C 	 47.3972 	 -10.75 	 -125.434
| 14> H 	 48.0569 	 -10.1672 	 -126.085
| 15> H 	 48.0565 	 -11.2313 	 -124.778
| 16> C 	 46.5475 	 -9.63664 	 -124.685
| 17> H 	 45.953 	 -10.1441 	 -123.941
| 18> H 	 47.2031 	 -8.85387 	 -124.233
| 19> C 	 45.5614 	 -8.871 	 -125.543
| 20> H 	 44.7289 	 -9.47726 	 -125.932
| 21> H 	 45.1068 	 -8.08196 	 -124.853
| 22> H 	 46.0399 	 -8.38053 	 -126.431
| 23> S 	 44.144 	 -15.8534 	 -125.441
| 24> C 	 42.4355 	 -16.1068 	 -125.449
| 25> C 	 41.7507 	 -15.2828 	 -126.351
| 26> C 	 42.6151 	 -14.3236 	 -126.955
| 27> C 	 43.9438 	 -14.4034 	 -126.487
| 28> H 	 40.7364 	 -15.389 	 -126.499
| 29> C 	 42.126 	 -13.3117 	 -127.968
| 30> H 	 42.8002 	 -12.4362 	 -127.949
| 31> H 	 41.1612 	 -12.9084 	 -127.57
| 32> C 	 41.9962 	 -13.7358 	 -129.447
| 33> H 	 42.9548 	 -14.0117 	 -129.856
| 34> H 	 41.6562 	 -12.8828 	 -130.139
| 35> C 	 41.179 	 -15.0468 	 -129.639
| 36> H 	 41.403 	 -15.5557 	 -130.518
| 37> H 	 40.0345 	 -15.0041 	 -129.621
| 38> H 	 41.402 	 -15.8592 	 -128.972
| 39> H 	 47.0569 	 -10.9572 	 -128.363
| 40> H 	 41.976 	 -16.7539 	 -124.717
| 41> *
| 42>
| 43>                          ****END OF INPUT****

CARTESIAN COORDINATES (ANGSTROEM)
---------------------------------
  S     45.607300  -13.047800  -128.335000
  C     46.533200  -11.724300  -127.706000
  C     46.655300  -11.846600  -126.296000
  C     45.837500  -12.870700  -125.800000
  C     45.081400  -13.568100  -126.761000
  H     45.693400  -13.056700  -124.757000
  C     47.397200  -10.750000  -125.434000
  H     48.056900  -10.167200  -126.085000
  H     48.056500  -11.231300  -124.778000
  C     46.547500   -9.636640  -124.685000
  H     45.953000  -10.144100  -123.941000
  H     47.203100   -8.853870  -124.233000
  C     45.561400   -8.871000  -125.543000
  H     44.728900   -9.477260  -125.932000
  H     45.106800   -8.081960  -124.853000
  H     46.039900   -8.380530  -126.431000
  S     44.144000  -15.853400  -125.441000
  C     42.435500  -16.106800  -125.449000
  C     41.750700  -15.282800  -126.351000
  C     42.615100  -14.323600  -126.955000
  C     43.943800  -14.403400  -126.487000
  H     40.736400  -15.389000  -126.499000
  C     42.126000  -13.311700  -127.968000
  H     42.800200  -12.436200  -127.949000
  H     41.161200  -12.908400  -127.570000
  C     41.996200  -13.735800  -129.447000
  H     42.954800  -14.011700  -129.856000
  H     41.656200  -12.882800  -130.139000
  C     41.179000  -15.046800  -129.639000
  H     41.403000  -15.555700  -130.518000
  H     40.034500  -15.004100  -129.621000
  H     41.402000  -15.859200  -128.972000
  H     47.056900  -10.957200  -128.363000
  H     41.976000  -16.753900  -124.717000

 Total Charge           Charge          ....    0
 Multiplicity           Mult            ....    1
 Number of Electrons    NEL             ....  134
 Basis Dimension        Dim             ....  322

ORBITAL ENERGIES
----------------

  NO   OCC          E(Eh)            E(eV)
   0   2.0000     -88.971348     -2421.0334
   1   2.0000     -88.967408     -2420.9262
   2   2.0000     -10.330594      -281.1098
   3   2.0000     -10.329767      -281.0872
   4   2.0000     -10.324033      -280.9312
   5   2.0000     -10.318327      -280.7759
   6   2.0000     -10.308681      -280.5135
   7   2.0000     -10.307589      -280.4838
   8   2.0000     -10.295830      -280.1638
   9   2.0000     -10.295096      -280.1438
  10   2.0000     -10.294574      -280.1296
  11   2.0000     -10.293723      -280.1064
  12   2.0000     -10.292122      -280.0629
  13   2.0000     -10.291115      -280.0355
  14   2.0000     -10.282327      -279.7963
  15   2.0000     -10.271349      -279.4976
  16   2.0000      -8.085696      -220.0230
  17   2.0000      -8.081751      -219.9156
  18   2.0000      -6.044001      -164.4656
  19   2.0000      -6.040141      -164.3606
  20   2.0000      -6.040040      -164.3578
  21   2.0000      -6.036914      -164.2728
  22   2.0000      -6.036367      -164.2579
  23   2.0000      -6.032617      -164.1559
  24   2.0000      -1.005234       -27.3538
  25   2.0000      -0.982212       -26.7274
  26   2.0000      -0.903270       -24.5792
  27   2.0000      -0.900771       -24.5112
  28   2.0000      -0.867607       -23.6088
  29   2.0000      -0.849780       -23.1237
  30   2.0000      -0.844824       -22.9888
  31   2.0000      -0.809775       -22.0351
  32   2.0000      -0.785287       -21.3687
  33   2.0000      -0.770998       -20.9799
  34   2.0000      -0.708753       -19.2861
  35   2.0000      -0.692955       -18.8563
  36   2.0000      -0.684931       -18.6379
  37   2.0000      -0.667379       -18.1603
  38   2.0000      -0.638370       -17.3709
  39   2.0000      -0.617977       -16.8160
  40   2.0000      -0.591340       -16.0912
  41   2.0000      -0.565105       -15.3773
  42   2.0000      -0.552065       -15.0225
  43   2.0000      -0.547730       -14.9045
  44   2.0000      -0.542126       -14.7520
  45   2.0000      -0.536320       -14.5940
  46   2.0000      -0.517897       -14.0927
  47   2.0000      -0.509040       -13.8517
  48   2.0000      -0.501263       -13.6401
  49   2.0000      -0.486522       -13.2389
  50   2.0000      -0.485730       -13.2174
  51   2.0000      -0.475542       -12.9402
  52   2.0000      -0.472187       -12.8489
  53   2.0000      -0.465829       -12.6759
  54   2.0000      -0.460038       -12.5183
  55   2.0000      -0.446343       -12.1456
  56   2.0000      -0.438122       -11.9219
  57   2.0000      -0.432176       -11.7601
  58   2.0000      -0.431839       -11.7509
  59   2.0000      -0.426050       -11.5934
  60   2.0000      -0.420449       -11.4410
  61   2.0000      -0.414702       -11.2846
  62   2.0000      -0.409020       -11.1300
  63   2.0000      -0.342421        -9.3178
  64   2.0000      -0.334243        -9.0952
  65   2.0000      -0.330114        -8.9829
  66   2.0000      -0.289818        -7.8863
  67   0.0000       0.019016         0.5175
  68   0.0000       0.069995         1.9047
  69   0.0000       0.101584         2.7642
  70   0.0000       0.118507         3.2247
  71   0.0000       0.125538         3.4161

MULLIKEN ATOMIC CHARGES
-----------------------
   0 S :    0.128882
   1 C :   -0.166692
   2 C :   -0.083896
   3 C :    0.041469
   4 C :   -0.174436
   5 H :    0.006143
   6 C :    0.087917
   7 H :    0.010669
   8 H :    0.021410
   9 C :   -0.072913
  10 H :    0.028832
  11 H :    0.043602
  12 C :   -0.096089
  13 H :    0.046718
  14 H :    0.043406
  15 H :    0.032334
  16 S :    0.111335
  17 C :   -0.100532
  18 C :    0.000289
  19 C :   -0.030856
  20 C :   -0.157515
  21 H :   -0.006987
  22 C :    0.049664
  23 H :    0.033103
  24 H :    0.032339
  25 C :   -0.036798
  26 H :    0.018467
  27 H :    0.050431
  28 C :   -0.070398
  29 H :    0.008217
  30 H :    0.031948
  31 H :    0.026765
  32 H :    0.081413
  33 H :    0.061756
Sum of atomic charges:    0.0000000

LOEWDIN ATOMIC CHARGES
----------------------
   0 S :    0.437232
   1 C :   -0.214294
   2 C :   -0.067120
   3 C :   -0.054650
   4 C :   -0.209659
   5 H :    0.027308
   6 C :   -0.025481
   7 H :    0.026937
   8 H :    0.022177
   9 C :   -0.042466
  10 H :    0.020694
  11 H :    0.032511
  12 C :   -0.076534
  13 H :    0.026307
  14 H :    0.035108
  15 H :    0.023981
  16 S :    0.399395
  17 C :   -0.186087
  18 C :   -0.060428
  19 C :   -0.047658
  20 C :   -0.188876
  21 H :    0.019774
  22 C :   -0.041709
  23 H :    0.029060
  24 H :    0.034125
  25 C :   -0.038281
  26 H :    0.019168
  27 H :    0.038717
  28 C :   -0.081298
  29 H :    0.017284
  30 H :    0.028354
  31 H :    0.026216
  32 H :    0.043375
  33 H :    0.026820

  Mayer bond orders larger than 0.100000
B(  0-S ,  1-C ) :   1.1781 B(  0-S ,  4-C ) :   1.1599 B(  1-C ,  2-C ) :   1.5315
B(  1-C ,  4-C ) :   0.1074 B(  1-C , 32-H ) :   0.9603 B(  2-C ,  3-C ) :   1.3088
B(  2-C ,  6-C ) :   1.0197 B(  3-C ,  4-C ) :   1.5070 B(  3-C ,  5-H ) :   0.9975
B(  4-C , 20-C ) :   1.0659 B(  6-C ,  7-H ) :   0.9452 B(  6-C ,  8-H ) :   0.9437
B(  6-C ,  9-C ) :   1.0586 B(  9-C , 10-H ) :   0.9571 B(  9-C , 11-H ) :   0.9584
B(  9-C , 12-C ) :   1.0777 B( 12-C , 13-H ) :   0.9732 B( 12-C , 14-H ) :   0.9731
B( 12-C , 15-H ) :   0.9756 B( 16-S , 17-C ) :   1.1723 B( 16-S , 20-C ) :   1.1315
B( 17-C , 18-C ) :   1.5716 B( 17-C , 20-C ) :   0.1011 B( 17-C , 33-H ) :   0.9671
B( 18-C , 19-C ) :   1.2493 B( 18-C , 21-H ) :   1.0058 B( 19-C , 20-C ) :   1.5620
B( 19-C , 22-C ) :   1.0436 B( 22-C , 23-H ) :   0.9289 B( 22-C , 24-H ) :   0.9381
B( 22-C , 25-C ) :   1.0687 B( 25-C , 26-H ) :   0.9500 B( 25-C , 27-H ) :   0.9563
B( 25-C , 28-C ) :   1.0695 B( 28-C , 29-H ) :   0.9722 B( 28-C , 30-H ) :   0.9760
B( 28-C , 31-H ) :   0.9663

Dispersion correction           -0.015216474
FINAL SINGLE POINT ENERGY     -1339.870645916154

DIPOLE MOMENT
-------------
                                X             Y             Z
Electronic contribution:      6.61905     -16.71409       2.74029
Nuclear contribution   :     -6.76105      17.09781      -2.61319
                        -----------------------------------------
Total Dipole Moment    :     -0.14200       0.38371       0.12711
                        -----------------------------------------
Magnitude (a.u.)       :      0.42843
Magnitude (Debye)      :      1.08899

Rotational constants in cm-1:     0.020929     0.008265     0.007190
Rotational constants in MHz :   627.420765   247.771752   215.544939

                             ****ORCA TERMINATED NORMALLY****
TOTAL RUN TIME: 0 days 0 hours 0 minutes 20 seconds 622 msec
