                         Program Version 4.2.1 -  RELEASE  -
|  1> ! wB97X-D3 SP def2-SVP
|  2> %pal
|  3> nprocs 24
|  4> end
|  5>
|  6> * xyz 0 1
|  7> S 	 -45.6961 	 10.8852 	 29.4716
|  8> C 	 -46.6295 	 9.87924 	 28.4032
|  9> C 	 -47.0127 	 10.6305 	 27.3117
| 10> C 	 -46.5597 	 12.036 	 27.3132
| 11> C 	 -45.8028 	 12.2954 	 28.4199
| 12> H 	 -46.605 	 12.7542 	 26.5447
| 13> C 	 -47.9816 	 10.2122 	 26.2377
| 14> H 	 -47.6835 	 9.13528 	 26.0452
| 15> H 	 -47.7102 	 10.8116 	 25.3945
| 16> C 	 -49.4522 	 10.2442 	 26.7484
| 17> H 	 -50.0336 	 9.61006 	 26.0273
| 18> H 	 -49.5099 	 9.72045 	 27.6565
| 19> C 	 -50.1337 	 11.5725 	 26.9391
| 20> H 	 -49.6775 	 12.1022 	 27.8101
| 21> H 	 -49.8279 	 12.1471 	 26.0347
| 22> H 	 -51.2033 	 11.5544 	 26.8775
| 23> S 	 -43.4606 	 13.5082 	 29.4769
| 24> C 	 -43.4034 	 15.2494 	 29.6973
| 25> C 	 -44.4552 	 15.7955 	 29.0214
| 26> C 	 -45.3561 	 14.8093 	 28.4978
| 27> C 	 -45.0324 	 13.5269 	 28.6766
| 28> H 	 -44.5994 	 16.8584 	 29.0691
| 29> C 	 -46.7739 	 15.2751 	 28.1931
| 30> H 	 -47.1763 	 15.7129 	 29.088
| 31> H 	 -47.343 	 14.3915 	 28.0106
| 32> C 	 -46.8675 	 16.3622 	 27.1017
| 33> H 	 -46.4758 	 17.2618 	 27.4599
| 34> H 	 -47.8942 	 16.7474 	 26.9855
| 35> C 	 -46.3249 	 15.8135 	 25.7262
| 36> H 	 -45.5556 	 15.0675 	 25.8701
| 37> H 	 -46.0225 	 16.6211 	 24.9877
| 38> H 	 -46.9777 	 15.1357 	 25.2472
| 39> H 	 -46.9406 	 8.85919 	 28.6582
| 40> H 	 -42.7693 	 15.8802 	 30.3173
| 41> *
| 42>
| 43>                          ****END OF INPUT****

CARTESIAN COORDINATES (ANGSTROEM)
---------------------------------
  S    -45.696100   10.885200   29.471600
  C    -46.629500    9.879240   28.403200
  C    -47.012700   10.630500   27.311700
  C    -46.559700   12.036000   27.313200
  C    -45.802800   12.295400   28.419900
  H    -46.605000   12.754200   26.544700
  C    -47.981600   10.212200   26.237700
  H    -47.683500    9.135280   26.045200
  H    -47.710200   10.811600   25.394500
  C    -49.452200   10.244200   26.748400
  H    -50.033600    9.610060   26.027300
  H    -49.509900    9.720450   27.656500
  C    -50.133700   11.572500   26.939100
  H    -49.677500   12.102200   27.810100
  H    -49.827900   12.147100   26.034700
  H    -51.203300   11.554400   26.877500
  S    -43.460600   13.508200   29.476900
  C    -43.403400   15.249400   29.697300
  C    -44.455200   15.795500   29.021400
  C    -45.356100   14.809300   28.497800
  C    -45.032400   13.526900   28.676600
  H    -44.599400   16.858400   29.069100
  C    -46.773900   15.275100   28.193100
  H    -47.176300   15.712900   29.088000
  H    -47.343000   14.391500   28.010600
  C    -46.867500   16.362200   27.101700
  H    -46.475800   17.261800   27.459900
  H    -47.894200   16.747400   26.985500
  C    -46.324900   15.813500   25.726200
  H    -45.555600   15.067500   25.870100
  H    -46.022500   16.621100   24.987700
  H    -46.977700   15.135700   25.247200
  H    -46.940600    8.859190   28.658200
  H    -42.769300   15.880200   30.317300

 Total Charge           Charge          ....    0
 Multiplicity           Mult            ....    1
 Number of Electrons    NEL             ....  134
 Basis Dimension        Dim             ....  322

ORBITAL ENERGIES
----------------

  NO   OCC          E(Eh)            E(eV)
   0   2.0000     -88.966350     -2420.8974
   1   2.0000     -88.961592     -2420.7680
   2   2.0000     -10.335548      -281.2446
   3   2.0000     -10.326211      -280.9905
   4   2.0000     -10.318960      -280.7932
   5   2.0000     -10.318448      -280.7793
   6   2.0000     -10.305301      -280.4215
   7   2.0000     -10.296119      -280.1716
   8   2.0000     -10.296069      -280.1703
   9   2.0000     -10.294558      -280.1292
  10   2.0000     -10.290534      -280.0197
  11   2.0000     -10.287436      -279.9354
  12   2.0000     -10.286083      -279.8985
  13   2.0000     -10.284267      -279.8491
  14   2.0000     -10.279434      -279.7176
  15   2.0000     -10.279380      -279.7161
  16   2.0000      -8.081105      -219.8981
  17   2.0000      -8.076243      -219.7658
  18   2.0000      -6.039782      -164.3508
  19   2.0000      -6.035476      -164.2336
  20   2.0000      -6.035014      -164.2211
  21   2.0000      -6.031808      -164.1338
  22   2.0000      -6.030750      -164.1051
  23   2.0000      -6.026688      -163.9945
  24   2.0000      -1.010598       -27.4998
  25   2.0000      -0.988288       -26.8927
  26   2.0000      -0.912750       -24.8372
  27   2.0000      -0.906485       -24.6667
  28   2.0000      -0.875241       -23.8165
  29   2.0000      -0.850214       -23.1355
  30   2.0000      -0.838984       -22.8299
  31   2.0000      -0.824534       -22.4367
  32   2.0000      -0.780488       -21.2382
  33   2.0000      -0.774376       -21.0718
  34   2.0000      -0.714749       -19.4493
  35   2.0000      -0.706589       -19.2273
  36   2.0000      -0.698908       -19.0182
  37   2.0000      -0.663333       -18.0502
  38   2.0000      -0.646646       -17.5961
  39   2.0000      -0.613311       -16.6890
  40   2.0000      -0.590097       -16.0574
  41   2.0000      -0.575495       -15.6600
  42   2.0000      -0.555282       -15.1100
  43   2.0000      -0.552567       -15.0361
  44   2.0000      -0.546092       -14.8599
  45   2.0000      -0.530122       -14.4254
  46   2.0000      -0.523979       -14.2582
  47   2.0000      -0.517031       -14.0691
  48   2.0000      -0.509930       -13.8759
  49   2.0000      -0.500455       -13.6181
  50   2.0000      -0.493049       -13.4165
  51   2.0000      -0.486296       -13.2328
  52   2.0000      -0.472258       -12.8508
  53   2.0000      -0.468659       -12.7529
  54   2.0000      -0.457525       -12.4499
  55   2.0000      -0.447769       -12.1844
  56   2.0000      -0.445666       -12.1272
  57   2.0000      -0.434374       -11.8199
  58   2.0000      -0.429976       -11.7002
  59   2.0000      -0.424706       -11.5568
  60   2.0000      -0.421059       -11.4576
  61   2.0000      -0.406815       -11.0700
  62   2.0000      -0.401519       -10.9259
  63   2.0000      -0.361099        -9.8260
  64   2.0000      -0.327607        -8.9146
  65   2.0000      -0.326960        -8.8970
  66   2.0000      -0.296938        -8.0801
  67   0.0000       0.025039         0.6813
  68   0.0000       0.080733         2.1969
  69   0.0000       0.113441         3.0869
  70   0.0000       0.116587         3.1725
  71   0.0000       0.130172         3.5422

MULLIKEN ATOMIC CHARGES
-----------------------
   0 S :    0.104823
   1 C :   -0.125468
   2 C :   -0.110083
   3 C :    0.035450
   4 C :   -0.139496
   5 H :   -0.009366
   6 C :    0.056604
   7 H :    0.034068
   8 H :    0.022141
   9 C :   -0.049383
  10 H :    0.029653
  11 H :    0.009768
  12 C :   -0.046802
  13 H :    0.055519
  14 H :    0.016421
  15 H :    0.040536
  16 S :    0.089363
  17 C :   -0.086174
  18 C :   -0.031148
  19 C :   -0.054868
  20 C :   -0.112618
  21 H :    0.017674
  22 C :    0.053464
  23 H :    0.029245
  24 H :    0.008348
  25 C :   -0.027269
  26 H :    0.004833
  27 H :    0.021298
  28 C :   -0.059700
  29 H :    0.031206
  30 H :    0.053430
  31 H :    0.015925
  32 H :    0.062168
  33 H :    0.060440
Sum of atomic charges:   -0.0000000

LOEWDIN ATOMIC CHARGES
----------------------
   0 S :    0.403088
   1 C :   -0.205480
   2 C :   -0.060197
   3 C :   -0.063357
   4 C :   -0.175235
   5 H :    0.023687
   6 C :   -0.032872
   7 H :    0.040228
   8 H :    0.024749
   9 C :   -0.039279
  10 H :    0.027120
  11 H :    0.015305
  12 C :   -0.069724
  13 H :    0.033695
  14 H :    0.026540
  15 H :    0.027084
  16 S :    0.384376
  17 C :   -0.175133
  18 C :   -0.068887
  19 C :   -0.066837
  20 C :   -0.192023
  21 H :    0.028930
  22 C :   -0.022722
  23 H :    0.031582
  24 H :    0.020718
  25 C :   -0.036881
  26 H :    0.013010
  27 H :    0.028189
  28 C :   -0.074670
  29 H :    0.024573
  30 H :    0.036851
  31 H :    0.018945
  32 H :    0.036417
  33 H :    0.038210

  Mayer bond orders larger than 0.100000
B(  0-S ,  1-C ) :   1.1208 B(  0-S ,  4-C ) :   1.1503 B(  1-C ,  2-C ) :   1.6224
B(  1-C , 32-H ) :   0.9705 B(  2-C ,  3-C ) :   1.2084 B(  2-C ,  6-C ) :   1.0271
B(  3-C ,  4-C ) :   1.5858 B(  3-C ,  5-H ) :   0.9951 B(  4-C , 20-C ) :   1.0357
B(  6-C ,  7-H ) :   0.9371 B(  6-C ,  8-H ) :   0.9440 B(  6-C ,  9-C ) :   1.0661
B(  9-C , 10-H ) :   0.9547 B(  9-C , 11-H ) :   0.9525 B(  9-C , 12-C ) :   1.0789
B( 12-C , 13-H ) :   0.9720 B( 12-C , 14-H ) :   0.9735 B( 12-C , 15-H ) :   0.9713
B( 16-S , 17-C ) :   1.1385 B( 16-S , 20-C ) :   1.1026 B( 17-C , 18-C ) :   1.6500
B( 17-C , 33-H ) :   0.9650 B( 18-C , 19-C ) :   1.2050 B( 18-C , 21-H ) :   0.9944
B( 19-C , 20-C ) :   1.6419 B( 19-C , 22-C ) :   1.0372 B( 22-C , 23-H ) :   0.9386
B( 22-C , 24-H ) :   0.9422 B( 22-C , 25-C ) :   1.0736 B( 25-C , 26-H ) :   0.9569
B( 25-C , 27-H ) :   0.9527 B( 25-C , 28-C ) :   1.0520 B( 28-C , 29-H ) :   0.9746
B( 28-C , 30-H ) :   0.9743 B( 28-C , 31-H ) :   0.9703

Dispersion correction           -0.015441910
FINAL SINGLE POINT ENERGY     -1339.861007594267

DIPOLE MOMENT
-------------
                                X             Y             Z
Electronic contribution:     21.95413      -7.40224      17.07582
Nuclear contribution   :    -22.55983       7.67978     -17.29501
                        -----------------------------------------
Total Dipole Moment    :     -0.60570       0.27754      -0.21920
                        -----------------------------------------
Magnitude (a.u.)       :      0.70139
Magnitude (Debye)      :      1.78278

Rotational constants in cm-1:     0.019190     0.009896     0.007087
Rotational constants in MHz :   575.299744   296.663862   212.459250

                             ****ORCA TERMINATED NORMALLY****
TOTAL RUN TIME: 0 days 0 hours 0 minutes 21 seconds 428 msec
