                         Program Version 4.2.1 -  RELEASE  -
|  1> ! wB97X-D3 SP def2-SVP
|  2> %pal
|  3> nprocs 24
|  4> end
|  5>
|  6> * xyz 0 1
|  7> S 	 -102.785 	 4.74807 	 -123.404
|  8> C 	 -103.637 	 4.22317 	 -124.901
|  9> C 	 -104.783 	 4.93819 	 -125.097
| 10> C 	 -105.035 	 5.81507 	 -124.033
| 11> C 	 -104.094 	 5.82915 	 -123.029
| 12> H 	 -105.801 	 6.47049 	 -123.988
| 13> C 	 -105.583 	 4.91716 	 -126.408
| 14> H 	 -104.883 	 4.49274 	 -127.167
| 15> H 	 -105.758 	 5.93162 	 -126.75
| 16> C 	 -106.896 	 4.08008 	 -126.437
| 17> H 	 -106.537 	 3.08791 	 -126.166
| 18> H 	 -107.707 	 4.43575 	 -125.83
| 19> C 	 -107.425 	 3.99795 	 -127.906
| 20> H 	 -106.675 	 3.54236 	 -128.504
| 21> H 	 -108.403 	 3.3583 	 -128.002
| 22> H 	 -107.694 	 4.94564 	 -128.39
| 23> S 	 -104.196 	 8.29204 	 -121.883
| 24> C 	 -104.241 	 8.36879 	 -120.093
| 25> C 	 -104.133 	 7.12123 	 -119.478
| 26> C 	 -104.027 	 6.06468 	 -120.42
| 27> C 	 -104.093 	 6.53741 	 -121.758
| 28> H 	 -104.096 	 7.0054 	 -118.403
| 29> C 	 -104.124 	 4.67875 	 -119.98
| 30> H 	 -104.526 	 4.09778 	 -120.829
| 31> H 	 -104.851 	 4.62985 	 -119.179
| 32> C 	 -102.819 	 3.98062 	 -119.57
| 33> H 	 -102.197 	 3.92357 	 -120.427
| 34> H 	 -102.933 	 2.91243 	 -119.21
| 35> C 	 -101.996 	 4.66317 	 -118.491
| 36> H 	 -101.252 	 3.92621 	 -118.178
| 37> H 	 -102.743 	 4.76903 	 -117.626
| 38> H 	 -101.575 	 5.67229 	 -118.751
| 39> H 	 -103.188 	 3.52383 	 -125.552
| 40> H 	 -104.25 	 9.34654 	 -119.592
| 41> *
| 42>
| 43>                          ****END OF INPUT****

CARTESIAN COORDINATES (ANGSTROEM)
---------------------------------
  S    -102.785000    4.748070  -123.404000
  C    -103.637000    4.223170  -124.901000
  C    -104.783000    4.938190  -125.097000
  C    -105.035000    5.815070  -124.033000
  C    -104.094000    5.829150  -123.029000
  H    -105.801000    6.470490  -123.988000
  C    -105.583000    4.917160  -126.408000
  H    -104.883000    4.492740  -127.167000
  H    -105.758000    5.931620  -126.750000
  C    -106.896000    4.080080  -126.437000
  H    -106.537000    3.087910  -126.166000
  H    -107.707000    4.435750  -125.830000
  C    -107.425000    3.997950  -127.906000
  H    -106.675000    3.542360  -128.504000
  H    -108.403000    3.358300  -128.002000
  H    -107.694000    4.945640  -128.390000
  S    -104.196000    8.292040  -121.883000
  C    -104.241000    8.368790  -120.093000
  C    -104.133000    7.121230  -119.478000
  C    -104.027000    6.064680  -120.420000
  C    -104.093000    6.537410  -121.758000
  H    -104.096000    7.005400  -118.403000
  C    -104.124000    4.678750  -119.980000
  H    -104.526000    4.097780  -120.829000
  H    -104.851000    4.629850  -119.179000
  C    -102.819000    3.980620  -119.570000
  H    -102.197000    3.923570  -120.427000
  H    -102.933000    2.912430  -119.210000
  C    -101.996000    4.663170  -118.491000
  H    -101.252000    3.926210  -118.178000
  H    -102.743000    4.769030  -117.626000
  H    -101.575000    5.672290  -118.751000
  H    -103.188000    3.523830  -125.552000
  H    -104.250000    9.346540  -119.592000

 Total Charge           Charge          ....    0
 Multiplicity           Mult            ....    1
 Number of Electrons    NEL             ....  134
 Basis Dimension        Dim             ....  322

ORBITAL ENERGIES
----------------

  NO   OCC          E(Eh)            E(eV)
   0   2.0000     -88.969403     -2420.9805
   1   2.0000     -88.965232     -2420.8670
   2   2.0000     -10.329825      -281.0888
   3   2.0000     -10.327273      -281.0194
   4   2.0000     -10.323750      -280.9235
   5   2.0000     -10.313708      -280.6503
   6   2.0000     -10.303372      -280.3690
   7   2.0000     -10.300070      -280.2791
   8   2.0000     -10.298627      -280.2399
   9   2.0000     -10.297026      -280.1963
  10   2.0000     -10.291431      -280.0441
  11   2.0000     -10.285634      -279.8863
  12   2.0000     -10.285173      -279.8738
  13   2.0000     -10.283236      -279.8211
  14   2.0000     -10.281835      -279.7830
  15   2.0000     -10.281431      -279.7720
  16   2.0000      -8.083197      -219.9550
  17   2.0000      -8.079374      -219.8510
  18   2.0000      -6.041615      -164.4007
  19   2.0000      -6.037949      -164.3010
  20   2.0000      -6.037789      -164.2966
  21   2.0000      -6.034019      -164.1940
  22   2.0000      -6.033994      -164.1933
  23   2.0000      -6.030239      -164.0911
  24   2.0000      -1.005115       -27.3506
  25   2.0000      -0.980716       -26.6866
  26   2.0000      -0.911717       -24.8091
  27   2.0000      -0.907539       -24.6954
  28   2.0000      -0.868430       -23.6312
  29   2.0000      -0.852388       -23.1946
  30   2.0000      -0.844653       -22.9842
  31   2.0000      -0.814174       -22.1548
  32   2.0000      -0.782247       -21.2860
  33   2.0000      -0.766677       -20.8623
  34   2.0000      -0.706663       -19.2293
  35   2.0000      -0.699334       -19.0298
  36   2.0000      -0.683552       -18.6004
  37   2.0000      -0.669381       -18.2148
  38   2.0000      -0.647959       -17.6319
  39   2.0000      -0.619330       -16.8528
  40   2.0000      -0.593356       -16.1460
  41   2.0000      -0.573574       -15.6078
  42   2.0000      -0.562527       -15.3071
  43   2.0000      -0.553241       -15.0544
  44   2.0000      -0.547062       -14.8863
  45   2.0000      -0.521053       -14.1786
  46   2.0000      -0.513844       -13.9824
  47   2.0000      -0.511394       -13.9157
  48   2.0000      -0.505579       -13.7575
  49   2.0000      -0.493675       -13.4336
  50   2.0000      -0.488840       -13.3020
  51   2.0000      -0.476122       -12.9560
  52   2.0000      -0.468382       -12.7453
  53   2.0000      -0.462725       -12.5914
  54   2.0000      -0.457293       -12.4436
  55   2.0000      -0.449786       -12.2393
  56   2.0000      -0.443360       -12.0644
  57   2.0000      -0.435108       -11.8399
  58   2.0000      -0.431235       -11.7345
  59   2.0000      -0.426420       -11.6035
  60   2.0000      -0.421669       -11.4742
  61   2.0000      -0.418998       -11.4015
  62   2.0000      -0.410151       -11.1608
  63   2.0000      -0.341201        -9.2846
  64   2.0000      -0.336301        -9.1512
  65   2.0000      -0.329949        -8.9784
  66   2.0000      -0.292739        -7.9658
  67   0.0000       0.028730         0.7818
  68   0.0000       0.066138         1.7997
  69   0.0000       0.103636         2.8201
  70   0.0000       0.106694         2.9033
  71   0.0000       0.120696         3.2843

MULLIKEN ATOMIC CHARGES
-----------------------
   0 S :    0.103381
   1 C :   -0.133053
   2 C :   -0.029228
   3 C :    0.081179
   4 C :   -0.162778
   5 H :   -0.044787
   6 C :    0.025760
   7 H :    0.021509
   8 H :    0.030035
   9 C :   -0.035524
  10 H :    0.030744
  11 H :    0.040153
  12 C :   -0.086777
  13 H :    0.023790
  14 H :    0.046739
  15 H :    0.033895
  16 S :    0.108965
  17 C :   -0.105844
  18 C :   -0.028061
  19 C :   -0.009300
  20 C :   -0.169243
  21 H :    0.023940
  22 C :    0.056733
  23 H :    0.034587
  24 H :    0.027177
  25 C :   -0.064003
  26 H :    0.012791
  27 H :    0.035807
  28 C :   -0.090950
  29 H :    0.040406
  30 H :    0.023631
  31 H :    0.059442
  32 H :    0.033219
  33 H :    0.065664
Sum of atomic charges:   -0.0000000

LOEWDIN ATOMIC CHARGES
----------------------
   0 S :    0.396076
   1 C :   -0.170534
   2 C :   -0.061931
   3 C :   -0.052758
   4 C :   -0.194949
   5 H :    0.010570
   6 C :   -0.028654
   7 H :    0.033716
   8 H :    0.028000
   9 C :   -0.032721
  10 H :    0.027374
  11 H :    0.022868
  12 C :   -0.073301
  13 H :    0.016380
  14 H :    0.036440
  15 H :    0.023081
  16 S :    0.392636
  17 C :   -0.173425
  18 C :   -0.063426
  19 C :   -0.055563
  20 C :   -0.196868
  21 H :    0.034281
  22 C :   -0.037817
  23 H :    0.038099
  24 H :    0.030295
  25 C :   -0.043878
  26 H :    0.010447
  27 H :    0.032176
  28 C :   -0.075955
  29 H :    0.028562
  30 H :    0.024682
  31 H :    0.030236
  32 H :    0.016515
  33 H :    0.029344

  Mayer bond orders larger than 0.100000
B(  0-S ,  1-C ) :   1.1333 B(  0-S ,  4-C ) :   1.1540 B(  1-C ,  2-C ) :   1.6058
B(  1-C , 32-H ) :   0.9761 B(  2-C ,  3-C ) :   1.2408 B(  2-C ,  6-C ) :   1.0089
B(  3-C ,  4-C ) :   1.5744 B(  3-C ,  5-H ) :   1.0150 B(  4-C , 20-C ) :   1.0199
B(  6-C ,  7-H ) :   0.9475 B(  6-C ,  8-H ) :   0.9455 B(  6-C ,  9-C ) :   1.0547
B(  9-C , 10-H ) :   0.9553 B(  9-C , 11-H ) :   0.9613 B(  9-C , 12-C ) :   1.0747
B( 12-C , 13-H ) :   0.9764 B( 12-C , 14-H ) :   0.9754 B( 12-C , 15-H ) :   0.9767
B( 16-S , 17-C ) :   1.1469 B( 16-S , 20-C ) :   1.1520 B( 17-C , 18-C ) :   1.5999
B( 17-C , 20-C ) :   0.1060 B( 17-C , 33-H ) :   0.9656 B( 18-C , 19-C ) :   1.2390
B( 18-C , 21-H ) :   0.9889 B( 19-C , 20-C ) :   1.5647 B( 19-C , 22-C ) :   1.0486
B( 22-C , 23-H ) :   0.9245 B( 22-C , 24-H ) :   0.9415 B( 22-C , 25-C ) :   1.0716
B( 25-C , 26-H ) :   0.9471 B( 25-C , 27-H ) :   0.9560 B( 25-C , 28-C ) :   1.0830
B( 28-C , 29-H ) :   0.9725 B( 28-C , 30-H ) :   0.9744 B( 28-C , 31-H ) :   0.9681

Dispersion correction           -0.014333567
FINAL SINGLE POINT ENERGY     -1339.879089994979

DIPOLE MOMENT
-------------
                                X             Y             Z
Electronic contribution:      7.79350      14.09382       3.76464
Nuclear contribution   :     -8.04237     -14.26734      -3.84036
                        -----------------------------------------
Total Dipole Moment    :     -0.24887      -0.17352      -0.07572
                        -----------------------------------------
Magnitude (a.u.)       :      0.31269
Magnitude (Debye)      :      0.79481

Rotational constants in cm-1:     0.023862     0.007117     0.006166
Rotational constants in MHz :   715.362906   213.347886   184.846709

                             ****ORCA TERMINATED NORMALLY****
TOTAL RUN TIME: 0 days 0 hours 0 minutes 21 seconds 267 msec
