                         Program Version 4.2.1 -  RELEASE  -
|  1> ! wB97X-D3 SP def2-SVP
|  2> %pal
|  3> nprocs 24
|  4> end
|  5>
|  6> * xyz 0 1
|  7> S 	 -110.968 	 55.6196 	 -91.7741
|  8> C 	 -112.488 	 55.5551 	 -92.5357
|  9> C 	 -113.476 	 54.8567 	 -91.8248
| 10> C 	 -113.007 	 54.3794 	 -90.5845
| 11> C 	 -111.681 	 54.6829 	 -90.4066
| 12> H 	 -113.564 	 53.7934 	 -89.9335
| 13> C 	 -114.885 	 54.675 	 -92.3943
| 14> H 	 -115.153 	 55.6288 	 -92.9383
| 15> H 	 -115.477 	 54.5729 	 -91.4932
| 16> C 	 -115.168 	 53.4416 	 -93.2319
| 17> H 	 -114.567 	 53.6157 	 -94.1029
| 18> H 	 -114.687 	 52.6338 	 -92.8174
| 19> C 	 -116.563 	 53.2395 	 -93.7439
| 20> H 	 -116.904 	 54.1938 	 -94.233
| 21> H 	 -116.493 	 52.5188 	 -94.444
| 22> H 	 -117.324 	 53.0365 	 -92.9429
| 23> S 	 -109.635 	 55.5716 	 -88.862
| 24> C 	 -109.336 	 54.8977 	 -87.352
| 25> C 	 -109.917 	 53.6331 	 -87.3056
| 26> C 	 -110.821 	 53.3342 	 -88.3749
| 27> C 	 -110.94 	 54.4259 	 -89.2285
| 28> H 	 -109.791 	 52.9398 	 -86.5368
| 29> C 	 -111.414 	 51.9262 	 -88.4725
| 30> H 	 -112.276 	 51.9149 	 -89.1015
| 31> H 	 -111.73 	 51.5207 	 -87.5116
| 32> C 	 -110.37 	 50.9162 	 -88.9028
| 33> H 	 -110.779 	 49.8882 	 -88.6751
| 34> H 	 -109.357 	 50.9986 	 -88.4185
| 35> C 	 -110.185 	 50.94 	 -90.4205
| 36> H 	 -109.569 	 50.1755 	 -90.831
| 37> H 	 -109.835 	 51.8976 	 -90.7928
| 38> H 	 -111.167 	 50.7539 	 -90.829
| 39> H 	 -112.646 	 55.9505 	 -93.5778
| 40> H 	 -108.628 	 55.1307 	 -86.6226
| 41> *
| 42>
| 43>                          ****END OF INPUT****

CARTESIAN COORDINATES (ANGSTROEM)
---------------------------------
  S    -110.968000   55.619600  -91.774100
  C    -112.488000   55.555100  -92.535700
  C    -113.476000   54.856700  -91.824800
  C    -113.007000   54.379400  -90.584500
  C    -111.681000   54.682900  -90.406600
  H    -113.564000   53.793400  -89.933500
  C    -114.885000   54.675000  -92.394300
  H    -115.153000   55.628800  -92.938300
  H    -115.477000   54.572900  -91.493200
  C    -115.168000   53.441600  -93.231900
  H    -114.567000   53.615700  -94.102900
  H    -114.687000   52.633800  -92.817400
  C    -116.563000   53.239500  -93.743900
  H    -116.904000   54.193800  -94.233000
  H    -116.493000   52.518800  -94.444000
  H    -117.324000   53.036500  -92.942900
  S    -109.635000   55.571600  -88.862000
  C    -109.336000   54.897700  -87.352000
  C    -109.917000   53.633100  -87.305600
  C    -110.821000   53.334200  -88.374900
  C    -110.940000   54.425900  -89.228500
  H    -109.791000   52.939800  -86.536800
  C    -111.414000   51.926200  -88.472500
  H    -112.276000   51.914900  -89.101500
  H    -111.730000   51.520700  -87.511600
  C    -110.370000   50.916200  -88.902800
  H    -110.779000   49.888200  -88.675100
  H    -109.357000   50.998600  -88.418500
  C    -110.185000   50.940000  -90.420500
  H    -109.569000   50.175500  -90.831000
  H    -109.835000   51.897600  -90.792800
  H    -111.167000   50.753900  -90.829000
  H    -112.646000   55.950500  -93.577800
  H    -108.628000   55.130700  -86.622600

 Total Charge           Charge          ....    0
 Multiplicity           Mult            ....    1
 Number of Electrons    NEL             ....  134
 Basis Dimension        Dim             ....  322

ORBITAL ENERGIES
----------------

  NO   OCC          E(Eh)            E(eV)
   0   2.0000     -88.970752     -2421.0172
   1   2.0000     -88.962285     -2420.7869
   2   2.0000     -10.328929      -281.0644
   3   2.0000     -10.324803      -280.9522
   4   2.0000     -10.313597      -280.6472
   5   2.0000     -10.308942      -280.5206
   6   2.0000     -10.303383      -280.3693
   7   2.0000     -10.299525      -280.2643
   8   2.0000     -10.292985      -280.0864
   9   2.0000     -10.291652      -280.0501
  10   2.0000     -10.291219      -280.0383
  11   2.0000     -10.290163      -280.0096
  12   2.0000     -10.285863      -279.8926
  13   2.0000     -10.277527      -279.6657
  14   2.0000     -10.273372      -279.5527
  15   2.0000     -10.265234      -279.3312
  16   2.0000      -8.085458      -220.0165
  17   2.0000      -8.078169      -219.8182
  18   2.0000      -6.043861      -164.4618
  19   2.0000      -6.040175      -164.3615
  20   2.0000      -6.036663      -164.2659
  21   2.0000      -6.036134      -164.2516
  22   2.0000      -6.032690      -164.1578
  23   2.0000      -6.028687      -164.0489
  24   2.0000      -1.011625       -27.5277
  25   2.0000      -0.987374       -26.8678
  26   2.0000      -0.916190       -24.9308
  27   2.0000      -0.914983       -24.8980
  28   2.0000      -0.875232       -23.8163
  29   2.0000      -0.861864       -23.4525
  30   2.0000      -0.846382       -23.0312
  31   2.0000      -0.815038       -22.1783
  32   2.0000      -0.785819       -21.3832
  33   2.0000      -0.770608       -20.9693
  34   2.0000      -0.708141       -19.2695
  35   2.0000      -0.701227       -19.0814
  36   2.0000      -0.693349       -18.8670
  37   2.0000      -0.665567       -18.1110
  38   2.0000      -0.640912       -17.4401
  39   2.0000      -0.626022       -17.0349
  40   2.0000      -0.604321       -16.4444
  41   2.0000      -0.570115       -15.5136
  42   2.0000      -0.560795       -15.2600
  43   2.0000      -0.553542       -15.0627
  44   2.0000      -0.542423       -14.7601
  45   2.0000      -0.530844       -14.4450
  46   2.0000      -0.518823       -14.1179
  47   2.0000      -0.510537       -13.8924
  48   2.0000      -0.507055       -13.7977
  49   2.0000      -0.501857       -13.6562
  50   2.0000      -0.497146       -13.5280
  51   2.0000      -0.482469       -13.1286
  52   2.0000      -0.476957       -12.9787
  53   2.0000      -0.464448       -12.6383
  54   2.0000      -0.460319       -12.5259
  55   2.0000      -0.451148       -12.2764
  56   2.0000      -0.440712       -11.9924
  57   2.0000      -0.439541       -11.9605
  58   2.0000      -0.432535       -11.7699
  59   2.0000      -0.428517       -11.6605
  60   2.0000      -0.423558       -11.5256
  61   2.0000      -0.411957       -11.2099
  62   2.0000      -0.407778       -11.0962
  63   2.0000      -0.362863        -9.8740
  64   2.0000      -0.334635        -9.1059
  65   2.0000      -0.324848        -8.8396
  66   2.0000      -0.276044        -7.5115
  67   0.0000       0.020980         0.5709
  68   0.0000       0.068432         1.8621
  69   0.0000       0.102876         2.7994
  70   0.0000       0.119209         3.2438
  71   0.0000       0.133424         3.6307

MULLIKEN ATOMIC CHARGES
-----------------------
   0 S :    0.121374
   1 C :   -0.140138
   2 C :   -0.094054
   3 C :    0.030088
   4 C :   -0.126452
   5 H :   -0.010121
   6 C :    0.044469
   7 H :    0.035767
   8 H :    0.010200
   9 C :   -0.026263
  10 H :    0.002229
  11 H :   -0.000565
  12 C :    0.004095
  13 H :    0.026523
  14 H :    0.016665
  15 H :    0.038218
  16 S :    0.096021
  17 C :   -0.030567
  18 C :   -0.039573
  19 C :   -0.044945
  20 C :   -0.155838
  21 H :   -0.010043
  22 C :    0.119597
  23 H :    0.001923
  24 H :    0.022195
  25 C :   -0.120591
  26 H :    0.031261
  27 H :    0.047165
  28 C :   -0.021139
  29 H :    0.024129
  30 H :    0.036741
  31 H :    0.009164
  32 H :    0.065240
  33 H :    0.037224
Sum of atomic charges:    0.0000000

LOEWDIN ATOMIC CHARGES
----------------------
   0 S :    0.403596
   1 C :   -0.221102
   2 C :   -0.062697
   3 C :   -0.051131
   4 C :   -0.171426
   5 H :    0.022732
   6 C :   -0.032269
   7 H :    0.035752
   8 H :    0.023863
   9 C :   -0.042136
  10 H :    0.023291
  11 H :    0.012905
  12 C :   -0.051667
  13 H :    0.032699
  14 H :    0.013010
  15 H :    0.029182
  16 S :    0.417640
  17 C :   -0.199070
  18 C :   -0.062376
  19 C :   -0.054248
  20 C :   -0.188012
  21 H :    0.015749
  22 C :   -0.025156
  23 H :    0.022504
  24 H :    0.032673
  25 C :   -0.042395
  26 H :    0.027146
  27 H :    0.029799
  28 C :   -0.062651
  29 H :    0.019337
  30 H :    0.024980
  31 H :    0.020480
  32 H :    0.035903
  33 H :    0.023094

  Mayer bond orders larger than 0.100000
B(  0-S ,  1-C ) :   1.1450 B(  0-S ,  4-C ) :   1.1301 B(  1-C ,  2-C ) :   1.5984
B(  1-C , 32-H ) :   0.9578 B(  2-C ,  3-C ) :   1.2594 B(  2-C ,  6-C ) :   1.0183
B(  3-C ,  4-C ) :   1.5563 B(  3-C ,  5-H ) :   1.0061 B(  4-C , 20-C ) :   1.1164
B(  6-C ,  7-H ) :   0.9419 B(  6-C ,  8-H ) :   0.9343 B(  6-C ,  9-C ) :   1.0708
B(  9-C , 10-H ) :   0.9441 B(  9-C , 11-H ) :   0.9486 B(  9-C , 12-C ) :   1.0845
B( 12-C , 13-H ) :   0.9698 B( 12-C , 14-H ) :   0.9716 B( 12-C , 15-H ) :   0.9743
B( 16-S , 17-C ) :   1.1628 B( 16-S , 20-C ) :   1.1290 B( 17-C , 18-C ) :   1.5741
B( 17-C , 33-H ) :   0.9758 B( 18-C , 19-C ) :   1.2645 B( 18-C , 21-H ) :   0.9919
B( 19-C , 20-C ) :   1.5520 B( 19-C , 22-C ) :   1.0470 B( 22-C , 23-H ) :   0.9331
B( 22-C , 24-H ) :   0.9315 B( 22-C , 25-C ) :   1.0661 B( 25-C , 26-H ) :   0.9556
B( 25-C , 27-H ) :   0.9568 B( 25-C , 28-C ) :   1.0764 B( 28-C , 29-H ) :   0.9742
B( 28-C , 30-H ) :   0.9770 B( 28-C , 31-H ) :   0.9720

Dispersion correction           -0.014396584
FINAL SINGLE POINT ENERGY     -1339.857819072711

DIPOLE MOMENT
-------------
                                X             Y             Z
Electronic contribution:     17.43500      20.38684       8.46706
Nuclear contribution   :    -17.74041     -20.99049      -8.50838
                        -----------------------------------------
Total Dipole Moment    :     -0.30540      -0.60365      -0.04132
                        -----------------------------------------
Magnitude (a.u.)       :      0.67777
Magnitude (Debye)      :      1.72276

Rotational constants in cm-1:     0.021109     0.008214     0.006708
Rotational constants in MHz :   632.845864   246.263717   201.115059

                             ****ORCA TERMINATED NORMALLY****
TOTAL RUN TIME: 0 days 0 hours 0 minutes 21 seconds 923 msec
