                         Program Version 4.2.1 -  RELEASE  -
|  1> ! wB97X-D3 SP def2-SVP
|  2> %pal
|  3> nprocs 24
|  4> end
|  5>
|  6> * xyz 0 1
|  7> S 	 -62.0422 	 8.63989 	 -76.5529
|  8> C 	 -61.3997 	 10.1184 	 -76.0449
|  9> C 	 -62.3599 	 11.0523 	 -75.6807
| 10> C 	 -63.6636 	 10.5082 	 -75.893
| 11> C 	 -63.6571 	 9.21107 	 -76.3932
| 12> H 	 -64.5134 	 11.0241 	 -75.6657
| 13> C 	 -62.1115 	 12.4244 	 -75.2435
| 14> H 	 -62.5684 	 13.0216 	 -76.0522
| 15> H 	 -61.0245 	 12.5453 	 -75.2412
| 16> C 	 -62.7565 	 12.7703 	 -73.9147
| 17> H 	 -62.5541 	 13.8476 	 -73.7424
| 18> H 	 -63.9086 	 12.5177 	 -73.9513
| 19> C 	 -62.2307 	 12.0154 	 -72.7076
| 20> H 	 -62.6172 	 12.4656 	 -71.8692
| 21> H 	 -62.5633 	 10.9822 	 -72.8125
| 22> H 	 -61.1452 	 12.2077 	 -72.7398
| 23> S 	 -65.0597 	 8.04613 	 -78.503
| 24> C 	 -66.2842 	 6.87693 	 -78.2098
| 25> C 	 -66.7568 	 6.99202 	 -76.9377
| 26> C 	 -65.8403 	 7.77136 	 -76.0978
| 27> C 	 -64.8076 	 8.37195 	 -76.7692
| 28> H 	 -67.5536 	 6.46482 	 -76.5085
| 29> C 	 -66.0246 	 7.954 	 -74.6153
| 30> H 	 -67.1361 	 7.80065 	 -74.3316
| 31> H 	 -65.808 	 8.9707 	 -74.5037
| 32> C 	 -65.0739 	 7.20914 	 -73.6664
| 33> H 	 -65.2153 	 7.7479 	 -72.7335
| 34> H 	 -63.9744 	 7.40346 	 -73.8496
| 35> C 	 -65.3548 	 5.75509 	 -73.6239
| 36> H 	 -64.8277 	 5.3705 	 -72.7296
| 37> H 	 -65.1107 	 5.27814 	 -74.56
| 38> H 	 -66.4313 	 5.64093 	 -73.2608
| 39> H 	 -60.3597 	 10.3349 	 -76.0928
| 40> H 	 -66.8075 	 6.36594 	 -79.0642
| 41> *
| 42>
| 43>                          ****END OF INPUT****

CARTESIAN COORDINATES (ANGSTROEM)
---------------------------------
  S    -62.042200    8.639890  -76.552900
  C    -61.399700   10.118400  -76.044900
  C    -62.359900   11.052300  -75.680700
  C    -63.663600   10.508200  -75.893000
  C    -63.657100    9.211070  -76.393200
  H    -64.513400   11.024100  -75.665700
  C    -62.111500   12.424400  -75.243500
  H    -62.568400   13.021600  -76.052200
  H    -61.024500   12.545300  -75.241200
  C    -62.756500   12.770300  -73.914700
  H    -62.554100   13.847600  -73.742400
  H    -63.908600   12.517700  -73.951300
  C    -62.230700   12.015400  -72.707600
  H    -62.617200   12.465600  -71.869200
  H    -62.563300   10.982200  -72.812500
  H    -61.145200   12.207700  -72.739800
  S    -65.059700    8.046130  -78.503000
  C    -66.284200    6.876930  -78.209800
  C    -66.756800    6.992020  -76.937700
  C    -65.840300    7.771360  -76.097800
  C    -64.807600    8.371950  -76.769200
  H    -67.553600    6.464820  -76.508500
  C    -66.024600    7.954000  -74.615300
  H    -67.136100    7.800650  -74.331600
  H    -65.808000    8.970700  -74.503700
  C    -65.073900    7.209140  -73.666400
  H    -65.215300    7.747900  -72.733500
  H    -63.974400    7.403460  -73.849600
  C    -65.354800    5.755090  -73.623900
  H    -64.827700    5.370500  -72.729600
  H    -65.110700    5.278140  -74.560000
  H    -66.431300    5.640930  -73.260800
  H    -60.359700   10.334900  -76.092800
  H    -66.807500    6.365940  -79.064200

 Total Charge           Charge          ....    0
 Multiplicity           Mult            ....    1
 Number of Electrons    NEL             ....  134
 Basis Dimension        Dim             ....  322

ORBITAL ENERGIES
----------------

  NO   OCC          E(Eh)            E(eV)
   0   2.0000     -88.966662     -2420.9060
   1   2.0000     -88.955892     -2420.6129
   2   2.0000     -10.329065      -281.0682
   3   2.0000     -10.323042      -280.9043
   4   2.0000     -10.318779      -280.7883
   5   2.0000     -10.306935      -280.4660
   6   2.0000     -10.300735      -280.2973
   7   2.0000     -10.295781      -280.1625
   8   2.0000     -10.295265      -280.1484
   9   2.0000     -10.290747      -280.0255
  10   2.0000     -10.290712      -280.0245
  11   2.0000     -10.288902      -279.9753
  12   2.0000     -10.286602      -279.9127
  13   2.0000     -10.281877      -279.7841
  14   2.0000     -10.276255      -279.6311
  15   2.0000     -10.271488      -279.5014
  16   2.0000      -8.082838      -219.9452
  17   2.0000      -8.071419      -219.6345
  18   2.0000      -6.041129      -164.3875
  19   2.0000      -6.036995      -164.2750
  20   2.0000      -6.033896      -164.1907
  21   2.0000      -6.029914      -164.0823
  22   2.0000      -6.025885      -163.9727
  23   2.0000      -6.022048      -163.8683
  24   2.0000      -1.011233       -27.5171
  25   2.0000      -0.989140       -26.9159
  26   2.0000      -0.923295       -25.1241
  27   2.0000      -0.911218       -24.7955
  28   2.0000      -0.870217       -23.6798
  29   2.0000      -0.856117       -23.2961
  30   2.0000      -0.845898       -23.0180
  31   2.0000      -0.818888       -22.2831
  32   2.0000      -0.786037       -21.3891
  33   2.0000      -0.771562       -20.9953
  34   2.0000      -0.707693       -19.2573
  35   2.0000      -0.688964       -18.7477
  36   2.0000      -0.682188       -18.5633
  37   2.0000      -0.661971       -18.0132
  38   2.0000      -0.647315       -17.6143
  39   2.0000      -0.624844       -17.0029
  40   2.0000      -0.590063       -16.0564
  41   2.0000      -0.571962       -15.5639
  42   2.0000      -0.561990       -15.2925
  43   2.0000      -0.556897       -15.1539
  44   2.0000      -0.550643       -14.9838
  45   2.0000      -0.547596       -14.9008
  46   2.0000      -0.520531       -14.1644
  47   2.0000      -0.511048       -13.9063
  48   2.0000      -0.502139       -13.6639
  49   2.0000      -0.497565       -13.5394
  50   2.0000      -0.488863       -13.3026
  51   2.0000      -0.482626       -13.1329
  52   2.0000      -0.475456       -12.9378
  53   2.0000      -0.465099       -12.6560
  54   2.0000      -0.462966       -12.5979
  55   2.0000      -0.449418       -12.2293
  56   2.0000      -0.444862       -12.1053
  57   2.0000      -0.432394       -11.7660
  58   2.0000      -0.426957       -11.6181
  59   2.0000      -0.422745       -11.5035
  60   2.0000      -0.420486       -11.4420
  61   2.0000      -0.413066       -11.2401
  62   2.0000      -0.404419       -11.0048
  63   2.0000      -0.337772        -9.1912
  64   2.0000      -0.325920        -8.8687
  65   2.0000      -0.322078        -8.7642
  66   2.0000      -0.304861        -8.2957
  67   0.0000       0.037528         1.0212
  68   0.0000       0.066979         1.8226
  69   0.0000       0.108908         2.9635
  70   0.0000       0.120008         3.2656
  71   0.0000       0.131215         3.5705

MULLIKEN ATOMIC CHARGES
-----------------------
   0 S :    0.144209
   1 C :   -0.116405
   2 C :   -0.118286
   3 C :    0.078818
   4 C :   -0.177183
   5 H :   -0.029009
   6 C :    0.110273
   7 H :    0.046423
   8 H :    0.013237
   9 C :   -0.161420
  10 H :    0.038339
  11 H :    0.043227
  12 C :    0.004858
  13 H :    0.018350
  14 H :    0.047770
  15 H :    0.026371
  16 S :    0.089506
  17 C :   -0.099412
  18 C :    0.008661
  19 C :   -0.067115
  20 C :   -0.166188
  21 H :   -0.000844
  22 C :    0.066392
  23 H :    0.032401
  24 H :   -0.000241
  25 C :   -0.084172
  26 H :    0.018846
  27 H :    0.037428
  28 C :   -0.031558
  29 H :    0.032134
  30 H :    0.056823
  31 H :    0.021955
  32 H :    0.033777
  33 H :    0.082035
Sum of atomic charges:    0.0000000

LOEWDIN ATOMIC CHARGES
----------------------
   0 S :    0.453751
   1 C :   -0.214168
   2 C :   -0.066233
   3 C :   -0.047789
   4 C :   -0.208998
   5 H :    0.012155
   6 C :   -0.038097
   7 H :    0.043134
   8 H :    0.029804
   9 C :   -0.048088
  10 H :    0.025984
  11 H :    0.031235
  12 C :   -0.055278
  13 H :    0.015140
  14 H :    0.029827
  15 H :    0.027903
  16 S :    0.394064
  17 C :   -0.190741
  18 C :   -0.072174
  19 C :   -0.053118
  20 C :   -0.199240
  21 H :    0.021381
  22 C :   -0.037024
  23 H :    0.037276
  24 H :    0.021945
  25 C :   -0.048085
  26 H :    0.023007
  27 H :    0.030018
  28 C :   -0.069554
  29 H :    0.030628
  30 H :    0.029121
  31 H :    0.030174
  32 H :    0.020257
  33 H :    0.041782

  Mayer bond orders larger than 0.100000
B(  0-S ,  1-C ) :   1.1667 B(  0-S ,  4-C ) :   1.1801 B(  1-C ,  2-C ) :   1.5743
B(  1-C , 32-H ) :   0.9676 B(  2-C ,  3-C ) :   1.2585 B(  2-C ,  6-C ) :   1.0258
B(  3-C ,  4-C ) :   1.5492 B(  3-C ,  5-H ) :   1.0096 B(  4-C , 20-C ) :   1.0063
B(  6-C ,  7-H ) :   0.9283 B(  6-C ,  8-H ) :   0.9346 B(  6-C ,  9-C ) :   1.0734
B(  9-C , 10-H ) :   0.9562 B(  9-C , 11-H ) :   0.9532 B(  9-C , 12-C ) :   1.0719
B( 12-C , 13-H ) :   0.9711 B( 12-C , 14-H ) :   0.9733 B( 12-C , 15-H ) :   0.9736
B( 16-S , 17-C ) :   1.1685 B( 16-S , 20-C ) :   1.1268 B( 17-C , 18-C ) :   1.5937
B( 17-C , 33-H ) :   0.9584 B( 18-C , 19-C ) :   1.2246 B( 18-C , 21-H ) :   0.9998
B( 19-C , 20-C ) :   1.6344 B( 19-C , 22-C ) :   1.0373 B( 22-C , 23-H ) :   0.9394
B( 22-C , 24-H ) :   0.9206 B( 22-C , 25-C ) :   1.0805 B( 25-C , 26-H ) :   0.9505
B( 25-C , 27-H ) :   0.9498 B( 25-C , 28-C ) :   1.0804 B( 28-C , 29-H ) :   0.9691
B( 28-C , 30-H ) :   0.9743 B( 28-C , 31-H ) :   0.9699

Dispersion correction           -0.015198756
FINAL SINGLE POINT ENERGY     -1339.868590413421

DIPOLE MOMENT
-------------
                                X             Y             Z
Electronic contribution:      1.80877      -7.00328     -24.17238
Nuclear contribution   :     -1.93182       7.37740      24.67759
                        -----------------------------------------
Total Dipole Moment    :     -0.12305       0.37412       0.50521
                        -----------------------------------------
Magnitude (a.u.)       :      0.64059
Magnitude (Debye)      :      1.62824

Rotational constants in cm-1:     0.020169     0.009003     0.007475
Rotational constants in MHz :   604.642465   269.900316   224.104798

                             ****ORCA TERMINATED NORMALLY****
TOTAL RUN TIME: 0 days 0 hours 0 minutes 22 seconds 420 msec
