                         Program Version 4.2.1 -  RELEASE  -
|  1> ! wB97X-D3 SP def2-SVP
|  2> %pal
|  3> nprocs 24
|  4> end
|  5>
|  6> * xyz 0 1
|  7> S 	 -81.6064 	 -33.0045 	 -54.2204
|  8> C 	 -79.8541 	 -33.1071 	 -54.5855
|  9> C 	 -79.2541 	 -31.9248 	 -54.1018
| 10> C 	 -80.1902 	 -31.0009 	 -53.6377
| 11> C 	 -81.4765 	 -31.3671 	 -53.562
| 12> H 	 -79.8982 	 -30.0999 	 -53.1176
| 13> C 	 -77.7095 	 -31.6824 	 -54.2392
| 14> H 	 -77.1553 	 -32.0407 	 -53.2921
| 15> H 	 -77.583 	 -30.6252 	 -54.1662
| 16> C 	 -76.9966 	 -32.1155 	 -55.5364
| 17> H 	 -75.9145 	 -32.0492 	 -55.5518
| 18> H 	 -77.1379 	 -33.2127 	 -55.5397
| 19> C 	 -77.6002 	 -31.4601 	 -56.7568
| 20> H 	 -77.5132 	 -30.3504 	 -56.8267
| 21> H 	 -77.1623 	 -31.8829 	 -57.6418
| 22> H 	 -78.7123 	 -31.5923 	 -56.777
| 23> S 	 -84.1179 	 -30.7418 	 -53.9473
| 24> C 	 -84.9695 	 -29.8897 	 -52.7407
| 25> C 	 -84.1879 	 -29.715 	 -51.6626
| 26> C 	 -82.799 	 -29.9204 	 -51.869
| 27> C 	 -82.6669 	 -30.7315 	 -53.0007
| 28> H 	 -84.8067 	 -29.4013 	 -50.8124
| 29> C 	 -81.746 	 -29.604 	 -50.7872
| 30> H 	 -82.2239 	 -28.9099 	 -50.127
| 31> H 	 -80.9124 	 -29.032 	 -51.2316
| 32> C 	 -81.3166 	 -30.8909 	 -49.9488
| 33> H 	 -81.2248 	 -31.7391 	 -50.6076
| 34> H 	 -82.135 	 -31.1544 	 -49.2889
| 35> C 	 -80.0458 	 -30.8389 	 -49.0722
| 36> H 	 -79.901 	 -31.707 	 -48.4515
| 37> H 	 -80.0225 	 -29.9839 	 -48.4301
| 38> H 	 -79.1042 	 -30.8289 	 -49.698
| 39> H 	 -79.3369 	 -33.8793 	 -55.0682
| 40> H 	 -86.0579 	 -29.785 	 -52.8126
| 41> *
| 42>
| 43>                          ****END OF INPUT****

CARTESIAN COORDINATES (ANGSTROEM)
---------------------------------
  S    -81.606400  -33.004500  -54.220400
  C    -79.854100  -33.107100  -54.585500
  C    -79.254100  -31.924800  -54.101800
  C    -80.190200  -31.000900  -53.637700
  C    -81.476500  -31.367100  -53.562000
  H    -79.898200  -30.099900  -53.117600
  C    -77.709500  -31.682400  -54.239200
  H    -77.155300  -32.040700  -53.292100
  H    -77.583000  -30.625200  -54.166200
  C    -76.996600  -32.115500  -55.536400
  H    -75.914500  -32.049200  -55.551800
  H    -77.137900  -33.212700  -55.539700
  C    -77.600200  -31.460100  -56.756800
  H    -77.513200  -30.350400  -56.826700
  H    -77.162300  -31.882900  -57.641800
  H    -78.712300  -31.592300  -56.777000
  S    -84.117900  -30.741800  -53.947300
  C    -84.969500  -29.889700  -52.740700
  C    -84.187900  -29.715000  -51.662600
  C    -82.799000  -29.920400  -51.869000
  C    -82.666900  -30.731500  -53.000700
  H    -84.806700  -29.401300  -50.812400
  C    -81.746000  -29.604000  -50.787200
  H    -82.223900  -28.909900  -50.127000
  H    -80.912400  -29.032000  -51.231600
  C    -81.316600  -30.890900  -49.948800
  H    -81.224800  -31.739100  -50.607600
  H    -82.135000  -31.154400  -49.288900
  C    -80.045800  -30.838900  -49.072200
  H    -79.901000  -31.707000  -48.451500
  H    -80.022500  -29.983900  -48.430100
  H    -79.104200  -30.828900  -49.698000
  H    -79.336900  -33.879300  -55.068200
  H    -86.057900  -29.785000  -52.812600

 Total Charge           Charge          ....    0
 Multiplicity           Mult            ....    1
 Number of Electrons    NEL             ....  134
 Basis Dimension        Dim             ....  322

ORBITAL ENERGIES
----------------

  NO   OCC          E(Eh)            E(eV)
   0   2.0000     -88.964208     -2420.8392
   1   2.0000     -88.963672     -2420.8246
   2   2.0000     -10.329944      -281.0921
   3   2.0000     -10.328895      -281.0635
   4   2.0000     -10.316783      -280.7339
   5   2.0000     -10.310645      -280.5669
   6   2.0000     -10.309529      -280.5365
   7   2.0000     -10.305903      -280.4379
   8   2.0000     -10.301807      -280.3264
   9   2.0000     -10.299294      -280.2580
  10   2.0000     -10.291857      -280.0557
  11   2.0000     -10.290512      -280.0191
  12   2.0000     -10.288767      -279.9716
  13   2.0000     -10.287133      -279.9271
  14   2.0000     -10.279002      -279.7059
  15   2.0000     -10.276642      -279.6416
  16   2.0000      -8.079900      -219.8652
  17   2.0000      -8.077956      -219.8124
  18   2.0000      -6.038235      -164.3087
  19   2.0000      -6.036537      -164.2625
  20   2.0000      -6.034180      -164.1984
  21   2.0000      -6.032542      -164.1538
  22   2.0000      -6.030753      -164.1051
  23   2.0000      -6.028738      -164.0503
  24   2.0000      -1.015087       -27.6219
  25   2.0000      -0.988476       -26.8978
  26   2.0000      -0.908849       -24.7311
  27   2.0000      -0.901384       -24.5279
  28   2.0000      -0.869976       -23.6733
  29   2.0000      -0.852778       -23.2053
  30   2.0000      -0.842735       -22.9320
  31   2.0000      -0.817471       -22.2445
  32   2.0000      -0.785403       -21.3719
  33   2.0000      -0.773863       -21.0579
  34   2.0000      -0.710238       -19.3266
  35   2.0000      -0.705059       -19.1856
  36   2.0000      -0.696256       -18.9461
  37   2.0000      -0.659923       -17.9574
  38   2.0000      -0.639230       -17.3943
  39   2.0000      -0.619023       -16.8445
  40   2.0000      -0.595422       -16.2023
  41   2.0000      -0.571126       -15.5411
  42   2.0000      -0.558338       -15.1932
  43   2.0000      -0.552430       -15.0324
  44   2.0000      -0.538001       -14.6398
  45   2.0000      -0.524959       -14.2848
  46   2.0000      -0.515464       -14.0265
  47   2.0000      -0.511669       -13.9232
  48   2.0000      -0.505398       -13.7526
  49   2.0000      -0.497885       -13.5481
  50   2.0000      -0.492892       -13.4123
  51   2.0000      -0.487805       -13.2739
  52   2.0000      -0.473881       -12.8950
  53   2.0000      -0.470291       -12.7973
  54   2.0000      -0.449181       -12.2228
  55   2.0000      -0.444267       -12.0891
  56   2.0000      -0.440376       -11.9832
  57   2.0000      -0.435571       -11.8525
  58   2.0000      -0.433934       -11.8079
  59   2.0000      -0.427694       -11.6382
  60   2.0000      -0.423508       -11.5242
  61   2.0000      -0.416315       -11.3285
  62   2.0000      -0.402302       -10.9472
  63   2.0000      -0.351423        -9.5627
  64   2.0000      -0.333201        -9.0669
  65   2.0000      -0.331417        -9.0183
  66   2.0000      -0.291533        -7.9330
  67   0.0000       0.024919         0.6781
  68   0.0000       0.073200         1.9919
  69   0.0000       0.110613         3.0099
  70   0.0000       0.122459         3.3323
  71   0.0000       0.133279         3.6267

MULLIKEN ATOMIC CHARGES
-----------------------
   0 S :    0.087100
   1 C :   -0.100308
   2 C :   -0.117880
   3 C :    0.034767
   4 C :   -0.124963
   5 H :   -0.005840
   6 C :    0.055323
   7 H :    0.052766
   8 H :    0.006640
   9 C :   -0.067037
  10 H :    0.031103
  11 H :    0.022564
  12 C :   -0.062180
  13 H :    0.033763
  14 H :    0.031015
  15 H :    0.046726
  16 S :    0.114022
  17 C :   -0.110075
  18 C :   -0.042229
  19 C :   -0.043070
  20 C :   -0.140581
  21 H :    0.027040
  22 C :    0.075754
  23 H :    0.015130
  24 H :    0.040180
  25 C :   -0.067150
  26 H :    0.038829
  27 H :    0.025821
  28 C :   -0.045705
  29 H :    0.031638
  30 H :    0.024912
  31 H :    0.031641
  32 H :    0.033721
  33 H :    0.066565
Sum of atomic charges:    0.0000000

LOEWDIN ATOMIC CHARGES
----------------------
   0 S :    0.380780
   1 C :   -0.175943
   2 C :   -0.060207
   3 C :   -0.077786
   4 C :   -0.179266
   5 H :    0.029683
   6 C :   -0.035568
   7 H :    0.041884
   8 H :    0.019393
   9 C :   -0.047101
  10 H :    0.027391
  11 H :    0.023046
  12 C :   -0.071124
  13 H :    0.028727
  14 H :    0.023081
  15 H :    0.033031
  16 S :    0.430478
  17 C :   -0.204560
  18 C :   -0.077117
  19 C :   -0.051390
  20 C :   -0.200551
  21 H :    0.038602
  22 C :   -0.026878
  23 H :    0.027724
  24 H :    0.031906
  25 C :   -0.036286
  26 H :    0.025231
  27 H :    0.025315
  28 C :   -0.068041
  29 H :    0.026835
  30 H :    0.018434
  31 H :    0.029297
  32 H :    0.018008
  33 H :    0.032970

  Mayer bond orders larger than 0.100000
B(  0-S ,  1-C ) :   1.1364 B(  0-S ,  4-C ) :   1.1386 B(  1-C ,  2-C ) :   1.5814
B(  1-C ,  4-C ) :   0.1094 B(  1-C , 32-H ) :   0.9796 B(  2-C ,  3-C ) :   1.2739
B(  2-C ,  6-C ) :   0.9973 B(  3-C ,  4-C ) :   1.5972 B(  3-C ,  5-H ) :   0.9881
B(  4-C , 20-C ) :   1.0259 B(  6-C ,  7-H ) :   0.9376 B(  6-C ,  8-H ) :   0.9470
B(  6-C ,  9-C ) :   1.0686 B(  9-C , 10-H ) :   0.9536 B(  9-C , 11-H ) :   0.9512
B(  9-C , 12-C ) :   1.0775 B( 12-C , 13-H ) :   0.9743 B( 12-C , 14-H ) :   0.9730
B( 12-C , 15-H ) :   0.9718 B( 16-S , 17-C ) :   1.1528 B( 16-S , 20-C ) :   1.1747
B( 17-C , 18-C ) :   1.6366 B( 17-C , 20-C ) :   0.1033 B( 17-C , 33-H ) :   0.9623
B( 18-C , 19-C ) :   1.2170 B( 18-C , 21-H ) :   0.9830 B( 19-C , 20-C ) :   1.5621
B( 19-C , 22-C ) :   1.0536 B( 22-C , 23-H ) :   0.9296 B( 22-C , 24-H ) :   0.9400
B( 22-C , 25-C ) :   1.0395 B( 25-C , 26-H ) :   0.9654 B( 25-C , 27-H ) :   0.9559
B( 25-C , 28-C ) :   1.0816 B( 28-C , 29-H ) :   0.9730 B( 28-C , 30-H ) :   0.9766
B( 28-C , 31-H ) :   0.9761

Dispersion correction           -0.014687465
FINAL SINGLE POINT ENERGY     -1339.866643643774

DIPOLE MOMENT
-------------
                                X             Y             Z
Electronic contribution:    -23.67173      -3.55739      -7.85293
Nuclear contribution   :     24.01098       3.77494       8.29861
                        -----------------------------------------
Total Dipole Moment    :      0.33925       0.21755       0.44568
                        -----------------------------------------
Magnitude (a.u.)       :      0.60088
Magnitude (Debye)      :      1.52731

Rotational constants in cm-1:     0.019371     0.008719     0.006842
Rotational constants in MHz :   580.736529   261.379548   205.109720

                             ****ORCA TERMINATED NORMALLY****
TOTAL RUN TIME: 0 days 0 hours 0 minutes 21 seconds 928 msec
