                         Program Version 4.2.1 -  RELEASE  -
|  1> ! wB97X-D3 SP def2-SVP
|  2> %pal
|  3> nprocs 24
|  4> end
|  5>
|  6> * xyz 0 1
|  7> S 	 37.0273 	 -6.61802 	 -108.007
|  8> C 	 37.9939 	 -6.08033 	 -109.355
|  9> C 	 37.3397 	 -5.24498 	 -110.238
| 10> C 	 35.9826 	 -5.07914 	 -109.778
| 11> C 	 35.6711 	 -5.65959 	 -108.522
| 12> H 	 35.2344 	 -4.61517 	 -110.398
| 13> C 	 37.7534 	 -4.58496 	 -111.533
| 14> H 	 38.7773 	 -4.87954 	 -111.631
| 15> H 	 37.8043 	 -3.51587 	 -111.343
| 16> C 	 36.992 	 -5.04794 	 -112.789
| 17> H 	 37.1552 	 -6.1896 	 -112.854
| 18> H 	 35.8851 	 -4.85557 	 -112.769
| 19> C 	 37.6199 	 -4.30613 	 -113.983
| 20> H 	 38.6787 	 -4.54759 	 -114.119
| 21> H 	 37.091 	 -4.50712 	 -114.935
| 22> H 	 37.6509 	 -3.20282 	 -113.885
| 23> S 	 33.8031 	 -7.3347 	 -107.583
| 24> C 	 32.4667 	 -6.69957 	 -106.608
| 25> C 	 32.4265 	 -5.35144 	 -106.64
| 26> C 	 33.5126 	 -4.77961 	 -107.421
| 27> C 	 34.3242 	 -5.76551 	 -107.977
| 28> H 	 31.7263 	 -4.75418 	 -106.108
| 29> C 	 33.6471 	 -3.27384 	 -107.581
| 30> H 	 32.6591 	 -2.76951 	 -107.432
| 31> H 	 33.8408 	 -3.07959 	 -108.652
| 32> C 	 34.7079 	 -2.51738 	 -106.766
| 33> H 	 34.5357 	 -1.52126 	 -107.048
| 34> H 	 35.6987 	 -2.89081 	 -107.071
| 35> C 	 34.5331 	 -2.56917 	 -105.287
| 36> H 	 34.643 	 -3.58526 	 -104.893
| 37> H 	 33.5056 	 -2.4831 	 -105.079
| 38> H 	 35.164 	 -1.84207 	 -104.818
| 39> H 	 39.0021 	 -6.48346 	 -109.402
| 40> H 	 31.6933 	 -7.32976 	 -106.165
| 41> *
| 42>
| 43>                          ****END OF INPUT****

CARTESIAN COORDINATES (ANGSTROEM)
---------------------------------
  S     37.027300   -6.618020  -108.007000
  C     37.993900   -6.080330  -109.355000
  C     37.339700   -5.244980  -110.238000
  C     35.982600   -5.079140  -109.778000
  C     35.671100   -5.659590  -108.522000
  H     35.234400   -4.615170  -110.398000
  C     37.753400   -4.584960  -111.533000
  H     38.777300   -4.879540  -111.631000
  H     37.804300   -3.515870  -111.343000
  C     36.992000   -5.047940  -112.789000
  H     37.155200   -6.189600  -112.854000
  H     35.885100   -4.855570  -112.769000
  C     37.619900   -4.306130  -113.983000
  H     38.678700   -4.547590  -114.119000
  H     37.091000   -4.507120  -114.935000
  H     37.650900   -3.202820  -113.885000
  S     33.803100   -7.334700  -107.583000
  C     32.466700   -6.699570  -106.608000
  C     32.426500   -5.351440  -106.640000
  C     33.512600   -4.779610  -107.421000
  C     34.324200   -5.765510  -107.977000
  H     31.726300   -4.754180  -106.108000
  C     33.647100   -3.273840  -107.581000
  H     32.659100   -2.769510  -107.432000
  H     33.840800   -3.079590  -108.652000
  C     34.707900   -2.517380  -106.766000
  H     34.535700   -1.521260  -107.048000
  H     35.698700   -2.890810  -107.071000
  C     34.533100   -2.569170  -105.287000
  H     34.643000   -3.585260  -104.893000
  H     33.505600   -2.483100  -105.079000
  H     35.164000   -1.842070  -104.818000
  H     39.002100   -6.483460  -109.402000
  H     31.693300   -7.329760  -106.165000

 Total Charge           Charge          ....    0
 Multiplicity           Mult            ....    1
 Number of Electrons    NEL             ....  134
 Basis Dimension        Dim             ....  322

ORBITAL ENERGIES
----------------

  NO   OCC          E(Eh)            E(eV)
   0   2.0000     -88.967021     -2420.9157
   1   2.0000     -88.962853     -2420.8023
   2   2.0000     -10.328181      -281.0441
   3   2.0000     -10.321424      -280.8602
   4   2.0000     -10.315519      -280.6995
   5   2.0000     -10.315182      -280.6904
   6   2.0000     -10.304189      -280.3912
   7   2.0000     -10.302009      -280.3319
   8   2.0000     -10.301601      -280.3208
   9   2.0000     -10.293362      -280.0966
  10   2.0000     -10.291860      -280.0558
  11   2.0000     -10.291226      -280.0385
  12   2.0000     -10.290905      -280.0298
  13   2.0000     -10.284748      -279.8622
  14   2.0000     -10.274320      -279.5785
  15   2.0000     -10.262848      -279.2663
  16   2.0000      -8.081938      -219.9207
  17   2.0000      -8.078431      -219.8253
  18   2.0000      -6.040442      -164.3688
  19   2.0000      -6.036933      -164.2733
  20   2.0000      -6.036362      -164.2577
  21   2.0000      -6.032764      -164.1599
  22   2.0000      -6.032749      -164.1594
  23   2.0000      -6.029198      -164.0628
  24   2.0000      -1.007912       -27.4267
  25   2.0000      -0.983326       -26.7577
  26   2.0000      -0.914186       -24.8763
  27   2.0000      -0.909412       -24.7464
  28   2.0000      -0.871666       -23.7192
  29   2.0000      -0.849175       -23.1072
  30   2.0000      -0.846257       -23.0278
  31   2.0000      -0.811776       -22.0896
  32   2.0000      -0.781346       -21.2615
  33   2.0000      -0.771777       -21.0011
  34   2.0000      -0.708440       -19.2776
  35   2.0000      -0.699730       -19.0406
  36   2.0000      -0.683082       -18.5876
  37   2.0000      -0.664970       -18.0948
  38   2.0000      -0.641107       -17.4454
  39   2.0000      -0.619729       -16.8637
  40   2.0000      -0.592274       -16.1166
  41   2.0000      -0.567370       -15.4389
  42   2.0000      -0.561472       -15.2784
  43   2.0000      -0.554951       -15.1010
  44   2.0000      -0.550664       -14.9843
  45   2.0000      -0.527237       -14.3468
  46   2.0000      -0.512802       -13.9541
  47   2.0000      -0.508050       -13.8247
  48   2.0000      -0.504925       -13.7397
  49   2.0000      -0.495354       -13.4793
  50   2.0000      -0.481115       -13.0918
  51   2.0000      -0.479608       -13.0508
  52   2.0000      -0.476088       -12.9550
  53   2.0000      -0.464774       -12.6471
  54   2.0000      -0.456724       -12.4281
  55   2.0000      -0.448361       -12.2005
  56   2.0000      -0.439923       -11.9709
  57   2.0000      -0.437452       -11.9037
  58   2.0000      -0.432442       -11.7673
  59   2.0000      -0.426214       -11.5979
  60   2.0000      -0.420417       -11.4401
  61   2.0000      -0.413925       -11.2635
  62   2.0000      -0.412880       -11.2350
  63   2.0000      -0.347376        -9.4526
  64   2.0000      -0.331639        -9.0244
  65   2.0000      -0.326735        -8.8909
  66   2.0000      -0.290240        -7.8978
  67   0.0000       0.032582         0.8866
  68   0.0000       0.070962         1.9310
  69   0.0000       0.113701         3.0940
  70   0.0000       0.122739         3.3399
  71   0.0000       0.131358         3.5744

MULLIKEN ATOMIC CHARGES
-----------------------
   0 S :    0.115371
   1 C :   -0.160659
   2 C :   -0.056654
   3 C :   -0.002431
   4 C :   -0.134161
   5 H :    0.011925
   6 C :    0.084152
   7 H :    0.004495
   8 H :    0.042311
   9 C :   -0.105591
  10 H :    0.056227
  11 H :    0.051556
  12 C :   -0.054286
  13 H :    0.027910
  14 H :    0.040516
  15 H :    0.030494
  16 S :    0.098594
  17 C :   -0.098715
  18 C :   -0.000448
  19 C :   -0.053361
  20 C :   -0.151076
  21 H :    0.006949
  22 C :    0.013978
  23 H :    0.019595
  24 H :    0.027346
  25 C :   -0.034082
  26 H :    0.013432
  27 H :    0.040613
  28 C :   -0.006538
  29 H :    0.027224
  30 H :   -0.006760
  31 H :    0.040181
  32 H :    0.050636
  33 H :    0.061260
Sum of atomic charges:    0.0000000

LOEWDIN ATOMIC CHARGES
----------------------
   0 S :    0.415438
   1 C :   -0.199076
   2 C :   -0.065159
   3 C :   -0.057429
   4 C :   -0.208271
   5 H :    0.023541
   6 C :   -0.033401
   7 H :    0.027762
   8 H :    0.035090
   9 C :   -0.042140
  10 H :    0.040611
  11 H :    0.028784
  12 C :   -0.073993
  13 H :    0.025131
  14 H :    0.028081
  15 H :    0.027697
  16 S :    0.414542
  17 C :   -0.180102
  18 C :   -0.065576
  19 C :   -0.056619
  20 C :   -0.215253
  21 H :    0.026733
  22 C :   -0.039085
  23 H :    0.030735
  24 H :    0.033569
  25 C :   -0.033477
  26 H :    0.018896
  27 H :    0.027484
  28 C :   -0.062591
  29 H :    0.029157
  30 H :    0.015737
  31 H :    0.026811
  32 H :    0.024476
  33 H :    0.031896

  Mayer bond orders larger than 0.100000
B(  0-S ,  1-C ) :   1.1519 B(  0-S ,  4-C ) :   1.1543 B(  1-C ,  2-C ) :   1.5868
B(  1-C , 32-H ) :   0.9684 B(  2-C ,  3-C ) :   1.2587 B(  2-C ,  6-C ) :   1.0153
B(  3-C ,  4-C ) :   1.5537 B(  3-C ,  5-H ) :   0.9889 B(  4-C , 20-C ) :   1.0378
B(  6-C ,  7-H ) :   0.9353 B(  6-C ,  8-H ) :   0.9371 B(  6-C ,  9-C ) :   1.0523
B(  9-C , 10-H ) :   0.9535 B(  9-C , 11-H ) :   0.9565 B(  9-C , 12-C ) :   1.0761
B( 12-C , 13-H ) :   0.9736 B( 12-C , 14-H ) :   0.9746 B( 12-C , 15-H ) :   0.9736
B( 16-S , 17-C ) :   1.1423 B( 16-S , 20-C ) :   1.1500 B( 17-C , 18-C ) :   1.6140
B( 17-C , 33-H ) :   0.9654 B( 18-C , 19-C ) :   1.2456 B( 18-C , 21-H ) :   0.9950
B( 19-C , 20-C ) :   1.5974 B( 19-C , 22-C ) :   1.0311 B( 22-C , 23-H ) :   0.9361
B( 22-C , 24-H ) :   0.9365 B( 22-C , 25-C ) :   1.0829 B( 25-C , 26-H ) :   0.9490
B( 25-C , 27-H ) :   0.9531 B( 25-C , 28-C ) :   1.0888 B( 28-C , 29-H ) :   0.9678
B( 28-C , 30-H ) :   0.9664 B( 28-C , 31-H ) :   0.9729

Dispersion correction           -0.014359376
FINAL SINGLE POINT ENERGY     -1339.882429393306

DIPOLE MOMENT
-------------
                                X             Y             Z
Electronic contribution:     -3.54086     -20.46867      11.86955
Nuclear contribution   :      3.52771      20.92856     -12.23747
                        -----------------------------------------
Total Dipole Moment    :     -0.01315       0.45989      -0.36793
                        -----------------------------------------
Magnitude (a.u.)       :      0.58910
Magnitude (Debye)      :      1.49738

Rotational constants in cm-1:     0.019918     0.007864     0.007039
Rotational constants in MHz :   597.138508   235.746661   211.013466

                             ****ORCA TERMINATED NORMALLY****
TOTAL RUN TIME: 0 days 0 hours 0 minutes 21 seconds 455 msec
