                         Program Version 4.2.1 -  RELEASE  -
|  1> ! wB97X-D3 SP def2-SVP
|  2> %pal
|  3> nprocs 24
|  4> end
|  5>
|  6> * xyz 0 1
|  7> S 	 25.5301 	 -5.87854 	 -120.287
|  8> C 	 25.7291 	 -6.56952 	 -121.892
|  9> C 	 27.0571 	 -6.83219 	 -122.138
| 10> C 	 27.8507 	 -6.40597 	 -120.977
| 11> C 	 27.1107 	 -6.25549 	 -119.817
| 12> H 	 28.8691 	 -6.46546 	 -120.961
| 13> C 	 27.6777 	 -7.06616 	 -123.441
| 14> H 	 28.5455 	 -7.66237 	 -123.232
| 15> H 	 28.0973 	 -6.08464 	 -123.768
| 16> C 	 26.7964 	 -7.65564 	 -124.569
| 17> H 	 26.0786 	 -7.05356 	 -125.059
| 18> H 	 27.4317 	 -7.77427 	 -125.464
| 19> C 	 26.2142 	 -9.01709 	 -124.187
| 20> H 	 25.7722 	 -9.19626 	 -123.224
| 21> H 	 25.4439 	 -9.23819 	 -124.891
| 22> H 	 27.0277 	 -9.74469 	 -124.313
| 23> S 	 27.5586 	 -4.21116 	 -118.015
| 24> C 	 28.4136 	 -4.62814 	 -116.52
| 25> C 	 28.9161 	 -5.89794 	 -116.436
| 26> C 	 28.5188 	 -6.66571 	 -117.637
| 27> C 	 27.6561 	 -5.94764 	 -118.469
| 28> H 	 29.4687 	 -6.20234 	 -115.556
| 29> C 	 28.8516 	 -8.10197 	 -117.758
| 30> H 	 29.5807 	 -8.40164 	 -117.052
| 31> H 	 29.3688 	 -8.2284 	 -118.716
| 32> C 	 27.5897 	 -8.97928 	 -117.608
| 33> H 	 26.8522 	 -8.71211 	 -118.41
| 34> H 	 27.1453 	 -8.7905 	 -116.647
| 35> C 	 27.9406 	 -10.4797 	 -117.817
| 36> H 	 28.4877 	 -10.6402 	 -118.739
| 37> H 	 27.0348 	 -11.1188 	 -117.963
| 38> H 	 28.6091 	 -10.9511 	 -117.08
| 39> H 	 24.9146 	 -6.64373 	 -122.576
| 40> H 	 28.8684 	 -3.86998 	 -115.827
| 41> *
| 42>
| 43>                          ****END OF INPUT****

CARTESIAN COORDINATES (ANGSTROEM)
---------------------------------
  S     25.530100   -5.878540  -120.287000
  C     25.729100   -6.569520  -121.892000
  C     27.057100   -6.832190  -122.138000
  C     27.850700   -6.405970  -120.977000
  C     27.110700   -6.255490  -119.817000
  H     28.869100   -6.465460  -120.961000
  C     27.677700   -7.066160  -123.441000
  H     28.545500   -7.662370  -123.232000
  H     28.097300   -6.084640  -123.768000
  C     26.796400   -7.655640  -124.569000
  H     26.078600   -7.053560  -125.059000
  H     27.431700   -7.774270  -125.464000
  C     26.214200   -9.017090  -124.187000
  H     25.772200   -9.196260  -123.224000
  H     25.443900   -9.238190  -124.891000
  H     27.027700   -9.744690  -124.313000
  S     27.558600   -4.211160  -118.015000
  C     28.413600   -4.628140  -116.520000
  C     28.916100   -5.897940  -116.436000
  C     28.518800   -6.665710  -117.637000
  C     27.656100   -5.947640  -118.469000
  H     29.468700   -6.202340  -115.556000
  C     28.851600   -8.101970  -117.758000
  H     29.580700   -8.401640  -117.052000
  H     29.368800   -8.228400  -118.716000
  C     27.589700   -8.979280  -117.608000
  H     26.852200   -8.712110  -118.410000
  H     27.145300   -8.790500  -116.647000
  C     27.940600  -10.479700  -117.817000
  H     28.487700  -10.640200  -118.739000
  H     27.034800  -11.118800  -117.963000
  H     28.609100  -10.951100  -117.080000
  H     24.914600   -6.643730  -122.576000
  H     28.868400   -3.869980  -115.827000

 Total Charge           Charge          ....    0
 Multiplicity           Mult            ....    1
 Number of Electrons    NEL             ....  134
 Basis Dimension        Dim             ....  322

ORBITAL ENERGIES
----------------

  NO   OCC          E(Eh)            E(eV)
   0   2.0000     -88.965831     -2420.8833
   1   2.0000     -88.958486     -2420.6835
   2   2.0000     -10.330806      -281.1155
   3   2.0000     -10.326520      -280.9989
   4   2.0000     -10.319032      -280.7951
   5   2.0000     -10.309312      -280.5306
   6   2.0000     -10.308985      -280.5217
   7   2.0000     -10.298778      -280.2440
   8   2.0000     -10.297433      -280.2074
   9   2.0000     -10.293445      -280.0989
  10   2.0000     -10.289088      -279.9803
  11   2.0000     -10.288159      -279.9550
  12   2.0000     -10.287192      -279.9287
  13   2.0000     -10.285213      -279.8749
  14   2.0000     -10.277903      -279.6760
  15   2.0000     -10.273061      -279.5442
  16   2.0000      -8.079599      -219.8571
  17   2.0000      -8.074522      -219.7189
  18   2.0000      -6.038235      -164.3087
  19   2.0000      -6.034507      -164.2073
  20   2.0000      -6.033035      -164.1672
  21   2.0000      -6.030015      -164.0850
  22   2.0000      -6.028951      -164.0561
  23   2.0000      -6.025092      -163.9511
  24   2.0000      -1.006614       -27.3914
  25   2.0000      -0.979389       -26.6505
  26   2.0000      -0.917299       -24.9610
  27   2.0000      -0.907274       -24.6882
  28   2.0000      -0.865804       -23.5597
  29   2.0000      -0.848484       -23.0884
  30   2.0000      -0.842985       -22.9388
  31   2.0000      -0.812927       -22.1209
  32   2.0000      -0.784591       -21.3498
  33   2.0000      -0.769487       -20.9388
  34   2.0000      -0.715252       -19.4630
  35   2.0000      -0.707151       -19.2426
  36   2.0000      -0.687274       -18.7017
  37   2.0000      -0.657554       -17.8930
  38   2.0000      -0.644261       -17.5312
  39   2.0000      -0.609762       -16.5925
  40   2.0000      -0.590026       -16.0554
  41   2.0000      -0.575255       -15.6535
  42   2.0000      -0.560075       -15.2404
  43   2.0000      -0.558583       -15.1998
  44   2.0000      -0.536308       -14.5937
  45   2.0000      -0.524154       -14.2629
  46   2.0000      -0.517973       -14.0948
  47   2.0000      -0.505139       -13.7455
  48   2.0000      -0.501272       -13.6403
  49   2.0000      -0.496374       -13.5070
  50   2.0000      -0.493383       -13.4256
  51   2.0000      -0.482118       -13.1191
  52   2.0000      -0.475840       -12.9483
  53   2.0000      -0.462686       -12.5903
  54   2.0000      -0.454046       -12.3552
  55   2.0000      -0.450003       -12.2452
  56   2.0000      -0.444681       -12.1004
  57   2.0000      -0.435856       -11.8602
  58   2.0000      -0.433668       -11.8007
  59   2.0000      -0.426398       -11.6029
  60   2.0000      -0.418391       -11.3850
  61   2.0000      -0.415339       -11.3019
  62   2.0000      -0.410250       -11.1635
  63   2.0000      -0.338910        -9.2222
  64   2.0000      -0.326195        -8.8762
  65   2.0000      -0.317158        -8.6303
  66   2.0000      -0.298628        -8.1261
  67   0.0000       0.033834         0.9207
  68   0.0000       0.059552         1.6205
  69   0.0000       0.101447         2.7605
  70   0.0000       0.110212         2.9990
  71   0.0000       0.127204         3.4614

MULLIKEN ATOMIC CHARGES
-----------------------
   0 S :    0.093066
   1 C :   -0.109537
   2 C :   -0.105110
   3 C :    0.061575
   4 C :   -0.161468
   5 H :   -0.020132
   6 C :    0.078050
   7 H :    0.018481
   8 H :    0.048597
   9 C :   -0.060241
  10 H :    0.016694
  11 H :    0.022059
  12 C :   -0.052033
  13 H :    0.043150
  14 H :    0.021769
  15 H :    0.030309
  16 S :    0.097990
  17 C :   -0.089337
  18 C :   -0.043564
  19 C :   -0.055877
  20 C :   -0.141510
  21 H :    0.028062
  22 C :    0.097357
  23 H :    0.002002
  24 H :    0.022188
  25 C :   -0.072561
  26 H :    0.054740
  27 H :    0.034281
  28 C :   -0.057605
  29 H :    0.016803
  30 H :    0.039584
  31 H :    0.029889
  32 H :    0.042792
  33 H :    0.069537
Sum of atomic charges:    0.0000000

LOEWDIN ATOMIC CHARGES
----------------------
   0 S :    0.414516
   1 C :   -0.189009
   2 C :   -0.063931
   3 C :   -0.048224
   4 C :   -0.215154
   5 H :    0.009026
   6 C :   -0.034695
   7 H :    0.029294
   8 H :    0.045701
   9 C :   -0.045268
  10 H :    0.018178
  11 H :    0.033345
  12 C :   -0.065156
  13 H :    0.024146
  14 H :    0.023225
  15 H :    0.028694
  16 S :    0.373831
  17 C :   -0.183454
  18 C :   -0.072309
  19 C :   -0.042166
  20 C :   -0.186092
  21 H :    0.035953
  22 C :   -0.035510
  23 H :    0.023087
  24 H :    0.033053
  25 C :   -0.029518
  26 H :    0.035783
  27 H :    0.023858
  28 C :   -0.077011
  29 H :    0.022194
  30 H :    0.030936
  31 H :    0.023318
  32 H :    0.021031
  33 H :    0.038330

  Mayer bond orders larger than 0.100000
B(  0-S ,  1-C ) :   1.1339 B(  0-S ,  4-C ) :   1.1571 B(  1-C ,  2-C ) :   1.5976
B(  1-C , 32-H ) :   0.9742 B(  2-C ,  3-C ) :   1.2336 B(  2-C ,  6-C ) :   1.0386
B(  3-C ,  4-C ) :   1.5675 B(  3-C ,  5-H ) :   1.0005 B(  4-C , 20-C ) :   1.0152
B(  6-C ,  7-H ) :   0.9311 B(  6-C ,  8-H ) :   0.9293 B(  6-C ,  9-C ) :   1.0762
B(  9-C , 10-H ) :   0.9561 B(  9-C , 11-H ) :   0.9487 B(  9-C , 12-C ) :   1.0674
B( 12-C , 13-H ) :   0.9808 B( 12-C , 14-H ) :   0.9744 B( 12-C , 15-H ) :   0.9780
B( 16-S , 17-C ) :   1.1344 B( 16-S , 20-C ) :   1.1187 B( 17-C , 18-C ) :   1.6788
B( 17-C , 33-H ) :   0.9504 B( 18-C , 19-C ) :   1.1867 B( 18-C , 21-H ) :   0.9877
B( 19-C , 20-C ) :   1.6453 B( 19-C , 22-C ) :   1.0644 B( 22-C , 23-H ) :   0.9321
B( 22-C , 24-H ) :   0.9166 B( 22-C , 25-C ) :   1.0643 B( 25-C , 26-H ) :   0.9547
B( 25-C , 27-H ) :   0.9574 B( 25-C , 28-C ) :   1.0759 B( 28-C , 29-H ) :   0.9725
B( 28-C , 30-H ) :   0.9751 B( 28-C , 31-H ) :   0.9759

Dispersion correction           -0.014461739
FINAL SINGLE POINT ENERGY     -1339.851600988673

DIPOLE MOMENT
-------------
                                X             Y             Z
Electronic contribution:     -4.79488      24.23380      12.18226
Nuclear contribution   :      5.36586     -24.60440     -12.55010
                        -----------------------------------------
Total Dipole Moment    :      0.57098      -0.37060      -0.36783
                        -----------------------------------------
Magnitude (a.u.)       :      0.77373
Magnitude (Debye)      :      1.96668

Rotational constants in cm-1:     0.020049     0.008538     0.006797
Rotational constants in MHz :   601.060933   255.970746   203.776426

                             ****ORCA TERMINATED NORMALLY****
TOTAL RUN TIME: 0 days 0 hours 0 minutes 21 seconds 611 msec
