                         Program Version 4.2.1 -  RELEASE  -
|  1> ! wB97X-D3 SP def2-SVP
|  2> %pal
|  3> nprocs 24
|  4> end
|  5>
|  6> * xyz 0 1
|  7> S 	 -48.4607 	 10.7144 	 27.276
|  8> C 	 -48.0137 	 11.3666 	 25.7401
|  9> C 	 -49.0356 	 12.1416 	 25.2036
| 10> C 	 -50.1354 	 12.2755 	 26.0542
| 11> C 	 -49.8861 	 11.7502 	 27.2978
| 12> H 	 -51.1123 	 12.7636 	 25.8682
| 13> C 	 -49.0084 	 12.7365 	 23.8092
| 14> H 	 -49.9975 	 12.6658 	 23.4053
| 15> H 	 -48.3067 	 12.065 	 23.2852
| 16> C 	 -48.5197 	 14.1436 	 23.8093
| 17> H 	 -47.4184 	 14.1546 	 23.9989
| 18> H 	 -48.5101 	 14.4607 	 22.7678
| 19> C 	 -49.34 	 15.1211 	 24.73
| 20> H 	 -49.2338 	 14.9146 	 25.8168
| 21> H 	 -49.0071 	 16.1218 	 24.4723
| 22> H 	 -50.4311 	 15.2208 	 24.7085
| 23> S 	 -51.1226 	 10.2288 	 29.1338
| 24> C 	 -52.5293 	 10.8332 	 30.1085
| 25> C 	 -52.5995 	 12.1781 	 29.9324
| 26> C 	 -51.7378 	 12.7878 	 28.9368
| 27> C 	 -50.8493 	 11.8079 	 28.3921
| 28> H 	 -53.4737 	 12.7368 	 30.2308
| 29> C 	 -51.9546 	 14.2407 	 28.5146
| 30> H 	 -52.8763 	 14.6769 	 28.8641
| 31> H 	 -52.1831 	 14.2431 	 27.4346
| 32> C 	 -50.8528 	 15.2333 	 28.7427
| 33> H 	 -50.6873 	 15.8191 	 27.8435
| 34> H 	 -49.9146 	 14.6093 	 28.7849
| 35> C 	 -50.9773 	 16.1316 	 29.9628
| 36> H 	 -51.567 	 17.0528 	 29.6912
| 37> H 	 -49.9846 	 16.5649 	 30.226
| 38> H 	 -51.308 	 15.4443 	 30.7481
| 39> H 	 -47.099 	 11.0662 	 25.2156
| 40> H 	 -53.1709 	 10.2761 	 30.8279
| 41> *
| 42>
| 43>                          ****END OF INPUT****

CARTESIAN COORDINATES (ANGSTROEM)
---------------------------------
  S    -48.460700   10.714400   27.276000
  C    -48.013700   11.366600   25.740100
  C    -49.035600   12.141600   25.203600
  C    -50.135400   12.275500   26.054200
  C    -49.886100   11.750200   27.297800
  H    -51.112300   12.763600   25.868200
  C    -49.008400   12.736500   23.809200
  H    -49.997500   12.665800   23.405300
  H    -48.306700   12.065000   23.285200
  C    -48.519700   14.143600   23.809300
  H    -47.418400   14.154600   23.998900
  H    -48.510100   14.460700   22.767800
  C    -49.340000   15.121100   24.730000
  H    -49.233800   14.914600   25.816800
  H    -49.007100   16.121800   24.472300
  H    -50.431100   15.220800   24.708500
  S    -51.122600   10.228800   29.133800
  C    -52.529300   10.833200   30.108500
  C    -52.599500   12.178100   29.932400
  C    -51.737800   12.787800   28.936800
  C    -50.849300   11.807900   28.392100
  H    -53.473700   12.736800   30.230800
  C    -51.954600   14.240700   28.514600
  H    -52.876300   14.676900   28.864100
  H    -52.183100   14.243100   27.434600
  C    -50.852800   15.233300   28.742700
  H    -50.687300   15.819100   27.843500
  H    -49.914600   14.609300   28.784900
  C    -50.977300   16.131600   29.962800
  H    -51.567000   17.052800   29.691200
  H    -49.984600   16.564900   30.226000
  H    -51.308000   15.444300   30.748100
  H    -47.099000   11.066200   25.215600
  H    -53.170900   10.276100   30.827900

 Total Charge           Charge          ....    0
 Multiplicity           Mult            ....    1
 Number of Electrons    NEL             ....  134
 Basis Dimension        Dim             ....  322

ORBITAL ENERGIES
----------------

  NO   OCC          E(Eh)            E(eV)
   0   2.0000     -88.969221     -2420.9756
   1   2.0000     -88.964293     -2420.8415
   2   2.0000     -10.336003      -281.2569
   3   2.0000     -10.329012      -281.0667
   4   2.0000     -10.323825      -280.9256
   5   2.0000     -10.314231      -280.6645
   6   2.0000     -10.312801      -280.6256
   7   2.0000     -10.296884      -280.1924
   8   2.0000     -10.292922      -280.0847
   9   2.0000     -10.292892      -280.0838
  10   2.0000     -10.292519      -280.0737
  11   2.0000     -10.292333      -280.0686
  12   2.0000     -10.287197      -279.9289
  13   2.0000     -10.283589      -279.8307
  14   2.0000     -10.282854      -279.8107
  15   2.0000     -10.281011      -279.7605
  16   2.0000      -8.084006      -219.9770
  17   2.0000      -8.077971      -219.8128
  18   2.0000      -6.042450      -164.4234
  19   2.0000      -6.038655      -164.3202
  20   2.0000      -6.036735      -164.2679
  21   2.0000      -6.034694      -164.2124
  22   2.0000      -6.032549      -164.1540
  23   2.0000      -6.028585      -164.0461
  24   2.0000      -1.008221       -27.4351
  25   2.0000      -0.979268       -26.6472
  26   2.0000      -0.916234       -24.9320
  27   2.0000      -0.910567       -24.7778
  28   2.0000      -0.870316       -23.6825
  29   2.0000      -0.850318       -23.1383
  30   2.0000      -0.840431       -22.8693
  31   2.0000      -0.815645       -22.1948
  32   2.0000      -0.784592       -21.3498
  33   2.0000      -0.772395       -21.0179
  34   2.0000      -0.707173       -19.2432
  35   2.0000      -0.705994       -19.2111
  36   2.0000      -0.684335       -18.6217
  37   2.0000      -0.660957       -17.9856
  38   2.0000      -0.639941       -17.4137
  39   2.0000      -0.613824       -16.7030
  40   2.0000      -0.595759       -16.2114
  41   2.0000      -0.571378       -15.5480
  42   2.0000      -0.564782       -15.3685
  43   2.0000      -0.550960       -14.9924
  44   2.0000      -0.537730       -14.6324
  45   2.0000      -0.536673       -14.6036
  46   2.0000      -0.511225       -13.9111
  47   2.0000      -0.506039       -13.7700
  48   2.0000      -0.504382       -13.7249
  49   2.0000      -0.496565       -13.5122
  50   2.0000      -0.491319       -13.3695
  51   2.0000      -0.481089       -13.0911
  52   2.0000      -0.477131       -12.9834
  53   2.0000      -0.466076       -12.6826
  54   2.0000      -0.461241       -12.5510
  55   2.0000      -0.449147       -12.2219
  56   2.0000      -0.444448       -12.0941
  57   2.0000      -0.434457       -11.8222
  58   2.0000      -0.431805       -11.7500
  59   2.0000      -0.420124       -11.4322
  60   2.0000      -0.414169       -11.2701
  61   2.0000      -0.408165       -11.1067
  62   2.0000      -0.406037       -11.0488
  63   2.0000      -0.353841        -9.6285
  64   2.0000      -0.335280        -9.1234
  65   2.0000      -0.325256        -8.8507
  66   2.0000      -0.286021        -7.7830
  67   0.0000       0.020229         0.5505
  68   0.0000       0.069799         1.8993
  69   0.0000       0.094168         2.5624
  70   0.0000       0.118013         3.2113
  71   0.0000       0.128078         3.4852

MULLIKEN ATOMIC CHARGES
-----------------------
   0 S :    0.118064
   1 C :   -0.128664
   2 C :   -0.096128
   3 C :   -0.006196
   4 C :   -0.130626
   5 H :    0.028184
   6 C :    0.095781
   7 H :    0.023183
   8 H :    0.019297
   9 C :   -0.045154
  10 H :    0.030445
  11 H :    0.025625
  12 C :   -0.080184
  13 H :    0.056729
  14 H :    0.032416
  15 H :    0.023614
  16 S :    0.073800
  17 C :   -0.103740
  18 C :   -0.019058
  19 C :   -0.055356
  20 C :   -0.146852
  21 H :    0.021757
  22 C :    0.064614
  23 H :    0.004908
  24 H :    0.021700
  25 C :   -0.098993
  26 H :    0.019707
  27 H :    0.042149
  28 C :   -0.048127
  29 H :    0.044398
  30 H :    0.035934
  31 H :    0.046305
  32 H :    0.054291
  33 H :    0.076174
Sum of atomic charges:   -0.0000000

LOEWDIN ATOMIC CHARGES
----------------------
   0 S :    0.410205
   1 C :   -0.208031
   2 C :   -0.063442
   3 C :   -0.062208
   4 C :   -0.196433
   5 H :    0.039133
   6 C :   -0.029930
   7 H :    0.027609
   8 H :    0.032393
   9 C :   -0.039729
  10 H :    0.032006
  11 H :    0.023685
  12 C :   -0.078326
  13 H :    0.032236
  14 H :    0.027378
  15 H :    0.024413
  16 S :    0.371153
  17 C :   -0.176253
  18 C :   -0.075864
  19 C :   -0.059800
  20 C :   -0.178773
  21 H :    0.029805
  22 C :   -0.040146
  23 H :    0.026943
  24 H :    0.036012
  25 C :   -0.054499
  26 H :    0.019460
  27 H :    0.032220
  28 C :   -0.070679
  29 H :    0.032855
  30 H :    0.031045
  31 H :    0.030691
  32 H :    0.031161
  33 H :    0.043710

  Mayer bond orders larger than 0.100000
B(  0-S ,  1-C ) :   1.1416 B(  0-S ,  4-C ) :   1.1548 B(  1-C ,  2-C ) :   1.5950
B(  1-C ,  4-C ) :   0.1001 B(  1-C , 32-H ) :   0.9660 B(  2-C ,  3-C ) :   1.2544
B(  2-C ,  6-C ) :   1.0117 B(  3-C ,  4-C ) :   1.5512 B(  3-C ,  5-H ) :   0.9913
B(  4-C , 20-C ) :   1.0562 B(  6-C ,  7-H ) :   0.9403 B(  6-C ,  8-H ) :   0.9357
B(  6-C ,  9-C ) :   1.0918 B(  9-C , 10-H ) :   0.9495 B(  9-C , 11-H ) :   0.9560
B(  9-C , 12-C ) :   1.0588 B( 12-C , 13-H ) :   0.9671 B( 12-C , 14-H ) :   0.9734
B( 12-C , 15-H ) :   0.9769 B( 16-S , 17-C ) :   1.1186 B( 16-S , 20-C ) :   1.1430
B( 17-C , 18-C ) :   1.6455 B( 17-C , 33-H ) :   0.9621 B( 18-C , 19-C ) :   1.2446
B( 18-C , 21-H ) :   0.9737 B( 19-C , 20-C ) :   1.5843 B( 19-C , 22-C ) :   1.0438
B( 22-C , 23-H ) :   0.9334 B( 22-C , 24-H ) :   0.9315 B( 22-C , 25-C ) :   1.0558
B( 25-C , 26-H ) :   0.9504 B( 25-C , 27-H ) :   0.9616 B( 25-C , 28-C ) :   1.0810
B( 28-C , 29-H ) :   0.9725 B( 28-C , 30-H ) :   0.9731 B( 28-C , 31-H ) :   0.9757

Dispersion correction           -0.015508862
FINAL SINGLE POINT ENERGY     -1339.859611543970

DIPOLE MOMENT
-------------
                                X             Y             Z
Electronic contribution:      1.72002     -28.04339       8.97425
Nuclear contribution   :     -1.98677      28.59227      -9.44818
                        -----------------------------------------
Total Dipole Moment    :     -0.26675       0.54889      -0.47392
                        -----------------------------------------
Magnitude (a.u.)       :      0.77268
Magnitude (Debye)      :      1.96400

Rotational constants in cm-1:     0.017144     0.010550     0.007287
Rotational constants in MHz :   513.978243   316.268168   218.468098

                             ****ORCA TERMINATED NORMALLY****
TOTAL RUN TIME: 0 days 0 hours 0 minutes 22 seconds 665 msec
