                         Program Version 4.2.1 -  RELEASE  -
|  1> ! wB97X-D3 SP def2-SVP
|  2> %pal
|  3> nprocs 24
|  4> end
|  5>
|  6> * xyz 0 1
|  7> S 	 -63.5199 	 10.09 	 20.9638
|  8> C 	 -61.8784 	 10.5994 	 20.4287
|  9> C 	 -60.9328 	 9.58213 	 20.6964
| 10> C 	 -61.5885 	 8.42934 	 21.2015
| 11> C 	 -62.9738 	 8.51508 	 21.3437
| 12> H 	 -61.1819 	 7.44377 	 21.1673
| 13> C 	 -59.478 	 9.58121 	 20.4013
| 14> H 	 -59.2006 	 10.5588 	 19.9877
| 15> H 	 -59.4256 	 8.93932 	 19.5702
| 16> C 	 -58.4669 	 9.32961 	 21.5413
| 17> H 	 -58.3285 	 10.1966 	 22.2362
| 18> H 	 -58.7536 	 8.40507 	 22.1902
| 19> C 	 -57.1086 	 8.98899 	 21.0529
| 20> H 	 -56.5396 	 9.35309 	 21.966
| 21> H 	 -56.9708 	 7.93872 	 20.8143
| 22> H 	 -56.8034 	 9.61423 	 20.1383
| 23> S 	 -64.6234 	 8.13504 	 23.4005
| 24> C 	 -65.6825 	 6.73534 	 23.3946
| 25> C 	 -65.4332 	 5.86105 	 22.4177
| 26> C 	 -64.3276 	 6.27861 	 21.5347
| 27> C 	 -63.8634 	 7.5321 	 21.8816
| 28> H 	 -66.0829 	 4.96849 	 22.3342
| 29> C 	 -63.9784 	 5.58896 	 20.2452
| 30> H 	 -63.3232 	 6.09866 	 19.6112
| 31> H 	 -64.9495 	 5.53419 	 19.5984
| 32> C 	 -63.5143 	 4.16808 	 20.3771
| 33> H 	 -64.2463 	 3.6282 	 21.0236
| 34> H 	 -62.5744 	 4.14742 	 20.9343
| 35> C 	 -63.2991 	 3.55307 	 18.9919
| 36> H 	 -64.1541 	 3.59232 	 18.2504
| 37> H 	 -63.2282 	 2.4538 	 19.1835
| 38> H 	 -62.3951 	 3.84993 	 18.4881
| 39> H 	 -61.6513 	 11.5549 	 20.1327
| 40> H 	 -66.4538 	 6.51058 	 24.0954
| 41> *
| 42>
| 43>                          ****END OF INPUT****

CARTESIAN COORDINATES (ANGSTROEM)
---------------------------------
  S    -63.519900   10.090000   20.963800
  C    -61.878400   10.599400   20.428700
  C    -60.932800    9.582130   20.696400
  C    -61.588500    8.429340   21.201500
  C    -62.973800    8.515080   21.343700
  H    -61.181900    7.443770   21.167300
  C    -59.478000    9.581210   20.401300
  H    -59.200600   10.558800   19.987700
  H    -59.425600    8.939320   19.570200
  C    -58.466900    9.329610   21.541300
  H    -58.328500   10.196600   22.236200
  H    -58.753600    8.405070   22.190200
  C    -57.108600    8.988990   21.052900
  H    -56.539600    9.353090   21.966000
  H    -56.970800    7.938720   20.814300
  H    -56.803400    9.614230   20.138300
  S    -64.623400    8.135040   23.400500
  C    -65.682500    6.735340   23.394600
  C    -65.433200    5.861050   22.417700
  C    -64.327600    6.278610   21.534700
  C    -63.863400    7.532100   21.881600
  H    -66.082900    4.968490   22.334200
  C    -63.978400    5.588960   20.245200
  H    -63.323200    6.098660   19.611200
  H    -64.949500    5.534190   19.598400
  C    -63.514300    4.168080   20.377100
  H    -64.246300    3.628200   21.023600
  H    -62.574400    4.147420   20.934300
  C    -63.299100    3.553070   18.991900
  H    -64.154100    3.592320   18.250400
  H    -63.228200    2.453800   19.183500
  H    -62.395100    3.849930   18.488100
  H    -61.651300   11.554900   20.132700
  H    -66.453800    6.510580   24.095400

 Total Charge           Charge          ....    0
 Multiplicity           Mult            ....    1
 Number of Electrons    NEL             ....  134
 Basis Dimension        Dim             ....  322

ORBITAL ENERGIES
----------------

  NO   OCC          E(Eh)            E(eV)
   0   2.0000     -88.966102     -2420.8907
   1   2.0000     -88.959892     -2420.7217
   2   2.0000     -10.327055      -281.0135
   3   2.0000     -10.324846      -280.9534
   4   2.0000     -10.313283      -280.6387
   5   2.0000     -10.310388      -280.5599
   6   2.0000     -10.309108      -280.5251
   7   2.0000     -10.302715      -280.3511
   8   2.0000     -10.296637      -280.1857
   9   2.0000     -10.295286      -280.1490
  10   2.0000     -10.290206      -280.0107
  11   2.0000     -10.289586      -279.9939
  12   2.0000     -10.288696      -279.9697
  13   2.0000     -10.287153      -279.9277
  14   2.0000     -10.285237      -279.8755
  15   2.0000     -10.285040      -279.8702
  16   2.0000      -8.080594      -219.8841
  17   2.0000      -8.074367      -219.7147
  18   2.0000      -6.039000      -164.3295
  19   2.0000      -6.035042      -164.2218
  20   2.0000      -6.033051      -164.1677
  21   2.0000      -6.031548      -164.1268
  22   2.0000      -6.029035      -164.0584
  23   2.0000      -6.024795      -163.9430
  24   2.0000      -1.005318       -27.3561
  25   2.0000      -0.978877       -26.6366
  26   2.0000      -0.918713       -24.9994
  27   2.0000      -0.913966       -24.8703
  28   2.0000      -0.876087       -23.8395
  29   2.0000      -0.852325       -23.1930
  30   2.0000      -0.844313       -22.9749
  31   2.0000      -0.815580       -22.1931
  32   2.0000      -0.783918       -21.3315
  33   2.0000      -0.771757       -21.0006
  34   2.0000      -0.708251       -19.2725
  35   2.0000      -0.696336       -18.9483
  36   2.0000      -0.688763       -18.7422
  37   2.0000      -0.654748       -17.8166
  38   2.0000      -0.645844       -17.5743
  39   2.0000      -0.619757       -16.8645
  40   2.0000      -0.602448       -16.3935
  41   2.0000      -0.568596       -15.4723
  42   2.0000      -0.567173       -15.4336
  43   2.0000      -0.560581       -15.2542
  44   2.0000      -0.538629       -14.6568
  45   2.0000      -0.523203       -14.2371
  46   2.0000      -0.521078       -14.1793
  47   2.0000      -0.513093       -13.9620
  48   2.0000      -0.507397       -13.8070
  49   2.0000      -0.497576       -13.5397
  50   2.0000      -0.493636       -13.4325
  51   2.0000      -0.480204       -13.0670
  52   2.0000      -0.463794       -12.6205
  53   2.0000      -0.461556       -12.5596
  54   2.0000      -0.456249       -12.4152
  55   2.0000      -0.454578       -12.3697
  56   2.0000      -0.440140       -11.9768
  57   2.0000      -0.437965       -11.9176
  58   2.0000      -0.435722       -11.8566
  59   2.0000      -0.422558       -11.4984
  60   2.0000      -0.415485       -11.3059
  61   2.0000      -0.411016       -11.1843
  62   2.0000      -0.408401       -11.1132
  63   2.0000      -0.338676        -9.2158
  64   2.0000      -0.332180        -9.0391
  65   2.0000      -0.323856        -8.8126
  66   2.0000      -0.296563        -8.0699
  67   0.0000       0.034713         0.9446
  68   0.0000       0.065322         1.7775
  69   0.0000       0.113767         3.0958
  70   0.0000       0.118508         3.2248
  71   0.0000       0.121806         3.3145

MULLIKEN ATOMIC CHARGES
-----------------------
   0 S :    0.117146
   1 C :   -0.095038
   2 C :   -0.083349
   3 C :    0.054413
   4 C :   -0.181796
   5 H :    0.004410
   6 C :    0.094889
   7 H :    0.008794
   8 H :    0.028355
   9 C :   -0.113494
  10 H :    0.045700
  11 H :    0.046242
  12 C :   -0.078358
  13 H :    0.044942
  14 H :    0.045069
  15 H :    0.037909
  16 S :    0.086938
  17 C :   -0.059012
  18 C :   -0.054823
  19 C :    0.029120
  20 C :   -0.167733
  21 H :    0.033282
  22 C :    0.036030
  23 H :    0.005534
  24 H :    0.040809
  25 C :   -0.089518
  26 H :    0.031582
  27 H :    0.029841
  28 C :   -0.062233
  29 H :    0.038594
  30 H :    0.033905
  31 H :    0.039516
  32 H :    0.011601
  33 H :    0.040732
Sum of atomic charges:    0.0000000

LOEWDIN ATOMIC CHARGES
----------------------
   0 S :    0.413644
   1 C :   -0.176674
   2 C :   -0.053719
   3 C :   -0.065873
   4 C :   -0.215266
   5 H :    0.024990
   6 C :   -0.037019
   7 H :    0.032142
   8 H :    0.031511
   9 C :   -0.050533
  10 H :    0.030716
  11 H :    0.035334
  12 C :   -0.075552
  13 H :    0.040141
  14 H :    0.022661
  15 H :    0.028464
  16 S :    0.369942
  17 C :   -0.173771
  18 C :   -0.075775
  19 C :   -0.048990
  20 C :   -0.174175
  21 H :    0.038645
  22 C :   -0.036462
  23 H :    0.018206
  24 H :    0.042579
  25 C :   -0.044006
  26 H :    0.025370
  27 H :    0.026207
  28 C :   -0.073429
  29 H :    0.030825
  30 H :    0.032753
  31 H :    0.024173
  32 H :    0.006462
  33 H :    0.026478

  Mayer bond orders larger than 0.100000
B(  0-S ,  1-C ) :   1.1344 B(  0-S ,  4-C ) :   1.1692 B(  1-C ,  2-C ) :   1.5813
B(  1-C ,  4-C ) :   0.1059 B(  1-C , 32-H ) :   0.9807 B(  2-C ,  3-C ) :   1.2579
B(  2-C ,  6-C ) :   1.0257 B(  3-C ,  4-C ) :   1.5622 B(  3-C ,  5-H ) :   0.9885
B(  4-C , 20-C ) :   1.0330 B(  6-C ,  7-H ) :   0.9272 B(  6-C ,  8-H ) :   0.9406
B(  6-C ,  9-C ) :   1.0515 B(  9-C , 10-H ) :   0.9672 B(  9-C , 11-H ) :   0.9550
B(  9-C , 12-C ) :   1.0611 B( 12-C , 13-H ) :   0.9800 B( 12-C , 14-H ) :   0.9782
B( 12-C , 15-H ) :   0.9710 B( 16-S , 17-C ) :   1.1145 B( 16-S , 20-C ) :   1.1112
B( 17-C , 18-C ) :   1.7145 B( 17-C , 33-H ) :   0.9613 B( 18-C , 19-C ) :   1.1499
B( 18-C , 21-H ) :   0.9795 B( 19-C , 20-C ) :   1.6595 B( 19-C , 22-C ) :   1.0513
B( 22-C , 23-H ) :   0.9407 B( 22-C , 24-H ) :   0.9384 B( 22-C , 25-C ) :   1.0540
B( 25-C , 26-H ) :   0.9601 B( 25-C , 27-H ) :   0.9484 B( 25-C , 28-C ) :   1.0799
B( 28-C , 29-H ) :   0.9737 B( 28-C , 30-H ) :   0.9728 B( 28-C , 31-H ) :   0.9739

Dispersion correction           -0.013255264
FINAL SINGLE POINT ENERGY     -1339.855097637740

DIPOLE MOMENT
-------------
                                X             Y             Z
Electronic contribution:    -20.81521      15.27757      11.52074
Nuclear contribution   :     21.17559     -15.72330     -11.84485
                        -----------------------------------------
Total Dipole Moment    :      0.36038      -0.44573      -0.32410
                        -----------------------------------------
Magnitude (a.u.)       :      0.65848
Magnitude (Debye)      :      1.67371

Rotational constants in cm-1:     0.016477     0.008256     0.006454
Rotational constants in MHz :   493.964276   247.514419   193.495793

                             ****ORCA TERMINATED NORMALLY****
TOTAL RUN TIME: 0 days 0 hours 0 minutes 20 seconds 859 msec
