                         Program Version 4.2.1 -  RELEASE  -
|  1> ! wB97X-D3 SP def2-SVP
|  2> %pal
|  3> nprocs 24
|  4> end
|  5>
|  6> * xyz 0 1
|  7> S 	 -100.753 	 47.8302 	 -99.2965
|  8> C 	 -100.732 	 49.5454 	 -99.661
|  9> C 	 -99.5189 	 49.8847 	 -100.266
| 10> C 	 -98.6275 	 48.7491 	 -100.35
| 11> C 	 -99.0501 	 47.5824 	 -99.7602
| 12> H 	 -97.6951 	 48.7648 	 -100.872
| 13> C 	 -99.0946 	 51.2146 	 -100.767
| 14> H 	 -98.0493 	 51.3939 	 -100.627
| 15> H 	 -99.6145 	 51.9548 	 -100.241
| 16> C 	 -99.3545 	 51.4777 	 -102.241
| 17> H 	 -100.411 	 51.1688 	 -102.468
| 18> H 	 -99.2376 	 52.5891 	 -102.354
| 19> C 	 -98.469 	 50.7322 	 -103.197
| 20> H 	 -97.5483 	 50.5468 	 -102.762
| 21> H 	 -98.9068 	 49.7627 	 -103.336
| 22> H 	 -98.283 	 51.182 	 -104.194
| 23> S 	 -98.4531 	 45.5039 	 -98.1247
| 24> C 	 -97.3886 	 44.2412 	 -98.6645
| 25> C 	 -96.7951 	 44.5918 	 -99.8155
| 26> C 	 -97.2715 	 45.8089 	 -100.488
| 27> C 	 -98.2803 	 46.3671 	 -99.6336
| 28> H 	 -95.9502 	 44.0046 	 -100.249
| 29> C 	 -96.8015 	 46.2911 	 -101.842
| 30> H 	 -96.0563 	 45.5617 	 -102.223
| 31> H 	 -96.28 	 47.1806 	 -101.506
| 32> C 	 -97.8199 	 46.6302 	 -102.971
| 33> H 	 -97.1775 	 47.1276 	 -103.719
| 34> H 	 -98.6628 	 47.2727 	 -102.65
| 35> C 	 -98.5014 	 45.4464 	 -103.655
| 36> H 	 -99.1315 	 45.7663 	 -104.523
| 37> H 	 -99.1353 	 44.8559 	 -102.971
| 38> H 	 -97.8262 	 44.7723 	 -104.16
| 39> H 	 -101.586 	 50.2432 	 -99.4691
| 40> H 	 -97.0598 	 43.3804 	 -98.1281
| 41> *
| 42>
| 43>                          ****END OF INPUT****

CARTESIAN COORDINATES (ANGSTROEM)
---------------------------------
  S    -100.753000   47.830200  -99.296500
  C    -100.732000   49.545400  -99.661000
  C    -99.518900   49.884700  -100.266000
  C    -98.627500   48.749100  -100.350000
  C    -99.050100   47.582400  -99.760200
  H    -97.695100   48.764800  -100.872000
  C    -99.094600   51.214600  -100.767000
  H    -98.049300   51.393900  -100.627000
  H    -99.614500   51.954800  -100.241000
  C    -99.354500   51.477700  -102.241000
  H    -100.411000   51.168800  -102.468000
  H    -99.237600   52.589100  -102.354000
  C    -98.469000   50.732200  -103.197000
  H    -97.548300   50.546800  -102.762000
  H    -98.906800   49.762700  -103.336000
  H    -98.283000   51.182000  -104.194000
  S    -98.453100   45.503900  -98.124700
  C    -97.388600   44.241200  -98.664500
  C    -96.795100   44.591800  -99.815500
  C    -97.271500   45.808900  -100.488000
  C    -98.280300   46.367100  -99.633600
  H    -95.950200   44.004600  -100.249000
  C    -96.801500   46.291100  -101.842000
  H    -96.056300   45.561700  -102.223000
  H    -96.280000   47.180600  -101.506000
  C    -97.819900   46.630200  -102.971000
  H    -97.177500   47.127600  -103.719000
  H    -98.662800   47.272700  -102.650000
  C    -98.501400   45.446400  -103.655000
  H    -99.131500   45.766300  -104.523000
  H    -99.135300   44.855900  -102.971000
  H    -97.826200   44.772300  -104.160000
  H    -101.586000   50.243200  -99.469100
  H    -97.059800   43.380400  -98.128100

 Total Charge           Charge          ....    0
 Multiplicity           Mult            ....    1
 Number of Electrons    NEL             ....  134
 Basis Dimension        Dim             ....  322

ORBITAL ENERGIES
----------------

  NO   OCC          E(Eh)            E(eV)
   0   2.0000     -88.965952     -2420.8866
   1   2.0000     -88.965022     -2420.8613
   2   2.0000     -10.330964      -281.1198
   3   2.0000     -10.329795      -281.0880
   4   2.0000     -10.321750      -280.8691
   5   2.0000     -10.312945      -280.6295
   6   2.0000     -10.310733      -280.5693
   7   2.0000     -10.302648      -280.3493
   8   2.0000     -10.302445      -280.3438
   9   2.0000     -10.295557      -280.1563
  10   2.0000     -10.294418      -280.1254
  11   2.0000     -10.290496      -280.0186
  12   2.0000     -10.288201      -279.9562
  13   2.0000     -10.282109      -279.7904
  14   2.0000     -10.278280      -279.6862
  15   2.0000     -10.269274      -279.4411
  16   2.0000      -8.080925      -219.8932
  17   2.0000      -8.079056      -219.8423
  18   2.0000      -6.039482      -164.3427
  19   2.0000      -6.037741      -164.2953
  20   2.0000      -6.035470      -164.2335
  21   2.0000      -6.033659      -164.1842
  22   2.0000      -6.031533      -164.1264
  23   2.0000      -6.029650      -164.0751
  24   2.0000      -1.004331       -27.3292
  25   2.0000      -0.981918       -26.7193
  26   2.0000      -0.920002       -25.0345
  27   2.0000      -0.908429       -24.7196
  28   2.0000      -0.872502       -23.7420
  29   2.0000      -0.850591       -23.1458
  30   2.0000      -0.843804       -22.9611
  31   2.0000      -0.818385       -22.2694
  32   2.0000      -0.787962       -21.4415
  33   2.0000      -0.774709       -21.0809
  34   2.0000      -0.710327       -19.3290
  35   2.0000      -0.697484       -18.9795
  36   2.0000      -0.689124       -18.7520
  37   2.0000      -0.659783       -17.9536
  38   2.0000      -0.637212       -17.3394
  39   2.0000      -0.618930       -16.8419
  40   2.0000      -0.592884       -16.1332
  41   2.0000      -0.578980       -15.7549
  42   2.0000      -0.557950       -15.1826
  43   2.0000      -0.551063       -14.9952
  44   2.0000      -0.547733       -14.9046
  45   2.0000      -0.536050       -14.5867
  46   2.0000      -0.519981       -14.1494
  47   2.0000      -0.510083       -13.8801
  48   2.0000      -0.505229       -13.7480
  49   2.0000      -0.497785       -13.5454
  50   2.0000      -0.487641       -13.2694
  51   2.0000      -0.485732       -13.2174
  52   2.0000      -0.474790       -12.9197
  53   2.0000      -0.466904       -12.7051
  54   2.0000      -0.460666       -12.5354
  55   2.0000      -0.446362       -12.1461
  56   2.0000      -0.441646       -12.0178
  57   2.0000      -0.438650       -11.9363
  58   2.0000      -0.429516       -11.6877
  59   2.0000      -0.425895       -11.5892
  60   2.0000      -0.418583       -11.3902
  61   2.0000      -0.416827       -11.3425
  62   2.0000      -0.413076       -11.2404
  63   2.0000      -0.354672        -9.6511
  64   2.0000      -0.327567        -8.9136
  65   2.0000      -0.325263        -8.8509
  66   2.0000      -0.286756        -7.8030
  67   0.0000       0.021552         0.5865
  68   0.0000       0.080670         2.1951
  69   0.0000       0.110348         3.0027
  70   0.0000       0.115811         3.1514
  71   0.0000       0.128253         3.4899

MULLIKEN ATOMIC CHARGES
-----------------------
   0 S :    0.102719
   1 C :   -0.141827
   2 C :   -0.094846
   3 C :    0.017565
   4 C :   -0.116943
   5 H :   -0.015857
   6 C :    0.112887
   7 H :    0.018436
   8 H :    0.002884
   9 C :   -0.104394
  10 H :    0.029564
  11 H :    0.036531
  12 C :   -0.009962
  13 H :   -0.000992
  14 H :    0.024370
  15 H :    0.041596
  16 S :    0.113209
  17 C :   -0.060314
  18 C :   -0.056048
  19 C :   -0.059280
  20 C :   -0.175927
  21 H :    0.026605
  22 C :    0.058611
  23 H :    0.026143
  24 H :    0.048149
  25 C :   -0.079949
  26 H :    0.035193
  27 H :    0.069677
  28 C :   -0.063962
  29 H :    0.035638
  30 H :    0.048086
  31 H :    0.015811
  32 H :    0.070173
  33 H :    0.046453
Sum of atomic charges:    0.0000000

LOEWDIN ATOMIC CHARGES
----------------------
   0 S :    0.387478
   1 C :   -0.203138
   2 C :   -0.063012
   3 C :   -0.062695
   4 C :   -0.190190
   5 H :    0.021804
   6 C :   -0.029150
   7 H :    0.028274
   8 H :    0.025968
   9 C :   -0.039769
  10 H :    0.027113
  11 H :    0.026997
  12 C :   -0.065311
  13 H :    0.009329
  14 H :    0.026108
  15 H :    0.033762
  16 S :    0.414666
  17 C :   -0.193392
  18 C :   -0.075611
  19 C :   -0.051925
  20 C :   -0.199708
  21 H :    0.034305
  22 C :   -0.037236
  23 H :    0.037089
  24 H :    0.036730
  25 C :   -0.042593
  26 H :    0.030270
  27 H :    0.033242
  28 C :   -0.071366
  29 H :    0.032778
  30 H :    0.029727
  31 H :    0.017480
  32 H :    0.041716
  33 H :    0.030259

  Mayer bond orders larger than 0.100000
B(  0-S ,  1-C ) :   1.1342 B(  0-S ,  4-C ) :   1.1316 B(  1-C ,  2-C ) :   1.5943
B(  1-C , 32-H ) :   0.9631 B(  2-C ,  3-C ) :   1.2485 B(  2-C ,  6-C ) :   1.0407
B(  3-C ,  4-C ) :   1.5605 B(  3-C ,  5-H ) :   0.9961 B(  4-C , 20-C ) :   1.0825
B(  6-C ,  7-H ) :   0.9381 B(  6-C ,  8-H ) :   0.9257 B(  6-C ,  9-C ) :   1.0801
B(  9-C , 10-H ) :   0.9558 B(  9-C , 11-H ) :   0.9570 B(  9-C , 12-C ) :   1.0798
B( 12-C , 13-H ) :   0.9703 B( 12-C , 14-H ) :   0.9699 B( 12-C , 15-H ) :   0.9703
B( 16-S , 17-C ) :   1.1261 B( 16-S , 20-C ) :   1.1563 B( 17-C , 18-C ) :   1.6409
B( 17-C , 33-H ) :   0.9680 B( 18-C , 19-C ) :   1.2437 B( 18-C , 21-H ) :   0.9745
B( 19-C , 20-C ) :   1.5503 B( 19-C , 22-C ) :   1.0229 B( 22-C , 23-H ) :   0.9320
B( 22-C , 24-H ) :   0.9249 B( 22-C , 25-C ) :   1.0660 B( 25-C , 26-H ) :   0.9508
B( 25-C , 27-H ) :   0.9476 B( 25-C , 28-C ) :   1.0828 B( 28-C , 29-H ) :   0.9721
B( 28-C , 30-H ) :   0.9766 B( 28-C , 31-H ) :   0.9733

Dispersion correction           -0.015814343
FINAL SINGLE POINT ENERGY     -1339.877964134658

DIPOLE MOMENT
-------------
                                X             Y             Z
Electronic contribution:     -7.10558     -11.40381      26.03983
Nuclear contribution   :      7.59185      11.66664     -26.61490
                        -----------------------------------------
Total Dipole Moment    :      0.48627       0.26283      -0.57506
                        -----------------------------------------
Magnitude (a.u.)       :      0.79764
Magnitude (Debye)      :      2.02745

Rotational constants in cm-1:     0.018940     0.010112     0.007563
Rotational constants in MHz :   567.794230   303.141859   226.728065

                             ****ORCA TERMINATED NORMALLY****
TOTAL RUN TIME: 0 days 0 hours 0 minutes 23 seconds 163 msec
