                         Program Version 4.2.1 -  RELEASE  -
|  1> ! wB97X-D3 SP def2-SVP
|  2> %pal
|  3> nprocs 24
|  4> end
|  5>
|  6> * xyz 0 1
|  7> S 	 -53.5831 	 -50.2291 	 -78.7611
|  8> C 	 -53.892 	 -48.4494 	 -78.9987
|  9> C 	 -53.17 	 -47.6578 	 -78.1339
| 10> C 	 -52.4262 	 -48.4892 	 -77.2133
| 11> C 	 -52.4944 	 -49.8531 	 -77.4125
| 12> H 	 -51.6704 	 -48.2981 	 -76.4318
| 13> C 	 -53.1814 	 -46.1289 	 -78.0779
| 14> H 	 -52.1276 	 -45.981 	 -78.1987
| 15> H 	 -53.3535 	 -45.8483 	 -77.0232
| 16> C 	 -54.083 	 -45.2577 	 -78.9569
| 17> H 	 -55.1294 	 -45.6452 	 -79.1258
| 18> H 	 -54.2242 	 -44.2601 	 -78.549
| 19> C 	 -53.5008 	 -45.0844 	 -80.3587
| 20> H 	 -54.1472 	 -44.5834 	 -81.1048
| 21> H 	 -52.6179 	 -44.5084 	 -80.2269
| 22> H 	 -53.2455 	 -46.0513 	 -80.8232
| 23> S 	 -50.9625 	 -52.2244 	 -77.2899
| 24> C 	 -50.5763 	 -52.8443 	 -75.7024
| 25> C 	 -51.0185 	 -52.0432 	 -74.7304
| 26> C 	 -51.7072 	 -50.8674 	 -75.2097
| 27> C 	 -51.859 	 -50.816 	 -76.5577
| 28> H 	 -50.834 	 -52.2151 	 -73.645
| 29> C 	 -52.4351 	 -50.0262 	 -74.1494
| 30> H 	 -53.4476 	 -50.4651 	 -74.2966
| 31> H 	 -52.5184 	 -48.9934 	 -74.5698
| 32> C 	 -51.8954 	 -49.9618 	 -72.7192
| 33> H 	 -50.8447 	 -49.5811 	 -72.6714
| 34> H 	 -51.8555 	 -50.9286 	 -72.1125
| 35> C 	 -52.7401 	 -48.9854 	 -71.9584
| 36> H 	 -52.4512 	 -48.7678 	 -70.8713
| 37> H 	 -53.8057 	 -49.1386 	 -71.9477
| 38> H 	 -52.6639 	 -48.0374 	 -72.5155
| 39> H 	 -54.5697 	 -48.0565 	 -79.7413
| 40> H 	 -50.1095 	 -53.792 	 -75.6623
| 41> *
| 42>
| 43>                          ****END OF INPUT****

CARTESIAN COORDINATES (ANGSTROEM)
---------------------------------
  S    -53.583100  -50.229100  -78.761100
  C    -53.892000  -48.449400  -78.998700
  C    -53.170000  -47.657800  -78.133900
  C    -52.426200  -48.489200  -77.213300
  C    -52.494400  -49.853100  -77.412500
  H    -51.670400  -48.298100  -76.431800
  C    -53.181400  -46.128900  -78.077900
  H    -52.127600  -45.981000  -78.198700
  H    -53.353500  -45.848300  -77.023200
  C    -54.083000  -45.257700  -78.956900
  H    -55.129400  -45.645200  -79.125800
  H    -54.224200  -44.260100  -78.549000
  C    -53.500800  -45.084400  -80.358700
  H    -54.147200  -44.583400  -81.104800
  H    -52.617900  -44.508400  -80.226900
  H    -53.245500  -46.051300  -80.823200
  S    -50.962500  -52.224400  -77.289900
  C    -50.576300  -52.844300  -75.702400
  C    -51.018500  -52.043200  -74.730400
  C    -51.707200  -50.867400  -75.209700
  C    -51.859000  -50.816000  -76.557700
  H    -50.834000  -52.215100  -73.645000
  C    -52.435100  -50.026200  -74.149400
  H    -53.447600  -50.465100  -74.296600
  H    -52.518400  -48.993400  -74.569800
  C    -51.895400  -49.961800  -72.719200
  H    -50.844700  -49.581100  -72.671400
  H    -51.855500  -50.928600  -72.112500
  C    -52.740100  -48.985400  -71.958400
  H    -52.451200  -48.767800  -70.871300
  H    -53.805700  -49.138600  -71.947700
  H    -52.663900  -48.037400  -72.515500
  H    -54.569700  -48.056500  -79.741300
  H    -50.109500  -53.792000  -75.662300

 Total Charge           Charge          ....    0
 Multiplicity           Mult            ....    1
 Number of Electrons    NEL             ....  134
 Basis Dimension        Dim             ....  322

ORBITAL ENERGIES
----------------

  NO   OCC          E(Eh)            E(eV)
   0   2.0000     -88.965300     -2420.8689
   1   2.0000     -88.957740     -2420.6632
   2   2.0000     -10.329777      -281.0875
   3   2.0000     -10.326178      -280.9896
   4   2.0000     -10.318182      -280.7720
   5   2.0000     -10.313625      -280.6480
   6   2.0000     -10.311523      -280.5908
   7   2.0000     -10.303620      -280.3758
   8   2.0000     -10.301193      -280.3097
   9   2.0000     -10.301113      -280.3075
  10   2.0000     -10.300090      -280.2797
  11   2.0000     -10.297197      -280.2010
  12   2.0000     -10.296772      -280.1894
  13   2.0000     -10.292217      -280.0655
  14   2.0000     -10.282398      -279.7983
  15   2.0000     -10.277472      -279.6642
  16   2.0000      -8.078615      -219.8303
  17   2.0000      -8.072279      -219.6579
  18   2.0000      -6.037277      -164.2827
  19   2.0000      -6.033517      -164.1803
  20   2.0000      -6.030944      -164.1103
  21   2.0000      -6.029082      -164.0597
  22   2.0000      -6.026909      -164.0005
  23   2.0000      -6.022803      -163.8888
  24   2.0000      -1.002233       -27.2721
  25   2.0000      -0.978522       -26.6269
  26   2.0000      -0.914917       -24.8962
  27   2.0000      -0.913557       -24.8592
  28   2.0000      -0.874597       -23.7990
  29   2.0000      -0.853957       -23.2374
  30   2.0000      -0.843096       -22.9418
  31   2.0000      -0.812130       -22.0992
  32   2.0000      -0.784483       -21.3469
  33   2.0000      -0.772341       -21.0165
  34   2.0000      -0.711059       -19.3489
  35   2.0000      -0.707611       -19.2551
  36   2.0000      -0.699404       -19.0317
  37   2.0000      -0.656263       -17.8578
  38   2.0000      -0.640503       -17.4290
  39   2.0000      -0.608576       -16.5602
  40   2.0000      -0.596521       -16.2322
  41   2.0000      -0.574511       -15.6332
  42   2.0000      -0.566683       -15.4202
  43   2.0000      -0.552139       -15.0245
  44   2.0000      -0.540385       -14.7046
  45   2.0000      -0.536350       -14.5948
  46   2.0000      -0.521129       -14.1806
  47   2.0000      -0.512286       -13.9400
  48   2.0000      -0.506699       -13.7880
  49   2.0000      -0.493937       -13.4407
  50   2.0000      -0.493000       -13.4152
  51   2.0000      -0.476390       -12.9632
  52   2.0000      -0.473244       -12.8776
  53   2.0000      -0.462496       -12.5852
  54   2.0000      -0.453202       -12.3323
  55   2.0000      -0.448852       -12.2139
  56   2.0000      -0.443206       -12.0602
  57   2.0000      -0.438054       -11.9201
  58   2.0000      -0.433668       -11.8007
  59   2.0000      -0.429149       -11.6777
  60   2.0000      -0.418798       -11.3961
  61   2.0000      -0.416901       -11.3445
  62   2.0000      -0.409615       -11.1462
  63   2.0000      -0.352088        -9.5808
  64   2.0000      -0.328979        -8.9520
  65   2.0000      -0.327770        -8.9191
  66   2.0000      -0.292065        -7.9475
  67   0.0000       0.026837         0.7303
  68   0.0000       0.076244         2.0747
  69   0.0000       0.105761         2.8779
  70   0.0000       0.121240         3.2991
  71   0.0000       0.128914         3.5079

MULLIKEN ATOMIC CHARGES
-----------------------
   0 S :    0.097915
   1 C :   -0.139454
   2 C :   -0.061042
   3 C :   -0.019915
   4 C :   -0.147130
   5 H :    0.033477
   6 C :    0.071259
   7 H :    0.031684
   8 H :    0.039292
   9 C :   -0.058001
  10 H :    0.038774
  11 H :    0.033296
  12 C :   -0.072132
  13 H :    0.039079
  14 H :    0.023993
  15 H :    0.034780
  16 S :    0.070405
  17 C :   -0.067684
  18 C :   -0.026217
  19 C :   -0.048805
  20 C :   -0.152436
  21 H :    0.035232
  22 C :    0.018996
  23 H :    0.063406
  24 H :    0.017626
  25 C :   -0.078616
  26 H :    0.044016
  27 H :    0.048015
  28 C :   -0.055966
  29 H :    0.045008
  30 H :    0.026391
  31 H :    0.018450
  32 H :    0.046858
  33 H :    0.049446
Sum of atomic charges:   -0.0000000

LOEWDIN ATOMIC CHARGES
----------------------
   0 S :    0.360302
   1 C :   -0.178127
   2 C :   -0.054139
   3 C :   -0.070884
   4 C :   -0.183223
   5 H :    0.037799
   6 C :   -0.032003
   7 H :    0.036626
   8 H :    0.039258
   9 C :   -0.045265
  10 H :    0.030605
  11 H :    0.029122
  12 C :   -0.068527
  13 H :    0.027667
  14 H :    0.019083
  15 H :    0.025121
  16 S :    0.358778
  17 C :   -0.161618
  18 C :   -0.080404
  19 C :   -0.055136
  20 C :   -0.184486
  21 H :    0.039328
  22 C :   -0.037120
  23 H :    0.050342
  24 H :    0.032111
  25 C :   -0.053243
  26 H :    0.034414
  27 H :    0.030299
  28 C :   -0.073963
  29 H :    0.033167
  30 H :    0.021643
  31 H :    0.024815
  32 H :    0.025019
  33 H :    0.022641

  Mayer bond orders larger than 0.100000
B(  0-S ,  1-C ) :   1.1048 B(  0-S ,  4-C ) :   1.1158 B(  1-C ,  2-C ) :   1.6624
B(  1-C , 32-H ) :   0.9620 B(  2-C ,  3-C ) :   1.1894 B(  2-C ,  6-C ) :   0.9866
B(  3-C ,  4-C ) :   1.6381 B(  3-C ,  5-H ) :   0.9761 B(  4-C , 20-C ) :   1.0708
B(  6-C ,  7-H ) :   0.9367 B(  6-C ,  8-H ) :   0.9426 B(  6-C ,  9-C ) :   1.0643
B(  9-C , 10-H ) :   0.9567 B(  9-C , 11-H ) :   0.9554 B(  9-C , 12-C ) :   1.0689
B( 12-C , 13-H ) :   0.9752 B( 12-C , 14-H ) :   0.9762 B( 12-C , 15-H ) :   0.9793
B( 16-S , 17-C ) :   1.1451 B( 16-S , 20-C ) :   1.0921 B( 17-C , 18-C ) :   1.6270
B( 17-C , 33-H ) :   0.9725 B( 18-C , 19-C ) :   1.2125 B( 18-C , 21-H ) :   0.9824
B( 19-C , 20-C ) :   1.6521 B( 19-C , 22-C ) :   1.0184 B( 22-C , 23-H ) :   0.9331
B( 22-C , 24-H ) :   0.9349 B( 22-C , 25-C ) :   1.0567 B( 25-C , 26-H ) :   0.9545
B( 25-C , 27-H ) :   0.9439 B( 25-C , 28-C ) :   1.0825 B( 28-C , 29-H ) :   0.9720
B( 28-C , 30-H ) :   0.9731 B( 28-C , 31-H ) :   0.9702

Dispersion correction           -0.013611012
FINAL SINGLE POINT ENERGY     -1339.869379656704

DIPOLE MOMENT
-------------
                                X             Y             Z
Electronic contribution:      4.97446     -24.14457     -11.92413
Nuclear contribution   :     -5.02666      24.76515      12.51296
                        -----------------------------------------
Total Dipole Moment    :     -0.05220       0.62057       0.58884
                        -----------------------------------------
Magnitude (a.u.)       :      0.85707
Magnitude (Debye)      :      2.17849

Rotational constants in cm-1:     0.019007     0.007745     0.005884
Rotational constants in MHz :   569.820954   232.203324   176.386084

                             ****ORCA TERMINATED NORMALLY****
TOTAL RUN TIME: 0 days 0 hours 0 minutes 21 seconds 97 msec
