                         Program Version 4.2.1 -  RELEASE  -
|  1> ! wB97X-D3 SP def2-SVP
|  2> %pal
|  3> nprocs 24
|  4> end
|  5>
|  6> * xyz 0 1
|  7> S 	 -135.679 	 11.8874 	 -2.52411
|  8> C 	 -135.593 	 12.5791 	 -0.970265
|  9> C 	 -135.545 	 11.5994 	 -0.0375736
| 10> C 	 -135.733 	 10.2847 	 -0.546283
| 11> C 	 -135.874 	 10.25 	 -1.91108
| 12> H 	 -135.747 	 9.36735 	 0.0842046
| 13> C 	 -135.174 	 11.8788 	 1.3741
| 14> H 	 -135.805 	 11.1785 	 1.96246
| 15> H 	 -135.451 	 12.8762 	 1.74197
| 16> C 	 -133.721 	 11.6436 	 1.74865
| 17> H 	 -133.433 	 10.6535 	 1.65767
| 18> H 	 -133.056 	 12.1969 	 1.1449
| 19> C 	 -133.486 	 11.919 	 3.20502
| 20> H 	 -134.298 	 11.6541 	 3.95977
| 21> H 	 -132.526 	 11.6557 	 3.50263
| 22> H 	 -133.427 	 13.0151 	 3.35196
| 23> S 	 -135.445 	 9.27028 	 -4.54712
| 24> C 	 -135.84 	 7.70388 	 -4.92394
| 25> C 	 -136.379 	 7.04245 	 -3.82344
| 26> C 	 -136.546 	 7.81786 	 -2.66195
| 27> C 	 -136.091 	 9.12854 	 -2.84277
| 28> H 	 -136.566 	 5.96005 	 -3.89103
| 29> C 	 -137.007 	 7.18834 	 -1.31126
| 30> H 	 -136.461 	 7.6027 	 -0.452836
| 31> H 	 -136.686 	 6.13735 	 -1.2972
| 32> C 	 -138.459 	 7.23852 	 -1.05856
| 33> H 	 -138.573 	 6.73916 	 -0.094532
| 34> H 	 -138.973 	 6.58049 	 -1.74769
| 35> C 	 -139.042 	 8.68867 	 -1.09928
| 36> H 	 -138.637 	 9.25716 	 -0.308601
| 37> H 	 -140.121 	 8.65847 	 -1.00662
| 38> H 	 -138.779 	 9.2617 	 -2.00732
| 39> H 	 -135.452 	 13.6108 	 -0.700171
| 40> H 	 -135.622 	 7.20596 	 -5.82154
| 41> *
| 42>
| 43>                          ****END OF INPUT****

CARTESIAN COORDINATES (ANGSTROEM)
---------------------------------
  S    -135.679000   11.887400   -2.524110
  C    -135.593000   12.579100   -0.970265
  C    -135.545000   11.599400   -0.037574
  C    -135.733000   10.284700   -0.546283
  C    -135.874000   10.250000   -1.911080
  H    -135.747000    9.367350    0.084205
  C    -135.174000   11.878800    1.374100
  H    -135.805000   11.178500    1.962460
  H    -135.451000   12.876200    1.741970
  C    -133.721000   11.643600    1.748650
  H    -133.433000   10.653500    1.657670
  H    -133.056000   12.196900    1.144900
  C    -133.486000   11.919000    3.205020
  H    -134.298000   11.654100    3.959770
  H    -132.526000   11.655700    3.502630
  H    -133.427000   13.015100    3.351960
  S    -135.445000    9.270280   -4.547120
  C    -135.840000    7.703880   -4.923940
  C    -136.379000    7.042450   -3.823440
  C    -136.546000    7.817860   -2.661950
  C    -136.091000    9.128540   -2.842770
  H    -136.566000    5.960050   -3.891030
  C    -137.007000    7.188340   -1.311260
  H    -136.461000    7.602700   -0.452836
  H    -136.686000    6.137350   -1.297200
  C    -138.459000    7.238520   -1.058560
  H    -138.573000    6.739160   -0.094532
  H    -138.973000    6.580490   -1.747690
  C    -139.042000    8.688670   -1.099280
  H    -138.637000    9.257160   -0.308601
  H    -140.121000    8.658470   -1.006620
  H    -138.779000    9.261700   -2.007320
  H    -135.452000   13.610800   -0.700171
  H    -135.622000    7.205960   -5.821540

 Total Charge           Charge          ....    0
 Multiplicity           Mult            ....    1
 Number of Electrons    NEL             ....  134
 Basis Dimension        Dim             ....  322

ORBITAL ENERGIES
----------------

  NO   OCC          E(Eh)            E(eV)
   0   2.0000     -88.967525     -2420.9294
   1   2.0000     -88.963019     -2420.8068
   2   2.0000     -10.336179      -281.2617
   3   2.0000     -10.334251      -281.2093
   4   2.0000     -10.312169      -280.6084
   5   2.0000     -10.307527      -280.4821
   6   2.0000     -10.305429      -280.4250
   7   2.0000     -10.295552      -280.1562
   8   2.0000     -10.294435      -280.1258
   9   2.0000     -10.292722      -280.0792
  10   2.0000     -10.291992      -280.0593
  11   2.0000     -10.289334      -279.9870
  12   2.0000     -10.282254      -279.7944
  13   2.0000     -10.275348      -279.6064
  14   2.0000     -10.273845      -279.5655
  15   2.0000     -10.268941      -279.4321
  16   2.0000      -8.082831      -219.9450
  17   2.0000      -8.078566      -219.8289
  18   2.0000      -6.041188      -164.3891
  19   2.0000      -6.037164      -164.2796
  20   2.0000      -6.037146      -164.2791
  21   2.0000      -6.033818      -164.1885
  22   2.0000      -6.032969      -164.1654
  23   2.0000      -6.029177      -164.0622
  24   2.0000      -1.011280       -27.5183
  25   2.0000      -0.992693       -27.0125
  26   2.0000      -0.919355       -25.0169
  27   2.0000      -0.915369       -24.9084
  28   2.0000      -0.872956       -23.7543
  29   2.0000      -0.854070       -23.2404
  30   2.0000      -0.845605       -23.0101
  31   2.0000      -0.814537       -22.1647
  32   2.0000      -0.787640       -21.4328
  33   2.0000      -0.772362       -21.0170
  34   2.0000      -0.711364       -19.3572
  35   2.0000      -0.702826       -19.1249
  36   2.0000      -0.696126       -18.9425
  37   2.0000      -0.658842       -17.9280
  38   2.0000      -0.640764       -17.4361
  39   2.0000      -0.626446       -17.0465
  40   2.0000      -0.601822       -16.3764
  41   2.0000      -0.572672       -15.5832
  42   2.0000      -0.564085       -15.3495
  43   2.0000      -0.551538       -15.0081
  44   2.0000      -0.542454       -14.7609
  45   2.0000      -0.526995       -14.3403
  46   2.0000      -0.521134       -14.1808
  47   2.0000      -0.514198       -13.9920
  48   2.0000      -0.510243       -13.8844
  49   2.0000      -0.499836       -13.6012
  50   2.0000      -0.496163       -13.5013
  51   2.0000      -0.478745       -13.0273
  52   2.0000      -0.468862       -12.7584
  53   2.0000      -0.467576       -12.7234
  54   2.0000      -0.455198       -12.3866
  55   2.0000      -0.452074       -12.3016
  56   2.0000      -0.446841       -12.1592
  57   2.0000      -0.442479       -12.0405
  58   2.0000      -0.439574       -11.9614
  59   2.0000      -0.419658       -11.4195
  60   2.0000      -0.414078       -11.2676
  61   2.0000      -0.411373       -11.1940
  62   2.0000      -0.408281       -11.1099
  63   2.0000      -0.364633        -9.9222
  64   2.0000      -0.335775        -9.1369
  65   2.0000      -0.328383        -8.9358
  66   2.0000      -0.282456        -7.6860
  67   0.0000       0.021522         0.5857
  68   0.0000       0.081138         2.2079
  69   0.0000       0.104580         2.8458
  70   0.0000       0.119719         3.2577
  71   0.0000       0.138030         3.7560

MULLIKEN ATOMIC CHARGES
-----------------------
   0 S :    0.096451
   1 C :   -0.087531
   2 C :   -0.092172
   3 C :   -0.007579
   4 C :   -0.112279
   5 H :    0.019909
   6 C :    0.030010
   7 H :    0.017257
   8 H :    0.016065
   9 C :    0.012593
  10 H :    0.005096
  11 H :    0.013864
  12 C :   -0.050558
  13 H :    0.041687
  14 H :    0.015036
  15 H :    0.011323
  16 S :    0.107626
  17 C :   -0.053497
  18 C :   -0.067830
  19 C :   -0.037858
  20 C :   -0.136876
  21 H :    0.022471
  22 C :    0.047797
  23 H :    0.020343
  24 H :    0.020514
  25 C :   -0.041202
  26 H :    0.024354
  27 H :    0.019749
  28 C :   -0.045220
  29 H :    0.019548
  30 H :    0.033136
  31 H :    0.055784
  32 H :    0.039389
  33 H :    0.042603
Sum of atomic charges:   -0.0000000

LOEWDIN ATOMIC CHARGES
----------------------
   0 S :    0.413458
   1 C :   -0.206537
   2 C :   -0.072705
   3 C :   -0.073680
   4 C :   -0.180344
   5 H :    0.034250
   6 C :   -0.031908
   7 H :    0.030893
   8 H :    0.028202
   9 C :   -0.030791
  10 H :    0.015425
  11 H :    0.021617
  12 C :   -0.067704
  13 H :    0.034838
  14 H :    0.016257
  15 H :    0.023874
  16 S :    0.419549
  17 C :   -0.203356
  18 C :   -0.081562
  19 C :   -0.052422
  20 C :   -0.180152
  21 H :    0.032938
  22 C :   -0.029189
  23 H :    0.026085
  24 H :    0.033425
  25 C :   -0.038816
  26 H :    0.026329
  27 H :    0.020246
  28 C :   -0.062527
  29 H :    0.018162
  30 H :    0.025171
  31 H :    0.035021
  32 H :    0.031291
  33 H :    0.024663

  Mayer bond orders larger than 0.100000
B(  0-S ,  1-C ) :   1.1309 B(  0-S ,  4-C ) :   1.1565 B(  1-C ,  2-C ) :   1.6167
B(  1-C , 32-H ) :   0.9694 B(  2-C ,  3-C ) :   1.2521 B(  2-C ,  6-C ) :   1.0357
B(  3-C ,  4-C ) :   1.5567 B(  3-C ,  5-H ) :   0.9851 B(  4-C , 20-C ) :   1.0623
B(  6-C ,  7-H ) :   0.9304 B(  6-C ,  8-H ) :   0.9472 B(  6-C ,  9-C ) :   1.0708
B(  9-C , 10-H ) :   0.9503 B(  9-C , 11-H ) :   0.9482 B(  9-C , 12-C ) :   1.0875
B( 12-C , 13-H ) :   0.9728 B( 12-C , 14-H ) :   0.9708 B( 12-C , 15-H ) :   0.9697
B( 16-S , 17-C ) :   1.1882 B( 16-S , 20-C ) :   1.1402 B( 17-C , 18-C ) :   1.5645
B( 17-C , 20-C ) :   0.1053 B( 17-C , 33-H ) :   0.9723 B( 18-C , 19-C ) :   1.2906
B( 18-C , 21-H ) :   0.9853 B( 19-C , 20-C ) :   1.5640 B( 19-C , 22-C ) :   1.0126
B( 22-C , 23-H ) :   0.9432 B( 22-C , 24-H ) :   0.9311 B( 22-C , 25-C ) :   1.0918
B( 25-C , 26-H ) :   0.9506 B( 25-C , 27-H ) :   0.9525 B( 25-C , 28-C ) :   1.0696
B( 28-C , 29-H ) :   0.9738 B( 28-C , 30-H ) :   0.9749 B( 28-C , 31-H ) :   0.9723

Dispersion correction           -0.014807467
FINAL SINGLE POINT ENERGY     -1339.877294717006

DIPOLE MOMENT
-------------
                                X             Y             Z
Electronic contribution:      3.06330       3.63058     -26.95870
Nuclear contribution   :     -2.92126      -4.02291      27.50201
                        -----------------------------------------
Total Dipole Moment    :      0.14204      -0.39233       0.54331
                        -----------------------------------------
Magnitude (a.u.)       :      0.68504
Magnitude (Debye)      :      1.74124

Rotational constants in cm-1:     0.020605     0.008335     0.006978
Rotational constants in MHz :   617.726598   249.884735   209.201438

                             ****ORCA TERMINATED NORMALLY****
TOTAL RUN TIME: 0 days 0 hours 0 minutes 22 seconds 326 msec
