                         Program Version 4.2.1 -  RELEASE  -
|  1> ! wB97X-D3 SP def2-SVP
|  2> %pal
|  3> nprocs 24
|  4> end
|  5>
|  6> * xyz 0 1
|  7> S 	 -105.145 	 53.3189 	 -13.5117
|  8> C 	 -104.752 	 54.5787 	 -14.6725
|  9> C 	 -103.356 	 54.5241 	 -14.9845
| 10> C 	 -102.707 	 53.3891 	 -14.3617
| 11> C 	 -103.555 	 52.606 	 -13.5972
| 12> H 	 -101.659 	 53.1862 	 -14.5153
| 13> C 	 -102.546 	 55.5148 	 -15.7946
| 14> H 	 -101.92 	 56.2266 	 -15.183
| 15> H 	 -103.221 	 56.212 	 -16.3045
| 16> C 	 -101.599 	 55.0372 	 -16.8852
| 17> H 	 -101.015 	 54.2042 	 -16.5072
| 18> H 	 -102.119 	 54.685 	 -17.7594
| 19> C 	 -100.598 	 56.0861 	 -17.4406
| 20> H 	 -99.9587 	 55.6316 	 -18.1119
| 21> H 	 -101.02 	 57.0077 	 -17.8005
| 22> H 	 -99.9446 	 56.2943 	 -16.6132
| 23> S 	 -104.385 	 50.075 	 -13.1142
| 24> C 	 -103.305 	 48.8827 	 -12.5668
| 25> C 	 -102.246 	 49.4655 	 -11.9978
| 26> C 	 -102.169 	 50.8355 	 -12.1894
| 27> C 	 -103.192 	 51.3218 	 -12.9687
| 28> H 	 -101.514 	 48.8473 	 -11.5279
| 29> C 	 -101.082 	 51.6665 	 -11.594
| 30> H 	 -101.034 	 52.6526 	 -12.0777
| 31> H 	 -100.121 	 51.0871 	 -11.7968
| 32> C 	 -101.321 	 51.8355 	 -10.0436
| 33> H 	 -100.501 	 52.3772 	 -9.57404
| 34> H 	 -101.129 	 50.8539 	 -9.60488
| 35> C 	 -102.604 	 52.4537 	 -9.579
| 36> H 	 -102.627 	 52.7578 	 -8.51583
| 37> H 	 -103.36 	 51.676 	 -9.60326
| 38> H 	 -102.951 	 53.272 	 -10.1444
| 39> H 	 -105.44 	 55.3752 	 -14.9338
| 40> H 	 -103.519 	 47.8494 	 -12.6839
| 41> *
| 42>
| 43>                          ****END OF INPUT****

CARTESIAN COORDINATES (ANGSTROEM)
---------------------------------
  S    -105.145000   53.318900  -13.511700
  C    -104.752000   54.578700  -14.672500
  C    -103.356000   54.524100  -14.984500
  C    -102.707000   53.389100  -14.361700
  C    -103.555000   52.606000  -13.597200
  H    -101.659000   53.186200  -14.515300
  C    -102.546000   55.514800  -15.794600
  H    -101.920000   56.226600  -15.183000
  H    -103.221000   56.212000  -16.304500
  C    -101.599000   55.037200  -16.885200
  H    -101.015000   54.204200  -16.507200
  H    -102.119000   54.685000  -17.759400
  C    -100.598000   56.086100  -17.440600
  H    -99.958700   55.631600  -18.111900
  H    -101.020000   57.007700  -17.800500
  H    -99.944600   56.294300  -16.613200
  S    -104.385000   50.075000  -13.114200
  C    -103.305000   48.882700  -12.566800
  C    -102.246000   49.465500  -11.997800
  C    -102.169000   50.835500  -12.189400
  C    -103.192000   51.321800  -12.968700
  H    -101.514000   48.847300  -11.527900
  C    -101.082000   51.666500  -11.594000
  H    -101.034000   52.652600  -12.077700
  H    -100.121000   51.087100  -11.796800
  C    -101.321000   51.835500  -10.043600
  H    -100.501000   52.377200   -9.574040
  H    -101.129000   50.853900   -9.604880
  C    -102.604000   52.453700   -9.579000
  H    -102.627000   52.757800   -8.515830
  H    -103.360000   51.676000   -9.603260
  H    -102.951000   53.272000  -10.144400
  H    -105.440000   55.375200  -14.933800
  H    -103.519000   47.849400  -12.683900

 Total Charge           Charge          ....    0
 Multiplicity           Mult            ....    1
 Number of Electrons    NEL             ....  134
 Basis Dimension        Dim             ....  322

ORBITAL ENERGIES
----------------

  NO   OCC          E(Eh)            E(eV)
   0   2.0000     -88.969932     -2420.9949
   1   2.0000     -88.956672     -2420.6341
   2   2.0000     -10.334037      -281.2034
   3   2.0000     -10.323614      -280.9198
   4   2.0000     -10.321846      -280.8717
   5   2.0000     -10.310779      -280.5706
   6   2.0000     -10.307093      -280.4702
   7   2.0000     -10.297444      -280.2077
   8   2.0000     -10.296271      -280.1758
   9   2.0000     -10.295510      -280.1551
  10   2.0000     -10.294018      -280.1145
  11   2.0000     -10.284617      -279.8586
  12   2.0000     -10.283485      -279.8278
  13   2.0000     -10.282940      -279.8130
  14   2.0000     -10.271561      -279.5034
  15   2.0000     -10.268139      -279.4103
  16   2.0000      -8.084301      -219.9850
  17   2.0000      -8.073602      -219.6939
  18   2.0000      -6.042857      -164.4345
  19   2.0000      -6.038838      -164.3251
  20   2.0000      -6.035049      -164.2220
  21   2.0000      -6.031939      -164.1374
  22   2.0000      -6.027856      -164.0263
  23   2.0000      -6.024339      -163.9306
  24   2.0000      -1.017877       -27.6978
  25   2.0000      -0.986776       -26.8515
  26   2.0000      -0.911126       -24.7930
  27   2.0000      -0.908668       -24.7261
  28   2.0000      -0.871697       -23.7201
  29   2.0000      -0.853629       -23.2284
  30   2.0000      -0.847391       -23.0587
  31   2.0000      -0.817388       -22.2423
  32   2.0000      -0.783482       -21.3196
  33   2.0000      -0.774986       -21.0885
  34   2.0000      -0.708223       -19.2717
  35   2.0000      -0.698884       -19.0176
  36   2.0000      -0.694906       -18.9094
  37   2.0000      -0.662290       -18.0218
  38   2.0000      -0.641453       -17.4548
  39   2.0000      -0.626835       -17.0570
  40   2.0000      -0.600397       -16.3376
  41   2.0000      -0.570382       -15.5209
  42   2.0000      -0.564661       -15.3652
  43   2.0000      -0.552616       -15.0374
  44   2.0000      -0.541703       -14.7405
  45   2.0000      -0.527631       -14.3576
  46   2.0000      -0.516685       -14.0597
  47   2.0000      -0.510378       -13.8881
  48   2.0000      -0.506417       -13.7803
  49   2.0000      -0.500002       -13.6057
  50   2.0000      -0.494517       -13.4565
  51   2.0000      -0.484283       -13.1780
  52   2.0000      -0.472581       -12.8596
  53   2.0000      -0.465802       -12.6751
  54   2.0000      -0.459274       -12.4975
  55   2.0000      -0.458361       -12.4726
  56   2.0000      -0.446199       -12.1417
  57   2.0000      -0.439511       -11.9597
  58   2.0000      -0.430490       -11.7142
  59   2.0000      -0.422536       -11.4978
  60   2.0000      -0.417125       -11.3505
  61   2.0000      -0.413592       -11.2544
  62   2.0000      -0.404142       -10.9973
  63   2.0000      -0.353661        -9.6236
  64   2.0000      -0.330421        -8.9912
  65   2.0000      -0.326401        -8.8818
  66   2.0000      -0.288478        -7.8499
  67   0.0000       0.030131         0.8199
  68   0.0000       0.068853         1.8736
  69   0.0000       0.105389         2.8678
  70   0.0000       0.125804         3.4233
  71   0.0000       0.136700         3.7198

MULLIKEN ATOMIC CHARGES
-----------------------
   0 S :    0.114331
   1 C :   -0.126954
   2 C :   -0.065752
   3 C :    0.014358
   4 C :   -0.120901
   5 H :    0.016167
   6 C :    0.051537
   7 H :    0.037711
   8 H :    0.010723
   9 C :   -0.096510
  10 H :    0.020036
  11 H :    0.029057
  12 C :   -0.016093
  13 H :    0.018035
  14 H :    0.036780
  15 H :    0.013738
  16 S :    0.090203
  17 C :   -0.071866
  18 C :   -0.029096
  19 C :   -0.022626
  20 C :   -0.164516
  21 H :    0.004581
  22 C :    0.056401
  23 H :    0.027162
  24 H :    0.038483
  25 C :   -0.076916
  26 H :    0.021024
  27 H :    0.016558
  28 C :   -0.020072
  29 H :    0.032199
  30 H :    0.028862
  31 H :    0.029400
  32 H :    0.057374
  33 H :    0.046581
Sum of atomic charges:   -0.0000000

LOEWDIN ATOMIC CHARGES
----------------------
   0 S :    0.408748
   1 C :   -0.201547
   2 C :   -0.055064
   3 C :   -0.066631
   4 C :   -0.192994
   5 H :    0.028525
   6 C :   -0.044249
   7 H :    0.037377
   8 H :    0.029259
   9 C :   -0.038593
  10 H :    0.018984
  11 H :    0.021022
  12 C :   -0.054010
  13 H :    0.019674
  14 H :    0.023513
  15 H :    0.022579
  16 S :    0.423288
  17 C :   -0.181074
  18 C :   -0.074997
  19 C :   -0.065685
  20 C :   -0.197477
  21 H :    0.028841
  22 C :   -0.028607
  23 H :    0.028404
  24 H :    0.039234
  25 C :   -0.043843
  26 H :    0.021498
  27 H :    0.021966
  28 C :   -0.065164
  29 H :    0.033061
  30 H :    0.027334
  31 H :    0.021642
  32 H :    0.030084
  33 H :    0.024902

  Mayer bond orders larger than 0.100000
B(  0-S ,  1-C ) :   1.1352 B(  0-S ,  4-C ) :   1.1599 B(  1-C ,  2-C ) :   1.5817
B(  1-C , 32-H ) :   0.9708 B(  2-C ,  3-C ) :   1.2529 B(  2-C ,  6-C ) :   1.0347
B(  3-C ,  4-C ) :   1.5639 B(  3-C ,  5-H ) :   0.9922 B(  4-C , 20-C ) :   1.0307
B(  6-C ,  7-H ) :   0.9414 B(  6-C ,  8-H ) :   0.9371 B(  6-C ,  9-C ) :   1.0560
B(  9-C , 10-H ) :   0.9561 B(  9-C , 11-H ) :   0.9566 B(  9-C , 12-C ) :   1.0879
B( 12-C , 13-H ) :   0.9711 B( 12-C , 14-H ) :   0.9786 B( 12-C , 15-H ) :   0.9707
B( 16-S , 17-C ) :   1.1736 B( 16-S , 20-C ) :   1.1499 B( 17-C , 18-C ) :   1.5752
B( 17-C , 20-C ) :   0.1008 B( 17-C , 33-H ) :   0.9786 B( 18-C , 19-C ) :   1.2426
B( 18-C , 21-H ) :   1.0041 B( 19-C , 20-C ) :   1.5711 B( 19-C , 22-C ) :   1.0436
B( 22-C , 23-H ) :   0.9374 B( 22-C , 24-H ) :   0.9368 B( 22-C , 25-C ) :   1.0671
B( 25-C , 26-H ) :   0.9584 B( 25-C , 27-H ) :   0.9546 B( 25-C , 28-C ) :   1.0732
B( 28-C , 29-H ) :   0.9705 B( 28-C , 30-H ) :   0.9709 B( 28-C , 31-H ) :   0.9761

Dispersion correction           -0.014328793
FINAL SINGLE POINT ENERGY     -1339.873745500711

DIPOLE MOMENT
-------------
                                X             Y             Z
Electronic contribution:    -19.72008     -14.02989       1.33267
Nuclear contribution   :     20.31605      14.15341      -1.30286
                        -----------------------------------------
Total Dipole Moment    :      0.59597       0.12352       0.02981
                        -----------------------------------------
Magnitude (a.u.)       :      0.60937
Magnitude (Debye)      :      1.54888

Rotational constants in cm-1:     0.019921     0.007778     0.007131
Rotational constants in MHz :   597.224933   233.174739   213.794637

                             ****ORCA TERMINATED NORMALLY****
TOTAL RUN TIME: 0 days 0 hours 0 minutes 21 seconds 528 msec
