                         Program Version 4.2.1 -  RELEASE  -
|  1> ! wB97X-D3 SP def2-SVP
|  2> %pal
|  3> nprocs 24
|  4> end
|  5>
|  6> * xyz 0 1
|  7> S 	 -68.499 	 8.04844 	 -74.3397
|  8> C 	 -68.8192 	 9.39122 	 -75.3799
|  9> C 	 -69.2616 	 10.4814 	 -74.653
| 10> C 	 -69.3209 	 10.2348 	 -73.2215
| 11> C 	 -68.9858 	 8.963 	 -72.8707
| 12> H 	 -69.6443 	 10.8987 	 -72.43
| 13> C 	 -69.5041 	 11.8072 	 -75.3219
| 14> H 	 -70.1809 	 12.4258 	 -74.6929
| 15> H 	 -69.9899 	 11.5738 	 -76.2746
| 16> C 	 -68.2267 	 12.5541 	 -75.7983
| 17> H 	 -67.7035 	 11.761 	 -76.4105
| 18> H 	 -68.4291 	 13.4198 	 -76.4818
| 19> C 	 -67.2575 	 12.8409 	 -74.5915
| 20> H 	 -66.4098 	 13.377 	 -74.8411
| 21> H 	 -67.7826 	 13.2513 	 -73.7627
| 22> H 	 -66.9654 	 11.8324 	 -74.2308
| 23> S 	 -69.8425 	 6.7463 	 -71.6987
| 24> C 	 -69.5847 	 6.4156 	 -70.0184
| 25> C 	 -68.9816 	 7.49865 	 -69.403
| 26> C 	 -68.6508 	 8.511 	 -70.2477
| 27> C 	 -69.0567 	 8.28608 	 -71.5768
| 28> H 	 -68.8266 	 7.45902 	 -68.3024
| 29> C 	 -67.9973 	 9.77813 	 -69.7178
| 30> H 	 -68.1102 	 9.82259 	 -68.6583
| 31> H 	 -68.4767 	 10.6196 	 -70.1673
| 32> C 	 -66.5222 	 9.95465 	 -70.2573
| 33> H 	 -66.0943 	 10.903 	 -69.8688
| 34> H 	 -66.6182 	 9.83971 	 -71.3514
| 35> C 	 -65.6038 	 8.86487 	 -69.8208
| 36> H 	 -64.5536 	 8.99953 	 -70.202
| 37> H 	 -65.9284 	 7.82562 	 -70.1508
| 38> H 	 -65.4797 	 8.8351 	 -68.7561
| 39> H 	 -68.631 	 9.20663 	 -76.4617
| 40> H 	 -69.9164 	 5.55784 	 -69.5469
| 41> *
| 42>
| 43>                          ****END OF INPUT****

CARTESIAN COORDINATES (ANGSTROEM)
---------------------------------
  S    -68.499000    8.048440  -74.339700
  C    -68.819200    9.391220  -75.379900
  C    -69.261600   10.481400  -74.653000
  C    -69.320900   10.234800  -73.221500
  C    -68.985800    8.963000  -72.870700
  H    -69.644300   10.898700  -72.430000
  C    -69.504100   11.807200  -75.321900
  H    -70.180900   12.425800  -74.692900
  H    -69.989900   11.573800  -76.274600
  C    -68.226700   12.554100  -75.798300
  H    -67.703500   11.761000  -76.410500
  H    -68.429100   13.419800  -76.481800
  C    -67.257500   12.840900  -74.591500
  H    -66.409800   13.377000  -74.841100
  H    -67.782600   13.251300  -73.762700
  H    -66.965400   11.832400  -74.230800
  S    -69.842500    6.746300  -71.698700
  C    -69.584700    6.415600  -70.018400
  C    -68.981600    7.498650  -69.403000
  C    -68.650800    8.511000  -70.247700
  C    -69.056700    8.286080  -71.576800
  H    -68.826600    7.459020  -68.302400
  C    -67.997300    9.778130  -69.717800
  H    -68.110200    9.822590  -68.658300
  H    -68.476700   10.619600  -70.167300
  C    -66.522200    9.954650  -70.257300
  H    -66.094300   10.903000  -69.868800
  H    -66.618200    9.839710  -71.351400
  C    -65.603800    8.864870  -69.820800
  H    -64.553600    8.999530  -70.202000
  H    -65.928400    7.825620  -70.150800
  H    -65.479700    8.835100  -68.756100
  H    -68.631000    9.206630  -76.461700
  H    -69.916400    5.557840  -69.546900

 Total Charge           Charge          ....    0
 Multiplicity           Mult            ....    1
 Number of Electrons    NEL             ....  134
 Basis Dimension        Dim             ....  322

ORBITAL ENERGIES
----------------

  NO   OCC          E(Eh)            E(eV)
   0   2.0000     -88.967001     -2420.9152
   1   2.0000     -88.963025     -2420.8070
   2   2.0000     -10.333766      -281.1961
   3   2.0000     -10.327536      -281.0265
   4   2.0000     -10.319115      -280.7974
   5   2.0000     -10.310558      -280.5646
   6   2.0000     -10.307089      -280.4701
   7   2.0000     -10.301044      -280.3057
   8   2.0000     -10.298167      -280.2274
   9   2.0000     -10.296044      -280.1696
  10   2.0000     -10.293763      -280.1075
  11   2.0000     -10.290989      -280.0320
  12   2.0000     -10.288248      -279.9574
  13   2.0000     -10.287544      -279.9383
  14   2.0000     -10.272863      -279.5388
  15   2.0000     -10.269190      -279.4389
  16   2.0000      -8.082304      -219.9307
  17   2.0000      -8.077872      -219.8101
  18   2.0000      -6.040548      -164.3717
  19   2.0000      -6.036521      -164.2621
  20   2.0000      -6.036395      -164.2587
  21   2.0000      -6.033495      -164.1797
  22   2.0000      -6.032321      -164.1478
  23   2.0000      -6.028632      -164.0474
  24   2.0000      -1.012318       -27.5466
  25   2.0000      -0.988111       -26.8879
  26   2.0000      -0.910406       -24.7734
  27   2.0000      -0.907195       -24.6860
  28   2.0000      -0.871407       -23.7122
  29   2.0000      -0.853446       -23.2234
  30   2.0000      -0.841569       -22.9003
  31   2.0000      -0.817341       -22.2410
  32   2.0000      -0.782762       -21.3000
  33   2.0000      -0.769964       -20.9518
  34   2.0000      -0.704964       -19.1830
  35   2.0000      -0.698850       -19.0167
  36   2.0000      -0.683938       -18.6109
  37   2.0000      -0.668170       -18.1818
  38   2.0000      -0.647107       -17.6087
  39   2.0000      -0.613674       -16.6989
  40   2.0000      -0.596734       -16.2380
  41   2.0000      -0.570064       -15.5122
  42   2.0000      -0.561342       -15.2749
  43   2.0000      -0.550495       -14.9797
  44   2.0000      -0.544146       -14.8070
  45   2.0000      -0.530449       -14.4343
  46   2.0000      -0.517964       -14.0945
  47   2.0000      -0.514339       -13.9959
  48   2.0000      -0.504397       -13.7253
  49   2.0000      -0.496987       -13.5237
  50   2.0000      -0.489587       -13.3223
  51   2.0000      -0.481774       -13.1097
  52   2.0000      -0.474305       -12.9065
  53   2.0000      -0.467588       -12.7237
  54   2.0000      -0.459359       -12.4998
  55   2.0000      -0.442644       -12.0450
  56   2.0000      -0.439322       -11.9546
  57   2.0000      -0.431401       -11.7390
  58   2.0000      -0.427323       -11.6281
  59   2.0000      -0.423302       -11.5186
  60   2.0000      -0.421036       -11.4570
  61   2.0000      -0.413677       -11.2567
  62   2.0000      -0.412146       -11.2151
  63   2.0000      -0.353471        -9.6184
  64   2.0000      -0.336499        -9.1566
  65   2.0000      -0.326228        -8.8771
  66   2.0000      -0.289835        -7.8868
  67   0.0000       0.025964         0.7065
  68   0.0000       0.065671         1.7870
  69   0.0000       0.112627         3.0647
  70   0.0000       0.118888         3.2351
  71   0.0000       0.130632         3.5547

MULLIKEN ATOMIC CHARGES
-----------------------
   0 S :    0.095829
   1 C :   -0.156084
   2 C :   -0.085695
   3 C :    0.037937
   4 C :   -0.142732
   5 H :    0.014778
   6 C :    0.057227
   7 H :    0.032740
   8 H :    0.030166
   9 C :   -0.109359
  10 H :    0.027785
  11 H :    0.047151
  12 C :   -0.021556
  13 H :    0.026684
  14 H :    0.018545
  15 H :    0.040424
  16 S :    0.114549
  17 C :   -0.069084
  18 C :   -0.072953
  19 C :   -0.015830
  20 C :   -0.180148
  21 H :    0.031277
  22 C :    0.117141
  23 H :    0.012791
  24 H :    0.015198
  25 C :   -0.082534
  26 H :    0.038174
  27 H :    0.052174
  28 C :   -0.080441
  29 H :    0.035977
  30 H :    0.047439
  31 H :    0.015995
  32 H :    0.078717
  33 H :    0.027718
Sum of atomic charges:   -0.0000000

LOEWDIN ATOMIC CHARGES
----------------------
   0 S :    0.387202
   1 C :   -0.203143
   2 C :   -0.067040
   3 C :   -0.065021
   4 C :   -0.182591
   5 H :    0.034212
   6 C :   -0.037679
   7 H :    0.028524
   8 H :    0.035205
   9 C :   -0.041299
  10 H :    0.025788
  11 H :    0.026154
  12 C :   -0.060384
  13 H :    0.014314
  14 H :    0.017300
  15 H :    0.033702
  16 S :    0.440160
  17 C :   -0.180612
  18 C :   -0.077444
  19 C :   -0.060979
  20 C :   -0.206977
  21 H :    0.040387
  22 C :   -0.020422
  23 H :    0.022921
  24 H :    0.026602
  25 C :   -0.038977
  26 H :    0.028418
  27 H :    0.032240
  28 C :   -0.078534
  29 H :    0.029765
  30 H :    0.031655
  31 H :    0.015101
  32 H :    0.038447
  33 H :    0.013006

  Mayer bond orders larger than 0.100000
B(  0-S ,  1-C ) :   1.1435 B(  0-S ,  4-C ) :   1.1354 B(  1-C ,  2-C ) :   1.5913
B(  1-C , 32-H ) :   0.9674 B(  2-C ,  3-C ) :   1.2096 B(  2-C ,  6-C ) :   1.0324
B(  3-C ,  4-C ) :   1.6053 B(  3-C ,  5-H ) :   0.9968 B(  4-C , 20-C ) :   1.0325
B(  6-C ,  7-H ) :   0.9450 B(  6-C ,  8-H ) :   0.9378 B(  6-C ,  9-C ) :   1.0608
B(  9-C , 10-H ) :   0.9578 B(  9-C , 11-H ) :   0.9608 B(  9-C , 12-C ) :   1.0608
B( 12-C , 13-H ) :   0.9772 B( 12-C , 14-H ) :   0.9797 B( 12-C , 15-H ) :   0.9710
B( 16-S , 17-C ) :   1.1847 B( 16-S , 20-C ) :   1.1813 B( 17-C , 18-C ) :   1.5429
B( 17-C , 20-C ) :   0.1223 B( 17-C , 33-H ) :   0.9801 B( 18-C , 19-C ) :   1.3063
B( 18-C , 21-H ) :   0.9875 B( 19-C , 20-C ) :   1.5170 B( 19-C , 22-C ) :   1.0341
B( 22-C , 23-H ) :   0.9393 B( 22-C , 24-H ) :   0.9343 B( 22-C , 25-C ) :   1.0569
B( 25-C , 26-H ) :   0.9554 B( 25-C , 27-H ) :   0.9557 B( 25-C , 28-C ) :   1.0875
B( 28-C , 29-H ) :   0.9712 B( 28-C , 30-H ) :   0.9701 B( 28-C , 31-H ) :   0.9742

Dispersion correction           -0.015397846
FINAL SINGLE POINT ENERGY     -1339.880421959240

DIPOLE MOMENT
-------------
                                X             Y             Z
Electronic contribution:    -13.42407     -21.14870      -2.46055
Nuclear contribution   :     13.48013      21.55502       2.65265
                        -----------------------------------------
Total Dipole Moment    :      0.05606       0.40632       0.19210
                        -----------------------------------------
Magnitude (a.u.)       :      0.45293
Magnitude (Debye)      :      1.15125

Rotational constants in cm-1:     0.020894     0.009217     0.007290
Rotational constants in MHz :   626.371918   276.313146   218.551182

                             ****ORCA TERMINATED NORMALLY****
TOTAL RUN TIME: 0 days 0 hours 0 minutes 22 seconds 693 msec
