                         Program Version 4.2.1 -  RELEASE  -
|  1> ! wB97X-D3 SP def2-SVP
|  2> %pal
|  3> nprocs 24
|  4> end
|  5>
|  6> * xyz 0 1
|  7> S 	 -77.2492 	 -1.35394 	 7.14777
|  8> C 	 -77.7892 	 0.153113 	 7.92221
|  9> C 	 -77.888 	 1.21613 	 7.02335
| 10> C 	 -77.395 	 0.87072 	 5.67216
| 11> C 	 -76.8508 	 -0.438958 	 5.65845
| 12> H 	 -77.4605 	 1.46691 	 4.87192
| 13> C 	 -78.108 	 2.6764 	 7.37489
| 14> H 	 -78.9219 	 2.77192 	 8.12345
| 15> H 	 -78.3667 	 3.21389 	 6.46584
| 16> C 	 -76.8639 	 3.30714 	 8.00138
| 17> H 	 -77.0585 	 4.12152 	 8.72014
| 18> H 	 -76.4306 	 2.53039 	 8.66945
| 19> C 	 -75.8199 	 3.77321 	 6.9648
| 20> H 	 -74.8535 	 4.05351 	 7.46088
| 21> H 	 -75.5788 	 2.95715 	 6.23677
| 22> H 	 -76.1495 	 4.6061 	 6.39791
| 23> S 	 -75.7039 	 -0.0976482 	 3.27305
| 24> C 	 -75.4779 	 -1.39143 	 2.12504
| 25> C 	 -76.0224 	 -2.57428 	 2.64657
| 26> C 	 -76.6313 	 -2.41413 	 3.92537
| 27> C 	 -76.3716 	 -1.15668 	 4.4522
| 28> H 	 -75.942 	 -3.38399 	 2.0068
| 29> C 	 -77.4465 	 -3.47866 	 4.55231
| 30> H 	 -77.0756 	 -3.61546 	 5.52188
| 31> H 	 -77.2917 	 -4.36621 	 3.94983
| 32> C 	 -78.9641 	 -3.28053 	 4.50385
| 33> H 	 -79.1756 	 -2.9177 	 3.50737
| 34> H 	 -79.1878 	 -2.30892 	 5.03029
| 35> C 	 -79.5307 	 -4.62304 	 5.01238
| 36> H 	 -80.588 	 -4.79239 	 4.73614
| 37> H 	 -79.4669 	 -4.63783 	 6.07383
| 38> H 	 -78.9823 	 -5.45692 	 4.59131
| 39> H 	 -77.8951 	 0.200989 	 9.01346
| 40> H 	 -74.9296 	 -1.37547 	 1.16157
| 41> *
| 42>
| 43>                          ****END OF INPUT****

CARTESIAN COORDINATES (ANGSTROEM)
---------------------------------
  S    -77.249200   -1.353940    7.147770
  C    -77.789200    0.153113    7.922210
  C    -77.888000    1.216130    7.023350
  C    -77.395000    0.870720    5.672160
  C    -76.850800   -0.438958    5.658450
  H    -77.460500    1.466910    4.871920
  C    -78.108000    2.676400    7.374890
  H    -78.921900    2.771920    8.123450
  H    -78.366700    3.213890    6.465840
  C    -76.863900    3.307140    8.001380
  H    -77.058500    4.121520    8.720140
  H    -76.430600    2.530390    8.669450
  C    -75.819900    3.773210    6.964800
  H    -74.853500    4.053510    7.460880
  H    -75.578800    2.957150    6.236770
  H    -76.149500    4.606100    6.397910
  S    -75.703900   -0.097648    3.273050
  C    -75.477900   -1.391430    2.125040
  C    -76.022400   -2.574280    2.646570
  C    -76.631300   -2.414130    3.925370
  C    -76.371600   -1.156680    4.452200
  H    -75.942000   -3.383990    2.006800
  C    -77.446500   -3.478660    4.552310
  H    -77.075600   -3.615460    5.521880
  H    -77.291700   -4.366210    3.949830
  C    -78.964100   -3.280530    4.503850
  H    -79.175600   -2.917700    3.507370
  H    -79.187800   -2.308920    5.030290
  C    -79.530700   -4.623040    5.012380
  H    -80.588000   -4.792390    4.736140
  H    -79.466900   -4.637830    6.073830
  H    -78.982300   -5.456920    4.591310
  H    -77.895100    0.200989    9.013460
  H    -74.929600   -1.375470    1.161570

 Total Charge           Charge          ....    0
 Multiplicity           Mult            ....    1
 Number of Electrons    NEL             ....  134
 Basis Dimension        Dim             ....  322

ORBITAL ENERGIES
----------------

  NO   OCC          E(Eh)            E(eV)
   0   2.0000     -88.970578     -2421.0125
   1   2.0000     -88.965988     -2420.8876
   2   2.0000     -10.342243      -281.4267
   3   2.0000     -10.324974      -280.9568
   4   2.0000     -10.320825      -280.8439
   5   2.0000     -10.319115      -280.7974
   6   2.0000     -10.309782      -280.5434
   7   2.0000     -10.300376      -280.2875
   8   2.0000     -10.298114      -280.2259
   9   2.0000     -10.295000      -280.1412
  10   2.0000     -10.290171      -280.0098
  11   2.0000     -10.288257      -279.9577
  12   2.0000     -10.284078      -279.8440
  13   2.0000     -10.279195      -279.7111
  14   2.0000     -10.278132      -279.6822
  15   2.0000     -10.277625      -279.6684
  16   2.0000      -8.083641      -219.9671
  17   2.0000      -8.081117      -219.8984
  18   2.0000      -6.042366      -164.4211
  19   2.0000      -6.039641      -164.3470
  20   2.0000      -6.038503      -164.3160
  21   2.0000      -6.035493      -164.2341
  22   2.0000      -6.034192      -164.1987
  23   2.0000      -6.031941      -164.1375
  24   2.0000      -1.006336       -27.3838
  25   2.0000      -0.976735       -26.5783
  26   2.0000      -0.915872       -24.9221
  27   2.0000      -0.909521       -24.7493
  28   2.0000      -0.866891       -23.5893
  29   2.0000      -0.850994       -23.1567
  30   2.0000      -0.841380       -22.8951
  31   2.0000      -0.811466       -22.0811
  32   2.0000      -0.780247       -21.2316
  33   2.0000      -0.768411       -20.9095
  34   2.0000      -0.709831       -19.3155
  35   2.0000      -0.701015       -19.0756
  36   2.0000      -0.692581       -18.8461
  37   2.0000      -0.668837       -18.2000
  38   2.0000      -0.645018       -17.5518
  39   2.0000      -0.614244       -16.7144
  40   2.0000      -0.593805       -16.1583
  41   2.0000      -0.571300       -15.5459
  42   2.0000      -0.567387       -15.4394
  43   2.0000      -0.552367       -15.0307
  44   2.0000      -0.535600       -14.5744
  45   2.0000      -0.518378       -14.1058
  46   2.0000      -0.517128       -14.0718
  47   2.0000      -0.515323       -14.0226
  48   2.0000      -0.514507       -14.0004
  49   2.0000      -0.495913       -13.4945
  50   2.0000      -0.485028       -13.1983
  51   2.0000      -0.477918       -13.0048
  52   2.0000      -0.468409       -12.7461
  53   2.0000      -0.465369       -12.6633
  54   2.0000      -0.459350       -12.4996
  55   2.0000      -0.448379       -12.2010
  56   2.0000      -0.441961       -12.0264
  57   2.0000      -0.434422       -11.8212
  58   2.0000      -0.433123       -11.7859
  59   2.0000      -0.429251       -11.6805
  60   2.0000      -0.418727       -11.3941
  61   2.0000      -0.412857       -11.2344
  62   2.0000      -0.408847       -11.1253
  63   2.0000      -0.355306        -9.6684
  64   2.0000      -0.330186        -8.9848
  65   2.0000      -0.328521        -8.9395
  66   2.0000      -0.283370        -7.7109
  67   0.0000       0.018510         0.5037
  68   0.0000       0.071020         1.9326
  69   0.0000       0.094435         2.5697
  70   0.0000       0.118614         3.2276
  71   0.0000       0.133419         3.6305

MULLIKEN ATOMIC CHARGES
-----------------------
   0 S :    0.081139
   1 C :   -0.125972
   2 C :   -0.072495
   3 C :    0.048274
   4 C :   -0.127830
   5 H :   -0.021123
   6 C :    0.054599
   7 H :    0.034106
   8 H :    0.024564
   9 C :   -0.070753
  10 H :    0.031029
  11 H :    0.024866
  12 C :   -0.069885
  13 H :    0.040185
  14 H :    0.042616
  15 H :    0.026216
  16 S :    0.093159
  17 C :   -0.112190
  18 C :   -0.014390
  19 C :   -0.056511
  20 C :   -0.114439
  21 H :   -0.009856
  22 C :    0.053133
  23 H :    0.023202
  24 H :    0.007198
  25 C :   -0.061913
  26 H :    0.015002
  27 H :    0.037008
  28 C :   -0.004601
  29 H :    0.035552
  30 H :    0.032341
  31 H :    0.026316
  32 H :    0.062010
  33 H :    0.069442
Sum of atomic charges:    0.0000000

LOEWDIN ATOMIC CHARGES
----------------------
   0 S :    0.383454
   1 C :   -0.192140
   2 C :   -0.050797
   3 C :   -0.052332
   4 C :   -0.167293
   5 H :    0.003160
   6 C :   -0.033467
   7 H :    0.035271
   8 H :    0.028078
   9 C :   -0.045098
  10 H :    0.024384
  11 H :    0.026305
  12 C :   -0.070133
  13 H :    0.032271
  14 H :    0.030365
  15 H :    0.016586
  16 S :    0.429058
  17 C :   -0.197708
  18 C :   -0.062275
  19 C :   -0.059909
  20 C :   -0.206396
  21 H :    0.019462
  22 C :   -0.034222
  23 H :    0.014446
  24 H :    0.028685
  25 C :   -0.042386
  26 H :    0.020749
  27 H :    0.027791
  28 C :   -0.056325
  29 H :    0.028476
  30 H :    0.026708
  31 H :    0.025236
  32 H :    0.030528
  33 H :    0.039467

  Mayer bond orders larger than 0.100000
B(  0-S ,  1-C ) :   1.1170 B(  0-S ,  4-C ) :   1.1442 B(  1-C ,  2-C ) :   1.6304
B(  1-C , 32-H ) :   0.9648 B(  2-C ,  3-C ) :   1.2128 B(  2-C ,  6-C ) :   1.0466
B(  3-C ,  4-C ) :   1.5649 B(  3-C ,  5-H ) :   0.9978 B(  4-C , 20-C ) :   1.0415
B(  6-C ,  7-H ) :   0.9363 B(  6-C ,  8-H ) :   0.9457 B(  6-C ,  9-C ) :   1.0558
B(  9-C , 10-H ) :   0.9570 B(  9-C , 11-H ) :   0.9551 B(  9-C , 12-C ) :   1.0775
B( 12-C , 13-H ) :   0.9726 B( 12-C , 14-H ) :   0.9716 B( 12-C , 15-H ) :   0.9763
B( 16-S , 17-C ) :   1.1624 B( 16-S , 20-C ) :   1.1542 B( 17-C , 18-C ) :   1.5966
B( 17-C , 33-H ) :   0.9620 B( 18-C , 19-C ) :   1.2531 B( 18-C , 21-H ) :   1.0038
B( 19-C , 20-C ) :   1.5448 B( 19-C , 22-C ) :   1.0436 B( 22-C , 23-H ) :   0.9339
B( 22-C , 24-H ) :   0.9288 B( 22-C , 25-C ) :   1.0525 B( 25-C , 26-H ) :   0.9541
B( 25-C , 27-H ) :   0.9545 B( 25-C , 28-C ) :   1.0563 B( 28-C , 29-H ) :   0.9747
B( 28-C , 30-H ) :   0.9739 B( 28-C , 31-H ) :   0.9742

Dispersion correction           -0.015012400
FINAL SINGLE POINT ENERGY     -1339.862243758026

DIPOLE MOMENT
-------------
                                X             Y             Z
Electronic contribution:      7.66579      -3.03137      -5.34040
Nuclear contribution   :     -7.87833       3.07706       5.28540
                        -----------------------------------------
Total Dipole Moment    :     -0.21254       0.04569      -0.05499
                        -----------------------------------------
Magnitude (a.u.)       :      0.22424
Magnitude (Debye)      :      0.56997

Rotational constants in cm-1:     0.020516     0.009259     0.006881
Rotational constants in MHz :   615.046676   277.581204   206.301191

                             ****ORCA TERMINATED NORMALLY****
TOTAL RUN TIME: 0 days 0 hours 0 minutes 23 seconds 121 msec
