                         Program Version 4.2.1 -  RELEASE  -
|  1> ! wB97X-D3 SP def2-SVP
|  2> %pal
|  3> nprocs 24
|  4> end
|  5>
|  6> * xyz 0 1
|  7> S 	 -77.3454 	 -5.17865 	 5.06692
|  8> C 	 -75.6372 	 -4.86935 	 5.37099
|  9> C 	 -74.8266 	 -5.68787 	 4.63384
| 10> C 	 -75.6269 	 -6.76009 	 4.15036
| 11> C 	 -77.0381 	 -6.69285 	 4.33356
| 12> H 	 -75.2731 	 -7.5975 	 3.58235
| 13> C 	 -73.3479 	 -5.77319 	 4.58457
| 14> H 	 -73.0604 	 -4.72395 	 4.31206
| 15> H 	 -73.0477 	 -6.50196 	 3.78881
| 16> C 	 -72.5905 	 -6.01087 	 5.92441
| 17> H 	 -71.5177 	 -6.20553 	 5.73133
| 18> H 	 -72.7943 	 -5.11152 	 6.49763
| 19> C 	 -73.1314 	 -7.25448 	 6.70769
| 20> H 	 -74.1566 	 -7.05039 	 6.96494
| 21> H 	 -73.0494 	 -8.12962 	 6.01165
| 22> H 	 -72.5828 	 -7.51683 	 7.65503
| 23> S 	 -79.3247 	 -6.88907 	 2.65552
| 24> C 	 -80.0615 	 -8.41094 	 2.3665
| 25> C 	 -79.2927 	 -9.37163 	 2.94749
| 26> C 	 -78.2193 	 -8.90644 	 3.79786
| 27> C 	 -78.0975 	 -7.53802 	 3.75417
| 28> H 	 -79.3653 	 -10.4005 	 2.59061
| 29> C 	 -77.1604 	 -9.87608 	 4.38202
| 30> H 	 -76.2345 	 -9.28858 	 4.68527
| 31> H 	 -76.7582 	 -10.5089 	 3.65095
| 32> C 	 -77.6823 	 -10.8505 	 5.49586
| 33> H 	 -78.65 	 -11.2735 	 5.23294
| 34> H 	 -77.8654 	 -10.2831 	 6.37586
| 35> C 	 -76.6876 	 -11.9691 	 5.90338
| 36> H 	 -76.0282 	 -11.3579 	 6.39146
| 37> H 	 -76.3659 	 -12.4977 	 5.02499
| 38> H 	 -77.042 	 -12.6229 	 6.66936
| 39> H 	 -75.1284 	 -4.108 	 5.92875
| 40> H 	 -80.977 	 -8.52735 	 1.75086
| 41> *
| 42>
| 43>                          ****END OF INPUT****

CARTESIAN COORDINATES (ANGSTROEM)
---------------------------------
  S    -77.345400   -5.178650    5.066920
  C    -75.637200   -4.869350    5.370990
  C    -74.826600   -5.687870    4.633840
  C    -75.626900   -6.760090    4.150360
  C    -77.038100   -6.692850    4.333560
  H    -75.273100   -7.597500    3.582350
  C    -73.347900   -5.773190    4.584570
  H    -73.060400   -4.723950    4.312060
  H    -73.047700   -6.501960    3.788810
  C    -72.590500   -6.010870    5.924410
  H    -71.517700   -6.205530    5.731330
  H    -72.794300   -5.111520    6.497630
  C    -73.131400   -7.254480    6.707690
  H    -74.156600   -7.050390    6.964940
  H    -73.049400   -8.129620    6.011650
  H    -72.582800   -7.516830    7.655030
  S    -79.324700   -6.889070    2.655520
  C    -80.061500   -8.410940    2.366500
  C    -79.292700   -9.371630    2.947490
  C    -78.219300   -8.906440    3.797860
  C    -78.097500   -7.538020    3.754170
  H    -79.365300  -10.400500    2.590610
  C    -77.160400   -9.876080    4.382020
  H    -76.234500   -9.288580    4.685270
  H    -76.758200  -10.508900    3.650950
  C    -77.682300  -10.850500    5.495860
  H    -78.650000  -11.273500    5.232940
  H    -77.865400  -10.283100    6.375860
  C    -76.687600  -11.969100    5.903380
  H    -76.028200  -11.357900    6.391460
  H    -76.365900  -12.497700    5.024990
  H    -77.042000  -12.622900    6.669360
  H    -75.128400   -4.108000    5.928750
  H    -80.977000   -8.527350    1.750860

 Total Charge           Charge          ....    0
 Multiplicity           Mult            ....    1
 Number of Electrons    NEL             ....  134
 Basis Dimension        Dim             ....  322

ORBITAL ENERGIES
----------------

  NO   OCC          E(Eh)            E(eV)
   0   2.0000     -88.970545     -2421.0116
   1   2.0000     -88.963429     -2420.8180
   2   2.0000     -10.332573      -281.1636
   3   2.0000     -10.331796      -281.1425
   4   2.0000     -10.318827      -280.7895
   5   2.0000     -10.315008      -280.6856
   6   2.0000     -10.305885      -280.4374
   7   2.0000     -10.301615      -280.3212
   8   2.0000     -10.299660      -280.2680
   9   2.0000     -10.296517      -280.1825
  10   2.0000     -10.295375      -280.1514
  11   2.0000     -10.295000      -280.1412
  12   2.0000     -10.293073      -280.0888
  13   2.0000     -10.282867      -279.8110
  14   2.0000     -10.280511      -279.7469
  15   2.0000     -10.267014      -279.3797
  16   2.0000      -8.085309      -220.0124
  17   2.0000      -8.078729      -219.8334
  18   2.0000      -6.043830      -164.4610
  19   2.0000      -6.039720      -164.3491
  20   2.0000      -6.037310      -164.2836
  21   2.0000      -6.036122      -164.2512
  22   2.0000      -6.033123      -164.1696
  23   2.0000      -6.029395      -164.0682
  24   2.0000      -1.010354       -27.4931
  25   2.0000      -0.991076       -26.9686
  26   2.0000      -0.916660       -24.9436
  27   2.0000      -0.903375       -24.5821
  28   2.0000      -0.869921       -23.6718
  29   2.0000      -0.852318       -23.1928
  30   2.0000      -0.841579       -22.9005
  31   2.0000      -0.811376       -22.0787
  32   2.0000      -0.785089       -21.3634
  33   2.0000      -0.777987       -21.1701
  34   2.0000      -0.706704       -19.2304
  35   2.0000      -0.702376       -19.1126
  36   2.0000      -0.695482       -18.9250
  37   2.0000      -0.658019       -17.9056
  38   2.0000      -0.635713       -17.2986
  39   2.0000      -0.614181       -16.7127
  40   2.0000      -0.595813       -16.2129
  41   2.0000      -0.582227       -15.8432
  42   2.0000      -0.568340       -15.4653
  43   2.0000      -0.554560       -15.0903
  44   2.0000      -0.543762       -14.7965
  45   2.0000      -0.527176       -14.3452
  46   2.0000      -0.514163       -13.9911
  47   2.0000      -0.510866       -13.9014
  48   2.0000      -0.508720       -13.8430
  49   2.0000      -0.502765       -13.6809
  50   2.0000      -0.491647       -13.3784
  51   2.0000      -0.478698       -13.0260
  52   2.0000      -0.471340       -12.8258
  53   2.0000      -0.463098       -12.6015
  54   2.0000      -0.460848       -12.5403
  55   2.0000      -0.449080       -12.2201
  56   2.0000      -0.443636       -12.0720
  57   2.0000      -0.439227       -11.9520
  58   2.0000      -0.426242       -11.5986
  59   2.0000      -0.423610       -11.5270
  60   2.0000      -0.419376       -11.4118
  61   2.0000      -0.416188       -11.3250
  62   2.0000      -0.411545       -11.1987
  63   2.0000      -0.347037        -9.4434
  64   2.0000      -0.331725        -9.0267
  65   2.0000      -0.326530        -8.8853
  66   2.0000      -0.295596        -8.0436
  67   0.0000       0.027876         0.7585
  68   0.0000       0.066832         1.8186
  69   0.0000       0.106253         2.8913
  70   0.0000       0.112854         3.0709
  71   0.0000       0.127164         3.4603

MULLIKEN ATOMIC CHARGES
-----------------------
   0 S :    0.128984
   1 C :   -0.102954
   2 C :   -0.085640
   3 C :    0.011602
   4 C :   -0.168704
   5 H :    0.003324
   6 C :    0.034602
   7 H :    0.040518
   8 H :    0.040346
   9 C :   -0.070480
  10 H :    0.047896
  11 H :    0.028009
  12 C :   -0.083102
  13 H :    0.045086
  14 H :    0.033405
  15 H :    0.046872
  16 S :    0.099891
  17 C :   -0.110740
  18 C :   -0.031514
  19 C :   -0.020451
  20 C :   -0.141752
  21 H :    0.029161
  22 C :    0.048146
  23 H :    0.028436
  24 H :    0.010838
  25 C :   -0.090750
  26 H :    0.023487
  27 H :    0.019889
  28 C :   -0.001992
  29 H :    0.011380
  30 H :    0.035208
  31 H :    0.028860
  32 H :    0.031456
  33 H :    0.080683
Sum of atomic charges:    0.0000000

LOEWDIN ATOMIC CHARGES
----------------------
   0 S :    0.432975
   1 C :   -0.192802
   2 C :   -0.070337
   3 C :   -0.060048
   4 C :   -0.211569
   5 H :    0.020202
   6 C :   -0.037732
   7 H :    0.041285
   8 H :    0.036149
   9 C :   -0.036391
  10 H :    0.030612
  11 H :    0.020348
  12 C :   -0.073515
  13 H :    0.022925
  14 H :    0.026524
  15 H :    0.030752
  16 S :    0.405014
  17 C :   -0.198050
  18 C :   -0.078102
  19 C :   -0.055358
  20 C :   -0.194428
  21 H :    0.032730
  22 C :   -0.030552
  23 H :    0.036085
  24 H :    0.020396
  25 C :   -0.033227
  26 H :    0.016539
  27 H :    0.018787
  28 C :   -0.055171
  29 H :    0.018014
  30 H :    0.022579
  31 H :    0.026351
  32 H :    0.026086
  33 H :    0.042928

  Mayer bond orders larger than 0.100000
B(  0-S ,  1-C ) :   1.1552 B(  0-S ,  4-C ) :   1.1621 B(  1-C ,  2-C ) :   1.5789
B(  1-C ,  4-C ) :   0.1048 B(  1-C , 32-H ) :   0.9673 B(  2-C ,  3-C ) :   1.2657
B(  2-C ,  6-C ) :   1.0312 B(  3-C ,  4-C ) :   1.5364 B(  3-C ,  5-H ) :   0.9873
B(  4-C , 20-C ) :   1.0413 B(  6-C ,  7-H ) :   0.9310 B(  6-C ,  8-H ) :   0.9440
B(  6-C ,  9-C ) :   1.0690 B(  9-C , 10-H ) :   0.9588 B(  9-C , 11-H ) :   0.9555
B(  9-C , 12-C ) :   1.0703 B( 12-C , 13-H ) :   0.9728 B( 12-C , 14-H ) :   0.9773
B( 12-C , 15-H ) :   0.9761 B( 16-S , 17-C ) :   1.1571 B( 16-S , 20-C ) :   1.1378
B( 17-C , 18-C ) :   1.6051 B( 17-C , 33-H ) :   0.9654 B( 18-C , 19-C ) :   1.2415
B( 18-C , 21-H ) :   0.9832 B( 19-C , 20-C ) :   1.6089 B( 19-C , 22-C ) :   1.0403
B( 22-C , 23-H ) :   0.9335 B( 22-C , 24-H ) :   0.9412 B( 22-C , 25-C ) :   1.0449
B( 25-C , 26-H ) :   0.9635 B( 25-C , 27-H ) :   0.9604 B( 25-C , 28-C ) :   1.0682
B( 28-C , 29-H ) :   0.9795 B( 28-C , 30-H ) :   0.9778 B( 28-C , 31-H ) :   0.9730

Dispersion correction           -0.014272679
FINAL SINGLE POINT ENERGY     -1339.854044557660

DIPOLE MOMENT
-------------
                                X             Y             Z
Electronic contribution:    -21.02889      18.27237     -12.04932
Nuclear contribution   :     21.60931     -18.67193      12.00786
                        -----------------------------------------
Total Dipole Moment    :      0.58043      -0.39956      -0.04145
                        -----------------------------------------
Magnitude (a.u.)       :      0.70587
Magnitude (Debye)      :      1.79419

Rotational constants in cm-1:     0.016868     0.009498     0.006649
Rotational constants in MHz :   505.686127   284.736817   199.340472

                             ****ORCA TERMINATED NORMALLY****
TOTAL RUN TIME: 0 days 0 hours 0 minutes 21 seconds 900 msec
