                         Program Version 4.2.1 -  RELEASE  -
|  1> ! wB97X-D3 SP def2-SVP
|  2> %pal
|  3> nprocs 24
|  4> end
|  5>
|  6> * xyz 0 1
|  7> S 	 -100.158 	 12.688 	 -122.49
|  8> C 	 -101.493 	 12.6242 	 -123.672
|  9> C 	 -102.41 	 11.6635 	 -123.465
| 10> C 	 -102.053 	 10.9248 	 -122.322
| 11> C 	 -100.963 	 11.3637 	 -121.682
| 12> H 	 -102.646 	 10.1254 	 -121.924
| 13> C 	 -103.688 	 11.5017 	 -124.326
| 14> H 	 -103.888 	 10.4292 	 -124.538
| 15> H 	 -103.404 	 12.1499 	 -125.201
| 16> C 	 -104.952 	 12.1351 	 -123.628
| 17> H 	 -104.675 	 13.2695 	 -123.397
| 18> H 	 -105.677 	 12.1632 	 -124.362
| 19> C 	 -105.559 	 11.3952 	 -122.395
| 20> H 	 -105.869 	 10.3479 	 -122.645
| 21> H 	 -104.868 	 11.4102 	 -121.505
| 22> H 	 -106.445 	 11.8995 	 -122.015
| 23> S 	 -98.7904 	 10.7042 	 -120.067
| 24> C 	 -99.0805 	 9.93125 	 -118.529
| 25> C 	 -100.404 	 9.97858 	 -118.225
| 26> C 	 -101.203 	 10.6287 	 -119.245
| 27> C 	 -100.504 	 10.8612 	 -120.418
| 28> H 	 -100.776 	 9.61939 	 -117.311
| 29> C 	 -102.615 	 11.0777 	 -119.064
| 30> H 	 -103.299 	 10.2174 	 -118.915
| 31> H 	 -102.98 	 11.6841 	 -119.84
| 32> C 	 -102.697 	 12.0522 	 -117.88
| 33> H 	 -102.337 	 11.5163 	 -116.96
| 34> H 	 -103.776 	 12.1094 	 -117.741
| 35> C 	 -102.131 	 13.4376 	 -118.165
| 36> H 	 -102.213 	 14.0443 	 -117.324
| 37> H 	 -102.62 	 13.8574 	 -119.014
| 38> H 	 -101.009 	 13.2966 	 -118.346
| 39> H 	 -101.366 	 13.2864 	 -124.54
| 40> H 	 -98.3119 	 9.55199 	 -117.832
| 41> *
| 42>
| 43>                          ****END OF INPUT****

CARTESIAN COORDINATES (ANGSTROEM)
---------------------------------
  S    -100.158000   12.688000  -122.490000
  C    -101.493000   12.624200  -123.672000
  C    -102.410000   11.663500  -123.465000
  C    -102.053000   10.924800  -122.322000
  C    -100.963000   11.363700  -121.682000
  H    -102.646000   10.125400  -121.924000
  C    -103.688000   11.501700  -124.326000
  H    -103.888000   10.429200  -124.538000
  H    -103.404000   12.149900  -125.201000
  C    -104.952000   12.135100  -123.628000
  H    -104.675000   13.269500  -123.397000
  H    -105.677000   12.163200  -124.362000
  C    -105.559000   11.395200  -122.395000
  H    -105.869000   10.347900  -122.645000
  H    -104.868000   11.410200  -121.505000
  H    -106.445000   11.899500  -122.015000
  S    -98.790400   10.704200  -120.067000
  C    -99.080500    9.931250  -118.529000
  C    -100.404000    9.978580  -118.225000
  C    -101.203000   10.628700  -119.245000
  C    -100.504000   10.861200  -120.418000
  H    -100.776000    9.619390  -117.311000
  C    -102.615000   11.077700  -119.064000
  H    -103.299000   10.217400  -118.915000
  H    -102.980000   11.684100  -119.840000
  C    -102.697000   12.052200  -117.880000
  H    -102.337000   11.516300  -116.960000
  H    -103.776000   12.109400  -117.741000
  C    -102.131000   13.437600  -118.165000
  H    -102.213000   14.044300  -117.324000
  H    -102.620000   13.857400  -119.014000
  H    -101.009000   13.296600  -118.346000
  H    -101.366000   13.286400  -124.540000
  H    -98.311900    9.551990  -117.832000

 Total Charge           Charge          ....    0
 Multiplicity           Mult            ....    1
 Number of Electrons    NEL             ....  134
 Basis Dimension        Dim             ....  322

ORBITAL ENERGIES
----------------

  NO   OCC          E(Eh)            E(eV)
   0   2.0000     -88.963631     -2420.8235
   1   2.0000     -88.958626     -2420.6873
   2   2.0000     -10.320884      -280.8455
   3   2.0000     -10.319547      -280.8091
   4   2.0000     -10.317642      -280.7573
   5   2.0000     -10.312592      -280.6199
   6   2.0000     -10.307858      -280.4911
   7   2.0000     -10.298936      -280.2483
   8   2.0000     -10.298893      -280.2471
   9   2.0000     -10.297331      -280.2046
  10   2.0000     -10.291649      -280.0500
  11   2.0000     -10.289936      -280.0034
  12   2.0000     -10.284745      -279.8621
  13   2.0000     -10.283641      -279.8321
  14   2.0000     -10.283253      -279.8216
  15   2.0000     -10.272514      -279.5293
  16   2.0000      -8.078536      -219.8281
  17   2.0000      -8.073768      -219.6984
  18   2.0000      -6.036922      -164.2730
  19   2.0000      -6.033342      -164.1756
  20   2.0000      -6.032366      -164.1490
  21   2.0000      -6.029097      -164.0601
  22   2.0000      -6.028321      -164.0390
  23   2.0000      -6.024312      -163.9299
  24   2.0000      -1.011238       -27.5172
  25   2.0000      -0.986756       -26.8510
  26   2.0000      -0.913012       -24.8443
  27   2.0000      -0.905976       -24.6529
  28   2.0000      -0.871104       -23.7039
  29   2.0000      -0.849935       -23.1279
  30   2.0000      -0.839519       -22.8445
  31   2.0000      -0.818350       -22.2684
  32   2.0000      -0.785779       -21.3821
  33   2.0000      -0.772830       -21.0298
  34   2.0000      -0.704852       -19.1800
  35   2.0000      -0.697817       -18.9886
  36   2.0000      -0.692406       -18.8413
  37   2.0000      -0.654287       -17.8041
  38   2.0000      -0.640950       -17.4411
  39   2.0000      -0.621203       -16.9038
  40   2.0000      -0.601568       -16.3695
  41   2.0000      -0.572563       -15.5802
  42   2.0000      -0.559463       -15.2238
  43   2.0000      -0.547749       -14.9050
  44   2.0000      -0.541427       -14.7330
  45   2.0000      -0.532515       -14.4905
  46   2.0000      -0.518323       -14.1043
  47   2.0000      -0.508328       -13.8323
  48   2.0000      -0.497855       -13.5473
  49   2.0000      -0.493257       -13.4222
  50   2.0000      -0.487216       -13.2578
  51   2.0000      -0.481553       -13.1037
  52   2.0000      -0.476021       -12.9532
  53   2.0000      -0.465672       -12.6716
  54   2.0000      -0.461480       -12.5575
  55   2.0000      -0.446849       -12.1594
  56   2.0000      -0.443790       -12.0761
  57   2.0000      -0.440666       -11.9911
  58   2.0000      -0.431503       -11.7418
  59   2.0000      -0.426946       -11.6178
  60   2.0000      -0.423216       -11.5163
  61   2.0000      -0.418654       -11.3921
  62   2.0000      -0.399527       -10.8717
  63   2.0000      -0.350339        -9.5332
  64   2.0000      -0.336408        -9.1541
  65   2.0000      -0.323458        -8.8017
  66   2.0000      -0.289775        -7.8852
  67   0.0000       0.031144         0.8475
  68   0.0000       0.077505         2.1090
  69   0.0000       0.102179         2.7804
  70   0.0000       0.125474         3.4143
  71   0.0000       0.131613         3.5814

MULLIKEN ATOMIC CHARGES
-----------------------
   0 S :    0.099344
   1 C :   -0.162606
   2 C :   -0.045826
   3 C :   -0.004349
   4 C :   -0.117232
   5 H :    0.004716
   6 C :    0.060929
   7 H :    0.042260
   8 H :    0.034906
   9 C :   -0.072655
  10 H :    0.044126
  11 H :    0.020927
  12 C :   -0.072934
  13 H :    0.040493
  14 H :    0.039114
  15 H :    0.037125
  16 S :    0.084137
  17 C :   -0.088658
  18 C :   -0.005787
  19 C :   -0.065801
  20 C :   -0.146420
  21 H :   -0.002125
  22 C :    0.065045
  23 H :    0.035211
  24 H :    0.024032
  25 C :   -0.113549
  26 H :    0.027108
  27 H :    0.016907
  28 C :   -0.009223
  29 H :    0.026114
  30 H :    0.033204
  31 H :    0.050082
  32 H :    0.051815
  33 H :    0.069572
Sum of atomic charges:   -0.0000000

LOEWDIN ATOMIC CHARGES
----------------------
   0 S :    0.377954
   1 C :   -0.180082
   2 C :   -0.067442
   3 C :   -0.059352
   4 C :   -0.186484
   5 H :    0.030256
   6 C :   -0.025005
   7 H :    0.033661
   8 H :    0.040680
   9 C :   -0.040912
  10 H :    0.038186
  11 H :    0.011069
  12 C :   -0.075919
  13 H :    0.029858
  14 H :    0.028859
  15 H :    0.028537
  16 S :    0.386028
  17 C :   -0.183549
  18 C :   -0.067493
  19 C :   -0.055679
  20 C :   -0.196044
  21 H :    0.021684
  22 C :   -0.032497
  23 H :    0.032364
  24 H :    0.021123
  25 C :   -0.041292
  26 H :    0.021383
  27 H :    0.019385
  28 C :   -0.056350
  29 H :    0.018806
  30 H :    0.024498
  31 H :    0.039692
  32 H :    0.024024
  33 H :    0.040053

  Mayer bond orders larger than 0.100000
B(  0-S ,  1-C ) :   1.1198 B(  0-S ,  4-C ) :   1.1293 B(  1-C ,  2-C ) :   1.6557
B(  1-C , 32-H ) :   0.9617 B(  2-C ,  3-C ) :   1.2037 B(  2-C ,  6-C ) :   1.0094
B(  3-C ,  4-C ) :   1.6054 B(  3-C ,  5-H ) :   1.0093 B(  4-C , 20-C ) :   1.0655
B(  6-C ,  7-H ) :   0.9412 B(  6-C ,  8-H ) :   0.9372 B(  6-C ,  9-C ) :   1.0680
B(  9-C , 10-H ) :   0.9529 B(  9-C , 11-H ) :   0.9575 B(  9-C , 12-C ) :   1.0728
B( 12-C , 13-H ) :   0.9718 B( 12-C , 14-H ) :   0.9735 B( 12-C , 15-H ) :   0.9706
B( 16-S , 17-C ) :   1.1433 B( 16-S , 20-C ) :   1.1149 B( 17-C , 18-C ) :   1.6227
B( 17-C , 33-H ) :   0.9647 B( 18-C , 19-C ) :   1.2127 B( 18-C , 21-H ) :   0.9989
B( 19-C , 20-C ) :   1.5945 B( 19-C , 22-C ) :   1.0602 B( 22-C , 23-H ) :   0.9313
B( 22-C , 24-H ) :   0.9280 B( 22-C , 25-C ) :   1.0713 B( 25-C , 26-H ) :   0.9557
B( 25-C , 27-H ) :   0.9534 B( 25-C , 28-C ) :   1.0719 B( 28-C , 29-H ) :   0.9723
B( 28-C , 30-H ) :   0.9694 B( 28-C , 31-H ) :   0.9739

Dispersion correction           -0.016006139
FINAL SINGLE POINT ENERGY     -1339.874011956267

DIPOLE MOMENT
-------------
                                X             Y             Z
Electronic contribution:     26.35370      -3.76788      -4.27149
Nuclear contribution   :    -27.16359       3.75618       4.41724
                        -----------------------------------------
Total Dipole Moment    :     -0.80989      -0.01170       0.14575
                        -----------------------------------------
Magnitude (a.u.)       :      0.82298
Magnitude (Debye)      :      2.09185

Rotational constants in cm-1:     0.019639     0.009947     0.007882
Rotational constants in MHz :   588.755334   298.194813   236.307887

                             ****ORCA TERMINATED NORMALLY****
TOTAL RUN TIME: 0 days 0 hours 0 minutes 23 seconds 352 msec
