                         Program Version 4.2.1 -  RELEASE  -
|  1> ! wB97X-D3 SP def2-SVP
|  2> %pal
|  3> nprocs 24
|  4> end
|  5>
|  6> * xyz 0 1
|  7> S 	 29.2161 	 -4.94818 	 -116.42
|  8> C 	 30.312 	 -5.5765 	 -117.602
|  9> C 	 30.7437 	 -6.85444 	 -117.196
| 10> C 	 30.1765 	 -7.26738 	 -115.972
| 11> C 	 29.3859 	 -6.31663 	 -115.311
| 12> H 	 30.2619 	 -8.23226 	 -115.54
| 13> C 	 31.5111 	 -7.81292 	 -118.055
| 14> H 	 32.2731 	 -8.22323 	 -117.336
| 15> H 	 31.9938 	 -7.285 	 -118.837
| 16> C 	 30.6288 	 -8.95128 	 -118.644
| 17> H 	 31.3171 	 -9.68693 	 -119.183
| 18> H 	 30.3344 	 -9.49217 	 -117.749
| 19> C 	 29.4089 	 -8.64077 	 -119.419
| 20> H 	 29.29 	 -9.49082 	 -120.033
| 21> H 	 28.6038 	 -8.50678 	 -118.641
| 22> H 	 29.5383 	 -7.75847 	 -120.039
| 23> S 	 26.9884 	 -7.17334 	 -114.399
| 24> C 	 26.8571 	 -7.21667 	 -112.642
| 25> C 	 27.9501 	 -6.78695 	 -111.988
| 26> C 	 28.9727 	 -6.59388 	 -112.894
| 27> C 	 28.5554 	 -6.5766 	 -114.188
| 28> H 	 27.9482 	 -6.85705 	 -110.906
| 29> C 	 30.3718 	 -6.30294 	 -112.322
| 30> H 	 31.1328 	 -6.87933 	 -112.87
| 31> H 	 30.49 	 -6.58555 	 -111.251
| 32> C 	 30.8805 	 -4.85686 	 -112.499
| 33> H 	 29.9762 	 -4.19624 	 -112.176
| 34> H 	 31.0089 	 -4.65261 	 -113.554
| 35> C 	 32.1988 	 -4.48558 	 -111.777
| 36> H 	 32.4002 	 -3.38591 	 -111.934
| 37> H 	 32.9837 	 -5.0213 	 -112.257
| 38> H 	 32.2609 	 -4.69455 	 -110.721
| 39> H 	 30.6202 	 -5.03519 	 -118.492
| 40> H 	 25.9877 	 -7.49999 	 -112.129
| 41> *
| 42>
| 43>                          ****END OF INPUT****

CARTESIAN COORDINATES (ANGSTROEM)
---------------------------------
  S     29.216100   -4.948180  -116.420000
  C     30.312000   -5.576500  -117.602000
  C     30.743700   -6.854440  -117.196000
  C     30.176500   -7.267380  -115.972000
  C     29.385900   -6.316630  -115.311000
  H     30.261900   -8.232260  -115.540000
  C     31.511100   -7.812920  -118.055000
  H     32.273100   -8.223230  -117.336000
  H     31.993800   -7.285000  -118.837000
  C     30.628800   -8.951280  -118.644000
  H     31.317100   -9.686930  -119.183000
  H     30.334400   -9.492170  -117.749000
  C     29.408900   -8.640770  -119.419000
  H     29.290000   -9.490820  -120.033000
  H     28.603800   -8.506780  -118.641000
  H     29.538300   -7.758470  -120.039000
  S     26.988400   -7.173340  -114.399000
  C     26.857100   -7.216670  -112.642000
  C     27.950100   -6.786950  -111.988000
  C     28.972700   -6.593880  -112.894000
  C     28.555400   -6.576600  -114.188000
  H     27.948200   -6.857050  -110.906000
  C     30.371800   -6.302940  -112.322000
  H     31.132800   -6.879330  -112.870000
  H     30.490000   -6.585550  -111.251000
  C     30.880500   -4.856860  -112.499000
  H     29.976200   -4.196240  -112.176000
  H     31.008900   -4.652610  -113.554000
  C     32.198800   -4.485580  -111.777000
  H     32.400200   -3.385910  -111.934000
  H     32.983700   -5.021300  -112.257000
  H     32.260900   -4.694550  -110.721000
  H     30.620200   -5.035190  -118.492000
  H     25.987700   -7.499990  -112.129000

 Total Charge           Charge          ....    0
 Multiplicity           Mult            ....    1
 Number of Electrons    NEL             ....  134
 Basis Dimension        Dim             ....  322

ORBITAL ENERGIES
----------------

  NO   OCC          E(Eh)            E(eV)
   0   2.0000     -88.968769     -2420.9633
   1   2.0000     -88.965141     -2420.8646
   2   2.0000     -10.325645      -280.9751
   3   2.0000     -10.316675      -280.7310
   4   2.0000     -10.314011      -280.6585
   5   2.0000     -10.308857      -280.5183
   6   2.0000     -10.298362      -280.2327
   7   2.0000     -10.296286      -280.1762
   8   2.0000     -10.291174      -280.0371
   9   2.0000     -10.290579      -280.0209
  10   2.0000     -10.289263      -279.9851
  11   2.0000     -10.285698      -279.8881
  12   2.0000     -10.285549      -279.8840
  13   2.0000     -10.285363      -279.8790
  14   2.0000     -10.276784      -279.6455
  15   2.0000     -10.273067      -279.5444
  16   2.0000      -8.084566      -219.9922
  17   2.0000      -8.079508      -219.8546
  18   2.0000      -6.042863      -164.4347
  19   2.0000      -6.039153      -164.3337
  20   2.0000      -6.037913      -164.3000
  21   2.0000      -6.035256      -164.2277
  22   2.0000      -6.033825      -164.1887
  23   2.0000      -6.030635      -164.1019
  24   2.0000      -1.019459       -27.7409
  25   2.0000      -0.988656       -26.9027
  26   2.0000      -0.914016       -24.8716
  27   2.0000      -0.900854       -24.5135
  28   2.0000      -0.879356       -23.9285
  29   2.0000      -0.851650       -23.1746
  30   2.0000      -0.850583       -23.1455
  31   2.0000      -0.816195       -22.2098
  32   2.0000      -0.783246       -21.3132
  33   2.0000      -0.770769       -20.9737
  34   2.0000      -0.711075       -19.3493
  35   2.0000      -0.687671       -18.7125
  36   2.0000      -0.684876       -18.6364
  37   2.0000      -0.665129       -18.0991
  38   2.0000      -0.642565       -17.4851
  39   2.0000      -0.622543       -16.9403
  40   2.0000      -0.599957       -16.3257
  41   2.0000      -0.569669       -15.5015
  42   2.0000      -0.557074       -15.1588
  43   2.0000      -0.553649       -15.0656
  44   2.0000      -0.542176       -14.7534
  45   2.0000      -0.523291       -14.2395
  46   2.0000      -0.519138       -14.1265
  47   2.0000      -0.509042       -13.8517
  48   2.0000      -0.503639       -13.7047
  49   2.0000      -0.501618       -13.6497
  50   2.0000      -0.491536       -13.3754
  51   2.0000      -0.481570       -13.1042
  52   2.0000      -0.472549       -12.8587
  53   2.0000      -0.468380       -12.7453
  54   2.0000      -0.462557       -12.5868
  55   2.0000      -0.453963       -12.3530
  56   2.0000      -0.439305       -11.9541
  57   2.0000      -0.437145       -11.8953
  58   2.0000      -0.429057       -11.6752
  59   2.0000      -0.424936       -11.5631
  60   2.0000      -0.412709       -11.2304
  61   2.0000      -0.407311       -11.0835
  62   2.0000      -0.402773       -10.9600
  63   2.0000      -0.347047        -9.4436
  64   2.0000      -0.329990        -8.9795
  65   2.0000      -0.318642        -8.6707
  66   2.0000      -0.303489        -8.2584
  67   0.0000       0.041561         1.1309
  68   0.0000       0.053105         1.4451
  69   0.0000       0.114427         3.1137
  70   0.0000       0.124157         3.3785
  71   0.0000       0.131854         3.5879

MULLIKEN ATOMIC CHARGES
-----------------------
   0 S :    0.111864
   1 C :   -0.128410
   2 C :   -0.095055
   3 C :    0.032648
   4 C :   -0.195210
   5 H :    0.004931
   6 C :    0.089252
   7 H :    0.037586
   8 H :    0.006599
   9 C :   -0.135573
  10 H :    0.035630
  11 H :    0.018190
  12 C :    0.006348
  13 H :    0.030127
  14 H :    0.052112
  15 H :    0.026360
  16 S :    0.137771
  17 C :   -0.078523
  18 C :   -0.017983
  19 C :   -0.022746
  20 C :   -0.157715
  21 H :    0.022367
  22 C :    0.085827
  23 H :    0.016058
  24 H :    0.022029
  25 C :   -0.126444
  26 H :    0.033122
  27 H :    0.038876
  28 C :   -0.032132
  29 H :    0.045009
  30 H :    0.022093
  31 H :    0.029812
  32 H :    0.057788
  33 H :    0.027393
Sum of atomic charges:   -0.0000000

LOEWDIN ATOMIC CHARGES
----------------------
   0 S :    0.413130
   1 C :   -0.207004
   2 C :   -0.071773
   3 C :   -0.056288
   4 C :   -0.197013
   5 H :    0.025217
   6 C :   -0.031384
   7 H :    0.039588
   8 H :    0.018179
   9 C :   -0.049568
  10 H :    0.026441
  11 H :    0.019886
  12 C :   -0.061731
  13 H :    0.027029
  14 H :    0.040252
  15 H :    0.023619
  16 S :    0.432219
  17 C :   -0.163439
  18 C :   -0.066813
  19 C :   -0.049850
  20 C :   -0.231934
  21 H :    0.038825
  22 C :   -0.034863
  23 H :    0.028709
  24 H :    0.029908
  25 C :   -0.047863
  26 H :    0.026119
  27 H :    0.021542
  28 C :   -0.066289
  29 H :    0.037506
  30 H :    0.020858
  31 H :    0.020452
  32 H :    0.031502
  33 H :    0.014831

  Mayer bond orders larger than 0.100000
B(  0-S ,  1-C ) :   1.1664 B(  0-S ,  4-C ) :   1.1533 B(  1-C ,  2-C ) :   1.5462
B(  1-C ,  4-C ) :   0.1100 B(  1-C , 32-H ) :   0.9708 B(  2-C ,  3-C ) :   1.2691
B(  2-C ,  6-C ) :   1.0335 B(  3-C ,  4-C ) :   1.5513 B(  3-C ,  5-H ) :   0.9979
B(  4-C , 20-C ) :   1.0356 B(  6-C ,  7-H ) :   0.9392 B(  6-C ,  8-H ) :   0.9390
B(  6-C ,  9-C ) :   1.0672 B(  9-C , 10-H ) :   0.9603 B(  9-C , 11-H ) :   0.9561
B(  9-C , 12-C ) :   1.0631 B( 12-C , 13-H ) :   0.9695 B( 12-C , 14-H ) :   0.9725
B( 12-C , 15-H ) :   0.9775 B( 16-S , 17-C ) :   1.1541 B( 16-S , 20-C ) :   1.1501
B( 17-C , 18-C ) :   1.6332 B( 17-C , 33-H ) :   0.9674 B( 18-C , 19-C ) :   1.2420
B( 18-C , 21-H ) :   0.9902 B( 19-C , 20-C ) :   1.6063 B( 19-C , 22-C ) :   1.0470
B( 22-C , 23-H ) :   0.9207 B( 22-C , 24-H ) :   0.9437 B( 22-C , 25-C ) :   1.0582
B( 25-C , 26-H ) :   0.9581 B( 25-C , 27-H ) :   0.9532 B( 25-C , 28-C ) :   1.0790
B( 28-C , 29-H ) :   0.9732 B( 28-C , 30-H ) :   0.9726 B( 28-C , 31-H ) :   0.9770

Dispersion correction           -0.015106399
FINAL SINGLE POINT ENERGY     -1339.865216400822

DIPOLE MOMENT
-------------
                                X             Y             Z
Electronic contribution:    -16.98791       4.53784       1.05210
Nuclear contribution   :     17.26979      -4.94671      -0.97617
                        -----------------------------------------
Total Dipole Moment    :      0.28188      -0.40888       0.07593
                        -----------------------------------------
Magnitude (a.u.)       :      0.50240
Magnitude (Debye)      :      1.27699

Rotational constants in cm-1:     0.018767     0.009210     0.007449
Rotational constants in MHz :   562.606037   276.116443   223.328415

                             ****ORCA TERMINATED NORMALLY****
TOTAL RUN TIME: 0 days 0 hours 0 minutes 23 seconds 246 msec
