                         Program Version 4.2.1 -  RELEASE  -
|  1> ! wB97X-D3 SP def2-SVP
|  2> %pal
|  3> nprocs 24
|  4> end
|  5>
|  6> * xyz 0 1
|  7> S 	 42.4161 	 -21.0864 	 -110.67
|  8> C 	 41.7036 	 -19.5151 	 -110.774
|  9> C 	 42.3813 	 -18.6175 	 -111.596
| 10> C 	 43.5912 	 -19.1964 	 -112.046
| 11> C 	 43.7623 	 -20.4884 	 -111.629
| 12> H 	 44.3945 	 -18.7011 	 -112.632
| 13> C 	 41.8517 	 -17.2458 	 -111.948
| 14> H 	 41.1551 	 -16.8232 	 -111.201
| 15> H 	 41.2746 	 -17.3712 	 -112.862
| 16> C 	 42.8232 	 -16.062 	 -112.083
| 17> H 	 43.6168 	 -16.4056 	 -112.727
| 18> H 	 42.3357 	 -15.2109 	 -112.576
| 19> C 	 43.5566 	 -15.7283 	 -110.741
| 20> H 	 44.1865 	 -16.5566 	 -110.388
| 21> H 	 44.2518 	 -14.8566 	 -110.864
| 22> H 	 42.8616 	 -15.4399 	 -109.966
| 23> S 	 45.695 	 -21.5745 	 -113.285
| 24> C 	 47.1727 	 -22.1612 	 -112.584
| 25> C 	 47.152 	 -21.9411 	 -111.253
| 26> C 	 45.9093 	 -21.5916 	 -110.68
| 27> C 	 45.0059 	 -21.3016 	 -111.721
| 28> H 	 47.9997 	 -22.249 	 -110.669
| 29> C 	 45.7507 	 -21.3417 	 -109.183
| 30> H 	 46.3374 	 -22.051 	 -108.677
| 31> H 	 44.7465 	 -21.6216 	 -108.906
| 32> C 	 46.1484 	 -19.8896 	 -108.752
| 33> H 	 45.9256 	 -19.1328 	 -109.553
| 34> H 	 47.2227 	 -19.8817 	 -108.506
| 35> C 	 45.4629 	 -19.5634 	 -107.379
| 36> H 	 44.4089 	 -19.6768 	 -107.466
| 37> H 	 45.7093 	 -18.5425 	 -107.038
| 38> H 	 45.7536 	 -20.1374 	 -106.504
| 39> H 	 40.7397 	 -19.3702 	 -110.333
| 40> H 	 47.9409 	 -22.5783 	 -113.293
| 41> *
| 42>
| 43>                          ****END OF INPUT****

CARTESIAN COORDINATES (ANGSTROEM)
---------------------------------
  S     42.416100  -21.086400  -110.670000
  C     41.703600  -19.515100  -110.774000
  C     42.381300  -18.617500  -111.596000
  C     43.591200  -19.196400  -112.046000
  C     43.762300  -20.488400  -111.629000
  H     44.394500  -18.701100  -112.632000
  C     41.851700  -17.245800  -111.948000
  H     41.155100  -16.823200  -111.201000
  H     41.274600  -17.371200  -112.862000
  C     42.823200  -16.062000  -112.083000
  H     43.616800  -16.405600  -112.727000
  H     42.335700  -15.210900  -112.576000
  C     43.556600  -15.728300  -110.741000
  H     44.186500  -16.556600  -110.388000
  H     44.251800  -14.856600  -110.864000
  H     42.861600  -15.439900  -109.966000
  S     45.695000  -21.574500  -113.285000
  C     47.172700  -22.161200  -112.584000
  C     47.152000  -21.941100  -111.253000
  C     45.909300  -21.591600  -110.680000
  C     45.005900  -21.301600  -111.721000
  H     47.999700  -22.249000  -110.669000
  C     45.750700  -21.341700  -109.183000
  H     46.337400  -22.051000  -108.677000
  H     44.746500  -21.621600  -108.906000
  C     46.148400  -19.889600  -108.752000
  H     45.925600  -19.132800  -109.553000
  H     47.222700  -19.881700  -108.506000
  C     45.462900  -19.563400  -107.379000
  H     44.408900  -19.676800  -107.466000
  H     45.709300  -18.542500  -107.038000
  H     45.753600  -20.137400  -106.504000
  H     40.739700  -19.370200  -110.333000
  H     47.940900  -22.578300  -113.293000

 Total Charge           Charge          ....    0
 Multiplicity           Mult            ....    1
 Number of Electrons    NEL             ....  134
 Basis Dimension        Dim             ....  322

ORBITAL ENERGIES
----------------

  NO   OCC          E(Eh)            E(eV)
   0   2.0000     -88.967300     -2420.9233
   1   2.0000     -88.962045     -2420.7803
   2   2.0000     -10.327485      -281.0252
   3   2.0000     -10.324488      -280.9436
   4   2.0000     -10.316757      -280.7332
   5   2.0000     -10.309437      -280.5341
   6   2.0000     -10.303271      -280.3663
   7   2.0000     -10.301511      -280.3184
   8   2.0000     -10.295315      -280.1498
   9   2.0000     -10.294559      -280.1292
  10   2.0000     -10.293060      -280.0884
  11   2.0000     -10.289048      -279.9792
  12   2.0000     -10.287198      -279.9289
  13   2.0000     -10.287047      -279.9248
  14   2.0000     -10.281136      -279.7639
  15   2.0000     -10.274182      -279.5747
  16   2.0000      -8.082128      -219.9259
  17   2.0000      -8.077586      -219.8023
  18   2.0000      -6.040365      -164.3667
  19   2.0000      -6.036758      -164.2685
  20   2.0000      -6.035863      -164.2442
  21   2.0000      -6.033052      -164.1677
  22   2.0000      -6.031940      -164.1374
  23   2.0000      -6.028598      -164.0465
  24   2.0000      -1.008562       -27.4444
  25   2.0000      -0.988415       -26.8961
  26   2.0000      -0.909418       -24.7465
  27   2.0000      -0.902035       -24.5456
  28   2.0000      -0.865300       -23.5460
  29   2.0000      -0.849488       -23.1158
  30   2.0000      -0.845049       -22.9949
  31   2.0000      -0.812693       -22.1145
  32   2.0000      -0.782782       -21.3006
  33   2.0000      -0.769626       -20.9426
  34   2.0000      -0.705264       -19.1912
  35   2.0000      -0.699571       -19.0363
  36   2.0000      -0.683525       -18.5997
  37   2.0000      -0.661617       -18.0035
  38   2.0000      -0.638926       -17.3861
  39   2.0000      -0.623982       -16.9794
  40   2.0000      -0.599696       -16.3186
  41   2.0000      -0.564415       -15.3585
  42   2.0000      -0.558223       -15.1900
  43   2.0000      -0.552860       -15.0441
  44   2.0000      -0.536963       -14.6115
  45   2.0000      -0.518743       -14.1157
  46   2.0000      -0.514246       -13.9934
  47   2.0000      -0.507444       -13.8082
  48   2.0000      -0.506743       -13.7892
  49   2.0000      -0.491061       -13.3624
  50   2.0000      -0.485339       -13.2068
  51   2.0000      -0.477892       -13.0041
  52   2.0000      -0.465079       -12.6555
  53   2.0000      -0.463369       -12.6089
  54   2.0000      -0.460824       -12.5397
  55   2.0000      -0.449569       -12.2334
  56   2.0000      -0.445047       -12.1103
  57   2.0000      -0.437234       -11.8977
  58   2.0000      -0.434243       -11.8164
  59   2.0000      -0.430416       -11.7122
  60   2.0000      -0.423129       -11.5139
  61   2.0000      -0.414126       -11.2689
  62   2.0000      -0.410045       -11.1579
  63   2.0000      -0.344351        -9.3703
  64   2.0000      -0.335405        -9.1268
  65   2.0000      -0.326941        -8.8965
  66   2.0000      -0.292554        -7.9608
  67   0.0000       0.037206         1.0124
  68   0.0000       0.068988         1.8773
  69   0.0000       0.115475         3.1422
  70   0.0000       0.119641         3.2556
  71   0.0000       0.127801         3.4776

MULLIKEN ATOMIC CHARGES
-----------------------
   0 S :    0.115772
   1 C :   -0.130518
   2 C :   -0.062061
   3 C :    0.013114
   4 C :   -0.167239
   5 H :    0.029366
   6 C :    0.052912
   7 H :    0.024921
   8 H :    0.046208
   9 C :   -0.075559
  10 H :    0.021076
  11 H :    0.039271
  12 C :   -0.077054
  13 H :    0.046504
  14 H :    0.038508
  15 H :    0.028759
  16 S :    0.100017
  17 C :   -0.122748
  18 C :   -0.016377
  19 C :   -0.059548
  20 C :   -0.168670
  21 H :    0.012119
  22 C :    0.133138
  23 H :    0.004765
  24 H :    0.009315
  25 C :   -0.082092
  26 H :    0.061257
  27 H :    0.035191
  28 C :   -0.057834
  29 H :    0.032119
  30 H :    0.028475
  31 H :    0.025226
  32 H :    0.038790
  33 H :    0.082877
Sum of atomic charges:   -0.0000000

LOEWDIN ATOMIC CHARGES
----------------------
   0 S :    0.417674
   1 C :   -0.197550
   2 C :   -0.063108
   3 C :   -0.071407
   4 C :   -0.188698
   5 H :    0.038517
   6 C :   -0.036190
   7 H :    0.032444
   8 H :    0.036292
   9 C :   -0.042279
  10 H :    0.017523
  11 H :    0.029365
  12 C :   -0.069066
  13 H :    0.029439
  14 H :    0.030817
  15 H :    0.019707
  16 S :    0.417030
  17 C :   -0.195045
  18 C :   -0.075111
  19 C :   -0.054383
  20 C :   -0.212044
  21 H :    0.028198
  22 C :   -0.025524
  23 H :    0.024472
  24 H :    0.020518
  25 C :   -0.033203
  26 H :    0.033987
  27 H :    0.027055
  28 C :   -0.069104
  29 H :    0.019230
  30 H :    0.026463
  31 H :    0.024195
  32 H :    0.018546
  33 H :    0.041240

  Mayer bond orders larger than 0.100000
B(  0-S ,  1-C ) :   1.1520 B(  0-S ,  4-C ) :   1.1636 B(  1-C ,  2-C ) :   1.6040
B(  1-C , 32-H ) :   0.9717 B(  2-C ,  3-C ) :   1.2379 B(  2-C ,  6-C ) :   1.0112
B(  3-C ,  4-C ) :   1.6035 B(  3-C ,  5-H ) :   0.9824 B(  4-C , 20-C ) :   0.9896
B(  6-C ,  7-H ) :   0.9493 B(  6-C ,  8-H ) :   0.9335 B(  6-C ,  9-C ) :   1.0756
B(  9-C , 10-H ) :   0.9532 B(  9-C , 11-H ) :   0.9557 B(  9-C , 12-C ) :   1.0691
B( 12-C , 13-H ) :   0.9747 B( 12-C , 14-H ) :   0.9755 B( 12-C , 15-H ) :   0.9776
B( 16-S , 17-C ) :   1.1573 B( 16-S , 20-C ) :   1.1742 B( 17-C , 18-C ) :   1.5806
B( 17-C , 33-H ) :   0.9663 B( 18-C , 19-C ) :   1.2778 B( 18-C , 21-H ) :   0.9874
B( 19-C , 20-C ) :   1.5477 B( 19-C , 22-C ) :   1.0493 B( 22-C , 23-H ) :   0.9198
B( 22-C , 24-H ) :   0.9362 B( 22-C , 25-C ) :   1.0429 B( 25-C , 26-H ) :   0.9635
B( 25-C , 27-H ) :   0.9547 B( 25-C , 28-C ) :   1.0722 B( 28-C , 29-H ) :   0.9804
B( 28-C , 30-H ) :   0.9746 B( 28-C , 31-H ) :   0.9750

Dispersion correction           -0.015455471
FINAL SINGLE POINT ENERGY     -1339.887110838783

DIPOLE MOMENT
-------------
                                X             Y             Z
Electronic contribution:     -2.21013     -21.44185     -14.74932
Nuclear contribution   :      2.40767      21.84916      14.99821
                        -----------------------------------------
Total Dipole Moment    :      0.19754       0.40732       0.24889
                        -----------------------------------------
Magnitude (a.u.)       :      0.51660
Magnitude (Debye)      :      1.31309

Rotational constants in cm-1:     0.017170     0.009572     0.008372
Rotational constants in MHz :   514.744693   286.957831   250.979954

                             ****ORCA TERMINATED NORMALLY****
TOTAL RUN TIME: 0 days 0 hours 0 minutes 22 seconds 496 msec
