                         Program Version 4.2.1 -  RELEASE  -
|  1> ! wB97X-D3 SP def2-SVP
|  2> %pal
|  3> nprocs 24
|  4> end
|  5>
|  6> * xyz 0 1
|  7> S 	 -109.622 	 55.2128 	 -89.7029
|  8> C 	 -109.85 	 56.7435 	 -88.9102
|  9> C 	 -108.636 	 57.3779 	 -88.6307
| 10> C 	 -107.532 	 56.5042 	 -88.9266
| 11> C 	 -107.911 	 55.3768 	 -89.6339
| 12> H 	 -106.477 	 56.7597 	 -88.7497
| 13> C 	 -108.282 	 58.7219 	 -87.9938
| 14> H 	 -108.322 	 59.4071 	 -88.8327
| 15> H 	 -107.228 	 58.6825 	 -87.6624
| 16> C 	 -109.21 	 59.2537 	 -86.9233
| 17> H 	 -108.959 	 60.2806 	 -86.8934
| 18> H 	 -110.174 	 59.2399 	 -87.2834
| 19> C 	 -108.967 	 58.536 	 -85.5222
| 20> H 	 -107.938 	 58.3988 	 -85.3504
| 21> H 	 -109.293 	 59.1316 	 -84.6606
| 22> H 	 -109.218 	 57.4874 	 -85.4303
| 23> S 	 -107.672 	 52.699 	 -90.3903
| 24> C 	 -106.251 	 52.1456 	 -91.1701
| 25> C 	 -105.402 	 53.247 	 -91.4186
| 26> C 	 -105.755 	 54.5126 	 -90.8511
| 27> C 	 -106.989 	 54.3551 	 -90.2096
| 28> H 	 -104.467 	 53.0176 	 -91.9945
| 29> C 	 -105.056 	 55.7935 	 -91.269
| 30> H 	 -104.287 	 55.5613 	 -92.0107
| 31> H 	 -104.601 	 56.2243 	 -90.4328
| 32> C 	 -105.992 	 56.8101 	 -91.9662
| 33> H 	 -106.903 	 57.0801 	 -91.4766
| 34> H 	 -106.259 	 56.2343 	 -92.8794
| 35> C 	 -105.331 	 58.0554 	 -92.4963
| 36> H 	 -105.99 	 58.7121 	 -93.0833
| 37> H 	 -104.402 	 57.9226 	 -93.0104
| 38> H 	 -105.016 	 58.602 	 -91.6188
| 39> H 	 -110.84 	 57.2918 	 -88.7653
| 40> H 	 -106.205 	 51.1605 	 -91.7574
| 41> *
| 42>
| 43>                          ****END OF INPUT****

CARTESIAN COORDINATES (ANGSTROEM)
---------------------------------
  S    -109.622000   55.212800  -89.702900
  C    -109.850000   56.743500  -88.910200
  C    -108.636000   57.377900  -88.630700
  C    -107.532000   56.504200  -88.926600
  C    -107.911000   55.376800  -89.633900
  H    -106.477000   56.759700  -88.749700
  C    -108.282000   58.721900  -87.993800
  H    -108.322000   59.407100  -88.832700
  H    -107.228000   58.682500  -87.662400
  C    -109.210000   59.253700  -86.923300
  H    -108.959000   60.280600  -86.893400
  H    -110.174000   59.239900  -87.283400
  C    -108.967000   58.536000  -85.522200
  H    -107.938000   58.398800  -85.350400
  H    -109.293000   59.131600  -84.660600
  H    -109.218000   57.487400  -85.430300
  S    -107.672000   52.699000  -90.390300
  C    -106.251000   52.145600  -91.170100
  C    -105.402000   53.247000  -91.418600
  C    -105.755000   54.512600  -90.851100
  C    -106.989000   54.355100  -90.209600
  H    -104.467000   53.017600  -91.994500
  C    -105.056000   55.793500  -91.269000
  H    -104.287000   55.561300  -92.010700
  H    -104.601000   56.224300  -90.432800
  C    -105.992000   56.810100  -91.966200
  H    -106.903000   57.080100  -91.476600
  H    -106.259000   56.234300  -92.879400
  C    -105.331000   58.055400  -92.496300
  H    -105.990000   58.712100  -93.083300
  H    -104.402000   57.922600  -93.010400
  H    -105.016000   58.602000  -91.618800
  H    -110.840000   57.291800  -88.765300
  H    -106.205000   51.160500  -91.757400

 Total Charge           Charge          ....    0
 Multiplicity           Mult            ....    1
 Number of Electrons    NEL             ....  134
 Basis Dimension        Dim             ....  322

ORBITAL ENERGIES
----------------

  NO   OCC          E(Eh)            E(eV)
   0   2.0000     -88.970060     -2420.9984
   1   2.0000     -88.967042     -2420.9163
   2   2.0000     -10.335445      -281.2417
   3   2.0000     -10.328835      -281.0619
   4   2.0000     -10.322340      -280.8852
   5   2.0000     -10.318788      -280.7885
   6   2.0000     -10.309136      -280.5259
   7   2.0000     -10.302563      -280.3470
   8   2.0000     -10.300294      -280.2853
   9   2.0000     -10.294701      -280.1331
  10   2.0000     -10.294295      -280.1220
  11   2.0000     -10.291909      -280.0571
  12   2.0000     -10.283804      -279.8365
  13   2.0000     -10.280178      -279.7379
  14   2.0000     -10.275857      -279.6203
  15   2.0000     -10.272723      -279.5350
  16   2.0000      -8.085090      -220.0065
  17   2.0000      -8.081675      -219.9136
  18   2.0000      -6.043641      -164.4558
  19   2.0000      -6.040147      -164.3608
  20   2.0000      -6.039572      -164.3451
  21   2.0000      -6.036206      -164.2535
  22   2.0000      -6.035773      -164.2417
  23   2.0000      -6.032488      -164.1523
  24   2.0000      -1.006060       -27.3763
  25   2.0000      -0.983072       -26.7507
  26   2.0000      -0.913932       -24.8693
  27   2.0000      -0.912801       -24.8386
  28   2.0000      -0.860264       -23.4090
  29   2.0000      -0.855912       -23.2905
  30   2.0000      -0.846031       -23.0217
  31   2.0000      -0.803987       -21.8776
  32   2.0000      -0.787524       -21.4296
  33   2.0000      -0.776836       -21.1388
  34   2.0000      -0.720361       -19.6020
  35   2.0000      -0.702903       -19.1270
  36   2.0000      -0.683633       -18.6026
  37   2.0000      -0.658742       -17.9253
  38   2.0000      -0.629466       -17.1286
  39   2.0000      -0.611912       -16.6510
  40   2.0000      -0.593708       -16.1556
  41   2.0000      -0.573676       -15.6105
  42   2.0000      -0.569299       -15.4914
  43   2.0000      -0.553285       -15.0557
  44   2.0000      -0.533608       -14.5202
  45   2.0000      -0.521804       -14.1990
  46   2.0000      -0.516700       -14.0601
  47   2.0000      -0.505752       -13.7622
  48   2.0000      -0.504070       -13.7164
  49   2.0000      -0.493670       -13.4334
  50   2.0000      -0.490322       -13.3423
  51   2.0000      -0.481762       -13.1094
  52   2.0000      -0.474673       -12.9165
  53   2.0000      -0.465007       -12.6535
  54   2.0000      -0.460098       -12.5199
  55   2.0000      -0.449562       -12.2332
  56   2.0000      -0.445429       -12.1207
  57   2.0000      -0.438938       -11.9441
  58   2.0000      -0.436399       -11.8750
  59   2.0000      -0.431417       -11.7394
  60   2.0000      -0.420287       -11.4366
  61   2.0000      -0.418256       -11.3813
  62   2.0000      -0.406434       -11.0596
  63   2.0000      -0.352069        -9.5803
  64   2.0000      -0.332854        -9.0574
  65   2.0000      -0.329757        -8.9732
  66   2.0000      -0.283580        -7.7166
  67   0.0000       0.020317         0.5528
  68   0.0000       0.077967         2.1216
  69   0.0000       0.098251         2.6736
  70   0.0000       0.123650         3.3647
  71   0.0000       0.129362         3.5201

MULLIKEN ATOMIC CHARGES
-----------------------
   0 S :    0.121550
   1 C :   -0.149196
   2 C :   -0.099368
   3 C :   -0.023144
   4 C :   -0.126795
   5 H :    0.018819
   6 C :    0.033505
   7 H :    0.034264
   8 H :    0.028845
   9 C :    0.007789
  10 H :    0.013899
  11 H :    0.007076
  12 C :   -0.033810
  13 H :    0.000035
  14 H :    0.039227
  15 H :    0.037622
  16 S :    0.096161
  17 C :   -0.118756
  18 C :   -0.085136
  19 C :   -0.018372
  20 C :   -0.149088
  21 H :    0.036187
  22 C :    0.103140
  23 H :    0.022326
  24 H :    0.015606
  25 C :   -0.101920
  26 H :    0.053118
  27 H :    0.027658
  28 C :   -0.021845
  29 H :    0.042573
  30 H :    0.015673
  31 H :    0.007500
  32 H :    0.071083
  33 H :    0.093776
Sum of atomic charges:   -0.0000000

LOEWDIN ATOMIC CHARGES
----------------------
   0 S :    0.424876
   1 C :   -0.227550
   2 C :   -0.062371
   3 C :   -0.073908
   4 C :   -0.201656
   5 H :    0.032067
   6 C :   -0.028795
   7 H :    0.035238
   8 H :    0.031453
   9 C :   -0.026306
  10 H :    0.024433
  11 H :    0.012668
  12 C :   -0.068321
  13 H :    0.019345
  14 H :    0.029242
  15 H :    0.031332
  16 S :    0.399323
  17 C :   -0.223770
  18 C :   -0.077859
  19 C :   -0.057278
  20 C :   -0.172196
  21 H :    0.034992
  22 C :   -0.019248
  23 H :    0.036089
  24 H :    0.018053
  25 C :   -0.041171
  26 H :    0.024238
  27 H :    0.028348
  28 C :   -0.065570
  29 H :    0.031560
  30 H :    0.019035
  31 H :    0.019865
  32 H :    0.042996
  33 H :    0.050846

  Mayer bond orders larger than 0.100000
B(  0-S ,  1-C ) :   1.1306 B(  0-S ,  4-C ) :   1.1651 B(  1-C ,  2-C ) :   1.6142
B(  1-C , 32-H ) :   0.9560 B(  2-C ,  3-C ) :   1.2504 B(  2-C ,  6-C ) :   1.0051
B(  3-C ,  4-C ) :   1.5586 B(  3-C ,  5-H ) :   0.9892 B(  4-C , 20-C ) :   1.0526
B(  6-C ,  7-H ) :   0.9255 B(  6-C ,  8-H ) :   0.9487 B(  6-C ,  9-C ) :   1.0965
B(  9-C , 10-H ) :   0.9483 B(  9-C , 11-H ) :   0.9536 B(  9-C , 12-C ) :   1.0560
B( 12-C , 13-H ) :   0.9712 B( 12-C , 14-H ) :   0.9792 B( 12-C , 15-H ) :   0.9767
B( 16-S , 17-C ) :   1.1586 B( 16-S , 20-C ) :   1.1535 B( 17-C , 18-C ) :   1.6010
B( 17-C , 33-H ) :   0.9546 B( 18-C , 19-C ) :   1.2663 B( 18-C , 21-H ) :   0.9745
B( 19-C , 20-C ) :   1.5569 B( 19-C , 22-C ) :   1.0420 B( 22-C , 23-H ) :   0.9398
B( 22-C , 24-H ) :   0.9216 B( 22-C , 25-C ) :   1.0555 B( 25-C , 26-H ) :   0.9550
B( 25-C , 27-H ) :   0.9553 B( 25-C , 28-C ) :   1.0929 B( 28-C , 29-H ) :   0.9729
B( 28-C , 30-H ) :   0.9711 B( 28-C , 31-H ) :   0.9689

Dispersion correction           -0.014733279
FINAL SINGLE POINT ENERGY     -1339.861216645515

DIPOLE MOMENT
-------------
                                X             Y             Z
Electronic contribution:     -8.89702     -25.68916      -4.15462
Nuclear contribution   :      9.24255      26.34440       3.96883
                        -----------------------------------------
Total Dipole Moment    :      0.34552       0.65524      -0.18579
                        -----------------------------------------
Magnitude (a.u.)       :      0.76370
Magnitude (Debye)      :      1.94117

Rotational constants in cm-1:     0.019790     0.008741     0.006880
Rotational constants in MHz :   593.275043   262.049446   206.259235

                             ****ORCA TERMINATED NORMALLY****
TOTAL RUN TIME: 0 days 0 hours 0 minutes 20 seconds 966 msec
