                         Program Version 4.2.1 -  RELEASE  -
|  1> ! wB97X-D3 SP def2-SVP
|  2> %pal
|  3> nprocs 24
|  4> end
|  5>
|  6> * xyz 0 1
|  7> S 	 -33.3394 	 -32.7763 	 -92.8702
|  8> C 	 -34.5744 	 -31.6185 	 -92.372
|  9> C 	 -34.2606 	 -31.0193 	 -91.1828
| 10> C 	 -33.0662 	 -31.5561 	 -90.5813
| 11> C 	 -32.3746 	 -32.48 	 -91.352
| 12> H 	 -32.6268 	 -31.2966 	 -89.624
| 13> C 	 -35.1294 	 -29.9329 	 -90.4928
| 14> H 	 -34.8348 	 -29.8164 	 -89.4683
| 15> H 	 -36.2255 	 -30.0892 	 -90.5051
| 16> C 	 -34.7718 	 -28.5538 	 -91.0856
| 17> H 	 -34.9324 	 -28.4432 	 -92.1511
| 18> H 	 -35.4343 	 -27.8421 	 -90.6012
| 19> C 	 -33.3393 	 -28.2315 	 -90.8774
| 20> H 	 -32.7046 	 -28.8122 	 -91.5972
| 21> H 	 -33.1439 	 -27.2083 	 -91.0632
| 22> H 	 -33.0644 	 -28.4814 	 -89.8638
| 23> S 	 -31.0288 	 -34.7398 	 -91.8694
| 24> C 	 -29.4096 	 -35.0613 	 -91.1781
| 25> C 	 -28.9024 	 -33.9598 	 -90.508
| 26> C 	 -29.8957 	 -32.9355 	 -90.4229
| 27> C 	 -31.0868 	 -33.1535 	 -91.1658
| 28> H 	 -27.9127 	 -33.9671 	 -90.14
| 29> C 	 -29.4491 	 -31.6593 	 -89.6227
| 30> H 	 -28.7476 	 -31.9635 	 -88.844
| 31> H 	 -30.3199 	 -31.2134 	 -89.1245
| 32> C 	 -28.926 	 -30.4523 	 -90.4934
| 33> H 	 -29.6047 	 -30.0623 	 -91.2241
| 34> H 	 -28.0617 	 -30.7381 	 -91.0895
| 35> C 	 -28.499 	 -29.3064 	 -89.623
| 36> H 	 -27.5809 	 -29.6452 	 -89.1808
| 37> H 	 -29.2628 	 -29.0795 	 -88.8822
| 38> H 	 -28.2827 	 -28.4643 	 -90.2796
| 39> H 	 -35.5068 	 -31.3531 	 -92.9221
| 40> H 	 -28.8706 	 -36.0308 	 -91.3632
| 41> *
| 42>
| 43>                          ****END OF INPUT****

CARTESIAN COORDINATES (ANGSTROEM)
---------------------------------
  S    -33.339400  -32.776300  -92.870200
  C    -34.574400  -31.618500  -92.372000
  C    -34.260600  -31.019300  -91.182800
  C    -33.066200  -31.556100  -90.581300
  C    -32.374600  -32.480000  -91.352000
  H    -32.626800  -31.296600  -89.624000
  C    -35.129400  -29.932900  -90.492800
  H    -34.834800  -29.816400  -89.468300
  H    -36.225500  -30.089200  -90.505100
  C    -34.771800  -28.553800  -91.085600
  H    -34.932400  -28.443200  -92.151100
  H    -35.434300  -27.842100  -90.601200
  C    -33.339300  -28.231500  -90.877400
  H    -32.704600  -28.812200  -91.597200
  H    -33.143900  -27.208300  -91.063200
  H    -33.064400  -28.481400  -89.863800
  S    -31.028800  -34.739800  -91.869400
  C    -29.409600  -35.061300  -91.178100
  C    -28.902400  -33.959800  -90.508000
  C    -29.895700  -32.935500  -90.422900
  C    -31.086800  -33.153500  -91.165800
  H    -27.912700  -33.967100  -90.140000
  C    -29.449100  -31.659300  -89.622700
  H    -28.747600  -31.963500  -88.844000
  H    -30.319900  -31.213400  -89.124500
  C    -28.926000  -30.452300  -90.493400
  H    -29.604700  -30.062300  -91.224100
  H    -28.061700  -30.738100  -91.089500
  C    -28.499000  -29.306400  -89.623000
  H    -27.580900  -29.645200  -89.180800
  H    -29.262800  -29.079500  -88.882200
  H    -28.282700  -28.464300  -90.279600
  H    -35.506800  -31.353100  -92.922100
  H    -28.870600  -36.030800  -91.363200

 Total Charge           Charge          ....    0
 Multiplicity           Mult            ....    1
 Number of Electrons    NEL             ....  134
 Basis Dimension        Dim             ....  322

ORBITAL ENERGIES
----------------

  NO   OCC          E(Eh)            E(eV)
   0   2.0000     -88.966760     -2420.9086
   1   2.0000     -88.965676     -2420.8791
   2   2.0000     -10.339720      -281.3581
   3   2.0000     -10.335468      -281.2424
   4   2.0000     -10.326596      -281.0010
   5   2.0000     -10.317986      -280.7667
   6   2.0000     -10.314229      -280.6645
   7   2.0000     -10.304607      -280.4026
   8   2.0000     -10.299837      -280.2728
   9   2.0000     -10.298387      -280.2334
  10   2.0000     -10.297435      -280.2075
  11   2.0000     -10.295932      -280.1665
  12   2.0000     -10.280541      -279.7478
  13   2.0000     -10.279564      -279.7212
  14   2.0000     -10.272557      -279.5305
  15   2.0000     -10.269930      -279.4590
  16   2.0000      -8.081286      -219.9030
  17   2.0000      -8.079128      -219.8442
  18   2.0000      -6.039854      -164.3528
  19   2.0000      -6.037872      -164.2989
  20   2.0000      -6.035765      -164.2415
  21   2.0000      -6.033910      -164.1910
  22   2.0000      -6.032030      -164.1399
  23   2.0000      -6.029603      -164.0738
  24   2.0000      -1.001106       -27.2415
  25   2.0000      -0.977969       -26.6119
  26   2.0000      -0.916288       -24.9335
  27   2.0000      -0.905695       -24.6452
  28   2.0000      -0.873015       -23.7559
  29   2.0000      -0.850957       -23.1557
  30   2.0000      -0.839755       -22.8509
  31   2.0000      -0.816057       -22.2061
  32   2.0000      -0.780582       -21.2407
  33   2.0000      -0.767533       -20.8856
  34   2.0000      -0.703759       -19.1502
  35   2.0000      -0.696083       -18.9414
  36   2.0000      -0.690297       -18.7839
  37   2.0000      -0.667845       -18.1730
  38   2.0000      -0.636668       -17.3246
  39   2.0000      -0.614780       -16.7290
  40   2.0000      -0.593345       -16.1457
  41   2.0000      -0.578374       -15.7384
  42   2.0000      -0.568089       -15.4585
  43   2.0000      -0.557076       -15.1588
  44   2.0000      -0.544041       -14.8041
  45   2.0000      -0.526791       -14.3347
  46   2.0000      -0.513944       -13.9851
  47   2.0000      -0.506606       -13.7855
  48   2.0000      -0.503581       -13.7031
  49   2.0000      -0.501247       -13.6396
  50   2.0000      -0.490782       -13.3549
  51   2.0000      -0.478316       -13.0156
  52   2.0000      -0.474401       -12.9091
  53   2.0000      -0.462350       -12.5812
  54   2.0000      -0.456956       -12.4344
  55   2.0000      -0.447704       -12.1826
  56   2.0000      -0.442134       -12.0311
  57   2.0000      -0.435453       -11.8493
  58   2.0000      -0.430911       -11.7257
  59   2.0000      -0.427448       -11.6315
  60   2.0000      -0.419143       -11.4055
  61   2.0000      -0.413543       -11.2531
  62   2.0000      -0.409525       -11.1437
  63   2.0000      -0.360542        -9.8108
  64   2.0000      -0.335277        -9.1233
  65   2.0000      -0.326793        -8.8925
  66   2.0000      -0.283961        -7.7270
  67   0.0000       0.017751         0.4830
  68   0.0000       0.073977         2.0130
  69   0.0000       0.098344         2.6761
  70   0.0000       0.117434         3.1955
  71   0.0000       0.127503         3.4695

MULLIKEN ATOMIC CHARGES
-----------------------
   0 S :    0.084722
   1 C :   -0.122056
   2 C :   -0.095914
   3 C :    0.014441
   4 C :   -0.120026
   5 H :    0.008787
   6 C :    0.064960
   7 H :    0.016195
   8 H :    0.042187
   9 C :   -0.073056
  10 H :    0.023396
  11 H :    0.023240
  12 C :   -0.038608
  13 H :    0.054511
  14 H :    0.024997
  15 H :    0.010061
  16 S :    0.085851
  17 C :   -0.112367
  18 C :   -0.011015
  19 C :   -0.052162
  20 C :   -0.107832
  21 H :    0.014613
  22 C :    0.043183
  23 H :    0.026704
  24 H :    0.013478
  25 C :   -0.069929
  26 H :    0.029604
  27 H :    0.017099
  28 C :   -0.026982
  29 H :    0.021909
  30 H :    0.031046
  31 H :    0.035646
  32 H :    0.064351
  33 H :    0.078966
Sum of atomic charges:    0.0000000

LOEWDIN ATOMIC CHARGES
----------------------
   0 S :    0.360844
   1 C :   -0.195236
   2 C :   -0.064598
   3 C :   -0.065652
   4 C :   -0.165669
   5 H :    0.029308
   6 C :   -0.025605
   7 H :    0.025342
   8 H :    0.033536
   9 C :   -0.041292
  10 H :    0.020817
  11 H :    0.019902
  12 C :   -0.060825
  13 H :    0.035141
  14 H :    0.021040
  15 H :    0.015962
  16 S :    0.401440
  17 C :   -0.175058
  18 C :   -0.066795
  19 C :   -0.052647
  20 C :   -0.203682
  21 H :    0.030775
  22 C :   -0.028372
  23 H :    0.029609
  24 H :    0.025152
  25 C :   -0.039380
  26 H :    0.021541
  27 H :    0.020374
  28 C :   -0.059451
  29 H :    0.021539
  30 H :    0.022302
  31 H :    0.029167
  32 H :    0.041562
  33 H :    0.038908

  Mayer bond orders larger than 0.100000
B(  0-S ,  1-C ) :   1.1198 B(  0-S ,  4-C ) :   1.1197 B(  1-C ,  2-C ) :   1.6522
B(  1-C , 32-H ) :   0.9584 B(  2-C ,  3-C ) :   1.2122 B(  2-C ,  6-C ) :   1.0132
B(  3-C ,  4-C ) :   1.6149 B(  3-C ,  5-H ) :   0.9905 B(  4-C , 20-C ) :   1.0575
B(  6-C ,  7-H ) :   0.9440 B(  6-C ,  8-H ) :   0.9508 B(  6-C ,  9-C ) :   1.0673
B(  9-C , 10-H ) :   0.9560 B(  9-C , 11-H ) :   0.9566 B(  9-C , 12-C ) :   1.0865
B( 12-C , 13-H ) :   0.9665 B( 12-C , 14-H ) :   0.9690 B( 12-C , 15-H ) :   0.9745
B( 16-S , 17-C ) :   1.1602 B( 16-S , 20-C ) :   1.1382 B( 17-C , 18-C ) :   1.5901
B( 17-C , 20-C ) :   0.1036 B( 17-C , 33-H ) :   0.9604 B( 18-C , 19-C ) :   1.2489
B( 18-C , 21-H ) :   0.9996 B( 19-C , 20-C ) :   1.5676 B( 19-C , 22-C ) :   1.0378
B( 22-C , 23-H ) :   0.9430 B( 22-C , 24-H ) :   0.9384 B( 22-C , 25-C ) :   1.0550
B( 25-C , 26-H ) :   0.9588 B( 25-C , 27-H ) :   0.9549 B( 25-C , 28-C ) :   1.0837
B( 28-C , 29-H ) :   0.9777 B( 28-C , 30-H ) :   0.9748 B( 28-C , 31-H ) :   0.9718

Dispersion correction           -0.014555894
FINAL SINGLE POINT ENERGY     -1339.875606939514

DIPOLE MOMENT
-------------
                                X             Y             Z
Electronic contribution:     -4.81934     -28.03272     -11.91226
Nuclear contribution   :      5.05282      28.56838      12.29694
                        -----------------------------------------
Total Dipole Moment    :      0.23348       0.53566       0.38467
                        -----------------------------------------
Magnitude (a.u.)       :      0.69958
Magnitude (Debye)      :      1.77820

Rotational constants in cm-1:     0.017112     0.010184     0.006816
Rotational constants in MHz :   513.016052   305.315552   204.337734

                             ****ORCA TERMINATED NORMALLY****
TOTAL RUN TIME: 0 days 0 hours 0 minutes 22 seconds 98 msec
