                         Program Version 4.2.1 -  RELEASE  -
|  1> ! wB97X-D3 SP def2-SVP
|  2> %pal
|  3> nprocs 24
|  4> end
|  5>
|  6> * xyz 0 1
|  7> S 	 -102.959 	 46.1204 	 -84.2848
|  8> C 	 -101.952 	 44.6611 	 -84.5655
|  9> C 	 -101.811 	 44.4029 	 -85.91
| 10> C 	 -102.58 	 45.3393 	 -86.7269
| 11> C 	 -103.368 	 46.2118 	 -85.9608
| 12> H 	 -102.517 	 45.3783 	 -87.7465
| 13> C 	 -100.94 	 43.3219 	 -86.4677
| 14> H 	 -100.324 	 42.9023 	 -85.6849
| 15> H 	 -100.373 	 43.8599 	 -87.1752
| 16> C 	 -101.834 	 42.3049 	 -87.181
| 17> H 	 -102.481 	 41.977 	 -86.3618
| 18> H 	 -102.483 	 42.7943 	 -87.9196
| 19> C 	 -101.006 	 41.1649 	 -87.9233
| 20> H 	 -100.265 	 40.8437 	 -87.1704
| 21> H 	 -101.607 	 40.3868 	 -88.2195
| 22> H 	 -100.508 	 41.5824 	 -88.7356
| 23> S 	 -103.873 	 48.9305 	 -86.265
| 24> C 	 -105.059 	 49.4533 	 -87.3744
| 25> C 	 -105.817 	 48.362 	 -87.7944
| 26> C 	 -105.383 	 47.1032 	 -87.3003
| 27> C 	 -104.261 	 47.2293 	 -86.4663
| 28> H 	 -106.592 	 48.6168 	 -88.5215
| 29> C 	 -106.137 	 45.7937 	 -87.537
| 30> H 	 -105.502 	 44.9866 	 -87.1712
| 31> H 	 -106.451 	 45.6231 	 -88.5588
| 32> C 	 -107.428 	 45.6711 	 -86.8174
| 33> H 	 -107.948 	 44.7806 	 -87.2183
| 34> H 	 -108.092 	 46.4947 	 -87.1258
| 35> C 	 -107.207 	 45.3208 	 -85.298
| 36> H 	 -106.423 	 44.6078 	 -85.1045
| 37> H 	 -108.215 	 45.049 	 -84.8545
| 38> H 	 -106.877 	 46.2305 	 -84.8086
| 39> H 	 -101.404 	 44.0235 	 -83.8957
| 40> H 	 -105.289 	 50.4869 	 -87.6829
| 41> *
| 42>
| 43>                          ****END OF INPUT****

CARTESIAN COORDINATES (ANGSTROEM)
---------------------------------
  S    -102.959000   46.120400  -84.284800
  C    -101.952000   44.661100  -84.565500
  C    -101.811000   44.402900  -85.910000
  C    -102.580000   45.339300  -86.726900
  C    -103.368000   46.211800  -85.960800
  H    -102.517000   45.378300  -87.746500
  C    -100.940000   43.321900  -86.467700
  H    -100.324000   42.902300  -85.684900
  H    -100.373000   43.859900  -87.175200
  C    -101.834000   42.304900  -87.181000
  H    -102.481000   41.977000  -86.361800
  H    -102.483000   42.794300  -87.919600
  C    -101.006000   41.164900  -87.923300
  H    -100.265000   40.843700  -87.170400
  H    -101.607000   40.386800  -88.219500
  H    -100.508000   41.582400  -88.735600
  S    -103.873000   48.930500  -86.265000
  C    -105.059000   49.453300  -87.374400
  C    -105.817000   48.362000  -87.794400
  C    -105.383000   47.103200  -87.300300
  C    -104.261000   47.229300  -86.466300
  H    -106.592000   48.616800  -88.521500
  C    -106.137000   45.793700  -87.537000
  H    -105.502000   44.986600  -87.171200
  H    -106.451000   45.623100  -88.558800
  C    -107.428000   45.671100  -86.817400
  H    -107.948000   44.780600  -87.218300
  H    -108.092000   46.494700  -87.125800
  C    -107.207000   45.320800  -85.298000
  H    -106.423000   44.607800  -85.104500
  H    -108.215000   45.049000  -84.854500
  H    -106.877000   46.230500  -84.808600
  H    -101.404000   44.023500  -83.895700
  H    -105.289000   50.486900  -87.682900

 Total Charge           Charge          ....    0
 Multiplicity           Mult            ....    1
 Number of Electrons    NEL             ....  134
 Basis Dimension        Dim             ....  322

ORBITAL ENERGIES
----------------

  NO   OCC          E(Eh)            E(eV)
   0   2.0000     -88.967917     -2420.9401
   1   2.0000     -88.965842     -2420.8836
   2   2.0000     -10.332034      -281.1489
   3   2.0000     -10.326970      -281.0111
   4   2.0000     -10.318352      -280.7766
   5   2.0000     -10.312872      -280.6275
   6   2.0000     -10.306571      -280.4561
   7   2.0000     -10.299889      -280.2742
   8   2.0000     -10.293746      -280.1071
   9   2.0000     -10.293687      -280.1055
  10   2.0000     -10.290409      -280.0163
  11   2.0000     -10.288525      -279.9650
  12   2.0000     -10.283485      -279.8279
  13   2.0000     -10.282788      -279.8089
  14   2.0000     -10.274649      -279.5874
  15   2.0000     -10.273927      -279.5678
  16   2.0000      -8.082091      -219.9249
  17   2.0000      -8.081226      -219.9013
  18   2.0000      -6.040719      -164.3763
  19   2.0000      -6.039673      -164.3479
  20   2.0000      -6.036762      -164.2686
  21   2.0000      -6.035459      -164.2332
  22   2.0000      -6.032667      -164.1572
  23   2.0000      -6.032179      -164.1439
  24   2.0000      -1.007382       -27.4123
  25   2.0000      -0.983502       -26.7624
  26   2.0000      -0.917979       -24.9795
  27   2.0000      -0.912335       -24.8259
  28   2.0000      -0.868231       -23.6258
  29   2.0000      -0.845743       -23.0138
  30   2.0000      -0.840688       -22.8763
  31   2.0000      -0.813021       -22.1234
  32   2.0000      -0.785343       -21.3703
  33   2.0000      -0.775306       -21.0972
  34   2.0000      -0.712921       -19.3996
  35   2.0000      -0.699890       -19.0450
  36   2.0000      -0.692700       -18.8493
  37   2.0000      -0.651328       -17.7235
  38   2.0000      -0.639067       -17.3899
  39   2.0000      -0.624672       -16.9982
  40   2.0000      -0.596661       -16.2360
  41   2.0000      -0.573080       -15.5943
  42   2.0000      -0.565659       -15.3924
  43   2.0000      -0.550246       -14.9730
  44   2.0000      -0.538576       -14.6554
  45   2.0000      -0.528933       -14.3930
  46   2.0000      -0.518165       -14.1000
  47   2.0000      -0.510956       -13.9038
  48   2.0000      -0.507992       -13.8232
  49   2.0000      -0.504172       -13.7192
  50   2.0000      -0.496685       -13.5155
  51   2.0000      -0.479259       -13.0413
  52   2.0000      -0.468060       -12.7366
  53   2.0000      -0.464793       -12.6476
  54   2.0000      -0.460386       -12.5277
  55   2.0000      -0.449795       -12.2395
  56   2.0000      -0.441671       -12.0185
  57   2.0000      -0.440990       -11.9999
  58   2.0000      -0.429507       -11.6875
  59   2.0000      -0.426998       -11.6192
  60   2.0000      -0.421935       -11.4814
  61   2.0000      -0.417793       -11.3687
  62   2.0000      -0.399479       -10.8704
  63   2.0000      -0.340280        -9.2595
  64   2.0000      -0.331117        -9.0101
  65   2.0000      -0.326583        -8.8868
  66   2.0000      -0.295924        -8.0525
  67   0.0000       0.032811         0.8928
  68   0.0000       0.063222         1.7204
  69   0.0000       0.107093         2.9142
  70   0.0000       0.124451         3.3865
  71   0.0000       0.132829         3.6145

MULLIKEN ATOMIC CHARGES
-----------------------
   0 S :    0.110198
   1 C :   -0.098998
   2 C :   -0.150758
   3 C :    0.087471
   4 C :   -0.170911
   5 H :   -0.020010
   6 C :    0.126943
   7 H :    0.019238
   8 H :    0.017800
   9 C :   -0.140094
  10 H :    0.031626
  11 H :    0.035648
  12 C :    0.024332
  13 H :    0.026860
  14 H :    0.026413
  15 H :    0.020894
  16 S :    0.121767
  17 C :   -0.109454
  18 C :   -0.061349
  19 C :   -0.006059
  20 C :   -0.160520
  21 H :    0.023573
  22 C :    0.091472
  23 H :    0.020649
  24 H :    0.019239
  25 C :   -0.096505
  26 H :    0.025035
  27 H :    0.030774
  28 C :   -0.058095
  29 H :    0.037561
  30 H :    0.043173
  31 H :    0.034378
  32 H :    0.029040
  33 H :    0.068669
Sum of atomic charges:   -0.0000000

LOEWDIN ATOMIC CHARGES
----------------------
   0 S :    0.397338
   1 C :   -0.194940
   2 C :   -0.053349
   3 C :   -0.045083
   4 C :   -0.198009
   5 H :    0.014276
   6 C :   -0.025107
   7 H :    0.028146
   8 H :    0.026882
   9 C :   -0.036654
  10 H :    0.024658
  11 H :    0.022748
  12 C :   -0.048981
  13 H :    0.029201
  14 H :    0.015651
  15 H :    0.018035
  16 S :    0.426104
  17 C :   -0.204352
  18 C :   -0.081006
  19 C :   -0.049296
  20 C :   -0.209981
  21 H :    0.033102
  22 C :   -0.033036
  23 H :    0.029315
  24 H :    0.030536
  25 C :   -0.043939
  26 H :    0.023764
  27 H :    0.024396
  28 C :   -0.067290
  29 H :    0.025320
  30 H :    0.032022
  31 H :    0.023870
  32 H :    0.026391
  33 H :    0.039267

  Mayer bond orders larger than 0.100000
B(  0-S ,  1-C ) :   1.1053 B(  0-S ,  4-C ) :   1.1547 B(  1-C ,  2-C ) :   1.6516
B(  1-C , 32-H ) :   0.9653 B(  2-C ,  3-C ) :   1.2103 B(  2-C ,  6-C ) :   1.0275
B(  3-C ,  4-C ) :   1.5670 B(  3-C ,  5-H ) :   1.0080 B(  4-C , 20-C ) :   1.0336
B(  6-C ,  7-H ) :   0.9393 B(  6-C ,  8-H ) :   0.9271 B(  6-C ,  9-C ) :   1.0503
B(  9-C , 10-H ) :   0.9599 B(  9-C , 11-H ) :   0.9613 B(  9-C , 12-C ) :   1.0663
B( 12-C , 13-H ) :   0.9760 B( 12-C , 14-H ) :   0.9770 B( 12-C , 15-H ) :   0.9761
B( 16-S , 17-C ) :   1.1770 B( 16-S , 20-C ) :   1.1510 B( 17-C , 18-C ) :   1.5887
B( 17-C , 20-C ) :   0.1049 B( 17-C , 33-H ) :   0.9640 B( 18-C , 19-C ) :   1.2479
B( 18-C , 21-H ) :   0.9916 B( 19-C , 20-C ) :   1.5630 B( 19-C , 22-C ) :   1.0504
B( 22-C , 23-H ) :   0.9301 B( 22-C , 24-H ) :   0.9301 B( 22-C , 25-C ) :   1.0901
B( 25-C , 26-H ) :   0.9554 B( 25-C , 27-H ) :   0.9540 B( 25-C , 28-C ) :   1.0584
B( 28-C , 29-H ) :   0.9736 B( 28-C , 30-H ) :   0.9765 B( 28-C , 31-H ) :   0.9788

Dispersion correction           -0.014814807
FINAL SINGLE POINT ENERGY     -1339.867048046229

DIPOLE MOMENT
-------------
                                X             Y             Z
Electronic contribution:      4.69755      23.91713       8.97349
Nuclear contribution   :     -4.70868     -24.30761      -9.52911
                        -----------------------------------------
Total Dipole Moment    :     -0.01114      -0.39048      -0.55561
                        -----------------------------------------
Magnitude (a.u.)       :      0.67919
Magnitude (Debye)      :      1.72637

Rotational constants in cm-1:     0.019537     0.008273     0.007327
Rotational constants in MHz :   585.715428   248.016014   219.645495

                             ****ORCA TERMINATED NORMALLY****
TOTAL RUN TIME: 0 days 0 hours 0 minutes 22 seconds 180 msec
