                         Program Version 4.2.1 -  RELEASE  -
|  1> ! wB97X-D3 SP def2-SVP
|  2> %pal
|  3> nprocs 24
|  4> end
|  5>
|  6> * xyz 0 1
|  7> S 	 -135.254 	 67.1479 	 -55.8432
|  8> C 	 -135.099 	 65.4855 	 -56.3274
|  9> C 	 -135.623 	 64.6095 	 -55.2787
| 10> C 	 -136.048 	 65.3947 	 -54.1257
| 11> C 	 -135.948 	 66.7501 	 -54.3139
| 12> H 	 -136.602 	 64.8625 	 -53.3242
| 13> C 	 -135.429 	 63.0899 	 -55.176
| 14> H 	 -135.432 	 62.7979 	 -54.1515
| 15> H 	 -134.543 	 62.8371 	 -55.7773
| 16> C 	 -136.548 	 62.3202 	 -55.8886
| 17> H 	 -136.564 	 62.815 	 -56.8932
| 18> H 	 -136.102 	 61.3536 	 -55.9444
| 19> C 	 -137.993 	 62.2707 	 -55.2506
| 20> H 	 -138.441 	 63.1922 	 -55.3225
| 21> H 	 -138.526 	 61.4933 	 -55.7724
| 22> H 	 -137.899 	 61.973 	 -54.1832
| 23> S 	 -137.545 	 68.9977 	 -54.2943
| 24> C 	 -137.563 	 69.9155 	 -52.7768
| 25> C 	 -136.92 	 69.2868 	 -51.7425
| 26> C 	 -136.447 	 68.0318 	 -52.1005
| 27> C 	 -136.495 	 67.8318 	 -53.4808
| 28> H 	 -137.015 	 69.7261 	 -50.7549
| 29> C 	 -135.795 	 67.1961 	 -51.0475
| 30> H 	 -135.547 	 67.9462 	 -50.222
| 31> H 	 -134.896 	 66.7606 	 -51.4066
| 32> C 	 -136.776 	 66.1602 	 -50.3589
| 33> H 	 -136.898 	 65.2903 	 -50.9632
| 34> H 	 -137.751 	 66.6396 	 -50.3262
| 35> C 	 -136.326 	 65.6324 	 -48.9975
| 36> H 	 -136.308 	 66.51 	 -48.2627
| 37> H 	 -135.235 	 65.332 	 -48.9987
| 38> H 	 -136.923 	 64.7973 	 -48.6114
| 39> H 	 -134.615 	 65.1902 	 -57.2438
| 40> H 	 -138.049 	 70.8862 	 -52.584
| 41> *
| 42>
| 43>                          ****END OF INPUT****

CARTESIAN COORDINATES (ANGSTROEM)
---------------------------------
  S    -135.254000   67.147900  -55.843200
  C    -135.099000   65.485500  -56.327400
  C    -135.623000   64.609500  -55.278700
  C    -136.048000   65.394700  -54.125700
  C    -135.948000   66.750100  -54.313900
  H    -136.602000   64.862500  -53.324200
  C    -135.429000   63.089900  -55.176000
  H    -135.432000   62.797900  -54.151500
  H    -134.543000   62.837100  -55.777300
  C    -136.548000   62.320200  -55.888600
  H    -136.564000   62.815000  -56.893200
  H    -136.102000   61.353600  -55.944400
  C    -137.993000   62.270700  -55.250600
  H    -138.441000   63.192200  -55.322500
  H    -138.526000   61.493300  -55.772400
  H    -137.899000   61.973000  -54.183200
  S    -137.545000   68.997700  -54.294300
  C    -137.563000   69.915500  -52.776800
  C    -136.920000   69.286800  -51.742500
  C    -136.447000   68.031800  -52.100500
  C    -136.495000   67.831800  -53.480800
  H    -137.015000   69.726100  -50.754900
  C    -135.795000   67.196100  -51.047500
  H    -135.547000   67.946200  -50.222000
  H    -134.896000   66.760600  -51.406600
  C    -136.776000   66.160200  -50.358900
  H    -136.898000   65.290300  -50.963200
  H    -137.751000   66.639600  -50.326200
  C    -136.326000   65.632400  -48.997500
  H    -136.308000   66.510000  -48.262700
  H    -135.235000   65.332000  -48.998700
  H    -136.923000   64.797300  -48.611400
  H    -134.615000   65.190200  -57.243800
  H    -138.049000   70.886200  -52.584000

 Total Charge           Charge          ....    0
 Multiplicity           Mult            ....    1
 Number of Electrons    NEL             ....  134
 Basis Dimension        Dim             ....  322

ORBITAL ENERGIES
----------------

  NO   OCC          E(Eh)            E(eV)
   0   2.0000     -88.969921     -2420.9946
   1   2.0000     -88.969136     -2420.9733
   2   2.0000     -10.328466      -281.0519
   3   2.0000     -10.327893      -281.0363
   4   2.0000     -10.320501      -280.8351
   5   2.0000     -10.315603      -280.7018
   6   2.0000     -10.309863      -280.5456
   7   2.0000     -10.298325      -280.2317
   8   2.0000     -10.297206      -280.2012
   9   2.0000     -10.294319      -280.1227
  10   2.0000     -10.291491      -280.0457
  11   2.0000     -10.289216      -279.9838
  12   2.0000     -10.287339      -279.9327
  13   2.0000     -10.287249      -279.9303
  14   2.0000     -10.285172      -279.8738
  15   2.0000     -10.276193      -279.6294
  16   2.0000      -8.084094      -219.9794
  17   2.0000      -8.083734      -219.9696
  18   2.0000      -6.042535      -164.4257
  19   2.0000      -6.042243      -164.4178
  20   2.0000      -6.038531      -164.3168
  21   2.0000      -6.038362      -164.3122
  22   2.0000      -6.035130      -164.2242
  23   2.0000      -6.034385      -164.2040
  24   2.0000      -1.006275       -27.3821
  25   2.0000      -0.981861       -26.7178
  26   2.0000      -0.910265       -24.7696
  27   2.0000      -0.904869       -24.6227
  28   2.0000      -0.864293       -23.5186
  29   2.0000      -0.853179       -23.2162
  30   2.0000      -0.843163       -22.9436
  31   2.0000      -0.812274       -22.1031
  32   2.0000      -0.784873       -21.3575
  33   2.0000      -0.767388       -20.8817
  34   2.0000      -0.703173       -19.1343
  35   2.0000      -0.697509       -18.9802
  36   2.0000      -0.689784       -18.7700
  37   2.0000      -0.660957       -17.9856
  38   2.0000      -0.637338       -17.3428
  39   2.0000      -0.616771       -16.7832
  40   2.0000      -0.591894       -16.1062
  41   2.0000      -0.574073       -15.6213
  42   2.0000      -0.562957       -15.3188
  43   2.0000      -0.547971       -14.9110
  44   2.0000      -0.544638       -14.8204
  45   2.0000      -0.517810       -14.0903
  46   2.0000      -0.515626       -14.0309
  47   2.0000      -0.511619       -13.9219
  48   2.0000      -0.504800       -13.7363
  49   2.0000      -0.497297       -13.5321
  50   2.0000      -0.491287       -13.3686
  51   2.0000      -0.477290       -12.9877
  52   2.0000      -0.467349       -12.7172
  53   2.0000      -0.463878       -12.6228
  54   2.0000      -0.458985       -12.4896
  55   2.0000      -0.451706       -12.2915
  56   2.0000      -0.444003       -12.0819
  57   2.0000      -0.435671       -11.8552
  58   2.0000      -0.429766       -11.6945
  59   2.0000      -0.428667       -11.6646
  60   2.0000      -0.421338       -11.4652
  61   2.0000      -0.416379       -11.3303
  62   2.0000      -0.414572       -11.2811
  63   2.0000      -0.349732        -9.5167
  64   2.0000      -0.334057        -9.0902
  65   2.0000      -0.323626        -8.8063
  66   2.0000      -0.285566        -7.7707
  67   0.0000       0.027728         0.7545
  68   0.0000       0.064417         1.7529
  69   0.0000       0.106428         2.8961
  70   0.0000       0.112181         3.0526
  71   0.0000       0.131449         3.5769

MULLIKEN ATOMIC CHARGES
-----------------------
   0 S :    0.122407
   1 C :   -0.128978
   2 C :   -0.123628
   3 C :    0.013335
   4 C :   -0.143772
   5 H :    0.029212
   6 C :    0.069456
   7 H :    0.017414
   8 H :    0.035361
   9 C :   -0.109516
  10 H :    0.031616
  11 H :    0.023041
  12 C :   -0.018025
  13 H :    0.033461
  14 H :    0.040545
  15 H :    0.026821
  16 S :    0.117725
  17 C :   -0.098510
  18 C :   -0.039360
  19 C :   -0.020823
  20 C :   -0.150492
  21 H :    0.022600
  22 C :    0.048750
  23 H :    0.026107
  24 H :    0.029269
  25 C :   -0.053488
  26 H :    0.021326
  27 H :    0.031312
  28 C :   -0.083677
  29 H :    0.033420
  30 H :    0.037631
  31 H :    0.049561
  32 H :    0.053236
  33 H :    0.056663
Sum of atomic charges:    0.0000000

LOEWDIN ATOMIC CHARGES
----------------------
   0 S :    0.432512
   1 C :   -0.213699
   2 C :   -0.055492
   3 C :   -0.075542
   4 C :   -0.206247
   5 H :    0.036295
   6 C :   -0.028694
   7 H :    0.022819
   8 H :    0.038867
   9 C :   -0.040209
  10 H :    0.026611
  11 H :    0.016532
  12 C :   -0.056228
  13 H :    0.015693
  14 H :    0.029435
  15 H :    0.027136
  16 S :    0.393504
  17 C :   -0.182211
  18 C :   -0.073976
  19 C :   -0.060085
  20 C :   -0.191122
  21 H :    0.035831
  22 C :   -0.024731
  23 H :    0.037184
  24 H :    0.025013
  25 C :   -0.039759
  26 H :    0.015905
  27 H :    0.025409
  28 C :   -0.076023
  29 H :    0.027931
  30 H :    0.031156
  31 H :    0.028965
  32 H :    0.024066
  33 H :    0.033154

  Mayer bond orders larger than 0.100000
B(  0-S ,  1-C ) :   1.1587 B(  0-S ,  4-C ) :   1.1715 B(  1-C ,  2-C ) :   1.5535
B(  1-C ,  4-C ) :   0.1022 B(  1-C , 32-H ) :   0.9726 B(  2-C ,  3-C ) :   1.2793
B(  2-C ,  6-C ) :   1.0243 B(  3-C ,  4-C ) :   1.5462 B(  3-C ,  5-H ) :   0.9813
B(  4-C , 20-C ) :   1.0281 B(  6-C ,  7-H ) :   0.9463 B(  6-C ,  8-H ) :   0.9445
B(  6-C ,  9-C ) :   1.0644 B(  9-C , 10-H ) :   0.9589 B(  9-C , 11-H ) :   0.9610
B(  9-C , 12-C ) :   1.0683 B( 12-C , 13-H ) :   0.9771 B( 12-C , 14-H ) :   0.9759
B( 12-C , 15-H ) :   0.9751 B( 16-S , 17-C ) :   1.1380 B( 16-S , 20-C ) :   1.1441
B( 17-C , 18-C ) :   1.6372 B( 17-C , 20-C ) :   0.1038 B( 17-C , 33-H ) :   0.9585
B( 18-C , 19-C ) :   1.2483 B( 18-C , 21-H ) :   0.9828 B( 19-C , 20-C ) :   1.5806
B( 19-C , 22-C ) :   1.0514 B( 22-C , 23-H ) :   0.9454 B( 22-C , 24-H ) :   0.9310
B( 22-C , 25-C ) :   1.0442 B( 25-C , 26-H ) :   0.9512 B( 25-C , 27-H ) :   0.9571
B( 25-C , 28-C ) :   1.0820 B( 28-C , 29-H ) :   0.9746 B( 28-C , 30-H ) :   0.9719
B( 28-C , 31-H ) :   0.9746

Dispersion correction           -0.014136040
FINAL SINGLE POINT ENERGY     -1339.864208444837

DIPOLE MOMENT
-------------
                                X             Y             Z
Electronic contribution:      2.30920      23.87327     -15.40530
Nuclear contribution   :     -2.34638     -24.34898      15.79740
                        -----------------------------------------
Total Dipole Moment    :     -0.03718      -0.47570       0.39210
                        -----------------------------------------
Magnitude (a.u.)       :      0.61759
Magnitude (Debye)      :      1.56979

Rotational constants in cm-1:     0.016530     0.009237     0.006851
Rotational constants in MHz :   495.555618   276.927467   205.373039

                             ****ORCA TERMINATED NORMALLY****
TOTAL RUN TIME: 0 days 0 hours 0 minutes 20 seconds 351 msec
