                         Program Version 4.2.1 -  RELEASE  -
|  1> ! wB97X-D3 SP def2-SVP
|  2> %pal
|  3> nprocs 24
|  4> end
|  5>
|  6> * xyz 0 1
|  7> S 	 -100.62 	 58.4585 	 -100.417
|  8> C 	 -100.966 	 58.2697 	 -98.6633
|  9> C 	 -101.934 	 59.1746 	 -98.1956
| 10> C 	 -102.324 	 60.0399 	 -99.3208
| 11> C 	 -101.773 	 59.782 	 -100.515
| 12> H 	 -102.963 	 60.9342 	 -99.2101
| 13> C 	 -102.491 	 59.3975 	 -96.8431
| 14> H 	 -103.404 	 60.011 	 -96.8604
| 15> H 	 -101.738 	 60.0435 	 -96.3282
| 16> C 	 -102.855 	 58.2002 	 -96.0268
| 17> H 	 -102.102 	 57.4566 	 -95.7948
| 18> H 	 -103.111 	 58.6635 	 -95.1062
| 19> C 	 -104.063 	 57.4645 	 -96.522
| 20> H 	 -103.922 	 57.1659 	 -97.591
| 21> H 	 -104.301 	 56.4911 	 -95.9719
| 22> H 	 -104.914 	 58.0897 	 -96.5054
| 23> S 	 -102.588 	 62.2035 	 -101.443
| 24> C 	 -102.255 	 62.6566 	 -102.991
| 25> C 	 -101.775 	 61.6805 	 -103.806
| 26> C 	 -101.527 	 60.4892 	 -103.078
| 27> C 	 -101.96 	 60.569 	 -101.708
| 28> H 	 -101.556 	 61.9572 	 -104.806
| 29> C 	 -100.822 	 59.3285 	 -103.7
| 30> H 	 -101.026 	 59.3615 	 -104.725
| 31> H 	 -101.249 	 58.382 	 -103.359
| 32> C 	 -99.2805 	 59.2994 	 -103.545
| 33> H 	 -99.0656 	 59.3172 	 -102.457
| 34> H 	 -98.8085 	 60.211 	 -103.888
| 35> C 	 -98.6332 	 58.1072 	 -104.228
| 36> H 	 -98.7519 	 58.055 	 -105.279
| 37> H 	 -99.211 	 57.2533 	 -104.027
| 38> H 	 -97.6072 	 57.7956 	 -104.034
| 39> H 	 -100.362 	 57.7029 	 -97.9034
| 40> H 	 -102.541 	 63.6344 	 -103.346
| 41> *
| 42>
| 43>                          ****END OF INPUT****

CARTESIAN COORDINATES (ANGSTROEM)
---------------------------------
  S    -100.620000   58.458500  -100.417000
  C    -100.966000   58.269700  -98.663300
  C    -101.934000   59.174600  -98.195600
  C    -102.324000   60.039900  -99.320800
  C    -101.773000   59.782000  -100.515000
  H    -102.963000   60.934200  -99.210100
  C    -102.491000   59.397500  -96.843100
  H    -103.404000   60.011000  -96.860400
  H    -101.738000   60.043500  -96.328200
  C    -102.855000   58.200200  -96.026800
  H    -102.102000   57.456600  -95.794800
  H    -103.111000   58.663500  -95.106200
  C    -104.063000   57.464500  -96.522000
  H    -103.922000   57.165900  -97.591000
  H    -104.301000   56.491100  -95.971900
  H    -104.914000   58.089700  -96.505400
  S    -102.588000   62.203500  -101.443000
  C    -102.255000   62.656600  -102.991000
  C    -101.775000   61.680500  -103.806000
  C    -101.527000   60.489200  -103.078000
  C    -101.960000   60.569000  -101.708000
  H    -101.556000   61.957200  -104.806000
  C    -100.822000   59.328500  -103.700000
  H    -101.026000   59.361500  -104.725000
  H    -101.249000   58.382000  -103.359000
  C    -99.280500   59.299400  -103.545000
  H    -99.065600   59.317200  -102.457000
  H    -98.808500   60.211000  -103.888000
  C    -98.633200   58.107200  -104.228000
  H    -98.751900   58.055000  -105.279000
  H    -99.211000   57.253300  -104.027000
  H    -97.607200   57.795600  -104.034000
  H    -100.362000   57.702900  -97.903400
  H    -102.541000   63.634400  -103.346000

 Total Charge           Charge          ....    0
 Multiplicity           Mult            ....    1
 Number of Electrons    NEL             ....  134
 Basis Dimension        Dim             ....  322

ORBITAL ENERGIES
----------------

  NO   OCC          E(Eh)            E(eV)
   0   2.0000     -88.968287     -2420.9502
   1   2.0000     -88.964969     -2420.8599
   2   2.0000     -10.329733      -281.0863
   3   2.0000     -10.327601      -281.0283
   4   2.0000     -10.320761      -280.8422
   5   2.0000     -10.309368      -280.5322
   6   2.0000     -10.308366      -280.5049
   7   2.0000     -10.306605      -280.4570
   8   2.0000     -10.296731      -280.1883
   9   2.0000     -10.289753      -279.9984
  10   2.0000     -10.288060      -279.9524
  11   2.0000     -10.285833      -279.8917
  12   2.0000     -10.284399      -279.8527
  13   2.0000     -10.279412      -279.7170
  14   2.0000     -10.275781      -279.6182
  15   2.0000     -10.265973      -279.3513
  16   2.0000      -8.081628      -219.9123
  17   2.0000      -8.081361      -219.9050
  18   2.0000      -6.040206      -164.3624
  19   2.0000      -6.039915      -164.3545
  20   2.0000      -6.036215      -164.2538
  21   2.0000      -6.035767      -164.2416
  22   2.0000      -6.032629      -164.1562
  23   2.0000      -6.031745      -164.1321
  24   2.0000      -1.012150       -27.5420
  25   2.0000      -0.984080       -26.7782
  26   2.0000      -0.924599       -25.1596
  27   2.0000      -0.912596       -24.8330
  28   2.0000      -0.872797       -23.7500
  29   2.0000      -0.857690       -23.3389
  30   2.0000      -0.846249       -23.0276
  31   2.0000      -0.811779       -22.0896
  32   2.0000      -0.788075       -21.4446
  33   2.0000      -0.774439       -21.0736
  34   2.0000      -0.711563       -19.3626
  35   2.0000      -0.707381       -19.2488
  36   2.0000      -0.694720       -18.9043
  37   2.0000      -0.664882       -18.0924
  38   2.0000      -0.625255       -17.0141
  39   2.0000      -0.614907       -16.7325
  40   2.0000      -0.602823       -16.4037
  41   2.0000      -0.583058       -15.8658
  42   2.0000      -0.559625       -15.2282
  43   2.0000      -0.558372       -15.1941
  44   2.0000      -0.541963       -14.7476
  45   2.0000      -0.522215       -14.2102
  46   2.0000      -0.519510       -14.1366
  47   2.0000      -0.511793       -13.9266
  48   2.0000      -0.509056       -13.8521
  49   2.0000      -0.494996       -13.4695
  50   2.0000      -0.491395       -13.3715
  51   2.0000      -0.476274       -12.9601
  52   2.0000      -0.471779       -12.8378
  53   2.0000      -0.469078       -12.7643
  54   2.0000      -0.456326       -12.4173
  55   2.0000      -0.455841       -12.4041
  56   2.0000      -0.446085       -12.1386
  57   2.0000      -0.438763       -11.9394
  58   2.0000      -0.434675       -11.8281
  59   2.0000      -0.428031       -11.6473
  60   2.0000      -0.416484       -11.3331
  61   2.0000      -0.413425       -11.2499
  62   2.0000      -0.408217       -11.1082
  63   2.0000      -0.363400        -9.8886
  64   2.0000      -0.334912        -9.1134
  65   2.0000      -0.325673        -8.8620
  66   2.0000      -0.278168        -7.5693
  67   0.0000       0.021241         0.5780
  68   0.0000       0.081342         2.2134
  69   0.0000       0.103777         2.8239
  70   0.0000       0.113328         3.0838
  71   0.0000       0.128905         3.5077

MULLIKEN ATOMIC CHARGES
-----------------------
   0 S :    0.094211
   1 C :   -0.136832
   2 C :   -0.077519
   3 C :   -0.064361
   4 C :   -0.059718
   5 H :    0.027850
   6 C :    0.038816
   7 H :    0.025328
   8 H :    0.053403
   9 C :   -0.029946
  10 H :    0.026805
  11 H :    0.013716
  12 C :   -0.070774
  13 H :    0.041718
  14 H :    0.045057
  15 H :    0.015025
  16 S :    0.088191
  17 C :   -0.068217
  18 C :   -0.019744
  19 C :   -0.067225
  20 C :   -0.123651
  21 H :    0.005353
  22 C :    0.057578
  23 H :    0.001467
  24 H :    0.028528
  25 C :   -0.048541
  26 H :    0.027797
  27 H :    0.020294
  28 C :    0.003911
  29 H :    0.005051
  30 H :   -0.005062
  31 H :    0.037682
  32 H :    0.063922
  33 H :    0.049885
Sum of atomic charges:    0.0000000

LOEWDIN ATOMIC CHARGES
----------------------
   0 S :    0.394471
   1 C :   -0.204755
   2 C :   -0.052776
   3 C :   -0.083803
   4 C :   -0.184186
   5 H :    0.024598
   6 C :   -0.037368
   7 H :    0.036687
   8 H :    0.045904
   9 C :   -0.044850
  10 H :    0.023083
  11 H :    0.023831
  12 C :   -0.067804
  13 H :    0.030987
  14 H :    0.034960
  15 H :    0.014743
  16 S :    0.451126
  17 C :   -0.204190
  18 C :   -0.075790
  19 C :   -0.045872
  20 C :   -0.191182
  21 H :    0.030253
  22 C :   -0.034869
  23 H :    0.023250
  24 H :    0.028225
  25 C :   -0.037633
  26 H :    0.015392
  27 H :    0.021042
  28 C :   -0.070931
  29 H :    0.020966
  30 H :    0.020387
  31 H :    0.030598
  32 H :    0.039030
  33 H :    0.026475

  Mayer bond orders larger than 0.100000
B(  0-S ,  1-C ) :   1.1070 B(  0-S ,  4-C ) :   1.1017 B(  1-C ,  2-C ) :   1.6474
B(  1-C , 32-H ) :   0.9552 B(  2-C ,  3-C ) :   1.2067 B(  2-C ,  6-C ) :   1.0240
B(  3-C ,  4-C ) :   1.6161 B(  3-C ,  5-H ) :   0.9751 B(  4-C , 20-C ) :   1.1023
B(  6-C ,  7-H ) :   0.9427 B(  6-C ,  8-H ) :   0.9235 B(  6-C ,  9-C ) :   1.0803
B(  9-C , 10-H ) :   0.9546 B(  9-C , 11-H ) :   0.9471 B(  9-C , 12-C ) :   1.0812
B( 12-C , 13-H ) :   0.9742 B( 12-C , 14-H ) :   0.9737 B( 12-C , 15-H ) :   0.9725
B( 16-S , 17-C ) :   1.2059 B( 16-S , 20-C ) :   1.1456 B( 17-C , 18-C ) :   1.5806
B( 17-C , 33-H ) :   0.9597 B( 18-C , 19-C ) :   1.2622 B( 18-C , 21-H ) :   1.0037
B( 19-C , 20-C ) :   1.5188 B( 19-C , 22-C ) :   1.0584 B( 22-C , 23-H ) :   0.9240
B( 22-C , 24-H ) :   0.9337 B( 22-C , 25-C ) :   1.0569 B( 25-C , 26-H ) :   0.9492
B( 25-C , 27-H ) :   0.9546 B( 25-C , 28-C ) :   1.0739 B( 28-C , 29-H ) :   0.9683
B( 28-C , 30-H ) :   0.9633 B( 28-C , 31-H ) :   0.9749

Dispersion correction           -0.014101898
FINAL SINGLE POINT ENERGY     -1339.868660913404

DIPOLE MOMENT
-------------
                                X             Y             Z
Electronic contribution:     -2.10842      12.38361      -5.04395
Nuclear contribution   :      2.11235     -12.18298       5.18073
                        -----------------------------------------
Total Dipole Moment    :      0.00392       0.20063       0.13679
                        -----------------------------------------
Magnitude (a.u.)       :      0.24286
Magnitude (Debye)      :      0.61729

Rotational constants in cm-1:     0.021710     0.008170     0.006270
Rotational constants in MHz :   650.845902   244.943868   187.972605

                             ****ORCA TERMINATED NORMALLY****
TOTAL RUN TIME: 0 days 0 hours 0 minutes 22 seconds 418 msec
