                         Program Version 4.2.1 -  RELEASE  -
|  1> ! wB97X-D3 SP def2-SVP
|  2> %pal
|  3> nprocs 24
|  4> end
|  5>
|  6> * xyz 0 1
|  7> S 	 -125.02 	 30.5035 	 -118.029
|  8> C 	 -124.849 	 28.8353 	 -118.555
|  9> C 	 -124.125 	 28.0253 	 -117.656
| 10> C 	 -123.475 	 28.8634 	 -116.741
| 11> C 	 -123.839 	 30.2035 	 -116.814
| 12> H 	 -122.804 	 28.5099 	 -115.985
| 13> C 	 -123.645 	 26.6407 	 -117.916
| 14> H 	 -124.233 	 26.3421 	 -118.775
| 15> H 	 -124.097 	 26.0751 	 -117.132
| 16> C 	 -122.081 	 26.4138 	 -117.977
| 17> H 	 -121.695 	 26.974 	 -117.111
| 18> H 	 -121.965 	 25.3506 	 -117.887
| 19> C 	 -121.451 	 26.996 	 -119.291
| 20> H 	 -122.259 	 27.0615 	 -120.003
| 21> H 	 -121.064 	 28.0084 	 -119.09
| 22> H 	 -120.644 	 26.4366 	 -119.801
| 23> S 	 -122.752 	 32.7663 	 -116.652
| 24> C 	 -122.202 	 33.4448 	 -115.221
| 25> C 	 -122.389 	 32.5304 	 -114.177
| 26> C 	 -122.955 	 31.2643 	 -114.553
| 27> C 	 -123.348 	 31.2531 	 -115.863
| 28> H 	 -122.02 	 32.8216 	 -113.185
| 29> C 	 -123.086 	 30.1702 	 -113.552
| 30> H 	 -123.725 	 29.3866 	 -113.976
| 31> H 	 -123.659 	 30.54 	 -112.736
| 32> C 	 -121.699 	 29.5406 	 -112.957
| 33> H 	 -121.438 	 30.188 	 -112.146
| 34> H 	 -120.859 	 29.7524 	 -113.628
| 35> C 	 -121.816 	 28.0231 	 -112.731
| 36> H 	 -122.11 	 27.6155 	 -113.657
| 37> H 	 -122.561 	 27.8354 	 -111.974
| 38> H 	 -120.848 	 27.6269 	 -112.485
| 39> H 	 -125.541 	 28.3111 	 -119.307
| 40> H 	 -121.678 	 34.3164 	 -115.139
| 41> *
| 42>
| 43>                          ****END OF INPUT****

CARTESIAN COORDINATES (ANGSTROEM)
---------------------------------
  S    -125.020000   30.503500  -118.029000
  C    -124.849000   28.835300  -118.555000
  C    -124.125000   28.025300  -117.656000
  C    -123.475000   28.863400  -116.741000
  C    -123.839000   30.203500  -116.814000
  H    -122.804000   28.509900  -115.985000
  C    -123.645000   26.640700  -117.916000
  H    -124.233000   26.342100  -118.775000
  H    -124.097000   26.075100  -117.132000
  C    -122.081000   26.413800  -117.977000
  H    -121.695000   26.974000  -117.111000
  H    -121.965000   25.350600  -117.887000
  C    -121.451000   26.996000  -119.291000
  H    -122.259000   27.061500  -120.003000
  H    -121.064000   28.008400  -119.090000
  H    -120.644000   26.436600  -119.801000
  S    -122.752000   32.766300  -116.652000
  C    -122.202000   33.444800  -115.221000
  C    -122.389000   32.530400  -114.177000
  C    -122.955000   31.264300  -114.553000
  C    -123.348000   31.253100  -115.863000
  H    -122.020000   32.821600  -113.185000
  C    -123.086000   30.170200  -113.552000
  H    -123.725000   29.386600  -113.976000
  H    -123.659000   30.540000  -112.736000
  C    -121.699000   29.540600  -112.957000
  H    -121.438000   30.188000  -112.146000
  H    -120.859000   29.752400  -113.628000
  C    -121.816000   28.023100  -112.731000
  H    -122.110000   27.615500  -113.657000
  H    -122.561000   27.835400  -111.974000
  H    -120.848000   27.626900  -112.485000
  H    -125.541000   28.311100  -119.307000
  H    -121.678000   34.316400  -115.139000

 Total Charge           Charge          ....    0
 Multiplicity           Mult            ....    1
 Number of Electrons    NEL             ....  134
 Basis Dimension        Dim             ....  322

ORBITAL ENERGIES
----------------

  NO   OCC          E(Eh)            E(eV)
   0   2.0000     -88.972530     -2421.0656
   1   2.0000     -88.959176     -2420.7022
   2   2.0000     -10.330809      -281.1156
   3   2.0000     -10.329268      -281.0737
   4   2.0000     -10.319359      -280.8040
   5   2.0000     -10.309406      -280.5332
   6   2.0000     -10.303410      -280.3700
   7   2.0000     -10.296762      -280.1891
   8   2.0000     -10.296636      -280.1857
   9   2.0000     -10.293087      -280.0891
  10   2.0000     -10.292359      -280.0693
  11   2.0000     -10.291202      -280.0378
  12   2.0000     -10.290158      -280.0094
  13   2.0000     -10.288115      -279.9538
  14   2.0000     -10.279153      -279.7100
  15   2.0000     -10.279135      -279.7095
  16   2.0000      -8.087228      -220.0647
  17   2.0000      -8.074826      -219.7272
  18   2.0000      -6.045561      -164.5081
  19   2.0000      -6.041835      -164.4067
  20   2.0000      -6.038075      -164.3044
  21   2.0000      -6.033206      -164.1719
  22   2.0000      -6.029103      -164.0602
  23   2.0000      -6.025757      -163.9692
  24   2.0000      -1.007042       -27.4030
  25   2.0000      -0.987609       -26.8742
  26   2.0000      -0.911995       -24.8167
  27   2.0000      -0.905195       -24.6316
  28   2.0000      -0.864799       -23.5324
  29   2.0000      -0.854097       -23.2412
  30   2.0000      -0.845230       -22.9999
  31   2.0000      -0.809366       -22.0240
  32   2.0000      -0.783763       -21.3273
  33   2.0000      -0.774358       -21.0714
  34   2.0000      -0.714103       -19.4317
  35   2.0000      -0.708515       -19.2797
  36   2.0000      -0.691629       -18.8202
  37   2.0000      -0.659825       -17.9548
  38   2.0000      -0.633469       -17.2376
  39   2.0000      -0.625884       -17.0312
  40   2.0000      -0.597599       -16.2615
  41   2.0000      -0.564351       -15.3568
  42   2.0000      -0.560738       -15.2584
  43   2.0000      -0.548313       -14.9203
  44   2.0000      -0.539887       -14.6911
  45   2.0000      -0.532273       -14.4839
  46   2.0000      -0.520041       -14.1510
  47   2.0000      -0.509603       -13.8670
  48   2.0000      -0.507087       -13.7985
  49   2.0000      -0.489389       -13.3170
  50   2.0000      -0.484761       -13.1910
  51   2.0000      -0.477110       -12.9828
  52   2.0000      -0.474712       -12.9176
  53   2.0000      -0.468987       -12.7618
  54   2.0000      -0.456047       -12.4097
  55   2.0000      -0.450976       -12.2717
  56   2.0000      -0.444051       -12.0832
  57   2.0000      -0.440078       -11.9751
  58   2.0000      -0.435799       -11.8587
  59   2.0000      -0.429819       -11.6960
  60   2.0000      -0.425644       -11.5824
  61   2.0000      -0.420067       -11.4306
  62   2.0000      -0.410546       -11.1715
  63   2.0000      -0.347388        -9.4529
  64   2.0000      -0.335082        -9.1181
  65   2.0000      -0.325274        -8.8512
  66   2.0000      -0.287752        -7.8301
  67   0.0000       0.030168         0.8209
  68   0.0000       0.071254         1.9389
  69   0.0000       0.110966         3.0195
  70   0.0000       0.116226         3.1627
  71   0.0000       0.127639         3.4732

MULLIKEN ATOMIC CHARGES
-----------------------
   0 S :    0.136633
   1 C :   -0.142835
   2 C :   -0.104280
   3 C :    0.002325
   4 C :   -0.126859
   5 H :   -0.008754
   6 C :    0.056811
   7 H :    0.008437
   8 H :    0.023235
   9 C :   -0.045667
  10 H :    0.035177
  11 H :    0.036465
  12 C :   -0.056603
  13 H :    0.026302
  14 H :    0.046434
  15 H :    0.042356
  16 S :    0.084443
  17 C :   -0.043575
  18 C :   -0.060806
  19 C :   -0.034955
  20 C :   -0.140256
  21 H :    0.018296
  22 C :    0.041420
  23 H :    0.018022
  24 H :    0.030363
  25 C :   -0.085467
  26 H :    0.023323
  27 H :    0.030511
  28 C :   -0.002441
  29 H :    0.017605
  30 H :    0.039517
  31 H :    0.034403
  32 H :    0.072669
  33 H :    0.027752
Sum of atomic charges:    0.0000000

LOEWDIN ATOMIC CHARGES
----------------------
   0 S :    0.426796
   1 C :   -0.216575
   2 C :   -0.067467
   3 C :   -0.066700
   4 C :   -0.201503
   5 H :    0.022677
   6 C :   -0.034221
   7 H :    0.026732
   8 H :    0.030765
   9 C :   -0.027093
  10 H :    0.026548
  11 H :    0.024124
  12 C :   -0.068828
  13 H :    0.023152
  14 H :    0.033204
  15 H :    0.029648
  16 S :    0.407558
  17 C :   -0.188985
  18 C :   -0.077901
  19 C :   -0.059322
  20 C :   -0.181045
  21 H :    0.029164
  22 C :   -0.031738
  23 H :    0.027309
  24 H :    0.030130
  25 C :   -0.033987
  26 H :    0.017956
  27 H :    0.023877
  28 C :   -0.050860
  29 H :    0.018563
  30 H :    0.027048
  31 H :    0.027042
  32 H :    0.040037
  33 H :    0.013896

  Mayer bond orders larger than 0.100000
B(  0-S ,  1-C ) :   1.1469 B(  0-S ,  4-C ) :   1.1723 B(  1-C ,  2-C ) :   1.5832
B(  1-C , 32-H ) :   0.9473 B(  2-C ,  3-C ) :   1.2644 B(  2-C ,  6-C ) :   1.0339
B(  3-C ,  4-C ) :   1.5574 B(  3-C ,  5-H ) :   0.9947 B(  4-C , 20-C ) :   1.0076
B(  6-C ,  7-H ) :   0.9400 B(  6-C ,  8-H ) :   0.9222 B(  6-C ,  9-C ) :   1.0695
B(  9-C , 10-H ) :   0.9589 B(  9-C , 11-H ) :   0.9566 B(  9-C , 12-C ) :   1.0516
B( 12-C , 13-H ) :   0.9825 B( 12-C , 14-H ) :   0.9767 B( 12-C , 15-H ) :   0.9790
B( 16-S , 17-C ) :   1.1808 B( 16-S , 20-C ) :   1.1292 B( 17-C , 18-C ) :   1.5818
B( 17-C , 33-H ) :   0.9811 B( 18-C , 19-C ) :   1.2290 B( 18-C , 21-H ) :   0.9920
B( 19-C , 20-C ) :   1.6138 B( 19-C , 22-C ) :   1.0567 B( 22-C , 23-H ) :   0.9455
B( 22-C , 24-H ) :   0.9319 B( 22-C , 25-C ) :   1.0190 B( 25-C , 26-H ) :   0.9571
B( 25-C , 27-H ) :   0.9678 B( 25-C , 28-C ) :   1.0760 B( 28-C , 29-H ) :   0.9776
B( 28-C , 30-H ) :   0.9761 B( 28-C , 31-H ) :   0.9722

Dispersion correction           -0.014801580
FINAL SINGLE POINT ENERGY     -1339.859662713126

DIPOLE MOMENT
-------------
                                X             Y             Z
Electronic contribution:    -12.09642      23.66528      -8.88696
Nuclear contribution   :     12.43042     -24.21655       9.32422
                        -----------------------------------------
Total Dipole Moment    :      0.33401      -0.55126       0.43726
                        -----------------------------------------
Magnitude (a.u.)       :      0.77888
Magnitude (Debye)      :      1.97975

Rotational constants in cm-1:     0.016268     0.010083     0.007391
Rotational constants in MHz :   487.710795   302.284601   221.575315

                             ****ORCA TERMINATED NORMALLY****
TOTAL RUN TIME: 0 days 0 hours 0 minutes 22 seconds 243 msec
