                         Program Version 4.2.1 -  RELEASE  -
|  1> ! wB97X-D3 SP def2-SVP
|  2> %pal
|  3> nprocs 24
|  4> end
|  5>
|  6> * xyz 0 1
|  7> S 	 -104.868 	 56.911 	 -96.2486
|  8> C 	 -104.918 	 55.7938 	 -94.9514
|  9> C 	 -104.881 	 54.4793 	 -95.3552
| 10> C 	 -104.819 	 54.409 	 -96.7774
| 11> C 	 -104.864 	 55.6308 	 -97.4144
| 12> H 	 -104.793 	 53.5978 	 -97.4884
| 13> C 	 -104.888 	 53.2516 	 -94.4393
| 14> H 	 -105.242 	 52.4179 	 -94.9784
| 15> H 	 -105.6 	 53.52 	 -93.6163
| 16> C 	 -103.583 	 52.7663 	 -93.8062
| 17> H 	 -103.779 	 51.8042 	 -93.2355
| 18> H 	 -103.042 	 52.617 	 -94.7467
| 19> C 	 -102.87 	 53.8894 	 -93.0268
| 20> H 	 -103.493 	 54.2424 	 -92.2616
| 21> H 	 -101.942 	 53.4936 	 -92.5358
| 22> H 	 -102.554 	 54.7345 	 -93.6846
| 23> S 	 -103.776 	 56.6329 	 -99.7991
| 24> C 	 -104.836 	 56.8939 	 -101.145
| 25> C 	 -106.113 	 56.3672 	 -100.964
| 26> C 	 -106.22 	 55.8705 	 -99.6477
| 27> C 	 -105.098 	 55.9411 	 -98.83
| 28> H 	 -106.782 	 56.3003 	 -101.843
| 29> C 	 -107.427 	 55.1743 	 -99.2074
| 30> H 	 -107.76 	 55.6844 	 -98.2891
| 31> H 	 -107.11 	 54.2146 	 -98.8013
| 32> C 	 -108.562 	 54.859 	 -100.203
| 33> H 	 -108.146 	 54.375 	 -101.06
| 34> H 	 -109.042 	 55.7621 	 -100.43
| 35> C 	 -109.591 	 53.9505 	 -99.5082
| 36> H 	 -109.826 	 54.3377 	 -98.5053
| 37> H 	 -109.265 	 52.8622 	 -99.422
| 38> H 	 -110.42 	 54.0196 	 -100.196
| 39> H 	 -104.946 	 56.1193 	 -93.8947
| 40> H 	 -104.528 	 57.136 	 -102.103
| 41> *
| 42>
| 43>                          ****END OF INPUT****

CARTESIAN COORDINATES (ANGSTROEM)
---------------------------------
  S    -104.868000   56.911000  -96.248600
  C    -104.918000   55.793800  -94.951400
  C    -104.881000   54.479300  -95.355200
  C    -104.819000   54.409000  -96.777400
  C    -104.864000   55.630800  -97.414400
  H    -104.793000   53.597800  -97.488400
  C    -104.888000   53.251600  -94.439300
  H    -105.242000   52.417900  -94.978400
  H    -105.600000   53.520000  -93.616300
  C    -103.583000   52.766300  -93.806200
  H    -103.779000   51.804200  -93.235500
  H    -103.042000   52.617000  -94.746700
  C    -102.870000   53.889400  -93.026800
  H    -103.493000   54.242400  -92.261600
  H    -101.942000   53.493600  -92.535800
  H    -102.554000   54.734500  -93.684600
  S    -103.776000   56.632900  -99.799100
  C    -104.836000   56.893900  -101.145000
  C    -106.113000   56.367200  -100.964000
  C    -106.220000   55.870500  -99.647700
  C    -105.098000   55.941100  -98.830000
  H    -106.782000   56.300300  -101.843000
  C    -107.427000   55.174300  -99.207400
  H    -107.760000   55.684400  -98.289100
  H    -107.110000   54.214600  -98.801300
  C    -108.562000   54.859000  -100.203000
  H    -108.146000   54.375000  -101.060000
  H    -109.042000   55.762100  -100.430000
  C    -109.591000   53.950500  -99.508200
  H    -109.826000   54.337700  -98.505300
  H    -109.265000   52.862200  -99.422000
  H    -110.420000   54.019600  -100.196000
  H    -104.946000   56.119300  -93.894700
  H    -104.528000   57.136000  -102.103000

 Total Charge           Charge          ....    0
 Multiplicity           Mult            ....    1
 Number of Electrons    NEL             ....  134
 Basis Dimension        Dim             ....  322

ORBITAL ENERGIES
----------------

  NO   OCC          E(Eh)            E(eV)
   0   2.0000     -88.965081     -2420.8629
   1   2.0000     -88.963766     -2420.8271
   2   2.0000     -10.325131      -280.9611
   3   2.0000     -10.322423      -280.8874
   4   2.0000     -10.314786      -280.6796
   5   2.0000     -10.311331      -280.5856
   6   2.0000     -10.303493      -280.3723
   7   2.0000     -10.298593      -280.2390
   8   2.0000     -10.294720      -280.1336
   9   2.0000     -10.293992      -280.1138
  10   2.0000     -10.291600      -280.0487
  11   2.0000     -10.290482      -280.0183
  12   2.0000     -10.282309      -279.7958
  13   2.0000     -10.280794      -279.7546
  14   2.0000     -10.278805      -279.7005
  15   2.0000     -10.277820      -279.6737
  16   2.0000      -8.080901      -219.8925
  17   2.0000      -8.078264      -219.8207
  18   2.0000      -6.039195      -164.3349
  19   2.0000      -6.036687      -164.2666
  20   2.0000      -6.035094      -164.2232
  21   2.0000      -6.032704      -164.1582
  22   2.0000      -6.031990      -164.1388
  23   2.0000      -6.029251      -164.0643
  24   2.0000      -1.009602       -27.4727
  25   2.0000      -0.987902       -26.8822
  26   2.0000      -0.913121       -24.8473
  27   2.0000      -0.912184       -24.8218
  28   2.0000      -0.868662       -23.6375
  29   2.0000      -0.852814       -23.2062
  30   2.0000      -0.848148       -23.0793
  31   2.0000      -0.814927       -22.1753
  32   2.0000      -0.785164       -21.3654
  33   2.0000      -0.766916       -20.8688
  34   2.0000      -0.707352       -19.2480
  35   2.0000      -0.702871       -19.1261
  36   2.0000      -0.689550       -18.7636
  37   2.0000      -0.649397       -17.6710
  38   2.0000      -0.648804       -17.6549
  39   2.0000      -0.614640       -16.7252
  40   2.0000      -0.596232       -16.2243
  41   2.0000      -0.576716       -15.6932
  42   2.0000      -0.573448       -15.6043
  43   2.0000      -0.553500       -15.0615
  44   2.0000      -0.544493       -14.8164
  45   2.0000      -0.529730       -14.4147
  46   2.0000      -0.516681       -14.0596
  47   2.0000      -0.508218       -13.8293
  48   2.0000      -0.498902       -13.5758
  49   2.0000      -0.498005       -13.5514
  50   2.0000      -0.488526       -13.2935
  51   2.0000      -0.476633       -12.9698
  52   2.0000      -0.471524       -12.8308
  53   2.0000      -0.466358       -12.6902
  54   2.0000      -0.457551       -12.4506
  55   2.0000      -0.449079       -12.2201
  56   2.0000      -0.442728       -12.0472
  57   2.0000      -0.436970       -11.8906
  58   2.0000      -0.429795       -11.6953
  59   2.0000      -0.426330       -11.6010
  60   2.0000      -0.425425       -11.5764
  61   2.0000      -0.416003       -11.3200
  62   2.0000      -0.408928       -11.1275
  63   2.0000      -0.336344        -9.1524
  64   2.0000      -0.330555        -8.9949
  65   2.0000      -0.324713        -8.8359
  66   2.0000      -0.301557        -8.2058
  67   0.0000       0.041212         1.1214
  68   0.0000       0.053272         1.4496
  69   0.0000       0.120076         3.2674
  70   0.0000       0.123409         3.3581
  71   0.0000       0.133899         3.6436

MULLIKEN ATOMIC CHARGES
-----------------------
   0 S :    0.133847
   1 C :   -0.134545
   2 C :   -0.091586
   3 C :    0.052574
   4 C :   -0.192346
   5 H :    0.006858
   6 C :    0.074836
   7 H :    0.012321
   8 H :    0.027218
   9 C :   -0.076500
  10 H :    0.054629
  11 H :    0.026885
  12 C :   -0.062440
  13 H :    0.015850
  14 H :    0.039156
  15 H :    0.055565
  16 S :    0.106035
  17 C :   -0.044335
  18 C :   -0.087020
  19 C :    0.000462
  20 C :   -0.184845
  21 H :    0.040336
  22 C :    0.024854
  23 H :    0.030426
  24 H :    0.011493
  25 C :   -0.036580
  26 H :    0.027735
  27 H :    0.022197
  28 C :   -0.051965
  29 H :    0.037497
  30 H :    0.046311
  31 H :    0.030915
  32 H :    0.058985
  33 H :    0.025173
Sum of atomic charges:    0.0000000

LOEWDIN ATOMIC CHARGES
----------------------
   0 S :    0.435794
   1 C :   -0.204174
   2 C :   -0.070836
   3 C :   -0.057956
   4 C :   -0.210177
   5 H :    0.032285
   6 C :   -0.031411
   7 H :    0.023739
   8 H :    0.029799
   9 C :   -0.044294
  10 H :    0.035326
  11 H :    0.026693
  12 C :   -0.070478
  13 H :    0.011764
  14 H :    0.031295
  15 H :    0.035225
  16 S :    0.406334
  17 C :   -0.172628
  18 C :   -0.082301
  19 C :   -0.051351
  20 C :   -0.213617
  21 H :    0.042491
  22 C :   -0.044255
  23 H :    0.037196
  24 H :    0.029675
  25 C :   -0.031393
  26 H :    0.022089
  27 H :    0.017295
  28 C :   -0.061886
  29 H :    0.027240
  30 H :    0.031940
  31 H :    0.024688
  32 H :    0.033300
  33 H :    0.012590

  Mayer bond orders larger than 0.100000
B(  0-S ,  1-C ) :   1.1694 B(  0-S ,  4-C ) :   1.1634 B(  1-C ,  2-C ) :   1.5941
B(  1-C , 32-H ) :   0.9641 B(  2-C ,  3-C ) :   1.2300 B(  2-C ,  6-C ) :   1.0171
B(  3-C ,  4-C ) :   1.5935 B(  3-C ,  5-H ) :   0.9965 B(  4-C , 20-C ) :   1.0116
B(  6-C ,  7-H ) :   0.9408 B(  6-C ,  8-H ) :   0.9390 B(  6-C ,  9-C ) :   1.0636
B(  9-C , 10-H ) :   0.9549 B(  9-C , 11-H ) :   0.9543 B(  9-C , 12-C ) :   1.0817
B( 12-C , 13-H ) :   0.9774 B( 12-C , 14-H ) :   0.9733 B( 12-C , 15-H ) :   0.9683
B( 16-S , 17-C ) :   1.1952 B( 16-S , 20-C ) :   1.1262 B( 17-C , 18-C ) :   1.5741
B( 17-C , 20-C ) :   0.1050 B( 17-C , 33-H ) :   0.9626 B( 18-C , 19-C ) :   1.2629
B( 18-C , 21-H ) :   0.9853 B( 19-C , 20-C ) :   1.5828 B( 19-C , 22-C ) :   1.0431
B( 22-C , 23-H ) :   0.9058 B( 22-C , 24-H ) :   0.9348 B( 22-C , 25-C ) :   1.0907
B( 25-C , 26-H ) :   0.9461 B( 25-C , 27-H ) :   0.9471 B( 25-C , 28-C ) :   1.0876
B( 28-C , 29-H ) :   0.9737 B( 28-C , 30-H ) :   0.9743 B( 28-C , 31-H ) :   0.9742

Dispersion correction           -0.014215529
FINAL SINGLE POINT ENERGY     -1339.870820845093

DIPOLE MOMENT
-------------
                                X             Y             Z
Electronic contribution:     11.48368      17.75072      -9.38999
Nuclear contribution   :    -11.86531     -18.26234       9.39413
                        -----------------------------------------
Total Dipole Moment    :     -0.38163      -0.51161       0.00414
                        -----------------------------------------
Magnitude (a.u.)       :      0.63828
Magnitude (Debye)      :      1.62239

Rotational constants in cm-1:     0.020113     0.007840     0.006345
Rotational constants in MHz :   602.984211   235.032276   190.206183

                             ****ORCA TERMINATED NORMALLY****
TOTAL RUN TIME: 0 days 0 hours 0 minutes 21 seconds 482 msec
