                         Program Version 4.2.1 -  RELEASE  -
|  1> ! wB97X-D3 SP def2-SVP
|  2> %pal
|  3> nprocs 24
|  4> end
|  5>
|  6> * xyz 0 1
|  7> S 	 -107.207 	 44.1997 	 -5.0747
|  8> C 	 -108.231 	 45.3388 	 -4.25299
|  9> C 	 -108.05 	 46.6367 	 -4.8124
| 10> C 	 -107.012 	 46.6806 	 -5.8211
| 11> C 	 -106.285 	 45.4666 	 -5.86718
| 12> H 	 -106.54 	 47.5287 	 -6.32723
| 13> C 	 -108.865 	 47.8462 	 -4.56329
| 14> H 	 -109.778 	 47.5682 	 -3.94581
| 15> H 	 -109.247 	 48.2119 	 -5.57818
| 16> C 	 -108.289 	 48.932 	 -3.71423
| 17> H 	 -109.106 	 49.5509 	 -3.38906
| 18> H 	 -107.827 	 48.5357 	 -2.82736
| 19> C 	 -107.276 	 49.7882 	 -4.5617
| 20> H 	 -107.685 	 49.8858 	 -5.59085
| 21> H 	 -107.068 	 50.7229 	 -4.06428
| 22> H 	 -106.215 	 49.3581 	 -4.50502
| 23> S 	 -104.927 	 43.5022 	 -7.27521
| 24> C 	 -103.444 	 43.9435 	 -7.96839
| 25> C 	 -103.003 	 45.1919 	 -7.64425
| 26> C 	 -103.924 	 45.9092 	 -6.80967
| 27> C 	 -105.053 	 45.1187 	 -6.54653
| 28> H 	 -102.087 	 45.437 	 -7.98134
| 29> C 	 -103.489 	 47.2669 	 -6.27279
| 30> H 	 -102.568 	 47.1738 	 -5.68031
| 31> H 	 -104.234 	 47.5091 	 -5.54774
| 32> C 	 -103.278 	 48.3107 	 -7.39333
| 33> H 	 -102.554 	 47.9843 	 -8.12453
| 34> H 	 -102.857 	 49.1963 	 -6.97968
| 35> C 	 -104.608 	 48.7387 	 -7.98262
| 36> H 	 -105.35 	 48.9373 	 -7.21103
| 37> H 	 -104.753 	 47.8557 	 -8.65493
| 38> H 	 -104.479 	 49.7076 	 -8.54481
| 39> H 	 -108.974 	 45.1954 	 -3.49406
| 40> H 	 -102.846 	 43.282 	 -8.52979
| 41> *
| 42>
| 43>                          ****END OF INPUT****

CARTESIAN COORDINATES (ANGSTROEM)
---------------------------------
  S    -107.207000   44.199700   -5.074700
  C    -108.231000   45.338800   -4.252990
  C    -108.050000   46.636700   -4.812400
  C    -107.012000   46.680600   -5.821100
  C    -106.285000   45.466600   -5.867180
  H    -106.540000   47.528700   -6.327230
  C    -108.865000   47.846200   -4.563290
  H    -109.778000   47.568200   -3.945810
  H    -109.247000   48.211900   -5.578180
  C    -108.289000   48.932000   -3.714230
  H    -109.106000   49.550900   -3.389060
  H    -107.827000   48.535700   -2.827360
  C    -107.276000   49.788200   -4.561700
  H    -107.685000   49.885800   -5.590850
  H    -107.068000   50.722900   -4.064280
  H    -106.215000   49.358100   -4.505020
  S    -104.927000   43.502200   -7.275210
  C    -103.444000   43.943500   -7.968390
  C    -103.003000   45.191900   -7.644250
  C    -103.924000   45.909200   -6.809670
  C    -105.053000   45.118700   -6.546530
  H    -102.087000   45.437000   -7.981340
  C    -103.489000   47.266900   -6.272790
  H    -102.568000   47.173800   -5.680310
  H    -104.234000   47.509100   -5.547740
  C    -103.278000   48.310700   -7.393330
  H    -102.554000   47.984300   -8.124530
  H    -102.857000   49.196300   -6.979680
  C    -104.608000   48.738700   -7.982620
  H    -105.350000   48.937300   -7.211030
  H    -104.753000   47.855700   -8.654930
  H    -104.479000   49.707600   -8.544810
  H    -108.974000   45.195400   -3.494060
  H    -102.846000   43.282000   -8.529790

 Total Charge           Charge          ....    0
 Multiplicity           Mult            ....    1
 Number of Electrons    NEL             ....  134
 Basis Dimension        Dim             ....  322

ORBITAL ENERGIES
----------------

  NO   OCC          E(Eh)            E(eV)
   0   2.0000     -88.967404     -2420.9261
   1   2.0000     -88.964516     -2420.8475
   2   2.0000     -10.330842      -281.1165
   3   2.0000     -10.330479      -281.1066
   4   2.0000     -10.314823      -280.6806
   5   2.0000     -10.309095      -280.5247
   6   2.0000     -10.307356      -280.4774
   7   2.0000     -10.303446      -280.3710
   8   2.0000     -10.295677      -280.1596
   9   2.0000     -10.294317      -280.1226
  10   2.0000     -10.293318      -280.0954
  11   2.0000     -10.286276      -279.9038
  12   2.0000     -10.283822      -279.8370
  13   2.0000     -10.283395      -279.8254
  14   2.0000     -10.282673      -279.8058
  15   2.0000     -10.282474      -279.8004
  16   2.0000      -8.082968      -219.9487
  17   2.0000      -8.079276      -219.8483
  18   2.0000      -6.041413      -164.3952
  19   2.0000      -6.037781      -164.2964
  20   2.0000      -6.037471      -164.2879
  21   2.0000      -6.033863      -164.1897
  22   2.0000      -6.033647      -164.1839
  23   2.0000      -6.029968      -164.0838
  24   2.0000      -1.006852       -27.3978
  25   2.0000      -0.982099       -26.7243
  26   2.0000      -0.916973       -24.9521
  27   2.0000      -0.915132       -24.9020
  28   2.0000      -0.868752       -23.6399
  29   2.0000      -0.855294       -23.2737
  30   2.0000      -0.840133       -22.8612
  31   2.0000      -0.813662       -22.1409
  32   2.0000      -0.783859       -21.3299
  33   2.0000      -0.770402       -20.9637
  34   2.0000      -0.708641       -19.2831
  35   2.0000      -0.701880       -19.0991
  36   2.0000      -0.696856       -18.9624
  37   2.0000      -0.661275       -17.9942
  38   2.0000      -0.636165       -17.3109
  39   2.0000      -0.615933       -16.7604
  40   2.0000      -0.600826       -16.3493
  41   2.0000      -0.576293       -15.6817
  42   2.0000      -0.558085       -15.1863
  43   2.0000      -0.553152       -15.0520
  44   2.0000      -0.542855       -14.7718
  45   2.0000      -0.537665       -14.6306
  46   2.0000      -0.519752       -14.1432
  47   2.0000      -0.513589       -13.9755
  48   2.0000      -0.505464       -13.7544
  49   2.0000      -0.498558       -13.5665
  50   2.0000      -0.487980       -13.2786
  51   2.0000      -0.481246       -13.0954
  52   2.0000      -0.472646       -12.8613
  53   2.0000      -0.466182       -12.6855
  54   2.0000      -0.462327       -12.5806
  55   2.0000      -0.449984       -12.2447
  56   2.0000      -0.448280       -12.1983
  57   2.0000      -0.439572       -11.9614
  58   2.0000      -0.428048       -11.6478
  59   2.0000      -0.424028       -11.5384
  60   2.0000      -0.415063       -11.2944
  61   2.0000      -0.410498       -11.1702
  62   2.0000      -0.407120       -11.0783
  63   2.0000      -0.354340        -9.6421
  64   2.0000      -0.334530        -9.1030
  65   2.0000      -0.324537        -8.8311
  66   2.0000      -0.278655        -7.5826
  67   0.0000       0.020724         0.5639
  68   0.0000       0.074371         2.0237
  69   0.0000       0.100764         2.7419
  70   0.0000       0.114084         3.1044
  71   0.0000       0.126807         3.4506

MULLIKEN ATOMIC CHARGES
-----------------------
   0 S :    0.097769
   1 C :   -0.076067
   2 C :   -0.103423
   3 C :    0.066420
   4 C :   -0.164726
   5 H :   -0.022165
   6 C :   -0.017965
   7 H :    0.019794
   8 H :    0.053448
   9 C :   -0.019231
  10 H :    0.027868
  11 H :    0.023831
  12 C :   -0.094196
  13 H :    0.047228
  14 H :    0.028072
  15 H :    0.047340
  16 S :    0.112826
  17 C :   -0.060732
  18 C :    0.003604
  19 C :   -0.062188
  20 C :   -0.133904
  21 H :   -0.033582
  22 C :    0.082658
  23 H :    0.040522
  24 H :    0.007521
  25 C :   -0.060846
  26 H :    0.032368
  27 H :    0.012883
  28 C :   -0.079714
  29 H :    0.049501
  30 H :    0.060615
  31 H :    0.042025
  32 H :    0.037136
  33 H :    0.035307
Sum of atomic charges:   -0.0000000

LOEWDIN ATOMIC CHARGES
----------------------
   0 S :    0.402547
   1 C :   -0.206280
   2 C :   -0.061273
   3 C :   -0.069255
   4 C :   -0.181639
   5 H :    0.028725
   6 C :   -0.047514
   7 H :    0.033961
   8 H :    0.041555
   9 C :   -0.036309
  10 H :    0.022777
  11 H :    0.025129
  12 C :   -0.077970
  13 H :    0.027388
  14 H :    0.022058
  15 H :    0.033323
  16 S :    0.412550
  17 C :   -0.182959
  18 C :   -0.060089
  19 C :   -0.049444
  20 C :   -0.194621
  21 H :    0.011267
  22 C :   -0.025785
  23 H :    0.037438
  24 H :    0.023019
  25 C :   -0.038134
  26 H :    0.022505
  27 H :    0.016034
  28 C :   -0.069899
  29 H :    0.021862
  30 H :    0.039884
  31 H :    0.032378
  32 H :    0.026984
  33 H :    0.019786

  Mayer bond orders larger than 0.100000
B(  0-S ,  1-C ) :   1.1317 B(  0-S ,  4-C ) :   1.1537 B(  1-C ,  2-C ) :   1.5977
B(  1-C ,  4-C ) :   0.1019 B(  1-C , 32-H ) :   0.9699 B(  2-C ,  3-C ) :   1.2301
B(  2-C ,  6-C ) :   1.0394 B(  3-C ,  4-C ) :   1.5499 B(  3-C ,  5-H ) :   0.9793
B(  4-C , 20-C ) :   1.0737 B(  6-C ,  7-H ) :   0.9368 B(  6-C ,  8-H ) :   0.9420
B(  6-C ,  9-C ) :   1.0814 B(  9-C , 10-H ) :   0.9568 B(  9-C , 11-H ) :   0.9469
B(  9-C , 12-C ) :   1.0766 B( 12-C , 13-H ) :   0.9718 B( 12-C , 14-H ) :   0.9701
B( 12-C , 15-H ) :   0.9703 B( 16-S , 17-C ) :   1.1587 B( 16-S , 20-C ) :   1.1311
B( 17-C , 18-C ) :   1.6342 B( 17-C , 33-H ) :   0.9676 B( 18-C , 19-C ) :   1.2043
B( 18-C , 21-H ) :   1.0098 B( 19-C , 20-C ) :   1.5919 B( 19-C , 22-C ) :   1.0297
B( 22-C , 23-H ) :   0.9380 B( 22-C , 24-H ) :   0.9370 B( 22-C , 25-C ) :   1.0684
B( 25-C , 26-H ) :   0.9604 B( 25-C , 27-H ) :   0.9529 B( 25-C , 28-C ) :   1.0641
B( 28-C , 29-H ) :   0.9605 B( 28-C , 30-H ) :   0.9779 B( 28-C , 31-H ) :   0.9696

Dispersion correction           -0.015821574
FINAL SINGLE POINT ENERGY     -1339.856952318556

DIPOLE MOMENT
-------------
                                X             Y             Z
Electronic contribution:     -0.73113     -30.70285      -1.75683
Nuclear contribution   :      1.05072      31.39259       1.82525
                        -----------------------------------------
Total Dipole Moment    :      0.31959       0.68974       0.06842
                        -----------------------------------------
Magnitude (a.u.)       :      0.76326
Magnitude (Debye)      :      1.94004

Rotational constants in cm-1:     0.018231     0.010808     0.007170
Rotational constants in MHz :   546.537833   324.014495   214.957782

                             ****ORCA TERMINATED NORMALLY****
TOTAL RUN TIME: 0 days 0 hours 0 minutes 23 seconds 201 msec
