                         Program Version 4.2.1 -  RELEASE  -
|  1> ! wB97X-D3 SP def2-SVP
|  2> %pal
|  3> nprocs 24
|  4> end
|  5>
|  6> * xyz 0 1
|  7> S 	 -46.2573 	 11.5246 	 -18.549
|  8> C 	 -44.8264 	 11.0937 	 -17.6275
|  9> C 	 -43.7506 	 11.8316 	 -18.0135
| 10> C 	 -44.0806 	 12.8486 	 -18.9553
| 11> C 	 -45.3868 	 12.8853 	 -19.3116
| 12> H 	 -43.4037 	 13.469 	 -19.5055
| 13> C 	 -42.3258 	 11.6268 	 -17.4888
| 14> H 	 -41.8061 	 11.2741 	 -18.3499
| 15> H 	 -42.4265 	 10.6892 	 -16.927
| 16> C 	 -41.6887 	 12.8074 	 -16.7081
| 17> H 	 -41.2487 	 13.5255 	 -17.3836
| 18> H 	 -42.4633 	 13.3439 	 -16.1649
| 19> C 	 -40.6393 	 12.214 	 -15.7135
| 20> H 	 -39.9762 	 11.4951 	 -16.2553
| 21> H 	 -40.0359 	 12.9874 	 -15.3403
| 22> H 	 -41.0707 	 11.6734 	 -14.8816
| 23> S 	 -46.7801 	 13.0723 	 -21.6146
| 24> C 	 -47.0171 	 14.5386 	 -22.3936
| 25> C 	 -46.5436 	 15.5887 	 -21.6836
| 26> C 	 -45.8847 	 15.1574 	 -20.5149
| 27> C 	 -45.9129 	 13.7724 	 -20.3393
| 28> H 	 -46.7873 	 16.5692 	 -22.0695
| 29> C 	 -45.3191 	 16.1972 	 -19.4894
| 30> H 	 -45.5008 	 15.9013 	 -18.4591
| 31> H 	 -45.8904 	 17.074 	 -19.7231
| 32> C 	 -43.8481 	 16.6482 	 -19.5666
| 33> H 	 -43.2382 	 15.8322 	 -19.1654
| 34> H 	 -43.6594 	 17.4153 	 -18.7955
| 35> C 	 -43.2735 	 17.1741 	 -20.9116
| 36> H 	 -43.6697 	 18.1688 	 -21.243
| 37> H 	 -43.3418 	 16.5121 	 -21.7155
| 38> H 	 -42.2466 	 17.3349 	 -20.5714
| 39> H 	 -44.8081 	 10.5799 	 -16.7507
| 40> H 	 -47.6345 	 14.6553 	 -23.2829
| 41> *
| 42>
| 43>                          ****END OF INPUT****

CARTESIAN COORDINATES (ANGSTROEM)
---------------------------------
  S    -46.257300   11.524600  -18.549000
  C    -44.826400   11.093700  -17.627500
  C    -43.750600   11.831600  -18.013500
  C    -44.080600   12.848600  -18.955300
  C    -45.386800   12.885300  -19.311600
  H    -43.403700   13.469000  -19.505500
  C    -42.325800   11.626800  -17.488800
  H    -41.806100   11.274100  -18.349900
  H    -42.426500   10.689200  -16.927000
  C    -41.688700   12.807400  -16.708100
  H    -41.248700   13.525500  -17.383600
  H    -42.463300   13.343900  -16.164900
  C    -40.639300   12.214000  -15.713500
  H    -39.976200   11.495100  -16.255300
  H    -40.035900   12.987400  -15.340300
  H    -41.070700   11.673400  -14.881600
  S    -46.780100   13.072300  -21.614600
  C    -47.017100   14.538600  -22.393600
  C    -46.543600   15.588700  -21.683600
  C    -45.884700   15.157400  -20.514900
  C    -45.912900   13.772400  -20.339300
  H    -46.787300   16.569200  -22.069500
  C    -45.319100   16.197200  -19.489400
  H    -45.500800   15.901300  -18.459100
  H    -45.890400   17.074000  -19.723100
  C    -43.848100   16.648200  -19.566600
  H    -43.238200   15.832200  -19.165400
  H    -43.659400   17.415300  -18.795500
  C    -43.273500   17.174100  -20.911600
  H    -43.669700   18.168800  -21.243000
  H    -43.341800   16.512100  -21.715500
  H    -42.246600   17.334900  -20.571400
  H    -44.808100   10.579900  -16.750700
  H    -47.634500   14.655300  -23.282900

 Total Charge           Charge          ....    0
 Multiplicity           Mult            ....    1
 Number of Electrons    NEL             ....  134
 Basis Dimension        Dim             ....  322

ORBITAL ENERGIES
----------------

  NO   OCC          E(Eh)            E(eV)
   0   2.0000     -88.964824     -2420.8559
   1   2.0000     -88.962265     -2420.7863
   2   2.0000     -10.329368      -281.0764
   3   2.0000     -10.321289      -280.8566
   4   2.0000     -10.306118      -280.4437
   5   2.0000     -10.304262      -280.3932
   6   2.0000     -10.304009      -280.3863
   7   2.0000     -10.296471      -280.1812
   8   2.0000     -10.292822      -280.0819
   9   2.0000     -10.291011      -280.0326
  10   2.0000     -10.288004      -279.9508
  11   2.0000     -10.287842      -279.9464
  12   2.0000     -10.287578      -279.9392
  13   2.0000     -10.286798      -279.9180
  14   2.0000     -10.280024      -279.7337
  15   2.0000     -10.276952      -279.6501
  16   2.0000      -8.079688      -219.8595
  17   2.0000      -8.078955      -219.8395
  18   2.0000      -6.037857      -164.2984
  19   2.0000      -6.037637      -164.2925
  20   2.0000      -6.033681      -164.1848
  21   2.0000      -6.033639      -164.1837
  22   2.0000      -6.030774      -164.1057
  23   2.0000      -6.029468      -164.0702
  24   2.0000      -1.018023       -27.7018
  25   2.0000      -0.990860       -26.9627
  26   2.0000      -0.908296       -24.7160
  27   2.0000      -0.901544       -24.5322
  28   2.0000      -0.875938       -23.8355
  29   2.0000      -0.851065       -23.1587
  30   2.0000      -0.845363       -23.0035
  31   2.0000      -0.821000       -22.3405
  32   2.0000      -0.784841       -21.3566
  33   2.0000      -0.773785       -21.0558
  34   2.0000      -0.715427       -19.4678
  35   2.0000      -0.705940       -19.2096
  36   2.0000      -0.690219       -18.7818
  37   2.0000      -0.662835       -18.0366
  38   2.0000      -0.642970       -17.4961
  39   2.0000      -0.619780       -16.8651
  40   2.0000      -0.587955       -15.9991
  41   2.0000      -0.571824       -15.5601
  42   2.0000      -0.560848       -15.2615
  43   2.0000      -0.549995       -14.9661
  44   2.0000      -0.544430       -14.8147
  45   2.0000      -0.531879       -14.4732
  46   2.0000      -0.519249       -14.1295
  47   2.0000      -0.509355       -13.8602
  48   2.0000      -0.506579       -13.7847
  49   2.0000      -0.495573       -13.4852
  50   2.0000      -0.493350       -13.4247
  51   2.0000      -0.482970       -13.1423
  52   2.0000      -0.476870       -12.9763
  53   2.0000      -0.469128       -12.7656
  54   2.0000      -0.461435       -12.5563
  55   2.0000      -0.446899       -12.1607
  56   2.0000      -0.444355       -12.0915
  57   2.0000      -0.437766       -11.9122
  58   2.0000      -0.432241       -11.7619
  59   2.0000      -0.427882       -11.6433
  60   2.0000      -0.423808       -11.5324
  61   2.0000      -0.414687       -11.2842
  62   2.0000      -0.404420       -11.0048
  63   2.0000      -0.354686        -9.6515
  64   2.0000      -0.331947        -9.0327
  65   2.0000      -0.329579        -8.9683
  66   2.0000      -0.293135        -7.9766
  67   0.0000       0.034463         0.9378
  68   0.0000       0.072750         1.9796
  69   0.0000       0.119249         3.2449
  70   0.0000       0.123756         3.3676
  71   0.0000       0.135850         3.6967

MULLIKEN ATOMIC CHARGES
-----------------------
   0 S :    0.098260
   1 C :   -0.081225
   2 C :   -0.122235
   3 C :    0.021857
   4 C :   -0.120671
   5 H :    0.011364
   6 C :    0.082295
   7 H :    0.031445
   8 H :    0.004401
   9 C :   -0.045119
  10 H :    0.033605
  11 H :    0.037686
  12 C :   -0.052548
  13 H :    0.034827
  14 H :    0.023939
  15 H :    0.038650
  16 S :    0.124031
  17 C :   -0.098849
  18 C :   -0.045930
  19 C :   -0.040829
  20 C :   -0.174035
  21 H :    0.017178
  22 C :    0.105753
  23 H :    0.033070
  24 H :    0.006556
  25 C :   -0.099015
  26 H :    0.011648
  27 H :    0.025503
  28 C :   -0.037597
  29 H :    0.033922
  30 H :    0.036396
  31 H :    0.033474
  32 H :    0.016865
  33 H :    0.055326
Sum of atomic charges:    0.0000000

LOEWDIN ATOMIC CHARGES
----------------------
   0 S :    0.377317
   1 C :   -0.185337
   2 C :   -0.058188
   3 C :   -0.062109
   4 C :   -0.175729
   5 H :    0.028569
   6 C :   -0.031403
   7 H :    0.032275
   8 H :    0.029323
   9 C :   -0.033175
  10 H :    0.023832
  11 H :    0.026513
  12 C :   -0.059455
  13 H :    0.029593
  14 H :    0.017292
  15 H :    0.025337
  16 S :    0.462406
  17 C :   -0.210145
  18 C :   -0.078955
  19 C :   -0.058549
  20 C :   -0.218278
  21 H :    0.035078
  22 C :   -0.029292
  23 H :    0.032507
  24 H :    0.025089
  25 C :   -0.045445
  26 H :    0.017187
  27 H :    0.027605
  28 C :   -0.063310
  29 H :    0.028288
  30 H :    0.015703
  31 H :    0.032919
  32 H :    0.011498
  33 H :    0.031038

  Mayer bond orders larger than 0.100000
B(  0-S ,  1-C ) :   1.1146 B(  0-S ,  4-C ) :   1.1256 B(  1-C ,  2-C ) :   1.6530
B(  1-C , 32-H ) :   0.9680 B(  2-C ,  3-C ) :   1.2078 B(  2-C ,  6-C ) :   1.0190
B(  3-C ,  4-C ) :   1.6095 B(  3-C ,  5-H ) :   0.9944 B(  4-C , 20-C ) :   1.0394
B(  6-C ,  7-H ) :   0.9285 B(  6-C ,  8-H ) :   0.9444 B(  6-C ,  9-C ) :   1.0355
B(  9-C , 10-H ) :   0.9537 B(  9-C , 11-H ) :   0.9649 B(  9-C , 12-C ) :   1.0794
B( 12-C , 13-H ) :   0.9766 B( 12-C , 14-H ) :   0.9757 B( 12-C , 15-H ) :   0.9785
B( 16-S , 17-C ) :   1.1907 B( 16-S , 20-C ) :   1.1740 B( 17-C , 18-C ) :   1.5869
B( 17-C , 33-H ) :   0.9636 B( 18-C , 19-C ) :   1.2661 B( 18-C , 21-H ) :   0.9970
B( 19-C , 20-C ) :   1.5611 B( 19-C , 22-C ) :   1.0243 B( 22-C , 23-H ) :   0.9384
B( 22-C , 24-H ) :   0.9330 B( 22-C , 25-C ) :   1.0785 B( 25-C , 26-H ) :   0.9535
B( 25-C , 27-H ) :   0.9516 B( 25-C , 28-C ) :   1.0680 B( 28-C , 29-H ) :   0.9753
B( 28-C , 30-H ) :   0.9777 B( 28-C , 31-H ) :   0.9741

Dispersion correction           -0.014370609
FINAL SINGLE POINT ENERGY     -1339.872032893394

DIPOLE MOMENT
-------------
                                X             Y             Z
Electronic contribution:    -25.24482     -13.97711     -11.44372
Nuclear contribution   :     25.76413      14.39355      11.63178
                        -----------------------------------------
Total Dipole Moment    :      0.51931       0.41645       0.18806
                        -----------------------------------------
Magnitude (a.u.)       :      0.69172
Magnitude (Debye)      :      1.75821

Rotational constants in cm-1:     0.018269     0.009110     0.006512
Rotational constants in MHz :   547.698676   273.097782   195.220980

                             ****ORCA TERMINATED NORMALLY****
TOTAL RUN TIME: 0 days 0 hours 0 minutes 21 seconds 642 msec
