                         Program Version 4.2.1 -  RELEASE  -
|  1> ! wB97X-D3 SP def2-SVP
|  2> %pal
|  3> nprocs 24
|  4> end
|  5>
|  6> * xyz 0 1
|  7> S 	 -36.1333 	 2.57122 	 14.3741
|  8> C 	 -35.084 	 3.23654 	 15.5522
|  9> C 	 -35.7963 	 3.81033 	 16.6342
| 10> C 	 -37.2013 	 3.65288 	 16.486
| 11> C 	 -37.5387 	 3.03807 	 15.3018
| 12> H 	 -37.9747 	 3.9529 	 17.1506
| 13> C 	 -35.1829 	 4.60627 	 17.7224
| 14> H 	 -34.737 	 3.83973 	 18.4281
| 15> H 	 -36.0654 	 5.08768 	 18.2523
| 16> C 	 -34.1828 	 5.71102 	 17.4004
| 17> H 	 -33.6934 	 5.8649 	 18.3644
| 18> H 	 -33.5036 	 5.37143 	 16.6601
| 19> C 	 -34.8674 	 7.00217 	 16.9528
| 20> H 	 -35.7219 	 7.29601 	 17.5099
| 21> H 	 -34.1716 	 7.83287 	 17.0006
| 22> H 	 -35.1233 	 6.79566 	 15.8902
| 23> S 	 -40.0746 	 2.18929 	 16.1452
| 24> C 	 -41.3865 	 2.0858 	 14.9437
| 25> C 	 -40.9129 	 2.46255 	 13.6665
| 26> C 	 -39.4914 	 2.65089 	 13.6266
| 27> C 	 -38.9082 	 2.69345 	 14.8761
| 28> H 	 -41.6257 	 2.44345 	 12.874
| 29> C 	 -38.8745 	 3.05488 	 12.3767
| 30> H 	 -37.8917 	 2.58093 	 12.2857
| 31> H 	 -38.8096 	 4.14695 	 12.2935
| 32> C 	 -39.5662 	 2.70904 	 11.0069
| 33> H 	 -40.4762 	 3.30978 	 10.8744
| 34> H 	 -39.8476 	 1.68647 	 10.9851
| 35> C 	 -38.6425 	 2.89653 	 9.74986
| 36> H 	 -38.6187 	 3.9158 	 9.31317
| 37> H 	 -38.8942 	 2.22638 	 8.90181
| 38> H 	 -37.6307 	 2.73149 	 10.088
| 39> H 	 -34.0421 	 3.41487 	 15.4202
| 40> H 	 -42.3773 	 1.88837 	 15.0573
| 41> *
| 42>
| 43>                          ****END OF INPUT****

CARTESIAN COORDINATES (ANGSTROEM)
---------------------------------
  S    -36.133300    2.571220   14.374100
  C    -35.084000    3.236540   15.552200
  C    -35.796300    3.810330   16.634200
  C    -37.201300    3.652880   16.486000
  C    -37.538700    3.038070   15.301800
  H    -37.974700    3.952900   17.150600
  C    -35.182900    4.606270   17.722400
  H    -34.737000    3.839730   18.428100
  H    -36.065400    5.087680   18.252300
  C    -34.182800    5.711020   17.400400
  H    -33.693400    5.864900   18.364400
  H    -33.503600    5.371430   16.660100
  C    -34.867400    7.002170   16.952800
  H    -35.721900    7.296010   17.509900
  H    -34.171600    7.832870   17.000600
  H    -35.123300    6.795660   15.890200
  S    -40.074600    2.189290   16.145200
  C    -41.386500    2.085800   14.943700
  C    -40.912900    2.462550   13.666500
  C    -39.491400    2.650890   13.626600
  C    -38.908200    2.693450   14.876100
  H    -41.625700    2.443450   12.874000
  C    -38.874500    3.054880   12.376700
  H    -37.891700    2.580930   12.285700
  H    -38.809600    4.146950   12.293500
  C    -39.566200    2.709040   11.006900
  H    -40.476200    3.309780   10.874400
  H    -39.847600    1.686470   10.985100
  C    -38.642500    2.896530    9.749860
  H    -38.618700    3.915800    9.313170
  H    -38.894200    2.226380    8.901810
  H    -37.630700    2.731490   10.088000
  H    -34.042100    3.414870   15.420200
  H    -42.377300    1.888370   15.057300

 Total Charge           Charge          ....    0
 Multiplicity           Mult            ....    1
 Number of Electrons    NEL             ....  134
 Basis Dimension        Dim             ....  322

ORBITAL ENERGIES
----------------

  NO   OCC          E(Eh)            E(eV)
   0   2.0000     -88.970142     -2421.0006
   1   2.0000     -88.968861     -2420.9658
   2   2.0000     -10.330706      -281.1128
   3   2.0000     -10.329511      -281.0803
   4   2.0000     -10.315857      -280.7087
   5   2.0000     -10.309664      -280.5402
   6   2.0000     -10.301055      -280.3059
   7   2.0000     -10.300101      -280.2800
   8   2.0000     -10.294676      -280.1324
   9   2.0000     -10.294053      -280.1154
  10   2.0000     -10.290551      -280.0201
  11   2.0000     -10.289543      -279.9927
  12   2.0000     -10.288436      -279.9626
  13   2.0000     -10.284590      -279.8579
  14   2.0000     -10.282794      -279.8091
  15   2.0000     -10.275083      -279.5992
  16   2.0000      -8.084800      -219.9986
  17   2.0000      -8.081864      -219.9187
  18   2.0000      -6.043315      -164.4470
  19   2.0000      -6.040606      -164.3733
  20   2.0000      -6.039226      -164.3357
  21   2.0000      -6.036607      -164.2644
  22   2.0000      -6.035684      -164.2393
  23   2.0000      -6.032501      -164.1527
  24   2.0000      -1.005561       -27.3627
  25   2.0000      -0.980885       -26.6913
  26   2.0000      -0.915354       -24.9081
  27   2.0000      -0.907131       -24.6843
  28   2.0000      -0.866977       -23.5916
  29   2.0000      -0.856775       -23.3140
  30   2.0000      -0.847176       -23.0528
  31   2.0000      -0.813807       -22.1448
  32   2.0000      -0.780303       -21.2331
  33   2.0000      -0.768312       -20.9068
  34   2.0000      -0.711046       -19.3486
  35   2.0000      -0.703425       -19.1412
  36   2.0000      -0.700475       -19.0609
  37   2.0000      -0.659797       -17.9540
  38   2.0000      -0.641850       -17.4656
  39   2.0000      -0.608243       -16.5511
  40   2.0000      -0.598234       -16.2788
  41   2.0000      -0.580549       -15.7975
  42   2.0000      -0.573615       -15.6089
  43   2.0000      -0.554351       -15.0847
  44   2.0000      -0.541590       -14.7374
  45   2.0000      -0.525011       -14.2863
  46   2.0000      -0.514872       -14.0104
  47   2.0000      -0.513925       -13.9846
  48   2.0000      -0.507865       -13.8197
  49   2.0000      -0.492974       -13.4145
  50   2.0000      -0.488556       -13.2943
  51   2.0000      -0.480480       -13.0745
  52   2.0000      -0.468536       -12.7495
  53   2.0000      -0.462702       -12.5908
  54   2.0000      -0.460814       -12.5394
  55   2.0000      -0.455994       -12.4082
  56   2.0000      -0.448638       -12.2081
  57   2.0000      -0.437772       -11.9124
  58   2.0000      -0.429108       -11.6766
  59   2.0000      -0.423593       -11.5265
  60   2.0000      -0.422053       -11.4846
  61   2.0000      -0.414614       -11.2822
  62   2.0000      -0.410905       -11.1813
  63   2.0000      -0.351891        -9.5754
  64   2.0000      -0.330938        -9.0053
  65   2.0000      -0.329717        -8.9721
  66   2.0000      -0.283032        -7.7017
  67   0.0000       0.021701         0.5905
  68   0.0000       0.076583         2.0839
  69   0.0000       0.104568         2.8454
  70   0.0000       0.115083         3.1316
  71   0.0000       0.126954         3.4546

MULLIKEN ATOMIC CHARGES
-----------------------
   0 S :    0.116691
   1 C :   -0.110329
   2 C :   -0.087321
   3 C :    0.000880
   4 C :   -0.129806
   5 H :    0.005053
   6 C :    0.003044
   7 H :    0.055158
   8 H :    0.026187
   9 C :   -0.039414
  10 H :    0.028092
  11 H :    0.021324
  12 C :   -0.042569
  13 H :    0.025584
  14 H :    0.032348
  15 H :    0.042886
  16 S :    0.098776
  17 C :   -0.042630
  18 C :   -0.049674
  19 C :   -0.020491
  20 C :   -0.121589
  21 H :    0.016112
  22 C :    0.027271
  23 H :    0.028114
  24 H :    0.055567
  25 C :   -0.102794
  26 H :    0.036268
  27 H :    0.025151
  28 C :   -0.055417
  29 H :    0.035023
  30 H :    0.044608
  31 H :    0.023281
  32 H :    0.039352
  33 H :    0.015262
Sum of atomic charges:   -0.0000000

LOEWDIN ATOMIC CHARGES
----------------------
   0 S :    0.437095
   1 C :   -0.217748
   2 C :   -0.062191
   3 C :   -0.066780
   4 C :   -0.187832
   5 H :    0.025551
   6 C :   -0.044016
   7 H :    0.042755
   8 H :    0.034662
   9 C :   -0.035735
  10 H :    0.026570
  11 H :    0.017682
  12 C :   -0.060172
  13 H :    0.019061
  14 H :    0.025165
  15 H :    0.034356
  16 S :    0.381419
  17 C :   -0.162229
  18 C :   -0.057878
  19 C :   -0.065965
  20 C :   -0.177038
  21 H :    0.027228
  22 C :   -0.041761
  23 H :    0.022043
  24 H :    0.042974
  25 C :   -0.038720
  26 H :    0.021784
  27 H :    0.017508
  28 C :   -0.068721
  29 H :    0.026900
  30 H :    0.032128
  31 H :    0.021831
  32 H :    0.020155
  33 H :    0.009919

  Mayer bond orders larger than 0.100000
B(  0-S ,  1-C ) :   1.1510 B(  0-S ,  4-C ) :   1.1620 B(  1-C ,  2-C ) :   1.5711
B(  1-C , 32-H ) :   0.9698 B(  2-C ,  3-C ) :   1.2651 B(  2-C ,  6-C ) :   1.0224
B(  3-C ,  4-C ) :   1.5458 B(  3-C ,  5-H ) :   0.9970 B(  4-C , 20-C ) :   1.0609
B(  6-C ,  7-H ) :   0.9279 B(  6-C ,  8-H ) :   0.9478 B(  6-C ,  9-C ) :   1.0727
B(  9-C , 10-H ) :   0.9501 B(  9-C , 11-H ) :   0.9588 B(  9-C , 12-C ) :   1.0768
B( 12-C , 13-H ) :   0.9761 B( 12-C , 14-H ) :   0.9750 B( 12-C , 15-H ) :   0.9776
B( 16-S , 17-C ) :   1.1396 B( 16-S , 20-C ) :   1.1174 B( 17-C , 18-C ) :   1.6289
B( 17-C , 33-H ) :   0.9739 B( 18-C , 19-C ) :   1.2262 B( 18-C , 21-H ) :   0.9858
B( 19-C , 20-C ) :   1.5868 B( 19-C , 22-C ) :   1.0729 B( 22-C , 23-H ) :   0.9205
B( 22-C , 24-H ) :   0.9274 B( 22-C , 25-C ) :   1.0789 B( 25-C , 26-H ) :   0.9489
B( 25-C , 27-H ) :   0.9613 B( 25-C , 28-C ) :   1.0704 B( 28-C , 29-H ) :   0.9765
B( 28-C , 30-H ) :   0.9778 B( 28-C , 31-H ) :   0.9755

Dispersion correction           -0.013633875
FINAL SINGLE POINT ENERGY     -1339.870981249481

DIPOLE MOMENT
-------------
                                X             Y             Z
Electronic contribution:     -8.02818     -13.91373       8.96829
Nuclear contribution   :      8.06849      14.30775      -9.15571
                        -----------------------------------------
Total Dipole Moment    :      0.04031       0.39402      -0.18743
                        -----------------------------------------
Magnitude (a.u.)       :      0.43818
Magnitude (Debye)      :      1.11377

Rotational constants in cm-1:     0.020028     0.007723     0.006285
Rotational constants in MHz :   600.426805   231.533694   188.408000

                             ****ORCA TERMINATED NORMALLY****
TOTAL RUN TIME: 0 days 0 hours 0 minutes 22 seconds 190 msec
