                         Program Version 4.2.1 -  RELEASE  -
|  1> ! wB97X-D3 SP def2-SVP
|  2> %pal
|  3> nprocs 24
|  4> end
|  5>
|  6> * xyz 0 1
|  7> S 	 19.8633 	 -19.9101 	 -122.847
|  8> C 	 20.9378 	 -19.7726 	 -124.243
|  9> C 	 22.2875 	 -20.0312 	 -123.959
| 10> C 	 22.4148 	 -20.1312 	 -122.527
| 11> C 	 21.2458 	 -20.0402 	 -121.828
| 12> H 	 23.299 	 -20.2007 	 -121.905
| 13> C 	 23.4631 	 -19.9182 	 -124.878
| 14> H 	 23.0926 	 -20.0698 	 -125.899
| 15> H 	 24.0435 	 -20.8846 	 -124.886
| 16> C 	 24.2125 	 -18.5778 	 -124.673
| 17> H 	 23.6561 	 -17.7258 	 -124.853
| 18> H 	 24.3478 	 -18.3862 	 -123.607
| 19> C 	 25.6628 	 -18.4909 	 -125.223
| 20> H 	 26.4585 	 -19.1219 	 -124.738
| 21> H 	 25.7265 	 -18.7944 	 -126.249
| 22> H 	 26.0474 	 -17.4633 	 -125.2
| 23> S 	 21.7716 	 -21.481 	 -119.65
| 24> C 	 21.6229 	 -20.9341 	 -117.98
| 25> C 	 21.234 	 -19.5954 	 -118.028
| 26> C 	 20.9176 	 -19.1397 	 -119.409
| 27> C 	 21.2205 	 -20.0741 	 -120.382
| 28> H 	 21.2 	 -19.0243 	 -117.076
| 29> C 	 20.2104 	 -17.7709 	 -119.565
| 30> H 	 19.8314 	 -17.4119 	 -118.624
| 31> H 	 19.377 	 -17.8866 	 -120.172
| 32> C 	 21.1271 	 -16.6701 	 -120.224
| 33> H 	 20.5758 	 -15.7926 	 -120.481
| 34> H 	 21.3958 	 -17.1393 	 -121.206
| 35> C 	 22.4122 	 -16.2519 	 -119.347
| 36> H 	 22.9501 	 -15.4432 	 -119.833
| 37> H 	 23.0847 	 -17.0539 	 -119.164
| 38> H 	 22.2198 	 -15.8606 	 -118.377
| 39> H 	 20.6053 	 -19.656 	 -125.249
| 40> H 	 21.8187 	 -21.5101 	 -117.105
| 41> *
| 42>
| 43>                          ****END OF INPUT****

CARTESIAN COORDINATES (ANGSTROEM)
---------------------------------
  S     19.863300  -19.910100  -122.847000
  C     20.937800  -19.772600  -124.243000
  C     22.287500  -20.031200  -123.959000
  C     22.414800  -20.131200  -122.527000
  C     21.245800  -20.040200  -121.828000
  H     23.299000  -20.200700  -121.905000
  C     23.463100  -19.918200  -124.878000
  H     23.092600  -20.069800  -125.899000
  H     24.043500  -20.884600  -124.886000
  C     24.212500  -18.577800  -124.673000
  H     23.656100  -17.725800  -124.853000
  H     24.347800  -18.386200  -123.607000
  C     25.662800  -18.490900  -125.223000
  H     26.458500  -19.121900  -124.738000
  H     25.726500  -18.794400  -126.249000
  H     26.047400  -17.463300  -125.200000
  S     21.771600  -21.481000  -119.650000
  C     21.622900  -20.934100  -117.980000
  C     21.234000  -19.595400  -118.028000
  C     20.917600  -19.139700  -119.409000
  C     21.220500  -20.074100  -120.382000
  H     21.200000  -19.024300  -117.076000
  C     20.210400  -17.770900  -119.565000
  H     19.831400  -17.411900  -118.624000
  H     19.377000  -17.886600  -120.172000
  C     21.127100  -16.670100  -120.224000
  H     20.575800  -15.792600  -120.481000
  H     21.395800  -17.139300  -121.206000
  C     22.412200  -16.251900  -119.347000
  H     22.950100  -15.443200  -119.833000
  H     23.084700  -17.053900  -119.164000
  H     22.219800  -15.860600  -118.377000
  H     20.605300  -19.656000  -125.249000
  H     21.818700  -21.510100  -117.105000

 Total Charge           Charge          ....    0
 Multiplicity           Mult            ....    1
 Number of Electrons    NEL             ....  134
 Basis Dimension        Dim             ....  322

ORBITAL ENERGIES
----------------

  NO   OCC          E(Eh)            E(eV)
   0   2.0000     -88.971741     -2421.0442
   1   2.0000     -88.960321     -2420.7334
   2   2.0000     -10.324566      -280.9457
   3   2.0000     -10.321630      -280.8658
   4   2.0000     -10.317126      -280.7433
   5   2.0000     -10.317115      -280.7430
   6   2.0000     -10.307599      -280.4840
   7   2.0000     -10.306840      -280.4634
   8   2.0000     -10.301858      -280.3278
   9   2.0000     -10.301829      -280.3270
  10   2.0000     -10.291619      -280.0492
  11   2.0000     -10.289475      -279.9908
  12   2.0000     -10.288061      -279.9524
  13   2.0000     -10.285079      -279.8712
  14   2.0000     -10.282065      -279.7892
  15   2.0000     -10.271288      -279.4960
  16   2.0000      -8.086293      -220.0392
  17   2.0000      -8.076169      -219.7637
  18   2.0000      -6.044778      -164.4868
  19   2.0000      -6.040941      -164.3824
  20   2.0000      -6.036987      -164.2748
  21   2.0000      -6.034776      -164.2146
  22   2.0000      -6.030190      -164.0898
  23   2.0000      -6.027053      -164.0044
  24   2.0000      -1.012293       -27.5459
  25   2.0000      -0.984972       -26.8024
  26   2.0000      -0.911716       -24.8091
  27   2.0000      -0.893019       -24.3003
  28   2.0000      -0.871915       -23.7260
  29   2.0000      -0.851079       -23.1590
  30   2.0000      -0.831479       -22.6257
  31   2.0000      -0.815753       -22.1978
  32   2.0000      -0.783990       -21.3335
  33   2.0000      -0.774497       -21.0751
  34   2.0000      -0.717571       -19.5261
  35   2.0000      -0.706042       -19.2124
  36   2.0000      -0.690651       -18.7936
  37   2.0000      -0.666588       -18.1388
  38   2.0000      -0.644130       -17.5277
  39   2.0000      -0.617559       -16.8046
  40   2.0000      -0.586335       -15.9550
  41   2.0000      -0.570031       -15.5113
  42   2.0000      -0.547347       -14.8941
  43   2.0000      -0.545834       -14.8529
  44   2.0000      -0.536391       -14.5959
  45   2.0000      -0.533591       -14.5198
  46   2.0000      -0.516747       -14.0614
  47   2.0000      -0.510156       -13.8820
  48   2.0000      -0.503249       -13.6941
  49   2.0000      -0.497947       -13.5498
  50   2.0000      -0.484446       -13.1825
  51   2.0000      -0.479349       -13.0438
  52   2.0000      -0.474007       -12.8984
  53   2.0000      -0.464882       -12.6501
  54   2.0000      -0.457134       -12.4393
  55   2.0000      -0.452096       -12.3022
  56   2.0000      -0.450050       -12.2465
  57   2.0000      -0.438114       -11.9217
  58   2.0000      -0.430447       -11.7131
  59   2.0000      -0.424296       -11.5457
  60   2.0000      -0.419013       -11.4019
  61   2.0000      -0.410627       -11.1737
  62   2.0000      -0.406590       -11.0639
  63   2.0000      -0.340810        -9.2739
  64   2.0000      -0.335025        -9.1165
  65   2.0000      -0.321663        -8.7529
  66   2.0000      -0.301347        -8.2001
  67   0.0000       0.039736         1.0813
  68   0.0000       0.067974         1.8497
  69   0.0000       0.112012         3.0480
  70   0.0000       0.118110         3.2139
  71   0.0000       0.126319         3.4373

MULLIKEN ATOMIC CHARGES
-----------------------
   0 S :    0.130240
   1 C :   -0.111077
   2 C :   -0.091920
   3 C :    0.015642
   4 C :   -0.158787
   5 H :    0.017895
   6 C :    0.084297
   7 H :    0.009848
   8 H :    0.040660
   9 C :   -0.024123
  10 H :    0.010997
  11 H :    0.025070
  12 C :   -0.062512
  13 H :    0.039835
  14 H :    0.021201
  15 H :    0.034198
  16 S :    0.103908
  17 C :   -0.098818
  18 C :   -0.053969
  19 C :   -0.054000
  20 C :   -0.160369
  21 H :    0.039987
  22 C :    0.116471
  23 H :    0.009684
  24 H :    0.010183
  25 C :   -0.083903
  26 H :    0.024749
  27 H :    0.040689
  28 C :   -0.041562
  29 H :    0.028725
  30 H :    0.031576
  31 H :    0.015384
  32 H :    0.034707
  33 H :    0.055094
Sum of atomic charges:   -0.0000000

LOEWDIN ATOMIC CHARGES
----------------------
   0 S :    0.412381
   1 C :   -0.185951
   2 C :   -0.057255
   3 C :   -0.058130
   4 C :   -0.211444
   5 H :    0.030631
   6 C :   -0.039747
   7 H :    0.030307
   8 H :    0.044098
   9 C :   -0.036553
  10 H :    0.021221
  11 H :    0.031611
  12 C :   -0.071388
  13 H :    0.031062
  14 H :    0.017613
  15 H :    0.029390
  16 S :    0.435861
  17 C :   -0.188335
  18 C :   -0.074111
  19 C :   -0.056292
  20 C :   -0.224753
  21 H :    0.037431
  22 C :   -0.023253
  23 H :    0.023846
  24 H :    0.019706
  25 C :   -0.031608
  26 H :    0.017050
  27 H :    0.029414
  28 C :   -0.066504
  29 H :    0.026402
  30 H :    0.021287
  31 H :    0.018674
  32 H :    0.019757
  33 H :    0.027580

  Mayer bond orders larger than 0.100000
B(  0-S ,  1-C ) :   1.1397 B(  0-S ,  4-C ) :   1.1340 B(  1-C ,  2-C ) :   1.6208
B(  1-C , 32-H ) :   0.9673 B(  2-C ,  3-C ) :   1.2035 B(  2-C ,  6-C ) :   1.0486
B(  3-C ,  4-C ) :   1.6162 B(  3-C ,  5-H ) :   0.9904 B(  4-C , 20-C ) :   1.0103
B(  6-C ,  7-H ) :   0.9274 B(  6-C ,  8-H ) :   0.9378 B(  6-C ,  9-C ) :   1.0314
B(  9-C , 10-H ) :   0.9532 B(  9-C , 11-H ) :   0.9586 B(  9-C , 12-C ) :   1.0711
B( 12-C , 13-H ) :   0.9779 B( 12-C , 14-H ) :   0.9770 B( 12-C , 15-H ) :   0.9741
B( 16-S , 17-C ) :   1.1556 B( 16-S , 20-C ) :   1.1638 B( 17-C , 18-C ) :   1.5993
B( 17-C , 33-H ) :   0.9763 B( 18-C , 19-C ) :   1.2349 B( 18-C , 21-H ) :   0.9847
B( 19-C , 20-C ) :   1.5861 B( 19-C , 22-C ) :   1.0350 B( 22-C , 23-H ) :   0.9408
B( 22-C , 24-H ) :   0.9382 B( 22-C , 25-C ) :   1.0673 B( 25-C , 26-H ) :   0.9606
B( 25-C , 27-H ) :   0.9612 B( 25-C , 28-C ) :   1.0566 B( 28-C , 29-H ) :   0.9781
B( 28-C , 30-H ) :   0.9790 B( 28-C , 31-H ) :   0.9773

Dispersion correction           -0.014958497
FINAL SINGLE POINT ENERGY     -1339.861481430214

DIPOLE MOMENT
-------------
                                X             Y             Z
Electronic contribution:    -16.02643     -19.09091       6.62229
Nuclear contribution   :     16.33316      19.47882      -6.71260
                        -----------------------------------------
Total Dipole Moment    :      0.30673       0.38790      -0.09030
                        -----------------------------------------
Magnitude (a.u.)       :      0.50270
Magnitude (Debye)      :      1.27776

Rotational constants in cm-1:     0.017927     0.008546     0.007818
Rotational constants in MHz :   537.445504   256.194632   234.367136

                             ****ORCA TERMINATED NORMALLY****
TOTAL RUN TIME: 0 days 0 hours 0 minutes 20 seconds 432 msec
