                         Program Version 4.2.1 -  RELEASE  -
|  1> ! wB97X-D3 SP def2-SVP
|  2> %pal
|  3> nprocs 24
|  4> end
|  5>
|  6> * xyz 0 1
|  7> S 	 -29.3267 	 -34.0845 	 -93.642
|  8> C 	 -29.2574 	 -32.3494 	 -93.8449
|  9> C 	 -30.0049 	 -31.7095 	 -92.8182
| 10> C 	 -30.4234 	 -32.6008 	 -91.7575
| 11> C 	 -29.9833 	 -33.9122 	 -92.0169
| 12> H 	 -30.8796 	 -32.4109 	 -90.7706
| 13> C 	 -30.1195 	 -30.1819 	 -92.7253
| 14> H 	 -31.1215 	 -30.0452 	 -92.3988
| 15> H 	 -30.191 	 -29.8386 	 -93.7375
| 16> C 	 -29.1865 	 -29.3814 	 -91.8558
| 17> H 	 -29.5437 	 -28.3636 	 -91.921
| 18> H 	 -29.1072 	 -29.5772 	 -90.7604
| 19> C 	 -27.7417 	 -29.3345 	 -92.5249
| 20> H 	 -27.7601 	 -28.7041 	 -93.3958
| 21> H 	 -27.0545 	 -29.0479 	 -91.73
| 22> H 	 -27.589 	 -30.4334 	 -92.8036
| 23> S 	 -28.6511 	 -35.8168 	 -90.5839
| 24> C 	 -29.5695 	 -36.977 	 -89.6429
| 25> C 	 -30.9577 	 -36.8069 	 -89.8758
| 26> C 	 -31.2948 	 -35.6395 	 -90.6888
| 27> C 	 -30.1305 	 -35.0826 	 -91.1725
| 28> H 	 -31.6408 	 -37.5684 	 -89.3984
| 29> C 	 -32.7029 	 -35.2908 	 -91.0322
| 30> H 	 -32.9289 	 -34.2236 	 -90.7595
| 31> H 	 -33.3668 	 -35.8647 	 -90.3724
| 32> C 	 -33.1423 	 -35.6674 	 -92.4265
| 33> H 	 -32.5202 	 -35.1846 	 -93.1346
| 34> H 	 -34.1405 	 -35.356 	 -92.618
| 35> C 	 -32.977 	 -37.1086 	 -92.7856
| 36> H 	 -33.1614 	 -37.3336 	 -93.8568
| 37> H 	 -33.6499 	 -37.6823 	 -92.197
| 38> H 	 -31.9695 	 -37.406 	 -92.5798
| 39> H 	 -28.9829 	 -31.9769 	 -94.8549
| 40> H 	 -29.2676 	 -37.8225 	 -89.0362
| 41> *
| 42>
| 43>                          ****END OF INPUT****

CARTESIAN COORDINATES (ANGSTROEM)
---------------------------------
  S    -29.326700  -34.084500  -93.642000
  C    -29.257400  -32.349400  -93.844900
  C    -30.004900  -31.709500  -92.818200
  C    -30.423400  -32.600800  -91.757500
  C    -29.983300  -33.912200  -92.016900
  H    -30.879600  -32.410900  -90.770600
  C    -30.119500  -30.181900  -92.725300
  H    -31.121500  -30.045200  -92.398800
  H    -30.191000  -29.838600  -93.737500
  C    -29.186500  -29.381400  -91.855800
  H    -29.543700  -28.363600  -91.921000
  H    -29.107200  -29.577200  -90.760400
  C    -27.741700  -29.334500  -92.524900
  H    -27.760100  -28.704100  -93.395800
  H    -27.054500  -29.047900  -91.730000
  H    -27.589000  -30.433400  -92.803600
  S    -28.651100  -35.816800  -90.583900
  C    -29.569500  -36.977000  -89.642900
  C    -30.957700  -36.806900  -89.875800
  C    -31.294800  -35.639500  -90.688800
  C    -30.130500  -35.082600  -91.172500
  H    -31.640800  -37.568400  -89.398400
  C    -32.702900  -35.290800  -91.032200
  H    -32.928900  -34.223600  -90.759500
  H    -33.366800  -35.864700  -90.372400
  C    -33.142300  -35.667400  -92.426500
  H    -32.520200  -35.184600  -93.134600
  H    -34.140500  -35.356000  -92.618000
  C    -32.977000  -37.108600  -92.785600
  H    -33.161400  -37.333600  -93.856800
  H    -33.649900  -37.682300  -92.197000
  H    -31.969500  -37.406000  -92.579800
  H    -28.982900  -31.976900  -94.854900
  H    -29.267600  -37.822500  -89.036200

 Total Charge           Charge          ....    0
 Multiplicity           Mult            ....    1
 Number of Electrons    NEL             ....  134
 Basis Dimension        Dim             ....  322

ORBITAL ENERGIES
----------------

  NO   OCC          E(Eh)            E(eV)
   0   2.0000     -88.970326     -2421.0057
   1   2.0000     -88.966075     -2420.8900
   2   2.0000     -10.331017      -281.1213
   3   2.0000     -10.325008      -280.9578
   4   2.0000     -10.320793      -280.8431
   5   2.0000     -10.320712      -280.8409
   6   2.0000     -10.311502      -280.5902
   7   2.0000     -10.306845      -280.4635
   8   2.0000     -10.303542      -280.3736
   9   2.0000     -10.303178      -280.3637
  10   2.0000     -10.293588      -280.1028
  11   2.0000     -10.287976      -279.9501
  12   2.0000     -10.286200      -279.9017
  13   2.0000     -10.277519      -279.6655
  14   2.0000     -10.270498      -279.4745
  15   2.0000     -10.265076      -279.3269
  16   2.0000      -8.084559      -219.9920
  17   2.0000      -8.080669      -219.8862
  18   2.0000      -6.043164      -164.4429
  19   2.0000      -6.039050      -164.3309
  20   2.0000      -6.039002      -164.3296
  21   2.0000      -6.035322      -164.2295
  22   2.0000      -6.035197      -164.2261
  23   2.0000      -6.031627      -164.1289
  24   2.0000      -1.003688       -27.3117
  25   2.0000      -0.977900       -26.6100
  26   2.0000      -0.917717       -24.9723
  27   2.0000      -0.908756       -24.7285
  28   2.0000      -0.864106       -23.5135
  29   2.0000      -0.850862       -23.1531
  30   2.0000      -0.842929       -22.9373
  31   2.0000      -0.808188       -21.9919
  32   2.0000      -0.784274       -21.3412
  33   2.0000      -0.770548       -20.9677
  34   2.0000      -0.708627       -19.2827
  35   2.0000      -0.695020       -18.9125
  36   2.0000      -0.684395       -18.6233
  37   2.0000      -0.658264       -17.9123
  38   2.0000      -0.643164       -17.5014
  39   2.0000      -0.612868       -16.6770
  40   2.0000      -0.592641       -16.1266
  41   2.0000      -0.562047       -15.2941
  42   2.0000      -0.553993       -15.0749
  43   2.0000      -0.551704       -15.0126
  44   2.0000      -0.550113       -14.9693
  45   2.0000      -0.535779       -14.5793
  46   2.0000      -0.520887       -14.1740
  47   2.0000      -0.515157       -14.0181
  48   2.0000      -0.499888       -13.6027
  49   2.0000      -0.484908       -13.1950
  50   2.0000      -0.483782       -13.1644
  51   2.0000      -0.480539       -13.0761
  52   2.0000      -0.468379       -12.7452
  53   2.0000      -0.462970       -12.5981
  54   2.0000      -0.457614       -12.4523
  55   2.0000      -0.446823       -12.1587
  56   2.0000      -0.444038       -12.0829
  57   2.0000      -0.439457       -11.9582
  58   2.0000      -0.436092       -11.8667
  59   2.0000      -0.425229       -11.5711
  60   2.0000      -0.419800       -11.4233
  61   2.0000      -0.406689       -11.0666
  62   2.0000      -0.398646       -10.8477
  63   2.0000      -0.340083        -9.2541
  64   2.0000      -0.332588        -9.0502
  65   2.0000      -0.327147        -8.9021
  66   2.0000      -0.297074        -8.0838
  67   0.0000       0.029547         0.8040
  68   0.0000       0.059347         1.6149
  69   0.0000       0.106063         2.8861
  70   0.0000       0.118146         3.2149
  71   0.0000       0.123840         3.3699

MULLIKEN ATOMIC CHARGES
-----------------------
   0 S :    0.109118
   1 C :   -0.132694
   2 C :   -0.122481
   3 C :    0.052425
   4 C :   -0.192346
   5 H :    0.034069
   6 C :    0.092017
   7 H :    0.008471
   8 H :    0.009340
   9 C :   -0.062939
  10 H :    0.023997
  11 H :    0.042438
  12 C :   -0.078188
  13 H :    0.034982
  14 H :    0.039859
  15 H :    0.051245
  16 S :    0.133773
  17 C :   -0.093854
  18 C :   -0.080571
  19 C :   -0.033669
  20 C :   -0.186251
  21 H :    0.041632
  22 C :    0.090190
  23 H :    0.036886
  24 H :    0.008606
  25 C :   -0.021648
  26 H :    0.014557
  27 H :    0.017051
  28 C :   -0.045511
  29 H :    0.036935
  30 H :    0.009095
  31 H :    0.034407
  32 H :    0.072471
  33 H :    0.056589
Sum of atomic charges:    0.0000000

LOEWDIN ATOMIC CHARGES
----------------------
   0 S :    0.402966
   1 C :   -0.213546
   2 C :   -0.056847
   3 C :   -0.062242
   4 C :   -0.189582
   5 H :    0.041167
   6 C :   -0.036644
   7 H :    0.027442
   8 H :    0.029471
   9 C :   -0.041710
  10 H :    0.023359
  11 H :    0.029715
  12 C :   -0.068460
  13 H :    0.020062
  14 H :    0.025290
  15 H :    0.034846
  16 S :    0.415253
  17 C :   -0.197948
  18 C :   -0.075180
  19 C :   -0.054497
  20 C :   -0.208518
  21 H :    0.038850
  22 C :   -0.033272
  23 H :    0.038961
  24 H :    0.029642
  25 C :   -0.035843
  26 H :    0.017974
  27 H :    0.019847
  28 C :   -0.057204
  29 H :    0.031876
  30 H :    0.013767
  31 H :    0.023379
  32 H :    0.034035
  33 H :    0.033591

  Mayer bond orders larger than 0.100000
B(  0-S ,  1-C ) :   1.1397 B(  0-S ,  4-C ) :   1.1716 B(  1-C ,  2-C ) :   1.5746
B(  1-C ,  4-C ) :   0.1030 B(  1-C , 32-H ) :   0.9651 B(  2-C ,  3-C ) :   1.2279
B(  2-C ,  6-C ) :   1.0307 B(  3-C ,  4-C ) :   1.5739 B(  3-C ,  5-H ) :   0.9886
B(  4-C , 20-C ) :   1.0260 B(  6-C ,  7-H ) :   0.9279 B(  6-C ,  8-H ) :   0.9370
B(  6-C ,  9-C ) :   1.0692 B(  9-C , 10-H ) :   0.9507 B(  9-C , 11-H ) :   0.9617
B(  9-C , 12-C ) :   1.0610 B( 12-C , 13-H ) :   0.9782 B( 12-C , 14-H ) :   0.9763
B( 12-C , 15-H ) :   0.9786 B( 16-S , 17-C ) :   1.1438 B( 16-S , 20-C ) :   1.1482
B( 17-C , 18-C ) :   1.6381 B( 17-C , 33-H ) :   0.9650 B( 18-C , 19-C ) :   1.2168
B( 18-C , 21-H ) :   0.9732 B( 19-C , 20-C ) :   1.5949 B( 19-C , 22-C ) :   1.0527
B( 22-C , 23-H ) :   0.9251 B( 22-C , 24-H ) :   0.9272 B( 22-C , 25-C ) :   1.0762
B( 25-C , 26-H ) :   0.9528 B( 25-C , 27-H ) :   0.9529 B( 25-C , 28-C ) :   1.0796
B( 28-C , 29-H ) :   0.9717 B( 28-C , 30-H ) :   0.9747 B( 28-C , 31-H ) :   0.9724

Dispersion correction           -0.015341760
FINAL SINGLE POINT ENERGY     -1339.869514846958

DIPOLE MOMENT
-------------
                                X             Y             Z
Electronic contribution:     10.80191     -12.17752       2.19343
Nuclear contribution   :    -11.31631      12.41242      -2.07603
                        -----------------------------------------
Total Dipole Moment    :     -0.51439       0.23490       0.11740
                        -----------------------------------------
Magnitude (a.u.)       :      0.57755
Magnitude (Debye)      :      1.46801

Rotational constants in cm-1:     0.022688     0.008102     0.007256
Rotational constants in MHz :   680.157270   242.905480   217.541876

                             ****ORCA TERMINATED NORMALLY****
TOTAL RUN TIME: 0 days 0 hours 0 minutes 21 seconds 935 msec
