                         Program Version 4.2.1 -  RELEASE  -
|  1> ! wB97X-D3 SP def2-SVP
|  2> %pal
|  3> nprocs 24
|  4> end
|  5>
|  6> * xyz 0 1
|  7> S 	 19.5823 	 -6.45368 	 -113.656
|  8> C 	 19.2891 	 -7.16338 	 -112.055
|  9> C 	 18.0677 	 -7.81963 	 -112.022
| 10> C 	 17.2831 	 -7.53676 	 -113.183
| 11> C 	 17.9379 	 -6.85406 	 -114.186
| 12> H 	 16.2845 	 -7.91247 	 -113.361
| 13> C 	 17.4908 	 -8.56636 	 -110.819
| 14> H 	 16.623 	 -9.00321 	 -111.236
| 15> H 	 17.1179 	 -7.82811 	 -110.083
| 16> C 	 18.3839 	 -9.57849 	 -110.072
| 17> H 	 19.2202 	 -9.09982 	 -109.611
| 18> H 	 17.9829 	 -10.0034 	 -109.208
| 19> C 	 18.8608 	 -10.6679 	 -111.001
| 20> H 	 19.5853 	 -11.2723 	 -110.499
| 21> H 	 18.109 	 -11.3683 	 -111.249
| 22> H 	 19.1822 	 -10.2605 	 -111.972
| 23> S 	 18.4151 	 -6.05004 	 -116.798
| 24> C 	 17.0493 	 -5.61079 	 -117.879
| 25> C 	 15.8721 	 -5.57297 	 -117.152
| 26> C 	 16.0252 	 -5.96169 	 -115.75
| 27> C 	 17.3472 	 -6.36002 	 -115.421
| 28> H 	 14.9317 	 -5.32009 	 -117.604
| 29> C 	 14.8219 	 -5.93484 	 -114.789
| 30> H 	 14.647 	 -6.89717 	 -114.333
| 31> H 	 13.9143 	 -5.67135 	 -115.359
| 32> C 	 14.8748 	 -4.82448 	 -113.675
| 33> H 	 14.9541 	 -3.90404 	 -114.126
| 34> H 	 15.7886 	 -5.02206 	 -113.154
| 35> C 	 13.6634 	 -4.81258 	 -112.734
| 36> H 	 13.3427 	 -5.80676 	 -112.407
| 37> H 	 12.8129 	 -4.50695 	 -113.324
| 38> H 	 13.6858 	 -4.29659 	 -111.802
| 39> H 	 20.133 	 -7.42587 	 -111.476
| 40> H 	 17.1472 	 -5.22573 	 -118.845
| 41> *
| 42>
| 43>                          ****END OF INPUT****

CARTESIAN COORDINATES (ANGSTROEM)
---------------------------------
  S     19.582300   -6.453680  -113.656000
  C     19.289100   -7.163380  -112.055000
  C     18.067700   -7.819630  -112.022000
  C     17.283100   -7.536760  -113.183000
  C     17.937900   -6.854060  -114.186000
  H     16.284500   -7.912470  -113.361000
  C     17.490800   -8.566360  -110.819000
  H     16.623000   -9.003210  -111.236000
  H     17.117900   -7.828110  -110.083000
  C     18.383900   -9.578490  -110.072000
  H     19.220200   -9.099820  -109.611000
  H     17.982900  -10.003400  -109.208000
  C     18.860800  -10.667900  -111.001000
  H     19.585300  -11.272300  -110.499000
  H     18.109000  -11.368300  -111.249000
  H     19.182200  -10.260500  -111.972000
  S     18.415100   -6.050040  -116.798000
  C     17.049300   -5.610790  -117.879000
  C     15.872100   -5.572970  -117.152000
  C     16.025200   -5.961690  -115.750000
  C     17.347200   -6.360020  -115.421000
  H     14.931700   -5.320090  -117.604000
  C     14.821900   -5.934840  -114.789000
  H     14.647000   -6.897170  -114.333000
  H     13.914300   -5.671350  -115.359000
  C     14.874800   -4.824480  -113.675000
  H     14.954100   -3.904040  -114.126000
  H     15.788600   -5.022060  -113.154000
  C     13.663400   -4.812580  -112.734000
  H     13.342700   -5.806760  -112.407000
  H     12.812900   -4.506950  -113.324000
  H     13.685800   -4.296590  -111.802000
  H     20.133000   -7.425870  -111.476000
  H     17.147200   -5.225730  -118.845000

 Total Charge           Charge          ....    0
 Multiplicity           Mult            ....    1
 Number of Electrons    NEL             ....  134
 Basis Dimension        Dim             ....  322

ORBITAL ENERGIES
----------------

  NO   OCC          E(Eh)            E(eV)
   0   2.0000     -88.967197     -2420.9205
   1   2.0000     -88.966445     -2420.9001
   2   2.0000     -10.336749      -281.2773
   3   2.0000     -10.335820      -281.2520
   4   2.0000     -10.321872      -280.8724
   5   2.0000     -10.314779      -280.6794
   6   2.0000     -10.313551      -280.6460
   7   2.0000     -10.307344      -280.4771
   8   2.0000     -10.301524      -280.3187
   9   2.0000     -10.297217      -280.2015
  10   2.0000     -10.296291      -280.1763
  11   2.0000     -10.294013      -280.1143
  12   2.0000     -10.280858      -279.7564
  13   2.0000     -10.277899      -279.6758
  14   2.0000     -10.274234      -279.5761
  15   2.0000     -10.267836      -279.4020
  16   2.0000      -8.080945      -219.8937
  17   2.0000      -8.080571      -219.8835
  18   2.0000      -6.039682      -164.3481
  19   2.0000      -6.039261      -164.3366
  20   2.0000      -6.035569      -164.2362
  21   2.0000      -6.035143      -164.2246
  22   2.0000      -6.031546      -164.1267
  23   2.0000      -6.031208      -164.1175
  24   2.0000      -1.001827       -27.2611
  25   2.0000      -0.977265       -26.5927
  26   2.0000      -0.914336       -24.8803
  27   2.0000      -0.903808       -24.5939
  28   2.0000      -0.871359       -23.7109
  29   2.0000      -0.852492       -23.1975
  30   2.0000      -0.844193       -22.9716
  31   2.0000      -0.816494       -22.2179
  32   2.0000      -0.783435       -21.3183
  33   2.0000      -0.773023       -21.0350
  34   2.0000      -0.717198       -19.5160
  35   2.0000      -0.711747       -19.3676
  36   2.0000      -0.696485       -18.9523
  37   2.0000      -0.667456       -18.1624
  38   2.0000      -0.642703       -17.4888
  39   2.0000      -0.616072       -16.7642
  40   2.0000      -0.593324       -16.1452
  41   2.0000      -0.572227       -15.5711
  42   2.0000      -0.569568       -15.4987
  43   2.0000      -0.558514       -15.1979
  44   2.0000      -0.541172       -14.7260
  45   2.0000      -0.519037       -14.1237
  46   2.0000      -0.515457       -14.0263
  47   2.0000      -0.512805       -13.9541
  48   2.0000      -0.510469       -13.8906
  49   2.0000      -0.499073       -13.5805
  50   2.0000      -0.488526       -13.2935
  51   2.0000      -0.485109       -13.2005
  52   2.0000      -0.480339       -13.0707
  53   2.0000      -0.464475       -12.6390
  54   2.0000      -0.456392       -12.4191
  55   2.0000      -0.448177       -12.1955
  56   2.0000      -0.447007       -12.1637
  57   2.0000      -0.437462       -11.9039
  58   2.0000      -0.432532       -11.7698
  59   2.0000      -0.430766       -11.7217
  60   2.0000      -0.422351       -11.4927
  61   2.0000      -0.414404       -11.2765
  62   2.0000      -0.410287       -11.1645
  63   2.0000      -0.357946        -9.7402
  64   2.0000      -0.335410        -9.1270
  65   2.0000      -0.328087        -8.9277
  66   2.0000      -0.287208        -7.8153
  67   0.0000       0.012915         0.3514
  68   0.0000       0.072609         1.9758
  69   0.0000       0.096737         2.6323
  70   0.0000       0.114971         3.1285
  71   0.0000       0.133554         3.6342

MULLIKEN ATOMIC CHARGES
-----------------------
   0 S :    0.088294
   1 C :   -0.102449
   2 C :   -0.118943
   3 C :   -0.019213
   4 C :   -0.087168
   5 H :    0.009824
   6 C :    0.084416
   7 H :    0.003134
   8 H :    0.050791
   9 C :   -0.020164
  10 H :    0.012010
  11 H :    0.005500
  12 C :   -0.041497
  13 H :    0.022777
  14 H :    0.013366
  15 H :    0.044749
  16 S :    0.084636
  17 C :   -0.064878
  18 C :   -0.018189
  19 C :   -0.054828
  20 C :   -0.135897
  21 H :    0.018299
  22 C :    0.028003
  23 H :    0.028921
  24 H :    0.012454
  25 C :   -0.023804
  26 H :    0.013983
  27 H :    0.033016
  28 C :   -0.028661
  29 H :    0.007127
  30 H :    0.018054
  31 H :    0.036367
  32 H :    0.054095
  33 H :    0.045877
Sum of atomic charges:   -0.0000000

LOEWDIN ATOMIC CHARGES
----------------------
   0 S :    0.383144
   1 C :   -0.185075
   2 C :   -0.056690
   3 C :   -0.067243
   4 C :   -0.179879
   5 H :    0.029878
   6 C :   -0.025684
   7 H :    0.021950
   8 H :    0.041604
   9 C :   -0.038054
  10 H :    0.020876
  11 H :    0.020174
  12 C :   -0.061409
  13 H :    0.023219
  14 H :    0.019175
  15 H :    0.030038
  16 S :    0.378680
  17 C :   -0.161847
  18 C :   -0.062200
  19 C :   -0.052409
  20 C :   -0.187417
  21 H :    0.030184
  22 C :   -0.028508
  23 H :    0.022708
  24 H :    0.028434
  25 C :   -0.026203
  26 H :    0.014735
  27 H :    0.021524
  28 C :   -0.066862
  29 H :    0.022568
  30 H :    0.023727
  31 H :    0.025980
  32 H :    0.019615
  33 H :    0.021269

  Mayer bond orders larger than 0.100000
B(  0-S ,  1-C ) :   1.1311 B(  0-S ,  4-C ) :   1.1398 B(  1-C ,  2-C ) :   1.6028
B(  1-C ,  4-C ) :   0.1014 B(  1-C , 32-H ) :   0.9635 B(  2-C ,  3-C ) :   1.2445
B(  2-C ,  6-C ) :   1.0093 B(  3-C ,  4-C ) :   1.5706 B(  3-C ,  5-H ) :   0.9915
B(  4-C , 20-C ) :   1.0850 B(  6-C ,  7-H ) :   0.9411 B(  6-C ,  8-H ) :   0.9366
B(  6-C ,  9-C ) :   1.0752 B(  9-C , 10-H ) :   0.9511 B(  9-C , 11-H ) :   0.9477
B(  9-C , 12-C ) :   1.0819 B( 12-C , 13-H ) :   0.9718 B( 12-C , 14-H ) :   0.9729
B( 12-C , 15-H ) :   0.9762 B( 16-S , 17-C ) :   1.1372 B( 16-S , 20-C ) :   1.1283
B( 17-C , 18-C ) :   1.6134 B( 17-C , 33-H ) :   0.9735 B( 18-C , 19-C ) :   1.2527
B( 18-C , 21-H ) :   0.9870 B( 19-C , 20-C ) :   1.5650 B( 19-C , 22-C ) :   1.0401
B( 22-C , 23-H ) :   0.9416 B( 22-C , 24-H ) :   0.9352 B( 22-C , 25-C ) :   1.0544
B( 25-C , 26-H ) :   0.9559 B( 25-C , 27-H ) :   0.9589 B( 25-C , 28-C ) :   1.0771
B( 28-C , 29-H ) :   0.9722 B( 28-C , 30-H ) :   0.9736 B( 28-C , 31-H ) :   0.9757

Dispersion correction           -0.014504082
FINAL SINGLE POINT ENERGY     -1339.872050488187

DIPOLE MOMENT
-------------
                                X             Y             Z
Electronic contribution:     16.44697       7.89009     -20.18540
Nuclear contribution   :    -17.06716      -8.06091      20.56600
                        -----------------------------------------
Total Dipole Moment    :     -0.62019      -0.17082       0.38059
                        -----------------------------------------
Magnitude (a.u.)       :      0.74744
Magnitude (Debye)      :      1.89984

Rotational constants in cm-1:     0.018834     0.008706     0.006714
Rotational constants in MHz :   564.633030   261.003772   201.274065

                             ****ORCA TERMINATED NORMALLY****
TOTAL RUN TIME: 0 days 0 hours 0 minutes 21 seconds 845 msec
