                         Program Version 4.2.1 -  RELEASE  -
|  1> ! wB97X-D3 SP def2-SVP
|  2> %pal
|  3> nprocs 24
|  4> end
|  5>
|  6> * xyz 0 1
|  7> S 	 -126.345 	 19.9723 	 -21.7935
|  8> C 	 -124.868 	 20.2273 	 -20.8808
|  9> C 	 -124.037 	 21.1471 	 -21.5537
| 10> C 	 -124.565 	 21.5843 	 -22.8019
| 11> C 	 -125.797 	 21.0368 	 -23.0585
| 12> H 	 -124.134 	 22.3465 	 -23.4193
| 13> C 	 -122.736 	 21.5797 	 -20.932
| 14> H 	 -121.911 	 20.8928 	 -21.0755
| 15> H 	 -122.878 	 21.623 	 -19.8753
| 16> C 	 -122.3 	 22.9837 	 -21.1888
| 17> H 	 -121.998 	 23.228 	 -22.2441
| 18> H 	 -123.158 	 23.7362 	 -21.0624
| 19> C 	 -121.075 	 23.3799 	 -20.3776
| 20> H 	 -121.211 	 23.5128 	 -19.2797
| 21> H 	 -120.209 	 22.7716 	 -20.5694
| 22> H 	 -120.908 	 24.4127 	 -20.6427
| 23> S 	 -128.326 	 22.1044 	 -23.6438
| 24> C 	 -128.821 	 22.3126 	 -25.2684
| 25> C 	 -127.858 	 21.9245 	 -26.1626
| 26> C 	 -126.664 	 21.468 	 -25.5503
| 27> C 	 -126.745 	 21.4295 	 -24.14
| 28> H 	 -127.992 	 22.0156 	 -27.1784
| 29> C 	 -125.452 	 20.9214 	 -26.3823
| 30> H 	 -124.592 	 21.4463 	 -26.0455
| 31> H 	 -125.438 	 21.0626 	 -27.4514
| 32> C 	 -125.274 	 19.4484 	 -26.1985
| 33> H 	 -126.222 	 18.9671 	 -26.4919
| 34> H 	 -125.17 	 19.1261 	 -25.1524
| 35> C 	 -124.083 	 18.7692 	 -27.017
| 36> H 	 -124.153 	 17.6538 	 -26.9794
| 37> H 	 -123.202 	 18.8719 	 -26.4001
| 38> H 	 -124.01 	 19.1347 	 -28.0115
| 39> H 	 -124.606 	 19.5584 	 -20.0477
| 40> H 	 -129.655 	 22.9888 	 -25.547
| 41> *
| 42>
| 43>                          ****END OF INPUT****

CARTESIAN COORDINATES (ANGSTROEM)
---------------------------------
  S    -126.345000   19.972300  -21.793500
  C    -124.868000   20.227300  -20.880800
  C    -124.037000   21.147100  -21.553700
  C    -124.565000   21.584300  -22.801900
  C    -125.797000   21.036800  -23.058500
  H    -124.134000   22.346500  -23.419300
  C    -122.736000   21.579700  -20.932000
  H    -121.911000   20.892800  -21.075500
  H    -122.878000   21.623000  -19.875300
  C    -122.300000   22.983700  -21.188800
  H    -121.998000   23.228000  -22.244100
  H    -123.158000   23.736200  -21.062400
  C    -121.075000   23.379900  -20.377600
  H    -121.211000   23.512800  -19.279700
  H    -120.209000   22.771600  -20.569400
  H    -120.908000   24.412700  -20.642700
  S    -128.326000   22.104400  -23.643800
  C    -128.821000   22.312600  -25.268400
  C    -127.858000   21.924500  -26.162600
  C    -126.664000   21.468000  -25.550300
  C    -126.745000   21.429500  -24.140000
  H    -127.992000   22.015600  -27.178400
  C    -125.452000   20.921400  -26.382300
  H    -124.592000   21.446300  -26.045500
  H    -125.438000   21.062600  -27.451400
  C    -125.274000   19.448400  -26.198500
  H    -126.222000   18.967100  -26.491900
  H    -125.170000   19.126100  -25.152400
  C    -124.083000   18.769200  -27.017000
  H    -124.153000   17.653800  -26.979400
  H    -123.202000   18.871900  -26.400100
  H    -124.010000   19.134700  -28.011500
  H    -124.606000   19.558400  -20.047700
  H    -129.655000   22.988800  -25.547000

 Total Charge           Charge          ....    0
 Multiplicity           Mult            ....    1
 Number of Electrons    NEL             ....  134
 Basis Dimension        Dim             ....  322

ORBITAL ENERGIES
----------------

  NO   OCC          E(Eh)            E(eV)
   0   2.0000     -88.968023     -2420.9430
   1   2.0000     -88.965378     -2420.8710
   2   2.0000     -10.333224      -281.1813
   3   2.0000     -10.332802      -281.1698
   4   2.0000     -10.317454      -280.7522
   5   2.0000     -10.314382      -280.6686
   6   2.0000     -10.309226      -280.5283
   7   2.0000     -10.305170      -280.4179
   8   2.0000     -10.294913      -280.1388
   9   2.0000     -10.292763      -280.0803
  10   2.0000     -10.288342      -279.9600
  11   2.0000     -10.285982      -279.8958
  12   2.0000     -10.285269      -279.8764
  13   2.0000     -10.281137      -279.7640
  14   2.0000     -10.278255      -279.6855
  15   2.0000     -10.277362      -279.6612
  16   2.0000      -8.082708      -219.9417
  17   2.0000      -8.080173      -219.8727
  18   2.0000      -6.041083      -164.3862
  19   2.0000      -6.038599      -164.3186
  20   2.0000      -6.037140      -164.2789
  21   2.0000      -6.034539      -164.2082
  22   2.0000      -6.033696      -164.1852
  23   2.0000      -6.031142      -164.1157
  24   2.0000      -1.004810       -27.3423
  25   2.0000      -0.984569       -26.7915
  26   2.0000      -0.918494       -24.9935
  27   2.0000      -0.904590       -24.6151
  28   2.0000      -0.866318       -23.5737
  29   2.0000      -0.850722       -23.1493
  30   2.0000      -0.843421       -22.9507
  31   2.0000      -0.816422       -22.2160
  32   2.0000      -0.785356       -21.3706
  33   2.0000      -0.771518       -20.9941
  34   2.0000      -0.706799       -19.2330
  35   2.0000      -0.692235       -18.8367
  36   2.0000      -0.682467       -18.5709
  37   2.0000      -0.660459       -17.9720
  38   2.0000      -0.645671       -17.5696
  39   2.0000      -0.625685       -17.0258
  40   2.0000      -0.599760       -16.3203
  41   2.0000      -0.573724       -15.6118
  42   2.0000      -0.567984       -15.4556
  43   2.0000      -0.561047       -15.2669
  44   2.0000      -0.528294       -14.3756
  45   2.0000      -0.519963       -14.1489
  46   2.0000      -0.513456       -13.9719
  47   2.0000      -0.510505       -13.8916
  48   2.0000      -0.504069       -13.7164
  49   2.0000      -0.494187       -13.4475
  50   2.0000      -0.493356       -13.4249
  51   2.0000      -0.490266       -13.3408
  52   2.0000      -0.471759       -12.8372
  53   2.0000      -0.465618       -12.6701
  54   2.0000      -0.455859       -12.4046
  55   2.0000      -0.451469       -12.2851
  56   2.0000      -0.439986       -11.9726
  57   2.0000      -0.439097       -11.9484
  58   2.0000      -0.433710       -11.8019
  59   2.0000      -0.421901       -11.4805
  60   2.0000      -0.418012       -11.3747
  61   2.0000      -0.407893       -11.0993
  62   2.0000      -0.404384       -11.0038
  63   2.0000      -0.347217        -9.4483
  64   2.0000      -0.333858        -9.0847
  65   2.0000      -0.330967        -9.0061
  66   2.0000      -0.291278        -7.9261
  67   0.0000       0.032118         0.8740
  68   0.0000       0.059038         1.6065
  69   0.0000       0.118791         3.2325
  70   0.0000       0.124965         3.4005
  71   0.0000       0.132207         3.5975

MULLIKEN ATOMIC CHARGES
-----------------------
   0 S :    0.113122
   1 C :   -0.140927
   2 C :   -0.089949
   3 C :    0.052677
   4 C :   -0.156939
   5 H :    0.013381
   6 C :    0.116866
   7 H :    0.035601
   8 H :    0.015405
   9 C :   -0.156044
  10 H :    0.028764
  11 H :    0.040625
  12 C :   -0.040259
  13 H :    0.032456
  14 H :    0.037671
  15 H :    0.023051
  16 S :    0.110006
  17 C :   -0.097416
  18 C :   -0.012900
  19 C :   -0.024815
  20 C :   -0.174224
  21 H :   -0.013776
  22 C :    0.129288
  23 H :    0.008469
  24 H :    0.009724
  25 C :   -0.118428
  26 H :    0.025247
  27 H :    0.037399
  28 C :   -0.044076
  29 H :    0.033877
  30 H :    0.027508
  31 H :    0.034710
  32 H :    0.068123
  33 H :    0.075781
Sum of atomic charges:    0.0000000

LOEWDIN ATOMIC CHARGES
----------------------
   0 S :    0.413473
   1 C :   -0.203490
   2 C :   -0.056494
   3 C :   -0.061291
   4 C :   -0.194140
   5 H :    0.032590
   6 C :   -0.039744
   7 H :    0.032398
   8 H :    0.033054
   9 C :   -0.053220
  10 H :    0.021804
  11 H :    0.032524
  12 C :   -0.067282
  13 H :    0.027152
  14 H :    0.023893
  15 H :    0.028422
  16 S :    0.411951
  17 C :   -0.202785
  18 C :   -0.067930
  19 C :   -0.045489
  20 C :   -0.191868
  21 H :    0.018654
  22 C :   -0.028058
  23 H :    0.023075
  24 H :    0.027894
  25 C :   -0.043970
  26 H :    0.022152
  27 H :    0.024591
  28 C :   -0.067572
  29 H :    0.033748
  30 H :    0.025055
  31 H :    0.017327
  32 H :    0.034003
  33 H :    0.039575

  Mayer bond orders larger than 0.100000
B(  0-S ,  1-C ) :   1.1418 B(  0-S ,  4-C ) :   1.1733 B(  1-C ,  2-C ) :   1.5865
B(  1-C ,  4-C ) :   0.1014 B(  1-C , 32-H ) :   0.9701 B(  2-C ,  3-C ) :   1.2631
B(  2-C ,  6-C ) :   1.0140 B(  3-C ,  4-C ) :   1.5539 B(  3-C ,  5-H ) :   0.9970
B(  4-C , 20-C ) :   1.0083 B(  6-C ,  7-H ) :   0.9287 B(  6-C ,  8-H ) :   0.9425
B(  6-C ,  9-C ) :   1.0692 B(  9-C , 10-H ) :   0.9451 B(  9-C , 11-H ) :   0.9560
B(  9-C , 12-C ) :   1.0904 B( 12-C , 13-H ) :   0.9722 B( 12-C , 14-H ) :   0.9735
B( 12-C , 15-H ) :   0.9699 B( 16-S , 17-C ) :   1.1734 B( 16-S , 20-C ) :   1.1561
B( 17-C , 18-C ) :   1.5757 B( 17-C , 20-C ) :   0.1037 B( 17-C , 33-H ) :   0.9579
B( 18-C , 19-C ) :   1.2795 B( 18-C , 21-H ) :   1.0054 B( 19-C , 20-C ) :   1.5692
B( 19-C , 22-C ) :   1.0273 B( 22-C , 23-H ) :   0.9281 B( 22-C , 24-H ) :   0.9411
B( 22-C , 25-C ) :   1.0622 B( 25-C , 26-H ) :   0.9569 B( 25-C , 27-H ) :   0.9572
B( 25-C , 28-C ) :   1.0758 B( 28-C , 29-H ) :   0.9743 B( 28-C , 30-H ) :   0.9766
B( 28-C , 31-H ) :   0.9775

Dispersion correction           -0.013916832
FINAL SINGLE POINT ENERGY     -1339.873620154789

DIPOLE MOMENT
-------------
                                X             Y             Z
Electronic contribution:    -25.98557      -0.87655       5.12286
Nuclear contribution   :     26.57043       1.08815      -5.27827
                        -----------------------------------------
Total Dipole Moment    :      0.58486       0.21160      -0.15541
                        -----------------------------------------
Magnitude (a.u.)       :      0.64108
Magnitude (Debye)      :      1.62950

Rotational constants in cm-1:     0.017381     0.008132     0.006985
Rotational constants in MHz :   521.078392   243.805879   209.414104

                             ****ORCA TERMINATED NORMALLY****
TOTAL RUN TIME: 0 days 0 hours 0 minutes 21 seconds 107 msec
