                         Program Version 4.2.1 -  RELEASE  -
|  1> ! wB97X-D3 SP def2-SVP
|  2> %pal
|  3> nprocs 24
|  4> end
|  5>
|  6> * xyz 0 1
|  7> S 	 -125.768 	 59.8315 	 -35.7455
|  8> C 	 -124.527 	 58.5826 	 -35.7727
|  9> C 	 -123.256 	 59.1154 	 -35.5821
| 10> C 	 -123.293 	 60.5341 	 -35.621
| 11> C 	 -124.583 	 61.0532 	 -35.6108
| 12> H 	 -122.394 	 61.2229 	 -35.6299
| 13> C 	 -121.976 	 58.2882 	 -35.5255
| 14> H 	 -121.302 	 58.858 	 -34.9008
| 15> H 	 -121.545 	 58.3243 	 -36.5522
| 16> C 	 -122.035 	 56.8357 	 -34.9577
| 17> H 	 -122.488 	 56.0538 	 -35.6226
| 18> H 	 -121.002 	 56.4139 	 -34.9444
| 19> C 	 -122.65 	 56.6437 	 -33.5492
| 20> H 	 -122.502 	 55.662 	 -33.1679
| 21> H 	 -122.037 	 57.272 	 -32.9139
| 22> H 	 -123.706 	 56.9281 	 -33.4493
| 23> S 	 -124.981 	 63.5619 	 -36.8661
| 24> C 	 -125.429 	 64.9998 	 -35.9401
| 25> C 	 -125.539 	 64.5804 	 -34.6092
| 26> C 	 -125.236 	 63.1818 	 -34.3396
| 27> C 	 -124.897 	 62.4757 	 -35.4884
| 28> H 	 -125.779 	 65.3188 	 -33.8338
| 29> C 	 -125.303 	 62.5385 	 -32.9564
| 30> H 	 -125.176 	 61.3947 	 -32.9272
| 31> H 	 -126.339 	 62.7142 	 -32.6307
| 32> C 	 -124.354 	 63.2462 	 -32.0116
| 33> H 	 -124.637 	 64.2921 	 -32.013
| 34> H 	 -123.345 	 63.1534 	 -32.4507
| 35> C 	 -124.536 	 62.6476 	 -30.6143
| 36> H 	 -123.789 	 63.069 	 -29.8806
| 37> H 	 -124.207 	 61.6513 	 -30.5248
| 38> H 	 -125.495 	 62.7961 	 -30.1899
| 39> H 	 -124.777 	 57.4983 	 -35.7969
| 40> H 	 -125.358 	 65.946 	 -36.4115
| 41> *
| 42>
| 43>                          ****END OF INPUT****

CARTESIAN COORDINATES (ANGSTROEM)
---------------------------------
  S    -125.768000   59.831500  -35.745500
  C    -124.527000   58.582600  -35.772700
  C    -123.256000   59.115400  -35.582100
  C    -123.293000   60.534100  -35.621000
  C    -124.583000   61.053200  -35.610800
  H    -122.394000   61.222900  -35.629900
  C    -121.976000   58.288200  -35.525500
  H    -121.302000   58.858000  -34.900800
  H    -121.545000   58.324300  -36.552200
  C    -122.035000   56.835700  -34.957700
  H    -122.488000   56.053800  -35.622600
  H    -121.002000   56.413900  -34.944400
  C    -122.650000   56.643700  -33.549200
  H    -122.502000   55.662000  -33.167900
  H    -122.037000   57.272000  -32.913900
  H    -123.706000   56.928100  -33.449300
  S    -124.981000   63.561900  -36.866100
  C    -125.429000   64.999800  -35.940100
  C    -125.539000   64.580400  -34.609200
  C    -125.236000   63.181800  -34.339600
  C    -124.897000   62.475700  -35.488400
  H    -125.779000   65.318800  -33.833800
  C    -125.303000   62.538500  -32.956400
  H    -125.176000   61.394700  -32.927200
  H    -126.339000   62.714200  -32.630700
  C    -124.354000   63.246200  -32.011600
  H    -124.637000   64.292100  -32.013000
  H    -123.345000   63.153400  -32.450700
  C    -124.536000   62.647600  -30.614300
  H    -123.789000   63.069000  -29.880600
  H    -124.207000   61.651300  -30.524800
  H    -125.495000   62.796100  -30.189900
  H    -124.777000   57.498300  -35.796900
  H    -125.358000   65.946000  -36.411500

 Total Charge           Charge          ....    0
 Multiplicity           Mult            ....    1
 Number of Electrons    NEL             ....  134
 Basis Dimension        Dim             ....  322

ORBITAL ENERGIES
----------------

  NO   OCC          E(Eh)            E(eV)
   0   2.0000     -88.968293     -2420.9503
   1   2.0000     -88.958174     -2420.6750
   2   2.0000     -10.326097      -280.9874
   3   2.0000     -10.324538      -280.9450
   4   2.0000     -10.321955      -280.8747
   5   2.0000     -10.316462      -280.7252
   6   2.0000     -10.304706      -280.4053
   7   2.0000     -10.303602      -280.3753
   8   2.0000     -10.302506      -280.3454
   9   2.0000     -10.301204      -280.3100
  10   2.0000     -10.298888      -280.2470
  11   2.0000     -10.298322      -280.2316
  12   2.0000     -10.292414      -280.0708
  13   2.0000     -10.284560      -279.8571
  14   2.0000     -10.277191      -279.6566
  15   2.0000     -10.272922      -279.5404
  16   2.0000      -8.083257      -219.9566
  17   2.0000      -8.072797      -219.6720
  18   2.0000      -6.041651      -164.4017
  19   2.0000      -6.037613      -164.2918
  20   2.0000      -6.034262      -164.2006
  21   2.0000      -6.031342      -164.1212
  22   2.0000      -6.027102      -164.0058
  23   2.0000      -6.023735      -163.9142
  24   2.0000      -1.005487       -27.3607
  25   2.0000      -0.980854       -26.6904
  26   2.0000      -0.910234       -24.7687
  27   2.0000      -0.907320       -24.6894
  28   2.0000      -0.865103       -23.5406
  29   2.0000      -0.850352       -23.1392
  30   2.0000      -0.841283       -22.8925
  31   2.0000      -0.808781       -22.0080
  32   2.0000      -0.784672       -21.3520
  33   2.0000      -0.771298       -20.9881
  34   2.0000      -0.705207       -19.1896
  35   2.0000      -0.700050       -19.0493
  36   2.0000      -0.696451       -18.9514
  37   2.0000      -0.655415       -17.8347
  38   2.0000      -0.637382       -17.3441
  39   2.0000      -0.607083       -16.5196
  40   2.0000      -0.595006       -16.1909
  41   2.0000      -0.570007       -15.5107
  42   2.0000      -0.569056       -15.4848
  43   2.0000      -0.555479       -15.1153
  44   2.0000      -0.536625       -14.6023
  45   2.0000      -0.522774       -14.2254
  46   2.0000      -0.513377       -13.9697
  47   2.0000      -0.512145       -13.9362
  48   2.0000      -0.506550       -13.7839
  49   2.0000      -0.494356       -13.4521
  50   2.0000      -0.490199       -13.3390
  51   2.0000      -0.476677       -12.9710
  52   2.0000      -0.471401       -12.8275
  53   2.0000      -0.466543       -12.6953
  54   2.0000      -0.459605       -12.5065
  55   2.0000      -0.449608       -12.2344
  56   2.0000      -0.443241       -12.0612
  57   2.0000      -0.437553       -11.9064
  58   2.0000      -0.429811       -11.6958
  59   2.0000      -0.427035       -11.6202
  60   2.0000      -0.420148       -11.4328
  61   2.0000      -0.411592       -11.2000
  62   2.0000      -0.403525       -10.9805
  63   2.0000      -0.333989        -9.0883
  64   2.0000      -0.326213        -8.8767
  65   2.0000      -0.318251        -8.6600
  66   2.0000      -0.312625        -8.5070
  67   0.0000       0.045754         1.2450
  68   0.0000       0.054957         1.4955
  69   0.0000       0.120050         3.2667
  70   0.0000       0.123333         3.3561
  71   0.0000       0.126273         3.4361

MULLIKEN ATOMIC CHARGES
-----------------------
   0 S :    0.132546
   1 C :   -0.151177
   2 C :   -0.092104
   3 C :    0.015503
   4 C :   -0.183161
   5 H :    0.037825
   6 C :    0.083414
   7 H :    0.021966
   8 H :    0.057384
   9 C :   -0.116946
  10 H :    0.029769
  11 H :    0.031821
  12 C :   -0.033998
  13 H :    0.027621
  14 H :    0.019579
  15 H :    0.045180
  16 S :    0.084640
  17 C :   -0.098228
  18 C :   -0.035938
  19 C :   -0.019474
  20 C :   -0.173219
  21 H :    0.031460
  22 C :    0.038300
  23 H :    0.050695
  24 H :    0.027604
  25 C :   -0.084739
  26 H :    0.026846
  27 H :    0.037990
  28 C :   -0.013656
  29 H :    0.023203
  30 H :    0.018126
  31 H :    0.029116
  32 H :    0.067620
  33 H :    0.064433
Sum of atomic charges:   -0.0000000

LOEWDIN ATOMIC CHARGES
----------------------
   0 S :    0.429220
   1 C :   -0.203500
   2 C :   -0.067686
   3 C :   -0.064254
   4 C :   -0.214182
   5 H :    0.043421
   6 C :   -0.031654
   7 H :    0.029187
   8 H :    0.045548
   9 C :   -0.053603
  10 H :    0.023181
  11 H :    0.031955
  12 C :   -0.064068
  13 H :    0.023353
  14 H :    0.023749
  15 H :    0.026956
  16 S :    0.390164
  17 C :   -0.174506
  18 C :   -0.075114
  19 C :   -0.055247
  20 C :   -0.207439
  21 H :    0.030784
  22 C :   -0.037855
  23 H :    0.038824
  24 H :    0.030559
  25 C :   -0.038671
  26 H :    0.022042
  27 H :    0.029597
  28 C :   -0.065896
  29 H :    0.031731
  30 H :    0.020499
  31 H :    0.021747
  32 H :    0.034404
  33 H :    0.026752

  Mayer bond orders larger than 0.100000
B(  0-S ,  1-C ) :   1.1458 B(  0-S ,  4-C ) :   1.1707 B(  1-C ,  2-C ) :   1.5932
B(  1-C , 32-H ) :   0.9611 B(  2-C ,  3-C ) :   1.2628 B(  2-C ,  6-C ) :   1.0065
B(  3-C ,  4-C ) :   1.5732 B(  3-C ,  5-H ) :   0.9826 B(  4-C , 20-C ) :   1.0147
B(  6-C ,  7-H ) :   0.9402 B(  6-C ,  8-H ) :   0.9371 B(  6-C ,  9-C ) :   1.0704
B(  9-C , 10-H ) :   0.9537 B(  9-C , 11-H ) :   0.9536 B(  9-C , 12-C ) :   1.0752
B( 12-C , 13-H ) :   0.9735 B( 12-C , 14-H ) :   0.9753 B( 12-C , 15-H ) :   0.9748
B( 16-S , 17-C ) :   1.1629 B( 16-S , 20-C ) :   1.1437 B( 17-C , 18-C ) :   1.5757
B( 17-C , 20-C ) :   0.1003 B( 17-C , 33-H ) :   0.9784 B( 18-C , 19-C ) :   1.2481
B( 18-C , 21-H ) :   0.9828 B( 19-C , 20-C ) :   1.5971 B( 19-C , 22-C ) :   1.0305
B( 22-C , 23-H ) :   0.9395 B( 22-C , 24-H ) :   0.9338 B( 22-C , 25-C ) :   1.0570
B( 25-C , 26-H ) :   0.9549 B( 25-C , 27-H ) :   0.9562 B( 25-C , 28-C ) :   1.0887
B( 28-C , 29-H ) :   0.9692 B( 28-C , 30-H ) :   0.9705 B( 28-C , 31-H ) :   0.9735

Dispersion correction           -0.014387536
FINAL SINGLE POINT ENERGY     -1339.883774320005

DIPOLE MOMENT
-------------
                                X             Y             Z
Electronic contribution:    -12.18541      11.66315     -21.96787
Nuclear contribution   :     12.63414     -11.83521      22.48246
                        -----------------------------------------
Total Dipole Moment    :      0.44874      -0.17205       0.51459
                        -----------------------------------------
Magnitude (a.u.)       :      0.70411
Magnitude (Debye)      :      1.78970

Rotational constants in cm-1:     0.019124     0.008366     0.006644
Rotational constants in MHz :   573.315413   250.805316   199.169152

                             ****ORCA TERMINATED NORMALLY****
TOTAL RUN TIME: 0 days 0 hours 0 minutes 20 seconds 238 msec
