                         Program Version 4.2.1 -  RELEASE  -
|  1> ! wB97X-D3 SP def2-SVP
|  2> %pal
|  3> nprocs 24
|  4> end
|  5>
|  6> * xyz 0 1
|  7> S 	 -69.673 	 6.89875 	 -114.063
|  8> C 	 -70.6806 	 6.51217 	 -112.755
|  9> C 	 -70.1228 	 6.76164 	 -111.554
| 10> C 	 -68.7493 	 7.09753 	 -111.666
| 11> C 	 -68.3753 	 7.33035 	 -112.989
| 12> H 	 -68.0934 	 7.42395 	 -110.915
| 13> C 	 -70.763 	 6.49076 	 -110.212
| 14> H 	 -71.7984 	 6.75146 	 -110.32
| 15> H 	 -70.3373 	 7.15169 	 -109.529
| 16> C 	 -70.4907 	 5.12327 	 -109.7
| 17> H 	 -70.9678 	 4.3863 	 -110.329
| 18> H 	 -69.4512 	 4.98843 	 -109.672
| 19> C 	 -71.0164 	 4.92986 	 -108.318
| 20> H 	 -70.5256 	 4.13724 	 -107.782
| 21> H 	 -70.8534 	 5.86557 	 -107.793
| 22> H 	 -72.1149 	 4.68043 	 -108.318
| 23> S 	 -67.2858 	 8.98435 	 -114.928
| 24> C 	 -65.6852 	 9.49287 	 -114.79
| 25> C 	 -64.9863 	 8.79144 	 -113.799
| 26> C 	 -65.8194 	 7.95035 	 -113.038
| 27> C 	 -67.1347 	 7.93109 	 -113.551
| 28> H 	 -63.9079 	 9.0731 	 -113.653
| 29> C 	 -65.3232 	 7.12268 	 -111.905
| 30> H 	 -65.1976 	 6.0715 	 -112.225
| 31> H 	 -66.1343 	 6.85921 	 -111.219
| 32> C 	 -63.9489 	 7.4268 	 -111.163
| 33> H 	 -63.2417 	 7.94703 	 -111.755
| 34> H 	 -63.5263 	 6.47697 	 -110.831
| 35> C 	 -64.0604 	 8.26449 	 -109.904
| 36> H 	 -64.5904 	 7.82168 	 -109.083
| 37> H 	 -64.7163 	 9.16591 	 -110.006
| 38> H 	 -63.0719 	 8.44902 	 -109.456
| 39> H 	 -71.6216 	 6.0157 	 -112.907
| 40> H 	 -65.1532 	 9.97116 	 -115.655
| 41> *
| 42>
| 43>                          ****END OF INPUT****

CARTESIAN COORDINATES (ANGSTROEM)
---------------------------------
  S    -69.673000    6.898750  -114.063000
  C    -70.680600    6.512170  -112.755000
  C    -70.122800    6.761640  -111.554000
  C    -68.749300    7.097530  -111.666000
  C    -68.375300    7.330350  -112.989000
  H    -68.093400    7.423950  -110.915000
  C    -70.763000    6.490760  -110.212000
  H    -71.798400    6.751460  -110.320000
  H    -70.337300    7.151690  -109.529000
  C    -70.490700    5.123270  -109.700000
  H    -70.967800    4.386300  -110.329000
  H    -69.451200    4.988430  -109.672000
  C    -71.016400    4.929860  -108.318000
  H    -70.525600    4.137240  -107.782000
  H    -70.853400    5.865570  -107.793000
  H    -72.114900    4.680430  -108.318000
  S    -67.285800    8.984350  -114.928000
  C    -65.685200    9.492870  -114.790000
  C    -64.986300    8.791440  -113.799000
  C    -65.819400    7.950350  -113.038000
  C    -67.134700    7.931090  -113.551000
  H    -63.907900    9.073100  -113.653000
  C    -65.323200    7.122680  -111.905000
  H    -65.197600    6.071500  -112.225000
  H    -66.134300    6.859210  -111.219000
  C    -63.948900    7.426800  -111.163000
  H    -63.241700    7.947030  -111.755000
  H    -63.526300    6.476970  -110.831000
  C    -64.060400    8.264490  -109.904000
  H    -64.590400    7.821680  -109.083000
  H    -64.716300    9.165910  -110.006000
  H    -63.071900    8.449020  -109.456000
  H    -71.621600    6.015700  -112.907000
  H    -65.153200    9.971160  -115.655000

 Total Charge           Charge          ....    0
 Multiplicity           Mult            ....    1
 Number of Electrons    NEL             ....  134
 Basis Dimension        Dim             ....  322

ORBITAL ENERGIES
----------------

  NO   OCC          E(Eh)            E(eV)
   0   2.0000     -88.968219     -2420.9483
   1   2.0000     -88.963621     -2420.8232
   2   2.0000     -10.331122      -281.1241
   3   2.0000     -10.328541      -281.0539
   4   2.0000     -10.314159      -280.6625
   5   2.0000     -10.306888      -280.4647
   6   2.0000     -10.303065      -280.3606
   7   2.0000     -10.297218      -280.2015
   8   2.0000     -10.295991      -280.1682
   9   2.0000     -10.293216      -280.0926
  10   2.0000     -10.291682      -280.0509
  11   2.0000     -10.288789      -279.9722
  12   2.0000     -10.279421      -279.7173
  13   2.0000     -10.276431      -279.6359
  14   2.0000     -10.274819      -279.5920
  15   2.0000     -10.273461      -279.5551
  16   2.0000      -8.084080      -219.9790
  17   2.0000      -8.079876      -219.8646
  18   2.0000      -6.042345      -164.4206
  19   2.0000      -6.038291      -164.3103
  20   2.0000      -6.038245      -164.3090
  21   2.0000      -6.035176      -164.2255
  22   2.0000      -6.034165      -164.1980
  23   2.0000      -6.030712      -164.1040
  24   2.0000      -1.013957       -27.5912
  25   2.0000      -0.994320       -27.0568
  26   2.0000      -0.926509       -25.2116
  27   2.0000      -0.908477       -24.7209
  28   2.0000      -0.869922       -23.6718
  29   2.0000      -0.860495       -23.4153
  30   2.0000      -0.851060       -23.1585
  31   2.0000      -0.814998       -22.1772
  32   2.0000      -0.786963       -21.4143
  33   2.0000      -0.772996       -21.0343
  34   2.0000      -0.710318       -19.3287
  35   2.0000      -0.700667       -19.0661
  36   2.0000      -0.694441       -18.8967
  37   2.0000      -0.660131       -17.9631
  38   2.0000      -0.640162       -17.4197
  39   2.0000      -0.626431       -17.0461
  40   2.0000      -0.604497       -16.4492
  41   2.0000      -0.584886       -15.9156
  42   2.0000      -0.564152       -15.3513
  43   2.0000      -0.548341       -14.9211
  44   2.0000      -0.531428       -14.4609
  45   2.0000      -0.528565       -14.3830
  46   2.0000      -0.523124       -14.2349
  47   2.0000      -0.517602       -14.0847
  48   2.0000      -0.508772       -13.8444
  49   2.0000      -0.499126       -13.5819
  50   2.0000      -0.489201       -13.3118
  51   2.0000      -0.480370       -13.0715
  52   2.0000      -0.473104       -12.8738
  53   2.0000      -0.466792       -12.7020
  54   2.0000      -0.465290       -12.6612
  55   2.0000      -0.449040       -12.2190
  56   2.0000      -0.444491       -12.0952
  57   2.0000      -0.435899       -11.8614
  58   2.0000      -0.432834       -11.7780
  59   2.0000      -0.426464       -11.6047
  60   2.0000      -0.424413       -11.5489
  61   2.0000      -0.420400       -11.4397
  62   2.0000      -0.416270       -11.3273
  63   2.0000      -0.356021        -9.6878
  64   2.0000      -0.335132        -9.1194
  65   2.0000      -0.329419        -8.9639
  66   2.0000      -0.281631        -7.6636
  67   0.0000       0.024730         0.6729
  68   0.0000       0.079119         2.1529
  69   0.0000       0.114709         3.1214
  70   0.0000       0.122081         3.3220
  71   0.0000       0.135366         3.6835

MULLIKEN ATOMIC CHARGES
-----------------------
   0 S :    0.108467
   1 C :   -0.115859
   2 C :   -0.093436
   3 C :    0.014869
   4 C :   -0.152562
   5 H :    0.003250
   6 C :    0.109271
   7 H :    0.017257
   8 H :   -0.006207
   9 C :   -0.031506
  10 H :    0.019112
  11 H :    0.010663
  12 C :   -0.034764
  13 H :    0.029882
  14 H :    0.017859
  15 H :    0.036113
  16 S :    0.124903
  17 C :   -0.114317
  18 C :   -0.088118
  19 C :    0.000871
  20 C :   -0.127768
  21 H :    0.044751
  22 C :    0.035339
  23 H :    0.038299
  24 H :   -0.006176
  25 C :   -0.027936
  26 H :    0.026375
  27 H :    0.028117
  28 C :   -0.067068
  29 H :    0.008582
  30 H :    0.036555
  31 H :    0.035572
  32 H :    0.040498
  33 H :    0.079112
Sum of atomic charges:   -0.0000000

LOEWDIN ATOMIC CHARGES
----------------------
   0 S :    0.426246
   1 C :   -0.210596
   2 C :   -0.060817
   3 C :   -0.068654
   4 C :   -0.184606
   5 H :    0.020667
   6 C :   -0.022313
   7 H :    0.028017
   8 H :    0.020331
   9 C :   -0.035078
  10 H :    0.023285
  11 H :    0.019313
  12 C :   -0.062753
  13 H :    0.023123
  14 H :    0.021352
  15 H :    0.030546
  16 S :    0.446352
  17 C :   -0.225547
  18 C :   -0.080744
  19 C :   -0.057645
  20 C :   -0.208600
  21 H :    0.041489
  22 C :   -0.044967
  23 H :    0.046825
  24 H :    0.031914
  25 C :   -0.030759
  26 H :    0.019756
  27 H :    0.029825
  28 C :   -0.076873
  29 H :    0.016459
  30 H :    0.030573
  31 H :    0.028361
  32 H :    0.025402
  33 H :    0.040114

  Mayer bond orders larger than 0.100000
B(  0-S ,  1-C ) :   1.1443 B(  0-S ,  4-C ) :   1.1710 B(  1-C ,  2-C ) :   1.6168
B(  1-C , 32-H ) :   0.9686 B(  2-C ,  3-C ) :   1.2516 B(  2-C ,  6-C ) :   1.0340
B(  3-C ,  4-C ) :   1.5651 B(  3-C ,  5-H ) :   0.9826 B(  4-C , 20-C ) :   1.0324
B(  6-C ,  7-H ) :   0.9359 B(  6-C ,  8-H ) :   0.9195 B(  6-C ,  9-C ) :   1.0876
B(  9-C , 10-H ) :   0.9513 B(  9-C , 11-H ) :   0.9487 B(  9-C , 12-C ) :   1.0917
B( 12-C , 13-H ) :   0.9735 B( 12-C , 14-H ) :   0.9708 B( 12-C , 15-H ) :   0.9741
B( 16-S , 17-C ) :   1.1954 B( 16-S , 20-C ) :   1.1704 B( 17-C , 18-C ) :   1.5668
B( 17-C , 20-C ) :   0.1097 B( 17-C , 33-H ) :   0.9518 B( 18-C , 19-C ) :   1.2927
B( 18-C , 21-H ) :   0.9785 B( 19-C , 20-C ) :   1.5261 B( 19-C , 22-C ) :   1.0478
B( 22-C , 23-H ) :   0.9212 B( 22-C , 24-H ) :   0.9262 B( 22-C , 25-C ) :   1.0571
B( 25-C , 26-H ) :   0.9595 B( 25-C , 27-H ) :   0.9536 B( 25-C , 28-C ) :   1.0847
B( 28-C , 29-H ) :   0.9710 B( 28-C , 30-H ) :   0.9752 B( 28-C , 31-H ) :   0.9734

Dispersion correction           -0.013417839
FINAL SINGLE POINT ENERGY     -1339.868152135158

DIPOLE MOMENT
-------------
                                X             Y             Z
Electronic contribution:     -5.50738       8.85603     -29.58617
Nuclear contribution   :      5.75367      -9.12084      30.12500
                        -----------------------------------------
Total Dipole Moment    :      0.24629      -0.26481       0.53883
                        -----------------------------------------
Magnitude (a.u.)       :      0.64893
Magnitude (Debye)      :      1.64946

Rotational constants in cm-1:     0.017568     0.008718     0.006085
Rotational constants in MHz :   526.676882   261.364657   182.435348

                             ****ORCA TERMINATED NORMALLY****
TOTAL RUN TIME: 0 days 0 hours 0 minutes 21 seconds 263 msec
