                         Program Version 4.2.1 -  RELEASE  -
|  1> ! wB97X-D3 SP def2-SVP
|  2> %pal
|  3> nprocs 24
|  4> end
|  5>
|  6> * xyz 0 1
|  7> S 	 -69.0712 	 -43.5658 	 -91.0716
|  8> C 	 -67.4638 	 -42.8586 	 -90.9207
|  9> C 	 -66.5889 	 -43.4096 	 -91.8346
| 10> C 	 -67.2691 	 -44.347 	 -92.6634
| 11> C 	 -68.6039 	 -44.5897 	 -92.3557
| 12> H 	 -66.7497 	 -44.9531 	 -93.3951
| 13> C 	 -65.1031 	 -43.0013 	 -91.9002
| 14> H 	 -65.0086 	 -41.8964 	 -91.9082
| 15> H 	 -64.6144 	 -43.3856 	 -92.8227
| 16> C 	 -64.341 	 -43.7051 	 -90.8288
| 17> H 	 -63.3973 	 -43.1334 	 -90.7009
| 18> H 	 -64.9238 	 -43.6064 	 -89.8786
| 19> C 	 -63.9375 	 -45.1405 	 -91.0216
| 20> H 	 -63.4706 	 -45.584 	 -90.1292
| 21> H 	 -64.8191 	 -45.7798 	 -91.2551
| 22> H 	 -63.1783 	 -45.1883 	 -91.8399
| 23> S 	 -70.2596 	 -46.8217 	 -92.0883
| 24> C 	 -71.1495 	 -47.2891 	 -93.5227
| 25> C 	 -70.9139 	 -46.5043 	 -94.6203
| 26> C 	 -69.9678 	 -45.4666 	 -94.3779
| 27> C 	 -69.5552 	 -45.4679 	 -93.0446
| 28> H 	 -71.3246 	 -46.5992 	 -95.5989
| 29> C 	 -69.6095 	 -44.459 	 -95.4058
| 30> H 	 -69.0786 	 -44.8896 	 -96.2743
| 31> H 	 -68.8397 	 -43.817 	 -95.0635
| 32> C 	 -70.6631 	 -43.4369 	 -95.8224
| 33> H 	 -71.3696 	 -43.9797 	 -96.4441
| 34> H 	 -70.2495 	 -42.6853 	 -96.5532
| 35> C 	 -71.1487 	 -42.624 	 -94.5675
| 36> H 	 -71.8294 	 -43.2786 	 -93.9531
| 37> H 	 -71.8859 	 -41.8426 	 -94.8371
| 38> H 	 -70.3907 	 -42.1417 	 -93.9354
| 39> H 	 -67.202 	 -42.1003 	 -90.2532
| 40> H 	 -71.8753 	 -48.1339 	 -93.5185
| 41> *
| 42>
| 43>                          ****END OF INPUT****

CARTESIAN COORDINATES (ANGSTROEM)
---------------------------------
  S    -69.071200  -43.565800  -91.071600
  C    -67.463800  -42.858600  -90.920700
  C    -66.588900  -43.409600  -91.834600
  C    -67.269100  -44.347000  -92.663400
  C    -68.603900  -44.589700  -92.355700
  H    -66.749700  -44.953100  -93.395100
  C    -65.103100  -43.001300  -91.900200
  H    -65.008600  -41.896400  -91.908200
  H    -64.614400  -43.385600  -92.822700
  C    -64.341000  -43.705100  -90.828800
  H    -63.397300  -43.133400  -90.700900
  H    -64.923800  -43.606400  -89.878600
  C    -63.937500  -45.140500  -91.021600
  H    -63.470600  -45.584000  -90.129200
  H    -64.819100  -45.779800  -91.255100
  H    -63.178300  -45.188300  -91.839900
  S    -70.259600  -46.821700  -92.088300
  C    -71.149500  -47.289100  -93.522700
  C    -70.913900  -46.504300  -94.620300
  C    -69.967800  -45.466600  -94.377900
  C    -69.555200  -45.467900  -93.044600
  H    -71.324600  -46.599200  -95.598900
  C    -69.609500  -44.459000  -95.405800
  H    -69.078600  -44.889600  -96.274300
  H    -68.839700  -43.817000  -95.063500
  C    -70.663100  -43.436900  -95.822400
  H    -71.369600  -43.979700  -96.444100
  H    -70.249500  -42.685300  -96.553200
  C    -71.148700  -42.624000  -94.567500
  H    -71.829400  -43.278600  -93.953100
  H    -71.885900  -41.842600  -94.837100
  H    -70.390700  -42.141700  -93.935400
  H    -67.202000  -42.100300  -90.253200
  H    -71.875300  -48.133900  -93.518500

 Total Charge           Charge          ....    0
 Multiplicity           Mult            ....    1
 Number of Electrons    NEL             ....  134
 Basis Dimension        Dim             ....  322

ORBITAL ENERGIES
----------------

  NO   OCC          E(Eh)            E(eV)
   0   2.0000     -88.968585     -2420.9583
   1   2.0000     -88.966255     -2420.8949
   2   2.0000     -10.330120      -281.0969
   3   2.0000     -10.325619      -280.9744
   4   2.0000     -10.321520      -280.8628
   5   2.0000     -10.309390      -280.5328
   6   2.0000     -10.302712      -280.3510
   7   2.0000     -10.300739      -280.2974
   8   2.0000     -10.297881      -280.2196
   9   2.0000     -10.292046      -280.0608
  10   2.0000     -10.291947      -280.0581
  11   2.0000     -10.291089      -280.0348
  12   2.0000     -10.284451      -279.8541
  13   2.0000     -10.282702      -279.8065
  14   2.0000     -10.281949      -279.7861
  15   2.0000     -10.280802      -279.7548
  16   2.0000      -8.082595      -219.9386
  17   2.0000      -8.081257      -219.9022
  18   2.0000      -6.041054      -164.3854
  19   2.0000      -6.039621      -164.3464
  20   2.0000      -6.037372      -164.2852
  21   2.0000      -6.035589      -164.2367
  22   2.0000      -6.033289      -164.1741
  23   2.0000      -6.032278      -164.1466
  24   2.0000      -1.005710       -27.3668
  25   2.0000      -0.983483       -26.7619
  26   2.0000      -0.918314       -24.9886
  27   2.0000      -0.908602       -24.7243
  28   2.0000      -0.866905       -23.5897
  29   2.0000      -0.845094       -22.9962
  30   2.0000      -0.842025       -22.9127
  31   2.0000      -0.810532       -22.0557
  32   2.0000      -0.785933       -21.3863
  33   2.0000      -0.773236       -21.0408
  34   2.0000      -0.705511       -19.1979
  35   2.0000      -0.694161       -18.8891
  36   2.0000      -0.687995       -18.7213
  37   2.0000      -0.660206       -17.9651
  38   2.0000      -0.642476       -17.4827
  39   2.0000      -0.614969       -16.7342
  40   2.0000      -0.600651       -16.3446
  41   2.0000      -0.577736       -15.7210
  42   2.0000      -0.554961       -15.1013
  43   2.0000      -0.550031       -14.9671
  44   2.0000      -0.545956       -14.8562
  45   2.0000      -0.533612       -14.5203
  46   2.0000      -0.507836       -13.8189
  47   2.0000      -0.504345       -13.7239
  48   2.0000      -0.497362       -13.5339
  49   2.0000      -0.495955       -13.4956
  50   2.0000      -0.486749       -13.2451
  51   2.0000      -0.475446       -12.9376
  52   2.0000      -0.472228       -12.8500
  53   2.0000      -0.468054       -12.7364
  54   2.0000      -0.461515       -12.5584
  55   2.0000      -0.450526       -12.2594
  56   2.0000      -0.444931       -12.1072
  57   2.0000      -0.432567       -11.7707
  58   2.0000      -0.431572       -11.7437
  59   2.0000      -0.418155       -11.3786
  60   2.0000      -0.412583       -11.2270
  61   2.0000      -0.410819       -11.1789
  62   2.0000      -0.407555       -11.0901
  63   2.0000      -0.338195        -9.2028
  64   2.0000      -0.335822        -9.1382
  65   2.0000      -0.330455        -8.9921
  66   2.0000      -0.297446        -8.0939
  67   0.0000       0.035038         0.9534
  68   0.0000       0.063401         1.7252
  69   0.0000       0.110612         3.0099
  70   0.0000       0.121108         3.2955
  71   0.0000       0.130992         3.5645

MULLIKEN ATOMIC CHARGES
-----------------------
   0 S :    0.119338
   1 C :   -0.110043
   2 C :   -0.109657
   3 C :    0.051929
   4 C :   -0.170598
   5 H :    0.005112
   6 C :    0.078232
   7 H :    0.046808
   8 H :    0.015524
   9 C :   -0.090899
  10 H :    0.027304
  11 H :    0.028611
  12 C :   -0.061391
  13 H :    0.042338
  14 H :    0.043223
  15 H :    0.031775
  16 S :    0.109561
  17 C :   -0.090915
  18 C :   -0.010121
  19 C :   -0.009867
  20 C :   -0.178539
  21 H :    0.005004
  22 C :    0.069359
  23 H :    0.030941
  24 H :    0.001919
  25 C :   -0.073772
  26 H :    0.023418
  27 H :    0.034988
  28 C :   -0.080502
  29 H :    0.044207
  30 H :    0.030449
  31 H :    0.051826
  32 H :    0.024911
  33 H :    0.069527
Sum of atomic charges:   -0.0000000

LOEWDIN ATOMIC CHARGES
----------------------
   0 S :    0.427301
   1 C :   -0.187512
   2 C :   -0.062417
   3 C :   -0.067350
   4 C :   -0.216074
   5 H :    0.027825
   6 C :   -0.032089
   7 H :    0.037840
   8 H :    0.031460
   9 C :   -0.053441
  10 H :    0.025783
  11 H :    0.023945
  12 C :   -0.069603
  13 H :    0.031937
  14 H :    0.029348
  15 H :    0.026171
  16 S :    0.386200
  17 C :   -0.181677
  18 C :   -0.066778
  19 C :   -0.046165
  20 C :   -0.183967
  21 H :    0.028492
  22 C :   -0.045128
  23 H :    0.035846
  24 H :    0.026311
  25 C :   -0.039128
  26 H :    0.017918
  27 H :    0.030132
  28 C :   -0.075820
  29 H :    0.032727
  30 H :    0.027188
  31 H :    0.029959
  32 H :    0.015392
  33 H :    0.035372

  Mayer bond orders larger than 0.100000
B(  0-S ,  1-C ) :   1.1502 B(  0-S ,  4-C ) :   1.1762 B(  1-C ,  2-C ) :   1.5865
B(  1-C ,  4-C ) :   0.1034 B(  1-C , 32-H ) :   0.9757 B(  2-C ,  3-C ) :   1.2774
B(  2-C ,  6-C ) :   1.0133 B(  3-C ,  4-C ) :   1.5467 B(  3-C ,  5-H ) :   0.9982
B(  4-C , 20-C ) :   1.0112 B(  6-C ,  7-H ) :   0.9444 B(  6-C ,  8-H ) :   0.9396
B(  6-C ,  9-C ) :   1.0634 B(  9-C , 10-H ) :   0.9507 B(  9-C , 11-H ) :   0.9549
B(  9-C , 12-C ) :   1.0902 B( 12-C , 13-H ) :   0.9709 B( 12-C , 14-H ) :   0.9724
B( 12-C , 15-H ) :   0.9712 B( 16-S , 17-C ) :   1.1458 B( 16-S , 20-C ) :   1.1352
B( 17-C , 18-C ) :   1.6115 B( 17-C , 33-H ) :   0.9610 B( 18-C , 19-C ) :   1.2304
B( 18-C , 21-H ) :   0.9938 B( 19-C , 20-C ) :   1.6076 B( 19-C , 22-C ) :   1.0597
B( 22-C , 23-H ) :   0.9263 B( 22-C , 24-H ) :   0.9227 B( 22-C , 25-C ) :   1.0692
B( 25-C , 26-H ) :   0.9605 B( 25-C , 27-H ) :   0.9563 B( 25-C , 28-C ) :   1.0571
B( 28-C , 29-H ) :   0.9735 B( 28-C , 30-H ) :   0.9749 B( 28-C , 31-H ) :   0.9751

Dispersion correction           -0.015462861
FINAL SINGLE POINT ENERGY     -1339.886883191722

DIPOLE MOMENT
-------------
                                X             Y             Z
Electronic contribution:    -13.71662      -9.24565       8.88148
Nuclear contribution   :     14.05743       9.43220      -9.28208
                        -----------------------------------------
Total Dipole Moment    :      0.34082       0.18655      -0.40060
                        -----------------------------------------
Magnitude (a.u.)       :      0.55806
Magnitude (Debye)      :      1.41849

Rotational constants in cm-1:     0.021213     0.008321     0.007457
Rotational constants in MHz :   635.951161   249.456046   223.548328

                             ****ORCA TERMINATED NORMALLY****
TOTAL RUN TIME: 0 days 0 hours 0 minutes 22 seconds 132 msec
