                         Program Version 4.2.1 -  RELEASE  -
|  1> ! wB97X-D3 SP def2-SVP
|  2> %pal
|  3> nprocs 24
|  4> end
|  5>
|  6> * xyz 0 1
|  7> S 	 -42.9631 	 19.5132 	 22.4774
|  8> C 	 -43.344 	 18.5981 	 21.0645
|  9> C 	 -44.0162 	 17.4143 	 21.3508
| 10> C 	 -44.2073 	 17.2091 	 22.7925
| 11> C 	 -43.7873 	 18.3207 	 23.4553
| 12> H 	 -44.59 	 16.4209 	 23.4122
| 13> C 	 -44.3462 	 16.3745 	 20.352
| 14> H 	 -44.4487 	 16.937 	 19.4072
| 15> H 	 -45.3979 	 16.0472 	 20.5356
| 16> C 	 -43.4141 	 15.1729 	 20.1842
| 17> H 	 -43.2316 	 14.6853 	 21.1169
| 18> H 	 -44.0123 	 14.5455 	 19.5196
| 19> C 	 -41.9859 	 15.5387 	 19.6909
| 20> H 	 -41.3534 	 14.6252 	 19.6514
| 21> H 	 -42.0043 	 15.9626 	 18.6405
| 22> H 	 -41.5506 	 16.1754 	 20.4923
| 23> S 	 -45.2877 	 18.1188 	 25.8112
| 24> C 	 -44.5358 	 18.5161 	 27.2769
| 25> C 	 -43.201 	 18.9083 	 27.1652
| 26> C 	 -42.7374 	 18.7331 	 25.7667
| 27> C 	 -43.7946 	 18.3962 	 24.9142
| 28> H 	 -42.7355 	 19.0587 	 28.1162
| 29> C 	 -41.2524 	 18.9669 	 25.4372
| 30> H 	 -40.8909 	 19.9365 	 25.6835
| 31> H 	 -41.1489 	 18.888 	 24.3599
| 32> C 	 -40.2468 	 17.8281 	 26.0493
| 33> H 	 -40.4207 	 17.8972 	 27.133
| 34> H 	 -39.1513 	 17.9741 	 25.9487
| 35> C 	 -40.6223 	 16.4456 	 25.5372
| 36> H 	 -39.9245 	 15.7661 	 25.9394
| 37> H 	 -40.656 	 16.3651 	 24.4379
| 38> H 	 -41.5978 	 16.1749 	 26.0054
| 39> H 	 -42.9758 	 18.9546 	 20.0746
| 40> H 	 -45.2358 	 18.602 	 28.1263
| 41> *
| 42>
| 43>                          ****END OF INPUT****

CARTESIAN COORDINATES (ANGSTROEM)
---------------------------------
  S    -42.963100   19.513200   22.477400
  C    -43.344000   18.598100   21.064500
  C    -44.016200   17.414300   21.350800
  C    -44.207300   17.209100   22.792500
  C    -43.787300   18.320700   23.455300
  H    -44.590000   16.420900   23.412200
  C    -44.346200   16.374500   20.352000
  H    -44.448700   16.937000   19.407200
  H    -45.397900   16.047200   20.535600
  C    -43.414100   15.172900   20.184200
  H    -43.231600   14.685300   21.116900
  H    -44.012300   14.545500   19.519600
  C    -41.985900   15.538700   19.690900
  H    -41.353400   14.625200   19.651400
  H    -42.004300   15.962600   18.640500
  H    -41.550600   16.175400   20.492300
  S    -45.287700   18.118800   25.811200
  C    -44.535800   18.516100   27.276900
  C    -43.201000   18.908300   27.165200
  C    -42.737400   18.733100   25.766700
  C    -43.794600   18.396200   24.914200
  H    -42.735500   19.058700   28.116200
  C    -41.252400   18.966900   25.437200
  H    -40.890900   19.936500   25.683500
  H    -41.148900   18.888000   24.359900
  C    -40.246800   17.828100   26.049300
  H    -40.420700   17.897200   27.133000
  H    -39.151300   17.974100   25.948700
  C    -40.622300   16.445600   25.537200
  H    -39.924500   15.766100   25.939400
  H    -40.656000   16.365100   24.437900
  H    -41.597800   16.174900   26.005400
  H    -42.975800   18.954600   20.074600
  H    -45.235800   18.602000   28.126300

 Total Charge           Charge          ....    0
 Multiplicity           Mult            ....    1
 Number of Electrons    NEL             ....  134
 Basis Dimension        Dim             ....  322

ORBITAL ENERGIES
----------------

  NO   OCC          E(Eh)            E(eV)
   0   2.0000     -88.967396     -2420.9259
   1   2.0000     -88.965745     -2420.8810
   2   2.0000     -10.327001      -281.0120
   3   2.0000     -10.324115      -280.9334
   4   2.0000     -10.316844      -280.7356
   5   2.0000     -10.316586      -280.7286
   6   2.0000     -10.313590      -280.6471
   7   2.0000     -10.304319      -280.3948
   8   2.0000     -10.298587      -280.2388
   9   2.0000     -10.293550      -280.1017
  10   2.0000     -10.292101      -280.0623
  11   2.0000     -10.290720      -280.0247
  12   2.0000     -10.289017      -279.9784
  13   2.0000     -10.286468      -279.9090
  14   2.0000     -10.286429      -279.9080
  15   2.0000     -10.270607      -279.4774
  16   2.0000      -8.082344      -219.9318
  17   2.0000      -8.081509      -219.9091
  18   2.0000      -6.040805      -164.3787
  19   2.0000      -6.039854      -164.3528
  20   2.0000      -6.036899      -164.2724
  21   2.0000      -6.035853      -164.2439
  22   2.0000      -6.033058      -164.1678
  23   2.0000      -6.032426      -164.1507
  24   2.0000      -1.007153       -27.4060
  25   2.0000      -0.983886       -26.7729
  26   2.0000      -0.911840       -24.8124
  27   2.0000      -0.896785       -24.4028
  28   2.0000      -0.869643       -23.6642
  29   2.0000      -0.850736       -23.1497
  30   2.0000      -0.843156       -22.9434
  31   2.0000      -0.812012       -22.0960
  32   2.0000      -0.780925       -21.2501
  33   2.0000      -0.768924       -20.9235
  34   2.0000      -0.702176       -19.1072
  35   2.0000      -0.696599       -18.9554
  36   2.0000      -0.682801       -18.5800
  37   2.0000      -0.660828       -17.9820
  38   2.0000      -0.641345       -17.4519
  39   2.0000      -0.615079       -16.7372
  40   2.0000      -0.592987       -16.1360
  41   2.0000      -0.566831       -15.4243
  42   2.0000      -0.550324       -14.9751
  43   2.0000      -0.544880       -14.8269
  44   2.0000      -0.538395       -14.6505
  45   2.0000      -0.536689       -14.6041
  46   2.0000      -0.517540       -14.0830
  47   2.0000      -0.514076       -13.9887
  48   2.0000      -0.496523       -13.5111
  49   2.0000      -0.492660       -13.4060
  50   2.0000      -0.490098       -13.3362
  51   2.0000      -0.470869       -12.8130
  52   2.0000      -0.467793       -12.7293
  53   2.0000      -0.460861       -12.5407
  54   2.0000      -0.456428       -12.4200
  55   2.0000      -0.448184       -12.1957
  56   2.0000      -0.443063       -12.0564
  57   2.0000      -0.438069       -11.9205
  58   2.0000      -0.433884       -11.8066
  59   2.0000      -0.423350       -11.5199
  60   2.0000      -0.419488       -11.4148
  61   2.0000      -0.414465       -11.2782
  62   2.0000      -0.406814       -11.0700
  63   2.0000      -0.351612        -9.5679
  64   2.0000      -0.329789        -8.9740
  65   2.0000      -0.326741        -8.8911
  66   2.0000      -0.292093        -7.9483
  67   0.0000       0.033867         0.9216
  68   0.0000       0.074193         2.0189
  69   0.0000       0.103517         2.8169
  70   0.0000       0.113143         3.0788
  71   0.0000       0.131152         3.5688

MULLIKEN ATOMIC CHARGES
-----------------------
   0 S :    0.118010
   1 C :   -0.140009
   2 C :   -0.082344
   3 C :    0.008865
   4 C :   -0.130238
   5 H :    0.017980
   6 C :    0.045700
   7 H :    0.014477
   8 H :    0.032072
   9 C :   -0.036396
  10 H :    0.024043
  11 H :    0.033453
  12 C :   -0.092217
  13 H :    0.039433
  14 H :    0.043042
  15 H :    0.054507
  16 S :    0.111061
  17 C :   -0.127139
  18 C :   -0.016813
  19 C :   -0.065933
  20 C :   -0.164860
  21 H :    0.025883
  22 C :    0.087805
  23 H :    0.030803
  24 H :    0.013936
  25 C :   -0.112785
  26 H :    0.026797
  27 H :    0.038709
  28 C :   -0.041982
  29 H :    0.020526
  30 H :    0.042437
  31 H :    0.044057
  32 H :    0.064725
  33 H :    0.072396
Sum of atomic charges:   -0.0000000

LOEWDIN ATOMIC CHARGES
----------------------
   0 S :    0.423347
   1 C :   -0.210514
   2 C :   -0.062435
   3 C :   -0.059969
   4 C :   -0.187413
   5 H :    0.032725
   6 C :   -0.045112
   7 H :    0.030905
   8 H :    0.035497
   9 C :   -0.036741
  10 H :    0.021281
  11 H :    0.026167
  12 C :   -0.074023
  13 H :    0.028441
  14 H :    0.029211
  15 H :    0.033128
  16 S :    0.420787
  17 C :   -0.202768
  18 C :   -0.072864
  19 C :   -0.051420
  20 C :   -0.199863
  21 H :    0.031798
  22 C :   -0.030700
  23 H :    0.025519
  24 H :    0.012863
  25 C :   -0.040937
  26 H :    0.020142
  27 H :    0.025458
  28 C :   -0.066680
  29 H :    0.018609
  30 H :    0.027673
  31 H :    0.032727
  32 H :    0.034792
  33 H :    0.030369

  Mayer bond orders larger than 0.100000
B(  0-S ,  1-C ) :   1.1329 B(  0-S ,  4-C ) :   1.1462 B(  1-C ,  2-C ) :   1.6206
B(  1-C , 32-H ) :   0.9643 B(  2-C ,  3-C ) :   1.1795 B(  2-C ,  6-C ) :   1.0431
B(  3-C ,  4-C ) :   1.6042 B(  3-C ,  5-H ) :   0.9961 B(  4-C , 20-C ) :   1.0322
B(  6-C ,  7-H ) :   0.9352 B(  6-C ,  8-H ) :   0.9342 B(  6-C ,  9-C ) :   1.0618
B(  9-C , 10-H ) :   0.9574 B(  9-C , 11-H ) :   0.9557 B(  9-C , 12-C ) :   1.0709
B( 12-C , 13-H ) :   0.9750 B( 12-C , 14-H ) :   0.9754 B( 12-C , 15-H ) :   0.9722
B( 16-S , 17-C ) :   1.1759 B( 16-S , 20-C ) :   1.1442 B( 17-C , 18-C ) :   1.6126
B( 17-C , 33-H ) :   0.9608 B( 18-C , 19-C ) :   1.1944 B( 18-C , 21-H ) :   0.9936
B( 19-C , 20-C ) :   1.5988 B( 19-C , 22-C ) :   1.0393 B( 22-C , 23-H ) :   0.9465
B( 22-C , 24-H ) :   0.9327 B( 22-C , 25-C ) :   1.0443 B( 25-C , 26-H ) :   0.9607
B( 25-C , 27-H ) :   0.9645 B( 25-C , 28-C ) :   1.0753 B( 28-C , 29-H ) :   0.9717
B( 28-C , 30-H ) :   0.9774 B( 28-C , 31-H ) :   0.9720

Dispersion correction           -0.015381101
FINAL SINGLE POINT ENERGY     -1339.876525763485

DIPOLE MOMENT
-------------
                                X             Y             Z
Electronic contribution:    -15.29677      15.26245       8.28809
Nuclear contribution   :     15.53596     -15.58553      -8.28727
                        -----------------------------------------
Total Dipole Moment    :      0.23918      -0.32308       0.00082
                        -----------------------------------------
Magnitude (a.u.)       :      0.40198
Magnitude (Debye)      :      1.02175

Rotational constants in cm-1:     0.020342     0.008713     0.007691
Rotational constants in MHz :   609.830228   261.205642   230.563321

                             ****ORCA TERMINATED NORMALLY****
TOTAL RUN TIME: 0 days 0 hours 0 minutes 22 seconds 70 msec
