                         Program Version 4.2.1 -  RELEASE  -
|  1> ! wB97X-D3 SP def2-SVP
|  2> %pal
|  3> nprocs 24
|  4> end
|  5>
|  6> * xyz 0 1
|  7> S 	 -38.9161 	 8.55393 	 30.3697
|  8> C 	 -39.3518 	 8.4585 	 32.0673
|  9> C 	 -38.8799 	 7.26926 	 32.6577
| 10> C 	 -38.3398 	 6.38256 	 31.6914
| 11> C 	 -38.3604 	 6.83812 	 30.3862
| 12> H 	 -37.9294 	 5.44165 	 31.9578
| 13> C 	 -38.9426 	 7.03284 	 34.206
| 14> H 	 -38.633 	 7.98201 	 34.6031
| 15> H 	 -38.0992 	 6.47247 	 34.5655
| 16> C 	 -40.3039 	 6.53499 	 34.6513
| 17> H 	 -40.9324 	 7.31026 	 34.4221
| 18> H 	 -40.6801 	 5.81838 	 33.9001
| 19> C 	 -40.3918 	 6.15983 	 36.1272
| 20> H 	 -39.9814 	 6.91194 	 36.7624
| 21> H 	 -41.3663 	 6.00664 	 36.5595
| 22> H 	 -39.7663 	 5.31776 	 36.313
| 23> S 	 -37.0216 	 6.95353 	 27.9
| 24> C 	 -37.0202 	 5.55772 	 26.8475
| 25> C 	 -37.7115 	 4.53818 	 27.4674
| 26> C 	 -38.2816 	 4.8271 	 28.7295
| 27> C 	 -37.9537 	 6.101 	 29.1616
| 28> H 	 -37.87 	 3.51758 	 27.0546
| 29> C 	 -38.9094 	 3.78735 	 29.634
| 30> H 	 -38.4991 	 3.90921 	 30.6171
| 31> H 	 -38.6216 	 2.79788 	 29.3028
| 32> C 	 -40.3905 	 3.97161 	 29.6269
| 33> H 	 -40.7368 	 5.02532 	 29.731
| 34> H 	 -40.8045 	 3.2947 	 30.3944
| 35> C 	 -40.898 	 3.46367 	 28.2711
| 36> H 	 -41.9938 	 3.70071 	 28.2458
| 37> H 	 -40.7149 	 2.43588 	 28.1513
| 38> H 	 -40.4357 	 4.0515 	 27.4093
| 39> H 	 -39.5868 	 9.36491 	 32.6598
| 40> H 	 -36.5376 	 5.3502 	 25.8948
| 41> *
| 42>
| 43>                          ****END OF INPUT****

CARTESIAN COORDINATES (ANGSTROEM)
---------------------------------
  S    -38.916100    8.553930   30.369700
  C    -39.351800    8.458500   32.067300
  C    -38.879900    7.269260   32.657700
  C    -38.339800    6.382560   31.691400
  C    -38.360400    6.838120   30.386200
  H    -37.929400    5.441650   31.957800
  C    -38.942600    7.032840   34.206000
  H    -38.633000    7.982010   34.603100
  H    -38.099200    6.472470   34.565500
  C    -40.303900    6.534990   34.651300
  H    -40.932400    7.310260   34.422100
  H    -40.680100    5.818380   33.900100
  C    -40.391800    6.159830   36.127200
  H    -39.981400    6.911940   36.762400
  H    -41.366300    6.006640   36.559500
  H    -39.766300    5.317760   36.313000
  S    -37.021600    6.953530   27.900000
  C    -37.020200    5.557720   26.847500
  C    -37.711500    4.538180   27.467400
  C    -38.281600    4.827100   28.729500
  C    -37.953700    6.101000   29.161600
  H    -37.870000    3.517580   27.054600
  C    -38.909400    3.787350   29.634000
  H    -38.499100    3.909210   30.617100
  H    -38.621600    2.797880   29.302800
  C    -40.390500    3.971610   29.626900
  H    -40.736800    5.025320   29.731000
  H    -40.804500    3.294700   30.394400
  C    -40.898000    3.463670   28.271100
  H    -41.993800    3.700710   28.245800
  H    -40.714900    2.435880   28.151300
  H    -40.435700    4.051500   27.409300
  H    -39.586800    9.364910   32.659800
  H    -36.537600    5.350200   25.894800

 Total Charge           Charge          ....    0
 Multiplicity           Mult            ....    1
 Number of Electrons    NEL             ....  134
 Basis Dimension        Dim             ....  322

ORBITAL ENERGIES
----------------

  NO   OCC          E(Eh)            E(eV)
   0   2.0000     -88.969494     -2420.9830
   1   2.0000     -88.968714     -2420.9618
   2   2.0000     -10.338455      -281.3237
   3   2.0000     -10.331678      -281.1392
   4   2.0000     -10.319945      -280.8200
   5   2.0000     -10.319317      -280.8029
   6   2.0000     -10.307159      -280.4720
   7   2.0000     -10.299248      -280.2568
   8   2.0000     -10.294819      -280.1363
   9   2.0000     -10.294022      -280.1146
  10   2.0000     -10.292517      -280.0736
  11   2.0000     -10.285550      -279.8840
  12   2.0000     -10.282809      -279.8095
  13   2.0000     -10.281068      -279.7621
  14   2.0000     -10.274741      -279.5899
  15   2.0000     -10.274246      -279.5765
  16   2.0000      -8.083102      -219.9524
  17   2.0000      -8.082575      -219.9381
  18   2.0000      -6.041700      -164.4030
  19   2.0000      -6.041256      -164.3909
  20   2.0000      -6.037831      -164.2977
  21   2.0000      -6.037096      -164.2777
  22   2.0000      -6.033775      -164.1874
  23   2.0000      -6.033317      -164.1749
  24   2.0000      -1.002387       -27.2763
  25   2.0000      -0.981374       -26.7045
  26   2.0000      -0.918941       -25.0056
  27   2.0000      -0.912659       -24.8347
  28   2.0000      -0.865588       -23.5538
  29   2.0000      -0.850339       -23.1389
  30   2.0000      -0.842521       -22.9262
  31   2.0000      -0.815351       -22.1868
  32   2.0000      -0.783822       -21.3289
  33   2.0000      -0.771807       -21.0019
  34   2.0000      -0.715810       -19.4782
  35   2.0000      -0.705368       -19.1940
  36   2.0000      -0.684715       -18.6320
  37   2.0000      -0.661676       -18.0051
  38   2.0000      -0.640763       -17.4361
  39   2.0000      -0.622645       -16.9430
  40   2.0000      -0.600114       -16.3299
  41   2.0000      -0.568856       -15.4793
  42   2.0000      -0.555504       -15.1160
  43   2.0000      -0.552183       -15.0257
  44   2.0000      -0.546195       -14.8627
  45   2.0000      -0.526196       -14.3185
  46   2.0000      -0.520887       -14.1741
  47   2.0000      -0.509429       -13.8623
  48   2.0000      -0.504538       -13.7292
  49   2.0000      -0.499265       -13.5857
  50   2.0000      -0.489952       -13.3323
  51   2.0000      -0.476731       -12.9725
  52   2.0000      -0.472104       -12.8466
  53   2.0000      -0.463953       -12.6248
  54   2.0000      -0.460506       -12.5310
  55   2.0000      -0.451586       -12.2883
  56   2.0000      -0.442819       -12.0497
  57   2.0000      -0.441986       -12.0270
  58   2.0000      -0.430690       -11.7197
  59   2.0000      -0.425240       -11.5714
  60   2.0000      -0.417044       -11.3484
  61   2.0000      -0.413638       -11.2557
  62   2.0000      -0.411271       -11.1912
  63   2.0000      -0.349938        -9.5223
  64   2.0000      -0.334762        -9.1093
  65   2.0000      -0.332130        -9.0377
  66   2.0000      -0.289235        -7.8705
  67   0.0000       0.021146         0.5754
  68   0.0000       0.066436         1.8078
  69   0.0000       0.104084         2.8323
  70   0.0000       0.126097         3.4313
  71   0.0000       0.128893         3.5074

MULLIKEN ATOMIC CHARGES
-----------------------
   0 S :    0.107093
   1 C :   -0.129893
   2 C :   -0.133630
   3 C :    0.034550
   4 C :   -0.127186
   5 H :    0.002506
   6 C :    0.073825
   7 H :    0.010835
   8 H :    0.008844
   9 C :   -0.017369
  10 H :   -0.006014
  11 H :    0.029855
  12 C :    0.002553
  13 H :    0.012969
  14 H :    0.033763
  15 H :    0.021845
  16 S :    0.105249
  17 C :   -0.077797
  18 C :   -0.046420
  19 C :   -0.074880
  20 C :   -0.162760
  21 H :    0.024797
  22 C :    0.109303
  23 H :    0.012668
  24 H :    0.010925
  25 C :   -0.072002
  26 H :    0.058483
  27 H :    0.029534
  28 C :   -0.082129
  29 H :    0.039093
  30 H :    0.020668
  31 H :    0.050428
  32 H :    0.068807
  33 H :    0.061488
Sum of atomic charges:    0.0000000

LOEWDIN ATOMIC CHARGES
----------------------
   0 S :    0.386382
   1 C :   -0.206049
   2 C :   -0.056623
   3 C :   -0.061161
   4 C :   -0.174443
   5 H :    0.025477
   6 C :   -0.025760
   7 H :    0.026657
   8 H :    0.023714
   9 C :   -0.040014
  10 H :    0.014159
  11 H :    0.031793
  12 C :   -0.060306
  13 H :    0.024423
  14 H :    0.027704
  15 H :    0.022909
  16 S :    0.395882
  17 C :   -0.193337
  18 C :   -0.079472
  19 C :   -0.056342
  20 C :   -0.186138
  21 H :    0.033526
  22 C :   -0.025037
  23 H :    0.023046
  24 H :    0.027293
  25 C :   -0.039948
  26 H :    0.035150
  27 H :    0.024915
  28 C :   -0.068528
  29 H :    0.029661
  30 H :    0.012179
  31 H :    0.033784
  32 H :    0.034796
  33 H :    0.039708

  Mayer bond orders larger than 0.100000
B(  0-S ,  1-C ) :   1.1464 B(  0-S ,  4-C ) :   1.1381 B(  1-C ,  2-C ) :   1.5983
B(  1-C ,  4-C ) :   0.1062 B(  1-C , 32-H ) :   0.9572 B(  2-C ,  3-C ) :   1.2721
B(  2-C ,  6-C ) :   1.0072 B(  3-C ,  4-C ) :   1.5519 B(  3-C ,  5-H ) :   0.9992
B(  4-C , 20-C ) :   1.0442 B(  6-C ,  7-H ) :   0.9355 B(  6-C ,  8-H ) :   0.9486
B(  6-C ,  9-C ) :   1.0455 B(  9-C , 10-H ) :   0.9467 B(  9-C , 11-H ) :   0.9564
B(  9-C , 12-C ) :   1.0729 B( 12-C , 13-H ) :   0.9690 B( 12-C , 14-H ) :   0.9746
B( 12-C , 15-H ) :   0.9756 B( 16-S , 17-C ) :   1.1481 B( 16-S , 20-C ) :   1.1340
B( 17-C , 18-C ) :   1.5938 B( 17-C , 20-C ) :   0.1016 B( 17-C , 33-H ) :   0.9655
B( 18-C , 19-C ) :   1.2761 B( 18-C , 21-H ) :   0.9727 B( 19-C , 20-C ) :   1.5916
B( 19-C , 22-C ) :   1.0183 B( 22-C , 23-H ) :   0.9412 B( 22-C , 24-H ) :   0.9365
B( 22-C , 25-C ) :   1.0621 B( 25-C , 26-H ) :   0.9581 B( 25-C , 27-H ) :   0.9512
B( 25-C , 28-C ) :   1.0749 B( 28-C , 29-H ) :   0.9734 B( 28-C , 30-H ) :   0.9760
B( 28-C , 31-H ) :   0.9711

Dispersion correction           -0.014602262
FINAL SINGLE POINT ENERGY     -1339.870133005460

DIPOLE MOMENT
-------------
                                X             Y             Z
Electronic contribution:     14.39160      16.24030     -18.81308
Nuclear contribution   :    -14.45613     -16.74363      19.32117
                        -----------------------------------------
Total Dipole Moment    :     -0.06452      -0.50334       0.50809
                        -----------------------------------------
Magnitude (a.u.)       :      0.71810
Magnitude (Debye)      :      1.82526

Rotational constants in cm-1:     0.021078     0.008171     0.006538
Rotational constants in MHz :   631.913092   244.950959   195.998425

                             ****ORCA TERMINATED NORMALLY****
TOTAL RUN TIME: 0 days 0 hours 0 minutes 20 seconds 940 msec
