                         Program Version 4.2.1 -  RELEASE  -
|  1> ! wB97X-D3 SP def2-SVP
|  2> %pal
|  3> nprocs 24
|  4> end
|  5>
|  6> * xyz 0 1
|  7> S 	 -47.6363 	 14.8973 	 26.336
|  8> C 	 -47.8784 	 13.1614 	 26.2801
|  9> C 	 -46.695 	 12.5118 	 26.0143
| 10> C 	 -45.5884 	 13.3791 	 25.9883
| 11> C 	 -45.8978 	 14.7015 	 26.2563
| 12> H 	 -44.586 	 13.1505 	 25.7125
| 13> C 	 -46.4828 	 11.0601 	 25.5251
| 14> H 	 -46.947 	 10.4037 	 26.3158
| 15> H 	 -45.4117 	 10.7712 	 25.4822
| 16> C 	 -47.1486 	 10.8174 	 24.1311
| 17> H 	 -48.2509 	 11.0474 	 24.2691
| 18> H 	 -46.8583 	 11.5437 	 23.4066
| 19> C 	 -47.2091 	 9.36659 	 23.5432
| 20> H 	 -46.2617 	 9.00651 	 23.2264
| 21> H 	 -47.728 	 8.6001 	 24.2321
| 22> H 	 -47.7588 	 9.38286 	 22.6312
| 23> S 	 -45.3938 	 17.2158 	 27.3001
| 24> C 	 -44.0474 	 18.1383 	 26.7031
| 25> C 	 -43.3945 	 17.5217 	 25.6964
| 26> C 	 -43.9121 	 16.1706 	 25.4406
| 27> C 	 -45.0199 	 15.8898 	 26.2062
| 28> H 	 -42.6317 	 17.9613 	 25.1447
| 29> C 	 -43.2181 	 15.2124 	 24.4388
| 30> H 	 -43.0977 	 14.2699 	 24.7907
| 31> H 	 -42.2501 	 15.6625 	 24.2084
| 32> C 	 -43.9746 	 15.1101 	 23.1063
| 33> H 	 -44.1768 	 16.0827 	 22.7061
| 34> H 	 -45.0087 	 14.7035 	 23.3432
| 35> C 	 -43.1131 	 14.2814 	 22.0715
| 36> H 	 -43.6228 	 13.722 	 21.3274
| 37> H 	 -42.5798 	 13.4827 	 22.6264
| 38> H 	 -42.3692 	 14.7689 	 21.5134
| 39> H 	 -48.897 	 12.6704 	 26.3116
| 40> H 	 -43.7343 	 19.0831 	 27.1006
| 41> *
| 42>
| 43>                          ****END OF INPUT****

CARTESIAN COORDINATES (ANGSTROEM)
---------------------------------
  S    -47.636300   14.897300   26.336000
  C    -47.878400   13.161400   26.280100
  C    -46.695000   12.511800   26.014300
  C    -45.588400   13.379100   25.988300
  C    -45.897800   14.701500   26.256300
  H    -44.586000   13.150500   25.712500
  C    -46.482800   11.060100   25.525100
  H    -46.947000   10.403700   26.315800
  H    -45.411700   10.771200   25.482200
  C    -47.148600   10.817400   24.131100
  H    -48.250900   11.047400   24.269100
  H    -46.858300   11.543700   23.406600
  C    -47.209100    9.366590   23.543200
  H    -46.261700    9.006510   23.226400
  H    -47.728000    8.600100   24.232100
  H    -47.758800    9.382860   22.631200
  S    -45.393800   17.215800   27.300100
  C    -44.047400   18.138300   26.703100
  C    -43.394500   17.521700   25.696400
  C    -43.912100   16.170600   25.440600
  C    -45.019900   15.889800   26.206200
  H    -42.631700   17.961300   25.144700
  C    -43.218100   15.212400   24.438800
  H    -43.097700   14.269900   24.790700
  H    -42.250100   15.662500   24.208400
  C    -43.974600   15.110100   23.106300
  H    -44.176800   16.082700   22.706100
  H    -45.008700   14.703500   23.343200
  C    -43.113100   14.281400   22.071500
  H    -43.622800   13.722000   21.327400
  H    -42.579800   13.482700   22.626400
  H    -42.369200   14.768900   21.513400
  H    -48.897000   12.670400   26.311600
  H    -43.734300   19.083100   27.100600

 Total Charge           Charge          ....    0
 Multiplicity           Mult            ....    1
 Number of Electrons    NEL             ....  134
 Basis Dimension        Dim             ....  322

ORBITAL ENERGIES
----------------

  NO   OCC          E(Eh)            E(eV)
   0   2.0000     -88.968177     -2420.9472
   1   2.0000     -88.964338     -2420.8427
   2   2.0000     -10.330958      -281.1196
   3   2.0000     -10.328418      -281.0505
   4   2.0000     -10.318971      -280.7935
   5   2.0000     -10.314256      -280.6652
   6   2.0000     -10.306921      -280.4656
   7   2.0000     -10.303266      -280.3661
   8   2.0000     -10.301778      -280.3256
   9   2.0000     -10.293353      -280.0964
  10   2.0000     -10.291679      -280.0508
  11   2.0000     -10.291393      -280.0430
  12   2.0000     -10.289717      -279.9974
  13   2.0000     -10.289355      -279.9876
  14   2.0000     -10.283097      -279.8173
  15   2.0000     -10.276682      -279.6427
  16   2.0000      -8.082707      -219.9416
  17   2.0000      -8.079428      -219.8524
  18   2.0000      -6.041227      -164.3901
  19   2.0000      -6.038073      -164.3043
  20   2.0000      -6.037311      -164.2836
  21   2.0000      -6.033891      -164.1905
  22   2.0000      -6.033394      -164.1770
  23   2.0000      -6.030013      -164.0850
  24   2.0000      -1.007917       -27.4268
  25   2.0000      -0.986350       -26.8399
  26   2.0000      -0.908428       -24.7196
  27   2.0000      -0.902167       -24.5492
  28   2.0000      -0.867496       -23.6058
  29   2.0000      -0.850467       -23.1424
  30   2.0000      -0.843027       -22.9399
  31   2.0000      -0.815733       -22.1972
  32   2.0000      -0.785583       -21.3768
  33   2.0000      -0.774696       -21.0806
  34   2.0000      -0.709337       -19.3020
  35   2.0000      -0.701352       -19.0848
  36   2.0000      -0.692935       -18.8557
  37   2.0000      -0.669460       -18.2169
  38   2.0000      -0.639941       -17.4137
  39   2.0000      -0.621293       -16.9062
  40   2.0000      -0.601729       -16.3739
  41   2.0000      -0.567845       -15.4519
  42   2.0000      -0.564156       -15.3515
  43   2.0000      -0.551924       -15.0186
  44   2.0000      -0.523398       -14.2424
  45   2.0000      -0.519438       -14.1346
  46   2.0000      -0.514816       -14.0089
  47   2.0000      -0.511446       -13.9172
  48   2.0000      -0.501984       -13.6597
  49   2.0000      -0.497030       -13.5249
  50   2.0000      -0.491264       -13.3680
  51   2.0000      -0.487400       -13.2628
  52   2.0000      -0.479875       -13.0581
  53   2.0000      -0.464185       -12.6311
  54   2.0000      -0.461881       -12.5684
  55   2.0000      -0.454230       -12.3602
  56   2.0000      -0.442218       -12.0334
  57   2.0000      -0.439041       -11.9469
  58   2.0000      -0.436014       -11.8645
  59   2.0000      -0.424780       -11.5589
  60   2.0000      -0.420469       -11.4416
  61   2.0000      -0.420053       -11.4302
  62   2.0000      -0.411158       -11.1882
  63   2.0000      -0.354717        -9.6523
  64   2.0000      -0.333701        -9.0805
  65   2.0000      -0.330231        -8.9861
  66   2.0000      -0.290413        -7.9025
  67   0.0000       0.027314         0.7433
  68   0.0000       0.076255         2.0750
  69   0.0000       0.104248         2.8367
  70   0.0000       0.118900         3.2354
  71   0.0000       0.135779         3.6947

MULLIKEN ATOMIC CHARGES
-----------------------
   0 S :    0.108803
   1 C :   -0.157036
   2 C :   -0.057127
   3 C :    0.008489
   4 C :   -0.113706
   5 H :   -0.014110
   6 C :    0.057931
   7 H :    0.037754
   8 H :    0.031803
   9 C :   -0.102114
  10 H :    0.026271
  11 H :    0.030875
  12 C :   -0.035155
  13 H :    0.021496
  14 H :    0.046055
  15 H :    0.025653
  16 S :    0.101741
  17 C :   -0.065321
  18 C :    0.000244
  19 C :   -0.068150
  20 C :   -0.148076
  21 H :   -0.006836
  22 C :    0.096030
  23 H :    0.004498
  24 H :    0.015882
  25 C :   -0.079153
  26 H :    0.023357
  27 H :    0.049737
  28 C :   -0.021662
  29 H :    0.020100
  30 H :    0.014360
  31 H :    0.024798
  32 H :    0.073416
  33 H :    0.049150
Sum of atomic charges:    0.0000000

LOEWDIN ATOMIC CHARGES
----------------------
   0 S :    0.408358
   1 C :   -0.207368
   2 C :   -0.065955
   3 C :   -0.067116
   4 C :   -0.186247
   5 H :    0.024555
   6 C :   -0.031622
   7 H :    0.036474
   8 H :    0.029066
   9 C :   -0.045477
  10 H :    0.028744
  11 H :    0.021400
  12 C :   -0.068191
  13 H :    0.015331
  14 H :    0.036296
  15 H :    0.024791
  16 S :    0.399032
  17 C :   -0.177874
  18 C :   -0.061460
  19 C :   -0.048186
  20 C :   -0.196976
  21 H :    0.021076
  22 C :   -0.018242
  23 H :    0.008885
  24 H :    0.031359
  25 C :   -0.034636
  26 H :    0.019555
  27 H :    0.033166
  28 C :   -0.067823
  29 H :    0.022438
  30 H :    0.026445
  31 H :    0.020159
  32 H :    0.042061
  33 H :    0.027981

  Mayer bond orders larger than 0.100000
B(  0-S ,  1-C ) :   1.1400 B(  0-S ,  4-C ) :   1.1661 B(  1-C ,  2-C ) :   1.5948
B(  1-C ,  4-C ) :   0.1023 B(  1-C , 32-H ) :   0.9612 B(  2-C ,  3-C ) :   1.2611
B(  2-C ,  6-C ) :   1.0161 B(  3-C ,  4-C ) :   1.5557 B(  3-C ,  5-H ) :   1.0082
B(  4-C , 20-C ) :   1.0326 B(  6-C ,  7-H ) :   0.9378 B(  6-C ,  8-H ) :   0.9504
B(  6-C ,  9-C ) :   1.0516 B(  9-C , 10-H ) :   0.9576 B(  9-C , 11-H ) :   0.9589
B(  9-C , 12-C ) :   1.0777 B( 12-C , 13-H ) :   0.9759 B( 12-C , 14-H ) :   0.9750
B( 12-C , 15-H ) :   0.9715 B( 16-S , 17-C ) :   1.1399 B( 16-S , 20-C ) :   1.1274
B( 17-C , 18-C ) :   1.6378 B( 17-C , 33-H ) :   0.9674 B( 18-C , 19-C ) :   1.2178
B( 18-C , 21-H ) :   0.9997 B( 19-C , 20-C ) :   1.6332 B( 19-C , 22-C ) :   1.0357
B( 22-C , 23-H ) :   0.9395 B( 22-C , 24-H ) :   0.9319 B( 22-C , 25-C ) :   1.0631
B( 25-C , 26-H ) :   0.9577 B( 25-C , 27-H ) :   0.9582 B( 25-C , 28-C ) :   1.0546
B( 28-C , 29-H ) :   0.9754 B( 28-C , 30-H ) :   0.9751 B( 28-C , 31-H ) :   0.9780

Dispersion correction           -0.014396339
FINAL SINGLE POINT ENERGY     -1339.872627958669

DIPOLE MOMENT
-------------
                                X             Y             Z
Electronic contribution:     -7.24504      23.38522      22.08453
Nuclear contribution   :      7.61665     -23.70288     -22.69435
                        -----------------------------------------
Total Dipole Moment    :      0.37160      -0.31766      -0.60982
                        -----------------------------------------
Magnitude (a.u.)       :      0.78159
Magnitude (Debye)      :      1.98665

Rotational constants in cm-1:     0.019442     0.008850     0.006488
Rotational constants in MHz :   582.865162   265.317484   194.511919

                             ****ORCA TERMINATED NORMALLY****
TOTAL RUN TIME: 0 days 0 hours 0 minutes 21 seconds 849 msec
