                         Program Version 4.2.1 -  RELEASE  -
|  1> ! wB97X-D3 SP def2-SVP
|  2> %pal
|  3> nprocs 24
|  4> end
|  5>
|  6> * xyz 0 1
|  7> S 	 -39.1697 	 -13.9298 	 12.6242
|  8> C 	 -40.3442 	 -13.4671 	 13.8436
|  9> C 	 -39.7304 	 -13.1435 	 15.0318
| 10> C 	 -38.3271 	 -13.0838 	 14.9433
| 11> C 	 -37.8169 	 -13.5263 	 13.7563
| 12> H 	 -37.605 	 -12.9478 	 15.7602
| 13> C 	 -40.3664 	 -12.954 	 16.39
| 14> H 	 -40.2033 	 -11.8893 	 16.6424
| 15> H 	 -39.8449 	 -13.5471 	 17.1324
| 16> C 	 -41.8955 	 -13.26 	 16.439
| 17> H 	 -42.4299 	 -12.706 	 15.6549
| 18> H 	 -42.0338 	 -14.294 	 16.1165
| 19> C 	 -42.5908 	 -12.9118 	 17.7599
| 20> H 	 -42.2442 	 -12.0059 	 18.1702
| 21> H 	 -43.6945 	 -12.8002 	 17.8127
| 22> H 	 -42.2524 	 -13.6608 	 18.4994
| 23> S 	 -35.9298 	 -15.3571 	 13.0673
| 24> C 	 -34.283 	 -14.8382 	 12.7018
| 25> C 	 -34.1935 	 -13.4602 	 12.9327
| 26> C 	 -35.3667 	 -12.8727 	 13.4085
| 27> C 	 -36.4244 	 -13.7452 	 13.4194
| 28> H 	 -33.3052 	 -12.8455 	 12.749
| 29> C 	 -35.4964 	 -11.426 	 13.4512
| 30> H 	 -36.5218 	 -11.2503 	 13.7428
| 31> H 	 -35.4549 	 -10.9616 	 12.5298
| 32> C 	 -34.5496 	 -10.7329 	 14.4907
| 33> H 	 -34.7096 	 -9.61933 	 14.4434
| 34> H 	 -33.5178 	 -11.0557 	 14.4034
| 35> C 	 -34.8463 	 -11.3072 	 15.9325
| 36> H 	 -34.8288 	 -12.3603 	 15.8254
| 37> H 	 -35.7765 	 -11.0328 	 16.3662
| 38> H 	 -33.9835 	 -11.018 	 16.6042
| 39> H 	 -41.4151 	 -13.6957 	 13.6975
| 40> H 	 -33.5117 	 -15.4009 	 12.1986
| 41> *
| 42>
| 43>                          ****END OF INPUT****

CARTESIAN COORDINATES (ANGSTROEM)
---------------------------------
  S    -39.169700  -13.929800   12.624200
  C    -40.344200  -13.467100   13.843600
  C    -39.730400  -13.143500   15.031800
  C    -38.327100  -13.083800   14.943300
  C    -37.816900  -13.526300   13.756300
  H    -37.605000  -12.947800   15.760200
  C    -40.366400  -12.954000   16.390000
  H    -40.203300  -11.889300   16.642400
  H    -39.844900  -13.547100   17.132400
  C    -41.895500  -13.260000   16.439000
  H    -42.429900  -12.706000   15.654900
  H    -42.033800  -14.294000   16.116500
  C    -42.590800  -12.911800   17.759900
  H    -42.244200  -12.005900   18.170200
  H    -43.694500  -12.800200   17.812700
  H    -42.252400  -13.660800   18.499400
  S    -35.929800  -15.357100   13.067300
  C    -34.283000  -14.838200   12.701800
  C    -34.193500  -13.460200   12.932700
  C    -35.366700  -12.872700   13.408500
  C    -36.424400  -13.745200   13.419400
  H    -33.305200  -12.845500   12.749000
  C    -35.496400  -11.426000   13.451200
  H    -36.521800  -11.250300   13.742800
  H    -35.454900  -10.961600   12.529800
  C    -34.549600  -10.732900   14.490700
  H    -34.709600   -9.619330   14.443400
  H    -33.517800  -11.055700   14.403400
  C    -34.846300  -11.307200   15.932500
  H    -34.828800  -12.360300   15.825400
  H    -35.776500  -11.032800   16.366200
  H    -33.983500  -11.018000   16.604200
  H    -41.415100  -13.695700   13.697500
  H    -33.511700  -15.400900   12.198600

 Total Charge           Charge          ....    0
 Multiplicity           Mult            ....    1
 Number of Electrons    NEL             ....  134
 Basis Dimension        Dim             ....  322

ORBITAL ENERGIES
----------------

  NO   OCC          E(Eh)            E(eV)
   0   2.0000     -88.967658     -2420.9331
   1   2.0000     -88.964989     -2420.8604
   2   2.0000     -10.331458      -281.1333
   3   2.0000     -10.322442      -280.8879
   4   2.0000     -10.320378      -280.8318
   5   2.0000     -10.317072      -280.7418
   6   2.0000     -10.301543      -280.3192
   7   2.0000     -10.297456      -280.2080
   8   2.0000     -10.293606      -280.1033
   9   2.0000     -10.293301      -280.0949
  10   2.0000     -10.293082      -280.0890
  11   2.0000     -10.291486      -280.0456
  12   2.0000     -10.290757      -280.0257
  13   2.0000     -10.279809      -279.7278
  14   2.0000     -10.277121      -279.6547
  15   2.0000     -10.274291      -279.5777
  16   2.0000      -8.082524      -219.9367
  17   2.0000      -8.078981      -219.8402
  18   2.0000      -6.041009      -164.3842
  19   2.0000      -6.037627      -164.2922
  20   2.0000      -6.036884      -164.2720
  21   2.0000      -6.033656      -164.1841
  22   2.0000      -6.033420      -164.1777
  23   2.0000      -6.029560      -164.0727
  24   2.0000      -1.011606       -27.5272
  25   2.0000      -0.987036       -26.8586
  26   2.0000      -0.912412       -24.8280
  27   2.0000      -0.908537       -24.7226
  28   2.0000      -0.870222       -23.6800
  29   2.0000      -0.852665       -23.2022
  30   2.0000      -0.847172       -23.0527
  31   2.0000      -0.815213       -22.1831
  32   2.0000      -0.781885       -21.2762
  33   2.0000      -0.770371       -20.9629
  34   2.0000      -0.716406       -19.4944
  35   2.0000      -0.701666       -19.0933
  36   2.0000      -0.695818       -18.9342
  37   2.0000      -0.662108       -18.0169
  38   2.0000      -0.643149       -17.5010
  39   2.0000      -0.613877       -16.7044
  40   2.0000      -0.602806       -16.4032
  41   2.0000      -0.570384       -15.5210
  42   2.0000      -0.562738       -15.3129
  43   2.0000      -0.552586       -15.0366
  44   2.0000      -0.541613       -14.7380
  45   2.0000      -0.526046       -14.3144
  46   2.0000      -0.520268       -14.1572
  47   2.0000      -0.516540       -14.0558
  48   2.0000      -0.502325       -13.6689
  49   2.0000      -0.500175       -13.6105
  50   2.0000      -0.487595       -13.2681
  51   2.0000      -0.484869       -13.1940
  52   2.0000      -0.473874       -12.8948
  53   2.0000      -0.464026       -12.6268
  54   2.0000      -0.458665       -12.4809
  55   2.0000      -0.447276       -12.1710
  56   2.0000      -0.445080       -12.1112
  57   2.0000      -0.434777       -11.8309
  58   2.0000      -0.428940       -11.6721
  59   2.0000      -0.427193       -11.6245
  60   2.0000      -0.421328       -11.4649
  61   2.0000      -0.417867       -11.3707
  62   2.0000      -0.415674       -11.3111
  63   2.0000      -0.345134        -9.3916
  64   2.0000      -0.333035        -9.0624
  65   2.0000      -0.329313        -8.9611
  66   2.0000      -0.297419        -8.0932
  67   0.0000       0.028541         0.7767
  68   0.0000       0.066000         1.7959
  69   0.0000       0.115973         3.1558
  70   0.0000       0.119274         3.2456
  71   0.0000       0.129640         3.5277

MULLIKEN ATOMIC CHARGES
-----------------------
   0 S :    0.098824
   1 C :   -0.142388
   2 C :   -0.078727
   3 C :    0.036587
   4 C :   -0.171359
   5 H :    0.022017
   6 C :    0.057362
   7 H :    0.039583
   8 H :    0.038037
   9 C :   -0.102379
  10 H :    0.029102
  11 H :    0.032362
  12 C :   -0.026055
  13 H :    0.010870
  14 H :    0.044889
  15 H :    0.027711
  16 S :    0.119913
  17 C :   -0.091988
  18 C :   -0.041055
  19 C :   -0.035939
  20 C :   -0.169344
  21 H :    0.025107
  22 C :    0.104509
  23 H :    0.008994
  24 H :    0.021842
  25 C :   -0.095182
  26 H :    0.048139
  27 H :    0.031554
  28 C :   -0.078347
  29 H :    0.037666
  30 H :    0.030014
  31 H :    0.041799
  32 H :    0.065305
  33 H :    0.060579
Sum of atomic charges:   -0.0000000

LOEWDIN ATOMIC CHARGES
----------------------
   0 S :    0.374942
   1 C :   -0.200869
   2 C :   -0.066601
   3 C :   -0.060659
   4 C :   -0.173447
   5 H :    0.038708
   6 C :   -0.026649
   7 H :    0.037549
   8 H :    0.031844
   9 C :   -0.046984
  10 H :    0.022908
  11 H :    0.023131
  12 C :   -0.069270
  13 H :    0.017641
  14 H :    0.033137
  15 H :    0.028557
  16 S :    0.421330
  17 C :   -0.186014
  18 C :   -0.064390
  19 C :   -0.070309
  20 C :   -0.206878
  21 H :    0.033418
  22 C :   -0.029072
  23 H :    0.030957
  24 H :    0.024135
  25 C :   -0.034042
  26 H :    0.030270
  27 H :    0.021357
  28 C :   -0.065006
  29 H :    0.018804
  30 H :    0.014024
  31 H :    0.032544
  32 H :    0.033843
  33 H :    0.031093

  Mayer bond orders larger than 0.100000
B(  0-S ,  1-C ) :   1.1235 B(  0-S ,  4-C ) :   1.1308 B(  1-C ,  2-C ) :   1.6352
B(  1-C , 32-H ) :   0.9573 B(  2-C ,  3-C ) :   1.2296 B(  2-C ,  6-C ) :   1.0069
B(  3-C ,  4-C ) :   1.6068 B(  3-C ,  5-H ) :   0.9880 B(  4-C , 20-C ) :   1.0250
B(  6-C ,  7-H ) :   0.9311 B(  6-C ,  8-H ) :   0.9464 B(  6-C ,  9-C ) :   1.0760
B(  9-C , 10-H ) :   0.9511 B(  9-C , 11-H ) :   0.9575 B(  9-C , 12-C ) :   1.0744
B( 12-C , 13-H ) :   0.9732 B( 12-C , 14-H ) :   0.9764 B( 12-C , 15-H ) :   0.9738
B( 16-S , 17-C ) :   1.1530 B( 16-S , 20-C ) :   1.1668 B( 17-C , 18-C ) :   1.5797
B( 17-C , 20-C ) :   0.1066 B( 17-C , 33-H ) :   0.9707 B( 18-C , 19-C ) :   1.2623
B( 18-C , 21-H ) :   0.9831 B( 19-C , 20-C ) :   1.5569 B( 19-C , 22-C ) :   1.0574
B( 22-C , 23-H ) :   0.9252 B( 22-C , 24-H ) :   0.9417 B( 22-C , 25-C ) :   1.0504
B( 25-C , 26-H ) :   0.9596 B( 25-C , 27-H ) :   0.9641 B( 25-C , 28-C ) :   1.0599
B( 28-C , 29-H ) :   0.9726 B( 28-C , 30-H ) :   0.9770 B( 28-C , 31-H ) :   0.9759

Dispersion correction           -0.014672709
FINAL SINGLE POINT ENERGY     -1339.877137746586

DIPOLE MOMENT
-------------
                                X             Y             Z
Electronic contribution:      6.07559     -15.32935     -20.74522
Nuclear contribution   :     -6.04216      15.64639      21.11402
                        -----------------------------------------
Total Dipole Moment    :      0.03344       0.31704       0.36880
                        -----------------------------------------
Magnitude (a.u.)       :      0.48749
Magnitude (Debye)      :      1.23910

Rotational constants in cm-1:     0.021769     0.007744     0.006401
Rotational constants in MHz :   652.614760   232.161759   191.887763

                             ****ORCA TERMINATED NORMALLY****
TOTAL RUN TIME: 0 days 0 hours 0 minutes 20 seconds 803 msec
