                         Program Version 4.2.1 -  RELEASE  -
|  1> ! wB97X-D3 SP def2-SVP
|  2> %pal
|  3> nprocs 24
|  4> end
|  5>
|  6> * xyz 0 1
|  7> S 	 -67.9607 	 10.3565 	 -72.5376
|  8> C 	 -68.6848 	 10.0008 	 -71.0169
|  9> C 	 -67.8417 	 10.3361 	 -69.9432
| 10> C 	 -66.6445 	 10.9468 	 -70.424
| 11> C 	 -66.5435 	 10.9181 	 -71.8061
| 12> H 	 -65.8142 	 11.3021 	 -69.8209
| 13> C 	 -67.9803 	 10.2148 	 -68.4699
| 14> H 	 -68.8011 	 10.8042 	 -68.0558
| 15> H 	 -67.1135 	 10.7014 	 -67.9891
| 16> C 	 -68.0174 	 8.68176 	 -68.0883
| 17> H 	 -67.111 	 8.22932 	 -68.4031
| 18> H 	 -68.0347 	 8.81246 	 -67.0229
| 19> C 	 -69.1909 	 7.86973 	 -68.6913
| 20> H 	 -70.1238 	 8.30638 	 -68.5526
| 21> H 	 -69.1978 	 7.79018 	 -69.7321
| 22> H 	 -69.145 	 6.85085 	 -68.2712
| 23> S 	 -65.7575 	 12.235 	 -74.0563
| 24> C 	 -64.0448 	 12.4575 	 -74.398
| 25> C 	 -63.2564 	 11.9356 	 -73.3819
| 26> C 	 -64.0514 	 11.3122 	 -72.404
| 27> C 	 -65.4053 	 11.4505 	 -72.5891
| 28> H 	 -62.1723 	 11.947 	 -73.455
| 29> C 	 -63.3531 	 10.3803 	 -71.366
| 30> H 	 -63.2479 	 10.8385 	 -70.3407
| 31> H 	 -62.3323 	 10.2698 	 -71.5747
| 32> C 	 -63.9001 	 8.96819 	 -71.4468
| 33> H 	 -63.6995 	 8.57559 	 -72.4293
| 34> H 	 -64.9872 	 8.85752 	 -71.2087
| 35> C 	 -63.2387 	 8.05382 	 -70.4567
| 36> H 	 -62.1796 	 8.16189 	 -70.4151
| 37> H 	 -63.4098 	 6.9809 	 -70.6516
| 38> H 	 -63.5627 	 8.34778 	 -69.4411
| 39> H 	 -69.6775 	 9.48836 	 -70.8777
| 40> H 	 -63.6021 	 12.7246 	 -75.2873
| 41> *
| 42>
| 43>                          ****END OF INPUT****

CARTESIAN COORDINATES (ANGSTROEM)
---------------------------------
  S    -67.960700   10.356500  -72.537600
  C    -68.684800   10.000800  -71.016900
  C    -67.841700   10.336100  -69.943200
  C    -66.644500   10.946800  -70.424000
  C    -66.543500   10.918100  -71.806100
  H    -65.814200   11.302100  -69.820900
  C    -67.980300   10.214800  -68.469900
  H    -68.801100   10.804200  -68.055800
  H    -67.113500   10.701400  -67.989100
  C    -68.017400    8.681760  -68.088300
  H    -67.111000    8.229320  -68.403100
  H    -68.034700    8.812460  -67.022900
  C    -69.190900    7.869730  -68.691300
  H    -70.123800    8.306380  -68.552600
  H    -69.197800    7.790180  -69.732100
  H    -69.145000    6.850850  -68.271200
  S    -65.757500   12.235000  -74.056300
  C    -64.044800   12.457500  -74.398000
  C    -63.256400   11.935600  -73.381900
  C    -64.051400   11.312200  -72.404000
  C    -65.405300   11.450500  -72.589100
  H    -62.172300   11.947000  -73.455000
  C    -63.353100   10.380300  -71.366000
  H    -63.247900   10.838500  -70.340700
  H    -62.332300   10.269800  -71.574700
  C    -63.900100    8.968190  -71.446800
  H    -63.699500    8.575590  -72.429300
  H    -64.987200    8.857520  -71.208700
  C    -63.238700    8.053820  -70.456700
  H    -62.179600    8.161890  -70.415100
  H    -63.409800    6.980900  -70.651600
  H    -63.562700    8.347780  -69.441100
  H    -69.677500    9.488360  -70.877700
  H    -63.602100   12.724600  -75.287300

 Total Charge           Charge          ....    0
 Multiplicity           Mult            ....    1
 Number of Electrons    NEL             ....  134
 Basis Dimension        Dim             ....  322

ORBITAL ENERGIES
----------------

  NO   OCC          E(Eh)            E(eV)
   0   2.0000     -88.969959     -2420.9957
   1   2.0000     -88.966811     -2420.9100
   2   2.0000     -10.324048      -280.9316
   3   2.0000     -10.322161      -280.8803
   4   2.0000     -10.316491      -280.7260
   5   2.0000     -10.310222      -280.5554
   6   2.0000     -10.299397      -280.2608
   7   2.0000     -10.298598      -280.2391
   8   2.0000     -10.293044      -280.0880
   9   2.0000     -10.292545      -280.0744
  10   2.0000     -10.290958      -280.0312
  11   2.0000     -10.288285      -279.9585
  12   2.0000     -10.287776      -279.9446
  13   2.0000     -10.277399      -279.6623
  14   2.0000     -10.271747      -279.5084
  15   2.0000     -10.270864      -279.4844
  16   2.0000      -8.085818      -220.0263
  17   2.0000      -8.082190      -219.9276
  18   2.0000      -6.044150      -164.4697
  19   2.0000      -6.040611      -164.3734
  20   2.0000      -6.040084      -164.3590
  21   2.0000      -6.036808      -164.2699
  22   2.0000      -6.036592      -164.2640
  23   2.0000      -6.033029      -164.1671
  24   2.0000      -1.015193       -27.6248
  25   2.0000      -0.991151       -26.9706
  26   2.0000      -0.914033       -24.8721
  27   2.0000      -0.910519       -24.7765
  28   2.0000      -0.867115       -23.5954
  29   2.0000      -0.854375       -23.2487
  30   2.0000      -0.848471       -23.0881
  31   2.0000      -0.810603       -22.0576
  32   2.0000      -0.789206       -21.4754
  33   2.0000      -0.773340       -21.0437
  34   2.0000      -0.709837       -19.3156
  35   2.0000      -0.702493       -19.1158
  36   2.0000      -0.687166       -18.6987
  37   2.0000      -0.667540       -18.1647
  38   2.0000      -0.640052       -17.4167
  39   2.0000      -0.619005       -16.8440
  40   2.0000      -0.596621       -16.2349
  41   2.0000      -0.576479       -15.6868
  42   2.0000      -0.566608       -15.4182
  43   2.0000      -0.543787       -14.7972
  44   2.0000      -0.535413       -14.5693
  45   2.0000      -0.527673       -14.3587
  46   2.0000      -0.523652       -14.2493
  47   2.0000      -0.511741       -13.9252
  48   2.0000      -0.502742       -13.6803
  49   2.0000      -0.495986       -13.4965
  50   2.0000      -0.492716       -13.4075
  51   2.0000      -0.488398       -13.2900
  52   2.0000      -0.471571       -12.8321
  53   2.0000      -0.467271       -12.7151
  54   2.0000      -0.459807       -12.5120
  55   2.0000      -0.456764       -12.4292
  56   2.0000      -0.443588       -12.0706
  57   2.0000      -0.441789       -12.0217
  58   2.0000      -0.432686       -11.7740
  59   2.0000      -0.427397       -11.6301
  60   2.0000      -0.419189       -11.4067
  61   2.0000      -0.409475       -11.1424
  62   2.0000      -0.406637       -11.0652
  63   2.0000      -0.349210        -9.5025
  64   2.0000      -0.334044        -9.0898
  65   2.0000      -0.329526        -8.9669
  66   2.0000      -0.286779        -7.8037
  67   0.0000       0.028734         0.7819
  68   0.0000       0.079353         2.1593
  69   0.0000       0.107437         2.9235
  70   0.0000       0.125380         3.4118
  71   0.0000       0.128186         3.4881

MULLIKEN ATOMIC CHARGES
-----------------------
   0 S :    0.131404
   1 C :   -0.156310
   2 C :   -0.081058
   3 C :    0.001771
   4 C :   -0.145051
   5 H :    0.013940
   6 C :    0.037726
   7 H :    0.039750
   8 H :    0.019912
   9 C :   -0.042453
  10 H :    0.025984
  11 H :    0.029373
  12 C :   -0.022319
  13 H :    0.009063
  14 H :    0.021071
  15 H :    0.043049
  16 S :    0.108703
  17 C :   -0.063667
  18 C :   -0.037950
  19 C :   -0.035911
  20 C :   -0.132158
  21 H :    0.023648
  22 C :    0.062566
  23 H :    0.033037
  24 H :   -0.009938
  25 C :   -0.076505
  26 H :    0.027195
  27 H :    0.059721
  28 C :   -0.038388
  29 H :    0.005185
  30 H :    0.038990
  31 H :    0.018989
  32 H :    0.066551
  33 H :    0.024078
Sum of atomic charges:   -0.0000000

LOEWDIN ATOMIC CHARGES
----------------------
   0 S :    0.448042
   1 C :   -0.228992
   2 C :   -0.060708
   3 C :   -0.066304
   4 C :   -0.212499
   5 H :    0.031609
   6 C :   -0.034498
   7 H :    0.031093
   8 H :    0.032349
   9 C :   -0.022182
  10 H :    0.021321
  11 H :    0.022987
  12 C :   -0.060705
  13 H :    0.015336
  14 H :    0.017091
  15 H :    0.035482
  16 S :    0.424177
  17 C :   -0.175714
  18 C :   -0.063560
  19 C :   -0.063734
  20 C :   -0.209598
  21 H :    0.034761
  22 C :   -0.030859
  23 H :    0.031494
  24 H :    0.020654
  25 C :   -0.043240
  26 H :    0.023969
  27 H :    0.032857
  28 C :   -0.066463
  29 H :    0.012844
  30 H :    0.029117
  31 H :    0.023570
  32 H :    0.037592
  33 H :    0.012715

  Mayer bond orders larger than 0.100000
B(  0-S ,  1-C ) :   1.1499 B(  0-S ,  4-C ) :   1.1831 B(  1-C ,  2-C ) :   1.5677
B(  1-C , 32-H ) :   0.9573 B(  2-C ,  3-C ) :   1.2804 B(  2-C ,  6-C ) :   1.0271
B(  3-C ,  4-C ) :   1.5368 B(  3-C ,  5-H ) :   0.9933 B(  4-C , 20-C ) :   1.0261
B(  6-C ,  7-H ) :   0.9389 B(  6-C ,  8-H ) :   0.9418 B(  6-C ,  9-C ) :   1.0565
B(  9-C , 10-H ) :   0.9555 B(  9-C , 11-H ) :   0.9604 B(  9-C , 12-C ) :   1.0795
B( 12-C , 13-H ) :   0.9753 B( 12-C , 14-H ) :   0.9651 B( 12-C , 15-H ) :   0.9697
B( 16-S , 17-C ) :   1.1570 B( 16-S , 20-C ) :   1.1514 B( 17-C , 18-C ) :   1.5964
B( 17-C , 33-H ) :   0.9744 B( 18-C , 19-C ) :   1.2801 B( 18-C , 21-H ) :   0.9878
B( 19-C , 20-C ) :   1.5875 B( 19-C , 22-C ) :   1.0256 B( 22-C , 23-H ) :   0.9357
B( 22-C , 24-H ) :   0.9324 B( 22-C , 25-C ) :   1.0590 B( 25-C , 26-H ) :   0.9532
B( 25-C , 27-H ) :   0.9513 B( 25-C , 28-C ) :   1.0925 B( 28-C , 29-H ) :   0.9696
B( 28-C , 30-H ) :   0.9730 B( 28-C , 31-H ) :   0.9729

Dispersion correction           -0.015325968
FINAL SINGLE POINT ENERGY     -1339.867683090233

DIPOLE MOMENT
-------------
                                X             Y             Z
Electronic contribution:     -5.24065      17.75864     -22.57685
Nuclear contribution   :      5.55798     -18.08946      23.01630
                        -----------------------------------------
Total Dipole Moment    :      0.31733      -0.33082       0.43945
                        -----------------------------------------
Magnitude (a.u.)       :      0.63502
Magnitude (Debye)      :      1.61410

Rotational constants in cm-1:     0.021424     0.009425     0.007286
Rotational constants in MHz :   642.267856   282.563085   218.415024

                             ****ORCA TERMINATED NORMALLY****
TOTAL RUN TIME: 0 days 0 hours 0 minutes 23 seconds 287 msec
