                         Program Version 4.2.1 -  RELEASE  -
|  1> ! wB97X-D3 SP def2-SVP
|  2> %pal
|  3> nprocs 24
|  4> end
|  5>
|  6> * xyz 0 1
|  7> S 	 -41.6598 	 -45.4362 	 -74.4967
|  8> C 	 -43.29 	 -44.8532 	 -73.9584
|  9> C 	 -43.4988 	 -43.637 	 -74.476
| 10> C 	 -42.3503 	 -43.1541 	 -75.2289
| 11> C 	 -41.2299 	 -43.9712 	 -75.3405
| 12> H 	 -42.3197 	 -42.2183 	 -75.7857
| 13> C 	 -44.7486 	 -42.8279 	 -74.3796
| 14> H 	 -45.4051 	 -43.4107 	 -75.0749
| 15> H 	 -44.6273 	 -41.7844 	 -74.7829
| 16> C 	 -45.4706 	 -42.7278 	 -72.9995
| 17> H 	 -45.8523 	 -43.6957 	 -72.6187
| 18> H 	 -44.8277 	 -42.3719 	 -72.2503
| 19> C 	 -46.6587 	 -41.8073 	 -73.0949
| 20> H 	 -46.4381 	 -40.7904 	 -73.2709
| 21> H 	 -47.471 	 -42.065 	 -73.8049
| 22> H 	 -47.057 	 -41.7108 	 -72.0812
| 23> S 	 -38.492 	 -44.2283 	 -75.2265
| 24> C 	 -37.5269 	 -43.7472 	 -76.5976
| 25> C 	 -38.3057 	 -43.1955 	 -77.5802
| 26> C 	 -39.7247 	 -43.0872 	 -77.2131
| 27> C 	 -39.9839 	 -43.7525 	 -76.0378
| 28> H 	 -37.786 	 -42.8272 	 -78.4513
| 29> C 	 -40.7569 	 -42.6637 	 -78.2566
| 30> H 	 -40.1258 	 -42.0848 	 -79.0241
| 31> H 	 -41.3947 	 -41.9143 	 -77.7607
| 32> C 	 -41.6231 	 -43.8212 	 -78.6969
| 33> H 	 -42.2297 	 -44.2093 	 -77.8178
| 34> H 	 -40.9879 	 -44.6296 	 -79.0664
| 35> C 	 -42.696 	 -43.4739 	 -79.6791
| 36> H 	 -43.1935 	 -42.5501 	 -79.4771
| 37> H 	 -43.4342 	 -44.2735 	 -79.8103
| 38> H 	 -42.3181 	 -43.262 	 -80.7105
| 39> H 	 -43.9801 	 -45.3744 	 -73.3003
| 40> H 	 -36.4274 	 -43.821 	 -76.687
| 41> *
| 42>
| 43>                          ****END OF INPUT****

CARTESIAN COORDINATES (ANGSTROEM)
---------------------------------
  S    -41.659800  -45.436200  -74.496700
  C    -43.290000  -44.853200  -73.958400
  C    -43.498800  -43.637000  -74.476000
  C    -42.350300  -43.154100  -75.228900
  C    -41.229900  -43.971200  -75.340500
  H    -42.319700  -42.218300  -75.785700
  C    -44.748600  -42.827900  -74.379600
  H    -45.405100  -43.410700  -75.074900
  H    -44.627300  -41.784400  -74.782900
  C    -45.470600  -42.727800  -72.999500
  H    -45.852300  -43.695700  -72.618700
  H    -44.827700  -42.371900  -72.250300
  C    -46.658700  -41.807300  -73.094900
  H    -46.438100  -40.790400  -73.270900
  H    -47.471000  -42.065000  -73.804900
  H    -47.057000  -41.710800  -72.081200
  S    -38.492000  -44.228300  -75.226500
  C    -37.526900  -43.747200  -76.597600
  C    -38.305700  -43.195500  -77.580200
  C    -39.724700  -43.087200  -77.213100
  C    -39.983900  -43.752500  -76.037800
  H    -37.786000  -42.827200  -78.451300
  C    -40.756900  -42.663700  -78.256600
  H    -40.125800  -42.084800  -79.024100
  H    -41.394700  -41.914300  -77.760700
  C    -41.623100  -43.821200  -78.696900
  H    -42.229700  -44.209300  -77.817800
  H    -40.987900  -44.629600  -79.066400
  C    -42.696000  -43.473900  -79.679100
  H    -43.193500  -42.550100  -79.477100
  H    -43.434200  -44.273500  -79.810300
  H    -42.318100  -43.262000  -80.710500
  H    -43.980100  -45.374400  -73.300300
  H    -36.427400  -43.821000  -76.687000

 Total Charge           Charge          ....    0
 Multiplicity           Mult            ....    1
 Number of Electrons    NEL             ....  134
 Basis Dimension        Dim             ....  322

ORBITAL ENERGIES
----------------

  NO   OCC          E(Eh)            E(eV)
   0   2.0000     -88.965944     -2420.8864
   1   2.0000     -88.961204     -2420.7574
   2   2.0000     -10.332126      -281.1514
   3   2.0000     -10.329649      -281.0840
   4   2.0000     -10.320100      -280.8242
   5   2.0000     -10.314588      -280.6742
   6   2.0000     -10.308263      -280.5021
   7   2.0000     -10.300388      -280.2878
   8   2.0000     -10.300264      -280.2844
   9   2.0000     -10.300068      -280.2791
  10   2.0000     -10.296604      -280.1848
  11   2.0000     -10.293972      -280.1132
  12   2.0000     -10.289618      -279.9947
  13   2.0000     -10.285119      -279.8723
  14   2.0000     -10.276357      -279.6339
  15   2.0000     -10.273483      -279.5557
  16   2.0000      -8.080674      -219.8863
  17   2.0000      -8.075134      -219.7356
  18   2.0000      -6.039315      -164.3381
  19   2.0000      -6.035174      -164.2254
  20   2.0000      -6.033918      -164.1913
  21   2.0000      -6.031286      -164.1196
  22   2.0000      -6.029659      -164.0754
  23   2.0000      -6.025699      -163.9676
  24   2.0000      -1.006216       -27.3805
  25   2.0000      -0.982838       -26.7444
  26   2.0000      -0.915162       -24.9028
  27   2.0000      -0.912120       -24.8200
  28   2.0000      -0.876640       -23.8546
  29   2.0000      -0.851734       -23.1769
  30   2.0000      -0.842704       -22.9312
  31   2.0000      -0.815218       -22.1832
  32   2.0000      -0.781256       -21.2591
  33   2.0000      -0.773325       -21.0433
  34   2.0000      -0.712912       -19.3993
  35   2.0000      -0.707240       -19.2450
  36   2.0000      -0.689666       -18.7668
  37   2.0000      -0.662516       -18.0280
  38   2.0000      -0.635988       -17.3061
  39   2.0000      -0.614227       -16.7140
  40   2.0000      -0.590993       -16.0817
  41   2.0000      -0.574992       -15.6463
  42   2.0000      -0.568340       -15.4653
  43   2.0000      -0.560065       -15.2401
  44   2.0000      -0.531219       -14.4552
  45   2.0000      -0.524902       -14.2833
  46   2.0000      -0.520614       -14.1666
  47   2.0000      -0.516846       -14.0641
  48   2.0000      -0.509516       -13.8646
  49   2.0000      -0.499584       -13.5944
  50   2.0000      -0.490692       -13.3524
  51   2.0000      -0.484644       -13.1878
  52   2.0000      -0.471824       -12.8390
  53   2.0000      -0.461729       -12.5643
  54   2.0000      -0.458751       -12.4833
  55   2.0000      -0.446823       -12.1587
  56   2.0000      -0.443011       -12.0549
  57   2.0000      -0.439652       -11.9636
  58   2.0000      -0.434815       -11.8319
  59   2.0000      -0.423432       -11.5222
  60   2.0000      -0.418519       -11.3885
  61   2.0000      -0.410251       -11.1635
  62   2.0000      -0.405343       -11.0299
  63   2.0000      -0.353649        -9.6233
  64   2.0000      -0.330944        -9.0054
  65   2.0000      -0.323513        -8.8032
  66   2.0000      -0.294526        -8.0145
  67   0.0000       0.023635         0.6431
  68   0.0000       0.079435         2.1615
  69   0.0000       0.110194         2.9985
  70   0.0000       0.117698         3.2027
  71   0.0000       0.136369         3.7108

MULLIKEN ATOMIC CHARGES
-----------------------
   0 S :    0.082404
   1 C :   -0.142251
   2 C :   -0.033053
   3 C :   -0.004996
   4 C :   -0.132529
   5 H :   -0.001325
   6 C :    0.022330
   7 H :    0.051487
   8 H :    0.035951
   9 C :   -0.053147
  10 H :    0.029105
  11 H :    0.025605
  12 C :   -0.047539
  13 H :    0.014127
  14 H :    0.039041
  15 H :    0.023933
  16 S :    0.110883
  17 C :   -0.093275
  18 C :   -0.046627
  19 C :   -0.033007
  20 C :   -0.144919
  21 H :    0.019187
  22 C :    0.044665
  23 H :    0.036459
  24 H :    0.021560
  25 C :   -0.077295
  26 H :    0.060296
  27 H :    0.037184
  28 C :   -0.030138
  29 H :    0.013504
  30 H :    0.037610
  31 H :    0.018057
  32 H :    0.048355
  33 H :    0.068357
Sum of atomic charges:   -0.0000000

LOEWDIN ATOMIC CHARGES
----------------------
   0 S :    0.375773
   1 C :   -0.180196
   2 C :   -0.068707
   3 C :   -0.074603
   4 C :   -0.192412
   5 H :    0.023852
   6 C :   -0.037620
   7 H :    0.044851
   8 H :    0.035978
   9 C :   -0.035693
  10 H :    0.026174
  11 H :    0.021188
  12 C :   -0.068740
  13 H :    0.017253
  14 H :    0.029298
  15 H :    0.030274
  16 S :    0.402954
  17 C :   -0.187280
  18 C :   -0.075573
  19 C :   -0.050083
  20 C :   -0.193818
  21 H :    0.031193
  22 C :   -0.036206
  23 H :    0.038423
  24 H :    0.027788
  25 C :   -0.048091
  26 H :    0.042203
  27 H :    0.028105
  28 C :   -0.069717
  29 H :    0.019184
  30 H :    0.028731
  31 H :    0.023739
  32 H :    0.032479
  33 H :    0.039299

  Mayer bond orders larger than 0.100000
B(  0-S ,  1-C ) :   1.1056 B(  0-S ,  4-C ) :   1.1389 B(  1-C ,  2-C ) :   1.6305
B(  1-C , 32-H ) :   0.9739 B(  2-C ,  3-C ) :   1.2251 B(  2-C ,  6-C ) :   1.0112
B(  3-C ,  4-C ) :   1.5770 B(  3-C ,  5-H ) :   0.9944 B(  4-C , 20-C ) :   1.0644
B(  6-C ,  7-H ) :   0.9310 B(  6-C ,  8-H ) :   0.9511 B(  6-C ,  9-C ) :   1.0643
B(  9-C , 10-H ) :   0.9490 B(  9-C , 11-H ) :   0.9572 B(  9-C , 12-C ) :   1.0982
B( 12-C , 13-H ) :   0.9708 B( 12-C , 14-H ) :   0.9749 B( 12-C , 15-H ) :   0.9687
B( 16-S , 17-C ) :   1.1412 B( 16-S , 20-C ) :   1.1318 B( 17-C , 18-C ) :   1.6508
B( 17-C , 33-H ) :   0.9613 B( 18-C , 19-C ) :   1.2057 B( 18-C , 21-H ) :   0.9873
B( 19-C , 20-C ) :   1.5994 B( 19-C , 22-C ) :   1.0498 B( 22-C , 23-H ) :   0.9377
B( 22-C , 24-H ) :   0.9209 B( 22-C , 25-C ) :   1.0708 B( 25-C , 26-H ) :   0.9425
B( 25-C , 27-H ) :   0.9550 B( 25-C , 28-C ) :   1.0902 B( 28-C , 29-H ) :   0.9691
B( 28-C , 30-H ) :   0.9740 B( 28-C , 31-H ) :   0.9706

Dispersion correction           -0.014225707
FINAL SINGLE POINT ENERGY     -1339.877015288363

DIPOLE MOMENT
-------------
                                X             Y             Z
Electronic contribution:     25.38115     -12.19977       8.31747
Nuclear contribution   :    -25.81277      12.68746      -8.62939
                        -----------------------------------------
Total Dipole Moment    :     -0.43162       0.48769      -0.31193
                        -----------------------------------------
Magnitude (a.u.)       :      0.72211
Magnitude (Debye)      :      1.83545

Rotational constants in cm-1:     0.020517     0.007895     0.006472
Rotational constants in MHz :   615.093404   236.690403   194.016097

                             ****ORCA TERMINATED NORMALLY****
TOTAL RUN TIME: 0 days 0 hours 0 minutes 21 seconds 610 msec
