                         Program Version 4.2.1 -  RELEASE  -
|  1> ! wB97X-D3 SP def2-SVP
|  2> %pal
|  3> nprocs 24
|  4> end
|  5>
|  6> * xyz 0 1
|  7> S 	 45.0322 	 -17.7978 	 -112.843
|  8> C 	 46.8241 	 -18.0374 	 -112.722
|  9> C 	 47.1514 	 -19.4085 	 -112.86
| 10> C 	 46.014 	 -20.2041 	 -112.85
| 11> C 	 44.8013 	 -19.5351 	 -112.773
| 12> H 	 45.8993 	 -21.2465 	 -112.909
| 13> C 	 48.4881 	 -20.0219 	 -113.063
| 14> H 	 48.6637 	 -20.9224 	 -112.373
| 15> H 	 49.1288 	 -19.2169 	 -112.798
| 16> C 	 48.7738 	 -20.4604 	 -114.557
| 17> H 	 48.139 	 -19.8516 	 -115.19
| 18> H 	 49.8312 	 -20.3249 	 -114.864
| 19> C 	 48.4002 	 -21.9015 	 -114.901
| 20> H 	 47.3095 	 -21.967 	 -114.875
| 21> H 	 48.8447 	 -22.1958 	 -115.832
| 22> H 	 48.911 	 -22.631 	 -114.226
| 23> S 	 42.4603 	 -19.4995 	 -111.46
| 24> C 	 41.2889 	 -20.6942 	 -111.877
| 25> C 	 41.6625 	 -21.533 	 -112.896
| 26> C 	 43.0111 	 -21.2536 	 -113.311
| 27> C 	 43.457 	 -20.1231 	 -112.655
| 28> H 	 40.9678 	 -22.3082 	 -113.273
| 29> C 	 43.6266 	 -21.921 	 -114.509
| 30> H 	 43.9967 	 -22.9475 	 -114.234
| 31> H 	 44.5184 	 -21.3117 	 -114.833
| 32> C 	 42.7485 	 -22.0146 	 -115.765
| 33> H 	 41.9952 	 -22.8021 	 -115.603
| 34> H 	 43.4526 	 -22.3433 	 -116.53
| 35> C 	 42.2242 	 -20.6358 	 -116.422
| 36> H 	 41.6921 	 -20.0666 	 -115.69
| 37> H 	 41.3734 	 -20.8816 	 -117.103
| 38> H 	 43.0734 	 -19.9824 	 -116.707
| 39> H 	 47.5776 	 -17.2348 	 -112.864
| 40> H 	 40.369 	 -20.8445 	 -111.382
| 41> *
| 42>
| 43>                          ****END OF INPUT****

CARTESIAN COORDINATES (ANGSTROEM)
---------------------------------
  S     45.032200  -17.797800  -112.843000
  C     46.824100  -18.037400  -112.722000
  C     47.151400  -19.408500  -112.860000
  C     46.014000  -20.204100  -112.850000
  C     44.801300  -19.535100  -112.773000
  H     45.899300  -21.246500  -112.909000
  C     48.488100  -20.021900  -113.063000
  H     48.663700  -20.922400  -112.373000
  H     49.128800  -19.216900  -112.798000
  C     48.773800  -20.460400  -114.557000
  H     48.139000  -19.851600  -115.190000
  H     49.831200  -20.324900  -114.864000
  C     48.400200  -21.901500  -114.901000
  H     47.309500  -21.967000  -114.875000
  H     48.844700  -22.195800  -115.832000
  H     48.911000  -22.631000  -114.226000
  S     42.460300  -19.499500  -111.460000
  C     41.288900  -20.694200  -111.877000
  C     41.662500  -21.533000  -112.896000
  C     43.011100  -21.253600  -113.311000
  C     43.457000  -20.123100  -112.655000
  H     40.967800  -22.308200  -113.273000
  C     43.626600  -21.921000  -114.509000
  H     43.996700  -22.947500  -114.234000
  H     44.518400  -21.311700  -114.833000
  C     42.748500  -22.014600  -115.765000
  H     41.995200  -22.802100  -115.603000
  H     43.452600  -22.343300  -116.530000
  C     42.224200  -20.635800  -116.422000
  H     41.692100  -20.066600  -115.690000
  H     41.373400  -20.881600  -117.103000
  H     43.073400  -19.982400  -116.707000
  H     47.577600  -17.234800  -112.864000
  H     40.369000  -20.844500  -111.382000

 Total Charge           Charge          ....    0
 Multiplicity           Mult            ....    1
 Number of Electrons    NEL             ....  134
 Basis Dimension        Dim             ....  322

ORBITAL ENERGIES
----------------

  NO   OCC          E(Eh)            E(eV)
   0   2.0000     -88.970039     -2420.9978
   1   2.0000     -88.969011     -2420.9699
   2   2.0000     -10.327538      -281.0266
   3   2.0000     -10.321458      -280.8611
   4   2.0000     -10.320077      -280.8236
   5   2.0000     -10.309241      -280.5287
   6   2.0000     -10.301183      -280.3094
   7   2.0000     -10.300381      -280.2876
   8   2.0000     -10.298253      -280.2297
   9   2.0000     -10.295493      -280.1546
  10   2.0000     -10.295489      -280.1545
  11   2.0000     -10.292497      -280.0731
  12   2.0000     -10.290001      -280.0052
  13   2.0000     -10.283662      -279.8327
  14   2.0000     -10.282654      -279.8052
  15   2.0000     -10.279708      -279.7251
  16   2.0000      -8.086576      -220.0469
  17   2.0000      -8.082418      -219.9338
  18   2.0000      -6.044823      -164.4880
  19   2.0000      -6.040973      -164.3832
  20   2.0000      -6.040921      -164.3818
  21   2.0000      -6.037350      -164.2846
  22   2.0000      -6.037215      -164.2810
  23   2.0000      -6.033178      -164.1711
  24   2.0000      -1.015794       -27.6412
  25   2.0000      -0.983949       -26.7746
  26   2.0000      -0.910207       -24.7680
  27   2.0000      -0.906679       -24.6720
  28   2.0000      -0.867814       -23.6144
  29   2.0000      -0.849295       -23.1105
  30   2.0000      -0.846046       -23.0221
  31   2.0000      -0.813841       -22.1458
  32   2.0000      -0.784749       -21.3541
  33   2.0000      -0.770767       -20.9736
  34   2.0000      -0.704002       -19.1569
  35   2.0000      -0.696783       -18.9604
  36   2.0000      -0.693292       -18.8654
  37   2.0000      -0.658896       -17.9295
  38   2.0000      -0.639512       -17.4020
  39   2.0000      -0.619342       -16.8532
  40   2.0000      -0.596044       -16.2192
  41   2.0000      -0.571557       -15.5529
  42   2.0000      -0.555754       -15.1228
  43   2.0000      -0.554982       -15.1018
  44   2.0000      -0.539008       -14.6672
  45   2.0000      -0.528312       -14.3761
  46   2.0000      -0.518312       -14.1040
  47   2.0000      -0.504287       -13.7223
  48   2.0000      -0.499198       -13.5839
  49   2.0000      -0.494716       -13.4619
  50   2.0000      -0.491221       -13.3668
  51   2.0000      -0.477715       -12.9993
  52   2.0000      -0.470387       -12.7999
  53   2.0000      -0.465261       -12.6604
  54   2.0000      -0.459654       -12.5078
  55   2.0000      -0.454531       -12.3684
  56   2.0000      -0.446132       -12.1399
  57   2.0000      -0.431536       -11.7427
  58   2.0000      -0.429488       -11.6870
  59   2.0000      -0.423288       -11.5182
  60   2.0000      -0.420509       -11.4426
  61   2.0000      -0.418567       -11.3898
  62   2.0000      -0.411984       -11.2107
  63   2.0000      -0.348814        -9.4917
  64   2.0000      -0.333549        -9.0763
  65   2.0000      -0.332183        -9.0392
  66   2.0000      -0.287510        -7.8235
  67   0.0000       0.028902         0.7865
  68   0.0000       0.073953         2.0124
  69   0.0000       0.103101         2.8055
  70   0.0000       0.120412         3.2766
  71   0.0000       0.130464         3.5501

MULLIKEN ATOMIC CHARGES
-----------------------
   0 S :    0.098105
   1 C :   -0.130267
   2 C :   -0.099743
   3 C :    0.039905
   4 C :   -0.165477
   5 H :   -0.011153
   6 C :    0.078598
   7 H :    0.050423
   8 H :    0.009869
   9 C :   -0.081069
  10 H :    0.032564
  11 H :    0.036998
  12 C :   -0.053972
  13 H :    0.039138
  14 H :    0.027272
  15 H :    0.027362
  16 S :    0.144295
  17 C :   -0.075717
  18 C :   -0.048235
  19 C :   -0.032038
  20 C :   -0.148065
  21 H :    0.031057
  22 C :    0.007676
  23 H :    0.046066
  24 H :    0.038582
  25 C :   -0.091602
  26 H :    0.033689
  27 H :    0.035339
  28 C :   -0.056447
  29 H :    0.025029
  30 H :    0.046852
  31 H :    0.051798
  32 H :    0.059901
  33 H :    0.033267
Sum of atomic charges:   -0.0000000

LOEWDIN ATOMIC CHARGES
----------------------
   0 S :    0.379730
   1 C :   -0.197833
   2 C :   -0.060664
   3 C :   -0.068818
   4 C :   -0.181425
   5 H :    0.022702
   6 C :   -0.032503
   7 H :    0.041561
   8 H :    0.026492
   9 C :   -0.038089
  10 H :    0.024496
  11 H :    0.027053
  12 C :   -0.068359
  13 H :    0.024093
  14 H :    0.024627
  15 H :    0.026151
  16 S :    0.454331
  17 C :   -0.190342
  18 C :   -0.066667
  19 C :   -0.063626
  20 C :   -0.225474
  21 H :    0.038556
  22 C :   -0.044808
  23 H :    0.037891
  24 H :    0.033560
  25 C :   -0.042964
  26 H :    0.020562
  27 H :    0.028232
  28 C :   -0.073221
  29 H :    0.019692
  30 H :    0.037988
  31 H :    0.035376
  32 H :    0.032802
  33 H :    0.018898

  Mayer bond orders larger than 0.100000
B(  0-S ,  1-C ) :   1.1232 B(  0-S ,  4-C ) :   1.1602 B(  1-C ,  2-C ) :   1.5893
B(  1-C ,  4-C ) :   0.1093 B(  1-C , 32-H ) :   0.9595 B(  2-C ,  3-C ) :   1.2360
B(  2-C ,  6-C ) :   1.0422 B(  3-C ,  4-C ) :   1.5685 B(  3-C ,  5-H ) :   1.0046
B(  4-C , 20-C ) :   1.0071 B(  6-C ,  7-H ) :   0.9458 B(  6-C ,  8-H ) :   0.9270
B(  6-C ,  9-C ) :   1.0379 B(  9-C , 10-H ) :   0.9587 B(  9-C , 11-H ) :   0.9613
B(  9-C , 12-C ) :   1.0838 B( 12-C , 13-H ) :   0.9750 B( 12-C , 14-H ) :   0.9703
B( 12-C , 15-H ) :   0.9731 B( 16-S , 17-C ) :   1.1521 B( 16-S , 20-C ) :   1.1711
B( 17-C , 18-C ) :   1.6268 B( 17-C , 33-H ) :   0.9700 B( 18-C , 19-C ) :   1.2267
B( 18-C , 21-H ) :   0.9859 B( 19-C , 20-C ) :   1.5907 B( 19-C , 22-C ) :   1.0440
B( 22-C , 23-H ) :   0.9253 B( 22-C , 24-H ) :   0.9375 B( 22-C , 25-C ) :   1.0792
B( 25-C , 26-H ) :   0.9537 B( 25-C , 27-H ) :   0.9572 B( 25-C , 28-C ) :   1.0601
B( 28-C , 29-H ) :   0.9770 B( 28-C , 30-H ) :   0.9727 B( 28-C , 31-H ) :   0.9731

Dispersion correction           -0.015348610
FINAL SINGLE POINT ENERGY     -1339.865570968674

DIPOLE MOMENT
-------------
                                X             Y             Z
Electronic contribution:    -11.56836      15.74911      19.66135
Nuclear contribution   :     11.70810     -16.25718     -20.06140
                        -----------------------------------------
Total Dipole Moment    :      0.13974      -0.50807      -0.40004
                        -----------------------------------------
Magnitude (a.u.)       :      0.66159
Magnitude (Debye)      :      1.68162

Rotational constants in cm-1:     0.018201     0.009879     0.007556
Rotational constants in MHz :   545.646730   296.162669   226.521163

                             ****ORCA TERMINATED NORMALLY****
TOTAL RUN TIME: 0 days 0 hours 0 minutes 21 seconds 374 msec
