                         Program Version 4.2.1 -  RELEASE  -
|  1> ! wB97X-D3 SP def2-SVP
|  2> %pal
|  3> nprocs 24
|  4> end
|  5>
|  6> * xyz 0 1
|  7> S 	 -132.939 	 29.5747 	 -15.8157
|  8> C 	 -131.554 	 29.0883 	 -16.7758
|  9> C 	 -131.909 	 28.4125 	 -17.9278
| 10> C 	 -133.315 	 28.206 	 -17.9403
| 11> C 	 -133.96 	 28.5878 	 -16.7925
| 12> H 	 -133.916 	 27.7698 	 -18.7152
| 13> C 	 -131.084 	 28.0019 	 -19.1045
| 14> H 	 -130.839 	 28.8153 	 -19.7799
| 15> H 	 -131.615 	 27.1752 	 -19.7452
| 16> C 	 -129.741 	 27.4053 	 -18.6198
| 17> H 	 -129.115 	 28.2206 	 -18.167
| 18> H 	 -129.831 	 26.6859 	 -17.8475
| 19> C 	 -128.811 	 26.764 	 -19.7441
| 20> H 	 -128.55 	 27.4755 	 -20.519
| 21> H 	 -127.871 	 26.5105 	 -19.2446
| 22> H 	 -129.191 	 25.8065 	 -20.1692
| 23> S 	 -136.412 	 29.6368 	 -15.822
| 24> C 	 -137.787 	 28.5985 	 -15.5704
| 25> C 	 -137.458 	 27.3433 	 -15.9504
| 26> C 	 -136.123 	 27.1544 	 -16.4397
| 27> C 	 -135.386 	 28.3593 	 -16.458
| 28> H 	 -138.221 	 26.5441 	 -15.8601
| 29> C 	 -135.641 	 25.8272 	 -16.95
| 30> H 	 -134.656 	 25.999 	 -17.4011
| 31> H 	 -136.236 	 25.6645 	 -17.8368
| 32> C 	 -135.389 	 24.6937 	 -16.0404
| 33> H 	 -136.304 	 24.5274 	 -15.4551
| 34> H 	 -134.5 	 24.9205 	 -15.414
| 35> C 	 -134.945 	 23.458 	 -16.8518
| 36> H 	 -134.78 	 22.5744 	 -16.2932
| 37> H 	 -133.956 	 23.5879 	 -17.3393
| 38> H 	 -135.656 	 23.2874 	 -17.6163
| 39> H 	 -130.571 	 29.2686 	 -16.5768
| 40> H 	 -138.751 	 28.9115 	 -15.2883
| 41> *
| 42>
| 43>                          ****END OF INPUT****

CARTESIAN COORDINATES (ANGSTROEM)
---------------------------------
  S    -132.939000   29.574700  -15.815700
  C    -131.554000   29.088300  -16.775800
  C    -131.909000   28.412500  -17.927800
  C    -133.315000   28.206000  -17.940300
  C    -133.960000   28.587800  -16.792500
  H    -133.916000   27.769800  -18.715200
  C    -131.084000   28.001900  -19.104500
  H    -130.839000   28.815300  -19.779900
  H    -131.615000   27.175200  -19.745200
  C    -129.741000   27.405300  -18.619800
  H    -129.115000   28.220600  -18.167000
  H    -129.831000   26.685900  -17.847500
  C    -128.811000   26.764000  -19.744100
  H    -128.550000   27.475500  -20.519000
  H    -127.871000   26.510500  -19.244600
  H    -129.191000   25.806500  -20.169200
  S    -136.412000   29.636800  -15.822000
  C    -137.787000   28.598500  -15.570400
  C    -137.458000   27.343300  -15.950400
  C    -136.123000   27.154400  -16.439700
  C    -135.386000   28.359300  -16.458000
  H    -138.221000   26.544100  -15.860100
  C    -135.641000   25.827200  -16.950000
  H    -134.656000   25.999000  -17.401100
  H    -136.236000   25.664500  -17.836800
  C    -135.389000   24.693700  -16.040400
  H    -136.304000   24.527400  -15.455100
  H    -134.500000   24.920500  -15.414000
  C    -134.945000   23.458000  -16.851800
  H    -134.780000   22.574400  -16.293200
  H    -133.956000   23.587900  -17.339300
  H    -135.656000   23.287400  -17.616300
  H    -130.571000   29.268600  -16.576800
  H    -138.751000   28.911500  -15.288300

 Total Charge           Charge          ....    0
 Multiplicity           Mult            ....    1
 Number of Electrons    NEL             ....  134
 Basis Dimension        Dim             ....  322

ORBITAL ENERGIES
----------------

  NO   OCC          E(Eh)            E(eV)
   0   2.0000     -88.968468     -2420.9551
   1   2.0000     -88.963115     -2420.8094
   2   2.0000     -10.331525      -281.1351
   3   2.0000     -10.328581      -281.0550
   4   2.0000     -10.312770      -280.6247
   5   2.0000     -10.308404      -280.5059
   6   2.0000     -10.303858      -280.3822
   7   2.0000     -10.303193      -280.3641
   8   2.0000     -10.300712      -280.2966
   9   2.0000     -10.292907      -280.0842
  10   2.0000     -10.292724      -280.0793
  11   2.0000     -10.288708      -279.9700
  12   2.0000     -10.286061      -279.8980
  13   2.0000     -10.284995      -279.8689
  14   2.0000     -10.281412      -279.7714
  15   2.0000     -10.273038      -279.5436
  16   2.0000      -8.083565      -219.9650
  17   2.0000      -8.077947      -219.8121
  18   2.0000      -6.042114      -164.4143
  19   2.0000      -6.038136      -164.3060
  20   2.0000      -6.036560      -164.2631
  21   2.0000      -6.034149      -164.1976
  22   2.0000      -6.032304      -164.1473
  23   2.0000      -6.028734      -164.0502
  24   2.0000      -1.009306       -27.4646
  25   2.0000      -0.988197       -26.8902
  26   2.0000      -0.916863       -24.9491
  27   2.0000      -0.910590       -24.7784
  28   2.0000      -0.867144       -23.5962
  29   2.0000      -0.852460       -23.1966
  30   2.0000      -0.845252       -23.0005
  31   2.0000      -0.817105       -22.2346
  32   2.0000      -0.783133       -21.3101
  33   2.0000      -0.774123       -21.0650
  34   2.0000      -0.712623       -19.3915
  35   2.0000      -0.703110       -19.1326
  36   2.0000      -0.693843       -18.8804
  37   2.0000      -0.655237       -17.8299
  38   2.0000      -0.645139       -17.5551
  39   2.0000      -0.619731       -16.8637
  40   2.0000      -0.601222       -16.3601
  41   2.0000      -0.572691       -15.5837
  42   2.0000      -0.570165       -15.5150
  43   2.0000      -0.562423       -15.3043
  44   2.0000      -0.528172       -14.3723
  45   2.0000      -0.522604       -14.2208
  46   2.0000      -0.518255       -14.1024
  47   2.0000      -0.515119       -14.0171
  48   2.0000      -0.508820       -13.8457
  49   2.0000      -0.501762       -13.6536
  50   2.0000      -0.492789       -13.4095
  51   2.0000      -0.478714       -13.0265
  52   2.0000      -0.474153       -12.9024
  53   2.0000      -0.464034       -12.6270
  54   2.0000      -0.458453       -12.4751
  55   2.0000      -0.452031       -12.3004
  56   2.0000      -0.447048       -12.1648
  57   2.0000      -0.438942       -11.9442
  58   2.0000      -0.431753       -11.7486
  59   2.0000      -0.428087       -11.6488
  60   2.0000      -0.420066       -11.4306
  61   2.0000      -0.414676       -11.2839
  62   2.0000      -0.405521       -11.0348
  63   2.0000      -0.351430        -9.5629
  64   2.0000      -0.331740        -9.0271
  65   2.0000      -0.328854        -8.9486
  66   2.0000      -0.290814        -7.9134
  67   0.0000       0.029904         0.8137
  68   0.0000       0.070748         1.9252
  69   0.0000       0.109514         2.9800
  70   0.0000       0.124922         3.3993
  71   0.0000       0.135531         3.6880

MULLIKEN ATOMIC CHARGES
-----------------------
   0 S :    0.125165
   1 C :   -0.080475
   2 C :   -0.053411
   3 C :    0.018638
   4 C :   -0.151176
   5 H :    0.011843
   6 C :    0.065089
   7 H :    0.046532
   8 H :    0.043032
   9 C :   -0.138711
  10 H :    0.034793
  11 H :    0.029340
  12 C :   -0.052118
  13 H :    0.033282
  14 H :    0.029869
  15 H :    0.041565
  16 S :    0.088712
  17 C :   -0.070052
  18 C :   -0.036414
  19 C :   -0.042149
  20 C :   -0.144700
  21 H :    0.027084
  22 C :    0.041214
  23 H :   -0.006099
  24 H :    0.029141
  25 C :   -0.044272
  26 H :    0.030988
  27 H :    0.043664
  28 C :   -0.030603
  29 H :    0.025558
  30 H :    0.027109
  31 H :    0.017088
  32 H :   -0.001449
  33 H :    0.041922
Sum of atomic charges:   -0.0000000

LOEWDIN ATOMIC CHARGES
----------------------
   0 S :    0.419187
   1 C :   -0.179914
   2 C :   -0.060991
   3 C :   -0.062216
   4 C :   -0.195459
   5 H :    0.028718
   6 C :   -0.034613
   7 H :    0.035330
   8 H :    0.040707
   9 C :   -0.041118
  10 H :    0.026115
  11 H :    0.017572
  12 C :   -0.069614
  13 H :    0.022235
  14 H :    0.027704
  15 H :    0.026936
  16 S :    0.397700
  17 C :   -0.179434
  18 C :   -0.076548
  19 C :   -0.055244
  20 C :   -0.196934
  21 H :    0.035214
  22 C :   -0.047123
  23 H :    0.030924
  24 H :    0.031622
  25 C :   -0.036537
  26 H :    0.022091
  27 H :    0.035706
  28 C :   -0.059630
  29 H :    0.020871
  30 H :    0.029543
  31 H :    0.017075
  32 H :    0.005503
  33 H :    0.024622

  Mayer bond orders larger than 0.100000
B(  0-S ,  1-C ) :   1.1360 B(  0-S ,  4-C ) :   1.1522 B(  1-C ,  2-C ) :   1.6025
B(  1-C , 32-H ) :   0.9808 B(  2-C ,  3-C ) :   1.2360 B(  2-C ,  6-C ) :   1.0191
B(  3-C ,  4-C ) :   1.5765 B(  3-C ,  5-H ) :   0.9946 B(  4-C , 20-C ) :   1.0331
B(  6-C ,  7-H ) :   0.9301 B(  6-C ,  8-H ) :   0.9512 B(  6-C ,  9-C ) :   1.0533
B(  9-C , 10-H ) :   0.9507 B(  9-C , 11-H ) :   0.9668 B(  9-C , 12-C ) :   1.0838
B( 12-C , 13-H ) :   0.9755 B( 12-C , 14-H ) :   0.9745 B( 12-C , 15-H ) :   0.9767
B( 16-S , 17-C ) :   1.1488 B( 16-S , 20-C ) :   1.1410 B( 17-C , 18-C ) :   1.6080
B( 17-C , 33-H ) :   0.9747 B( 18-C , 19-C ) :   1.2513 B( 18-C , 21-H ) :   0.9850
B( 19-C , 20-C ) :   1.5759 B( 19-C , 22-C ) :   1.0379 B( 22-C , 23-H ) :   0.9199
B( 22-C , 24-H ) :   0.9331 B( 22-C , 25-C ) :   1.0685 B( 25-C , 26-H ) :   0.9570
B( 25-C , 27-H ) :   0.9513 B( 25-C , 28-C ) :   1.0810 B( 28-C , 29-H ) :   0.9735
B( 28-C , 30-H ) :   0.9722 B( 28-C , 31-H ) :   0.9758

Dispersion correction           -0.013514015
FINAL SINGLE POINT ENERGY     -1339.872916978863

DIPOLE MOMENT
-------------
                                X             Y             Z
Electronic contribution:    -15.61296      24.64393      13.74215
Nuclear contribution   :     15.79275     -25.19523     -14.15242
                        -----------------------------------------
Total Dipole Moment    :      0.17978      -0.55130      -0.41027
                        -----------------------------------------
Magnitude (a.u.)       :      0.71033
Magnitude (Debye)      :      1.80552

Rotational constants in cm-1:     0.018616     0.008255     0.006154
Rotational constants in MHz :   558.096870   247.474292   184.478000

                             ****ORCA TERMINATED NORMALLY****
TOTAL RUN TIME: 0 days 0 hours 0 minutes 21 seconds 285 msec
