                         Program Version 4.2.1 -  RELEASE  -
|  1> ! wB97X-D3 SP def2-SVP
|  2> %pal
|  3> nprocs 24
|  4> end
|  5>
|  6> * xyz 0 1
|  7> S 	 -33.334 	 -36.9781 	 -87.4469
|  8> C 	 -32.0313 	 -36.1167 	 -86.6201
|  9> C 	 -31.0787 	 -35.7121 	 -87.5907
| 10> C 	 -31.3718 	 -36.1738 	 -88.9553
| 11> C 	 -32.5423 	 -36.8252 	 -89.0542
| 12> H 	 -30.8396 	 -35.9728 	 -89.8901
| 13> C 	 -29.9686 	 -34.7329 	 -87.2781
| 14> H 	 -30.3391 	 -34.189 	 -86.5265
| 15> H 	 -29.7857 	 -33.9595 	 -88.0263
| 16> C 	 -28.562 	 -35.4367 	 -87.0425
| 17> H 	 -28.7401 	 -36.2133 	 -86.3628
| 18> H 	 -28.4056 	 -35.9718 	 -87.9886
| 19> C 	 -27.4212 	 -34.5412 	 -86.5043
| 20> H 	 -27.7941 	 -34.0389 	 -85.58
| 21> H 	 -26.5029 	 -35.0824 	 -86.3229
| 22> H 	 -27.0946 	 -33.7578 	 -87.2256
| 23> S 	 -34.9552 	 -36.9036 	 -90.2529
| 24> C 	 -35.1475 	 -37.5456 	 -91.8278
| 25> C 	 -33.9653 	 -37.9826 	 -92.3424
| 26> C 	 -32.8408 	 -37.8037 	 -91.4292
| 27> C 	 -33.2536 	 -37.1836 	 -90.2488
| 28> H 	 -33.9248 	 -38.3599 	 -93.2974
| 29> C 	 -31.4452 	 -38.1401 	 -91.8865
| 30> H 	 -31.4193 	 -39.2269 	 -91.9897
| 31> H 	 -30.733 	 -37.8339 	 -91.1134
| 32> C 	 -31.1061 	 -37.3401 	 -93.1526
| 33> H 	 -31.3332 	 -36.2613 	 -93.0497
| 34> H 	 -31.8215 	 -37.732 	 -93.9461
| 35> C 	 -29.6917 	 -37.5538 	 -93.6666
| 36> H 	 -29.0331 	 -36.9183 	 -93.0593
| 37> H 	 -29.5591 	 -37.283 	 -94.7531
| 38> H 	 -29.3272 	 -38.5798 	 -93.5878
| 39> H 	 -31.9581 	 -35.9227 	 -85.5314
| 40> H 	 -36.0315 	 -37.3094 	 -92.379
| 41> *
| 42>
| 43>                          ****END OF INPUT****

CARTESIAN COORDINATES (ANGSTROEM)
---------------------------------
  S    -33.334000  -36.978100  -87.446900
  C    -32.031300  -36.116700  -86.620100
  C    -31.078700  -35.712100  -87.590700
  C    -31.371800  -36.173800  -88.955300
  C    -32.542300  -36.825200  -89.054200
  H    -30.839600  -35.972800  -89.890100
  C    -29.968600  -34.732900  -87.278100
  H    -30.339100  -34.189000  -86.526500
  H    -29.785700  -33.959500  -88.026300
  C    -28.562000  -35.436700  -87.042500
  H    -28.740100  -36.213300  -86.362800
  H    -28.405600  -35.971800  -87.988600
  C    -27.421200  -34.541200  -86.504300
  H    -27.794100  -34.038900  -85.580000
  H    -26.502900  -35.082400  -86.322900
  H    -27.094600  -33.757800  -87.225600
  S    -34.955200  -36.903600  -90.252900
  C    -35.147500  -37.545600  -91.827800
  C    -33.965300  -37.982600  -92.342400
  C    -32.840800  -37.803700  -91.429200
  C    -33.253600  -37.183600  -90.248800
  H    -33.924800  -38.359900  -93.297400
  C    -31.445200  -38.140100  -91.886500
  H    -31.419300  -39.226900  -91.989700
  H    -30.733000  -37.833900  -91.113400
  C    -31.106100  -37.340100  -93.152600
  H    -31.333200  -36.261300  -93.049700
  H    -31.821500  -37.732000  -93.946100
  C    -29.691700  -37.553800  -93.666600
  H    -29.033100  -36.918300  -93.059300
  H    -29.559100  -37.283000  -94.753100
  H    -29.327200  -38.579800  -93.587800
  H    -31.958100  -35.922700  -85.531400
  H    -36.031500  -37.309400  -92.379000

 Total Charge           Charge          ....    0
 Multiplicity           Mult            ....    1
 Number of Electrons    NEL             ....  134
 Basis Dimension        Dim             ....  322

ORBITAL ENERGIES
----------------

  NO   OCC          E(Eh)            E(eV)
   0   2.0000     -88.964430     -2420.8452
   1   2.0000     -88.961858     -2420.7752
   2   2.0000     -10.329044      -281.0676
   3   2.0000     -10.324816      -280.9525
   4   2.0000     -10.323538      -280.9177
   5   2.0000     -10.310611      -280.5660
   6   2.0000     -10.310292      -280.5573
   7   2.0000     -10.305819      -280.4356
   8   2.0000     -10.295991      -280.1681
   9   2.0000     -10.295258      -280.1482
  10   2.0000     -10.294945      -280.1397
  11   2.0000     -10.289256      -279.9849
  12   2.0000     -10.285672      -279.8874
  13   2.0000     -10.285307      -279.8774
  14   2.0000     -10.284055      -279.8434
  15   2.0000     -10.282053      -279.7889
  16   2.0000      -8.078189      -219.8187
  17   2.0000      -8.078159      -219.8179
  18   2.0000      -6.036963      -164.2741
  19   2.0000      -6.036591      -164.2640
  20   2.0000      -6.032803      -164.1609
  21   2.0000      -6.032409      -164.1502
  22   2.0000      -6.028973      -164.0567
  23   2.0000      -6.028680      -164.0487
  24   2.0000      -1.010490       -27.4968
  25   2.0000      -0.980176       -26.6719
  26   2.0000      -0.914786       -24.8926
  27   2.0000      -0.905240       -24.6328
  28   2.0000      -0.872540       -23.7430
  29   2.0000      -0.852695       -23.2030
  30   2.0000      -0.841120       -22.8880
  31   2.0000      -0.821647       -22.3582
  32   2.0000      -0.782628       -21.2964
  33   2.0000      -0.767881       -20.8951
  34   2.0000      -0.709608       -19.3094
  35   2.0000      -0.700055       -19.0495
  36   2.0000      -0.696915       -18.9640
  37   2.0000      -0.666381       -18.1331
  38   2.0000      -0.643072       -17.4989
  39   2.0000      -0.618589       -16.8327
  40   2.0000      -0.600468       -16.3396
  41   2.0000      -0.569398       -15.4941
  42   2.0000      -0.567266       -15.4361
  43   2.0000      -0.553861       -15.0713
  44   2.0000      -0.529239       -14.4013
  45   2.0000      -0.526341       -14.3225
  46   2.0000      -0.519752       -14.1432
  47   2.0000      -0.514345       -13.9960
  48   2.0000      -0.507965       -13.8224
  49   2.0000      -0.499058       -13.5801
  50   2.0000      -0.498231       -13.5576
  51   2.0000      -0.481301       -13.0969
  52   2.0000      -0.471548       -12.8315
  53   2.0000      -0.463866       -12.6224
  54   2.0000      -0.457160       -12.4399
  55   2.0000      -0.453937       -12.3523
  56   2.0000      -0.443814       -12.0768
  57   2.0000      -0.441449       -12.0124
  58   2.0000      -0.432614       -11.7720
  59   2.0000      -0.424808       -11.5596
  60   2.0000      -0.417288       -11.3550
  61   2.0000      -0.415387       -11.3033
  62   2.0000      -0.410431       -11.1684
  63   2.0000      -0.360558        -9.8113
  64   2.0000      -0.329943        -8.9782
  65   2.0000      -0.324827        -8.8390
  66   2.0000      -0.288028        -7.8376
  67   0.0000       0.029984         0.8159
  68   0.0000       0.070974         1.9313
  69   0.0000       0.111741         3.0406
  70   0.0000       0.118733         3.2309
  71   0.0000       0.128149         3.4871

MULLIKEN ATOMIC CHARGES
-----------------------
   0 S :    0.091357
   1 C :   -0.126396
   2 C :   -0.116560
   3 C :    0.021378
   4 C :   -0.116159
   5 H :    0.020965
   6 C :    0.095669
   7 H :   -0.020025
   8 H :    0.021508
   9 C :   -0.060621
  10 H :    0.013508
  11 H :    0.022479
  12 C :   -0.046250
  13 H :    0.040590
  14 H :    0.038920
  15 H :    0.033351
  16 S :    0.102922
  17 C :   -0.079729
  18 C :   -0.011797
  19 C :   -0.058084
  20 C :   -0.153919
  21 H :   -0.009242
  22 C :    0.093862
  23 H :    0.041859
  24 H :    0.013183
  25 C :   -0.130983
  26 H :    0.047182
  27 H :    0.033373
  28 C :   -0.038765
  29 H :    0.030537
  30 H :    0.044112
  31 H :    0.030981
  32 H :    0.071504
  33 H :    0.059290
Sum of atomic charges:   -0.0000000

LOEWDIN ATOMIC CHARGES
----------------------
   0 S :    0.370449
   1 C :   -0.200835
   2 C :   -0.051195
   3 C :   -0.069144
   4 C :   -0.170851
   5 H :    0.035434
   6 C :   -0.027893
   7 H :    0.008072
   8 H :    0.031392
   9 C :   -0.036209
  10 H :    0.014552
  11 H :    0.024299
  12 C :   -0.070018
  13 H :    0.032150
  14 H :    0.026875
  15 H :    0.027396
  16 S :    0.428037
  17 C :   -0.190642
  18 C :   -0.059203
  19 C :   -0.051309
  20 C :   -0.207673
  21 H :    0.016290
  22 C :   -0.031839
  23 H :    0.037279
  24 H :    0.025833
  25 C :   -0.047496
  26 H :    0.030739
  27 H :    0.026230
  28 C :   -0.072396
  29 H :    0.024712
  30 H :    0.033982
  31 H :    0.025267
  32 H :    0.040778
  33 H :    0.026935

  Mayer bond orders larger than 0.100000
B(  0-S ,  1-C ) :   1.1170 B(  0-S ,  4-C ) :   1.1176 B(  1-C ,  2-C ) :   1.6266
B(  1-C , 32-H ) :   0.9657 B(  2-C ,  3-C ) :   1.1957 B(  2-C ,  6-C ) :   1.0338
B(  3-C ,  4-C ) :   1.6235 B(  3-C ,  5-H ) :   0.9857 B(  4-C , 20-C ) :   1.0565
B(  6-C ,  7-H ) :   0.9370 B(  6-C ,  8-H ) :   0.9472 B(  6-C ,  9-C ) :   1.0355
B(  9-C , 10-H ) :   0.9595 B(  9-C , 11-H ) :   0.9598 B(  9-C , 12-C ) :   1.0727
B( 12-C , 13-H ) :   0.9742 B( 12-C , 14-H ) :   0.9749 B( 12-C , 15-H ) :   0.9757
B( 16-S , 17-C ) :   1.1614 B( 16-S , 20-C ) :   1.1495 B( 17-C , 18-C ) :   1.6068
B( 17-C , 33-H ) :   0.9682 B( 18-C , 19-C ) :   1.2231 B( 18-C , 21-H ) :   1.0039
B( 19-C , 20-C ) :   1.5827 B( 19-C , 22-C ) :   1.0525 B( 22-C , 23-H ) :   0.9221
B( 22-C , 24-H ) :   0.9355 B( 22-C , 25-C ) :   1.0580 B( 25-C , 26-H ) :   0.9585
B( 25-C , 27-H ) :   0.9514 B( 25-C , 28-C ) :   1.0818 B( 28-C , 29-H ) :   0.9743
B( 28-C , 30-H ) :   0.9736 B( 28-C , 31-H ) :   0.9725

Dispersion correction           -0.013590581
FINAL SINGLE POINT ENERGY     -1339.872894319375

DIPOLE MOMENT
-------------
                                X             Y             Z
Electronic contribution:    -29.99512      -5.46655       7.08951
Nuclear contribution   :     30.54662       5.68871      -7.50867
                        -----------------------------------------
Total Dipole Moment    :      0.55150       0.22216      -0.41916
                        -----------------------------------------
Magnitude (a.u.)       :      0.72747
Magnitude (Debye)      :      1.84907

Rotational constants in cm-1:     0.017400     0.008540     0.005982
Rotational constants in MHz :   521.640711   256.008109   179.334098

                             ****ORCA TERMINATED NORMALLY****
TOTAL RUN TIME: 0 days 0 hours 0 minutes 19 seconds 882 msec
