                         Program Version 4.2.1 -  RELEASE  -
|  1> ! wB97X-D3 SP def2-SVP
|  2> %pal
|  3> nprocs 24
|  4> end
|  5>
|  6> * xyz 0 1
|  7> S 	 25.8848 	 -1.31709 	 -110.889
|  8> C 	 25.5521 	 -1.56427 	 -112.601
|  9> C 	 25.5887 	 -0.312614 	 -113.24
| 10> C 	 25.8498 	 0.735864 	 -112.342
| 11> C 	 26.1159 	 0.349717 	 -111.071
| 12> H 	 25.862 	 1.73252 	 -112.742
| 13> C 	 25.3891 	 -0.0623948 	 -114.743
| 14> H 	 24.4389 	 -0.522615 	 -114.977
| 15> H 	 26.1405 	 -0.583023 	 -115.222
| 16> C 	 25.3845 	 1.42942 	 -115.12
| 17> H 	 24.5416 	 1.95201 	 -114.811
| 18> H 	 26.2938 	 1.82908 	 -114.691
| 19> C 	 25.4565 	 1.67179 	 -116.664
| 20> H 	 25.3671 	 2.72631 	 -116.949
| 21> H 	 26.3731 	 1.39193 	 -117.136
| 22> H 	 24.5879 	 1.21534 	 -117.152
| 23> S 	 28.1399 	 0.792971 	 -109.178
| 24> C 	 28.1468 	 2.38429 	 -108.397
| 25> C 	 26.9938 	 3.05393 	 -108.626
| 26> C 	 26.1375 	 2.44733 	 -109.542
| 27> C 	 26.5848 	 1.20118 	 -109.98
| 28> H 	 26.8615 	 4.05732 	 -108.296
| 29> C 	 24.9705 	 3.07905 	 -110.169
| 30> H 	 24.2881 	 3.48975 	 -109.407
| 31> H 	 24.3989 	 2.3625 	 -110.823
| 32> C 	 25.3572 	 4.15407 	 -111.135
| 33> H 	 26.11 	 3.87403 	 -111.879
| 34> H 	 25.7922 	 4.92309 	 -110.543
| 35> C 	 24.128 	 4.82571 	 -111.869
| 36> H 	 23.6942 	 4.104 	 -112.565
| 37> H 	 24.4977 	 5.77962 	 -112.307
| 38> H 	 23.3682 	 4.99508 	 -111.087
| 39> H 	 25.3957 	 -2.49803 	 -113.149
| 40> H 	 28.8522 	 2.85309 	 -107.787
| 41> *
| 42>
| 43>                          ****END OF INPUT****

CARTESIAN COORDINATES (ANGSTROEM)
---------------------------------
  S     25.884800   -1.317090  -110.889000
  C     25.552100   -1.564270  -112.601000
  C     25.588700   -0.312614  -113.240000
  C     25.849800    0.735864  -112.342000
  C     26.115900    0.349717  -111.071000
  H     25.862000    1.732520  -112.742000
  C     25.389100   -0.062395  -114.743000
  H     24.438900   -0.522615  -114.977000
  H     26.140500   -0.583023  -115.222000
  C     25.384500    1.429420  -115.120000
  H     24.541600    1.952010  -114.811000
  H     26.293800    1.829080  -114.691000
  C     25.456500    1.671790  -116.664000
  H     25.367100    2.726310  -116.949000
  H     26.373100    1.391930  -117.136000
  H     24.587900    1.215340  -117.152000
  S     28.139900    0.792971  -109.178000
  C     28.146800    2.384290  -108.397000
  C     26.993800    3.053930  -108.626000
  C     26.137500    2.447330  -109.542000
  C     26.584800    1.201180  -109.980000
  H     26.861500    4.057320  -108.296000
  C     24.970500    3.079050  -110.169000
  H     24.288100    3.489750  -109.407000
  H     24.398900    2.362500  -110.823000
  C     25.357200    4.154070  -111.135000
  H     26.110000    3.874030  -111.879000
  H     25.792200    4.923090  -110.543000
  C     24.128000    4.825710  -111.869000
  H     23.694200    4.104000  -112.565000
  H     24.497700    5.779620  -112.307000
  H     23.368200    4.995080  -111.087000
  H     25.395700   -2.498030  -113.149000
  H     28.852200    2.853090  -107.787000

 Total Charge           Charge          ....    0
 Multiplicity           Mult            ....    1
 Number of Electrons    NEL             ....  134
 Basis Dimension        Dim             ....  322

ORBITAL ENERGIES
----------------

  NO   OCC          E(Eh)            E(eV)
   0   2.0000     -88.966932     -2420.9133
   1   2.0000     -88.966418     -2420.8993
   2   2.0000     -10.327360      -281.0218
   3   2.0000     -10.323366      -280.9131
   4   2.0000     -10.313850      -280.6541
   5   2.0000     -10.313311      -280.6395
   6   2.0000     -10.297794      -280.2172
   7   2.0000     -10.296456      -280.1808
   8   2.0000     -10.288347      -279.9601
   9   2.0000     -10.287999      -279.9507
  10   2.0000     -10.287397      -279.9343
  11   2.0000     -10.285693      -279.8879
  12   2.0000     -10.285661      -279.8871
  13   2.0000     -10.283059      -279.8163
  14   2.0000     -10.281941      -279.7858
  15   2.0000     -10.279933      -279.7312
  16   2.0000      -8.082169      -219.9270
  17   2.0000      -8.079975      -219.8673
  18   2.0000      -6.040634      -164.3740
  19   2.0000      -6.038604      -164.3188
  20   2.0000      -6.036461      -164.2605
  21   2.0000      -6.034708      -164.2128
  22   2.0000      -6.033086      -164.1686
  23   2.0000      -6.030611      -164.1013
  24   2.0000      -1.011323       -27.5195
  25   2.0000      -0.987536       -26.8722
  26   2.0000      -0.916141       -24.9295
  27   2.0000      -0.914595       -24.8874
  28   2.0000      -0.870312       -23.6824
  29   2.0000      -0.850005       -23.1298
  30   2.0000      -0.845803       -23.0155
  31   2.0000      -0.818282       -22.2666
  32   2.0000      -0.784757       -21.3543
  33   2.0000      -0.770274       -20.9602
  34   2.0000      -0.720165       -19.5967
  35   2.0000      -0.697851       -18.9895
  36   2.0000      -0.696427       -18.9507
  37   2.0000      -0.660238       -17.9660
  38   2.0000      -0.639027       -17.3888
  39   2.0000      -0.627157       -17.0658
  40   2.0000      -0.600939       -16.3524
  41   2.0000      -0.582995       -15.8641
  42   2.0000      -0.570922       -15.5356
  43   2.0000      -0.566157       -15.4059
  44   2.0000      -0.527825       -14.3629
  45   2.0000      -0.521703       -14.1962
  46   2.0000      -0.519234       -14.1291
  47   2.0000      -0.512772       -13.9532
  48   2.0000      -0.505633       -13.7590
  49   2.0000      -0.501380       -13.6432
  50   2.0000      -0.493560       -13.4304
  51   2.0000      -0.479866       -13.0578
  52   2.0000      -0.468236       -12.7414
  53   2.0000      -0.466380       -12.6908
  54   2.0000      -0.465298       -12.6614
  55   2.0000      -0.455912       -12.4060
  56   2.0000      -0.448047       -12.1920
  57   2.0000      -0.443735       -12.0746
  58   2.0000      -0.438394       -11.9293
  59   2.0000      -0.423882       -11.5344
  60   2.0000      -0.417937       -11.3726
  61   2.0000      -0.414776       -11.2866
  62   2.0000      -0.412410       -11.2223
  63   2.0000      -0.345835        -9.4106
  64   2.0000      -0.332289        -9.0420
  65   2.0000      -0.330614        -8.9965
  66   2.0000      -0.291089        -7.9209
  67   0.0000       0.031391         0.8542
  68   0.0000       0.067593         1.8393
  69   0.0000       0.116019         3.1570
  70   0.0000       0.124167         3.3787
  71   0.0000       0.133818         3.6414

MULLIKEN ATOMIC CHARGES
-----------------------
   0 S :    0.124520
   1 C :   -0.140900
   2 C :   -0.142631
   3 C :    0.020503
   4 C :   -0.117812
   5 H :   -0.017434
   6 C :    0.137445
   7 H :    0.028942
   8 H :    0.020057
   9 C :   -0.109659
  10 H :    0.030826
  11 H :    0.045133
  12 C :   -0.035426
  13 H :    0.025420
  14 H :    0.029262
  15 H :    0.028641
  16 S :    0.102878
  17 C :   -0.054210
  18 C :   -0.029481
  19 C :   -0.002299
  20 C :   -0.150768
  21 H :    0.006579
  22 C :    0.047422
  23 H :    0.028309
  24 H :    0.033018
  25 C :   -0.106042
  26 H :    0.039848
  27 H :    0.007302
  28 C :   -0.043157
  29 H :    0.036169
  30 H :    0.051032
  31 H :    0.028040
  32 H :    0.048044
  33 H :    0.030430
Sum of atomic charges:   -0.0000000

LOEWDIN ATOMIC CHARGES
----------------------
   0 S :    0.436858
   1 C :   -0.211448
   2 C :   -0.058026
   3 C :   -0.075407
   4 C :   -0.212148
   5 H :    0.025896
   6 C :   -0.019470
   7 H :    0.032815
   8 H :    0.024321
   9 C :   -0.033744
  10 H :    0.018251
  11 H :    0.025649
  12 C :   -0.063825
  13 H :    0.027149
  14 H :    0.020141
  15 H :    0.025497
  16 S :    0.378642
  17 C :   -0.163245
  18 C :   -0.068789
  19 C :   -0.053340
  20 C :   -0.179936
  21 H :    0.028009
  22 C :   -0.039600
  23 H :    0.032926
  24 H :    0.035099
  25 C :   -0.040772
  26 H :    0.022092
  27 H :    0.013868
  28 C :   -0.063783
  29 H :    0.022367
  30 H :    0.032938
  31 H :    0.025652
  32 H :    0.032846
  33 H :    0.022516

  Mayer bond orders larger than 0.100000
B(  0-S ,  1-C ) :   1.1421 B(  0-S ,  4-C ) :   1.1829 B(  1-C ,  2-C ) :   1.5826
B(  1-C ,  4-C ) :   0.1034 B(  1-C , 32-H ) :   0.9740 B(  2-C ,  3-C ) :   1.3219
B(  2-C ,  6-C ) :   0.9841 B(  3-C ,  4-C ) :   1.4961 B(  3-C ,  5-H ) :   0.9895
B(  4-C , 20-C ) :   1.0179 B(  6-C ,  7-H ) :   0.9306 B(  6-C ,  8-H ) :   0.9346
B(  6-C ,  9-C ) :   1.0944 B(  9-C , 10-H ) :   0.9536 B(  9-C , 11-H ) :   0.9437
B(  9-C , 12-C ) :   1.0848 B( 12-C , 13-H ) :   0.9741 B( 12-C , 14-H ) :   0.9775
B( 12-C , 15-H ) :   0.9736 B( 16-S , 17-C ) :   1.1424 B( 16-S , 20-C ) :   1.1211
B( 17-C , 18-C ) :   1.6297 B( 17-C , 20-C ) :   0.1018 B( 17-C , 33-H ) :   0.9678
B( 18-C , 19-C ) :   1.2406 B( 18-C , 21-H ) :   0.9874 B( 19-C , 20-C ) :   1.5995
B( 19-C , 22-C ) :   1.0704 B( 22-C , 23-H ) :   0.9192 B( 22-C , 24-H ) :   0.9302
B( 22-C , 25-C ) :   1.0636 B( 25-C , 26-H ) :   0.9503 B( 25-C , 27-H ) :   0.9507
B( 25-C , 28-C ) :   1.0770 B( 28-C , 29-H ) :   0.9762 B( 28-C , 30-H ) :   0.9751
B( 28-C , 31-H ) :   0.9720

Dispersion correction           -0.014742665
FINAL SINGLE POINT ENERGY     -1339.873682426615

DIPOLE MOMENT
-------------
                                X             Y             Z
Electronic contribution:     12.04614     -19.66354      23.56509
Nuclear contribution   :    -12.22179      20.28393     -24.11838
                        -----------------------------------------
Total Dipole Moment    :     -0.17565       0.62039      -0.55329
                        -----------------------------------------
Magnitude (a.u.)       :      0.84963
Magnitude (Debye)      :      2.15959

Rotational constants in cm-1:     0.016770     0.010070     0.007136
Rotational constants in MHz :   502.754361   301.902545   213.939452

                             ****ORCA TERMINATED NORMALLY****
TOTAL RUN TIME: 0 days 0 hours 0 minutes 21 seconds 536 msec
