                         Program Version 4.2.1 -  RELEASE  -
|  1> ! wB97X-D3 SP def2-SVP
|  2> %pal
|  3> nprocs 24
|  4> end
|  5>
|  6> * xyz 0 1
|  7> S 	 -136.1 	 13.1441 	 -5.411
|  8> C 	 -134.831 	 14.076 	 -4.7522
|  9> C 	 -134.803 	 14.0413 	 -3.34699
| 10> C 	 -135.96 	 13.3332 	 -2.85775
| 11> C 	 -136.763 	 12.8539 	 -3.83009
| 12> H 	 -136.097 	 13.211 	 -1.8015
| 13> C 	 -133.75 	 14.6608 	 -2.46034
| 14> H 	 -134.267 	 15.3357 	 -1.72396
| 15> H 	 -133.132 	 15.3913 	 -3.06183
| 16> C 	 -132.759 	 13.6059 	 -1.77399
| 17> H 	 -133.082 	 13.4521 	 -0.812636
| 18> H 	 -132.968 	 12.6558 	 -2.27947
| 19> C 	 -131.201 	 13.8819 	 -1.91343
| 20> H 	 -130.956 	 14.8528 	 -1.44129
| 21> H 	 -130.677 	 13.2047 	 -1.28929
| 22> H 	 -130.795 	 13.8666 	 -2.90843
| 23> S 	 -139.182 	 12.0626 	 -4.95489
| 24> C 	 -140.123 	 11.0242 	 -4.01608
| 25> C 	 -139.509 	 10.4885 	 -2.907
| 26> C 	 -138.198 	 11.0627 	 -2.68129
| 27> C 	 -137.942 	 12.0882 	 -3.63459
| 28> H 	 -140.001 	 9.59867 	 -2.52019
| 29> C 	 -137.242 	 10.467 	 -1.66896
| 30> H 	 -137.899 	 9.90247 	 -0.9099
| 31> H 	 -136.854 	 11.2895 	 -1.01478
| 32> C 	 -136.123 	 9.57707 	 -2.27949
| 33> H 	 -135.483 	 10.2049 	 -2.91338
| 34> H 	 -136.565 	 8.83851 	 -2.89201
| 35> C 	 -135.426 	 8.67469 	 -1.26523
| 36> H 	 -134.514 	 8.18153 	 -1.7099
| 37> H 	 -136.031 	 7.9057 	 -0.816525
| 38> H 	 -135.115 	 9.39857 	 -0.437773
| 39> H 	 -134.199 	 14.7613 	 -5.31668
| 40> H 	 -141.108 	 10.679 	 -4.31292
| 41> *
| 42>
| 43>                          ****END OF INPUT****

CARTESIAN COORDINATES (ANGSTROEM)
---------------------------------
  S    -136.100000   13.144100   -5.411000
  C    -134.831000   14.076000   -4.752200
  C    -134.803000   14.041300   -3.346990
  C    -135.960000   13.333200   -2.857750
  C    -136.763000   12.853900   -3.830090
  H    -136.097000   13.211000   -1.801500
  C    -133.750000   14.660800   -2.460340
  H    -134.267000   15.335700   -1.723960
  H    -133.132000   15.391300   -3.061830
  C    -132.759000   13.605900   -1.773990
  H    -133.082000   13.452100   -0.812636
  H    -132.968000   12.655800   -2.279470
  C    -131.201000   13.881900   -1.913430
  H    -130.956000   14.852800   -1.441290
  H    -130.677000   13.204700   -1.289290
  H    -130.795000   13.866600   -2.908430
  S    -139.182000   12.062600   -4.954890
  C    -140.123000   11.024200   -4.016080
  C    -139.509000   10.488500   -2.907000
  C    -138.198000   11.062700   -2.681290
  C    -137.942000   12.088200   -3.634590
  H    -140.001000    9.598670   -2.520190
  C    -137.242000   10.467000   -1.668960
  H    -137.899000    9.902470   -0.909900
  H    -136.854000   11.289500   -1.014780
  C    -136.123000    9.577070   -2.279490
  H    -135.483000   10.204900   -2.913380
  H    -136.565000    8.838510   -2.892010
  C    -135.426000    8.674690   -1.265230
  H    -134.514000    8.181530   -1.709900
  H    -136.031000    7.905700   -0.816525
  H    -135.115000    9.398570   -0.437773
  H    -134.199000   14.761300   -5.316680
  H    -141.108000   10.679000   -4.312920

 Total Charge           Charge          ....    0
 Multiplicity           Mult            ....    1
 Number of Electrons    NEL             ....  134
 Basis Dimension        Dim             ....  322

ORBITAL ENERGIES
----------------

  NO   OCC          E(Eh)            E(eV)
   0   2.0000     -88.967343     -2420.9245
   1   2.0000     -88.964987     -2420.8604
   2   2.0000     -10.328637      -281.0565
   3   2.0000     -10.321047      -280.8500
   4   2.0000     -10.312800      -280.6256
   5   2.0000     -10.312348      -280.6132
   6   2.0000     -10.309092      -280.5246
   7   2.0000     -10.304231      -280.3924
   8   2.0000     -10.301207      -280.3101
   9   2.0000     -10.300002      -280.2773
  10   2.0000     -10.293005      -280.0869
  11   2.0000     -10.288971      -279.9771
  12   2.0000     -10.286293      -279.9043
  13   2.0000     -10.285679      -279.8875
  14   2.0000     -10.285142      -279.8729
  15   2.0000     -10.281521      -279.7744
  16   2.0000      -8.082489      -219.9357
  17   2.0000      -8.080739      -219.8881
  18   2.0000      -6.040813      -164.3789
  19   2.0000      -6.039232      -164.3359
  20   2.0000      -6.037142      -164.2790
  21   2.0000      -6.035195      -164.2260
  22   2.0000      -6.033243      -164.1729
  23   2.0000      -6.031385      -164.1223
  24   2.0000      -1.009761       -27.4770
  25   2.0000      -0.984337       -26.7852
  26   2.0000      -0.908080       -24.7101
  27   2.0000      -0.900386       -24.5007
  28   2.0000      -0.870233       -23.6802
  29   2.0000      -0.854794       -23.2601
  30   2.0000      -0.845976       -23.0202
  31   2.0000      -0.811998       -22.0956
  32   2.0000      -0.782613       -21.2960
  33   2.0000      -0.766506       -20.8577
  34   2.0000      -0.712447       -19.3867
  35   2.0000      -0.702109       -19.1054
  36   2.0000      -0.690116       -18.7790
  37   2.0000      -0.658431       -17.9168
  38   2.0000      -0.633624       -17.2418
  39   2.0000      -0.625770       -17.0281
  40   2.0000      -0.593098       -16.1390
  41   2.0000      -0.563579       -15.3358
  42   2.0000      -0.562094       -15.2954
  43   2.0000      -0.550088       -14.9686
  44   2.0000      -0.524949       -14.2846
  45   2.0000      -0.520364       -14.1598
  46   2.0000      -0.516792       -14.0626
  47   2.0000      -0.509544       -13.8654
  48   2.0000      -0.506937       -13.7945
  49   2.0000      -0.495716       -13.4891
  50   2.0000      -0.488139       -13.2829
  51   2.0000      -0.483042       -13.1442
  52   2.0000      -0.475544       -12.9402
  53   2.0000      -0.466828       -12.7030
  54   2.0000      -0.457166       -12.4401
  55   2.0000      -0.452798       -12.3213
  56   2.0000      -0.449996       -12.2450
  57   2.0000      -0.434111       -11.8128
  58   2.0000      -0.432301       -11.7635
  59   2.0000      -0.424785       -11.5590
  60   2.0000      -0.422304       -11.4915
  61   2.0000      -0.417527       -11.3615
  62   2.0000      -0.406868       -11.0714
  63   2.0000      -0.356458        -9.6997
  64   2.0000      -0.331698        -9.0260
  65   2.0000      -0.327646        -8.9157
  66   2.0000      -0.278721        -7.5844
  67   0.0000       0.020531         0.5587
  68   0.0000       0.075982         2.0676
  69   0.0000       0.101150         2.7524
  70   0.0000       0.124152         3.3783
  71   0.0000       0.130266         3.5447

MULLIKEN ATOMIC CHARGES
-----------------------
   0 S :    0.113019
   1 C :   -0.120105
   2 C :   -0.113201
   3 C :    0.001442
   4 C :   -0.102060
   5 H :   -0.005028
   6 C :    0.023460
   7 H :    0.045143
   8 H :    0.023011
   9 C :   -0.044653
  10 H :    0.012734
  11 H :    0.038528
  12 C :   -0.051621
  13 H :    0.029797
  14 H :    0.025895
  15 H :    0.044931
  16 S :    0.108325
  17 C :   -0.082130
  18 C :   -0.040552
  19 C :   -0.036375
  20 C :   -0.147670
  21 H :    0.024512
  22 C :    0.006312
  23 H :    0.029262
  24 H :    0.034484
  25 C :   -0.022496
  26 H :    0.049238
  27 H :    0.018268
  28 C :   -0.079952
  29 H :    0.049201
  30 H :    0.038043
  31 H :    0.029964
  32 H :    0.048454
  33 H :    0.051821
Sum of atomic charges:    0.0000000

LOEWDIN ATOMIC CHARGES
----------------------
   0 S :    0.418313
   1 C :   -0.218330
   2 C :   -0.062729
   3 C :   -0.066520
   4 C :   -0.197235
   5 H :    0.026505
   6 C :   -0.040615
   7 H :    0.035638
   8 H :    0.032274
   9 C :   -0.029972
  10 H :    0.011129
  11 H :    0.028135
  12 C :   -0.061237
  13 H :    0.027334
  14 H :    0.023093
  15 H :    0.025805
  16 S :    0.404960
  17 C :   -0.196670
  18 C :   -0.081348
  19 C :   -0.042148
  20 C :   -0.183925
  21 H :    0.035833
  22 C :   -0.041571
  23 H :    0.037105
  24 H :    0.030662
  25 C :   -0.038263
  26 H :    0.031682
  27 H :    0.021454
  28 C :   -0.069618
  29 H :    0.034732
  30 H :    0.022069
  31 H :    0.027516
  32 H :    0.028304
  33 H :    0.027638

  Mayer bond orders larger than 0.100000
B(  0-S ,  1-C ) :   1.1410 B(  0-S ,  4-C ) :   1.1352 B(  1-C ,  2-C ) :   1.6049
B(  1-C , 32-H ) :   0.9622 B(  2-C ,  3-C ) :   1.2442 B(  2-C ,  6-C ) :   1.0410
B(  3-C ,  4-C ) :   1.5597 B(  3-C ,  5-H ) :   1.0073 B(  4-C , 20-C ) :   1.1138
B(  6-C ,  7-H ) :   0.9462 B(  6-C ,  8-H ) :   0.9502 B(  6-C ,  9-C ) :   1.0135
B(  9-C , 10-H ) :   0.9575 B(  9-C , 11-H ) :   0.9669 B(  9-C , 12-C ) :   1.0822
B( 12-C , 13-H ) :   0.9771 B( 12-C , 14-H ) :   0.9748 B( 12-C , 15-H ) :   0.9784
B( 16-S , 17-C ) :   1.1726 B( 16-S , 20-C ) :   1.1233 B( 17-C , 18-C ) :   1.6216
B( 17-C , 33-H ) :   0.9606 B( 18-C , 19-C ) :   1.2387 B( 18-C , 21-H ) :   0.9873
B( 19-C , 20-C ) :   1.5539 B( 19-C , 22-C ) :   1.0459 B( 22-C , 23-H ) :   0.9390
B( 22-C , 24-H ) :   0.9289 B( 22-C , 25-C ) :   1.0482 B( 25-C , 26-H ) :   0.9541
B( 25-C , 27-H ) :   0.9545 B( 25-C , 28-C ) :   1.0752 B( 28-C , 29-H ) :   0.9734
B( 28-C , 30-H ) :   0.9766 B( 28-C , 31-H ) :   0.9759

Dispersion correction           -0.014484901
FINAL SINGLE POINT ENERGY     -1339.865491999849

DIPOLE MOMENT
-------------
                                X             Y             Z
Electronic contribution:    -23.25964       6.60829     -20.73675
Nuclear contribution   :     23.56640      -6.96255      21.20974
                        -----------------------------------------
Total Dipole Moment    :      0.30677      -0.35427       0.47299
                        -----------------------------------------
Magnitude (a.u.)       :      0.66583
Magnitude (Debye)      :      1.69241

Rotational constants in cm-1:     0.019036     0.009040     0.006714
Rotational constants in MHz :   570.697108   271.007564   201.281775

                             ****ORCA TERMINATED NORMALLY****
TOTAL RUN TIME: 0 days 0 hours 0 minutes 20 seconds 731 msec
