                         Program Version 4.2.1 -  RELEASE  -
|  1> ! wB97X-D3 SP def2-SVP
|  2> %pal
|  3> nprocs 24
|  4> end
|  5>
|  6> * xyz 0 1
|  7> S 	 -86.9569 	 3.00086 	 -116.53
|  8> C 	 -87.2332 	 1.3862 	 -116.016
|  9> C 	 -88.5277 	 0.96582 	 -116.349
| 10> C 	 -89.3064 	 1.9699 	 -116.96
| 11> C 	 -88.6193 	 3.16795 	 -116.96
| 12> H 	 -90.3468 	 2.02506 	 -117.44
| 13> C 	 -89.1201 	 -0.402338 	 -116.197
| 14> H 	 -88.3888 	 -1.0148 	 -116.703
| 15> H 	 -90.0386 	 -0.360371 	 -116.756
| 16> C 	 -89.4573 	 -0.942071 	 -114.78
| 17> H 	 -90.0158 	 -1.86538 	 -114.884
| 18> H 	 -88.4999 	 -1.1569 	 -114.243
| 19> C 	 -90.269 	 0.0999933 	 -114.002
| 20> H 	 -89.8805 	 1.02454 	 -113.795
| 21> H 	 -91.3649 	 0.254985 	 -114.34
| 22> H 	 -90.4103 	 -0.369875 	 -112.982
| 23> S 	 -88.7979 	 5.05924 	 -118.863
| 24> C 	 -89.7031 	 6.5524 	 -118.579
| 25> C 	 -90.4212 	 6.46195 	 -117.396
| 26> C 	 -90.1051 	 5.26919 	 -116.64
| 27> C 	 -89.1987 	 4.45155 	 -117.316
| 28> H 	 -91.2145 	 7.15008 	 -117.147
| 29> C 	 -90.8029 	 4.94322 	 -115.318
| 30> H 	 -91.0113 	 5.95308 	 -114.978
| 31> H 	 -90.1407 	 4.70304 	 -114.56
| 32> C 	 -92.0056 	 3.99799 	 -115.239
| 33> H 	 -92.452 	 3.98371 	 -114.231
| 34> H 	 -91.6566 	 3.05005 	 -115.296
| 35> C 	 -93.0228 	 4.22807 	 -116.365
| 36> H 	 -92.5395 	 4.17255 	 -117.391
| 37> H 	 -93.5213 	 5.16713 	 -116.277
| 38> H 	 -93.7584 	 3.43831 	 -116.478
| 39> H 	 -86.4291 	 0.749035 	 -115.545
| 40> H 	 -89.807 	 7.41506 	 -119.228
| 41> *
| 42>
| 43>                          ****END OF INPUT****

CARTESIAN COORDINATES (ANGSTROEM)
---------------------------------
  S    -86.956900    3.000860  -116.530000
  C    -87.233200    1.386200  -116.016000
  C    -88.527700    0.965820  -116.349000
  C    -89.306400    1.969900  -116.960000
  C    -88.619300    3.167950  -116.960000
  H    -90.346800    2.025060  -117.440000
  C    -89.120100   -0.402338  -116.197000
  H    -88.388800   -1.014800  -116.703000
  H    -90.038600   -0.360371  -116.756000
  C    -89.457300   -0.942071  -114.780000
  H    -90.015800   -1.865380  -114.884000
  H    -88.499900   -1.156900  -114.243000
  C    -90.269000    0.099993  -114.002000
  H    -89.880500    1.024540  -113.795000
  H    -91.364900    0.254985  -114.340000
  H    -90.410300   -0.369875  -112.982000
  S    -88.797900    5.059240  -118.863000
  C    -89.703100    6.552400  -118.579000
  C    -90.421200    6.461950  -117.396000
  C    -90.105100    5.269190  -116.640000
  C    -89.198700    4.451550  -117.316000
  H    -91.214500    7.150080  -117.147000
  C    -90.802900    4.943220  -115.318000
  H    -91.011300    5.953080  -114.978000
  H    -90.140700    4.703040  -114.560000
  C    -92.005600    3.997990  -115.239000
  H    -92.452000    3.983710  -114.231000
  H    -91.656600    3.050050  -115.296000
  C    -93.022800    4.228070  -116.365000
  H    -92.539500    4.172550  -117.391000
  H    -93.521300    5.167130  -116.277000
  H    -93.758400    3.438310  -116.478000
  H    -86.429100    0.749035  -115.545000
  H    -89.807000    7.415060  -119.228000

 Total Charge           Charge          ....    0
 Multiplicity           Mult            ....    1
 Number of Electrons    NEL             ....  134
 Basis Dimension        Dim             ....  322

ORBITAL ENERGIES
----------------

  NO   OCC          E(Eh)            E(eV)
   0   2.0000     -88.968063     -2420.9441
   1   2.0000     -88.964808     -2420.8555
   2   2.0000     -10.321243      -280.8553
   3   2.0000     -10.319580      -280.8100
   4   2.0000     -10.316898      -280.7371
   5   2.0000     -10.316527      -280.7270
   6   2.0000     -10.303020      -280.3594
   7   2.0000     -10.300319      -280.2859
   8   2.0000     -10.296755      -280.1890
   9   2.0000     -10.294233      -280.1203
  10   2.0000     -10.293897      -280.1112
  11   2.0000     -10.284085      -279.8442
  12   2.0000     -10.281362      -279.7701
  13   2.0000     -10.280081      -279.7352
  14   2.0000     -10.279367      -279.7158
  15   2.0000     -10.275517      -279.6110
  16   2.0000      -8.083654      -219.9674
  17   2.0000      -8.079859      -219.8642
  18   2.0000      -6.041898      -164.4084
  19   2.0000      -6.038395      -164.3131
  20   2.0000      -6.038043      -164.3035
  21   2.0000      -6.034647      -164.2111
  22   2.0000      -6.034204      -164.1990
  23   2.0000      -6.030703      -164.1038
  24   2.0000      -1.011268       -27.5180
  25   2.0000      -0.985512       -26.8172
  26   2.0000      -0.911538       -24.8042
  27   2.0000      -0.906488       -24.6668
  28   2.0000      -0.867809       -23.6143
  29   2.0000      -0.852435       -23.1959
  30   2.0000      -0.844247       -22.9731
  31   2.0000      -0.812108       -22.0986
  32   2.0000      -0.783775       -21.3276
  33   2.0000      -0.771377       -20.9902
  34   2.0000      -0.711386       -19.3578
  35   2.0000      -0.706056       -19.2128
  36   2.0000      -0.689505       -18.7624
  37   2.0000      -0.661145       -17.9907
  38   2.0000      -0.641998       -17.4697
  39   2.0000      -0.604332       -16.4447
  40   2.0000      -0.586824       -15.9683
  41   2.0000      -0.570919       -15.5355
  42   2.0000      -0.553497       -15.0614
  43   2.0000      -0.550723       -14.9859
  44   2.0000      -0.545709       -14.8495
  45   2.0000      -0.541962       -14.7475
  46   2.0000      -0.516521       -14.0553
  47   2.0000      -0.508213       -13.8292
  48   2.0000      -0.497426       -13.5357
  49   2.0000      -0.496079       -13.4990
  50   2.0000      -0.479293       -13.0422
  51   2.0000      -0.478267       -13.0143
  52   2.0000      -0.475503       -12.9391
  53   2.0000      -0.467126       -12.7111
  54   2.0000      -0.459976       -12.5166
  55   2.0000      -0.445772       -12.1301
  56   2.0000      -0.441340       -12.0095
  57   2.0000      -0.435185       -11.8420
  58   2.0000      -0.431419       -11.7395
  59   2.0000      -0.428866       -11.6700
  60   2.0000      -0.426829       -11.6146
  61   2.0000      -0.413874       -11.2621
  62   2.0000      -0.406098       -11.0505
  63   2.0000      -0.338780        -9.2187
  64   2.0000      -0.329623        -8.9695
  65   2.0000      -0.319752        -8.7009
  66   2.0000      -0.302216        -8.2237
  67   0.0000       0.040324         1.0973
  68   0.0000       0.057034         1.5520
  69   0.0000       0.113121         3.0782
  70   0.0000       0.118657         3.2288
  71   0.0000       0.126904         3.4532

MULLIKEN ATOMIC CHARGES
-----------------------
   0 S :    0.143242
   1 C :   -0.150148
   2 C :   -0.108139
   3 C :    0.022279
   4 C :   -0.190424
   5 H :    0.054658
   6 C :    0.087964
   7 H :    0.032065
   8 H :    0.011485
   9 C :   -0.044883
  10 H :    0.037383
  11 H :    0.034373
  12 C :   -0.081435
  13 H :    0.034698
  14 H :    0.040739
  15 H :    0.028253
  16 S :    0.117712
  17 C :   -0.092847
  18 C :   -0.042211
  19 C :   -0.055874
  20 C :   -0.197398
  21 H :    0.022080
  22 C :    0.115603
  23 H :    0.000260
  24 H :    0.004913
  25 C :    0.014079
  26 H :    0.024628
  27 H :   -0.012663
  28 C :   -0.071166
  29 H :    0.042943
  30 H :    0.029614
  31 H :    0.024014
  32 H :    0.068387
  33 H :    0.055816
Sum of atomic charges:   -0.0000000

LOEWDIN ATOMIC CHARGES
----------------------
   0 S :    0.440821
   1 C :   -0.225496
   2 C :   -0.066488
   3 C :   -0.069841
   4 C :   -0.212561
   5 H :    0.053524
   6 C :   -0.034857
   7 H :    0.031126
   8 H :    0.026824
   9 C :   -0.034730
  10 H :    0.028047
  11 H :    0.027865
  12 C :   -0.072056
  13 H :    0.011600
  14 H :    0.032856
  15 H :    0.032701
  16 S :    0.419858
  17 C :   -0.187908
  18 C :   -0.068545
  19 C :   -0.055637
  20 C :   -0.218183
  21 H :    0.031069
  22 C :   -0.030904
  23 H :    0.029322
  24 H :    0.025239
  25 C :   -0.030397
  26 H :    0.031620
  27 H :    0.007142
  28 C :   -0.068990
  29 H :    0.034408
  30 H :    0.019053
  31 H :    0.022989
  32 H :    0.039749
  33 H :    0.030784

  Mayer bond orders larger than 0.100000
B(  0-S ,  1-C ) :   1.1548 B(  0-S ,  4-C ) :   1.1842 B(  1-C ,  2-C ) :   1.5700
B(  1-C ,  4-C ) :   0.1046 B(  1-C , 32-H ) :   0.9667 B(  2-C ,  3-C ) :   1.2542
B(  2-C ,  6-C ) :   1.0136 B(  3-C ,  4-C ) :   1.5725 B(  3-C ,  5-H ) :   0.9741
B(  4-C , 20-C ) :   1.0045 B(  6-C ,  7-H ) :   0.9349 B(  6-C ,  8-H ) :   0.9398
B(  6-C ,  9-C ) :   1.0753 B(  9-C , 10-H ) :   0.9557 B(  9-C , 11-H ) :   0.9547
B(  9-C , 12-C ) :   1.0765 B( 12-C , 13-H ) :   0.9757 B( 12-C , 14-H ) :   0.9732
B( 12-C , 15-H ) :   0.9698 B( 16-S , 17-C ) :   1.1448 B( 16-S , 20-C ) :   1.1725
B( 17-C , 18-C ) :   1.6132 B( 17-C , 33-H ) :   0.9674 B( 18-C , 19-C ) :   1.2497
B( 18-C , 21-H ) :   0.9840 B( 19-C , 20-C ) :   1.5891 B( 19-C , 22-C ) :   1.0312
B( 22-C , 23-H ) :   0.9263 B( 22-C , 24-H ) :   0.9229 B( 22-C , 25-C ) :   1.0684
B( 25-C , 26-H ) :   0.9471 B( 25-C , 27-H ) :   0.9456 B( 25-C , 28-C ) :   1.0833
B( 28-C , 29-H ) :   0.9674 B( 28-C , 30-H ) :   0.9795 B( 28-C , 31-H ) :   0.9742

Dispersion correction           -0.016414432
FINAL SINGLE POINT ENERGY     -1339.861011733635

DIPOLE MOMENT
-------------
                                X             Y             Z
Electronic contribution:     20.60324      12.72574     -15.41221
Nuclear contribution   :    -21.04060     -13.04564      15.71606
                        -----------------------------------------
Total Dipole Moment    :     -0.43736      -0.31990       0.30385
                        -----------------------------------------
Magnitude (a.u.)       :      0.62125
Magnitude (Debye)      :      1.57909

Rotational constants in cm-1:     0.019669     0.010209     0.007576
Rotational constants in MHz :   589.675550   306.061191   227.123079

                             ****ORCA TERMINATED NORMALLY****
TOTAL RUN TIME: 0 days 0 hours 0 minutes 23 seconds 121 msec
