                         Program Version 4.2.1 -  RELEASE  -
|  1> ! wB97X-D3 SP def2-SVP
|  2> %pal
|  3> nprocs 24
|  4> end
|  5>
|  6> * xyz 0 1
|  7> S 	 -51.34 	 -50.216 	 -80.0007
|  8> C 	 -50.8377 	 -51.6364 	 -80.9482
|  9> C 	 -51.9205 	 -52.4779 	 -81.1208
| 10> C 	 -53.1692 	 -51.8353 	 -80.7343
| 11> C 	 -53.0169 	 -50.5663 	 -80.2081
| 12> H 	 -54.1929 	 -52.2893 	 -80.8708
| 13> C 	 -51.9037 	 -53.7674 	 -81.9581
| 14> H 	 -51.778 	 -54.5248 	 -81.2409
| 15> H 	 -50.9662 	 -53.9197 	 -82.547
| 16> C 	 -53.1539 	 -54.1123 	 -82.9471
| 17> H 	 -54.0959 	 -53.882 	 -82.4671
| 18> H 	 -53.1913 	 -53.4759 	 -83.8171
| 19> C 	 -53.1672 	 -55.6242 	 -83.2692
| 20> H 	 -52.3386 	 -55.8524 	 -83.886
| 21> H 	 -53.0882 	 -56.1352 	 -82.3409
| 22> H 	 -54.0916 	 -55.9789 	 -83.7305
| 23> S 	 -53.618 	 -49.0546 	 -78.0262
| 24> C 	 -55.1589 	 -48.2427 	 -77.9635
| 25> C 	 -55.9751 	 -48.5126 	 -79.1061
| 26> C 	 -55.3421 	 -49.3962 	 -80.0083
| 27> C 	 -54.0238 	 -49.7207 	 -79.5806
| 28> H 	 -56.9437 	 -48.1137 	 -79.1818
| 29> C 	 -55.9483 	 -49.958 	 -81.3012
| 30> H 	 -55.0638 	 -50.1381 	 -81.8594
| 31> H 	 -56.4421 	 -49.1572 	 -81.8929
| 32> C 	 -56.852 	 -51.2409 	 -81.1558
| 33> H 	 -57.597 	 -51.0436 	 -80.3545
| 34> H 	 -56.2127 	 -52.0787 	 -80.7887
| 35> C 	 -57.5282 	 -51.6663 	 -82.466
| 36> H 	 -57.9342 	 -52.6541 	 -82.2954
| 37> H 	 -56.7912 	 -51.6959 	 -83.2411
| 38> H 	 -58.3439 	 -50.9497 	 -82.8722
| 39> H 	 -49.802 	 -51.8424 	 -81.2518
| 40> H 	 -55.4188 	 -47.6154 	 -77.1363
| 41> *
| 42>
| 43>                          ****END OF INPUT****

CARTESIAN COORDINATES (ANGSTROEM)
---------------------------------
  S    -51.340000  -50.216000  -80.000700
  C    -50.837700  -51.636400  -80.948200
  C    -51.920500  -52.477900  -81.120800
  C    -53.169200  -51.835300  -80.734300
  C    -53.016900  -50.566300  -80.208100
  H    -54.192900  -52.289300  -80.870800
  C    -51.903700  -53.767400  -81.958100
  H    -51.778000  -54.524800  -81.240900
  H    -50.966200  -53.919700  -82.547000
  C    -53.153900  -54.112300  -82.947100
  H    -54.095900  -53.882000  -82.467100
  H    -53.191300  -53.475900  -83.817100
  C    -53.167200  -55.624200  -83.269200
  H    -52.338600  -55.852400  -83.886000
  H    -53.088200  -56.135200  -82.340900
  H    -54.091600  -55.978900  -83.730500
  S    -53.618000  -49.054600  -78.026200
  C    -55.158900  -48.242700  -77.963500
  C    -55.975100  -48.512600  -79.106100
  C    -55.342100  -49.396200  -80.008300
  C    -54.023800  -49.720700  -79.580600
  H    -56.943700  -48.113700  -79.181800
  C    -55.948300  -49.958000  -81.301200
  H    -55.063800  -50.138100  -81.859400
  H    -56.442100  -49.157200  -81.892900
  C    -56.852000  -51.240900  -81.155800
  H    -57.597000  -51.043600  -80.354500
  H    -56.212700  -52.078700  -80.788700
  C    -57.528200  -51.666300  -82.466000
  H    -57.934200  -52.654100  -82.295400
  H    -56.791200  -51.695900  -83.241100
  H    -58.343900  -50.949700  -82.872200
  H    -49.802000  -51.842400  -81.251800
  H    -55.418800  -47.615400  -77.136300

 Total Charge           Charge          ....    0
 Multiplicity           Mult            ....    1
 Number of Electrons    NEL             ....  134
 Basis Dimension        Dim             ....  322

ORBITAL ENERGIES
----------------

  NO   OCC          E(Eh)            E(eV)
   0   2.0000     -88.971027     -2421.0247
   1   2.0000     -88.963626     -2420.8233
   2   2.0000     -10.328572      -281.0547
   3   2.0000     -10.327634      -281.0292
   4   2.0000     -10.318579      -280.7828
   5   2.0000     -10.318452      -280.7793
   6   2.0000     -10.308426      -280.5065
   7   2.0000     -10.306162      -280.4449
   8   2.0000     -10.299694      -280.2689
   9   2.0000     -10.299350      -280.2596
  10   2.0000     -10.297804      -280.2175
  11   2.0000     -10.295610      -280.1578
  12   2.0000     -10.294358      -280.1237
  13   2.0000     -10.292588      -280.0756
  14   2.0000     -10.285676      -279.8875
  15   2.0000     -10.276120      -279.6274
  16   2.0000      -8.085722      -220.0237
  17   2.0000      -8.078549      -219.8285
  18   2.0000      -6.044021      -164.4662
  19   2.0000      -6.040177      -164.3616
  20   2.0000      -6.037170      -164.2798
  21   2.0000      -6.036777      -164.2690
  22   2.0000      -6.033065      -164.1680
  23   2.0000      -6.029139      -164.0612
  24   2.0000      -1.006466       -27.3873
  25   2.0000      -0.979832       -26.6626
  26   2.0000      -0.904188       -24.6042
  27   2.0000      -0.901850       -24.5406
  28   2.0000      -0.868671       -23.6377
  29   2.0000      -0.854791       -23.2600
  30   2.0000      -0.841715       -22.9042
  31   2.0000      -0.811036       -22.0694
  32   2.0000      -0.782257       -21.2863
  33   2.0000      -0.768470       -20.9111
  34   2.0000      -0.713493       -19.4151
  35   2.0000      -0.700286       -19.0557
  36   2.0000      -0.693445       -18.8696
  37   2.0000      -0.664352       -18.0779
  38   2.0000      -0.638644       -17.3784
  39   2.0000      -0.617352       -16.7990
  40   2.0000      -0.592583       -16.1250
  41   2.0000      -0.564058       -15.3488
  42   2.0000      -0.560124       -15.2418
  43   2.0000      -0.556062       -15.1312
  44   2.0000      -0.530704       -14.4412
  45   2.0000      -0.524863       -14.2823
  46   2.0000      -0.516952       -14.0670
  47   2.0000      -0.509039       -13.8516
  48   2.0000      -0.502546       -13.6750
  49   2.0000      -0.499917       -13.6034
  50   2.0000      -0.491939       -13.3863
  51   2.0000      -0.483162       -13.1475
  52   2.0000      -0.464738       -12.6462
  53   2.0000      -0.462954       -12.5976
  54   2.0000      -0.459587       -12.5060
  55   2.0000      -0.454654       -12.3718
  56   2.0000      -0.446019       -12.1368
  57   2.0000      -0.441040       -12.0013
  58   2.0000      -0.438327       -11.9275
  59   2.0000      -0.429169       -11.6783
  60   2.0000      -0.422400       -11.4941
  61   2.0000      -0.418919       -11.3994
  62   2.0000      -0.412295       -11.2191
  63   2.0000      -0.349112        -9.4998
  64   2.0000      -0.335485        -9.1290
  65   2.0000      -0.327425        -8.9097
  66   2.0000      -0.283989        -7.7277
  67   0.0000       0.025466         0.6930
  68   0.0000       0.069608         1.8941
  69   0.0000       0.105773         2.8782
  70   0.0000       0.121005         3.2927
  71   0.0000       0.122582         3.3356

MULLIKEN ATOMIC CHARGES
-----------------------
   0 S :    0.089218
   1 C :   -0.138740
   2 C :   -0.045101
   3 C :   -0.000164
   4 C :   -0.128718
   5 H :    0.009382
   6 C :    0.036436
   7 H :    0.020740
   8 H :    0.027030
   9 C :   -0.065561
  10 H :    0.018808
  11 H :    0.036751
  12 C :   -0.039261
  13 H :    0.030574
  14 H :    0.023636
  15 H :    0.036697
  16 S :    0.124535
  17 C :   -0.105919
  18 C :   -0.011439
  19 C :   -0.036884
  20 C :   -0.157778
  21 H :    0.001593
  22 C :    0.052991
  23 H :    0.019912
  24 H :    0.028465
  25 C :   -0.080736
  26 H :    0.036706
  27 H :    0.035027
  28 C :   -0.043671
  29 H :    0.039644
  30 H :    0.024008
  31 H :    0.047740
  32 H :    0.059835
  33 H :    0.054244
Sum of atomic charges:   -0.0000000

LOEWDIN ATOMIC CHARGES
----------------------
   0 S :    0.394852
   1 C :   -0.190061
   2 C :   -0.060673
   3 C :   -0.074075
   4 C :   -0.200155
   5 H :    0.034270
   6 C :   -0.032987
   7 H :    0.025386
   8 H :    0.034794
   9 C :   -0.032599
  10 H :    0.017027
  11 H :    0.022646
  12 C :   -0.057746
  13 H :    0.020172
  14 H :    0.022422
  15 H :    0.028846
  16 S :    0.426312
  17 C :   -0.190117
  18 C :   -0.059542
  19 C :   -0.053857
  20 C :   -0.204186
  21 H :    0.024776
  22 C :   -0.037216
  23 H :    0.025226
  24 H :    0.033392
  25 C :   -0.039711
  26 H :    0.027359
  27 H :    0.024485
  28 C :   -0.068598
  29 H :    0.027289
  30 H :    0.020144
  31 H :    0.036290
  32 H :    0.034011
  33 H :    0.021823

  Mayer bond orders larger than 0.100000
B(  0-S ,  1-C ) :   1.1243 B(  0-S ,  4-C ) :   1.1466 B(  1-C ,  2-C ) :   1.6169
B(  1-C , 32-H ) :   0.9701 B(  2-C ,  3-C ) :   1.2339 B(  2-C ,  6-C ) :   1.0096
B(  3-C ,  4-C ) :   1.5659 B(  3-C ,  5-H ) :   0.9780 B(  4-C , 20-C ) :   1.0510
B(  6-C ,  7-H ) :   0.9331 B(  6-C ,  8-H ) :   0.9528 B(  6-C ,  9-C ) :   1.0468
B(  9-C , 10-H ) :   0.9556 B(  9-C , 11-H ) :   0.9615 B(  9-C , 12-C ) :   1.0746
B( 12-C , 13-H ) :   0.9805 B( 12-C , 14-H ) :   0.9771 B( 12-C , 15-H ) :   0.9748
B( 16-S , 17-C ) :   1.1728 B( 16-S , 20-C ) :   1.1688 B( 17-C , 18-C ) :   1.5498
B( 17-C , 20-C ) :   0.1128 B( 17-C , 33-H ) :   0.9736 B( 18-C , 19-C ) :   1.2801
B( 18-C , 21-H ) :   1.0027 B( 19-C , 20-C ) :   1.5431 B( 19-C , 22-C ) :   1.0391
B( 22-C , 23-H ) :   0.9236 B( 22-C , 24-H ) :   0.9409 B( 22-C , 25-C ) :   1.0499
B( 25-C , 26-H ) :   0.9559 B( 25-C , 27-H ) :   0.9484 B( 25-C , 28-C ) :   1.0770
B( 28-C , 29-H ) :   0.9738 B( 28-C , 30-H ) :   0.9735 B( 28-C , 31-H ) :   0.9738

Dispersion correction           -0.014383046
FINAL SINGLE POINT ENERGY     -1339.874979800859

DIPOLE MOMENT
-------------
                                X             Y             Z
Electronic contribution:     15.33432      21.96494      21.28550
Nuclear contribution   :    -15.72940     -22.44177     -21.66013
                        -----------------------------------------
Total Dipole Moment    :     -0.39508      -0.47683      -0.37464
                        -----------------------------------------
Magnitude (a.u.)       :      0.72375
Magnitude (Debye)      :      1.83961

Rotational constants in cm-1:     0.016913     0.009808     0.006521
Rotational constants in MHz :   507.045735   294.044073   195.495796

                             ****ORCA TERMINATED NORMALLY****
TOTAL RUN TIME: 0 days 0 hours 0 minutes 20 seconds 555 msec
