                         Program Version 4.2.1 -  RELEASE  -
|  1> ! wB97X-D3 SP def2-SVP
|  2> %pal
|  3> nprocs 24
|  4> end
|  5>
|  6> * xyz 0 1
|  7> S 	 -49.3103 	 13.5381 	 25.0429
|  8> C 	 -49.2256 	 14.9749 	 24.0799
|  9> C 	 -47.9696 	 15.5266 	 24.2147
| 10> C 	 -47.0673 	 14.6812 	 25.0124
| 11> C 	 -47.6479 	 13.557 	 25.5374
| 12> H 	 -45.9812 	 14.9393 	 25.2104
| 13> C 	 -47.44 	 16.6916 	 23.4469
| 14> H 	 -46.7471 	 17.2653 	 24.0631
| 15> H 	 -48.1907 	 17.4267 	 22.9798
| 16> C 	 -46.5364 	 16.2164 	 22.3176
| 17> H 	 -45.8897 	 15.3875 	 22.6026
| 18> H 	 -47.2833 	 15.8611 	 21.6114
| 19> C 	 -45.8055 	 17.3399 	 21.6875
| 20> H 	 -45.2903 	 17.0751 	 20.7586
| 21> H 	 -46.602 	 18.0601 	 21.3664
| 22> H 	 -45.1296 	 17.9795 	 22.3244
| 23> S 	 -46.8848 	 10.8835 	 25.6968
| 24> C 	 -46.1037 	 10.2839 	 27.1533
| 25> C 	 -45.9167 	 11.3184 	 28.0207
| 26> C 	 -46.407 	 12.5447 	 27.5506
| 27> C 	 -46.9706 	 12.5249 	 26.3206
| 28> H 	 -45.5197 	 11.034 	 28.9961
| 29> C 	 -46.5705 	 13.675 	 28.5732
| 30> H 	 -46.2192 	 14.5461 	 28.0648
| 31> H 	 -45.8556 	 13.568 	 29.3572
| 32> C 	 -47.9541 	 13.8535 	 29.141
| 33> H 	 -48.8066 	 13.6716 	 28.4683
| 34> H 	 -48.1941 	 14.9188 	 29.371
| 35> C 	 -48.1235 	 13.0572 	 30.4274
| 36> H 	 -49.1762 	 13.0636 	 30.8997
| 37> H 	 -47.3502 	 13.2619 	 31.1658
| 38> H 	 -48.0789 	 12.0292 	 30.1954
| 39> H 	 -49.9953 	 15.4158 	 23.5652
| 40> H 	 -45.6447 	 9.29796 	 27.3037
| 41> *
| 42>
| 43>                          ****END OF INPUT****

CARTESIAN COORDINATES (ANGSTROEM)
---------------------------------
  S    -49.310300   13.538100   25.042900
  C    -49.225600   14.974900   24.079900
  C    -47.969600   15.526600   24.214700
  C    -47.067300   14.681200   25.012400
  C    -47.647900   13.557000   25.537400
  H    -45.981200   14.939300   25.210400
  C    -47.440000   16.691600   23.446900
  H    -46.747100   17.265300   24.063100
  H    -48.190700   17.426700   22.979800
  C    -46.536400   16.216400   22.317600
  H    -45.889700   15.387500   22.602600
  H    -47.283300   15.861100   21.611400
  C    -45.805500   17.339900   21.687500
  H    -45.290300   17.075100   20.758600
  H    -46.602000   18.060100   21.366400
  H    -45.129600   17.979500   22.324400
  S    -46.884800   10.883500   25.696800
  C    -46.103700   10.283900   27.153300
  C    -45.916700   11.318400   28.020700
  C    -46.407000   12.544700   27.550600
  C    -46.970600   12.524900   26.320600
  H    -45.519700   11.034000   28.996100
  C    -46.570500   13.675000   28.573200
  H    -46.219200   14.546100   28.064800
  H    -45.855600   13.568000   29.357200
  C    -47.954100   13.853500   29.141000
  H    -48.806600   13.671600   28.468300
  H    -48.194100   14.918800   29.371000
  C    -48.123500   13.057200   30.427400
  H    -49.176200   13.063600   30.899700
  H    -47.350200   13.261900   31.165800
  H    -48.078900   12.029200   30.195400
  H    -49.995300   15.415800   23.565200
  H    -45.644700    9.297960   27.303700

 Total Charge           Charge          ....    0
 Multiplicity           Mult            ....    1
 Number of Electrons    NEL             ....  134
 Basis Dimension        Dim             ....  322

ORBITAL ENERGIES
----------------

  NO   OCC          E(Eh)            E(eV)
   0   2.0000     -88.965326     -2420.8696
   1   2.0000     -88.964070     -2420.8354
   2   2.0000     -10.331895      -281.1451
   3   2.0000     -10.327180      -281.0168
   4   2.0000     -10.318340      -280.7763
   5   2.0000     -10.311215      -280.5824
   6   2.0000     -10.305161      -280.4177
   7   2.0000     -10.302220      -280.3377
   8   2.0000     -10.298567      -280.2383
   9   2.0000     -10.295593      -280.1573
  10   2.0000     -10.289715      -279.9974
  11   2.0000     -10.283418      -279.8260
  12   2.0000     -10.282925      -279.8126
  13   2.0000     -10.282117      -279.7906
  14   2.0000     -10.280496      -279.7465
  15   2.0000     -10.273945      -279.5682
  16   2.0000      -8.080499      -219.8815
  17   2.0000      -8.078768      -219.8344
  18   2.0000      -6.039098      -164.3322
  19   2.0000      -6.037321      -164.2838
  20   2.0000      -6.034803      -164.2153
  21   2.0000      -6.033187      -164.1714
  22   2.0000      -6.031242      -164.1184
  23   2.0000      -6.029550      -164.0724
  24   2.0000      -1.012234       -27.5443
  25   2.0000      -0.991486       -26.9797
  26   2.0000      -0.922894       -25.1132
  27   2.0000      -0.909738       -24.7552
  28   2.0000      -0.877319       -23.8731
  29   2.0000      -0.848392       -23.0859
  30   2.0000      -0.844765       -22.9872
  31   2.0000      -0.821196       -22.3459
  32   2.0000      -0.779287       -21.2055
  33   2.0000      -0.772593       -21.0233
  34   2.0000      -0.712519       -19.3886
  35   2.0000      -0.695037       -18.9129
  36   2.0000      -0.694078       -18.8868
  37   2.0000      -0.662244       -18.0206
  38   2.0000      -0.647797       -17.6274
  39   2.0000      -0.622269       -16.9328
  40   2.0000      -0.594955       -16.1896
  41   2.0000      -0.577983       -15.7277
  42   2.0000      -0.568463       -15.4687
  43   2.0000      -0.552072       -15.0226
  44   2.0000      -0.542491       -14.7619
  45   2.0000      -0.524894       -14.2831
  46   2.0000      -0.522034       -14.2053
  47   2.0000      -0.517860       -14.0917
  48   2.0000      -0.512283       -13.9399
  49   2.0000      -0.498643       -13.5688
  50   2.0000      -0.489811       -13.3284
  51   2.0000      -0.480296       -13.0695
  52   2.0000      -0.469259       -12.7692
  53   2.0000      -0.461940       -12.5700
  54   2.0000      -0.456160       -12.4128
  55   2.0000      -0.452044       -12.3007
  56   2.0000      -0.440379       -11.9833
  57   2.0000      -0.434071       -11.8117
  58   2.0000      -0.431381       -11.7385
  59   2.0000      -0.423160       -11.5148
  60   2.0000      -0.416779       -11.3411
  61   2.0000      -0.415452       -11.3050
  62   2.0000      -0.399256       -10.8643
  63   2.0000      -0.347022        -9.4430
  64   2.0000      -0.333581        -9.0772
  65   2.0000      -0.323775        -8.8104
  66   2.0000      -0.306302        -8.3349
  67   0.0000       0.035777         0.9735
  68   0.0000       0.066350         1.8055
  69   0.0000       0.115771         3.1503
  70   0.0000       0.125815         3.4236
  71   0.0000       0.135340         3.6828

MULLIKEN ATOMIC CHARGES
-----------------------
   0 S :    0.112759
   1 C :   -0.081908
   2 C :   -0.064220
   3 C :    0.007885
   4 C :   -0.152901
   5 H :    0.041123
   6 C :    0.017468
   7 H :    0.016821
   8 H :    0.039930
   9 C :   -0.071081
  10 H :    0.040752
  11 H :    0.021707
  12 C :   -0.052586
  13 H :    0.040099
  14 H :    0.016777
  15 H :    0.038293
  16 S :    0.102575
  17 C :   -0.103691
  18 C :   -0.049900
  19 C :   -0.026299
  20 C :   -0.167861
  21 H :    0.024240
  22 C :    0.129252
  23 H :    0.006989
  24 H :    0.001432
  25 C :   -0.044298
  26 H :    0.028588
  27 H :    0.025959
  28 C :   -0.069360
  29 H :    0.038188
  30 H :    0.031548
  31 H :    0.016852
  32 H :    0.017972
  33 H :    0.066895
Sum of atomic charges:    0.0000000

LOEWDIN ATOMIC CHARGES
----------------------
   0 S :    0.416949
   1 C :   -0.187352
   2 C :   -0.060394
   3 C :   -0.064487
   4 C :   -0.204069
   5 H :    0.041263
   6 C :   -0.038881
   7 H :    0.025654
   8 H :    0.037349
   9 C :   -0.045377
  10 H :    0.024077
  11 H :    0.027197
  12 C :   -0.074505
  13 H :    0.028187
  14 H :    0.028089
  15 H :    0.027493
  16 S :    0.400785
  17 C :   -0.181263
  18 C :   -0.079737
  19 C :   -0.057815
  20 C :   -0.194832
  21 H :    0.035490
  22 C :   -0.023118
  23 H :    0.028061
  24 H :    0.025052
  25 C :   -0.044769
  26 H :    0.028117
  27 H :    0.028051
  28 C :   -0.072983
  29 H :    0.035766
  30 H :    0.021827
  31 H :    0.016855
  32 H :    0.015341
  33 H :    0.037976

  Mayer bond orders larger than 0.100000
B(  0-S ,  1-C ) :   1.1331 B(  0-S ,  4-C ) :   1.1474 B(  1-C ,  2-C ) :   1.6065
B(  1-C , 32-H ) :   0.9840 B(  2-C ,  3-C ) :   1.2195 B(  2-C ,  6-C ) :   1.0500
B(  3-C ,  4-C ) :   1.6048 B(  3-C ,  5-H ) :   0.9789 B(  4-C , 20-C ) :   1.0186
B(  6-C ,  7-H ) :   0.9353 B(  6-C ,  8-H ) :   0.9476 B(  6-C ,  9-C ) :   1.0483
B(  9-C , 10-H ) :   0.9567 B(  9-C , 11-H ) :   0.9502 B(  9-C , 12-C ) :   1.0878
B( 12-C , 13-H ) :   0.9708 B( 12-C , 14-H ) :   0.9654 B( 12-C , 15-H ) :   0.9734
B( 16-S , 17-C ) :   1.1574 B( 16-S , 20-C ) :   1.1359 B( 17-C , 18-C ) :   1.6184
B( 17-C , 33-H ) :   0.9610 B( 18-C , 19-C ) :   1.2421 B( 18-C , 21-H ) :   0.9898
B( 19-C , 20-C ) :   1.6158 B( 19-C , 22-C ) :   1.0488 B( 22-C , 23-H ) :   0.9166
B( 22-C , 24-H ) :   0.9347 B( 22-C , 25-C ) :   1.0545 B( 25-C , 26-H ) :   0.9554
B( 25-C , 27-H ) :   0.9542 B( 25-C , 28-C ) :   1.0790 B( 28-C , 29-H ) :   0.9701
B( 28-C , 30-H ) :   0.9764 B( 28-C , 31-H ) :   0.9734

Dispersion correction           -0.014533735
FINAL SINGLE POINT ENERGY     -1339.872961457703

DIPOLE MOMENT
-------------
                                X             Y             Z
Electronic contribution:     -5.93582     -18.38470      -3.33979
Nuclear contribution   :      6.23600      18.75854       3.43359
                        -----------------------------------------
Total Dipole Moment    :      0.30017       0.37385       0.09380
                        -----------------------------------------
Magnitude (a.u.)       :      0.48853
Magnitude (Debye)      :      1.24175

Rotational constants in cm-1:     0.021596     0.007575     0.007027
Rotational constants in MHz :   647.437940   227.091998   210.651827

                             ****ORCA TERMINATED NORMALLY****
TOTAL RUN TIME: 0 days 0 hours 0 minutes 21 seconds 508 msec
