                         Program Version 4.2.1 -  RELEASE  -
|  1> ! wB97X-D3 SP def2-SVP
|  2> %pal
|  3> nprocs 24
|  4> end
|  5>
|  6> * xyz 0 1
|  7> S 	 -105.44 	 42.1337 	 -92.631
|  8> C 	 -104.429 	 40.6919 	 -92.5692
|  9> C 	 -103.195 	 40.9862 	 -93.1013
| 10> C 	 -103.018 	 42.4021 	 -93.2534
| 11> C 	 -104.066 	 43.1364 	 -92.9189
| 12> H 	 -102.023 	 42.8361 	 -93.4645
| 13> C 	 -102.012 	 40.0068 	 -93.0413
| 14> H 	 -102.1 	 39.3503 	 -92.2068
| 15> H 	 -101.107 	 40.6617 	 -92.9144
| 16> C 	 -101.827 	 39.1986 	 -94.3267
| 17> H 	 -102.798 	 38.6266 	 -94.3478
| 18> H 	 -101.991 	 39.865 	 -95.1876
| 19> C 	 -100.479 	 38.3714 	 -94.3992
| 20> H 	 -99.5856 	 39.0191 	 -94.558
| 21> H 	 -100.323 	 37.7018 	 -93.5108
| 22> H 	 -100.602 	 37.6518 	 -95.2719
| 23> S 	 -105.265 	 45.202 	 -91.5575
| 24> C 	 -104.927 	 46.8572 	 -92.007
| 25> C 	 -104.032 	 46.9583 	 -93.0379
| 26> C 	 -103.545 	 45.7131 	 -93.5406
| 27> C 	 -104.187 	 44.6015 	 -92.901
| 28> H 	 -103.976 	 47.9714 	 -93.3985
| 29> C 	 -102.577 	 45.7162 	 -94.6358
| 30> H 	 -101.789 	 44.9832 	 -94.4209
| 31> H 	 -102.089 	 46.7291 	 -94.7386
| 32> C 	 -103.206 	 45.3465 	 -96.0012
| 33> H 	 -104.044 	 46.0449 	 -96.2357
| 34> H 	 -103.859 	 44.4066 	 -95.9416
| 35> C 	 -102.141 	 45.1058 	 -97.1145
| 36> H 	 -101.58 	 46.0305 	 -97.2369
| 37> H 	 -102.59 	 45.0296 	 -98.1172
| 38> H 	 -101.59 	 44.2878 	 -96.8058
| 39> H 	 -104.678 	 39.7113 	 -92.4298
| 40> H 	 -105.485 	 47.7223 	 -91.671
| 41> *
| 42>
| 43>                          ****END OF INPUT****

CARTESIAN COORDINATES (ANGSTROEM)
---------------------------------
  S    -105.440000   42.133700  -92.631000
  C    -104.429000   40.691900  -92.569200
  C    -103.195000   40.986200  -93.101300
  C    -103.018000   42.402100  -93.253400
  C    -104.066000   43.136400  -92.918900
  H    -102.023000   42.836100  -93.464500
  C    -102.012000   40.006800  -93.041300
  H    -102.100000   39.350300  -92.206800
  H    -101.107000   40.661700  -92.914400
  C    -101.827000   39.198600  -94.326700
  H    -102.798000   38.626600  -94.347800
  H    -101.991000   39.865000  -95.187600
  C    -100.479000   38.371400  -94.399200
  H    -99.585600   39.019100  -94.558000
  H    -100.323000   37.701800  -93.510800
  H    -100.602000   37.651800  -95.271900
  S    -105.265000   45.202000  -91.557500
  C    -104.927000   46.857200  -92.007000
  C    -104.032000   46.958300  -93.037900
  C    -103.545000   45.713100  -93.540600
  C    -104.187000   44.601500  -92.901000
  H    -103.976000   47.971400  -93.398500
  C    -102.577000   45.716200  -94.635800
  H    -101.789000   44.983200  -94.420900
  H    -102.089000   46.729100  -94.738600
  C    -103.206000   45.346500  -96.001200
  H    -104.044000   46.044900  -96.235700
  H    -103.859000   44.406600  -95.941600
  C    -102.141000   45.105800  -97.114500
  H    -101.580000   46.030500  -97.236900
  H    -102.590000   45.029600  -98.117200
  H    -101.590000   44.287800  -96.805800
  H    -104.678000   39.711300  -92.429800
  H    -105.485000   47.722300  -91.671000

 Total Charge           Charge          ....    0
 Multiplicity           Mult            ....    1
 Number of Electrons    NEL             ....  134
 Basis Dimension        Dim             ....  322

ORBITAL ENERGIES
----------------

  NO   OCC          E(Eh)            E(eV)
   0   2.0000     -88.964903     -2420.8581
   1   2.0000     -88.964736     -2420.8535
   2   2.0000     -10.338813      -281.3334
   3   2.0000     -10.325854      -280.9808
   4   2.0000     -10.314535      -280.6728
   5   2.0000     -10.312599      -280.6201
   6   2.0000     -10.307884      -280.4918
   7   2.0000     -10.299185      -280.2551
   8   2.0000     -10.297258      -280.2026
   9   2.0000     -10.297211      -280.2014
  10   2.0000     -10.294273      -280.1214
  11   2.0000     -10.293526      -280.1011
  12   2.0000     -10.292590      -280.0756
  13   2.0000     -10.291297      -280.0404
  14   2.0000     -10.289882      -280.0019
  15   2.0000     -10.277278      -279.6590
  16   2.0000      -8.079887      -219.8649
  17   2.0000      -8.078586      -219.8295
  18   2.0000      -6.038541      -164.3171
  19   2.0000      -6.037162      -164.2795
  20   2.0000      -6.034481      -164.2066
  21   2.0000      -6.033205      -164.1718
  22   2.0000      -6.030288      -164.0925
  23   2.0000      -6.029374      -164.0676
  24   2.0000      -1.010614       -27.5002
  25   2.0000      -0.982090       -26.7240
  26   2.0000      -0.910637       -24.7797
  27   2.0000      -0.907966       -24.7070
  28   2.0000      -0.868211       -23.6252
  29   2.0000      -0.851643       -23.1744
  30   2.0000      -0.842161       -22.9164
  31   2.0000      -0.818446       -22.2711
  32   2.0000      -0.781375       -21.2623
  33   2.0000      -0.771419       -20.9914
  34   2.0000      -0.711366       -19.3573
  35   2.0000      -0.698475       -19.0065
  36   2.0000      -0.692417       -18.8416
  37   2.0000      -0.658971       -17.9315
  38   2.0000      -0.641857       -17.4658
  39   2.0000      -0.624996       -17.0070
  40   2.0000      -0.597066       -16.2470
  41   2.0000      -0.569132       -15.4869
  42   2.0000      -0.562646       -15.3104
  43   2.0000      -0.555340       -15.1116
  44   2.0000      -0.527146       -14.3444
  45   2.0000      -0.522530       -14.2188
  46   2.0000      -0.516941       -14.0667
  47   2.0000      -0.511843       -13.9280
  48   2.0000      -0.503802       -13.7091
  49   2.0000      -0.499365       -13.5884
  50   2.0000      -0.491346       -13.3702
  51   2.0000      -0.489088       -13.3088
  52   2.0000      -0.468328       -12.7439
  53   2.0000      -0.465833       -12.6760
  54   2.0000      -0.460880       -12.5412
  55   2.0000      -0.449594       -12.2341
  56   2.0000      -0.438789       -11.9401
  57   2.0000      -0.437264       -11.8986
  58   2.0000      -0.434664       -11.8278
  59   2.0000      -0.426307       -11.6004
  60   2.0000      -0.414048       -11.2668
  61   2.0000      -0.412350       -11.2206
  62   2.0000      -0.409044       -11.1307
  63   2.0000      -0.355328        -9.6690
  64   2.0000      -0.330502        -8.9934
  65   2.0000      -0.329613        -8.9692
  66   2.0000      -0.288827        -7.8594
  67   0.0000       0.020259         0.5513
  68   0.0000       0.075306         2.0492
  69   0.0000       0.103003         2.8029
  70   0.0000       0.115026         3.1300
  71   0.0000       0.127860         3.4792

MULLIKEN ATOMIC CHARGES
-----------------------
   0 S :    0.105786
   1 C :   -0.060318
   2 C :   -0.100515
   3 C :   -0.025485
   4 C :   -0.080052
   5 H :    0.016039
   6 C :    0.043544
   7 H :    0.026786
   8 H :    0.023741
   9 C :   -0.100906
  10 H :    0.024259
  11 H :    0.030270
  12 C :   -0.067715
  13 H :    0.053387
  14 H :    0.044054
  15 H :    0.047936
  16 S :    0.084050
  17 C :   -0.087077
  18 C :   -0.051052
  19 C :   -0.012698
  20 C :   -0.142669
  21 H :    0.019215
  22 C :    0.060328
  23 H :    0.023171
  24 H :    0.036086
  25 C :   -0.137763
  26 H :    0.026517
  27 H :    0.040987
  28 C :    0.002174
  29 H :    0.023869
  30 H :    0.036890
  31 H :    0.030660
  32 H :    0.009726
  33 H :    0.056777
Sum of atomic charges:   -0.0000000

LOEWDIN ATOMIC CHARGES
----------------------
   0 S :    0.403111
   1 C :   -0.175932
   2 C :   -0.058910
   3 C :   -0.074269
   4 C :   -0.198985
   5 H :    0.033341
   6 C :   -0.029816
   7 H :    0.024255
   8 H :    0.029640
   9 C :   -0.053038
  10 H :    0.026231
  11 H :    0.024511
  12 C :   -0.076281
  13 H :    0.031827
  14 H :    0.030722
  15 H :    0.035998
  16 S :    0.377506
  17 C :   -0.183150
  18 C :   -0.076832
  19 C :   -0.048461
  20 C :   -0.169148
  21 H :    0.034736
  22 C :   -0.039047
  23 H :    0.029288
  24 H :    0.039716
  25 C :   -0.049537
  26 H :    0.024275
  27 H :    0.031045
  28 C :   -0.058681
  29 H :    0.024770
  30 H :    0.032630
  31 H :    0.016966
  32 H :    0.010963
  33 H :    0.030558

  Mayer bond orders larger than 0.100000
B(  0-S ,  1-C ) :   1.1160 B(  0-S ,  4-C ) :   1.1355 B(  1-C ,  2-C ) :   1.6375
B(  1-C , 32-H ) :   0.9747 B(  2-C ,  3-C ) :   1.2211 B(  2-C ,  6-C ) :   1.0164
B(  3-C ,  4-C ) :   1.6253 B(  3-C ,  5-H ) :   0.9896 B(  4-C , 20-C ) :   1.0380
B(  6-C ,  7-H ) :   0.9540 B(  6-C ,  8-H ) :   0.9497 B(  6-C ,  9-C ) :   1.0415
B(  9-C , 10-H ) :   0.9587 B(  9-C , 11-H ) :   0.9595 B(  9-C , 12-C ) :   1.0572
B( 12-C , 13-H ) :   0.9748 B( 12-C , 14-H ) :   0.9753 B( 12-C , 15-H ) :   0.9758
B( 16-S , 17-C ) :   1.1480 B( 16-S , 20-C ) :   1.1303 B( 17-C , 18-C ) :   1.6468
B( 17-C , 20-C ) :   0.1051 B( 17-C , 33-H ) :   0.9593 B( 18-C , 19-C ) :   1.2222
B( 18-C , 21-H ) :   0.9882 B( 19-C , 20-C ) :   1.5646 B( 19-C , 22-C ) :   1.0627
B( 22-C , 23-H ) :   0.9279 B( 22-C , 24-H ) :   0.9288 B( 22-C , 25-C ) :   1.0524
B( 25-C , 26-H ) :   0.9542 B( 25-C , 27-H ) :   0.9596 B( 25-C , 28-C ) :   1.0646
B( 28-C , 29-H ) :   0.9747 B( 28-C , 30-H ) :   0.9730 B( 28-C , 31-H ) :   0.9772

Dispersion correction           -0.013765703
FINAL SINGLE POINT ENERGY     -1339.858647117853

DIPOLE MOMENT
-------------
                                X             Y             Z
Electronic contribution:    -21.35613      10.11319      19.54014
Nuclear contribution   :     21.86090     -10.08741     -19.96964
                        -----------------------------------------
Total Dipole Moment    :      0.50476       0.02578      -0.42950
                        -----------------------------------------
Magnitude (a.u.)       :      0.66327
Magnitude (Debye)      :      1.68589

Rotational constants in cm-1:     0.018336     0.008400     0.006273
Rotational constants in MHz :   549.694297   251.830770   188.063251

                             ****ORCA TERMINATED NORMALLY****
TOTAL RUN TIME: 0 days 0 hours 0 minutes 21 seconds 325 msec
