                         Program Version 4.2.1 -  RELEASE  -
|  1> ! wB97X-D3 SP def2-SVP
|  2> %pal
|  3> nprocs 24
|  4> end
|  5>
|  6> * xyz 0 1
|  7> S 	 -35.737 	 -46.8336 	 -73.7044
|  8> C 	 -36.4997 	 -45.3731 	 -74.1988
|  9> C 	 -35.6218 	 -44.4141 	 -74.6074
| 10> C 	 -34.2684 	 -44.8184 	 -74.2009
| 11> C 	 -34.1168 	 -46.1023 	 -73.6895
| 12> H 	 -33.3657 	 -44.2619 	 -74.2738
| 13> C 	 -36.0343 	 -43.0783 	 -75.118
| 14> H 	 -36.9968 	 -43.0994 	 -75.6951
| 15> H 	 -35.1495 	 -42.9727 	 -75.7747
| 16> C 	 -36.0605 	 -41.9335 	 -74.0799
| 17> H 	 -35.0418 	 -42.0597 	 -73.7107
| 18> H 	 -36.1213 	 -40.9215 	 -74.4425
| 19> C 	 -37.1429 	 -42.1849 	 -73.1072
| 20> H 	 -37.1453 	 -41.5135 	 -72.2299
| 21> H 	 -38.0525 	 -41.8959 	 -73.4789
| 22> H 	 -37.1214 	 -43.2746 	 -72.8033
| 23> S 	 -31.8218 	 -47.4623 	 -74.2944
| 24> C 	 -30.9263 	 -48.3327 	 -73.0258
| 25> C 	 -31.35 	 -47.9683 	 -71.7969
| 26> C 	 -32.5142 	 -47.0806 	 -71.9351
| 27> C 	 -32.8756 	 -46.681 	 -73.1859
| 28> H 	 -30.9079 	 -48.423 	 -70.9347
| 29> C 	 -33.3375 	 -46.6212 	 -70.769
| 30> H 	 -33.9148 	 -47.4539 	 -70.5014
| 31> H 	 -34.1151 	 -45.9813 	 -71.1311
| 32> C 	 -32.6667 	 -46.1619 	 -69.4911
| 33> H 	 -32.2034 	 -45.2136 	 -69.6357
| 34> H 	 -31.9044 	 -46.8859 	 -69.3578
| 35> C 	 -33.4822 	 -46.1335 	 -68.2138
| 36> H 	 -34.2584 	 -45.284 	 -68.1836
| 37> H 	 -32.8153 	 -46.1119 	 -67.3938
| 38> H 	 -34.1519 	 -46.97 	 -68.1332
| 39> H 	 -37.5605 	 -45.2974 	 -74.4861
| 40> H 	 -30.0416 	 -48.9274 	 -73.2731
| 41> *
| 42>
| 43>                          ****END OF INPUT****

CARTESIAN COORDINATES (ANGSTROEM)
---------------------------------
  S    -35.737000  -46.833600  -73.704400
  C    -36.499700  -45.373100  -74.198800
  C    -35.621800  -44.414100  -74.607400
  C    -34.268400  -44.818400  -74.200900
  C    -34.116800  -46.102300  -73.689500
  H    -33.365700  -44.261900  -74.273800
  C    -36.034300  -43.078300  -75.118000
  H    -36.996800  -43.099400  -75.695100
  H    -35.149500  -42.972700  -75.774700
  C    -36.060500  -41.933500  -74.079900
  H    -35.041800  -42.059700  -73.710700
  H    -36.121300  -40.921500  -74.442500
  C    -37.142900  -42.184900  -73.107200
  H    -37.145300  -41.513500  -72.229900
  H    -38.052500  -41.895900  -73.478900
  H    -37.121400  -43.274600  -72.803300
  S    -31.821800  -47.462300  -74.294400
  C    -30.926300  -48.332700  -73.025800
  C    -31.350000  -47.968300  -71.796900
  C    -32.514200  -47.080600  -71.935100
  C    -32.875600  -46.681000  -73.185900
  H    -30.907900  -48.423000  -70.934700
  C    -33.337500  -46.621200  -70.769000
  H    -33.914800  -47.453900  -70.501400
  H    -34.115100  -45.981300  -71.131100
  C    -32.666700  -46.161900  -69.491100
  H    -32.203400  -45.213600  -69.635700
  H    -31.904400  -46.885900  -69.357800
  C    -33.482200  -46.133500  -68.213800
  H    -34.258400  -45.284000  -68.183600
  H    -32.815300  -46.111900  -67.393800
  H    -34.151900  -46.970000  -68.133200
  H    -37.560500  -45.297400  -74.486100
  H    -30.041600  -48.927400  -73.273100

 Total Charge           Charge          ....    0
 Multiplicity           Mult            ....    1
 Number of Electrons    NEL             ....  134
 Basis Dimension        Dim             ....  322

ORBITAL ENERGIES
----------------

  NO   OCC          E(Eh)            E(eV)
   0   2.0000     -88.965600     -2420.8771
   1   2.0000     -88.957766     -2420.6639
   2   2.0000     -10.334280      -281.2100
   3   2.0000     -10.322934      -280.9013
   4   2.0000     -10.321451      -280.8610
   5   2.0000     -10.314036      -280.6592
   6   2.0000     -10.305860      -280.4367
   7   2.0000     -10.303673      -280.3772
   8   2.0000     -10.299510      -280.2639
   9   2.0000     -10.299265      -280.2573
  10   2.0000     -10.296492      -280.1818
  11   2.0000     -10.283036      -279.8156
  12   2.0000     -10.277053      -279.6528
  13   2.0000     -10.275865      -279.6205
  14   2.0000     -10.272901      -279.5398
  15   2.0000     -10.268787      -279.4279
  16   2.0000      -8.080305      -219.8763
  17   2.0000      -8.073363      -219.6874
  18   2.0000      -6.038966      -164.3286
  19   2.0000      -6.034727      -164.2133
  20   2.0000      -6.031903      -164.1364
  21   2.0000      -6.030968      -164.1110
  22   2.0000      -6.027695      -164.0219
  23   2.0000      -6.024052      -163.9228
  24   2.0000      -1.010132       -27.4871
  25   2.0000      -0.989167       -26.9166
  26   2.0000      -0.921028       -25.0624
  27   2.0000      -0.912124       -24.8202
  28   2.0000      -0.879577       -23.9345
  29   2.0000      -0.850030       -23.1305
  30   2.0000      -0.847761       -23.0687
  31   2.0000      -0.825224       -22.4555
  32   2.0000      -0.782362       -21.2891
  33   2.0000      -0.772283       -21.0149
  34   2.0000      -0.710657       -19.3380
  35   2.0000      -0.704734       -19.1768
  36   2.0000      -0.694947       -18.9105
  37   2.0000      -0.660968       -17.9858
  38   2.0000      -0.643650       -17.5146
  39   2.0000      -0.619687       -16.8625
  40   2.0000      -0.598540       -16.2871
  41   2.0000      -0.579482       -15.7685
  42   2.0000      -0.568296       -15.4641
  43   2.0000      -0.559775       -15.2322
  44   2.0000      -0.545488       -14.8435
  45   2.0000      -0.534687       -14.5496
  46   2.0000      -0.519453       -14.1350
  47   2.0000      -0.511808       -13.9270
  48   2.0000      -0.510764       -13.8986
  49   2.0000      -0.498025       -13.5520
  50   2.0000      -0.487556       -13.2671
  51   2.0000      -0.484778       -13.1915
  52   2.0000      -0.468231       -12.7412
  53   2.0000      -0.466438       -12.6924
  54   2.0000      -0.457773       -12.4566
  55   2.0000      -0.451467       -12.2850
  56   2.0000      -0.445883       -12.1331
  57   2.0000      -0.440145       -11.9769
  58   2.0000      -0.432093       -11.7578
  59   2.0000      -0.416143       -11.3238
  60   2.0000      -0.414410       -11.2767
  61   2.0000      -0.411521       -11.1981
  62   2.0000      -0.404962       -11.0196
  63   2.0000      -0.343661        -9.3515
  64   2.0000      -0.331398        -9.0178
  65   2.0000      -0.317453        -8.6383
  66   2.0000      -0.314057        -8.5459
  67   0.0000       0.041602         1.1321
  68   0.0000       0.057040         1.5521
  69   0.0000       0.109862         2.9895
  70   0.0000       0.116894         3.1809
  71   0.0000       0.131620         3.5816

MULLIKEN ATOMIC CHARGES
-----------------------
   0 S :    0.121350
   1 C :   -0.118338
   2 C :   -0.096607
   3 C :    0.030867
   4 C :   -0.164107
   5 H :    0.003012
   6 C :    0.015045
   7 H :    0.034486
   8 H :    0.038077
   9 C :   -0.021385
  10 H :    0.017008
  11 H :    0.029409
  12 C :   -0.034515
  13 H :    0.024830
  14 H :   -0.001092
  15 H :    0.053141
  16 S :    0.081782
  17 C :   -0.102323
  18 C :   -0.001556
  19 C :   -0.089564
  20 C :   -0.136442
  21 H :    0.027337
  22 C :    0.113282
  23 H :    0.000445
  24 H :    0.015111
  25 C :   -0.048708
  26 H :    0.025161
  27 H :    0.006919
  28 C :   -0.038196
  29 H :    0.036206
  30 H :    0.032780
  31 H :    0.015177
  32 H :    0.063200
  33 H :    0.068212
Sum of atomic charges:   -0.0000000

LOEWDIN ATOMIC CHARGES
----------------------
   0 S :    0.402414
   1 C :   -0.203574
   2 C :   -0.071716
   3 C :   -0.050625
   4 C :   -0.192188
   5 H :    0.024615
   6 C :   -0.037280
   7 H :    0.031700
   8 H :    0.039558
   9 C :   -0.038873
  10 H :    0.023786
  11 H :    0.024018
  12 C :   -0.069887
  13 H :    0.029584
  14 H :    0.012100
  15 H :    0.037312
  16 S :    0.396096
  17 C :   -0.159766
  18 C :   -0.073971
  19 C :   -0.040527
  20 C :   -0.222059
  21 H :    0.034171
  22 C :   -0.036241
  23 H :    0.026823
  24 H :    0.025061
  25 C :   -0.035181
  26 H :    0.022112
  27 H :    0.017704
  28 C :   -0.060703
  29 H :    0.033267
  30 H :    0.022941
  31 H :    0.019821
  32 H :    0.036176
  33 H :    0.033332

  Mayer bond orders larger than 0.100000
B(  0-S ,  1-C ) :   1.1540 B(  0-S ,  4-C ) :   1.1127 B(  1-C ,  2-C ) :   1.6184
B(  1-C , 32-H ) :   0.9525 B(  2-C ,  3-C ) :   1.1979 B(  2-C ,  6-C ) :   1.0291
B(  3-C ,  4-C ) :   1.6194 B(  3-C ,  5-H ) :   0.9919 B(  4-C , 20-C ) :   1.0262
B(  6-C ,  7-H ) :   0.9441 B(  6-C ,  8-H ) :   0.9359 B(  6-C ,  9-C ) :   1.0560
B(  9-C , 10-H ) :   0.9526 B(  9-C , 11-H ) :   0.9555 B(  9-C , 12-C ) :   1.0853
B( 12-C , 13-H ) :   0.9655 B( 12-C , 14-H ) :   0.9674 B( 12-C , 15-H ) :   0.9695
B( 16-S , 17-C ) :   1.1648 B( 16-S , 20-C ) :   1.1136 B( 17-C , 18-C ) :   1.6274
B( 17-C , 33-H ) :   0.9616 B( 18-C , 19-C ) :   1.1889 B( 18-C , 21-H ) :   0.9970
B( 19-C , 20-C ) :   1.6366 B( 19-C , 22-C ) :   1.0558 B( 22-C , 23-H ) :   0.9100
B( 22-C , 24-H ) :   0.9247 B( 22-C , 25-C ) :   1.0608 B( 25-C , 26-H ) :   0.9530
B( 25-C , 27-H ) :   0.9522 B( 25-C , 28-C ) :   1.0928 B( 28-C , 29-H ) :   0.9738
B( 28-C , 30-H ) :   0.9745 B( 28-C , 31-H ) :   0.9721

Dispersion correction           -0.014221320
FINAL SINGLE POINT ENERGY     -1339.852054896789

DIPOLE MOMENT
-------------
                                X             Y             Z
Electronic contribution:      7.94969     -17.67481     -16.49514
Nuclear contribution   :     -7.95806      17.94190      16.82270
                        -----------------------------------------
Total Dipole Moment    :     -0.00837       0.26709       0.32756
                        -----------------------------------------
Magnitude (a.u.)       :      0.42274
Magnitude (Debye)      :      1.07451

Rotational constants in cm-1:     0.018268     0.008550     0.006801
Rotational constants in MHz :   547.671738   256.318773   203.902986

                             ****ORCA TERMINATED NORMALLY****
TOTAL RUN TIME: 0 days 0 hours 0 minutes 21 seconds 588 msec
