                         Program Version 4.2.1 -  RELEASE  -
|  1> ! wB97X-D3 SP def2-SVP
|  2> %pal
|  3> nprocs 24
|  4> end
|  5>
|  6> * xyz 0 1
|  7> S 	 -123.403 	 61.6735 	 -42.8537
|  8> C 	 -122.264 	 61.9254 	 -44.1135
|  9> C 	 -121.699 	 63.1936 	 -44.082
| 10> C 	 -122.181 	 63.9792 	 -42.9904
| 11> C 	 -123.046 	 63.226 	 -42.1942
| 12> H 	 -121.785 	 64.9649 	 -42.7349
| 13> C 	 -120.799 	 63.733 	 -45.1974
| 14> H 	 -120.209 	 62.9789 	 -45.5668
| 15> H 	 -120.16 	 64.4809 	 -44.8057
| 16> C 	 -121.65 	 64.3575 	 -46.414
| 17> H 	 -120.961 	 64.9714 	 -46.9202
| 18> H 	 -121.822 	 63.5183 	 -47.0195
| 19> C 	 -122.872 	 65.1769 	 -45.9793
| 20> H 	 -123.2 	 65.7685 	 -46.8342
| 21> H 	 -123.755 	 64.6892 	 -45.6328
| 22> H 	 -122.614 	 66.051 	 -45.4056
| 23> S 	 -123.966 	 62.5009 	 -39.6599
| 24> C 	 -124.478 	 63.7257 	 -38.5991
| 25> C 	 -124.503 	 64.9331 	 -39.1455
| 26> C 	 -124.078 	 64.9382 	 -40.487
| 27> C 	 -123.699 	 63.6628 	 -40.9682
| 28> H 	 -124.949 	 65.7916 	 -38.6286
| 29> C 	 -124.159 	 66.2506 	 -41.2819
| 30> H 	 -125.153 	 66.7433 	 -41.0186
| 31> H 	 -124.152 	 66.0388 	 -42.3277
| 32> C 	 -123.055 	 67.2587 	 -40.9998
| 33> H 	 -122.17 	 66.7784 	 -41.3708
| 34> H 	 -123.031 	 67.5121 	 -39.8986
| 35> C 	 -123.189 	 68.547 	 -41.9055
| 36> H 	 -124.276 	 68.8036 	 -41.8462
| 37> H 	 -123.002 	 68.4987 	 -42.9712
| 38> H 	 -122.583 	 69.4079 	 -41.4837
| 39> H 	 -121.994 	 61.2079 	 -44.8507
| 40> H 	 -124.924 	 63.537 	 -37.625
| 41> *
| 42>
| 43>                          ****END OF INPUT****

CARTESIAN COORDINATES (ANGSTROEM)
---------------------------------
  S    -123.403000   61.673500  -42.853700
  C    -122.264000   61.925400  -44.113500
  C    -121.699000   63.193600  -44.082000
  C    -122.181000   63.979200  -42.990400
  C    -123.046000   63.226000  -42.194200
  H    -121.785000   64.964900  -42.734900
  C    -120.799000   63.733000  -45.197400
  H    -120.209000   62.978900  -45.566800
  H    -120.160000   64.480900  -44.805700
  C    -121.650000   64.357500  -46.414000
  H    -120.961000   64.971400  -46.920200
  H    -121.822000   63.518300  -47.019500
  C    -122.872000   65.176900  -45.979300
  H    -123.200000   65.768500  -46.834200
  H    -123.755000   64.689200  -45.632800
  H    -122.614000   66.051000  -45.405600
  S    -123.966000   62.500900  -39.659900
  C    -124.478000   63.725700  -38.599100
  C    -124.503000   64.933100  -39.145500
  C    -124.078000   64.938200  -40.487000
  C    -123.699000   63.662800  -40.968200
  H    -124.949000   65.791600  -38.628600
  C    -124.159000   66.250600  -41.281900
  H    -125.153000   66.743300  -41.018600
  H    -124.152000   66.038800  -42.327700
  C    -123.055000   67.258700  -40.999800
  H    -122.170000   66.778400  -41.370800
  H    -123.031000   67.512100  -39.898600
  C    -123.189000   68.547000  -41.905500
  H    -124.276000   68.803600  -41.846200
  H    -123.002000   68.498700  -42.971200
  H    -122.583000   69.407900  -41.483700
  H    -121.994000   61.207900  -44.850700
  H    -124.924000   63.537000  -37.625000

 Total Charge           Charge          ....    0
 Multiplicity           Mult            ....    1
 Number of Electrons    NEL             ....  134
 Basis Dimension        Dim             ....  322

ORBITAL ENERGIES
----------------

  NO   OCC          E(Eh)            E(eV)
   0   2.0000     -88.968886     -2420.9665
   1   2.0000     -88.962951     -2420.8050
   2   2.0000     -10.329836      -281.0891
   3   2.0000     -10.328625      -281.0562
   4   2.0000     -10.307590      -280.4838
   5   2.0000     -10.306949      -280.4664
   6   2.0000     -10.302239      -280.3382
   7   2.0000     -10.298927      -280.2480
   8   2.0000     -10.296013      -280.1687
   9   2.0000     -10.292509      -280.0734
  10   2.0000     -10.292148      -280.0636
  11   2.0000     -10.287497      -279.9370
  12   2.0000     -10.285185      -279.8741
  13   2.0000     -10.284852      -279.8651
  14   2.0000     -10.284051      -279.8433
  15   2.0000     -10.274181      -279.5747
  16   2.0000      -8.084465      -219.9895
  17   2.0000      -8.078591      -219.8296
  18   2.0000      -6.042846      -164.4342
  19   2.0000      -6.038851      -164.3255
  20   2.0000      -6.037078      -164.2772
  21   2.0000      -6.035341      -164.2300
  22   2.0000      -6.032960      -164.1652
  23   2.0000      -6.029332      -164.0665
  24   2.0000      -1.011486       -27.5239
  25   2.0000      -0.991032       -26.9673
  26   2.0000      -0.908296       -24.7160
  27   2.0000      -0.907189       -24.6859
  28   2.0000      -0.869570       -23.6622
  29   2.0000      -0.851168       -23.1615
  30   2.0000      -0.844889       -22.9906
  31   2.0000      -0.815751       -22.1977
  32   2.0000      -0.787165       -21.4199
  33   2.0000      -0.770445       -20.9649
  34   2.0000      -0.710828       -19.3426
  35   2.0000      -0.704025       -19.1575
  36   2.0000      -0.691098       -18.8057
  37   2.0000      -0.660626       -17.9765
  38   2.0000      -0.636418       -17.3178
  39   2.0000      -0.620630       -16.8882
  40   2.0000      -0.597346       -16.2546
  41   2.0000      -0.574830       -15.6419
  42   2.0000      -0.568279       -15.4636
  43   2.0000      -0.555638       -15.1197
  44   2.0000      -0.538346       -14.6491
  45   2.0000      -0.519929       -14.1480
  46   2.0000      -0.512396       -13.9430
  47   2.0000      -0.509179       -13.8555
  48   2.0000      -0.499541       -13.5932
  49   2.0000      -0.496079       -13.4990
  50   2.0000      -0.489297       -13.3145
  51   2.0000      -0.483117       -13.1463
  52   2.0000      -0.477520       -12.9940
  53   2.0000      -0.463616       -12.6156
  54   2.0000      -0.461810       -12.5665
  55   2.0000      -0.456471       -12.4212
  56   2.0000      -0.445435       -12.1209
  57   2.0000      -0.444070       -12.0838
  58   2.0000      -0.432760       -11.7760
  59   2.0000      -0.429510       -11.6876
  60   2.0000      -0.423318       -11.5191
  61   2.0000      -0.412426       -11.2227
  62   2.0000      -0.408236       -11.1087
  63   2.0000      -0.356217        -9.6931
  64   2.0000      -0.333803        -9.0832
  65   2.0000      -0.329882        -8.9765
  66   2.0000      -0.283097        -7.7035
  67   0.0000       0.025379         0.6906
  68   0.0000       0.084713         2.3052
  69   0.0000       0.111018         3.0209
  70   0.0000       0.119556         3.2533
  71   0.0000       0.127581         3.4716

MULLIKEN ATOMIC CHARGES
-----------------------
   0 S :    0.123246
   1 C :   -0.107561
   2 C :   -0.117731
   3 C :    0.009179
   4 C :   -0.129943
   5 H :    0.009034
   6 C :    0.109347
   7 H :    0.001195
   8 H :    0.009075
   9 C :   -0.038065
  10 H :    0.018014
  11 H :    0.019548
  12 C :   -0.025390
  13 H :    0.013962
  14 H :    0.052713
  15 H :    0.013220
  16 S :    0.100730
  17 C :   -0.073912
  18 C :   -0.038064
  19 C :   -0.040899
  20 C :   -0.134601
  21 H :    0.022379
  22 C :    0.029439
  23 H :    0.032375
  24 H :    0.017429
  25 C :   -0.063912
  26 H :    0.023362
  27 H :    0.046756
  28 C :   -0.077912
  29 H :    0.023099
  30 H :    0.037876
  31 H :    0.048926
  32 H :    0.031930
  33 H :    0.055153
Sum of atomic charges:   -0.0000000

LOEWDIN ATOMIC CHARGES
----------------------
   0 S :    0.432808
   1 C :   -0.210972
   2 C :   -0.055798
   3 C :   -0.063430
   4 C :   -0.196293
   5 H :    0.031921
   6 C :   -0.018188
   7 H :    0.016871
   8 H :    0.020639
   9 C :   -0.020448
  10 H :    0.019859
  11 H :    0.016948
  12 C :   -0.070758
  13 H :    0.030848
  14 H :    0.027768
  15 H :    0.025109
  16 S :    0.412165
  17 C :   -0.195253
  18 C :   -0.081465
  19 C :   -0.054066
  20 C :   -0.196706
  21 H :    0.036967
  22 C :   -0.034597
  23 H :    0.033379
  24 H :    0.023154
  25 C :   -0.039480
  26 H :    0.017398
  27 H :    0.032617
  28 C :   -0.076613
  29 H :    0.024959
  30 H :    0.022657
  31 H :    0.034184
  32 H :    0.021097
  33 H :    0.032720

  Mayer bond orders larger than 0.100000
B(  0-S ,  1-C ) :   1.1376 B(  0-S ,  4-C ) :   1.1745 B(  1-C ,  2-C ) :   1.5957
B(  1-C , 32-H ) :   0.9718 B(  2-C ,  3-C ) :   1.2611 B(  2-C ,  6-C ) :   1.0422
B(  3-C ,  4-C ) :   1.5348 B(  3-C ,  5-H ) :   0.9920 B(  4-C , 20-C ) :   1.0562
B(  6-C ,  7-H ) :   0.9397 B(  6-C ,  8-H ) :   0.9380 B(  6-C ,  9-C ) :   1.0584
B(  9-C , 10-H ) :   0.9568 B(  9-C , 11-H ) :   0.9608 B(  9-C , 12-C ) :   1.0929
B( 12-C , 13-H ) :   0.9626 B( 12-C , 14-H ) :   0.9729 B( 12-C , 15-H ) :   0.9675
B( 16-S , 17-C ) :   1.1638 B( 16-S , 20-C ) :   1.1332 B( 17-C , 18-C ) :   1.6125
B( 17-C , 33-H ) :   0.9581 B( 18-C , 19-C ) :   1.2619 B( 18-C , 21-H ) :   0.9871
B( 19-C , 20-C ) :   1.5761 B( 19-C , 22-C ) :   1.0393 B( 22-C , 23-H ) :   0.9348
B( 22-C , 24-H ) :   0.9370 B( 22-C , 25-C ) :   1.0729 B( 25-C , 26-H ) :   0.9521
B( 25-C , 27-H ) :   0.9545 B( 25-C , 28-C ) :   1.0666 B( 28-C , 29-H ) :   0.9744
B( 28-C , 30-H ) :   0.9773 B( 28-C , 31-H ) :   0.9759

Dispersion correction           -0.015079733
FINAL SINGLE POINT ENERGY     -1339.875539678379

DIPOLE MOMENT
-------------
                                X             Y             Z
Electronic contribution:     -5.46652     -26.45881      15.99311
Nuclear contribution   :      5.56211      27.05186     -16.34120
                        -----------------------------------------
Total Dipole Moment    :      0.09559       0.59305      -0.34808
                        -----------------------------------------
Magnitude (a.u.)       :      0.69427
Magnitude (Debye)      :      1.76468

Rotational constants in cm-1:     0.017070     0.010541     0.006934
Rotational constants in MHz :   511.760084   315.998582   207.873040

                             ****ORCA TERMINATED NORMALLY****
TOTAL RUN TIME: 0 days 0 hours 0 minutes 22 seconds 400 msec
