                         Program Version 4.2.1 -  RELEASE  -
|  1> ! wB97X-D3 SP def2-SVP
|  2> %pal
|  3> nprocs 24
|  4> end
|  5>
|  6> * xyz 0 1
|  7> S 	 -132.898 	 29.0229 	 -11.3146
|  8> C 	 -132.47 	 27.4362 	 -10.7943
|  9> C 	 -131.902 	 26.7523 	 -11.8528
| 10> C 	 -131.626 	 27.5781 	 -13.0179
| 11> C 	 -132.102 	 28.8559 	 -12.8834
| 12> H 	 -131.1 	 27.2933 	 -13.8844
| 13> C 	 -131.476 	 25.2787 	 -11.8141
| 14> H 	 -131.823 	 24.7792 	 -12.7496
| 15> H 	 -132.093 	 24.9442 	 -10.9343
| 16> C 	 -130.083 	 24.9169 	 -11.5262
| 17> H 	 -130.11 	 23.8351 	 -11.4854
| 18> H 	 -129.294 	 25.1363 	 -12.278
| 19> C 	 -129.453 	 25.3236 	 -10.2044
| 20> H 	 -128.392 	 25.1955 	 -10.2486
| 21> H 	 -129.827 	 26.3471 	 -9.8864
| 22> H 	 -129.686 	 24.7552 	 -9.28115
| 23> S 	 -131.187 	 31.4768 	 -13.0244
| 24> C 	 -130.947 	 32.1965 	 -14.5643
| 25> C 	 -131.362 	 31.3732 	 -15.5956
| 26> C 	 -131.772 	 30.0331 	 -15.1801
| 27> C 	 -131.737 	 29.9599 	 -13.775
| 28> H 	 -131.387 	 31.7802 	 -16.5786
| 29> C 	 -132.311 	 28.9249 	 -16.0602
| 30> H 	 -132.717 	 29.3794 	 -16.9411
| 31> H 	 -133.142 	 28.3965 	 -15.4838
| 32> C 	 -131.189 	 28.0024 	 -16.6044
| 33> H 	 -130.377 	 27.9134 	 -15.8211
| 34> H 	 -130.716 	 28.5434 	 -17.4874
| 35> C 	 -131.697 	 26.5953 	 -17.0979
| 36> H 	 -132.427 	 26.6003 	 -17.9203
| 37> H 	 -132.07 	 26.1117 	 -16.1884
| 38> H 	 -130.813 	 26.0104 	 -17.3868
| 39> H 	 -132.748 	 26.8982 	 -9.9322
| 40> H 	 -130.72 	 33.2428 	 -14.8375
| 41> *
| 42>
| 43>                          ****END OF INPUT****

CARTESIAN COORDINATES (ANGSTROEM)
---------------------------------
  S    -132.898000   29.022900  -11.314600
  C    -132.470000   27.436200  -10.794300
  C    -131.902000   26.752300  -11.852800
  C    -131.626000   27.578100  -13.017900
  C    -132.102000   28.855900  -12.883400
  H    -131.100000   27.293300  -13.884400
  C    -131.476000   25.278700  -11.814100
  H    -131.823000   24.779200  -12.749600
  H    -132.093000   24.944200  -10.934300
  C    -130.083000   24.916900  -11.526200
  H    -130.110000   23.835100  -11.485400
  H    -129.294000   25.136300  -12.278000
  C    -129.453000   25.323600  -10.204400
  H    -128.392000   25.195500  -10.248600
  H    -129.827000   26.347100   -9.886400
  H    -129.686000   24.755200   -9.281150
  S    -131.187000   31.476800  -13.024400
  C    -130.947000   32.196500  -14.564300
  C    -131.362000   31.373200  -15.595600
  C    -131.772000   30.033100  -15.180100
  C    -131.737000   29.959900  -13.775000
  H    -131.387000   31.780200  -16.578600
  C    -132.311000   28.924900  -16.060200
  H    -132.717000   29.379400  -16.941100
  H    -133.142000   28.396500  -15.483800
  C    -131.189000   28.002400  -16.604400
  H    -130.377000   27.913400  -15.821100
  H    -130.716000   28.543400  -17.487400
  C    -131.697000   26.595300  -17.097900
  H    -132.427000   26.600300  -17.920300
  H    -132.070000   26.111700  -16.188400
  H    -130.813000   26.010400  -17.386800
  H    -132.748000   26.898200   -9.932200
  H    -130.720000   33.242800  -14.837500

 Total Charge           Charge          ....    0
 Multiplicity           Mult            ....    1
 Number of Electrons    NEL             ....  134
 Basis Dimension        Dim             ....  322

ORBITAL ENERGIES
----------------

  NO   OCC          E(Eh)            E(eV)
   0   2.0000     -88.967949     -2420.9410
   1   2.0000     -88.967565     -2420.9305
   2   2.0000     -10.331073      -281.1228
   3   2.0000     -10.330744      -281.1138
   4   2.0000     -10.315222      -280.6915
   5   2.0000     -10.312503      -280.6175
   6   2.0000     -10.309395      -280.5329
   7   2.0000     -10.301739      -280.3246
   8   2.0000     -10.301318      -280.3131
   9   2.0000     -10.297346      -280.2050
  10   2.0000     -10.297130      -280.1992
  11   2.0000     -10.294020      -280.1145
  12   2.0000     -10.291270      -280.0397
  13   2.0000     -10.287191      -279.9287
  14   2.0000     -10.284240      -279.8484
  15   2.0000     -10.276872      -279.6479
  16   2.0000      -8.082448      -219.9346
  17   2.0000      -8.082219      -219.9284
  18   2.0000      -6.040999      -164.3839
  19   2.0000      -6.040914      -164.3816
  20   2.0000      -6.036997      -164.2750
  21   2.0000      -6.036641      -164.2654
  22   2.0000      -6.033159      -164.1706
  23   2.0000      -6.032866      -164.1626
  24   2.0000      -1.005636       -27.3647
  25   2.0000      -0.983138       -26.7526
  26   2.0000      -0.916565       -24.9410
  27   2.0000      -0.906213       -24.6593
  28   2.0000      -0.871567       -23.7166
  29   2.0000      -0.848921       -23.1003
  30   2.0000      -0.843992       -22.9662
  31   2.0000      -0.816546       -22.2193
  32   2.0000      -0.784264       -21.3409
  33   2.0000      -0.774890       -21.0858
  34   2.0000      -0.707027       -19.2392
  35   2.0000      -0.694860       -18.9081
  36   2.0000      -0.689961       -18.7748
  37   2.0000      -0.659323       -17.9411
  38   2.0000      -0.640554       -17.4304
  39   2.0000      -0.619093       -16.8464
  40   2.0000      -0.589413       -16.0387
  41   2.0000      -0.569747       -15.5036
  42   2.0000      -0.563831       -15.3426
  43   2.0000      -0.557992       -15.1837
  44   2.0000      -0.539467       -14.6797
  45   2.0000      -0.524493       -14.2722
  46   2.0000      -0.520581       -14.1657
  47   2.0000      -0.515044       -14.0151
  48   2.0000      -0.504895       -13.7389
  49   2.0000      -0.503125       -13.6907
  50   2.0000      -0.488411       -13.2903
  51   2.0000      -0.482534       -13.1304
  52   2.0000      -0.471915       -12.8415
  53   2.0000      -0.465291       -12.6612
  54   2.0000      -0.452169       -12.3041
  55   2.0000      -0.451614       -12.2890
  56   2.0000      -0.445440       -12.1210
  57   2.0000      -0.435477       -11.8499
  58   2.0000      -0.431639       -11.7455
  59   2.0000      -0.427698       -11.6383
  60   2.0000      -0.419282       -11.4092
  61   2.0000      -0.416088       -11.3223
  62   2.0000      -0.394933       -10.7467
  63   2.0000      -0.355692        -9.6789
  64   2.0000      -0.330175        -8.9845
  65   2.0000      -0.327352        -8.9077
  66   2.0000      -0.291400        -7.9294
  67   0.0000       0.026560         0.7227
  68   0.0000       0.075963         2.0671
  69   0.0000       0.108141         2.9427
  70   0.0000       0.121561         3.3078
  71   0.0000       0.125546         3.4163

MULLIKEN ATOMIC CHARGES
-----------------------
   0 S :    0.109505
   1 C :   -0.088398
   2 C :   -0.119494
   3 C :    0.049781
   4 C :   -0.126767
   5 H :   -0.026986
   6 C :    0.055042
   7 H :    0.042151
   8 H :    0.019364
   9 C :   -0.043069
  10 H :    0.025737
  11 H :    0.034388
  12 C :   -0.082277
  13 H :    0.031641
  14 H :    0.042061
  15 H :    0.020676
  16 S :    0.123033
  17 C :   -0.093992
  18 C :   -0.038621
  19 C :   -0.043482
  20 C :   -0.162986
  21 H :    0.005989
  22 C :    0.069703
  23 H :    0.017459
  24 H :    0.057948
  25 C :   -0.149098
  26 H :    0.054943
  27 H :    0.038951
  28 C :   -0.039978
  29 H :    0.047957
  30 H :    0.030548
  31 H :    0.039103
  32 H :    0.033928
  33 H :    0.065238
Sum of atomic charges:   -0.0000000

LOEWDIN ATOMIC CHARGES
----------------------
   0 S :    0.405891
   1 C :   -0.204362
   2 C :   -0.062582
   3 C :   -0.054559
   4 C :   -0.187679
   5 H :    0.021079
   6 C :   -0.037814
   7 H :    0.039159
   8 H :    0.036336
   9 C :   -0.053519
  10 H :    0.029878
  11 H :    0.029405
  12 C :   -0.077325
  13 H :    0.025250
  14 H :    0.031610
  15 H :    0.023387
  16 S :    0.411202
  17 C :   -0.208749
  18 C :   -0.070708
  19 C :   -0.051628
  20 C :   -0.186827
  21 H :    0.024742
  22 C :   -0.038781
  23 H :    0.028871
  24 H :    0.041746
  25 C :   -0.047541
  26 H :    0.024855
  27 H :    0.029187
  28 C :   -0.068090
  29 H :    0.028644
  30 H :    0.024338
  31 H :    0.029711
  32 H :    0.024433
  33 H :    0.040439

  Mayer bond orders larger than 0.100000
B(  0-S ,  1-C ) :   1.1274 B(  0-S ,  4-C ) :   1.1390 B(  1-C ,  2-C ) :   1.6201
B(  1-C , 32-H ) :   0.9663 B(  2-C ,  3-C ) :   1.2226 B(  2-C ,  6-C ) :   1.0238
B(  3-C ,  4-C ) :   1.5686 B(  3-C ,  5-H ) :   0.9990 B(  4-C , 20-C ) :   1.0561
B(  6-C ,  7-H ) :   0.9383 B(  6-C ,  8-H ) :   0.9348 B(  6-C ,  9-C ) :   1.0876
B(  9-C , 10-H ) :   0.9453 B(  9-C , 11-H ) :   0.9562 B(  9-C , 12-C ) :   1.0723
B( 12-C , 13-H ) :   0.9740 B( 12-C , 14-H ) :   0.9752 B( 12-C , 15-H ) :   0.9731
B( 16-S , 17-C ) :   1.1484 B( 16-S , 20-C ) :   1.1378 B( 17-C , 18-C ) :   1.6370
B( 17-C , 33-H ) :   0.9583 B( 18-C , 19-C ) :   1.2300 B( 18-C , 21-H ) :   0.9903
B( 19-C , 20-C ) :   1.5794 B( 19-C , 22-C ) :   1.0517 B( 22-C , 23-H ) :   0.9283
B( 22-C , 24-H ) :   0.9431 B( 22-C , 25-C ) :   1.0327 B( 25-C , 26-H ) :   0.9593
B( 25-C , 27-H ) :   0.9532 B( 25-C , 28-C ) :   1.0700 B( 28-C , 29-H ) :   0.9752
B( 28-C , 30-H ) :   0.9761 B( 28-C , 31-H ) :   0.9746

Dispersion correction           -0.014684725
FINAL SINGLE POINT ENERGY     -1339.872353424384

DIPOLE MOMENT
-------------
                                X             Y             Z
Electronic contribution:     -8.13116      24.96696       9.24546
Nuclear contribution   :      8.24319     -25.47187      -9.72526
                        -----------------------------------------
Total Dipole Moment    :      0.11203      -0.50491      -0.47980
                        -----------------------------------------
Magnitude (a.u.)       :      0.70548
Magnitude (Debye)      :      1.79318

Rotational constants in cm-1:     0.017337     0.009444     0.007099
Rotational constants in MHz :   519.749414   283.129149   212.812443

                             ****ORCA TERMINATED NORMALLY****
TOTAL RUN TIME: 0 days 0 hours 0 minutes 20 seconds 918 msec
