                         Program Version 4.2.1 -  RELEASE  -
|  1> ! wB97X-D3 SP def2-SVP
|  2> %pal
|  3> nprocs 24
|  4> end
|  5>
|  6> * xyz 0 1
|  7> S 	 -47.2805 	 19.8166 	 28.5589
|  8> C 	 -47.7958 	 19.8502 	 26.9253
|  9> C 	 -47.4315 	 18.7006 	 26.2031
| 10> C 	 -46.8976 	 17.6774 	 27.0736
| 11> C 	 -46.9587 	 18.0799 	 28.4145
| 12> H 	 -46.5769 	 16.74 	 26.7763
| 13> C 	 -47.5284 	 18.5686 	 24.6978
| 14> H 	 -47.5142 	 17.5417 	 24.4379
| 15> H 	 -46.6133 	 19.0783 	 24.3928
| 16> C 	 -48.7 	 19.2921 	 23.8909
| 17> H 	 -48.6365 	 20.4024 	 24.0377
| 18> H 	 -48.5861 	 19.1277 	 22.7501
| 19> C 	 -50.1571 	 18.7219 	 24.1786
| 20> H 	 -50.3269 	 18.769 	 25.2448
| 21> H 	 -50.8378 	 19.4795 	 23.7792
| 22> H 	 -50.2921 	 17.8066 	 23.7128
| 23> S 	 -45.1179 	 18.2221 	 30.4697
| 24> C 	 -44.8593 	 16.9136 	 31.5665
| 25> C 	 -45.7078 	 15.9296 	 31.2415
| 26> C 	 -46.473 	 16.0503 	 30.001
| 27> C 	 -46.409 	 17.3412 	 29.5628
| 28> H 	 -45.5859 	 14.9868 	 31.7762
| 29> C 	 -47.2334 	 14.8382 	 29.3833
| 30> H 	 -46.9119 	 13.8776 	 29.8887
| 31> H 	 -46.8024 	 14.5541 	 28.4784
| 32> C 	 -48.7424 	 14.9832 	 29.3979
| 33> H 	 -49.0556 	 14.3315 	 28.6591
| 34> H 	 -49.1791 	 15.9565 	 29.1823
| 35> C 	 -49.5148 	 14.5953 	 30.6986
| 36> H 	 -49.3859 	 13.4722 	 30.7978
| 37> H 	 -50.4951 	 14.9114 	 30.6518
| 38> H 	 -49.1654 	 15.1376 	 31.5599
| 39> H 	 -48.1532 	 20.7613 	 26.5016
| 40> H 	 -44.3776 	 16.975 	 32.5054
| 41> *
| 42>
| 43>                          ****END OF INPUT****

CARTESIAN COORDINATES (ANGSTROEM)
---------------------------------
  S    -47.280500   19.816600   28.558900
  C    -47.795800   19.850200   26.925300
  C    -47.431500   18.700600   26.203100
  C    -46.897600   17.677400   27.073600
  C    -46.958700   18.079900   28.414500
  H    -46.576900   16.740000   26.776300
  C    -47.528400   18.568600   24.697800
  H    -47.514200   17.541700   24.437900
  H    -46.613300   19.078300   24.392800
  C    -48.700000   19.292100   23.890900
  H    -48.636500   20.402400   24.037700
  H    -48.586100   19.127700   22.750100
  C    -50.157100   18.721900   24.178600
  H    -50.326900   18.769000   25.244800
  H    -50.837800   19.479500   23.779200
  H    -50.292100   17.806600   23.712800
  S    -45.117900   18.222100   30.469700
  C    -44.859300   16.913600   31.566500
  C    -45.707800   15.929600   31.241500
  C    -46.473000   16.050300   30.001000
  C    -46.409000   17.341200   29.562800
  H    -45.585900   14.986800   31.776200
  C    -47.233400   14.838200   29.383300
  H    -46.911900   13.877600   29.888700
  H    -46.802400   14.554100   28.478400
  C    -48.742400   14.983200   29.397900
  H    -49.055600   14.331500   28.659100
  H    -49.179100   15.956500   29.182300
  C    -49.514800   14.595300   30.698600
  H    -49.385900   13.472200   30.797800
  H    -50.495100   14.911400   30.651800
  H    -49.165400   15.137600   31.559900
  H    -48.153200   20.761300   26.501600
  H    -44.377600   16.975000   32.505400

 Total Charge           Charge          ....    0
 Multiplicity           Mult            ....    1
 Number of Electrons    NEL             ....  134
 Basis Dimension        Dim             ....  322

ORBITAL ENERGIES
----------------

  NO   OCC          E(Eh)            E(eV)
   0   2.0000     -88.968172     -2420.9470
   1   2.0000     -88.955998     -2420.6158
   2   2.0000     -10.332786      -281.1694
   3   2.0000     -10.328825      -281.0616
   4   2.0000     -10.310583      -280.5652
   5   2.0000     -10.307048      -280.4690
   6   2.0000     -10.305969      -280.4397
   7   2.0000     -10.305938      -280.4388
   8   2.0000     -10.305461      -280.4258
   9   2.0000     -10.297187      -280.2007
  10   2.0000     -10.296978      -280.1950
  11   2.0000     -10.294937      -280.1395
  12   2.0000     -10.287488      -279.9368
  13   2.0000     -10.277697      -279.6704
  14   2.0000     -10.274940      -279.5953
  15   2.0000     -10.271815      -279.5103
  16   2.0000      -8.083089      -219.9520
  17   2.0000      -8.070855      -219.6191
  18   2.0000      -6.041484      -164.3971
  19   2.0000      -6.037751      -164.2955
  20   2.0000      -6.033783      -164.1876
  21   2.0000      -6.029599      -164.0737
  22   2.0000      -6.025350      -163.9581
  23   2.0000      -6.021331      -163.8487
  24   2.0000      -1.003686       -27.3117
  25   2.0000      -0.982529       -26.7360
  26   2.0000      -0.906358       -24.6632
  27   2.0000      -0.901447       -24.5296
  28   2.0000      -0.866377       -23.5753
  29   2.0000      -0.851143       -23.1608
  30   2.0000      -0.841236       -22.8912
  31   2.0000      -0.813317       -22.1315
  32   2.0000      -0.787539       -21.4300
  33   2.0000      -0.775355       -21.0985
  34   2.0000      -0.707619       -19.2553
  35   2.0000      -0.700914       -19.0728
  36   2.0000      -0.690475       -18.7888
  37   2.0000      -0.660808       -17.9815
  38   2.0000      -0.643212       -17.5027
  39   2.0000      -0.609733       -16.5917
  40   2.0000      -0.597633       -16.2624
  41   2.0000      -0.571041       -15.5388
  42   2.0000      -0.552814       -15.0428
  43   2.0000      -0.549701       -14.9581
  44   2.0000      -0.544763       -14.8238
  45   2.0000      -0.536825       -14.6077
  46   2.0000      -0.521375       -14.1873
  47   2.0000      -0.510644       -13.8953
  48   2.0000      -0.500403       -13.6167
  49   2.0000      -0.495985       -13.4964
  50   2.0000      -0.486712       -13.2441
  51   2.0000      -0.484098       -13.1730
  52   2.0000      -0.473741       -12.8911
  53   2.0000      -0.467040       -12.7088
  54   2.0000      -0.457571       -12.4511
  55   2.0000      -0.453547       -12.3416
  56   2.0000      -0.445635       -12.1263
  57   2.0000      -0.440508       -11.9868
  58   2.0000      -0.425787       -11.5863
  59   2.0000      -0.424877       -11.5615
  60   2.0000      -0.411661       -11.2019
  61   2.0000      -0.407976       -11.1016
  62   2.0000      -0.404752       -11.0139
  63   2.0000      -0.349836        -9.5195
  64   2.0000      -0.326884        -8.8950
  65   2.0000      -0.324725        -8.8362
  66   2.0000      -0.291209        -7.9242
  67   0.0000       0.026029         0.7083
  68   0.0000       0.066966         1.8222
  69   0.0000       0.107939         2.9372
  70   0.0000       0.121756         3.3132
  71   0.0000       0.131627         3.5818

MULLIKEN ATOMIC CHARGES
-----------------------
   0 S :    0.115682
   1 C :   -0.112972
   2 C :   -0.103614
   3 C :    0.061109
   4 C :   -0.140827
   5 H :   -0.016005
   6 C :    0.094237
   7 H :    0.016411
   8 H :    0.049975
   9 C :   -0.155416
  10 H :    0.039689
  11 H :    0.045204
  12 C :   -0.023186
  13 H :    0.038595
  14 H :    0.030914
  15 H :    0.032358
  16 S :    0.065608
  17 C :   -0.060736
  18 C :   -0.043492
  19 C :   -0.064149
  20 C :   -0.139410
  21 H :    0.018247
  22 C :    0.095973
  23 H :    0.008904
  24 H :    0.012343
  25 C :   -0.050681
  26 H :    0.007307
  27 H :    0.040300
  28 C :   -0.035651
  29 H :    0.035980
  30 H :    0.017383
  31 H :    0.028147
  32 H :    0.038590
  33 H :    0.053183
Sum of atomic charges:    0.0000000

LOEWDIN ATOMIC CHARGES
----------------------
   0 S :    0.418703
   1 C :   -0.210465
   2 C :   -0.057274
   3 C :   -0.040834
   4 C :   -0.186893
   5 H :    0.019063
   6 C :   -0.032779
   7 H :    0.022486
   8 H :    0.042731
   9 C :   -0.046581
  10 H :    0.022974
  11 H :    0.034296
  12 C :   -0.059552
  13 H :    0.025369
  14 H :    0.029870
  15 H :    0.015525
  16 S :    0.371733
  17 C :   -0.190337
  18 C :   -0.075846
  19 C :   -0.058521
  20 C :   -0.172507
  21 H :    0.028326
  22 C :   -0.028692
  23 H :    0.039241
  24 H :    0.022583
  25 C :   -0.036327
  26 H :    0.014875
  27 H :    0.029801
  28 C :   -0.057000
  29 H :    0.029297
  30 H :    0.015711
  31 H :    0.023929
  32 H :    0.018193
  33 H :    0.028902

  Mayer bond orders larger than 0.100000
B(  0-S ,  1-C ) :   1.1516 B(  0-S ,  4-C ) :   1.1596 B(  1-C ,  2-C ) :   1.5769
B(  1-C , 32-H ) :   0.9737 B(  2-C ,  3-C ) :   1.2552 B(  2-C ,  6-C ) :   1.0108
B(  3-C ,  4-C ) :   1.5381 B(  3-C ,  5-H ) :   1.0074 B(  4-C , 20-C ) :   1.0392
B(  6-C ,  7-H ) :   0.9479 B(  6-C ,  8-H ) :   0.9302 B(  6-C ,  9-C ) :   1.0705
B(  9-C , 10-H ) :   0.9564 B(  9-C , 11-H ) :   0.9599 B(  9-C , 12-C ) :   1.0651
B( 12-C , 13-H ) :   0.9783 B( 12-C , 14-H ) :   0.9747 B( 12-C , 15-H ) :   0.9802
B( 16-S , 17-C ) :   1.1242 B( 16-S , 20-C ) :   1.1243 B( 17-C , 18-C ) :   1.6738
B( 17-C , 33-H ) :   0.9631 B( 18-C , 19-C ) :   1.2051 B( 18-C , 21-H ) :   0.9766
B( 19-C , 20-C ) :   1.6605 B( 19-C , 22-C ) :   1.0271 B( 22-C , 23-H ) :   0.9279
B( 22-C , 24-H ) :   0.9366 B( 22-C , 25-C ) :   1.0597 B( 25-C , 26-H ) :   0.9529
B( 25-C , 27-H ) :   0.9649 B( 25-C , 28-C ) :   1.0813 B( 28-C , 29-H ) :   0.9774
B( 28-C , 30-H ) :   0.9740 B( 28-C , 31-H ) :   0.9754

Dispersion correction           -0.014171604
FINAL SINGLE POINT ENERGY     -1339.843156238073

DIPOLE MOMENT
-------------
                                X             Y             Z
Electronic contribution:     17.73312      13.06382      14.80213
Nuclear contribution   :    -17.90519     -13.49771     -15.32857
                        -----------------------------------------
Total Dipole Moment    :     -0.17207      -0.43389      -0.52644
                        -----------------------------------------
Magnitude (a.u.)       :      0.70357
Magnitude (Debye)      :      1.78833

Rotational constants in cm-1:     0.020175     0.008227     0.006546
Rotational constants in MHz :   604.843686   246.631872   196.238148

                             ****ORCA TERMINATED NORMALLY****
TOTAL RUN TIME: 0 days 0 hours 0 minutes 21 seconds 274 msec
