                         Program Version 4.2.1 -  RELEASE  -
|  1> ! wB97X-D3 SP def2-SVP
|  2> %pal
|  3> nprocs 24
|  4> end
|  5>
|  6> * xyz 0 1
|  7> S 	 -129.702 	 64.7696 	 -58.6802
|  8> C 	 -128.19 	 65.1811 	 -57.9592
|  9> C 	 -127.882 	 66.5295 	 -58.1258
| 10> C 	 -128.93 	 67.2222 	 -58.8276
| 11> C 	 -130.035 	 66.4332 	 -59.1045
| 12> H 	 -128.857 	 68.2652 	 -59.0505
| 13> C 	 -126.515 	 67.0808 	 -57.6995
| 14> H 	 -126.56 	 67.0355 	 -56.6222
| 15> H 	 -126.368 	 68.0954 	 -58.0411
| 16> C 	 -125.384 	 66.2643 	 -58.234
| 17> H 	 -125.63 	 65.2139 	 -58.2096
| 18> H 	 -125.198 	 66.4683 	 -59.2764
| 19> C 	 -124.033 	 66.6151 	 -57.5255
| 20> H 	 -124.186 	 66.5223 	 -56.4116
| 21> H 	 -123.285 	 65.8081 	 -57.8028
| 22> H 	 -123.668 	 67.6289 	 -57.6709
| 23> S 	 -132.065 	 68.3339 	 -59.2371
| 24> C 	 -133.165 	 68.2773 	 -60.5485
| 25> C 	 -133.069 	 67.0692 	 -61.2423
| 26> C 	 -131.962 	 66.2871 	 -60.8325
| 27> C 	 -131.23 	 66.8313 	 -59.8021
| 28> H 	 -133.787 	 66.9238 	 -62.0856
| 29> C 	 -131.702 	 65.0207 	 -61.5929
| 30> H 	 -130.739 	 64.694 	 -61.199
| 31> H 	 -131.466 	 65.0957 	 -62.6307
| 32> C 	 -132.713 	 63.8911 	 -61.2406
| 33> H 	 -133.721 	 64.2146 	 -61.5751
| 34> H 	 -132.729 	 63.7289 	 -60.16
| 35> C 	 -132.356 	 62.6686 	 -62.0823
| 36> H 	 -131.499 	 62.0251 	 -61.6834
| 37> H 	 -132.113 	 62.823 	 -63.1352
| 38> H 	 -133.194 	 62.0162 	 -62.0839
| 39> H 	 -127.517 	 64.4893 	 -57.4886
| 40> H 	 -133.933 	 69.0423 	 -60.6399
| 41> *
| 42>
| 43>                          ****END OF INPUT****

CARTESIAN COORDINATES (ANGSTROEM)
---------------------------------
  S    -129.702000   64.769600  -58.680200
  C    -128.190000   65.181100  -57.959200
  C    -127.882000   66.529500  -58.125800
  C    -128.930000   67.222200  -58.827600
  C    -130.035000   66.433200  -59.104500
  H    -128.857000   68.265200  -59.050500
  C    -126.515000   67.080800  -57.699500
  H    -126.560000   67.035500  -56.622200
  H    -126.368000   68.095400  -58.041100
  C    -125.384000   66.264300  -58.234000
  H    -125.630000   65.213900  -58.209600
  H    -125.198000   66.468300  -59.276400
  C    -124.033000   66.615100  -57.525500
  H    -124.186000   66.522300  -56.411600
  H    -123.285000   65.808100  -57.802800
  H    -123.668000   67.628900  -57.670900
  S    -132.065000   68.333900  -59.237100
  C    -133.165000   68.277300  -60.548500
  C    -133.069000   67.069200  -61.242300
  C    -131.962000   66.287100  -60.832500
  C    -131.230000   66.831300  -59.802100
  H    -133.787000   66.923800  -62.085600
  C    -131.702000   65.020700  -61.592900
  H    -130.739000   64.694000  -61.199000
  H    -131.466000   65.095700  -62.630700
  C    -132.713000   63.891100  -61.240600
  H    -133.721000   64.214600  -61.575100
  H    -132.729000   63.728900  -60.160000
  C    -132.356000   62.668600  -62.082300
  H    -131.499000   62.025100  -61.683400
  H    -132.113000   62.823000  -63.135200
  H    -133.194000   62.016200  -62.083900
  H    -127.517000   64.489300  -57.488600
  H    -133.933000   69.042300  -60.639900

 Total Charge           Charge          ....    0
 Multiplicity           Mult            ....    1
 Number of Electrons    NEL             ....  134
 Basis Dimension        Dim             ....  322

ORBITAL ENERGIES
----------------

  NO   OCC          E(Eh)            E(eV)
   0   2.0000     -88.969440     -2420.9815
   1   2.0000     -88.962188     -2420.7842
   2   2.0000     -10.329933      -281.0918
   3   2.0000     -10.327917      -281.0369
   4   2.0000     -10.315747      -280.7057
   5   2.0000     -10.311120      -280.5798
   6   2.0000     -10.301759      -280.3251
   7   2.0000     -10.300101      -280.2800
   8   2.0000     -10.294645      -280.1315
   9   2.0000     -10.294189      -280.1191
  10   2.0000     -10.289959      -280.0040
  11   2.0000     -10.289901      -280.0024
  12   2.0000     -10.288160      -279.9551
  13   2.0000     -10.283485      -279.8279
  14   2.0000     -10.282622      -279.8044
  15   2.0000     -10.276835      -279.6469
  16   2.0000      -8.083959      -219.9757
  17   2.0000      -8.076930      -219.7844
  18   2.0000      -6.042436      -164.4231
  19   2.0000      -6.038413      -164.3136
  20   2.0000      -6.035348      -164.2302
  21   2.0000      -6.034872      -164.2172
  22   2.0000      -6.031406      -164.1229
  23   2.0000      -6.027821      -164.0254
  24   2.0000      -1.006678       -27.3931
  25   2.0000      -0.984777       -26.7971
  26   2.0000      -0.916976       -24.9522
  27   2.0000      -0.908308       -24.7163
  28   2.0000      -0.868580       -23.6353
  29   2.0000      -0.851551       -23.1719
  30   2.0000      -0.845599       -23.0099
  31   2.0000      -0.808820       -22.0091
  32   2.0000      -0.780566       -21.2403
  33   2.0000      -0.768774       -20.9194
  34   2.0000      -0.707477       -19.2514
  35   2.0000      -0.701730       -19.0950
  36   2.0000      -0.696185       -18.9442
  37   2.0000      -0.662696       -18.0329
  38   2.0000      -0.639537       -17.4027
  39   2.0000      -0.615542       -16.7498
  40   2.0000      -0.599553       -16.3147
  41   2.0000      -0.579929       -15.7807
  42   2.0000      -0.561064       -15.2673
  43   2.0000      -0.556595       -15.1457
  44   2.0000      -0.526209       -14.3189
  45   2.0000      -0.522151       -14.2085
  46   2.0000      -0.515813       -14.0360
  47   2.0000      -0.513112       -13.9625
  48   2.0000      -0.504165       -13.7190
  49   2.0000      -0.502126       -13.6635
  50   2.0000      -0.497274       -13.5315
  51   2.0000      -0.476482       -12.9657
  52   2.0000      -0.468724       -12.7546
  53   2.0000      -0.462057       -12.5732
  54   2.0000      -0.461065       -12.5462
  55   2.0000      -0.449294       -12.2259
  56   2.0000      -0.444957       -12.1079
  57   2.0000      -0.438581       -11.9344
  58   2.0000      -0.436321       -11.8729
  59   2.0000      -0.425634       -11.5821
  60   2.0000      -0.413281       -11.2460
  61   2.0000      -0.412323       -11.2199
  62   2.0000      -0.409578       -11.1452
  63   2.0000      -0.351530        -9.5656
  64   2.0000      -0.330265        -8.9870
  65   2.0000      -0.329254        -8.9595
  66   2.0000      -0.287560        -7.8249
  67   0.0000       0.026113         0.7106
  68   0.0000       0.075390         2.0515
  69   0.0000       0.109634         2.9833
  70   0.0000       0.110975         3.0198
  71   0.0000       0.132584         3.6078

MULLIKEN ATOMIC CHARGES
-----------------------
   0 S :    0.123459
   1 C :   -0.134525
   2 C :   -0.105262
   3 C :    0.030030
   4 C :   -0.150290
   5 H :    0.005702
   6 C :    0.109669
   7 H :    0.035275
   8 H :    0.018571
   9 C :   -0.083460
  10 H :    0.021023
  11 H :    0.029672
  12 C :   -0.080801
  13 H :    0.027786
  14 H :    0.048548
  15 H :    0.042530
  16 S :    0.098386
  17 C :   -0.105194
  18 C :   -0.046538
  19 C :   -0.023741
  20 C :   -0.138909
  21 H :    0.037974
  22 C :    0.062643
  23 H :   -0.004629
  24 H :    0.026868
  25 C :   -0.065850
  26 H :    0.030485
  27 H :    0.040978
  28 C :   -0.051290
  29 H :    0.039818
  30 H :    0.029921
  31 H :    0.021239
  32 H :    0.047516
  33 H :    0.062397
Sum of atomic charges:    0.0000000

LOEWDIN ATOMIC CHARGES
----------------------
   0 S :    0.430679
   1 C :   -0.208446
   2 C :   -0.058060
   3 C :   -0.059019
   4 C :   -0.196517
   5 H :    0.027740
   6 C :   -0.027748
   7 H :    0.032962
   8 H :    0.029260
   9 C :   -0.041181
  10 H :    0.019036
  11 H :    0.026034
  12 C :   -0.072450
  13 H :    0.025068
  14 H :    0.034962
  15 H :    0.024319
  16 S :    0.397783
  17 C :   -0.192453
  18 C :   -0.078387
  19 C :   -0.059616
  20 C :   -0.181581
  21 H :    0.040124
  22 C :   -0.036055
  23 H :    0.016127
  24 H :    0.027640
  25 C :   -0.030381
  26 H :    0.023696
  27 H :    0.029102
  28 C :   -0.072743
  29 H :    0.033098
  30 H :    0.025470
  31 H :    0.019541
  32 H :    0.023755
  33 H :    0.028240

  Mayer bond orders larger than 0.100000
B(  0-S ,  1-C ) :   1.1544 B(  0-S ,  4-C ) :   1.1523 B(  1-C ,  2-C ) :   1.5825
B(  1-C , 32-H ) :   0.9678 B(  2-C ,  3-C ) :   1.2798 B(  2-C ,  6-C ) :   1.0076
B(  3-C ,  4-C ) :   1.5277 B(  3-C ,  5-H ) :   0.9983 B(  4-C , 20-C ) :   1.0652
B(  6-C ,  7-H ) :   0.9361 B(  6-C ,  8-H ) :   0.9436 B(  6-C ,  9-C ) :   1.0703
B(  9-C , 10-H ) :   0.9598 B(  9-C , 11-H ) :   0.9517 B(  9-C , 12-C ) :   1.0706
B( 12-C , 13-H ) :   0.9776 B( 12-C , 14-H ) :   0.9743 B( 12-C , 15-H ) :   0.9759
B( 16-S , 17-C ) :   1.1745 B( 16-S , 20-C ) :   1.1255 B( 17-C , 18-C ) :   1.5883
B( 17-C , 20-C ) :   0.1002 B( 17-C , 33-H ) :   0.9663 B( 18-C , 19-C ) :   1.2315
B( 18-C , 21-H ) :   0.9877 B( 19-C , 20-C ) :   1.5891 B( 19-C , 22-C ) :   1.0433
B( 22-C , 23-H ) :   0.9220 B( 22-C , 24-H ) :   0.9421 B( 22-C , 25-C ) :   1.0550
B( 25-C , 26-H ) :   0.9614 B( 25-C , 27-H ) :   0.9524 B( 25-C , 28-C ) :   1.0786
B( 28-C , 29-H ) :   0.9737 B( 28-C , 30-H ) :   0.9731 B( 28-C , 31-H ) :   0.9737

Dispersion correction           -0.013757293
FINAL SINGLE POINT ENERGY     -1339.885149364663

DIPOLE MOMENT
-------------
                                X             Y             Z
Electronic contribution:    -14.84679      10.34119       4.81199
Nuclear contribution   :     15.10596     -10.40130      -5.04612
                        -----------------------------------------
Total Dipole Moment    :      0.25917      -0.06011      -0.23412
                        -----------------------------------------
Magnitude (a.u.)       :      0.35440
Magnitude (Debye)      :      0.90080

Rotational constants in cm-1:     0.021972     0.007323     0.005867
Rotational constants in MHz :   658.689331   219.533790   175.902193

                             ****ORCA TERMINATED NORMALLY****
TOTAL RUN TIME: 0 days 0 hours 0 minutes 19 seconds 817 msec
