                         Program Version 4.2.1 -  RELEASE  -
|  1> ! wB97X-D3 SP def2-SVP
|  2> %pal
|  3> nprocs 24
|  4> end
|  5>
|  6> * xyz 0 1
|  7> S 	 -118.315 	 58.4158 	 -38.4183
|  8> C 	 -117.715 	 56.8952 	 -37.6842
|  9> C 	 -117.483 	 57.0338 	 -36.332
| 10> C 	 -117.817 	 58.3579 	 -35.7848
| 11> C 	 -118.25 	 59.1973 	 -36.8342
| 12> H 	 -117.888 	 58.6242 	 -34.7282
| 13> C 	 -116.918 	 56.0504 	 -35.3749
| 14> H 	 -117.18 	 55.0691 	 -35.8669
| 15> H 	 -117.542 	 56.1256 	 -34.47
| 16> C 	 -115.437 	 55.9924 	 -35.1229
| 17> H 	 -114.837 	 55.5993 	 -35.9953
| 18> H 	 -115.069 	 57.0041 	 -34.8572
| 19> C 	 -115.059 	 54.9919 	 -33.9944
| 20> H 	 -115.269 	 55.3515 	 -33.007
| 21> H 	 -115.424 	 54.0151 	 -34.2309
| 22> H 	 -114.005 	 54.9616 	 -34.0097
| 23> S 	 -117.529 	 61.8233 	 -37.435
| 24> C 	 -118.547 	 63.1763 	 -36.7621
| 25> C 	 -119.696 	 62.6133 	 -36.2902
| 26> C 	 -119.681 	 61.2167 	 -36.0692
| 27> C 	 -118.591 	 60.6365 	 -36.6973
| 28> H 	 -120.55 	 63.1926 	 -36.0228
| 29> C 	 -120.834 	 60.3794 	 -35.4623
| 30> H 	 -120.394 	 59.6449 	 -34.8485
| 31> H 	 -121.281 	 59.8823 	 -36.2377
| 32> C 	 -121.944 	 61.1052 	 -34.6111
| 33> H 	 -122.248 	 61.9249 	 -35.1371
| 34> H 	 -121.467 	 61.4085 	 -33.6789
| 35> C 	 -123.161 	 60.2333 	 -34.2802
| 36> H 	 -123.486 	 60.2937 	 -33.1723
| 37> H 	 -122.976 	 59.149 	 -34.4417
| 38> H 	 -124.009 	 60.4113 	 -34.9479
| 39> H 	 -117.339 	 56.0167 	 -38.1953
| 40> H 	 -118.302 	 64.2427 	 -36.7454
| 41> *
| 42>
| 43>                          ****END OF INPUT****

CARTESIAN COORDINATES (ANGSTROEM)
---------------------------------
  S    -118.315000   58.415800  -38.418300
  C    -117.715000   56.895200  -37.684200
  C    -117.483000   57.033800  -36.332000
  C    -117.817000   58.357900  -35.784800
  C    -118.250000   59.197300  -36.834200
  H    -117.888000   58.624200  -34.728200
  C    -116.918000   56.050400  -35.374900
  H    -117.180000   55.069100  -35.866900
  H    -117.542000   56.125600  -34.470000
  C    -115.437000   55.992400  -35.122900
  H    -114.837000   55.599300  -35.995300
  H    -115.069000   57.004100  -34.857200
  C    -115.059000   54.991900  -33.994400
  H    -115.269000   55.351500  -33.007000
  H    -115.424000   54.015100  -34.230900
  H    -114.005000   54.961600  -34.009700
  S    -117.529000   61.823300  -37.435000
  C    -118.547000   63.176300  -36.762100
  C    -119.696000   62.613300  -36.290200
  C    -119.681000   61.216700  -36.069200
  C    -118.591000   60.636500  -36.697300
  H    -120.550000   63.192600  -36.022800
  C    -120.834000   60.379400  -35.462300
  H    -120.394000   59.644900  -34.848500
  H    -121.281000   59.882300  -36.237700
  C    -121.944000   61.105200  -34.611100
  H    -122.248000   61.924900  -35.137100
  H    -121.467000   61.408500  -33.678900
  C    -123.161000   60.233300  -34.280200
  H    -123.486000   60.293700  -33.172300
  H    -122.976000   59.149000  -34.441700
  H    -124.009000   60.411300  -34.947900
  H    -117.339000   56.016700  -38.195300
  H    -118.302000   64.242700  -36.745400

 Total Charge           Charge          ....    0
 Multiplicity           Mult            ....    1
 Number of Electrons    NEL             ....  134
 Basis Dimension        Dim             ....  322

ORBITAL ENERGIES
----------------

  NO   OCC          E(Eh)            E(eV)
   0   2.0000     -88.970367     -2421.0068
   1   2.0000     -88.963895     -2420.8307
   2   2.0000     -10.336116      -281.2600
   3   2.0000     -10.325344      -280.9669
   4   2.0000     -10.322015      -280.8763
   5   2.0000     -10.314944      -280.6839
   6   2.0000     -10.301865      -280.3280
   7   2.0000     -10.301177      -280.3093
   8   2.0000     -10.300330      -280.2862
   9   2.0000     -10.292547      -280.0744
  10   2.0000     -10.291321      -280.0411
  11   2.0000     -10.290480      -280.0182
  12   2.0000     -10.287597      -279.9398
  13   2.0000     -10.284539      -279.8565
  14   2.0000     -10.283897      -279.8391
  15   2.0000     -10.272248      -279.5221
  16   2.0000      -8.083815      -219.9718
  17   2.0000      -8.077530      -219.8008
  18   2.0000      -6.042521      -164.4254
  19   2.0000      -6.038600      -164.3187
  20   2.0000      -6.036258      -164.2549
  21   2.0000      -6.034340      -164.2027
  22   2.0000      -6.032221      -164.1451
  23   2.0000      -6.028093      -164.0328
  24   2.0000      -0.998074       -27.1590
  25   2.0000      -0.975592       -26.5472
  26   2.0000      -0.912746       -24.8371
  27   2.0000      -0.903964       -24.5981
  28   2.0000      -0.866252       -23.5719
  29   2.0000      -0.848588       -23.0913
  30   2.0000      -0.844867       -22.9900
  31   2.0000      -0.812905       -22.1203
  32   2.0000      -0.781224       -21.2582
  33   2.0000      -0.770674       -20.9711
  34   2.0000      -0.708636       -19.2830
  35   2.0000      -0.699838       -19.0436
  36   2.0000      -0.698547       -19.0084
  37   2.0000      -0.654850       -17.8194
  38   2.0000      -0.634814       -17.2742
  39   2.0000      -0.612256       -16.6603
  40   2.0000      -0.596026       -16.2187
  41   2.0000      -0.574032       -15.6202
  42   2.0000      -0.568779       -15.4773
  43   2.0000      -0.559825       -15.2336
  44   2.0000      -0.525924       -14.3111
  45   2.0000      -0.521569       -14.1926
  46   2.0000      -0.518381       -14.1059
  47   2.0000      -0.512033       -13.9331
  48   2.0000      -0.509203       -13.8561
  49   2.0000      -0.497436       -13.5359
  50   2.0000      -0.490332       -13.3426
  51   2.0000      -0.479943       -13.0599
  52   2.0000      -0.465054       -12.6548
  53   2.0000      -0.462387       -12.5822
  54   2.0000      -0.458321       -12.4715
  55   2.0000      -0.449589       -12.2339
  56   2.0000      -0.448766       -12.2115
  57   2.0000      -0.436443       -11.8762
  58   2.0000      -0.431813       -11.7502
  59   2.0000      -0.423791       -11.5319
  60   2.0000      -0.418816       -11.3966
  61   2.0000      -0.416369       -11.3300
  62   2.0000      -0.410901       -11.1812
  63   2.0000      -0.338700        -9.2165
  64   2.0000      -0.328327        -8.9342
  65   2.0000      -0.325512        -8.8576
  66   2.0000      -0.297703        -8.1009
  67   0.0000       0.035922         0.9775
  68   0.0000       0.055920         1.5217
  69   0.0000       0.107967         2.9379
  70   0.0000       0.111396         3.0312
  71   0.0000       0.124523         3.3884

MULLIKEN ATOMIC CHARGES
-----------------------
   0 S :    0.112003
   1 C :   -0.110109
   2 C :   -0.097598
   3 C :    0.034118
   4 C :   -0.169926
   5 H :    0.033271
   6 C :    0.043819
   7 H :    0.015933
   8 H :    0.031749
   9 C :   -0.087864
  10 H :    0.037564
  11 H :    0.030730
  12 C :   -0.008162
  13 H :    0.026959
  14 H :    0.027934
  15 H :    0.017025
  16 S :    0.099782
  17 C :   -0.104397
  18 C :   -0.022602
  19 C :   -0.046671
  20 C :   -0.169154
  21 H :    0.010415
  22 C :    0.119112
  23 H :    0.007884
  24 H :    0.019139
  25 C :   -0.042733
  26 H :    0.014723
  27 H :    0.033804
  28 C :   -0.090614
  29 H :    0.051026
  30 H :    0.031409
  31 H :    0.038645
  32 H :    0.044036
  33 H :    0.068751
Sum of atomic charges:    0.0000000

LOEWDIN ATOMIC CHARGES
----------------------
   0 S :    0.386040
   1 C :   -0.198193
   2 C :   -0.058896
   3 C :   -0.061405
   4 C :   -0.180401
   5 H :    0.036154
   6 C :   -0.047206
   7 H :    0.033979
   8 H :    0.034781
   9 C :   -0.039892
  10 H :    0.032233
  11 H :    0.023990
  12 C :   -0.055353
  13 H :    0.021377
  14 H :    0.022047
  15 H :    0.022447
  16 S :    0.376035
  17 C :   -0.167329
  18 C :   -0.068799
  19 C :   -0.055406
  20 C :   -0.201255
  21 H :    0.025662
  22 C :   -0.015541
  23 H :    0.025126
  24 H :    0.021672
  25 C :   -0.032662
  26 H :    0.008678
  27 H :    0.027997
  28 C :   -0.076733
  29 H :    0.038581
  30 H :    0.027548
  31 H :    0.027267
  32 H :    0.030153
  33 H :    0.037301

  Mayer bond orders larger than 0.100000
B(  0-S ,  1-C ) :   1.0986 B(  0-S ,  4-C ) :   1.1559 B(  1-C ,  2-C ) :   1.6697
B(  1-C , 32-H ) :   0.9607 B(  2-C ,  3-C ) :   1.1953 B(  2-C ,  6-C ) :   1.0306
B(  3-C ,  4-C ) :   1.6018 B(  3-C ,  5-H ) :   0.9852 B(  4-C , 20-C ) :   1.0049
B(  6-C ,  7-H ) :   0.9306 B(  6-C ,  8-H ) :   0.9391 B(  6-C ,  9-C ) :   1.0722
B(  9-C , 10-H ) :   0.9562 B(  9-C , 11-H ) :   0.9545 B(  9-C , 12-C ) :   1.0816
B( 12-C , 13-H ) :   0.9753 B( 12-C , 14-H ) :   0.9748 B( 12-C , 15-H ) :   0.9735
B( 16-S , 17-C ) :   1.1274 B( 16-S , 20-C ) :   1.1484 B( 17-C , 18-C ) :   1.6130
B( 17-C , 20-C ) :   0.1062 B( 17-C , 33-H ) :   0.9696 B( 18-C , 19-C ) :   1.2550
B( 18-C , 21-H ) :   0.9811 B( 19-C , 20-C ) :   1.6077 B( 19-C , 22-C ) :   1.0206
B( 22-C , 23-H ) :   0.9223 B( 22-C , 24-H ) :   0.9313 B( 22-C , 25-C ) :   1.0759
B( 25-C , 26-H ) :   0.9566 B( 25-C , 27-H ) :   0.9628 B( 25-C , 28-C ) :   1.0699
B( 28-C , 29-H ) :   0.9770 B( 28-C , 30-H ) :   0.9770 B( 28-C , 31-H ) :   0.9767

Dispersion correction           -0.013399916
FINAL SINGLE POINT ENERGY     -1339.855307208561

DIPOLE MOMENT
-------------
                                X             Y             Z
Electronic contribution:      6.06310      14.11160     -20.81992
Nuclear contribution   :     -6.25655     -14.31242      21.38604
                        -----------------------------------------
Total Dipole Moment    :     -0.19346      -0.20082       0.56612
                        -----------------------------------------
Magnitude (a.u.)       :      0.63107
Magnitude (Debye)      :      1.60405

Rotational constants in cm-1:     0.017354     0.007440     0.006286
Rotational constants in MHz :   520.268617   223.040528   188.436117

                             ****ORCA TERMINATED NORMALLY****
TOTAL RUN TIME: 0 days 0 hours 0 minutes 20 seconds 702 msec
