                         Program Version 4.2.1 -  RELEASE  -
|  1> ! wB97X-D3 SP def2-SVP
|  2> %pal
|  3> nprocs 24
|  4> end
|  5>
|  6> * xyz 0 1
|  7> S 	 -36.1429 	 -11.4192 	 4.10146
|  8> C 	 -36.1497 	 -11.8667 	 5.79016
|  9> C 	 -36.5551 	 -10.7792 	 6.55339
| 10> C 	 -37.0899 	 -9.73748 	 5.80675
| 11> C 	 -36.9827 	 -9.86707 	 4.43318
| 12> H 	 -37.5431 	 -8.88913 	 6.23091
| 13> C 	 -36.7759 	 -10.7701 	 8.01175
| 14> H 	 -36.4126 	 -11.712 	 8.24882
| 15> H 	 -37.8155 	 -10.7167 	 8.23557
| 16> C 	 -36.0071 	 -9.76201 	 8.91082
| 17> H 	 -36.3931 	 -8.72325 	 8.73754
| 18> H 	 -36.1242 	 -9.93968 	 9.99165
| 19> C 	 -34.4972 	 -9.68011 	 8.58223
| 20> H 	 -33.9467 	 -9.32316 	 9.34039
| 21> H 	 -34.1399 	 -10.7154 	 8.36413
| 22> H 	 -34.3369 	 -9.12127 	 7.72039
| 23> S 	 -36.6967 	 -9.12954 	 1.83423
| 24> C 	 -37.3181 	 -7.6246 	 1.24036
| 25> C 	 -38.1043 	 -7.09383 	 2.20795
| 26> C 	 -38.0948 	 -7.70207 	 3.49662
| 27> C 	 -37.4505 	 -8.9378 	 3.45625
| 28> H 	 -38.5243 	 -6.12059 	 1.83598
| 29> C 	 -38.8223 	 -7.0083 	 4.70801
| 30> H 	 -39.2256 	 -7.86634 	 5.24385
| 31> H 	 -39.824 	 -6.66275 	 4.49567
| 32> C 	 -38.0595 	 -5.86642 	 5.40345
| 33> H 	 -37.9417 	 -5.02246 	 4.66585
| 34> H 	 -37.1431 	 -6.1412 	 5.80757
| 35> C 	 -38.8218 	 -5.26363 	 6.51518
| 36> H 	 -38.296 	 -4.54093 	 7.06041
| 37> H 	 -38.8631 	 -6.08162 	 7.33422
| 38> H 	 -39.8711 	 -4.91529 	 6.27286
| 39> H 	 -35.7028 	 -12.7571 	 6.1824
| 40> H 	 -37.1249 	 -7.37476 	 0.197615
| 41> *
| 42>
| 43>                          ****END OF INPUT****

CARTESIAN COORDINATES (ANGSTROEM)
---------------------------------
  S    -36.142900  -11.419200    4.101460
  C    -36.149700  -11.866700    5.790160
  C    -36.555100  -10.779200    6.553390
  C    -37.089900   -9.737480    5.806750
  C    -36.982700   -9.867070    4.433180
  H    -37.543100   -8.889130    6.230910
  C    -36.775900  -10.770100    8.011750
  H    -36.412600  -11.712000    8.248820
  H    -37.815500  -10.716700    8.235570
  C    -36.007100   -9.762010    8.910820
  H    -36.393100   -8.723250    8.737540
  H    -36.124200   -9.939680    9.991650
  C    -34.497200   -9.680110    8.582230
  H    -33.946700   -9.323160    9.340390
  H    -34.139900  -10.715400    8.364130
  H    -34.336900   -9.121270    7.720390
  S    -36.696700   -9.129540    1.834230
  C    -37.318100   -7.624600    1.240360
  C    -38.104300   -7.093830    2.207950
  C    -38.094800   -7.702070    3.496620
  C    -37.450500   -8.937800    3.456250
  H    -38.524300   -6.120590    1.835980
  C    -38.822300   -7.008300    4.708010
  H    -39.225600   -7.866340    5.243850
  H    -39.824000   -6.662750    4.495670
  C    -38.059500   -5.866420    5.403450
  H    -37.941700   -5.022460    4.665850
  H    -37.143100   -6.141200    5.807570
  C    -38.821800   -5.263630    6.515180
  H    -38.296000   -4.540930    7.060410
  H    -38.863100   -6.081620    7.334220
  H    -39.871100   -4.915290    6.272860
  H    -35.702800  -12.757100    6.182400
  H    -37.124900   -7.374760    0.197615

 Total Charge           Charge          ....    0
 Multiplicity           Mult            ....    1
 Number of Electrons    NEL             ....  134
 Basis Dimension        Dim             ....  322

ORBITAL ENERGIES
----------------

  NO   OCC          E(Eh)            E(eV)
   0   2.0000     -88.968554     -2420.9574
   1   2.0000     -88.958241     -2420.6768
   2   2.0000     -10.335004      -281.2297
   3   2.0000     -10.333077      -281.1773
   4   2.0000     -10.316564      -280.7280
   5   2.0000     -10.315754      -280.7060
   6   2.0000     -10.314375      -280.6684
   7   2.0000     -10.299826      -280.2725
   8   2.0000     -10.295795      -280.1628
   9   2.0000     -10.294307      -280.1223
  10   2.0000     -10.291744      -280.0526
  11   2.0000     -10.289357      -279.9876
  12   2.0000     -10.283986      -279.8415
  13   2.0000     -10.283859      -279.8380
  14   2.0000     -10.280693      -279.7519
  15   2.0000     -10.262973      -279.2697
  16   2.0000      -8.082301      -219.9306
  17   2.0000      -8.073463      -219.6901
  18   2.0000      -6.041013      -164.3843
  19   2.0000      -6.036946      -164.2736
  20   2.0000      -6.032904      -164.1637
  21   2.0000      -6.032007      -164.1392
  22   2.0000      -6.027862      -164.0265
  23   2.0000      -6.024196      -163.9267
  24   2.0000      -1.008002       -27.4291
  25   2.0000      -0.986551       -26.8454
  26   2.0000      -0.915952       -24.9243
  27   2.0000      -0.913718       -24.8635
  28   2.0000      -0.875952       -23.8359
  29   2.0000      -0.856805       -23.3148
  30   2.0000      -0.847124       -23.0514
  31   2.0000      -0.817853       -22.2549
  32   2.0000      -0.786481       -21.4012
  33   2.0000      -0.776910       -21.1408
  34   2.0000      -0.714967       -19.4552
  35   2.0000      -0.702471       -19.1152
  36   2.0000      -0.700224       -19.0541
  37   2.0000      -0.661215       -17.9926
  38   2.0000      -0.636546       -17.3213
  39   2.0000      -0.629347       -17.1254
  40   2.0000      -0.599532       -16.3141
  41   2.0000      -0.576400       -15.6846
  42   2.0000      -0.566078       -15.4038
  43   2.0000      -0.554127       -15.0786
  44   2.0000      -0.548529       -14.9262
  45   2.0000      -0.533138       -14.5074
  46   2.0000      -0.525420       -14.2974
  47   2.0000      -0.520457       -14.1624
  48   2.0000      -0.508679       -13.8419
  49   2.0000      -0.501075       -13.6349
  50   2.0000      -0.494443       -13.4545
  51   2.0000      -0.484484       -13.1835
  52   2.0000      -0.470722       -12.8090
  53   2.0000      -0.462288       -12.5795
  54   2.0000      -0.460695       -12.5362
  55   2.0000      -0.449748       -12.2383
  56   2.0000      -0.441484       -12.0134
  57   2.0000      -0.434052       -11.8112
  58   2.0000      -0.428938       -11.6720
  59   2.0000      -0.425320       -11.5736
  60   2.0000      -0.412763       -11.2319
  61   2.0000      -0.408918       -11.1272
  62   2.0000      -0.406771       -11.0688
  63   2.0000      -0.370020       -10.0688
  64   2.0000      -0.336104        -9.1459
  65   2.0000      -0.328395        -8.9361
  66   2.0000      -0.280313        -7.6277
  67   0.0000       0.012989         0.3535
  68   0.0000       0.083530         2.2730
  69   0.0000       0.099995         2.7210
  70   0.0000       0.117390         3.1944
  71   0.0000       0.119489         3.2515

MULLIKEN ATOMIC CHARGES
-----------------------
   0 S :    0.108135
   1 C :   -0.113478
   2 C :   -0.085897
   3 C :   -0.012126
   4 C :   -0.075620
   5 H :   -0.020327
   6 C :    0.119057
   7 H :   -0.015785
   8 H :    0.034305
   9 C :   -0.112089
  10 H :    0.024967
  11 H :    0.037456
  12 C :    0.007120
  13 H :    0.009109
  14 H :    0.015728
  15 H :    0.027184
  16 S :    0.052949
  17 C :   -0.108075
  18 C :   -0.028131
  19 C :   -0.053627
  20 C :   -0.102120
  21 H :    0.034774
  22 C :    0.030554
  23 H :    0.020147
  24 H :    0.009646
  25 C :   -0.005254
  26 H :    0.038332
  27 H :    0.018869
  28 C :   -0.064819
  29 H :    0.024232
  30 H :    0.019236
  31 H :    0.045602
  32 H :    0.047489
  33 H :    0.072458
Sum of atomic charges:    0.0000000

LOEWDIN ATOMIC CHARGES
----------------------
   0 S :    0.390840
   1 C :   -0.191560
   2 C :   -0.066491
   3 C :   -0.059368
   4 C :   -0.173353
   5 H :    0.021201
   6 C :   -0.025836
   7 H :    0.019059
   8 H :    0.032274
   9 C :   -0.038567
  10 H :    0.020812
  11 H :    0.026675
  12 C :   -0.050686
  13 H :    0.008746
  14 H :    0.027028
  15 H :    0.020333
  16 S :    0.378583
  17 C :   -0.184793
  18 C :   -0.083565
  19 C :   -0.055123
  20 C :   -0.169563
  21 H :    0.040723
  22 C :   -0.039728
  23 H :    0.032317
  24 H :    0.032621
  25 C :   -0.035705
  26 H :    0.034486
  27 H :    0.018081
  28 C :   -0.068613
  29 H :    0.018446
  30 H :    0.029392
  31 H :    0.030113
  32 H :    0.026845
  33 H :    0.034375

  Mayer bond orders larger than 0.100000
B(  0-S ,  1-C ) :   1.1410 B(  0-S ,  4-C ) :   1.1223 B(  1-C ,  2-C ) :   1.5777
B(  1-C ,  4-C ) :   0.1000 B(  1-C , 32-H ) :   0.9637 B(  2-C ,  3-C ) :   1.2604
B(  2-C ,  6-C ) :   1.0311 B(  3-C ,  4-C ) :   1.5515 B(  3-C ,  5-H ) :   1.0024
B(  4-C , 20-C ) :   1.1191 B(  6-C ,  7-H ) :   0.9262 B(  6-C ,  8-H ) :   0.9456
B(  6-C ,  9-C ) :   1.0653 B(  9-C , 10-H ) :   0.9575 B(  9-C , 11-H ) :   0.9624
B(  9-C , 12-C ) :   1.0746 B( 12-C , 13-H ) :   0.9742 B( 12-C , 14-H ) :   0.9768
B( 12-C , 15-H ) :   0.9710 B( 16-S , 17-C ) :   1.1529 B( 16-S , 20-C ) :   1.1237
B( 17-C , 18-C ) :   1.6117 B( 17-C , 33-H ) :   0.9683 B( 18-C , 19-C ) :   1.2280
B( 18-C , 21-H ) :   0.9834 B( 19-C , 20-C ) :   1.5900 B( 19-C , 22-C ) :   1.0133
B( 22-C , 23-H ) :   0.9395 B( 22-C , 24-H ) :   0.9354 B( 22-C , 25-C ) :   1.0477
B( 25-C , 26-H ) :   0.9496 B( 25-C , 27-H ) :   0.9528 B( 25-C , 28-C ) :   1.0995
B( 28-C , 29-H ) :   0.9700 B( 28-C , 30-H ) :   0.9694 B( 28-C , 31-H ) :   0.9707

Dispersion correction           -0.014308585
FINAL SINGLE POINT ENERGY     -1339.841140150728

DIPOLE MOMENT
-------------
                                X             Y             Z
Electronic contribution:      2.96153     -15.13107     -26.82781
Nuclear contribution   :     -3.14130      15.68775      27.34640
                        -----------------------------------------
Total Dipole Moment    :     -0.17976       0.55668       0.51859
                        -----------------------------------------
Magnitude (a.u.)       :      0.78176
Magnitude (Debye)      :      1.98707

Rotational constants in cm-1:     0.016266     0.010330     0.006836
Rotational constants in MHz :   487.647486   309.697232   204.950498

                             ****ORCA TERMINATED NORMALLY****
TOTAL RUN TIME: 0 days 0 hours 0 minutes 20 seconds 986 msec
