                         Program Version 4.2.1 -  RELEASE  -
|  1> ! wB97X-D3 SP def2-SVP
|  2> %pal
|  3> nprocs 24
|  4> end
|  5>
|  6> * xyz 0 1
|  7> S 	 -57.5527 	 9.1535 	 -86.8775
|  8> C 	 -57.5955 	 10.2438 	 -88.2777
|  9> C 	 -58.1282 	 11.4508 	 -87.9103
| 10> C 	 -58.7899 	 11.4697 	 -86.6186
| 11> C 	 -58.5216 	 10.3011 	 -85.8979
| 12> H 	 -59.4484 	 12.2957 	 -86.3027
| 13> C 	 -58.0884 	 12.7268 	 -88.7799
| 14> H 	 -58.8821 	 13.3156 	 -88.5327
| 15> H 	 -58.1761 	 12.4668 	 -89.8179
| 16> C 	 -56.9321 	 13.7686 	 -88.6253
| 17> H 	 -56.2355 	 13.645 	 -89.3679
| 18> H 	 -57.4502 	 14.7576 	 -88.8076
| 19> C 	 -56.2832 	 13.801 	 -87.2385
| 20> H 	 -55.6236 	 12.9734 	 -87.0591
| 21> H 	 -55.6093 	 14.6443 	 -87.2456
| 22> H 	 -57.0118 	 13.9894 	 -86.502
| 23> S 	 -57.7387 	 10.5468 	 -83.2739
| 24> C 	 -58.7809 	 9.86242 	 -81.9977
| 25> C 	 -59.9623 	 9.36844 	 -82.5634
| 26> C 	 -59.9209 	 9.28311 	 -84.0024
| 27> C 	 -58.7964 	 9.93356 	 -84.5449
| 28> H 	 -60.7269 	 8.96079 	 -81.8822
| 29> C 	 -61.0917 	 8.58914 	 -84.8194
| 30> H 	 -61.7422 	 8.46197 	 -84.0013
| 31> H 	 -60.8032 	 7.61921 	 -85.1527
| 32> C 	 -61.7852 	 9.38618 	 -85.9038
| 33> H 	 -62.5365 	 8.7462 	 -86.4328
| 34> H 	 -61.0973 	 9.56581 	 -86.7094
| 35> C 	 -62.3576 	 10.7527 	 -85.4126
| 36> H 	 -62.8052 	 11.3133 	 -86.2574
| 37> H 	 -61.4711 	 11.2248 	 -85.0154
| 38> H 	 -63.1008 	 10.6558 	 -84.6103
| 39> H 	 -57.0126 	 10.0052 	 -89.2036
| 40> H 	 -58.5509 	 9.9622 	 -80.9885
| 41> *
| 42>
| 43>                          ****END OF INPUT****

CARTESIAN COORDINATES (ANGSTROEM)
---------------------------------
  S    -57.552700    9.153500  -86.877500
  C    -57.595500   10.243800  -88.277700
  C    -58.128200   11.450800  -87.910300
  C    -58.789900   11.469700  -86.618600
  C    -58.521600   10.301100  -85.897900
  H    -59.448400   12.295700  -86.302700
  C    -58.088400   12.726800  -88.779900
  H    -58.882100   13.315600  -88.532700
  H    -58.176100   12.466800  -89.817900
  C    -56.932100   13.768600  -88.625300
  H    -56.235500   13.645000  -89.367900
  H    -57.450200   14.757600  -88.807600
  C    -56.283200   13.801000  -87.238500
  H    -55.623600   12.973400  -87.059100
  H    -55.609300   14.644300  -87.245600
  H    -57.011800   13.989400  -86.502000
  S    -57.738700   10.546800  -83.273900
  C    -58.780900    9.862420  -81.997700
  C    -59.962300    9.368440  -82.563400
  C    -59.920900    9.283110  -84.002400
  C    -58.796400    9.933560  -84.544900
  H    -60.726900    8.960790  -81.882200
  C    -61.091700    8.589140  -84.819400
  H    -61.742200    8.461970  -84.001300
  H    -60.803200    7.619210  -85.152700
  C    -61.785200    9.386180  -85.903800
  H    -62.536500    8.746200  -86.432800
  H    -61.097300    9.565810  -86.709400
  C    -62.357600   10.752700  -85.412600
  H    -62.805200   11.313300  -86.257400
  H    -61.471100   11.224800  -85.015400
  H    -63.100800   10.655800  -84.610300
  H    -57.012600   10.005200  -89.203600
  H    -58.550900    9.962200  -80.988500

 Total Charge           Charge          ....    0
 Multiplicity           Mult            ....    1
 Number of Electrons    NEL             ....  134
 Basis Dimension        Dim             ....  322

ORBITAL ENERGIES
----------------

  NO   OCC          E(Eh)            E(eV)
   0   2.0000     -88.966161     -2420.8923
   1   2.0000     -88.962638     -2420.7964
   2   2.0000     -10.334139      -281.2062
   3   2.0000     -10.325941      -280.9832
   4   2.0000     -10.320280      -280.8291
   5   2.0000     -10.318138      -280.7708
   6   2.0000     -10.311804      -280.5985
   7   2.0000     -10.304390      -280.3967
   8   2.0000     -10.303790      -280.3804
   9   2.0000     -10.302098      -280.3343
  10   2.0000     -10.287692      -279.9423
  11   2.0000     -10.282639      -279.8048
  12   2.0000     -10.281469      -279.7730
  13   2.0000     -10.281007      -279.7604
  14   2.0000     -10.276508      -279.6380
  15   2.0000     -10.267288      -279.3871
  16   2.0000      -8.080141      -219.8718
  17   2.0000      -8.076542      -219.7739
  18   2.0000      -6.038687      -164.3210
  19   2.0000      -6.035117      -164.2239
  20   2.0000      -6.034652      -164.2112
  21   2.0000      -6.031161      -164.1162
  22   2.0000      -6.031011      -164.1122
  23   2.0000      -6.027270      -164.0104
  24   2.0000      -0.998465       -27.1696
  25   2.0000      -0.974290       -26.5118
  26   2.0000      -0.906852       -24.6767
  27   2.0000      -0.902721       -24.5643
  28   2.0000      -0.869004       -23.6468
  29   2.0000      -0.842207       -22.9176
  30   2.0000      -0.838804       -22.8250
  31   2.0000      -0.811626       -22.0855
  32   2.0000      -0.786195       -21.3935
  33   2.0000      -0.774536       -21.0762
  34   2.0000      -0.710435       -19.3319
  35   2.0000      -0.697984       -18.9931
  36   2.0000      -0.688941       -18.7470
  37   2.0000      -0.662333       -18.0230
  38   2.0000      -0.637773       -17.3547
  39   2.0000      -0.610201       -16.6044
  40   2.0000      -0.584680       -15.9100
  41   2.0000      -0.576502       -15.6874
  42   2.0000      -0.552738       -15.0408
  43   2.0000      -0.551750       -15.0139
  44   2.0000      -0.545934       -14.8556
  45   2.0000      -0.535881       -14.5821
  46   2.0000      -0.514581       -14.0025
  47   2.0000      -0.511341       -13.9143
  48   2.0000      -0.502183       -13.6651
  49   2.0000      -0.494502       -13.4561
  50   2.0000      -0.486419       -13.2361
  51   2.0000      -0.477949       -13.0057
  52   2.0000      -0.470954       -12.8153
  53   2.0000      -0.462949       -12.5975
  54   2.0000      -0.458045       -12.4640
  55   2.0000      -0.443325       -12.0635
  56   2.0000      -0.439064       -11.9475
  57   2.0000      -0.433803       -11.8044
  58   2.0000      -0.429657       -11.6916
  59   2.0000      -0.427649       -11.6369
  60   2.0000      -0.422659       -11.5011
  61   2.0000      -0.410969       -11.1830
  62   2.0000      -0.401966       -10.9381
  63   2.0000      -0.335923        -9.1409
  64   2.0000      -0.327984        -8.9249
  65   2.0000      -0.315534        -8.5861
  66   2.0000      -0.311316        -8.4713
  67   0.0000       0.039821         1.0836
  68   0.0000       0.044254         1.2042
  69   0.0000       0.111275         3.0280
  70   0.0000       0.115062         3.1310
  71   0.0000       0.121654         3.3104

MULLIKEN ATOMIC CHARGES
-----------------------
   0 S :    0.093191
   1 C :   -0.139234
   2 C :   -0.113938
   3 C :    0.046606
   4 C :   -0.190469
   5 H :    0.037381
   6 C :    0.118408
   7 H :   -0.012069
   8 H :    0.019807
   9 C :   -0.087951
  10 H :    0.009456
  11 H :    0.029433
  12 C :   -0.005296
  13 H :    0.040087
  14 H :    0.018885
  15 H :    0.022085
  16 S :    0.111715
  17 C :   -0.080575
  18 C :   -0.042225
  19 C :   -0.073962
  20 C :   -0.161956
  21 H :    0.037637
  22 C :    0.147278
  23 H :   -0.009276
  24 H :    0.036587
  25 C :   -0.079113
  26 H :    0.025244
  27 H :    0.036886
  28 C :   -0.061454
  29 H :    0.043363
  30 H :    0.038541
  31 H :    0.032515
  32 H :    0.071062
  33 H :    0.041353
Sum of atomic charges:   -0.0000000

LOEWDIN ATOMIC CHARGES
----------------------
   0 S :    0.376870
   1 C :   -0.197454
   2 C :   -0.062823
   3 C :   -0.056305
   4 C :   -0.181126
   5 H :    0.039006
   6 C :   -0.027994
   7 H :    0.014773
   8 H :    0.029108
   9 C :   -0.027479
  10 H :    0.006888
  11 H :    0.030765
  12 C :   -0.057227
  13 H :    0.028075
  14 H :    0.026149
  15 H :    0.018929
  16 S :    0.396904
  17 C :   -0.162522
  18 C :   -0.076093
  19 C :   -0.047533
  20 C :   -0.215490
  21 H :    0.037113
  22 C :   -0.018473
  23 H :    0.021166
  24 H :    0.032174
  25 C :   -0.044909
  26 H :    0.026502
  27 H :    0.022994
  28 C :   -0.064423
  29 H :    0.030355
  30 H :    0.023506
  31 H :    0.023580
  32 H :    0.039101
  33 H :    0.015892

  Mayer bond orders larger than 0.100000
B(  0-S ,  1-C ) :   1.1202 B(  0-S ,  4-C ) :   1.1448 B(  1-C ,  2-C ) :   1.6378
B(  1-C , 32-H ) :   0.9647 B(  2-C ,  3-C ) :   1.2095 B(  2-C ,  6-C ) :   1.0367
B(  3-C ,  4-C ) :   1.5971 B(  3-C ,  5-H ) :   0.9862 B(  4-C , 20-C ) :   1.0342
B(  6-C ,  7-H ) :   0.9330 B(  6-C ,  8-H ) :   0.9459 B(  6-C ,  9-C ) :   1.0505
B(  9-C , 10-H ) :   0.9596 B(  9-C , 11-H ) :   0.9637 B(  9-C , 12-C ) :   1.1010
B( 12-C , 13-H ) :   0.9676 B( 12-C , 14-H ) :   0.9695 B( 12-C , 15-H ) :   0.9739
B( 16-S , 17-C ) :   1.1575 B( 16-S , 20-C ) :   1.1482 B( 17-C , 18-C ) :   1.6029
B( 17-C , 20-C ) :   0.1059 B( 17-C , 33-H ) :   0.9770 B( 18-C , 19-C ) :   1.2571
B( 18-C , 21-H ) :   0.9767 B( 19-C , 20-C ) :   1.5744 B( 19-C , 22-C ) :   0.9997
B( 22-C , 23-H ) :   0.9298 B( 22-C , 24-H ) :   0.9348 B( 22-C , 25-C ) :   1.0810
B( 25-C , 26-H ) :   0.9504 B( 25-C , 27-H ) :   0.9518 B( 25-C , 28-C ) :   1.0641
B( 28-C , 29-H ) :   0.9753 B( 28-C , 30-H ) :   0.9723 B( 28-C , 31-H ) :   0.9776

Dispersion correction           -0.016167464
FINAL SINGLE POINT ENERGY     -1339.861729309496

DIPOLE MOMENT
-------------
                                X             Y             Z
Electronic contribution:     10.27554     -12.92811      10.16546
Nuclear contribution   :    -10.54930      13.24118     -10.29876
                        -----------------------------------------
Total Dipole Moment    :     -0.27376       0.31307      -0.13331
                        -----------------------------------------
Magnitude (a.u.)       :      0.43672
Magnitude (Debye)      :      1.11007

Rotational constants in cm-1:     0.019822     0.009225     0.008085
Rotational constants in MHz :   594.239103   276.560661   242.383227

                             ****ORCA TERMINATED NORMALLY****
TOTAL RUN TIME: 0 days 0 hours 0 minutes 21 seconds 421 msec
