                         Program Version 4.2.1 -  RELEASE  -
|  1> ! wB97X-D3 SP def2-SVP
|  2> %pal
|  3> nprocs 24
|  4> end
|  5>
|  6> * xyz 0 1
|  7> S 	 -51.8017 	 10.7274 	 -101.365
|  8> C 	 -52.8737 	 9.33552 	 -101.07
|  9> C 	 -53.8601 	 9.36794 	 -102.025
| 10> C 	 -53.7493 	 10.3355 	 -103.015
| 11> C 	 -52.7244 	 11.2011 	 -102.813
| 12> H 	 -54.2934 	 10.4132 	 -103.968
| 13> C 	 -54.8047 	 8.19069 	 -102.266
| 14> H 	 -55.7777 	 8.62276 	 -102.574
| 15> H 	 -54.936 	 7.71202 	 -101.285
| 16> C 	 -54.3573 	 7.11544 	 -103.203
| 17> H 	 -54.0252 	 7.70001 	 -104.112
| 18> H 	 -53.486 	 6.68033 	 -102.911
| 19> C 	 -55.4378 	 6.10528 	 -103.611
| 20> H 	 -56.3889 	 6.44017 	 -103.899
| 21> H 	 -55.0284 	 5.56181 	 -104.467
| 22> H 	 -55.6039 	 5.41296 	 -102.827
| 23> S 	 -52.9419 	 13.8852 	 -103.059
| 24> C 	 -52.2058 	 14.743 	 -104.357
| 25> C 	 -51.4799 	 13.9145 	 -105.166
| 26> C 	 -51.5361 	 12.5167 	 -104.793
| 27> C 	 -52.3106 	 12.3244 	 -103.643
| 28> H 	 -50.7982 	 14.3658 	 -105.879
| 29> C 	 -50.9862 	 11.3405 	 -105.628
| 30> H 	 -51.4006 	 10.5 	 -105.182
| 31> H 	 -49.9403 	 11.2189 	 -105.374
| 32> C 	 -51.2564 	 11.3478 	 -107.114
| 33> H 	 -50.697 	 10.3855 	 -107.443
| 34> H 	 -50.7499 	 12.1929 	 -107.516
| 35> C 	 -52.7086 	 11.3628 	 -107.695
| 36> H 	 -52.9988 	 12.3897 	 -107.635
| 37> H 	 -53.3268 	 10.5984 	 -107.337
| 38> H 	 -52.638 	 11.1901 	 -108.776
| 39> H 	 -52.8064 	 8.73005 	 -100.172
| 40> H 	 -52.1725 	 15.7742 	 -104.382
| 41> *
| 42>
| 43>                          ****END OF INPUT****

CARTESIAN COORDINATES (ANGSTROEM)
---------------------------------
  S    -51.801700   10.727400  -101.365000
  C    -52.873700    9.335520  -101.070000
  C    -53.860100    9.367940  -102.025000
  C    -53.749300   10.335500  -103.015000
  C    -52.724400   11.201100  -102.813000
  H    -54.293400   10.413200  -103.968000
  C    -54.804700    8.190690  -102.266000
  H    -55.777700    8.622760  -102.574000
  H    -54.936000    7.712020  -101.285000
  C    -54.357300    7.115440  -103.203000
  H    -54.025200    7.700010  -104.112000
  H    -53.486000    6.680330  -102.911000
  C    -55.437800    6.105280  -103.611000
  H    -56.388900    6.440170  -103.899000
  H    -55.028400    5.561810  -104.467000
  H    -55.603900    5.412960  -102.827000
  S    -52.941900   13.885200  -103.059000
  C    -52.205800   14.743000  -104.357000
  C    -51.479900   13.914500  -105.166000
  C    -51.536100   12.516700  -104.793000
  C    -52.310600   12.324400  -103.643000
  H    -50.798200   14.365800  -105.879000
  C    -50.986200   11.340500  -105.628000
  H    -51.400600   10.500000  -105.182000
  H    -49.940300   11.218900  -105.374000
  C    -51.256400   11.347800  -107.114000
  H    -50.697000   10.385500  -107.443000
  H    -50.749900   12.192900  -107.516000
  C    -52.708600   11.362800  -107.695000
  H    -52.998800   12.389700  -107.635000
  H    -53.326800   10.598400  -107.337000
  H    -52.638000   11.190100  -108.776000
  H    -52.806400    8.730050  -100.172000
  H    -52.172500   15.774200  -104.382000

 Total Charge           Charge          ....    0
 Multiplicity           Mult            ....    1
 Number of Electrons    NEL             ....  134
 Basis Dimension        Dim             ....  322

ORBITAL ENERGIES
----------------

  NO   OCC          E(Eh)            E(eV)
   0   2.0000     -88.962839     -2420.8019
   1   2.0000     -88.959754     -2420.7180
   2   2.0000     -10.328636      -281.0565
   3   2.0000     -10.326843      -281.0077
   4   2.0000     -10.318574      -280.7827
   5   2.0000     -10.310153      -280.5535
   6   2.0000     -10.309069      -280.5240
   7   2.0000     -10.296494      -280.1818
   8   2.0000     -10.293232      -280.0931
   9   2.0000     -10.291271      -280.0397
  10   2.0000     -10.290674      -280.0235
  11   2.0000     -10.287202      -279.9290
  12   2.0000     -10.284580      -279.8577
  13   2.0000     -10.280070      -279.7349
  14   2.0000     -10.275279      -279.6046
  15   2.0000     -10.272697      -279.5343
  16   2.0000      -8.076904      -219.7837
  17   2.0000      -8.074984      -219.7315
  18   2.0000      -6.035419      -164.2321
  19   2.0000      -6.033459      -164.1788
  20   2.0000      -6.031441      -164.1238
  21   2.0000      -6.029303      -164.0657
  22   2.0000      -6.027748      -164.0234
  23   2.0000      -6.025850      -163.9717
  24   2.0000      -1.005076       -27.3495
  25   2.0000      -0.983989       -26.7757
  26   2.0000      -0.913474       -24.8569
  27   2.0000      -0.907671       -24.6990
  28   2.0000      -0.871626       -23.7181
  29   2.0000      -0.848336       -23.0844
  30   2.0000      -0.844641       -22.9839
  31   2.0000      -0.818177       -22.2637
  32   2.0000      -0.790890       -21.5212
  33   2.0000      -0.775438       -21.1007
  34   2.0000      -0.709136       -19.2966
  35   2.0000      -0.703100       -19.1323
  36   2.0000      -0.698426       -19.0051
  37   2.0000      -0.653075       -17.7711
  38   2.0000      -0.646186       -17.5836
  39   2.0000      -0.620400       -16.8819
  40   2.0000      -0.601799       -16.3758
  41   2.0000      -0.569399       -15.4941
  42   2.0000      -0.558076       -15.1860
  43   2.0000      -0.551810       -15.0155
  44   2.0000      -0.543829       -14.7983
  45   2.0000      -0.530348       -14.4315
  46   2.0000      -0.523176       -14.2363
  47   2.0000      -0.519708       -14.1420
  48   2.0000      -0.506382       -13.7794
  49   2.0000      -0.496111       -13.4999
  50   2.0000      -0.490742       -13.3538
  51   2.0000      -0.482595       -13.1321
  52   2.0000      -0.471246       -12.8233
  53   2.0000      -0.467742       -12.7279
  54   2.0000      -0.466299       -12.6886
  55   2.0000      -0.450527       -12.2595
  56   2.0000      -0.444550       -12.0968
  57   2.0000      -0.440268       -11.9803
  58   2.0000      -0.435955       -11.8629
  59   2.0000      -0.424819       -11.5599
  60   2.0000      -0.411215       -11.1897
  61   2.0000      -0.405771       -11.0416
  62   2.0000      -0.401778       -10.9329
  63   2.0000      -0.337932        -9.1956
  64   2.0000      -0.326818        -8.8932
  65   2.0000      -0.320155        -8.7118
  66   2.0000      -0.315119        -8.5748
  67   0.0000       0.043852         1.1933
  68   0.0000       0.051384         1.3982
  69   0.0000       0.115770         3.1503
  70   0.0000       0.123521         3.3612
  71   0.0000       0.128333         3.4921

MULLIKEN ATOMIC CHARGES
-----------------------
   0 S :    0.098267
   1 C :   -0.136168
   2 C :   -0.053972
   3 C :    0.041313
   4 C :   -0.168740
   5 H :    0.028477
   6 C :    0.039819
   7 H :    0.024427
   8 H :    0.010231
   9 C :   -0.027810
  10 H :    0.010565
  11 H :   -0.001200
  12 C :   -0.004100
  13 H :    0.017912
  14 H :    0.031431
  15 H :    0.022237
  16 S :    0.101296
  17 C :   -0.057596
  18 C :   -0.055040
  19 C :   -0.029938
  20 C :   -0.208257
  21 H :    0.024423
  22 C :    0.147238
  23 H :   -0.007778
  24 H :    0.030314
  25 C :   -0.125727
  26 H :    0.038762
  27 H :    0.024266
  28 C :   -0.002174
  29 H :    0.037293
  30 H :    0.029059
  31 H :    0.027473
  32 H :    0.061263
  33 H :    0.032435
Sum of atomic charges:   -0.0000000

LOEWDIN ATOMIC CHARGES
----------------------
   0 S :    0.379988
   1 C :   -0.182232
   2 C :   -0.071080
   3 C :   -0.063340
   4 C :   -0.189860
   5 H :    0.042062
   6 C :   -0.033083
   7 H :    0.029378
   8 H :    0.023923
   9 C :   -0.034798
  10 H :    0.025391
  11 H :    0.011681
  12 C :   -0.053953
  13 H :    0.018410
  14 H :    0.032508
  15 H :    0.020869
  16 S :    0.406537
  17 C :   -0.175198
  18 C :   -0.081544
  19 C :   -0.046326
  20 C :   -0.197611
  21 H :    0.031911
  22 C :   -0.030072
  23 H :    0.020027
  24 H :    0.037639
  25 C :   -0.041574
  26 H :    0.034287
  27 H :    0.017102
  28 C :   -0.056740
  29 H :    0.028347
  30 H :    0.017664
  31 H :    0.032430
  32 H :    0.032858
  33 H :    0.014399

  Mayer bond orders larger than 0.100000
B(  0-S ,  1-C ) :   1.1333 B(  0-S ,  4-C ) :   1.1465 B(  1-C ,  2-C ) :   1.5982
B(  1-C ,  4-C ) :   0.1061 B(  1-C , 32-H ) :   0.9732 B(  2-C ,  3-C ) :   1.2283
B(  2-C ,  6-C ) :   1.0376 B(  3-C ,  4-C ) :   1.6015 B(  3-C ,  5-H ) :   0.9933
B(  4-C , 20-C ) :   1.0027 B(  6-C ,  7-H ) :   0.9387 B(  6-C ,  8-H ) :   0.9373
B(  6-C ,  9-C ) :   1.0703 B(  9-C , 10-H ) :   0.9521 B(  9-C , 11-H ) :   0.9483
B(  9-C , 12-C ) :   1.0773 B( 12-C , 13-H ) :   0.9764 B( 12-C , 14-H ) :   0.9728
B( 12-C , 15-H ) :   0.9751 B( 16-S , 17-C ) :   1.1649 B( 16-S , 20-C ) :   1.1487
B( 17-C , 18-C ) :   1.6195 B( 17-C , 20-C ) :   0.1000 B( 17-C , 33-H ) :   0.9746
B( 18-C , 19-C ) :   1.2170 B( 18-C , 21-H ) :   0.9879 B( 19-C , 20-C ) :   1.6137
B( 19-C , 22-C ) :   1.0263 B( 22-C , 23-H ) :   0.9254 B( 22-C , 24-H ) :   0.9238
B( 22-C , 25-C ) :   1.0740 B( 25-C , 26-H ) :   0.9539 B( 25-C , 27-H ) :   0.9574
B( 25-C , 28-C ) :   1.0746 B( 28-C , 29-H ) :   0.9730 B( 28-C , 30-H ) :   0.9773
B( 28-C , 31-H ) :   0.9707

Dispersion correction           -0.014301923
FINAL SINGLE POINT ENERGY     -1339.862659233636

DIPOLE MOMENT
-------------
                                X             Y             Z
Electronic contribution:      6.80044      20.68739      18.93986
Nuclear contribution   :     -6.79346     -21.07743     -19.44514
                        -----------------------------------------
Total Dipole Moment    :      0.00697      -0.39005      -0.50528
                        -----------------------------------------
Magnitude (a.u.)       :      0.63835
Magnitude (Debye)      :      1.62255

Rotational constants in cm-1:     0.018089     0.008688     0.006752
Rotational constants in MHz :   542.287689   260.469385   202.412071

                             ****ORCA TERMINATED NORMALLY****
TOTAL RUN TIME: 0 days 0 hours 0 minutes 21 seconds 350 msec
