                         Program Version 4.2.1 -  RELEASE  -
|  1> ! wB97X-D3 SP def2-SVP
|  2> %pal
|  3> nprocs 24
|  4> end
|  5>
|  6> * xyz 0 1
|  7> S 	 -90.7803 	 -30.5018 	 -73.488
|  8> C 	 -89.0985 	 -30.7118 	 -73.6106
|  9> C 	 -88.4054 	 -29.6553 	 -74.1344
| 10> C 	 -89.3589 	 -28.688 	 -74.7135
| 11> C 	 -90.6831 	 -29.0314 	 -74.5557
| 12> H 	 -89.0899 	 -27.753 	 -75.2518
| 13> C 	 -86.9093 	 -29.5337 	 -74.3795
| 14> H 	 -86.3943 	 -30.2635 	 -73.7579
| 15> H 	 -86.6376 	 -28.5423 	 -74.0598
| 16> C 	 -86.4652 	 -29.768 	 -75.9076
| 17> H 	 -85.3908 	 -29.4583 	 -75.9424
| 18> H 	 -86.6113 	 -30.8158 	 -76.0865
| 19> C 	 -87.0726 	 -28.8828 	 -76.9592
| 20> H 	 -86.4969 	 -28.8492 	 -77.8879
| 21> H 	 -88.0996 	 -29.2182 	 -77.3672
| 22> H 	 -87.138 	 -27.8635 	 -76.5503
| 23> S 	 -92.9989 	 -27.8081 	 -73.5495
| 24> C 	 -93.8633 	 -26.7236 	 -74.6272
| 25> C 	 -93.4016 	 -26.774 	 -75.9031
| 26> C 	 -92.2516 	 -27.6445 	 -76.0581
| 27> C 	 -91.8317 	 -28.1664 	 -74.8121
| 28> H 	 -93.9825 	 -26.2023 	 -76.5999
| 29> C 	 -91.7161 	 -27.991 	 -77.4582
| 30> H 	 -92.4363 	 -28.269 	 -78.1817
| 31> H 	 -91.0272 	 -28.8008 	 -77.2477
| 32> C 	 -90.9401 	 -26.8498 	 -78.127
| 33> H 	 -90.3086 	 -26.4067 	 -77.3876
| 34> H 	 -91.6778 	 -26.1329 	 -78.4485
| 35> C 	 -89.8913 	 -27.2988 	 -79.197
| 36> H 	 -89.5555 	 -28.3513 	 -78.9914
| 37> H 	 -89.045 	 -26.5642 	 -79.15
| 38> H 	 -90.3003 	 -27.193 	 -80.2414
| 39> H 	 -88.7018 	 -31.6449 	 -73.2499
| 40> H 	 -94.6547 	 -26.1432 	 -74.2563
| 41> *
| 42>
| 43>                          ****END OF INPUT****

CARTESIAN COORDINATES (ANGSTROEM)
---------------------------------
  S    -90.780300  -30.501800  -73.488000
  C    -89.098500  -30.711800  -73.610600
  C    -88.405400  -29.655300  -74.134400
  C    -89.358900  -28.688000  -74.713500
  C    -90.683100  -29.031400  -74.555700
  H    -89.089900  -27.753000  -75.251800
  C    -86.909300  -29.533700  -74.379500
  H    -86.394300  -30.263500  -73.757900
  H    -86.637600  -28.542300  -74.059800
  C    -86.465200  -29.768000  -75.907600
  H    -85.390800  -29.458300  -75.942400
  H    -86.611300  -30.815800  -76.086500
  C    -87.072600  -28.882800  -76.959200
  H    -86.496900  -28.849200  -77.887900
  H    -88.099600  -29.218200  -77.367200
  H    -87.138000  -27.863500  -76.550300
  S    -92.998900  -27.808100  -73.549500
  C    -93.863300  -26.723600  -74.627200
  C    -93.401600  -26.774000  -75.903100
  C    -92.251600  -27.644500  -76.058100
  C    -91.831700  -28.166400  -74.812100
  H    -93.982500  -26.202300  -76.599900
  C    -91.716100  -27.991000  -77.458200
  H    -92.436300  -28.269000  -78.181700
  H    -91.027200  -28.800800  -77.247700
  C    -90.940100  -26.849800  -78.127000
  H    -90.308600  -26.406700  -77.387600
  H    -91.677800  -26.132900  -78.448500
  C    -89.891300  -27.298800  -79.197000
  H    -89.555500  -28.351300  -78.991400
  H    -89.045000  -26.564200  -79.150000
  H    -90.300300  -27.193000  -80.241400
  H    -88.701800  -31.644900  -73.249900
  H    -94.654700  -26.143200  -74.256300

 Total Charge           Charge          ....    0
 Multiplicity           Mult            ....    1
 Number of Electrons    NEL             ....  134
 Basis Dimension        Dim             ....  322

ORBITAL ENERGIES
----------------

  NO   OCC          E(Eh)            E(eV)
   0   2.0000     -88.962958     -2420.8052
   1   2.0000     -88.962309     -2420.7875
   2   2.0000     -10.331815      -281.1430
   3   2.0000     -10.330228      -281.0998
   4   2.0000     -10.312399      -280.6146
   5   2.0000     -10.310646      -280.5669
   6   2.0000     -10.308120      -280.4982
   7   2.0000     -10.304542      -280.4009
   8   2.0000     -10.302202      -280.3372
   9   2.0000     -10.298231      -280.2291
  10   2.0000     -10.294042      -280.1151
  11   2.0000     -10.291111      -280.0354
  12   2.0000     -10.289599      -279.9942
  13   2.0000     -10.286451      -279.9086
  14   2.0000     -10.285432      -279.8808
  15   2.0000     -10.280210      -279.7387
  16   2.0000      -8.077829      -219.8089
  17   2.0000      -8.077481      -219.7994
  18   2.0000      -6.036322      -164.2567
  19   2.0000      -6.036023      -164.2485
  20   2.0000      -6.032459      -164.1515
  21   2.0000      -6.032102      -164.1418
  22   2.0000      -6.028459      -164.0427
  23   2.0000      -6.028008      -164.0304
  24   2.0000      -1.001353       -27.2482
  25   2.0000      -0.981179       -26.6992
  26   2.0000      -0.906370       -24.6636
  27   2.0000      -0.905434       -24.6381
  28   2.0000      -0.872318       -23.7370
  29   2.0000      -0.847603       -23.0645
  30   2.0000      -0.841472       -22.8976
  31   2.0000      -0.817774       -22.2528
  32   2.0000      -0.780773       -21.2459
  33   2.0000      -0.769331       -20.9346
  34   2.0000      -0.699688       -19.0395
  35   2.0000      -0.697386       -18.9768
  36   2.0000      -0.692278       -18.8378
  37   2.0000      -0.659339       -17.9415
  38   2.0000      -0.642709       -17.4890
  39   2.0000      -0.614026       -16.7085
  40   2.0000      -0.594779       -16.1848
  41   2.0000      -0.575199       -15.6520
  42   2.0000      -0.574085       -15.6216
  43   2.0000      -0.548529       -14.9262
  44   2.0000      -0.533945       -14.5294
  45   2.0000      -0.521796       -14.1988
  46   2.0000      -0.518195       -14.1008
  47   2.0000      -0.511314       -13.9136
  48   2.0000      -0.505045       -13.7430
  49   2.0000      -0.493523       -13.4294
  50   2.0000      -0.490980       -13.3602
  51   2.0000      -0.481160       -13.0930
  52   2.0000      -0.469451       -12.7744
  53   2.0000      -0.464093       -12.6286
  54   2.0000      -0.458203       -12.4683
  55   2.0000      -0.445747       -12.1294
  56   2.0000      -0.441187       -12.0053
  57   2.0000      -0.435766       -11.8578
  58   2.0000      -0.434203       -11.8153
  59   2.0000      -0.423641       -11.5279
  60   2.0000      -0.421892       -11.4803
  61   2.0000      -0.413406       -11.2493
  62   2.0000      -0.410198       -11.1620
  63   2.0000      -0.354345        -9.6422
  64   2.0000      -0.328959        -8.9514
  65   2.0000      -0.323874        -8.8131
  66   2.0000      -0.289165        -7.8686
  67   0.0000       0.033257         0.9050
  68   0.0000       0.065012         1.7691
  69   0.0000       0.107569         2.9271
  70   0.0000       0.114995         3.1292
  71   0.0000       0.126686         3.4473

MULLIKEN ATOMIC CHARGES
-----------------------
   0 S :    0.092182
   1 C :   -0.123708
   2 C :   -0.072266
   3 C :    0.007769
   4 C :   -0.152965
   5 H :    0.029132
   6 C :    0.072881
   7 H :    0.024500
   8 H :    0.025952
   9 C :   -0.062007
  10 H :    0.040653
  11 H :    0.032634
  12 C :   -0.088162
  13 H :    0.037929
  14 H :    0.046800
  15 H :    0.032117
  16 S :    0.097528
  17 C :   -0.090319
  18 C :   -0.006721
  19 C :   -0.056491
  20 C :   -0.145733
  21 H :    0.014177
  22 C :    0.104883
  23 H :    0.029426
  24 H :    0.012521
  25 C :   -0.082899
  26 H :    0.017220
  27 H :    0.029960
  28 C :   -0.084062
  29 H :    0.046855
  30 H :    0.042429
  31 H :    0.041661
  32 H :    0.045807
  33 H :    0.040318
Sum of atomic charges:    0.0000000

LOEWDIN ATOMIC CHARGES
----------------------
   0 S :    0.383481
   1 C :   -0.196587
   2 C :   -0.069542
   3 C :   -0.050452
   4 C :   -0.179128
   5 H :    0.036951
   6 C :   -0.026796
   7 H :    0.031028
   8 H :    0.027749
   9 C :   -0.036036
  10 H :    0.033170
  11 H :    0.022191
  12 C :   -0.077682
  13 H :    0.028145
  14 H :    0.030147
  15 H :    0.024540
  16 S :    0.391602
  17 C :   -0.169778
  18 C :   -0.070109
  19 C :   -0.049313
  20 C :   -0.196765
  21 H :    0.031551
  22 C :   -0.025316
  23 H :    0.027266
  24 H :    0.025616
  25 C :   -0.041395
  26 H :    0.017316
  27 H :    0.020832
  28 C :   -0.072563
  29 H :    0.029054
  30 H :    0.031060
  31 H :    0.028439
  32 H :    0.023673
  33 H :    0.017651

  Mayer bond orders larger than 0.100000
B(  0-S ,  1-C ) :   1.1516 B(  0-S ,  4-C ) :   1.1078 B(  1-C ,  2-C ) :   1.6270
B(  1-C , 32-H ) :   0.9688 B(  2-C ,  3-C ) :   1.1985 B(  2-C ,  6-C ) :   1.0336
B(  3-C ,  4-C ) :   1.6205 B(  3-C ,  5-H ) :   0.9799 B(  4-C , 20-C ) :   1.0547
B(  6-C ,  7-H ) :   0.9438 B(  6-C ,  8-H ) :   0.9355 B(  6-C ,  9-C ) :   1.0653
B(  9-C , 10-H ) :   0.9543 B(  9-C , 11-H ) :   0.9571 B(  9-C , 12-C ) :   1.0873
B( 12-C , 13-H ) :   0.9697 B( 12-C , 14-H ) :   0.9629 B( 12-C , 15-H ) :   0.9686
B( 16-S , 17-C ) :   1.1407 B( 16-S , 20-C ) :   1.1365 B( 17-C , 18-C ) :   1.6416
B( 17-C , 33-H ) :   0.9736 B( 18-C , 19-C ) :   1.1978 B( 18-C , 21-H ) :   0.9965
B( 19-C , 20-C ) :   1.6007 B( 19-C , 22-C ) :   1.0512 B( 22-C , 23-H ) :   0.9446
B( 22-C , 24-H ) :   0.9234 B( 22-C , 25-C ) :   1.0644 B( 25-C , 26-H ) :   0.9621
B( 25-C , 27-H ) :   0.9590 B( 25-C , 28-C ) :   1.0641 B( 28-C , 29-H ) :   0.9710
B( 28-C , 30-H ) :   0.9819 B( 28-C , 31-H ) :   0.9753

Dispersion correction           -0.015747644
FINAL SINGLE POINT ENERGY     -1339.872868982108

DIPOLE MOMENT
-------------
                                X             Y             Z
Electronic contribution:    -20.17669      -5.56280      24.23016
Nuclear contribution   :     20.61512       5.76751     -24.72495
                        -----------------------------------------
Total Dipole Moment    :      0.43843       0.20471      -0.49479
                        -----------------------------------------
Magnitude (a.u.)       :      0.69206
Magnitude (Debye)      :      1.75907

Rotational constants in cm-1:     0.016507     0.010985     0.007096
Rotational constants in MHz :   494.872312   329.331749   212.724759

                             ****ORCA TERMINATED NORMALLY****
TOTAL RUN TIME: 0 days 0 hours 0 minutes 22 seconds 847 msec
