                         Program Version 4.2.1 -  RELEASE  -
|  1> ! wB97X-D3 SP def2-SVP
|  2> %pal
|  3> nprocs 24
|  4> end
|  5>
|  6> * xyz 0 1
|  7> S 	 -105.293 	 54.6247 	 -79.4228
|  8> C 	 -105.482 	 54.1025 	 -81.0494
|  9> C 	 -106.22 	 55.0307 	 -81.7199
| 10> C 	 -106.796 	 56.0482 	 -80.8454
| 11> C 	 -106.439 	 55.9449 	 -79.4949
| 12> H 	 -107.549 	 56.7877 	 -81.2885
| 13> C 	 -106.505 	 54.9707 	 -83.2282
| 14> H 	 -106.632 	 55.9883 	 -83.5857
| 15> H 	 -107.393 	 54.3693 	 -83.3383
| 16> C 	 -105.368 	 54.2657 	 -84.0716
| 17> H 	 -104.497 	 54.8307 	 -83.9506
| 18> H 	 -105.102 	 53.2849 	 -83.7148
| 19> C 	 -105.795 	 54.0949 	 -85.5567
| 20> H 	 -106.016 	 55.1057 	 -85.9571
| 21> H 	 -104.94 	 53.5933 	 -86.0409
| 22> H 	 -106.762 	 53.6091 	 -85.6818
| 23> S 	 -105.208 	 57.3386 	 -77.5028
| 24> C 	 -105.978 	 58.6415 	 -76.6536
| 25> C 	 -107.348 	 58.6606 	 -76.975
| 26> C 	 -107.719 	 57.6568 	 -77.9571
| 27> C 	 -106.63 	 56.8958 	 -78.4094
| 28> H 	 -108.048 	 59.2115 	 -76.401
| 29> C 	 -109.178 	 57.5256 	 -78.4016
| 30> H 	 -109.176 	 57.8198 	 -79.4751
| 31> H 	 -109.772 	 58.2482 	 -77.8487
| 32> C 	 -109.939 	 56.1907 	 -78.3248
| 33> H 	 -109.782 	 55.6959 	 -79.348
| 34> H 	 -111.012 	 56.3921 	 -78.2039
| 35> C 	 -109.386 	 55.3169 	 -77.1881
| 36> H 	 -110.017 	 54.4849 	 -77.2016
| 37> H 	 -109.443 	 55.9345 	 -76.2775
| 38> H 	 -108.423 	 54.9863 	 -77.5
| 39> H 	 -105.254 	 53.2039 	 -81.5347
| 40> H 	 -105.555 	 59.2397 	 -75.8576
| 41> *
| 42>
| 43>                          ****END OF INPUT****

CARTESIAN COORDINATES (ANGSTROEM)
---------------------------------
  S    -105.293000   54.624700  -79.422800
  C    -105.482000   54.102500  -81.049400
  C    -106.220000   55.030700  -81.719900
  C    -106.796000   56.048200  -80.845400
  C    -106.439000   55.944900  -79.494900
  H    -107.549000   56.787700  -81.288500
  C    -106.505000   54.970700  -83.228200
  H    -106.632000   55.988300  -83.585700
  H    -107.393000   54.369300  -83.338300
  C    -105.368000   54.265700  -84.071600
  H    -104.497000   54.830700  -83.950600
  H    -105.102000   53.284900  -83.714800
  C    -105.795000   54.094900  -85.556700
  H    -106.016000   55.105700  -85.957100
  H    -104.940000   53.593300  -86.040900
  H    -106.762000   53.609100  -85.681800
  S    -105.208000   57.338600  -77.502800
  C    -105.978000   58.641500  -76.653600
  C    -107.348000   58.660600  -76.975000
  C    -107.719000   57.656800  -77.957100
  C    -106.630000   56.895800  -78.409400
  H    -108.048000   59.211500  -76.401000
  C    -109.178000   57.525600  -78.401600
  H    -109.176000   57.819800  -79.475100
  H    -109.772000   58.248200  -77.848700
  C    -109.939000   56.190700  -78.324800
  H    -109.782000   55.695900  -79.348000
  H    -111.012000   56.392100  -78.203900
  C    -109.386000   55.316900  -77.188100
  H    -110.017000   54.484900  -77.201600
  H    -109.443000   55.934500  -76.277500
  H    -108.423000   54.986300  -77.500000
  H    -105.254000   53.203900  -81.534700
  H    -105.555000   59.239700  -75.857600

 Total Charge           Charge          ....    0
 Multiplicity           Mult            ....    1
 Number of Electrons    NEL             ....  134
 Basis Dimension        Dim             ....  322

ORBITAL ENERGIES
----------------

  NO   OCC          E(Eh)            E(eV)
   0   2.0000     -88.966965     -2420.9142
   1   2.0000     -88.965903     -2420.8853
   2   2.0000     -10.338605      -281.3277
   3   2.0000     -10.331523      -281.1350
   4   2.0000     -10.320878      -280.8454
   5   2.0000     -10.309025      -280.5228
   6   2.0000     -10.308212      -280.5007
   7   2.0000     -10.305991      -280.4403
   8   2.0000     -10.301305      -280.3128
   9   2.0000     -10.296577      -280.1841
  10   2.0000     -10.296493      -280.1818
  11   2.0000     -10.289560      -279.9932
  12   2.0000     -10.287152      -279.9276
  13   2.0000     -10.285913      -279.8939
  14   2.0000     -10.285668      -279.8873
  15   2.0000     -10.263933      -279.2958
  16   2.0000      -8.081842      -219.9181
  17   2.0000      -8.080951      -219.8939
  18   2.0000      -6.040426      -164.3683
  19   2.0000      -6.039649      -164.3472
  20   2.0000      -6.036111      -164.2509
  21   2.0000      -6.035214      -164.2265
  22   2.0000      -6.032713      -164.1585
  23   2.0000      -6.031666      -164.1300
  24   2.0000      -1.009154       -27.4605
  25   2.0000      -0.985912       -26.8280
  26   2.0000      -0.909575       -24.7508
  27   2.0000      -0.905786       -24.6477
  28   2.0000      -0.872145       -23.7323
  29   2.0000      -0.846942       -23.0464
  30   2.0000      -0.842159       -22.9163
  31   2.0000      -0.814721       -22.1697
  32   2.0000      -0.780849       -21.2480
  33   2.0000      -0.772658       -21.0251
  34   2.0000      -0.715890       -19.4804
  35   2.0000      -0.703477       -19.1426
  36   2.0000      -0.680453       -18.5161
  37   2.0000      -0.667291       -18.1579
  38   2.0000      -0.635051       -17.2806
  39   2.0000      -0.613992       -16.7076
  40   2.0000      -0.578816       -15.7504
  41   2.0000      -0.575984       -15.6733
  42   2.0000      -0.567266       -15.4361
  43   2.0000      -0.563705       -15.3392
  44   2.0000      -0.547052       -14.8860
  45   2.0000      -0.527814       -14.3625
  46   2.0000      -0.520796       -14.1716
  47   2.0000      -0.513776       -13.9806
  48   2.0000      -0.509405       -13.8616
  49   2.0000      -0.497130       -13.5276
  50   2.0000      -0.496848       -13.5199
  51   2.0000      -0.479688       -13.0530
  52   2.0000      -0.476155       -12.9568
  53   2.0000      -0.466502       -12.6942
  54   2.0000      -0.460343       -12.5266
  55   2.0000      -0.445354       -12.1187
  56   2.0000      -0.442234       -12.0338
  57   2.0000      -0.431413       -11.7393
  58   2.0000      -0.429371       -11.6838
  59   2.0000      -0.422456       -11.4956
  60   2.0000      -0.414412       -11.2767
  61   2.0000      -0.412760       -11.2318
  62   2.0000      -0.405641       -11.0381
  63   2.0000      -0.357220        -9.7204
  64   2.0000      -0.328959        -8.9514
  65   2.0000      -0.324405        -8.8275
  66   2.0000      -0.289695        -7.8830
  67   0.0000       0.024221         0.6591
  68   0.0000       0.068243         1.8570
  69   0.0000       0.113687         3.0936
  70   0.0000       0.116317         3.1652
  71   0.0000       0.135371         3.6836

MULLIKEN ATOMIC CHARGES
-----------------------
   0 S :    0.103615
   1 C :   -0.075741
   2 C :   -0.138301
   3 C :    0.011812
   4 C :   -0.137085
   5 H :    0.036983
   6 C :    0.061303
   7 H :    0.033485
   8 H :    0.040529
   9 C :   -0.089876
  10 H :    0.026474
  11 H :    0.020230
  12 C :   -0.047225
  13 H :    0.026914
  14 H :    0.051317
  15 H :    0.032197
  16 S :    0.109605
  17 C :   -0.091024
  18 C :   -0.026567
  19 C :   -0.073898
  20 C :   -0.137765
  21 H :    0.012006
  22 C :    0.064171
  23 H :    0.038972
  24 H :    0.011713
  25 C :   -0.135909
  26 H :    0.034248
  27 H :    0.036214
  28 C :    0.025000
  29 H :    0.017787
  30 H :    0.038077
  31 H :    0.030687
  32 H :    0.026154
  33 H :    0.063895
Sum of atomic charges:   -0.0000000

LOEWDIN ATOMIC CHARGES
----------------------
   0 S :    0.416074
   1 C :   -0.202650
   2 C :   -0.067339
   3 C :   -0.073087
   4 C :   -0.199357
   5 H :    0.039805
   6 C :   -0.026813
   7 H :    0.030921
   8 H :    0.031772
   9 C :   -0.034291
  10 H :    0.018244
  11 H :    0.016489
  12 C :   -0.065418
  13 H :    0.026460
  14 H :    0.033034
  15 H :    0.024889
  16 S :    0.424436
  17 C :   -0.192625
  18 C :   -0.068274
  19 C :   -0.054557
  20 C :   -0.205572
  21 H :    0.024496
  22 C :   -0.041396
  23 H :    0.036867
  24 H :    0.026304
  25 C :   -0.045891
  26 H :    0.026956
  27 H :    0.023626
  28 C :   -0.052688
  29 H :    0.017390
  30 H :    0.030289
  31 H :    0.024427
  32 H :    0.024299
  33 H :    0.033181

  Mayer bond orders larger than 0.100000
B(  0-S ,  1-C ) :   1.1322 B(  0-S ,  4-C ) :   1.1488 B(  1-C ,  2-C ) :   1.6135
B(  1-C , 32-H ) :   0.9731 B(  2-C ,  3-C ) :   1.2727 B(  2-C ,  6-C ) :   1.0081
B(  3-C ,  4-C ) :   1.5363 B(  3-C ,  5-H ) :   0.9796 B(  4-C , 20-C ) :   1.0560
B(  6-C ,  7-H ) :   0.9470 B(  6-C ,  8-H ) :   0.9378 B(  6-C ,  9-C ) :   1.0728
B(  9-C , 10-H ) :   0.9599 B(  9-C , 11-H ) :   0.9522 B(  9-C , 12-C ) :   1.0787
B( 12-C , 13-H ) :   0.9747 B( 12-C , 14-H ) :   0.9740 B( 12-C , 15-H ) :   0.9761
B( 16-S , 17-C ) :   1.1719 B( 16-S , 20-C ) :   1.1440 B( 17-C , 18-C ) :   1.5738
B( 17-C , 20-C ) :   0.1015 B( 17-C , 33-H ) :   0.9686 B( 18-C , 19-C ) :   1.2809
B( 18-C , 21-H ) :   0.9870 B( 19-C , 20-C ) :   1.5573 B( 19-C , 22-C ) :   1.0457
B( 22-C , 23-H ) :   0.9350 B( 22-C , 24-H ) :   0.9349 B( 22-C , 25-C ) :   1.0581
B( 25-C , 26-H ) :   0.9515 B( 25-C , 27-H ) :   0.9609 B( 25-C , 28-C ) :   1.0971
B( 28-C , 29-H ) :   0.9712 B( 28-C , 30-H ) :   0.9751 B( 28-C , 31-H ) :   0.9627

Dispersion correction           -0.014550900
FINAL SINGLE POINT ENERGY     -1339.863743228304

DIPOLE MOMENT
-------------
                                X             Y             Z
Electronic contribution:     14.68942       5.60054      17.87719
Nuclear contribution   :    -15.16673      -5.54456     -18.30817
                        -----------------------------------------
Total Dipole Moment    :     -0.47731       0.05598      -0.43098
                        -----------------------------------------
Magnitude (a.u.)       :      0.64552
Magnitude (Debye)      :      1.64078

Rotational constants in cm-1:     0.023682     0.007316     0.006493
Rotational constants in MHz :   709.979011   219.322735   194.651083

                             ****ORCA TERMINATED NORMALLY****
TOTAL RUN TIME: 0 days 0 hours 0 minutes 21 seconds 553 msec
