                         Program Version 4.2.1 -  RELEASE  -
|  1> ! wB97X-D3 SP def2-SVP
|  2> %pal
|  3> nprocs 24
|  4> end
|  5>
|  6> * xyz 0 1
|  7> S 	 -64.0274 	 -3.56491 	 -28.0416
|  8> C 	 -64.5968 	 -2.9114 	 -29.5873
|  9> C 	 -65.0972 	 -1.63903 	 -29.4098
| 10> C 	 -65.2504 	 -1.29443 	 -28.0573
| 11> C 	 -64.7784 	 -2.22024 	 -27.1971
| 12> H 	 -65.6298 	 -0.297465 	 -27.6849
| 13> C 	 -65.3459 	 -0.545068 	 -30.4663
| 14> H 	 -66.2638 	 -0.0089029 	 -30.1873
| 15> H 	 -65.6501 	 -0.997082 	 -31.4075
| 16> C 	 -64.1979 	 0.442359 	 -30.7167
| 17> H 	 -63.9819 	 1.08836 	 -29.8217
| 18> H 	 -63.2903 	 -0.113965 	 -30.8299
| 19> C 	 -64.5907 	 1.15372 	 -31.9744
| 20> H 	 -64.6104 	 0.394383 	 -32.7934
| 21> H 	 -65.6073 	 1.68381 	 -31.8591
| 22> H 	 -63.8351 	 1.87943 	 -32.1925
| 23> S 	 -66.0182 	 -3.34922 	 -24.9881
| 24> C 	 -65.3436 	 -3.02359 	 -23.4314
| 25> C 	 -64.3043 	 -2.1066 	 -23.4783
| 26> C 	 -63.9864 	 -1.61522 	 -24.8145
| 27> C 	 -64.8103 	 -2.24112 	 -25.7172
| 28> H 	 -63.8898 	 -1.88754 	 -22.5028
| 29> C 	 -62.8086 	 -0.713332 	 -25.1372
| 30> H 	 -62.2787 	 -1.07609 	 -26.0005
| 31> H 	 -62.0008 	 -0.966342 	 -24.4143
| 32> C 	 -63.1792 	 0.761354 	 -25.1415
| 33> H 	 -64.0099 	 0.917716 	 -24.5072
| 34> H 	 -63.4434 	 0.969173 	 -26.2232
| 35> C 	 -62.0208 	 1.69085 	 -24.6851
| 36> H 	 -61.6738 	 1.4421 	 -23.6019
| 37> H 	 -62.2486 	 2.78918 	 -24.8244
| 38> H 	 -61.2505 	 1.47119 	 -25.4174
| 39> H 	 -64.2591 	 -3.29889 	 -30.4948
| 40> H 	 -65.7723 	 -3.33213 	 -22.4457
| 41> *
| 42>
| 43>                          ****END OF INPUT****

CARTESIAN COORDINATES (ANGSTROEM)
---------------------------------
  S    -64.027400   -3.564910  -28.041600
  C    -64.596800   -2.911400  -29.587300
  C    -65.097200   -1.639030  -29.409800
  C    -65.250400   -1.294430  -28.057300
  C    -64.778400   -2.220240  -27.197100
  H    -65.629800   -0.297465  -27.684900
  C    -65.345900   -0.545068  -30.466300
  H    -66.263800   -0.008903  -30.187300
  H    -65.650100   -0.997082  -31.407500
  C    -64.197900    0.442359  -30.716700
  H    -63.981900    1.088360  -29.821700
  H    -63.290300   -0.113965  -30.829900
  C    -64.590700    1.153720  -31.974400
  H    -64.610400    0.394383  -32.793400
  H    -65.607300    1.683810  -31.859100
  H    -63.835100    1.879430  -32.192500
  S    -66.018200   -3.349220  -24.988100
  C    -65.343600   -3.023590  -23.431400
  C    -64.304300   -2.106600  -23.478300
  C    -63.986400   -1.615220  -24.814500
  C    -64.810300   -2.241120  -25.717200
  H    -63.889800   -1.887540  -22.502800
  C    -62.808600   -0.713332  -25.137200
  H    -62.278700   -1.076090  -26.000500
  H    -62.000800   -0.966342  -24.414300
  C    -63.179200    0.761354  -25.141500
  H    -64.009900    0.917716  -24.507200
  H    -63.443400    0.969173  -26.223200
  C    -62.020800    1.690850  -24.685100
  H    -61.673800    1.442100  -23.601900
  H    -62.248600    2.789180  -24.824400
  H    -61.250500    1.471190  -25.417400
  H    -64.259100   -3.298890  -30.494800
  H    -65.772300   -3.332130  -22.445700

 Total Charge           Charge          ....    0
 Multiplicity           Mult            ....    1
 Number of Electrons    NEL             ....  134
 Basis Dimension        Dim             ....  322

ORBITAL ENERGIES
----------------

  NO   OCC          E(Eh)            E(eV)
   0   2.0000     -88.964266     -2420.8407
   1   2.0000     -88.962988     -2420.8060
   2   2.0000     -10.326458      -280.9972
   3   2.0000     -10.324899      -280.9548
   4   2.0000     -10.316720      -280.7322
   5   2.0000     -10.309856      -280.5454
   6   2.0000     -10.308222      -280.5010
   7   2.0000     -10.297983      -280.2224
   8   2.0000     -10.294026      -280.1147
   9   2.0000     -10.292182      -280.0645
  10   2.0000     -10.291669      -280.0506
  11   2.0000     -10.291312      -280.0408
  12   2.0000     -10.290784      -280.0265
  13   2.0000     -10.288749      -279.9711
  14   2.0000     -10.287508      -279.9373
  15   2.0000     -10.285924      -279.8942
  16   2.0000      -8.078792      -219.8351
  17   2.0000      -8.077486      -219.7996
  18   2.0000      -6.037306      -164.2835
  19   2.0000      -6.036023      -164.2485
  20   2.0000      -6.033403      -164.1772
  21   2.0000      -6.032115      -164.1422
  22   2.0000      -6.029486      -164.0707
  23   2.0000      -6.028138      -164.0340
  24   2.0000      -1.004214       -27.3261
  25   2.0000      -0.981682       -26.7129
  26   2.0000      -0.915945       -24.9241
  27   2.0000      -0.910138       -24.7661
  28   2.0000      -0.866369       -23.5751
  29   2.0000      -0.849273       -23.1099
  30   2.0000      -0.845769       -23.0145
  31   2.0000      -0.811249       -22.0752
  32   2.0000      -0.780306       -21.2332
  33   2.0000      -0.767803       -20.8930
  34   2.0000      -0.702509       -19.1162
  35   2.0000      -0.700799       -19.0697
  36   2.0000      -0.691694       -18.8220
  37   2.0000      -0.652795       -17.7635
  38   2.0000      -0.645351       -17.5609
  39   2.0000      -0.620333       -16.8801
  40   2.0000      -0.597210       -16.2509
  41   2.0000      -0.569446       -15.4954
  42   2.0000      -0.561336       -15.2747
  43   2.0000      -0.556614       -15.1462
  44   2.0000      -0.528366       -14.3776
  45   2.0000      -0.522805       -14.2262
  46   2.0000      -0.515911       -14.0386
  47   2.0000      -0.509325       -13.8594
  48   2.0000      -0.504167       -13.7191
  49   2.0000      -0.499362       -13.5883
  50   2.0000      -0.484870       -13.1940
  51   2.0000      -0.469686       -12.7808
  52   2.0000      -0.468586       -12.7509
  53   2.0000      -0.462986       -12.5985
  54   2.0000      -0.458286       -12.4706
  55   2.0000      -0.449519       -12.2320
  56   2.0000      -0.443856       -12.0779
  57   2.0000      -0.440093       -11.9755
  58   2.0000      -0.434020       -11.8103
  59   2.0000      -0.423777       -11.5316
  60   2.0000      -0.419990       -11.4285
  61   2.0000      -0.416173       -11.3246
  62   2.0000      -0.413039       -11.2394
  63   2.0000      -0.337400        -9.1811
  64   2.0000      -0.331592        -9.0231
  65   2.0000      -0.321049        -8.7362
  66   2.0000      -0.309219        -8.4143
  67   0.0000       0.044580         1.2131
  68   0.0000       0.056901         1.5484
  69   0.0000       0.110497         3.0068
  70   0.0000       0.117623         3.2007
  71   0.0000       0.127869         3.4795

MULLIKEN ATOMIC CHARGES
-----------------------
   0 S :    0.101419
   1 C :   -0.097911
   2 C :   -0.074846
   3 C :    0.028983
   4 C :   -0.169707
   5 H :    0.032564
   6 C :    0.030292
   7 H :    0.023277
   8 H :    0.010572
   9 C :   -0.052015
  10 H :    0.034044
  11 H :    0.021844
  12 C :   -0.052495
  13 H :    0.040681
  14 H :    0.046936
  15 H :    0.029896
  16 S :    0.118234
  17 C :   -0.108777
  18 C :   -0.054100
  19 C :    0.000644
  20 C :   -0.195509
  21 H :    0.015236
  22 C :    0.064078
  23 H :    0.025798
  24 H :    0.019902
  25 C :   -0.051718
  26 H :    0.032588
  27 H :    0.041789
  28 C :   -0.094969
  29 H :    0.056084
  30 H :    0.049314
  31 H :    0.031374
  32 H :    0.026380
  33 H :    0.070119
Sum of atomic charges:   -0.0000000

LOEWDIN ATOMIC CHARGES
----------------------
   0 S :    0.391810
   1 C :   -0.181641
   2 C :   -0.063396
   3 C :   -0.070463
   4 C :   -0.191687
   5 H :    0.042762
   6 C :   -0.032015
   7 H :    0.029995
   8 H :    0.025391
   9 C :   -0.043415
  10 H :    0.027752
  11 H :    0.021635
  12 C :   -0.064734
  13 H :    0.031057
  14 H :    0.036184
  15 H :    0.020201
  16 S :    0.396486
  17 C :   -0.200704
  18 C :   -0.077132
  19 C :   -0.046871
  20 C :   -0.188426
  21 H :    0.029664
  22 C :   -0.036565
  23 H :    0.030670
  24 H :    0.033983
  25 C :   -0.039300
  26 H :    0.017774
  27 H :    0.033406
  28 C :   -0.076365
  29 H :    0.036048
  30 H :    0.032167
  31 H :    0.022839
  32 H :    0.013217
  33 H :    0.039673

  Mayer bond orders larger than 0.100000
B(  0-S ,  1-C ) :   1.1279 B(  0-S ,  4-C ) :   1.1559 B(  1-C ,  2-C ) :   1.6252
B(  1-C , 32-H ) :   0.9762 B(  2-C ,  3-C ) :   1.2311 B(  2-C ,  6-C ) :   1.0159
B(  3-C ,  4-C ) :   1.6169 B(  3-C ,  5-H ) :   0.9852 B(  4-C , 20-C ) :   0.9870
B(  6-C ,  7-H ) :   0.9376 B(  6-C ,  8-H ) :   0.9464 B(  6-C ,  9-C ) :   1.0579
B(  9-C , 10-H ) :   0.9495 B(  9-C , 11-H ) :   0.9520 B(  9-C , 12-C ) :   1.0826
B( 12-C , 13-H ) :   0.9736 B( 12-C , 14-H ) :   0.9712 B( 12-C , 15-H ) :   0.9714
B( 16-S , 17-C ) :   1.1431 B( 16-S , 20-C ) :   1.1400 B( 17-C , 18-C ) :   1.6630
B( 17-C , 33-H ) :   0.9570 B( 18-C , 19-C ) :   1.1873 B( 18-C , 21-H ) :   0.9883
B( 19-C , 20-C ) :   1.6416 B( 19-C , 22-C ) :   1.0408 B( 22-C , 23-H ) :   0.9262
B( 22-C , 24-H ) :   0.9435 B( 22-C , 25-C ) :   1.0324 B( 25-C , 26-H ) :   0.9667
B( 25-C , 27-H ) :   0.9501 B( 25-C , 28-C ) :   1.0728 B( 28-C , 29-H ) :   0.9743
B( 28-C , 30-H ) :   0.9745 B( 28-C , 31-H ) :   0.9752

Dispersion correction           -0.014172688
FINAL SINGLE POINT ENERGY     -1339.873612328954

DIPOLE MOMENT
-------------
                                X             Y             Z
Electronic contribution:     -9.62356     -26.52636      10.30188
Nuclear contribution   :      9.95188      27.18108     -10.41061
                        -----------------------------------------
Total Dipole Moment    :      0.32832       0.65472      -0.10872
                        -----------------------------------------
Magnitude (a.u.)       :      0.74045
Magnitude (Debye)      :      1.88208

Rotational constants in cm-1:     0.017554     0.008812     0.006563
Rotational constants in MHz :   526.254599   264.187889   196.741616

                             ****ORCA TERMINATED NORMALLY****
TOTAL RUN TIME: 0 days 0 hours 0 minutes 20 seconds 278 msec
