                         Program Version 4.2.1 -  RELEASE  -
|  1> ! wB97X-D3 SP def2-SVP
|  2> %pal
|  3> nprocs 24
|  4> end
|  5>
|  6> * xyz 0 1
|  7> S 	 -42.9168 	 -50.7631 	 -70.1707
|  8> C 	 -43.8603 	 -52.1342 	 -69.57
|  9> C 	 -43.3244 	 -52.6643 	 -68.4046
| 10> C 	 -42.086 	 -52.0468 	 -68.0223
| 11> C 	 -41.8232 	 -50.8723 	 -68.7532
| 12> H 	 -41.4538 	 -52.3225 	 -67.1524
| 13> C 	 -43.7377 	 -53.952 	 -67.741
| 14> H 	 -42.7979 	 -54.5429 	 -67.504
| 15> H 	 -44.2659 	 -54.5201 	 -68.4853
| 16> C 	 -44.6969 	 -53.7558 	 -66.5131
| 17> H 	 -45.693 	 -53.3662 	 -66.8532
| 18> H 	 -44.8119 	 -54.6921 	 -66.0289
| 19> C 	 -44.1026 	 -52.8282 	 -65.4341
| 20> H 	 -43.8282 	 -51.8694 	 -65.7692
| 21> H 	 -44.7219 	 -52.7742 	 -64.5053
| 22> H 	 -43.22 	 -53.3798 	 -65.0841
| 23> S 	 -40.08 	 -49.8183 	 -66.9974
| 24> C 	 -38.7391 	 -48.8886 	 -67.5424
| 25> C 	 -38.7787 	 -48.7632 	 -68.957
| 26> C 	 -39.8398 	 -49.4468 	 -69.5718
| 27> C 	 -40.6347 	 -50.1126 	 -68.6279
| 28> H 	 -37.9141 	 -48.2374 	 -69.4294
| 29> C 	 -40.0139 	 -49.5336 	 -71.114
| 30> H 	 -40.9719 	 -49.142 	 -71.4402
| 31> H 	 -40.1417 	 -50.6417 	 -71.2841
| 32> C 	 -38.8213 	 -48.9514 	 -72.0171
| 33> H 	 -37.8884 	 -49.3871 	 -71.6874
| 34> H 	 -38.889 	 -47.8652 	 -71.9697
| 35> C 	 -39.0202 	 -49.3202 	 -73.507
| 36> H 	 -39.9659 	 -48.9041 	 -73.9033
| 37> H 	 -38.9241 	 -50.3194 	 -73.8733
| 38> H 	 -38.2039 	 -48.821 	 -74.0729
| 39> H 	 -44.8992 	 -52.4827 	 -69.9507
| 40> H 	 -38.0414 	 -48.4126 	 -66.8997
| 41> *
| 42>
| 43>                          ****END OF INPUT****

CARTESIAN COORDINATES (ANGSTROEM)
---------------------------------
  S    -42.916800  -50.763100  -70.170700
  C    -43.860300  -52.134200  -69.570000
  C    -43.324400  -52.664300  -68.404600
  C    -42.086000  -52.046800  -68.022300
  C    -41.823200  -50.872300  -68.753200
  H    -41.453800  -52.322500  -67.152400
  C    -43.737700  -53.952000  -67.741000
  H    -42.797900  -54.542900  -67.504000
  H    -44.265900  -54.520100  -68.485300
  C    -44.696900  -53.755800  -66.513100
  H    -45.693000  -53.366200  -66.853200
  H    -44.811900  -54.692100  -66.028900
  C    -44.102600  -52.828200  -65.434100
  H    -43.828200  -51.869400  -65.769200
  H    -44.721900  -52.774200  -64.505300
  H    -43.220000  -53.379800  -65.084100
  S    -40.080000  -49.818300  -66.997400
  C    -38.739100  -48.888600  -67.542400
  C    -38.778700  -48.763200  -68.957000
  C    -39.839800  -49.446800  -69.571800
  C    -40.634700  -50.112600  -68.627900
  H    -37.914100  -48.237400  -69.429400
  C    -40.013900  -49.533600  -71.114000
  H    -40.971900  -49.142000  -71.440200
  H    -40.141700  -50.641700  -71.284100
  C    -38.821300  -48.951400  -72.017100
  H    -37.888400  -49.387100  -71.687400
  H    -38.889000  -47.865200  -71.969700
  C    -39.020200  -49.320200  -73.507000
  H    -39.965900  -48.904100  -73.903300
  H    -38.924100  -50.319400  -73.873300
  H    -38.203900  -48.821000  -74.072900
  H    -44.899200  -52.482700  -69.950700
  H    -38.041400  -48.412600  -66.899700

 Total Charge           Charge          ....    0
 Multiplicity           Mult            ....    1
 Number of Electrons    NEL             ....  134
 Basis Dimension        Dim             ....  322

ORBITAL ENERGIES
----------------

  NO   OCC          E(Eh)            E(eV)
   0   2.0000     -88.971154     -2421.0282
   1   2.0000     -88.968305     -2420.9507
   2   2.0000     -10.332347      -281.1575
   3   2.0000     -10.322896      -280.9003
   4   2.0000     -10.322851      -280.8991
   5   2.0000     -10.315068      -280.6873
   6   2.0000     -10.305377      -280.4236
   7   2.0000     -10.300592      -280.2933
   8   2.0000     -10.299794      -280.2717
   9   2.0000     -10.297783      -280.2169
  10   2.0000     -10.297287      -280.2034
  11   2.0000     -10.296990      -280.1953
  12   2.0000     -10.295237      -280.1476
  13   2.0000     -10.289097      -279.9806
  14   2.0000     -10.280276      -279.7405
  15   2.0000     -10.273310      -279.5510
  16   2.0000      -8.084101      -219.9796
  17   2.0000      -8.083200      -219.9551
  18   2.0000      -6.042819      -164.4335
  19   2.0000      -6.041530      -164.3984
  20   2.0000      -6.038882      -164.3263
  21   2.0000      -6.037566      -164.2905
  22   2.0000      -6.034731      -164.2134
  23   2.0000      -6.034281      -164.2011
  24   2.0000      -1.005996       -27.3745
  25   2.0000      -0.978721       -26.6324
  26   2.0000      -0.907359       -24.6905
  27   2.0000      -0.898921       -24.4609
  28   2.0000      -0.869212       -23.6525
  29   2.0000      -0.853547       -23.2262
  30   2.0000      -0.842153       -22.9161
  31   2.0000      -0.806013       -21.9327
  32   2.0000      -0.779987       -21.2245
  33   2.0000      -0.768080       -20.9005
  34   2.0000      -0.708681       -19.2842
  35   2.0000      -0.700677       -19.0664
  36   2.0000      -0.696155       -18.9434
  37   2.0000      -0.655990       -17.8504
  38   2.0000      -0.625946       -17.0329
  39   2.0000      -0.609207       -16.5774
  40   2.0000      -0.593096       -16.1390
  41   2.0000      -0.571825       -15.5601
  42   2.0000      -0.567648       -15.4465
  43   2.0000      -0.545031       -14.8311
  44   2.0000      -0.540165       -14.6986
  45   2.0000      -0.521716       -14.1966
  46   2.0000      -0.513615       -13.9762
  47   2.0000      -0.505315       -13.7503
  48   2.0000      -0.501097       -13.6355
  49   2.0000      -0.493560       -13.4305
  50   2.0000      -0.482674       -13.1342
  51   2.0000      -0.481486       -13.1019
  52   2.0000      -0.469824       -12.7846
  53   2.0000      -0.465914       -12.6782
  54   2.0000      -0.457925       -12.4608
  55   2.0000      -0.445462       -12.1216
  56   2.0000      -0.441428       -12.0119
  57   2.0000      -0.436911       -11.8890
  58   2.0000      -0.433678       -11.8010
  59   2.0000      -0.425596       -11.5811
  60   2.0000      -0.421605       -11.4724
  61   2.0000      -0.418134       -11.3780
  62   2.0000      -0.409908       -11.1542
  63   2.0000      -0.356387        -9.6978
  64   2.0000      -0.334481        -9.1017
  65   2.0000      -0.329756        -8.9731
  66   2.0000      -0.276322        -7.5191
  67   0.0000       0.017409         0.4737
  68   0.0000       0.078181         2.1274
  69   0.0000       0.101733         2.7683
  70   0.0000       0.117480         3.1968
  71   0.0000       0.131884         3.5888

MULLIKEN ATOMIC CHARGES
-----------------------
   0 S :    0.092625
   1 C :   -0.138731
   2 C :   -0.078788
   3 C :   -0.027920
   4 C :   -0.125626
   5 H :    0.040922
   6 C :    0.028925
   7 H :    0.047029
   8 H :    0.017725
   9 C :   -0.047668
  10 H :    0.036228
  11 H :    0.023457
  12 C :   -0.066061
  13 H :    0.044404
  14 H :    0.038607
  15 H :    0.017180
  16 S :    0.115941
  17 C :   -0.087866
  18 C :   -0.085593
  19 C :   -0.009829
  20 C :   -0.152579
  21 H :    0.038205
  22 C :    0.002394
  23 H :    0.037488
  24 H :    0.046848
  25 C :   -0.053747
  26 H :    0.041176
  27 H :    0.045370
  28 C :   -0.062912
  29 H :    0.032992
  30 H :    0.033677
  31 H :    0.028699
  32 H :    0.079769
  33 H :    0.047654
Sum of atomic charges:    0.0000000

LOEWDIN ATOMIC CHARGES
----------------------
   0 S :    0.392949
   1 C :   -0.211996
   2 C :   -0.068851
   3 C :   -0.068030
   4 C :   -0.178800
   5 H :    0.033845
   6 C :   -0.033763
   7 H :    0.040169
   8 H :    0.026493
   9 C :   -0.033660
  10 H :    0.025911
  11 H :    0.019247
  12 C :   -0.067125
  13 H :    0.016380
  14 H :    0.031207
  15 H :    0.024281
  16 S :    0.436602
  17 C :   -0.199207
  18 C :   -0.078731
  19 C :   -0.062947
  20 C :   -0.201848
  21 H :    0.038729
  22 C :   -0.042737
  23 H :    0.020850
  24 H :    0.037149
  25 C :   -0.030932
  26 H :    0.025334
  27 H :    0.029939
  28 C :   -0.070945
  29 H :    0.026894
  30 H :    0.021167
  31 H :    0.030325
  32 H :    0.049672
  33 H :    0.022428

  Mayer bond orders larger than 0.100000
B(  0-S ,  1-C ) :   1.1236 B(  0-S ,  4-C ) :   1.1322 B(  1-C ,  2-C ) :   1.6304
B(  1-C , 32-H ) :   0.9468 B(  2-C ,  3-C ) :   1.2402 B(  2-C ,  6-C ) :   1.0158
B(  3-C ,  4-C ) :   1.5398 B(  3-C ,  5-H ) :   0.9768 B(  4-C , 20-C ) :   1.1055
B(  6-C ,  7-H ) :   0.9500 B(  6-C ,  8-H ) :   0.9428 B(  6-C ,  9-C ) :   1.0641
B(  9-C , 10-H ) :   0.9572 B(  9-C , 11-H ) :   0.9575 B(  9-C , 12-C ) :   1.0789
B( 12-C , 13-H ) :   0.9741 B( 12-C , 14-H ) :   0.9732 B( 12-C , 15-H ) :   0.9737
B( 16-S , 17-C ) :   1.1779 B( 16-S , 20-C ) :   1.1613 B( 17-C , 18-C ) :   1.5487
B( 17-C , 20-C ) :   0.1124 B( 17-C , 33-H ) :   0.9722 B( 18-C , 19-C ) :   1.3010
B( 18-C , 21-H ) :   0.9807 B( 19-C , 20-C ) :   1.5215 B( 19-C , 22-C ) :   1.0077
B( 22-C , 23-H ) :   0.9350 B( 22-C , 24-H ) :   0.9414 B( 22-C , 25-C ) :   1.0711
B( 25-C , 26-H ) :   0.9548 B( 25-C , 27-H ) :   0.9510 B( 25-C , 28-C ) :   1.0848
B( 28-C , 29-H ) :   0.9748 B( 28-C , 30-H ) :   0.9783 B( 28-C , 31-H ) :   0.9725

Dispersion correction           -0.014045536
FINAL SINGLE POINT ENERGY     -1339.875932699484

DIPOLE MOMENT
-------------
                                X             Y             Z
Electronic contribution:      1.07028       6.65975       5.27543
Nuclear contribution   :     -0.91475      -6.89036      -5.38638
                        -----------------------------------------
Total Dipole Moment    :      0.15553      -0.23061      -0.11095
                        -----------------------------------------
Magnitude (a.u.)       :      0.29947
Magnitude (Debye)      :      0.76118

Rotational constants in cm-1:     0.022279     0.008026     0.006183
Rotational constants in MHz :   667.909821   240.607067   185.367633

                             ****ORCA TERMINATED NORMALLY****
TOTAL RUN TIME: 0 days 0 hours 0 minutes 21 seconds 114 msec
