                         Program Version 4.2.1 -  RELEASE  -
|  1> ! wB97X-D3 SP def2-SVP
|  2> %pal
|  3> nprocs 24
|  4> end
|  5>
|  6> * xyz 0 1
|  7> S 	 -109.078 	 56.67 	 -88.7169
|  8> C 	 -110.317 	 57.8344 	 -88.6947
|  9> C 	 -111.513 	 57.3474 	 -88.1445
| 10> C 	 -111.368 	 55.9912 	 -87.7613
| 11> C 	 -110.167 	 55.4578 	 -88.0618
| 12> H 	 -112.073 	 55.4246 	 -87.2397
| 13> C 	 -112.802 	 58.1304 	 -88.0172
| 14> H 	 -112.478 	 59.0763 	 -87.5161
| 15> H 	 -113.418 	 57.4937 	 -87.3133
| 16> C 	 -113.566 	 58.2954 	 -89.2351
| 17> H 	 -112.882 	 58.749 	 -90.0298
| 18> H 	 -113.842 	 57.3014 	 -89.6658
| 19> C 	 -114.739 	 59.2569 	 -89.1049
| 20> H 	 -114.409 	 60.1996 	 -88.7953
| 21> H 	 -115.228 	 59.2483 	 -90.157
| 22> H 	 -115.541 	 59.0152 	 -88.4341
| 23> S 	 -108.305 	 54.0299 	 -86.5673
| 24> C 	 -108.249 	 52.3054 	 -86.6652
| 25> C 	 -109.26 	 51.7857 	 -87.4334
| 26> C 	 -110.045 	 52.8445 	 -87.9982
| 27> C 	 -109.604 	 54.1541 	 -87.7309
| 28> H 	 -109.425 	 50.7006 	 -87.5398
| 29> C 	 -111.239 	 52.5446 	 -88.8105
| 30> H 	 -111.878 	 53.3821 	 -88.8515
| 31> H 	 -111.725 	 51.6492 	 -88.4093
| 32> C 	 -110.834 	 52.2019 	 -90.2279
| 33> H 	 -111.689 	 51.775 	 -90.7984
| 34> H 	 -110.164 	 51.3996 	 -90.0923
| 35> C 	 -110.039 	 53.2669 	 -90.9409
| 36> H 	 -109.806 	 52.9824 	 -91.945
| 37> H 	 -109.149 	 53.6743 	 -90.3988
| 38> H 	 -110.663 	 54.142 	 -90.925
| 39> H 	 -110.239 	 58.8721 	 -88.9832
| 40> H 	 -107.476 	 51.7237 	 -86.1935
| 41> *
| 42>
| 43>                          ****END OF INPUT****

CARTESIAN COORDINATES (ANGSTROEM)
---------------------------------
  S    -109.078000   56.670000  -88.716900
  C    -110.317000   57.834400  -88.694700
  C    -111.513000   57.347400  -88.144500
  C    -111.368000   55.991200  -87.761300
  C    -110.167000   55.457800  -88.061800
  H    -112.073000   55.424600  -87.239700
  C    -112.802000   58.130400  -88.017200
  H    -112.478000   59.076300  -87.516100
  H    -113.418000   57.493700  -87.313300
  C    -113.566000   58.295400  -89.235100
  H    -112.882000   58.749000  -90.029800
  H    -113.842000   57.301400  -89.665800
  C    -114.739000   59.256900  -89.104900
  H    -114.409000   60.199600  -88.795300
  H    -115.228000   59.248300  -90.157000
  H    -115.541000   59.015200  -88.434100
  S    -108.305000   54.029900  -86.567300
  C    -108.249000   52.305400  -86.665200
  C    -109.260000   51.785700  -87.433400
  C    -110.045000   52.844500  -87.998200
  C    -109.604000   54.154100  -87.730900
  H    -109.425000   50.700600  -87.539800
  C    -111.239000   52.544600  -88.810500
  H    -111.878000   53.382100  -88.851500
  H    -111.725000   51.649200  -88.409300
  C    -110.834000   52.201900  -90.227900
  H    -111.689000   51.775000  -90.798400
  H    -110.164000   51.399600  -90.092300
  C    -110.039000   53.266900  -90.940900
  H    -109.806000   52.982400  -91.945000
  H    -109.149000   53.674300  -90.398800
  H    -110.663000   54.142000  -90.925000
  H    -110.239000   58.872100  -88.983200
  H    -107.476000   51.723700  -86.193500

 Total Charge           Charge          ....    0
 Multiplicity           Mult            ....    1
 Number of Electrons    NEL             ....  134
 Basis Dimension        Dim             ....  322

ORBITAL ENERGIES
----------------

  NO   OCC          E(Eh)            E(eV)
   0   2.0000     -88.968168     -2420.9469
   1   2.0000     -88.962680     -2420.7976
   2   2.0000     -10.325720      -280.9771
   3   2.0000     -10.324067      -280.9321
   4   2.0000     -10.315466      -280.6981
   5   2.0000     -10.312158      -280.6081
   6   2.0000     -10.300125      -280.2806
   7   2.0000     -10.298836      -280.2456
   8   2.0000     -10.295674      -280.1595
   9   2.0000     -10.294165      -280.1185
  10   2.0000     -10.290232      -280.0114
  11   2.0000     -10.288142      -279.9546
  12   2.0000     -10.280044      -279.7342
  13   2.0000     -10.277633      -279.6686
  14   2.0000     -10.273825      -279.5650
  15   2.0000     -10.263749      -279.2908
  16   2.0000      -8.083506      -219.9634
  17   2.0000      -8.077883      -219.8104
  18   2.0000      -6.041856      -164.4073
  19   2.0000      -6.037832      -164.2978
  20   2.0000      -6.036339      -164.2571
  21   2.0000      -6.034505      -164.2072
  22   2.0000      -6.032234      -164.1454
  23   2.0000      -6.028771      -164.0512
  24   2.0000      -1.012074       -27.5399
  25   2.0000      -0.989777       -26.9332
  26   2.0000      -0.923286       -25.1239
  27   2.0000      -0.917877       -24.9767
  28   2.0000      -0.871802       -23.7229
  29   2.0000      -0.857088       -23.3225
  30   2.0000      -0.842888       -22.9361
  31   2.0000      -0.818347       -22.2684
  32   2.0000      -0.784902       -21.3583
  33   2.0000      -0.770816       -20.9750
  34   2.0000      -0.702806       -19.1243
  35   2.0000      -0.698787       -19.0149
  36   2.0000      -0.693061       -18.8591
  37   2.0000      -0.657944       -17.9036
  38   2.0000      -0.647414       -17.6170
  39   2.0000      -0.624070       -16.9818
  40   2.0000      -0.601156       -16.3583
  41   2.0000      -0.574479       -15.6324
  42   2.0000      -0.565982       -15.4012
  43   2.0000      -0.554369       -15.0851
  44   2.0000      -0.541951       -14.7472
  45   2.0000      -0.532288       -14.4843
  46   2.0000      -0.518236       -14.1019
  47   2.0000      -0.510927       -13.9030
  48   2.0000      -0.505354       -13.7514
  49   2.0000      -0.501871       -13.6566
  50   2.0000      -0.500237       -13.6122
  51   2.0000      -0.475677       -12.9438
  52   2.0000      -0.469797       -12.7838
  53   2.0000      -0.466047       -12.6818
  54   2.0000      -0.455543       -12.3960
  55   2.0000      -0.450352       -12.2547
  56   2.0000      -0.446163       -12.1407
  57   2.0000      -0.444766       -12.1027
  58   2.0000      -0.435025       -11.8376
  59   2.0000      -0.419810       -11.4236
  60   2.0000      -0.416724       -11.3396
  61   2.0000      -0.408202       -11.1078
  62   2.0000      -0.404175       -10.9981
  63   2.0000      -0.349414        -9.5080
  64   2.0000      -0.330137        -8.9835
  65   2.0000      -0.325389        -8.8543
  66   2.0000      -0.295033        -8.0283
  67   0.0000       0.034452         0.9375
  68   0.0000       0.066573         1.8115
  69   0.0000       0.113647         3.0925
  70   0.0000       0.118531         3.2254
  71   0.0000       0.131216         3.5706

MULLIKEN ATOMIC CHARGES
-----------------------
   0 S :    0.129589
   1 C :   -0.104702
   2 C :   -0.118192
   3 C :    0.075407
   4 C :   -0.187890
   5 H :   -0.008547
   6 C :    0.056527
   7 H :    0.037503
   8 H :    0.024432
   9 C :   -0.084447
  10 H :    0.029161
  11 H :    0.031729
  12 C :   -0.021419
  13 H :    0.017677
  14 H :    0.045530
  15 H :    0.024620
  16 S :    0.110453
  17 C :   -0.089432
  18 C :   -0.032384
  19 C :   -0.083615
  20 C :   -0.146474
  21 H :    0.033887
  22 C :    0.116302
  23 H :    0.002278
  24 H :    0.020779
  25 C :   -0.062663
  26 H :    0.032236
  27 H :   -0.002946
  28 C :   -0.032466
  29 H :    0.032185
  30 H :    0.044496
  31 H :    0.013937
  32 H :    0.041437
  33 H :    0.055007
Sum of atomic charges:    0.0000000

LOEWDIN ATOMIC CHARGES
----------------------
   0 S :    0.432616
   1 C :   -0.211006
   2 C :   -0.063499
   3 C :   -0.052866
   4 C :   -0.195519
   5 H :    0.024908
   6 C :   -0.042363
   7 H :    0.036448
   8 H :    0.035279
   9 C :   -0.052862
  10 H :    0.029877
  11 H :    0.029610
  12 C :   -0.061702
  13 H :    0.016239
  14 H :    0.040985
  15 H :    0.020020
  16 S :    0.415343
  17 C :   -0.183806
  18 C :   -0.077346
  19 C :   -0.048951
  20 C :   -0.217776
  21 H :    0.039503
  22 C :   -0.029226
  23 H :    0.017971
  24 H :    0.034425
  25 C :   -0.039200
  26 H :    0.026672
  27 H :    0.011922
  28 C :   -0.066322
  29 H :    0.023036
  30 H :    0.033257
  31 H :    0.020313
  32 H :    0.026622
  33 H :    0.027396

  Mayer bond orders larger than 0.100000
B(  0-S ,  1-C ) :   1.1620 B(  0-S ,  4-C ) :   1.1569 B(  1-C ,  2-C ) :   1.5875
B(  1-C , 32-H ) :   0.9672 B(  2-C ,  3-C ) :   1.2629 B(  2-C ,  6-C ) :   1.0100
B(  3-C ,  4-C ) :   1.5818 B(  3-C ,  5-H ) :   1.0014 B(  4-C , 20-C ) :   1.0166
B(  6-C ,  7-H ) :   0.9330 B(  6-C ,  8-H ) :   0.9348 B(  6-C ,  9-C ) :   1.0896
B(  9-C , 10-H ) :   0.9513 B(  9-C , 11-H ) :   0.9466 B(  9-C , 12-C ) :   1.0746
B( 12-C , 13-H ) :   0.9732 B( 12-C , 14-H ) :   0.9737 B( 12-C , 15-H ) :   0.9754
B( 16-S , 17-C ) :   1.1783 B( 16-S , 20-C ) :   1.1378 B( 17-C , 18-C ) :   1.5833
B( 17-C , 33-H ) :   0.9672 B( 18-C , 19-C ) :   1.2523 B( 18-C , 21-H ) :   0.9875
B( 19-C , 20-C ) :   1.5721 B( 19-C , 22-C ) :   1.0662 B( 22-C , 23-H ) :   0.9283
B( 22-C , 24-H ) :   0.9254 B( 22-C , 25-C ) :   1.0785 B( 25-C , 26-H ) :   0.9536
B( 25-C , 27-H ) :   0.9499 B( 25-C , 28-C ) :   1.0793 B( 28-C , 29-H ) :   0.9710
B( 28-C , 30-H ) :   0.9647 B( 28-C , 31-H ) :   0.9731

Dispersion correction           -0.015161708
FINAL SINGLE POINT ENERGY     -1339.879431101931

DIPOLE MOMENT
-------------
                                X             Y             Z
Electronic contribution:     22.00797      -3.33187      12.82474
Nuclear contribution   :    -22.54969       3.25514     -12.84149
                        -----------------------------------------
Total Dipole Moment    :     -0.54172      -0.07673      -0.01676
                        -----------------------------------------
Magnitude (a.u.)       :      0.54739
Magnitude (Debye)      :      1.39135

Rotational constants in cm-1:     0.023043     0.007968     0.006981
Rotational constants in MHz :   690.798469   238.863320   209.277820

                             ****ORCA TERMINATED NORMALLY****
TOTAL RUN TIME: 0 days 0 hours 0 minutes 22 seconds 419 msec
