                         Program Version 4.2.1 -  RELEASE  -
|  1> ! wB97X-D3 SP def2-SVP
|  2> %pal
|  3> nprocs 24
|  4> end
|  5>
|  6> * xyz 0 1
|  7> S 	 -66.1721 	 -59.8342 	 -83.2162
|  8> C 	 -66.4057 	 -61.4616 	 -82.6026
|  9> C 	 -65.8093 	 -61.7426 	 -81.438
| 10> C 	 -65.1923 	 -60.5943 	 -80.9374
| 11> C 	 -65.3929 	 -59.4764 	 -81.7261
| 12> H 	 -64.59 	 -60.5342 	 -80.051
| 13> C 	 -65.7728 	 -63.0897 	 -80.7473
| 14> H 	 -64.6572 	 -63.2312 	 -80.588
| 15> H 	 -66.1268 	 -63.8467 	 -81.4586
| 16> C 	 -66.6047 	 -63.2954 	 -79.5545
| 17> H 	 -67.6015 	 -62.9118 	 -79.6683
| 18> H 	 -66.6846 	 -64.4313 	 -79.3628
| 19> C 	 -66.1335 	 -62.5519 	 -78.3341
| 20> H 	 -66.3437 	 -61.4859 	 -78.5366
| 21> H 	 -66.5318 	 -62.9957 	 -77.4032
| 22> H 	 -65.0149 	 -62.7235 	 -78.2666
| 23> S 	 -64.2459 	 -57.2091 	 -82.8262
| 24> C 	 -64.0705 	 -55.8977 	 -81.7479
| 25> C 	 -64.4125 	 -56.1937 	 -80.4565
| 26> C 	 -64.9379 	 -57.5032 	 -80.2969
| 27> C 	 -64.9111 	 -58.1434 	 -81.5181
| 28> H 	 -64.2773 	 -55.4164 	 -79.7124
| 29> C 	 -65.5458 	 -57.9394 	 -78.983
| 30> H 	 -65.9195 	 -58.9348 	 -79.1265
| 31> H 	 -66.4071 	 -57.4038 	 -78.6815
| 32> C 	 -64.6193 	 -58.0772 	 -77.7248
| 33> H 	 -64.0256 	 -57.1553 	 -77.4856
| 34> H 	 -63.7859 	 -58.7601 	 -77.9593
| 35> C 	 -65.3887 	 -58.6584 	 -76.4471
| 36> H 	 -65.8768 	 -59.601 	 -76.6006
| 37> H 	 -66.1458 	 -57.8972 	 -76.2055
| 38> H 	 -64.6352 	 -58.6698 	 -75.6261
| 39> H 	 -66.8522 	 -62.2898 	 -83.0883
| 40> H 	 -63.6553 	 -54.9438 	 -82.0883
| 41> *
| 42>
| 43>                          ****END OF INPUT****

CARTESIAN COORDINATES (ANGSTROEM)
---------------------------------
  S    -66.172100  -59.834200  -83.216200
  C    -66.405700  -61.461600  -82.602600
  C    -65.809300  -61.742600  -81.438000
  C    -65.192300  -60.594300  -80.937400
  C    -65.392900  -59.476400  -81.726100
  H    -64.590000  -60.534200  -80.051000
  C    -65.772800  -63.089700  -80.747300
  H    -64.657200  -63.231200  -80.588000
  H    -66.126800  -63.846700  -81.458600
  C    -66.604700  -63.295400  -79.554500
  H    -67.601500  -62.911800  -79.668300
  H    -66.684600  -64.431300  -79.362800
  C    -66.133500  -62.551900  -78.334100
  H    -66.343700  -61.485900  -78.536600
  H    -66.531800  -62.995700  -77.403200
  H    -65.014900  -62.723500  -78.266600
  S    -64.245900  -57.209100  -82.826200
  C    -64.070500  -55.897700  -81.747900
  C    -64.412500  -56.193700  -80.456500
  C    -64.937900  -57.503200  -80.296900
  C    -64.911100  -58.143400  -81.518100
  H    -64.277300  -55.416400  -79.712400
  C    -65.545800  -57.939400  -78.983000
  H    -65.919500  -58.934800  -79.126500
  H    -66.407100  -57.403800  -78.681500
  C    -64.619300  -58.077200  -77.724800
  H    -64.025600  -57.155300  -77.485600
  H    -63.785900  -58.760100  -77.959300
  C    -65.388700  -58.658400  -76.447100
  H    -65.876800  -59.601000  -76.600600
  H    -66.145800  -57.897200  -76.205500
  H    -64.635200  -58.669800  -75.626100
  H    -66.852200  -62.289800  -83.088300
  H    -63.655300  -54.943800  -82.088300

 Total Charge           Charge          ....    0
 Multiplicity           Mult            ....    1
 Number of Electrons    NEL             ....  134
 Basis Dimension        Dim             ....  322

ORBITAL ENERGIES
----------------

  NO   OCC          E(Eh)            E(eV)
   0   2.0000     -88.968706     -2420.9616
   1   2.0000     -88.967300     -2420.9233
   2   2.0000     -10.320731      -280.8414
   3   2.0000     -10.320490      -280.8348
   4   2.0000     -10.311913      -280.6014
   5   2.0000     -10.301107      -280.3074
   6   2.0000     -10.300370      -280.2873
   7   2.0000     -10.296350      -280.1779
   8   2.0000     -10.294783      -280.1353
   9   2.0000     -10.289852      -280.0011
  10   2.0000     -10.289088      -279.9803
  11   2.0000     -10.287830      -279.9461
  12   2.0000     -10.286969      -279.9227
  13   2.0000     -10.285985      -279.8959
  14   2.0000     -10.285906      -279.8937
  15   2.0000     -10.283803      -279.8365
  16   2.0000      -8.084551      -219.9918
  17   2.0000      -8.082585      -219.9383
  18   2.0000      -6.042907      -164.4359
  19   2.0000      -6.040926      -164.3820
  20   2.0000      -6.039047      -164.3308
  21   2.0000      -6.037304      -164.2834
  22   2.0000      -6.035283      -164.2284
  23   2.0000      -6.033219      -164.1722
  24   2.0000      -1.017577       -27.6897
  25   2.0000      -0.993264       -27.0281
  26   2.0000      -0.925152       -25.1747
  27   2.0000      -0.903850       -24.5950
  28   2.0000      -0.875530       -23.8244
  29   2.0000      -0.854837       -23.2613
  30   2.0000      -0.846276       -23.0283
  31   2.0000      -0.813859       -22.1462
  32   2.0000      -0.788414       -21.4538
  33   2.0000      -0.775094       -21.0914
  34   2.0000      -0.705496       -19.1975
  35   2.0000      -0.699393       -19.0315
  36   2.0000      -0.695205       -18.9175
  37   2.0000      -0.661308       -17.9951
  38   2.0000      -0.635640       -17.2966
  39   2.0000      -0.622437       -16.9374
  40   2.0000      -0.604131       -16.4392
  41   2.0000      -0.575362       -15.6564
  42   2.0000      -0.558906       -15.2086
  43   2.0000      -0.554678       -15.0935
  44   2.0000      -0.538979       -14.6664
  45   2.0000      -0.526798       -14.3349
  46   2.0000      -0.519631       -14.1399
  47   2.0000      -0.511184       -13.9100
  48   2.0000      -0.505952       -13.7676
  49   2.0000      -0.491592       -13.3769
  50   2.0000      -0.488690       -13.2979
  51   2.0000      -0.485131       -13.2011
  52   2.0000      -0.473839       -12.8938
  53   2.0000      -0.465350       -12.6628
  54   2.0000      -0.463464       -12.6115
  55   2.0000      -0.454401       -12.3649
  56   2.0000      -0.445702       -12.1282
  57   2.0000      -0.435196       -11.8423
  58   2.0000      -0.433730       -11.8024
  59   2.0000      -0.428594       -11.6626
  60   2.0000      -0.419910       -11.4263
  61   2.0000      -0.415430       -11.3044
  62   2.0000      -0.413201       -11.2438
  63   2.0000      -0.351930        -9.5765
  64   2.0000      -0.336870        -9.1667
  65   2.0000      -0.335736        -9.1358
  66   2.0000      -0.284420        -7.7395
  67   0.0000       0.029471         0.8020
  68   0.0000       0.080451         2.1892
  69   0.0000       0.106036         2.8854
  70   0.0000       0.122632         3.3370
  71   0.0000       0.129817         3.5325

MULLIKEN ATOMIC CHARGES
-----------------------
   0 S :    0.115219
   1 C :   -0.091222
   2 C :   -0.088028
   3 C :    0.001950
   4 C :   -0.162735
   5 H :    0.003234
   6 C :    0.063559
   7 H :    0.047296
   8 H :    0.016775
   9 C :   -0.061136
  10 H :    0.024942
  11 H :    0.041058
  12 C :   -0.087692
  13 H :    0.058774
  14 H :    0.044453
  15 H :    0.024387
  16 S :    0.126436
  17 C :   -0.105304
  18 C :   -0.024460
  19 C :   -0.022684
  20 C :   -0.138944
  21 H :    0.014689
  22 C :    0.119558
  23 H :   -0.010156
  24 H :    0.022432
  25 C :   -0.124263
  26 H :    0.033734
  27 H :    0.024957
  28 C :   -0.056877
  29 H :    0.042548
  30 H :    0.035018
  31 H :    0.045891
  32 H :    0.009760
  33 H :    0.056832
Sum of atomic charges:    0.0000000

LOEWDIN ATOMIC CHARGES
----------------------
   0 S :    0.412174
   1 C :   -0.191274
   2 C :   -0.068099
   3 C :   -0.066857
   4 C :   -0.190455
   5 H :    0.027418
   6 C :   -0.033828
   7 H :    0.041732
   8 H :    0.033098
   9 C :   -0.051283
  10 H :    0.025845
  11 H :    0.032846
  12 C :   -0.073111
  13 H :    0.027997
  14 H :    0.030684
  15 H :    0.024069
  16 S :    0.421660
  17 C :   -0.198689
  18 C :   -0.066556
  19 C :   -0.053258
  20 C :   -0.202904
  21 H :    0.031479
  22 C :   -0.030265
  23 H :    0.024494
  24 H :    0.026976
  25 C :   -0.043140
  26 H :    0.023776
  27 H :    0.019494
  28 C :   -0.063067
  29 H :    0.022579
  30 H :    0.026244
  31 H :    0.033444
  32 H :    0.017591
  33 H :    0.029189

  Mayer bond orders larger than 0.100000
B(  0-S ,  1-C ) :   1.1197 B(  0-S ,  4-C ) :   1.1541 B(  1-C ,  2-C ) :   1.6702
B(  1-C , 32-H ) :   0.9555 B(  2-C ,  3-C ) :   1.2336 B(  2-C ,  6-C ) :   1.0088
B(  3-C ,  4-C ) :   1.5604 B(  3-C ,  5-H ) :   0.9966 B(  4-C , 20-C ) :   1.0599
B(  6-C ,  7-H ) :   0.9388 B(  6-C ,  8-H ) :   0.9278 B(  6-C ,  9-C ) :   1.0847
B(  9-C , 10-H ) :   0.9456 B(  9-C , 11-H ) :   0.9519 B(  9-C , 12-C ) :   1.0805
B( 12-C , 13-H ) :   0.9685 B( 12-C , 14-H ) :   0.9696 B( 12-C , 15-H ) :   0.9730
B( 16-S , 17-C ) :   1.1486 B( 16-S , 20-C ) :   1.1453 B( 17-C , 18-C ) :   1.6203
B( 17-C , 33-H ) :   0.9655 B( 18-C , 19-C ) :   1.2249 B( 18-C , 21-H ) :   0.9953
B( 19-C , 20-C ) :   1.5947 B( 19-C , 22-C ) :   1.0448 B( 22-C , 23-H ) :   0.9195
B( 22-C , 24-H ) :   0.9337 B( 22-C , 25-C ) :   1.0475 B( 25-C , 26-H ) :   0.9589
B( 25-C , 27-H ) :   0.9554 B( 25-C , 28-C ) :   1.0690 B( 28-C , 29-H ) :   0.9770
B( 28-C , 30-H ) :   0.9772 B( 28-C , 31-H ) :   0.9752

Dispersion correction           -0.015249493
FINAL SINGLE POINT ENERGY     -1339.877191913050

DIPOLE MOMENT
-------------
                                X             Y             Z
Electronic contribution:      2.85047      13.41070     -30.40156
Nuclear contribution   :     -2.84039     -13.60832      30.97016
                        -----------------------------------------
Total Dipole Moment    :      0.01008      -0.19762       0.56861
                        -----------------------------------------
Magnitude (a.u.)       :      0.60205
Magnitude (Debye)      :      1.53030

Rotational constants in cm-1:     0.016488     0.011218     0.006971
Rotational constants in MHz :   494.296016   336.320861   208.974885

                             ****ORCA TERMINATED NORMALLY****
TOTAL RUN TIME: 0 days 0 hours 0 minutes 22 seconds 998 msec
