                         Program Version 4.2.1 -  RELEASE  -
|  1> ! wB97X-D3 SP def2-SVP
|  2> %pal
|  3> nprocs 24
|  4> end
|  5>
|  6> * xyz 0 1
|  7> S 	 -96.2889 	 12.7612 	 -114.716
|  8> C 	 -95.51 	 14.2182 	 -114.233
|  9> C 	 -94.274 	 14.3796 	 -114.787
| 10> C 	 -93.937 	 13.3463 	 -115.72
| 11> C 	 -94.9125 	 12.3385 	 -115.763
| 12> H 	 -93.0139 	 13.2575 	 -116.362
| 13> C 	 -93.3616 	 15.552 	 -114.521
| 14> H 	 -93.8213 	 16.3811 	 -114.986
| 15> H 	 -92.3924 	 15.2905 	 -115.012
| 16> C 	 -93.0253 	 15.863 	 -113.024
| 17> H 	 -92.5222 	 16.8489 	 -112.888
| 18> H 	 -93.9363 	 15.9133 	 -112.382
| 19> C 	 -92.0439 	 14.8582 	 -112.404
| 20> H 	 -91.0575 	 14.7432 	 -112.873
| 21> H 	 -91.9236 	 15.2336 	 -111.428
| 22> H 	 -92.5508 	 13.9362 	 -112.323
| 23> S 	 -95.3948 	 9.67492 	 -115.652
| 24> C 	 -94.8113 	 8.69183 	 -116.897
| 25> C 	 -94.3042 	 9.39366 	 -117.943
| 26> C 	 -94.2705 	 10.8035 	 -117.773
| 27> C 	 -94.7823 	 11.0957 	 -116.501
| 28> H 	 -93.7937 	 8.82117 	 -118.75
| 29> C 	 -93.7162 	 11.7875 	 -118.786
| 30> H 	 -93.6309 	 11.2618 	 -119.678
| 31> H 	 -92.784 	 12.0434 	 -118.431
| 32> C 	 -94.5355 	 13.0568 	 -119.04
| 33> H 	 -94.9572 	 13.5456 	 -118.113
| 34> H 	 -95.469 	 12.8507 	 -119.556
| 35> C 	 -93.7742 	 14.182 	 -119.793
| 36> H 	 -92.9142 	 14.4076 	 -119.216
| 37> H 	 -94.4967 	 15.0218 	 -120.017
| 38> H 	 -93.432 	 13.7051 	 -120.76
| 39> H 	 -95.9074 	 14.8453 	 -113.449
| 40> H 	 -94.6207 	 7.62164 	 -116.789
| 41> *
| 42>
| 43>                          ****END OF INPUT****

CARTESIAN COORDINATES (ANGSTROEM)
---------------------------------
  S    -96.288900   12.761200  -114.716000
  C    -95.510000   14.218200  -114.233000
  C    -94.274000   14.379600  -114.787000
  C    -93.937000   13.346300  -115.720000
  C    -94.912500   12.338500  -115.763000
  H    -93.013900   13.257500  -116.362000
  C    -93.361600   15.552000  -114.521000
  H    -93.821300   16.381100  -114.986000
  H    -92.392400   15.290500  -115.012000
  C    -93.025300   15.863000  -113.024000
  H    -92.522200   16.848900  -112.888000
  H    -93.936300   15.913300  -112.382000
  C    -92.043900   14.858200  -112.404000
  H    -91.057500   14.743200  -112.873000
  H    -91.923600   15.233600  -111.428000
  H    -92.550800   13.936200  -112.323000
  S    -95.394800    9.674920  -115.652000
  C    -94.811300    8.691830  -116.897000
  C    -94.304200    9.393660  -117.943000
  C    -94.270500   10.803500  -117.773000
  C    -94.782300   11.095700  -116.501000
  H    -93.793700    8.821170  -118.750000
  C    -93.716200   11.787500  -118.786000
  H    -93.630900   11.261800  -119.678000
  H    -92.784000   12.043400  -118.431000
  C    -94.535500   13.056800  -119.040000
  H    -94.957200   13.545600  -118.113000
  H    -95.469000   12.850700  -119.556000
  C    -93.774200   14.182000  -119.793000
  H    -92.914200   14.407600  -119.216000
  H    -94.496700   15.021800  -120.017000
  H    -93.432000   13.705100  -120.760000
  H    -95.907400   14.845300  -113.449000
  H    -94.620700    7.621640  -116.789000

 Total Charge           Charge          ....    0
 Multiplicity           Mult            ....    1
 Number of Electrons    NEL             ....  134
 Basis Dimension        Dim             ....  322

ORBITAL ENERGIES
----------------

  NO   OCC          E(Eh)            E(eV)
   0   2.0000     -88.967570     -2420.9307
   1   2.0000     -88.965327     -2420.8696
   2   2.0000     -10.330719      -281.1132
   3   2.0000     -10.326591      -281.0008
   4   2.0000     -10.308929      -280.5202
   5   2.0000     -10.306925      -280.4657
   6   2.0000     -10.306031      -280.4414
   7   2.0000     -10.298766      -280.2437
   8   2.0000     -10.297838      -280.2184
   9   2.0000     -10.293148      -280.0908
  10   2.0000     -10.291985      -280.0591
  11   2.0000     -10.290801      -280.0269
  12   2.0000     -10.286841      -279.9192
  13   2.0000     -10.283380      -279.8250
  14   2.0000     -10.282140      -279.7913
  15   2.0000     -10.267647      -279.3969
  16   2.0000      -8.082116      -219.9256
  17   2.0000      -8.081211      -219.9009
  18   2.0000      -6.040625      -164.3738
  19   2.0000      -6.039538      -164.3442
  20   2.0000      -6.036694      -164.2668
  21   2.0000      -6.035655      -164.2385
  22   2.0000      -6.032865      -164.1626
  23   2.0000      -6.031994      -164.1389
  24   2.0000      -1.009644       -27.4738
  25   2.0000      -0.987137       -26.8614
  26   2.0000      -0.912514       -24.8308
  27   2.0000      -0.907657       -24.6986
  28   2.0000      -0.868556       -23.6346
  29   2.0000      -0.854433       -23.2503
  30   2.0000      -0.849011       -23.1028
  31   2.0000      -0.812418       -22.1070
  32   2.0000      -0.786688       -21.4069
  33   2.0000      -0.771447       -20.9921
  34   2.0000      -0.706859       -19.2346
  35   2.0000      -0.698023       -18.9942
  36   2.0000      -0.689115       -18.7518
  37   2.0000      -0.661183       -17.9917
  38   2.0000      -0.634038       -17.2530
  39   2.0000      -0.611703       -16.6453
  40   2.0000      -0.594312       -16.1721
  41   2.0000      -0.570015       -15.5109
  42   2.0000      -0.568947       -15.4818
  43   2.0000      -0.557179       -15.1616
  44   2.0000      -0.535951       -14.5840
  45   2.0000      -0.528630       -14.3848
  46   2.0000      -0.516638       -14.0584
  47   2.0000      -0.512482       -13.9453
  48   2.0000      -0.505000       -13.7417
  49   2.0000      -0.498205       -13.5569
  50   2.0000      -0.490400       -13.3445
  51   2.0000      -0.480477       -13.0744
  52   2.0000      -0.476678       -12.9711
  53   2.0000      -0.467722       -12.7274
  54   2.0000      -0.453694       -12.3456
  55   2.0000      -0.448517       -12.2048
  56   2.0000      -0.444431       -12.0936
  57   2.0000      -0.437915       -11.9163
  58   2.0000      -0.430907       -11.7256
  59   2.0000      -0.427500       -11.6329
  60   2.0000      -0.422408       -11.4943
  61   2.0000      -0.414754       -11.2860
  62   2.0000      -0.409710       -11.1488
  63   2.0000      -0.352133        -9.5820
  64   2.0000      -0.334961        -9.1148
  65   2.0000      -0.330278        -8.9873
  66   2.0000      -0.281462        -7.6590
  67   0.0000       0.025923         0.7054
  68   0.0000       0.072807         1.9812
  69   0.0000       0.109334         2.9751
  70   0.0000       0.122187         3.3249
  71   0.0000       0.136517         3.7148

MULLIKEN ATOMIC CHARGES
-----------------------
   0 S :    0.113545
   1 C :   -0.132287
   2 C :   -0.082066
   3 C :   -0.015597
   4 C :   -0.145006
   5 H :    0.032914
   6 C :    0.095326
   7 H :    0.037899
   8 H :    0.021484
   9 C :   -0.118366
  10 H :    0.031694
  11 H :    0.030787
  12 C :   -0.025138
  13 H :    0.038611
  14 H :    0.018778
  15 H :    0.031284
  16 S :    0.115202
  17 C :   -0.085863
  18 C :   -0.067809
  19 C :   -0.047133
  20 C :   -0.178980
  21 H :    0.026919
  22 C :    0.182310
  23 H :    0.001135
  24 H :    0.009737
  25 C :   -0.137168
  26 H :    0.055897
  27 H :    0.023104
  28 C :   -0.047899
  29 H :    0.024682
  30 H :    0.055734
  31 H :    0.028970
  32 H :    0.045173
  33 H :    0.062128
Sum of atomic charges:    0.0000000

LOEWDIN ATOMIC CHARGES
----------------------
   0 S :    0.401939
   1 C :   -0.210487
   2 C :   -0.067163
   3 C :   -0.072045
   4 C :   -0.186784
   5 H :    0.040223
   6 C :   -0.029494
   7 H :    0.029138
   8 H :    0.032940
   9 C :   -0.041307
  10 H :    0.025882
  11 H :    0.023949
  12 C :   -0.059924
  13 H :    0.027134
  14 H :    0.021788
  15 H :    0.021344
  16 S :    0.423564
  17 C :   -0.209179
  18 C :   -0.080722
  19 C :   -0.048894
  20 C :   -0.188078
  21 H :    0.036544
  22 C :   -0.016422
  23 H :    0.026446
  24 H :    0.021409
  25 C :   -0.050667
  26 H :    0.031854
  27 H :    0.021503
  28 C :   -0.063695
  29 H :    0.015153
  30 H :    0.037980
  31 H :    0.026147
  32 H :    0.025696
  33 H :    0.034226

  Mayer bond orders larger than 0.100000
B(  0-S ,  1-C ) :   1.1290 B(  0-S ,  4-C ) :   1.1519 B(  1-C ,  2-C ) :   1.6116
B(  1-C , 32-H ) :   0.9687 B(  2-C ,  3-C ) :   1.2525 B(  2-C ,  6-C ) :   1.0067
B(  3-C ,  4-C ) :   1.5527 B(  3-C ,  5-H ) :   0.9810 B(  4-C , 20-C ) :   1.0785
B(  6-C ,  7-H ) :   0.9373 B(  6-C ,  8-H ) :   0.9461 B(  6-C ,  9-C ) :   1.0659
B(  9-C , 10-H ) :   0.9599 B(  9-C , 11-H ) :   0.9578 B(  9-C , 12-C ) :   1.0759
B( 12-C , 13-H ) :   0.9749 B( 12-C , 14-H ) :   0.9717 B( 12-C , 15-H ) :   0.9774
B( 16-S , 17-C ) :   1.1606 B( 16-S , 20-C ) :   1.1515 B( 17-C , 18-C ) :   1.6238
B( 17-C , 33-H ) :   0.9587 B( 18-C , 19-C ) :   1.2536 B( 18-C , 21-H ) :   0.9795
B( 19-C , 20-C ) :   1.5632 B( 19-C , 22-C ) :   1.0321 B( 22-C , 23-H ) :   0.9179
B( 22-C , 24-H ) :   0.9243 B( 22-C , 25-C ) :   1.0534 B( 25-C , 26-H ) :   0.9554
B( 25-C , 27-H ) :   0.9533 B( 25-C , 28-C ) :   1.0783 B( 28-C , 29-H ) :   0.9772
B( 28-C , 30-H ) :   0.9725 B( 28-C , 31-H ) :   0.9749

Dispersion correction           -0.014767558
FINAL SINGLE POINT ENERGY     -1339.877613282625

DIPOLE MOMENT
-------------
                                X             Y             Z
Electronic contribution:    -16.16930     -19.70526       5.20493
Nuclear contribution   :     16.69844      19.95474      -5.35609
                        -----------------------------------------
Total Dipole Moment    :      0.52914       0.24948      -0.15117
                        -----------------------------------------
Magnitude (a.u.)       :      0.60422
Magnitude (Debye)      :      1.53580

Rotational constants in cm-1:     0.018276     0.009112     0.007267
Rotational constants in MHz :   547.914603   273.177353   217.866275

                             ****ORCA TERMINATED NORMALLY****
TOTAL RUN TIME: 0 days 0 hours 0 minutes 22 seconds 127 msec
