                         Program Version 4.2.1 -  RELEASE  -
|  1> ! wB97X-D3 SP def2-SVP
|  2> %pal
|  3> nprocs 24
|  4> end
|  5>
|  6> * xyz 0 1
|  7> S 	 -63.0518 	 20.3321 	 18.8668
|  8> C 	 -63.0646 	 18.98 	 19.8788
|  9> C 	 -61.8002 	 18.6164 	 20.364
| 10> C 	 -60.8255 	 19.6045 	 19.9992
| 11> C 	 -61.2946 	 20.5938 	 19.1854
| 12> H 	 -59.746 	 19.6948 	 20.2438
| 13> C 	 -61.4302 	 17.6159 	 21.4519
| 14> H 	 -60.3672 	 17.4482 	 21.3187
| 15> H 	 -61.939 	 16.654 	 21.2101
| 16> C 	 -61.6225 	 17.981 	 22.9269
| 17> H 	 -61.2823 	 18.9993 	 23.1128
| 18> H 	 -62.7132 	 18.0925 	 23.0898
| 19> C 	 -60.9263 	 16.9355 	 23.8317
| 20> H 	 -61.3435 	 16.999 	 24.8304
| 21> H 	 -61.1014 	 16.0179 	 23.4248
| 22> H 	 -59.8548 	 17.1316 	 23.7899
| 23> S 	 -61.0191 	 23.2696 	 19.5924
| 24> C 	 -59.5558 	 24.0913 	 19.0901
| 25> C 	 -58.6975 	 23.2935 	 18.3924
| 26> C 	 -59.1414 	 21.9385 	 18.3736
| 27> C 	 -60.5041 	 21.7785 	 18.7712
| 28> H 	 -57.6966 	 23.7124 	 18.1474
| 29> C 	 -58.1638 	 20.8055 	 18.0397
| 30> H 	 -57.7164 	 20.9198 	 17.0287
| 31> H 	 -58.7989 	 19.8963 	 17.981
| 32> C 	 -57.0419 	 20.5758 	 19.0527
| 33> H 	 -57.2994 	 21.1758 	 19.9634
| 34> H 	 -56.0601 	 21.0845 	 18.6945
| 35> C 	 -56.8086 	 19.1576 	 19.5796
| 36> H 	 -56.3438 	 18.6909 	 18.7391
| 37> H 	 -57.7993 	 18.6165 	 19.7342
| 38> H 	 -56.2007 	 19.124 	 20.437
| 39> H 	 -63.9616 	 18.4023 	 20.0348
| 40> H 	 -59.343 	 25.06 	 19.3976
| 41> *
| 42>
| 43>                          ****END OF INPUT****

CARTESIAN COORDINATES (ANGSTROEM)
---------------------------------
  S    -63.051800   20.332100   18.866800
  C    -63.064600   18.980000   19.878800
  C    -61.800200   18.616400   20.364000
  C    -60.825500   19.604500   19.999200
  C    -61.294600   20.593800   19.185400
  H    -59.746000   19.694800   20.243800
  C    -61.430200   17.615900   21.451900
  H    -60.367200   17.448200   21.318700
  H    -61.939000   16.654000   21.210100
  C    -61.622500   17.981000   22.926900
  H    -61.282300   18.999300   23.112800
  H    -62.713200   18.092500   23.089800
  C    -60.926300   16.935500   23.831700
  H    -61.343500   16.999000   24.830400
  H    -61.101400   16.017900   23.424800
  H    -59.854800   17.131600   23.789900
  S    -61.019100   23.269600   19.592400
  C    -59.555800   24.091300   19.090100
  C    -58.697500   23.293500   18.392400
  C    -59.141400   21.938500   18.373600
  C    -60.504100   21.778500   18.771200
  H    -57.696600   23.712400   18.147400
  C    -58.163800   20.805500   18.039700
  H    -57.716400   20.919800   17.028700
  H    -58.798900   19.896300   17.981000
  C    -57.041900   20.575800   19.052700
  H    -57.299400   21.175800   19.963400
  H    -56.060100   21.084500   18.694500
  C    -56.808600   19.157600   19.579600
  H    -56.343800   18.690900   18.739100
  H    -57.799300   18.616500   19.734200
  H    -56.200700   19.124000   20.437000
  H    -63.961600   18.402300   20.034800
  H    -59.343000   25.060000   19.397600

 Total Charge           Charge          ....    0
 Multiplicity           Mult            ....    1
 Number of Electrons    NEL             ....  134
 Basis Dimension        Dim             ....  322

ORBITAL ENERGIES
----------------

  NO   OCC          E(Eh)            E(eV)
   0   2.0000     -88.967499     -2420.9287
   1   2.0000     -88.963549     -2420.8213
   2   2.0000     -10.332748      -281.1684
   3   2.0000     -10.329684      -281.0850
   4   2.0000     -10.314487      -280.6715
   5   2.0000     -10.314135      -280.6619
   6   2.0000     -10.314013      -280.6586
   7   2.0000     -10.302569      -280.3472
   8   2.0000     -10.296601      -280.1847
   9   2.0000     -10.296293      -280.1764
  10   2.0000     -10.295932      -280.1665
  11   2.0000     -10.294090      -280.1164
  12   2.0000     -10.292207      -280.0652
  13   2.0000     -10.286233      -279.9026
  14   2.0000     -10.281651      -279.7780
  15   2.0000     -10.273989      -279.5695
  16   2.0000      -8.082464      -219.9350
  17   2.0000      -8.078116      -219.8167
  18   2.0000      -6.040882      -164.3807
  19   2.0000      -6.036897      -164.2723
  20   2.0000      -6.036639      -164.2653
  21   2.0000      -6.033346      -164.1757
  22   2.0000      -6.032665      -164.1571
  23   2.0000      -6.028832      -164.0529
  24   2.0000      -1.003322       -27.3018
  25   2.0000      -0.983606       -26.7653
  26   2.0000      -0.909502       -24.7488
  27   2.0000      -0.907358       -24.6905
  28   2.0000      -0.872048       -23.7296
  29   2.0000      -0.853010       -23.2116
  30   2.0000      -0.848460       -23.0878
  31   2.0000      -0.815092       -22.1798
  32   2.0000      -0.781145       -21.2560
  33   2.0000      -0.769302       -20.9338
  34   2.0000      -0.703728       -19.1494
  35   2.0000      -0.699182       -19.0257
  36   2.0000      -0.691464       -18.8157
  37   2.0000      -0.656749       -17.8710
  38   2.0000      -0.645099       -17.5540
  39   2.0000      -0.616203       -16.7677
  40   2.0000      -0.597625       -16.2622
  41   2.0000      -0.568362       -15.4659
  42   2.0000      -0.563363       -15.3299
  43   2.0000      -0.556365       -15.1395
  44   2.0000      -0.535357       -14.5678
  45   2.0000      -0.527197       -14.3457
  46   2.0000      -0.517092       -14.0708
  47   2.0000      -0.511588       -13.9210
  48   2.0000      -0.504201       -13.7200
  49   2.0000      -0.498873       -13.5750
  50   2.0000      -0.487678       -13.2704
  51   2.0000      -0.482935       -13.1413
  52   2.0000      -0.470219       -12.7953
  53   2.0000      -0.467865       -12.7313
  54   2.0000      -0.459141       -12.4938
  55   2.0000      -0.449357       -12.2276
  56   2.0000      -0.443519       -12.0688
  57   2.0000      -0.442220       -12.0334
  58   2.0000      -0.434104       -11.8126
  59   2.0000      -0.424108       -11.5406
  60   2.0000      -0.420201       -11.4343
  61   2.0000      -0.414805       -11.2874
  62   2.0000      -0.404263       -11.0005
  63   2.0000      -0.351968        -9.5775
  64   2.0000      -0.329953        -8.9785
  65   2.0000      -0.324136        -8.8202
  66   2.0000      -0.293791        -7.9944
  67   0.0000       0.032070         0.8727
  68   0.0000       0.062503         1.7008
  69   0.0000       0.108777         2.9600
  70   0.0000       0.115904         3.1539
  71   0.0000       0.125192         3.4067

MULLIKEN ATOMIC CHARGES
-----------------------
   0 S :    0.121616
   1 C :   -0.120990
   2 C :   -0.062621
   3 C :    0.012637
   4 C :   -0.170840
   5 H :    0.018045
   6 C :    0.027195
   7 H :    0.011299
   8 H :    0.030986
   9 C :   -0.067637
  10 H :    0.023221
  11 H :    0.022529
  12 C :    0.002687
  13 H :    0.039880
  14 H :    0.009289
  15 H :    0.037230
  16 S :    0.091476
  17 C :   -0.072385
  18 C :   -0.015098
  19 C :   -0.087102
  20 C :   -0.121245
  21 H :    0.036645
  22 C :    0.058903
  23 H :    0.043814
  24 H :    0.028596
  25 C :   -0.142285
  26 H :    0.039646
  27 H :    0.041817
  28 C :   -0.032883
  29 H :    0.030141
  30 H :    0.040984
  31 H :    0.038265
  32 H :    0.051311
  33 H :    0.034877
Sum of atomic charges:    0.0000000

LOEWDIN ATOMIC CHARGES
----------------------
   0 S :    0.410472
   1 C :   -0.206656
   2 C :   -0.070605
   3 C :   -0.062216
   4 C :   -0.193821
   5 H :    0.038236
   6 C :   -0.038010
   7 H :    0.025193
   8 H :    0.031246
   9 C :   -0.040126
  10 H :    0.022238
  11 H :    0.022675
  12 C :   -0.049456
  13 H :    0.030655
  14 H :    0.011211
  15 H :    0.030054
  16 S :    0.397808
  17 C :   -0.162545
  18 C :   -0.078657
  19 C :   -0.045724
  20 C :   -0.198094
  21 H :    0.042243
  22 C :   -0.041877
  23 H :    0.036897
  24 H :    0.032179
  25 C :   -0.057966
  26 H :    0.024202
  27 H :    0.031989
  28 C :   -0.061000
  29 H :    0.023976
  30 H :    0.031626
  31 H :    0.022168
  32 H :    0.027333
  33 H :    0.014352

  Mayer bond orders larger than 0.100000
B(  0-S ,  1-C ) :   1.1685 B(  0-S ,  4-C ) :   1.1303 B(  1-C ,  2-C ) :   1.5850
B(  1-C , 32-H ) :   0.9697 B(  2-C ,  3-C ) :   1.2266 B(  2-C ,  6-C ) :   1.0387
B(  3-C ,  4-C ) :   1.6081 B(  3-C ,  5-H ) :   0.9802 B(  4-C , 20-C ) :   1.0106
B(  6-C ,  7-H ) :   0.9423 B(  6-C ,  8-H ) :   0.9329 B(  6-C ,  9-C ) :   1.0626
B(  9-C , 10-H ) :   0.9568 B(  9-C , 11-H ) :   0.9544 B(  9-C , 12-C ) :   1.0641
B( 12-C , 13-H ) :   0.9735 B( 12-C , 14-H ) :   0.9765 B( 12-C , 15-H ) :   0.9758
B( 16-S , 17-C ) :   1.1722 B( 16-S , 20-C ) :   1.1360 B( 17-C , 18-C ) :   1.6124
B( 17-C , 33-H ) :   0.9721 B( 18-C , 19-C ) :   1.2317 B( 18-C , 21-H ) :   0.9860
B( 19-C , 20-C ) :   1.5906 B( 19-C , 22-C ) :   1.0589 B( 22-C , 23-H ) :   0.9371
B( 22-C , 24-H ) :   0.9430 B( 22-C , 25-C ) :   1.0256 B( 25-C , 26-H ) :   0.9667
B( 25-C , 27-H ) :   0.9520 B( 25-C , 28-C ) :   1.0773 B( 28-C , 29-H ) :   0.9753
B( 28-C , 30-H ) :   0.9700 B( 28-C , 31-H ) :   0.9747

Dispersion correction           -0.014692157
FINAL SINGLE POINT ENERGY     -1339.862837565351

DIPOLE MOMENT
-------------
                                X             Y             Z
Electronic contribution:    -18.04782      19.87038     -13.52832
Nuclear contribution   :     18.67792     -20.14194      13.95199
                        -----------------------------------------
Total Dipole Moment    :      0.63010      -0.27156       0.42367
                        -----------------------------------------
Magnitude (a.u.)       :      0.80639
Magnitude (Debye)      :      2.04969

Rotational constants in cm-1:     0.016630     0.009264     0.007115
Rotational constants in MHz :   498.558596   277.722691   213.315883

                             ****ORCA TERMINATED NORMALLY****
TOTAL RUN TIME: 0 days 0 hours 0 minutes 22 seconds 204 msec
