                         Program Version 4.2.1 -  RELEASE  -
|  1> ! wB97X-D3 SP def2-SVP
|  2> %pal
|  3> nprocs 24
|  4> end
|  5>
|  6> * xyz 0 1
|  7> S 	 -108.758 	 63.8766 	 -14.8523
|  8> C 	 -109.872 	 64.3383 	 -13.5037
|  9> C 	 -110.006 	 63.2702 	 -12.6002
| 10> C 	 -109.337 	 62.1392 	 -13.015
| 11> C 	 -108.648 	 62.2376 	 -14.2212
| 12> H 	 -109.357 	 61.1927 	 -12.5225
| 13> C 	 -110.862 	 63.2935 	 -11.3667
| 14> H 	 -110.746 	 64.2197 	 -10.8246
| 15> H 	 -110.521 	 62.4907 	 -10.6918
| 16> C 	 -112.374 	 63.094 	 -11.5913
| 17> H 	 -112.981 	 63.2755 	 -10.6575
| 18> H 	 -112.773 	 63.7526 	 -12.3936
| 19> C 	 -112.639 	 61.6377 	 -12.0472
| 20> H 	 -113.387 	 61.6428 	 -12.8545
| 21> H 	 -111.721 	 61.2641 	 -12.433
| 22> H 	 -112.892 	 61.0136 	 -11.2592
| 23> S 	 -106.101 	 61.5715 	 -15.2515
| 24> C 	 -105.821 	 59.9704 	 -15.7956
| 25> C 	 -106.885 	 59.1513 	 -15.5283
| 26> C 	 -107.935 	 59.8153 	 -14.8461
| 27> C 	 -107.696 	 61.1742 	 -14.703
| 28> H 	 -106.859 	 58.1207 	 -15.8309
| 29> C 	 -109.228 	 59.1101 	 -14.5336
| 30> H 	 -109.992 	 59.8441 	 -14.5913
| 31> H 	 -109.142 	 58.8399 	 -13.4744
| 32> C 	 -109.583 	 57.8769 	 -15.2831
| 33> H 	 -110.55 	 57.6007 	 -14.9438
| 34> H 	 -108.848 	 57.1028 	 -15.0771
| 35> C 	 -109.67 	 58.1545 	 -16.8563
| 36> H 	 -108.793 	 58.1958 	 -17.5018
| 37> H 	 -110.146 	 59.1292 	 -17.0501
| 38> H 	 -110.364 	 57.4716 	 -17.3387
| 39> H 	 -110.363 	 65.3226 	 -13.2594
| 40> H 	 -104.858 	 59.605 	 -16.1982
| 41> *
| 42>
| 43>                          ****END OF INPUT****

CARTESIAN COORDINATES (ANGSTROEM)
---------------------------------
  S    -108.758000   63.876600  -14.852300
  C    -109.872000   64.338300  -13.503700
  C    -110.006000   63.270200  -12.600200
  C    -109.337000   62.139200  -13.015000
  C    -108.648000   62.237600  -14.221200
  H    -109.357000   61.192700  -12.522500
  C    -110.862000   63.293500  -11.366700
  H    -110.746000   64.219700  -10.824600
  H    -110.521000   62.490700  -10.691800
  C    -112.374000   63.094000  -11.591300
  H    -112.981000   63.275500  -10.657500
  H    -112.773000   63.752600  -12.393600
  C    -112.639000   61.637700  -12.047200
  H    -113.387000   61.642800  -12.854500
  H    -111.721000   61.264100  -12.433000
  H    -112.892000   61.013600  -11.259200
  S    -106.101000   61.571500  -15.251500
  C    -105.821000   59.970400  -15.795600
  C    -106.885000   59.151300  -15.528300
  C    -107.935000   59.815300  -14.846100
  C    -107.696000   61.174200  -14.703000
  H    -106.859000   58.120700  -15.830900
  C    -109.228000   59.110100  -14.533600
  H    -109.992000   59.844100  -14.591300
  H    -109.142000   58.839900  -13.474400
  C    -109.583000   57.876900  -15.283100
  H    -110.550000   57.600700  -14.943800
  H    -108.848000   57.102800  -15.077100
  C    -109.670000   58.154500  -16.856300
  H    -108.793000   58.195800  -17.501800
  H    -110.146000   59.129200  -17.050100
  H    -110.364000   57.471600  -17.338700
  H    -110.363000   65.322600  -13.259400
  H    -104.858000   59.605000  -16.198200

 Total Charge           Charge          ....    0
 Multiplicity           Mult            ....    1
 Number of Electrons    NEL             ....  134
 Basis Dimension        Dim             ....  322

ORBITAL ENERGIES
----------------

  NO   OCC          E(Eh)            E(eV)
   0   2.0000     -88.975613     -2421.1495
   1   2.0000     -88.965458     -2420.8732
   2   2.0000     -10.335429      -281.2413
   3   2.0000     -10.327268      -281.0193
   4   2.0000     -10.325153      -280.9617
   5   2.0000     -10.313967      -280.6573
   6   2.0000     -10.299640      -280.2675
   7   2.0000     -10.298344      -280.2322
   8   2.0000     -10.292629      -280.0767
   9   2.0000     -10.291730      -280.0522
  10   2.0000     -10.289839      -280.0007
  11   2.0000     -10.288895      -279.9751
  12   2.0000     -10.288346      -279.9601
  13   2.0000     -10.283726      -279.8344
  14   2.0000     -10.277900      -279.6759
  15   2.0000     -10.267119      -279.3825
  16   2.0000      -8.088480      -220.0987
  17   2.0000      -8.081016      -219.8956
  18   2.0000      -6.047105      -164.5501
  19   2.0000      -6.043193      -164.4436
  20   2.0000      -6.039407      -164.3406
  21   2.0000      -6.039271      -164.3369
  22   2.0000      -6.035339      -164.2299
  23   2.0000      -6.031939      -164.1374
  24   2.0000      -1.008281       -27.4367
  25   2.0000      -0.986620       -26.8473
  26   2.0000      -0.916177       -24.9304
  27   2.0000      -0.912870       -24.8404
  28   2.0000      -0.863840       -23.5063
  29   2.0000      -0.850152       -23.1338
  30   2.0000      -0.842062       -22.9137
  31   2.0000      -0.813674       -22.1412
  32   2.0000      -0.786595       -21.4043
  33   2.0000      -0.774478       -21.0746
  34   2.0000      -0.710079       -19.3222
  35   2.0000      -0.703547       -19.1445
  36   2.0000      -0.692610       -18.8469
  37   2.0000      -0.655990       -17.8504
  38   2.0000      -0.634829       -17.2746
  39   2.0000      -0.619741       -16.8640
  40   2.0000      -0.599515       -16.3136
  41   2.0000      -0.576513       -15.6877
  42   2.0000      -0.558918       -15.2089
  43   2.0000      -0.550661       -14.9843
  44   2.0000      -0.544630       -14.8201
  45   2.0000      -0.533765       -14.5245
  46   2.0000      -0.519852       -14.1459
  47   2.0000      -0.510961       -13.9040
  48   2.0000      -0.497765       -13.5449
  49   2.0000      -0.493766       -13.4360
  50   2.0000      -0.490848       -13.3567
  51   2.0000      -0.475986       -12.9522
  52   2.0000      -0.469717       -12.7817
  53   2.0000      -0.467457       -12.7202
  54   2.0000      -0.461804       -12.5663
  55   2.0000      -0.448998       -12.2179
  56   2.0000      -0.442616       -12.0442
  57   2.0000      -0.435899       -11.8614
  58   2.0000      -0.429266       -11.6809
  59   2.0000      -0.428462       -11.6590
  60   2.0000      -0.422755       -11.5038
  61   2.0000      -0.420761       -11.4495
  62   2.0000      -0.418575       -11.3900
  63   2.0000      -0.347819        -9.4646
  64   2.0000      -0.338130        -9.2010
  65   2.0000      -0.331025        -9.0077
  66   2.0000      -0.287339        -7.8189
  67   0.0000       0.024590         0.6691
  68   0.0000       0.073171         1.9911
  69   0.0000       0.107989         2.9385
  70   0.0000       0.129849         3.5334
  71   0.0000       0.131797         3.5864

MULLIKEN ATOMIC CHARGES
-----------------------
   0 S :    0.118615
   1 C :   -0.140475
   2 C :   -0.067702
   3 C :    0.015382
   4 C :   -0.142757
   5 H :    0.005887
   6 C :    0.053414
   7 H :    0.024658
   8 H :    0.027887
   9 C :   -0.094541
  10 H :    0.041460
  11 H :    0.034783
  12 C :   -0.014128
  13 H :    0.034599
  14 H :    0.001519
  15 H :    0.019973
  16 S :    0.116998
  17 C :   -0.103649
  18 C :   -0.035963
  19 C :   -0.059707
  20 C :   -0.158778
  21 H :    0.012733
  22 C :    0.061184
  23 H :    0.026780
  24 H :    0.038375
  25 C :   -0.016982
  26 H :    0.023988
  27 H :    0.034030
  28 C :   -0.080559
  29 H :    0.040946
  30 H :    0.025838
  31 H :    0.026484
  32 H :    0.066065
  33 H :    0.063643
Sum of atomic charges:   -0.0000000

LOEWDIN ATOMIC CHARGES
----------------------
   0 S :    0.395385
   1 C :   -0.193860
   2 C :   -0.066385
   3 C :   -0.066124
   4 C :   -0.187132
   5 H :    0.026098
   6 C :   -0.033820
   7 H :    0.029018
   8 H :    0.032797
   9 C :   -0.040821
  10 H :    0.028561
  11 H :    0.025239
  12 C :   -0.059534
  13 H :    0.030354
  14 H :    0.017935
  15 H :    0.015195
  16 S :    0.425625
  17 C :   -0.201004
  18 C :   -0.073228
  19 C :   -0.057242
  20 C :   -0.206397
  21 H :    0.030015
  22 C :   -0.036250
  23 H :    0.025076
  24 H :    0.035784
  25 C :   -0.028108
  26 H :    0.027625
  27 H :    0.023648
  28 C :   -0.076483
  29 H :    0.025988
  30 H :    0.029195
  31 H :    0.023491
  32 H :    0.043253
  33 H :    0.036103

  Mayer bond orders larger than 0.100000
B(  0-S ,  1-C ) :   1.1368 B(  0-S ,  4-C ) :   1.1567 B(  1-C ,  2-C ) :   1.5748
B(  1-C ,  4-C ) :   0.1095 B(  1-C , 32-H ) :   0.9586 B(  2-C ,  3-C ) :   1.2890
B(  2-C ,  6-C ) :   1.0285 B(  3-C ,  4-C ) :   1.5298 B(  3-C ,  5-H ) :   0.9868
B(  4-C , 20-C ) :   1.0347 B(  6-C ,  7-H ) :   0.9337 B(  6-C ,  8-H ) :   0.9469
B(  6-C ,  9-C ) :   1.0711 B(  9-C , 10-H ) :   0.9606 B(  9-C , 11-H ) :   0.9636
B(  9-C , 12-C ) :   1.0575 B( 12-C , 13-H ) :   0.9760 B( 12-C , 14-H ) :   0.9812
B( 12-C , 15-H ) :   0.9730 B( 16-S , 17-C ) :   1.1685 B( 16-S , 20-C ) :   1.1482
B( 17-C , 18-C ) :   1.5879 B( 17-C , 33-H ) :   0.9608 B( 18-C , 19-C ) :   1.2744
B( 18-C , 21-H ) :   0.9907 B( 19-C , 20-C ) :   1.5796 B( 19-C , 22-C ) :   1.0266
B( 22-C , 23-H ) :   0.9295 B( 22-C , 24-H ) :   0.9137 B( 22-C , 25-C ) :   1.1065
B( 25-C , 26-H ) :   0.9455 B( 25-C , 27-H ) :   0.9472 B( 25-C , 28-C ) :   1.0636
B( 28-C , 29-H ) :   0.9767 B( 28-C , 30-H ) :   0.9757 B( 28-C , 31-H ) :   0.9781

Dispersion correction           -0.014951062
FINAL SINGLE POINT ENERGY     -1339.877922185644

DIPOLE MOMENT
-------------
                                X             Y             Z
Electronic contribution:     22.18262      15.00076      -6.88535
Nuclear contribution   :    -22.58548     -15.43896       7.20223
                        -----------------------------------------
Total Dipole Moment    :     -0.40286      -0.43820       0.31688
                        -----------------------------------------
Magnitude (a.u.)       :      0.67433
Magnitude (Debye)      :      1.71402

Rotational constants in cm-1:     0.019054     0.009291     0.006960
Rotational constants in MHz :   571.236160   278.523917   208.664743

                             ****ORCA TERMINATED NORMALLY****
TOTAL RUN TIME: 0 days 0 hours 0 minutes 22 seconds 367 msec
