                         Program Version 4.2.1 -  RELEASE  -
|  1> ! wB97X-D3 SP def2-SVP
|  2> %pal
|  3> nprocs 24
|  4> end
|  5>
|  6> * xyz 0 1
|  7> S 	 -62.4086 	 12.5504 	 -87.1437
|  8> C 	 -61.4048 	 12.3604 	 -88.586
|  9> C 	 -60.2121 	 11.7644 	 -88.3761
| 10> C 	 -60.0772 	 11.4975 	 -87.0219
| 11> C 	 -61.2146 	 11.7087 	 -86.2761
| 12> H 	 -59.2911 	 10.8792 	 -86.6183
| 13> C 	 -59.06 	 11.6319 	 -89.332
| 14> H 	 -59.0872 	 12.4381 	 -90.0381
| 15> H 	 -59.3034 	 10.6926 	 -89.8516
| 16> C 	 -57.7002 	 11.5905 	 -88.7842
| 17> H 	 -57.7092 	 10.7464 	 -88.071
| 18> H 	 -56.95 	 11.2432 	 -89.5686
| 19> C 	 -57.1922 	 12.811 	 -88.0599
| 20> H 	 -56.8552 	 13.6377 	 -88.7237
| 21> H 	 -57.9789 	 13.1947 	 -87.4644
| 22> H 	 -56.3538 	 12.4973 	 -87.3923
| 23> S 	 -61.4681 	 12.6501 	 -83.7137
| 24> C 	 -61.6101 	 11.654 	 -82.3592
| 25> C 	 -61.2029 	 10.4292 	 -82.7482
| 26> C 	 -61.0058 	 10.2269 	 -84.1935
| 27> C 	 -61.349 	 11.4086 	 -84.8528
| 28> H 	 -61.0598 	 9.70852 	 -82.0066
| 29> C 	 -60.7887 	 8.8702 	 -84.7312
| 30> H 	 -60.29 	 8.34049 	 -83.8935
| 31> H 	 -60.0682 	 9.04397 	 -85.509
| 32> C 	 -62.0261 	 8.16403 	 -85.3762
| 33> H 	 -61.7527 	 7.21989 	 -85.8624
| 34> H 	 -62.3142 	 8.9061 	 -86.1556
| 35> C 	 -63.201 	 7.91849 	 -84.4499
| 36> H 	 -63.4762 	 8.94788 	 -84.2241
| 37> H 	 -62.9009 	 7.40654 	 -83.5123
| 38> H 	 -64.029 	 7.37811 	 -84.9255
| 39> H 	 -61.77 	 12.7451 	 -89.5584
| 40> H 	 -61.7033 	 11.9291 	 -81.3109
| 41> *
| 42>
| 43>                          ****END OF INPUT****

CARTESIAN COORDINATES (ANGSTROEM)
---------------------------------
  S    -62.408600   12.550400  -87.143700
  C    -61.404800   12.360400  -88.586000
  C    -60.212100   11.764400  -88.376100
  C    -60.077200   11.497500  -87.021900
  C    -61.214600   11.708700  -86.276100
  H    -59.291100   10.879200  -86.618300
  C    -59.060000   11.631900  -89.332000
  H    -59.087200   12.438100  -90.038100
  H    -59.303400   10.692600  -89.851600
  C    -57.700200   11.590500  -88.784200
  H    -57.709200   10.746400  -88.071000
  H    -56.950000   11.243200  -89.568600
  C    -57.192200   12.811000  -88.059900
  H    -56.855200   13.637700  -88.723700
  H    -57.978900   13.194700  -87.464400
  H    -56.353800   12.497300  -87.392300
  S    -61.468100   12.650100  -83.713700
  C    -61.610100   11.654000  -82.359200
  C    -61.202900   10.429200  -82.748200
  C    -61.005800   10.226900  -84.193500
  C    -61.349000   11.408600  -84.852800
  H    -61.059800    9.708520  -82.006600
  C    -60.788700    8.870200  -84.731200
  H    -60.290000    8.340490  -83.893500
  H    -60.068200    9.043970  -85.509000
  C    -62.026100    8.164030  -85.376200
  H    -61.752700    7.219890  -85.862400
  H    -62.314200    8.906100  -86.155600
  C    -63.201000    7.918490  -84.449900
  H    -63.476200    8.947880  -84.224100
  H    -62.900900    7.406540  -83.512300
  H    -64.029000    7.378110  -84.925500
  H    -61.770000   12.745100  -89.558400
  H    -61.703300   11.929100  -81.310900

 Total Charge           Charge          ....    0
 Multiplicity           Mult            ....    1
 Number of Electrons    NEL             ....  134
 Basis Dimension        Dim             ....  322

ORBITAL ENERGIES
----------------

  NO   OCC          E(Eh)            E(eV)
   0   2.0000     -88.969610     -2420.9862
   1   2.0000     -88.958118     -2420.6734
   2   2.0000     -10.324620      -280.9472
   3   2.0000     -10.320407      -280.8326
   4   2.0000     -10.313126      -280.6344
   5   2.0000     -10.307335      -280.4769
   6   2.0000     -10.299483      -280.2632
   7   2.0000     -10.294764      -280.1348
   8   2.0000     -10.289050      -279.9793
   9   2.0000     -10.288862      -279.9742
  10   2.0000     -10.288561      -279.9660
  11   2.0000     -10.287039      -279.9246
  12   2.0000     -10.286914      -279.9212
  13   2.0000     -10.283907      -279.8393
  14   2.0000     -10.276723      -279.6438
  15   2.0000     -10.272668      -279.5335
  16   2.0000      -8.085101      -220.0068
  17   2.0000      -8.075378      -219.7422
  18   2.0000      -6.043327      -164.4473
  19   2.0000      -6.039625      -164.3466
  20   2.0000      -6.035992      -164.2477
  21   2.0000      -6.033799      -164.1880
  22   2.0000      -6.029452      -164.0697
  23   2.0000      -6.026134      -163.9794
  24   2.0000      -1.020951       -27.7815
  25   2.0000      -0.999557       -27.1993
  26   2.0000      -0.927637       -25.2423
  27   2.0000      -0.910935       -24.7878
  28   2.0000      -0.875993       -23.8370
  29   2.0000      -0.853918       -23.2363
  30   2.0000      -0.844814       -22.9885
  31   2.0000      -0.818767       -22.2798
  32   2.0000      -0.791673       -21.5425
  33   2.0000      -0.774489       -21.0749
  34   2.0000      -0.711072       -19.3493
  35   2.0000      -0.694206       -18.8903
  36   2.0000      -0.685033       -18.6407
  37   2.0000      -0.660939       -17.9851
  38   2.0000      -0.638375       -17.3711
  39   2.0000      -0.633351       -17.2344
  40   2.0000      -0.585623       -15.9356
  41   2.0000      -0.575085       -15.6488
  42   2.0000      -0.563594       -15.3362
  43   2.0000      -0.556852       -15.1527
  44   2.0000      -0.547096       -14.8872
  45   2.0000      -0.541225       -14.7275
  46   2.0000      -0.521505       -14.1909
  47   2.0000      -0.514970       -14.0131
  48   2.0000      -0.499795       -13.6001
  49   2.0000      -0.495325       -13.4785
  50   2.0000      -0.488896       -13.3035
  51   2.0000      -0.487104       -13.2548
  52   2.0000      -0.471626       -12.8336
  53   2.0000      -0.469420       -12.7736
  54   2.0000      -0.463543       -12.6137
  55   2.0000      -0.452234       -12.3059
  56   2.0000      -0.445366       -12.1190
  57   2.0000      -0.441364       -12.0101
  58   2.0000      -0.427444       -11.6313
  59   2.0000      -0.425550       -11.5798
  60   2.0000      -0.416696       -11.3389
  61   2.0000      -0.408915       -11.1271
  62   2.0000      -0.406085       -11.0501
  63   2.0000      -0.344670        -9.3789
  64   2.0000      -0.339250        -9.2315
  65   2.0000      -0.319281        -8.6881
  66   2.0000      -0.298466        -8.1217
  67   0.0000       0.032142         0.8746
  68   0.0000       0.074233         2.0200
  69   0.0000       0.115530         3.1437
  70   0.0000       0.116228         3.1627
  71   0.0000       0.130961         3.5636

MULLIKEN ATOMIC CHARGES
-----------------------
   0 S :    0.129621
   1 C :   -0.161482
   2 C :   -0.079910
   3 C :    0.021203
   4 C :   -0.192308
   5 H :    0.012643
   6 C :    0.126251
   7 H :    0.017121
   8 H :    0.042092
   9 C :   -0.114312
  10 H :    0.015497
  11 H :    0.039231
  12 C :   -0.038403
  13 H :    0.038111
  14 H :    0.032950
  15 H :    0.042666
  16 S :    0.111119
  17 C :   -0.073341
  18 C :   -0.039904
  19 C :   -0.087263
  20 C :   -0.130956
  21 H :   -0.010123
  22 C :    0.099578
  23 H :    0.025573
  24 H :    0.006433
  25 C :   -0.072423
  26 H :    0.030486
  27 H :    0.039130
  28 C :   -0.052738
  29 H :    0.039974
  30 H :    0.031628
  31 H :    0.043467
  32 H :    0.048838
  33 H :    0.059551
Sum of atomic charges:    0.0000000

LOEWDIN ATOMIC CHARGES
----------------------
   0 S :    0.427864
   1 C :   -0.189787
   2 C :   -0.068006
   3 C :   -0.066235
   4 C :   -0.211223
   5 H :    0.027328
   6 C :   -0.030769
   7 H :    0.027139
   8 H :    0.043872
   9 C :   -0.054147
  10 H :    0.021060
  11 H :    0.035141
  12 C :   -0.065520
  13 H :    0.029250
  14 H :    0.021795
  15 H :    0.035653
  16 S :    0.449207
  17 C :   -0.209718
  18 C :   -0.070307
  19 C :   -0.063012
  20 C :   -0.223471
  21 H :    0.015938
  22 C :   -0.036532
  23 H :    0.033030
  24 H :    0.027230
  25 C :   -0.036453
  26 H :    0.020500
  27 H :    0.031149
  28 C :   -0.070075
  29 H :    0.029302
  30 H :    0.025083
  31 H :    0.028736
  32 H :    0.027599
  33 H :    0.038380

  Mayer bond orders larger than 0.100000
B(  0-S ,  1-C ) :   1.1426 B(  0-S ,  4-C ) :   1.1751 B(  1-C ,  2-C ) :   1.6202
B(  1-C , 32-H ) :   0.9639 B(  2-C ,  3-C ) :   1.2739 B(  2-C ,  6-C ) :   0.9890
B(  3-C ,  4-C ) :   1.5697 B(  3-C ,  5-H ) :   0.9772 B(  4-C , 20-C ) :   1.0097
B(  6-C ,  7-H ) :   0.9429 B(  6-C ,  8-H ) :   0.9134 B(  6-C ,  9-C ) :   1.1099
B(  9-C , 10-H ) :   0.9405 B(  9-C , 11-H ) :   0.9450 B(  9-C , 12-C ) :   1.0800
B( 12-C , 13-H ) :   0.9715 B( 12-C , 14-H ) :   0.9733 B( 12-C , 15-H ) :   0.9728
B( 16-S , 17-C ) :   1.1553 B( 16-S , 20-C ) :   1.1899 B( 17-C , 18-C ) :   1.6039
B( 17-C , 33-H ) :   0.9690 B( 18-C , 19-C ) :   1.2384 B( 18-C , 21-H ) :   0.9969
B( 19-C , 20-C ) :   1.5362 B( 19-C , 22-C ) :   1.0594 B( 22-C , 23-H ) :   0.9303
B( 22-C , 24-H ) :   0.9151 B( 22-C , 25-C ) :   1.0657 B( 25-C , 26-H ) :   0.9569
B( 25-C , 27-H ) :   0.9555 B( 25-C , 28-C ) :   1.0734 B( 28-C , 29-H ) :   0.9744
B( 28-C , 30-H ) :   0.9751 B( 28-C , 31-H ) :   0.9729

Dispersion correction           -0.015360974
FINAL SINGLE POINT ENERGY     -1339.866958342697

DIPOLE MOMENT
-------------
                                X             Y             Z
Electronic contribution:    -12.01356      14.64081       7.21092
Nuclear contribution   :     12.44030     -15.01695      -7.38887
                        -----------------------------------------
Total Dipole Moment    :      0.42674      -0.37614      -0.17795
                        -----------------------------------------
Magnitude (a.u.)       :      0.59604
Magnitude (Debye)      :      1.51500

Rotational constants in cm-1:     0.019481     0.008879     0.008346
Rotational constants in MHz :   584.017272   266.180192   250.220928

                             ****ORCA TERMINATED NORMALLY****
TOTAL RUN TIME: 0 days 0 hours 0 minutes 23 seconds 56 msec
