                         Program Version 4.2.1 -  RELEASE  -
|  1> ! wB97X-D3 SP def2-SVP
|  2> %pal
|  3> nprocs 24
|  4> end
|  5>
|  6> * xyz 0 1
|  7> S 	 -145.748 	 27.3646 	 -16.7265
|  8> C 	 -145.823 	 26.0789 	 -17.8582
|  9> C 	 -144.569 	 25.7521 	 -18.4089
| 10> C 	 -143.551 	 26.6229 	 -17.9129
| 11> C 	 -144.036 	 27.572 	 -17.0235
| 12> H 	 -142.515 	 26.6174 	 -18.1164
| 13> C 	 -144.156 	 24.7433 	 -19.4559
| 14> H 	 -144.423 	 23.7767 	 -18.993
| 15> H 	 -143.051 	 24.6821 	 -19.5905
| 16> C 	 -145.077 	 24.875 	 -20.7114
| 17> H 	 -146.098 	 24.7552 	 -20.3177
| 18> H 	 -144.985 	 25.9129 	 -20.9549
| 19> C 	 -144.811 	 23.8349 	 -21.8577
| 20> H 	 -144.569 	 22.8141 	 -21.3901
| 21> H 	 -145.676 	 23.7003 	 -22.5733
| 22> H 	 -143.873 	 24.0642 	 -22.3772
| 23> S 	 -143.533 	 28.6604 	 -14.518
| 24> C 	 -142.309 	 29.9004 	 -14.371
| 25> C 	 -141.472 	 29.9098 	 -15.4631
| 26> C 	 -142.024 	 29.1677 	 -16.5571
| 27> C 	 -143.186 	 28.5038 	 -16.2304
| 28> H 	 -140.558 	 30.5412 	 -15.383
| 29> C 	 -141.398 	 29.1862 	 -17.9342
| 30> H 	 -142.085 	 28.7112 	 -18.6718
| 31> H 	 -140.451 	 28.5119 	 -17.8406
| 32> C 	 -140.97 	 30.5887 	 -18.3203
| 33> H 	 -140.506 	 30.6898 	 -19.2898
| 34> H 	 -140.229 	 30.9923 	 -17.6169
| 35> C 	 -142.168 	 31.4956 	 -18.4003
| 36> H 	 -142.633 	 31.8688 	 -17.4928
| 37> H 	 -142.976 	 31.1363 	 -19.1874
| 38> H 	 -141.86 	 32.4618 	 -18.8332
| 39> H 	 -146.71 	 25.5091 	 -17.9072
| 40> H 	 -142.081 	 30.3899 	 -13.4285
| 41> *
| 42>
| 43>                          ****END OF INPUT****

CARTESIAN COORDINATES (ANGSTROEM)
---------------------------------
  S    -145.748000   27.364600  -16.726500
  C    -145.823000   26.078900  -17.858200
  C    -144.569000   25.752100  -18.408900
  C    -143.551000   26.622900  -17.912900
  C    -144.036000   27.572000  -17.023500
  H    -142.515000   26.617400  -18.116400
  C    -144.156000   24.743300  -19.455900
  H    -144.423000   23.776700  -18.993000
  H    -143.051000   24.682100  -19.590500
  C    -145.077000   24.875000  -20.711400
  H    -146.098000   24.755200  -20.317700
  H    -144.985000   25.912900  -20.954900
  C    -144.811000   23.834900  -21.857700
  H    -144.569000   22.814100  -21.390100
  H    -145.676000   23.700300  -22.573300
  H    -143.873000   24.064200  -22.377200
  S    -143.533000   28.660400  -14.518000
  C    -142.309000   29.900400  -14.371000
  C    -141.472000   29.909800  -15.463100
  C    -142.024000   29.167700  -16.557100
  C    -143.186000   28.503800  -16.230400
  H    -140.558000   30.541200  -15.383000
  C    -141.398000   29.186200  -17.934200
  H    -142.085000   28.711200  -18.671800
  H    -140.451000   28.511900  -17.840600
  C    -140.970000   30.588700  -18.320300
  H    -140.506000   30.689800  -19.289800
  H    -140.229000   30.992300  -17.616900
  C    -142.168000   31.495600  -18.400300
  H    -142.633000   31.868800  -17.492800
  H    -142.976000   31.136300  -19.187400
  H    -141.860000   32.461800  -18.833200
  H    -146.710000   25.509100  -17.907200
  H    -142.081000   30.389900  -13.428500

 Total Charge           Charge          ....    0
 Multiplicity           Mult            ....    1
 Number of Electrons    NEL             ....  134
 Basis Dimension        Dim             ....  322

ORBITAL ENERGIES
----------------

  NO   OCC          E(Eh)            E(eV)
   0   2.0000     -88.969083     -2420.9718
   1   2.0000     -88.961471     -2420.7647
   2   2.0000     -10.329289      -281.0742
   3   2.0000     -10.325480      -280.9706
   4   2.0000     -10.315471      -280.6982
   5   2.0000     -10.313066      -280.6328
   6   2.0000     -10.305423      -280.4248
   7   2.0000     -10.301803      -280.3263
   8   2.0000     -10.299177      -280.2549
   9   2.0000     -10.297298      -280.2037
  10   2.0000     -10.297182      -280.2006
  11   2.0000     -10.293806      -280.1087
  12   2.0000     -10.291718      -280.0519
  13   2.0000     -10.289780      -279.9991
  14   2.0000     -10.284729      -279.8617
  15   2.0000     -10.278239      -279.6851
  16   2.0000      -8.084223      -219.9829
  17   2.0000      -8.076505      -219.7729
  18   2.0000      -6.042571      -164.4267
  19   2.0000      -6.038594      -164.3185
  20   2.0000      -6.035234      -164.2271
  21   2.0000      -6.034961      -164.2196
  22   2.0000      -6.031183      -164.1168
  23   2.0000      -6.027100      -164.0057
  24   2.0000      -1.006952       -27.4006
  25   2.0000      -0.986272       -26.8378
  26   2.0000      -0.913456       -24.8564
  27   2.0000      -0.907602       -24.6971
  28   2.0000      -0.866057       -23.5666
  29   2.0000      -0.851370       -23.1670
  30   2.0000      -0.842139       -22.9158
  31   2.0000      -0.811242       -22.0750
  32   2.0000      -0.777601       -21.1596
  33   2.0000      -0.768065       -20.9001
  34   2.0000      -0.707586       -19.2544
  35   2.0000      -0.698907       -19.0182
  36   2.0000      -0.689439       -18.7606
  37   2.0000      -0.659357       -17.9420
  38   2.0000      -0.645063       -17.5531
  39   2.0000      -0.615741       -16.7552
  40   2.0000      -0.594171       -16.1682
  41   2.0000      -0.566679       -15.4201
  42   2.0000      -0.557273       -15.1642
  43   2.0000      -0.551400       -15.0044
  44   2.0000      -0.541855       -14.7446
  45   2.0000      -0.524350       -14.2683
  46   2.0000      -0.515842       -14.0368
  47   2.0000      -0.505359       -13.7515
  48   2.0000      -0.500394       -13.6164
  49   2.0000      -0.495185       -13.4747
  50   2.0000      -0.488474       -13.2921
  51   2.0000      -0.478841       -13.0299
  52   2.0000      -0.470366       -12.7993
  53   2.0000      -0.461390       -12.5550
  54   2.0000      -0.457350       -12.4451
  55   2.0000      -0.449828       -12.2405
  56   2.0000      -0.442075       -12.0295
  57   2.0000      -0.434082       -11.8120
  58   2.0000      -0.425526       -11.5791
  59   2.0000      -0.425144       -11.5687
  60   2.0000      -0.421431       -11.4677
  61   2.0000      -0.419733       -11.4215
  62   2.0000      -0.413431       -11.2500
  63   2.0000      -0.351537        -9.5658
  64   2.0000      -0.329165        -8.9570
  65   2.0000      -0.327319        -8.9068
  66   2.0000      -0.287453        -7.8220
  67   0.0000       0.026551         0.7225
  68   0.0000       0.077419         2.1067
  69   0.0000       0.104184         2.8350
  70   0.0000       0.121700         3.3116
  71   0.0000       0.134672         3.6646

MULLIKEN ATOMIC CHARGES
-----------------------
   0 S :    0.123867
   1 C :   -0.126147
   2 C :   -0.073869
   3 C :    0.014200
   4 C :   -0.153424
   5 H :    0.003462
   6 C :    0.057227
   7 H :    0.027994
   8 H :    0.035179
   9 C :   -0.084366
  10 H :    0.031932
  11 H :    0.035064
  12 C :   -0.068509
  13 H :    0.033198
  14 H :    0.058306
  15 H :    0.038217
  16 S :    0.092506
  17 C :   -0.097671
  18 C :   -0.058867
  19 C :   -0.054331
  20 C :   -0.128678
  21 H :    0.040239
  22 C :    0.038133
  23 H :    0.037289
  24 H :    0.051693
  25 C :   -0.041614
  26 H :    0.026292
  27 H :    0.027067
  28 C :   -0.089840
  29 H :    0.043447
  30 H :    0.045979
  31 H :    0.016856
  32 H :    0.041816
  33 H :    0.057353
Sum of atomic charges:   -0.0000000

LOEWDIN ATOMIC CHARGES
----------------------
   0 S :    0.429521
   1 C :   -0.209822
   2 C :   -0.054852
   3 C :   -0.060258
   4 C :   -0.193414
   5 H :    0.025523
   6 C :   -0.036785
   7 H :    0.032714
   8 H :    0.032092
   9 C :   -0.038630
  10 H :    0.026229
  11 H :    0.021012
  12 C :   -0.078647
  13 H :    0.032354
  14 H :    0.035229
  15 H :    0.026086
  16 S :    0.391643
  17 C :   -0.182016
  18 C :   -0.074859
  19 C :   -0.062494
  20 C :   -0.192719
  21 H :    0.040952
  22 C :   -0.039686
  23 H :    0.032474
  24 H :    0.041503
  25 C :   -0.048209
  26 H :    0.026555
  27 H :    0.025100
  28 C :   -0.078574
  29 H :    0.024558
  30 H :    0.038641
  31 H :    0.023403
  32 H :    0.017330
  33 H :    0.028050

  Mayer bond orders larger than 0.100000
B(  0-S ,  1-C ) :   1.1575 B(  0-S ,  4-C ) :   1.1700 B(  1-C ,  2-C ) :   1.5629
B(  1-C , 32-H ) :   0.9742 B(  2-C ,  3-C ) :   1.2645 B(  2-C ,  6-C ) :   1.0225
B(  3-C ,  4-C ) :   1.5431 B(  3-C ,  5-H ) :   0.9971 B(  4-C , 20-C ) :   1.0348
B(  6-C ,  7-H ) :   0.9243 B(  6-C ,  8-H ) :   0.9528 B(  6-C ,  9-C ) :   1.0444
B(  9-C , 10-H ) :   0.9566 B(  9-C , 11-H ) :   0.9667 B(  9-C , 12-C ) :   1.0618
B( 12-C , 13-H ) :   0.9739 B( 12-C , 14-H ) :   0.9763 B( 12-C , 15-H ) :   0.9759
B( 16-S , 17-C ) :   1.1482 B( 16-S , 20-C ) :   1.1352 B( 17-C , 18-C ) :   1.6321
B( 17-C , 33-H ) :   0.9657 B( 18-C , 19-C ) :   1.2108 B( 18-C , 21-H ) :   0.9841
B( 19-C , 20-C ) :   1.6238 B( 19-C , 22-C ) :   1.0317 B( 22-C , 23-H ) :   0.9367
B( 22-C , 24-H ) :   0.9288 B( 22-C , 25-C ) :   1.0756 B( 25-C , 26-H ) :   0.9528
B( 25-C , 27-H ) :   0.9461 B( 25-C , 28-C ) :   1.0825 B( 28-C , 29-H ) :   0.9708
B( 28-C , 30-H ) :   0.9714 B( 28-C , 31-H ) :   0.9699

Dispersion correction           -0.014141121
FINAL SINGLE POINT ENERGY     -1339.875152984821

DIPOLE MOMENT
-------------
                                X             Y             Z
Electronic contribution:     -8.44736       2.86640      25.10832
Nuclear contribution   :      8.91643      -2.98786     -25.48650
                        -----------------------------------------
Total Dipole Moment    :      0.46907      -0.12146      -0.37818
                        -----------------------------------------
Magnitude (a.u.)       :      0.61465
Magnitude (Debye)      :      1.56233

Rotational constants in cm-1:     0.021390     0.007799     0.006315
Rotational constants in MHz :   641.256838   233.805542   189.310028

                             ****ORCA TERMINATED NORMALLY****
TOTAL RUN TIME: 0 days 0 hours 0 minutes 21 seconds 441 msec
