                         Program Version 4.2.1 -  RELEASE  -
|  1> ! wB97X-D3 SP def2-SVP
|  2> %pal
|  3> nprocs 24
|  4> end
|  5>
|  6> * xyz 0 1
|  7> S 	 -88.5962 	 -31.224 	 -61.5642
|  8> C 	 -89.3802 	 -31.885 	 -62.9389
|  9> C 	 -89.9871 	 -33.0656 	 -62.6194
| 10> C 	 -89.9275 	 -33.3204 	 -61.2283
| 11> C 	 -88.9806 	 -32.5992 	 -60.5969
| 12> H 	 -90.5376 	 -34.0908 	 -60.6695
| 13> C 	 -90.8008 	 -33.9654 	 -63.5279
| 14> H 	 -91.5087 	 -33.3433 	 -64.0533
| 15> H 	 -91.3844 	 -34.6292 	 -62.9283
| 16> C 	 -90.0474 	 -34.7265 	 -64.6039
| 17> H 	 -89.4161 	 -34.0503 	 -65.2471
| 18> H 	 -89.2838 	 -35.4093 	 -64.1781
| 19> C 	 -90.9108 	 -35.4547 	 -65.6657
| 20> H 	 -91.6634 	 -35.9565 	 -65.1154
| 21> H 	 -91.2819 	 -34.7612 	 -66.4276
| 22> H 	 -90.3748 	 -36.2859 	 -66.1881
| 23> S 	 -88.1567 	 -34.2785 	 -58.6339
| 24> C 	 -87.8169 	 -33.6405 	 -57.0291
| 25> C 	 -87.6363 	 -32.2468 	 -57.0612
| 26> C 	 -88.2223 	 -31.6892 	 -58.2067
| 27> C 	 -88.5313 	 -32.6846 	 -59.2133
| 28> H 	 -87.4168 	 -31.7924 	 -56.1005
| 29> C 	 -88.5219 	 -30.2491 	 -58.4502
| 30> H 	 -89.4602 	 -30.1584 	 -59.1135
| 31> H 	 -87.6811 	 -29.8113 	 -58.9426
| 32> C 	 -88.9422 	 -29.4583 	 -57.1942
| 33> H 	 -89.3827 	 -28.5511 	 -57.6192
| 34> H 	 -88.1873 	 -29.2086 	 -56.5165
| 35> C 	 -90.1253 	 -30.1622 	 -56.4742
| 36> H 	 -90.2314 	 -29.9168 	 -55.4427
| 37> H 	 -90.0138 	 -31.2963 	 -56.5156
| 38> H 	 -90.9503 	 -29.8771 	 -57.019
| 39> H 	 -89.2907 	 -31.4179 	 -63.9161
| 40> H 	 -87.6765 	 -34.2052 	 -56.1279
| 41> *
| 42>
| 43>                          ****END OF INPUT****

CARTESIAN COORDINATES (ANGSTROEM)
---------------------------------
  S    -88.596200  -31.224000  -61.564200
  C    -89.380200  -31.885000  -62.938900
  C    -89.987100  -33.065600  -62.619400
  C    -89.927500  -33.320400  -61.228300
  C    -88.980600  -32.599200  -60.596900
  H    -90.537600  -34.090800  -60.669500
  C    -90.800800  -33.965400  -63.527900
  H    -91.508700  -33.343300  -64.053300
  H    -91.384400  -34.629200  -62.928300
  C    -90.047400  -34.726500  -64.603900
  H    -89.416100  -34.050300  -65.247100
  H    -89.283800  -35.409300  -64.178100
  C    -90.910800  -35.454700  -65.665700
  H    -91.663400  -35.956500  -65.115400
  H    -91.281900  -34.761200  -66.427600
  H    -90.374800  -36.285900  -66.188100
  S    -88.156700  -34.278500  -58.633900
  C    -87.816900  -33.640500  -57.029100
  C    -87.636300  -32.246800  -57.061200
  C    -88.222300  -31.689200  -58.206700
  C    -88.531300  -32.684600  -59.213300
  H    -87.416800  -31.792400  -56.100500
  C    -88.521900  -30.249100  -58.450200
  H    -89.460200  -30.158400  -59.113500
  H    -87.681100  -29.811300  -58.942600
  C    -88.942200  -29.458300  -57.194200
  H    -89.382700  -28.551100  -57.619200
  H    -88.187300  -29.208600  -56.516500
  C    -90.125300  -30.162200  -56.474200
  H    -90.231400  -29.916800  -55.442700
  H    -90.013800  -31.296300  -56.515600
  H    -90.950300  -29.877100  -57.019000
  H    -89.290700  -31.417900  -63.916100
  H    -87.676500  -34.205200  -56.127900

 Total Charge           Charge          ....    0
 Multiplicity           Mult            ....    1
 Number of Electrons    NEL             ....  134
 Basis Dimension        Dim             ....  322

ORBITAL ENERGIES
----------------

  NO   OCC          E(Eh)            E(eV)
   0   2.0000     -88.968632     -2420.9596
   1   2.0000     -88.961786     -2420.7733
   2   2.0000     -10.326217      -280.9906
   3   2.0000     -10.322826      -280.8984
   4   2.0000     -10.317999      -280.7670
   5   2.0000     -10.310456      -280.5618
   6   2.0000     -10.304929      -280.4114
   7   2.0000     -10.297604      -280.2121
   8   2.0000     -10.295889      -280.1654
   9   2.0000     -10.292241      -280.0661
  10   2.0000     -10.291010      -280.0326
  11   2.0000     -10.289146      -279.9819
  12   2.0000     -10.288299      -279.9589
  13   2.0000     -10.279579      -279.7216
  14   2.0000     -10.279007      -279.7060
  15   2.0000     -10.266765      -279.3729
  16   2.0000      -8.082913      -219.9472
  17   2.0000      -8.077630      -219.8035
  18   2.0000      -6.041238      -164.3904
  19   2.0000      -6.037433      -164.2869
  20   2.0000      -6.036040      -164.2490
  21   2.0000      -6.033964      -164.1925
  22   2.0000      -6.032038      -164.1401
  23   2.0000      -6.028363      -164.0401
  24   2.0000      -1.015147       -27.6236
  25   2.0000      -0.987416       -26.8690
  26   2.0000      -0.911310       -24.7980
  27   2.0000      -0.910651       -24.7801
  28   2.0000      -0.871052       -23.7025
  29   2.0000      -0.852949       -23.2099
  30   2.0000      -0.842541       -22.9267
  31   2.0000      -0.816398       -22.2153
  32   2.0000      -0.783539       -21.3212
  33   2.0000      -0.769500       -20.9391
  34   2.0000      -0.705695       -19.2029
  35   2.0000      -0.697519       -18.9804
  36   2.0000      -0.691742       -18.8233
  37   2.0000      -0.659096       -17.9349
  38   2.0000      -0.638270       -17.3682
  39   2.0000      -0.618126       -16.8201
  40   2.0000      -0.596727       -16.2378
  41   2.0000      -0.573212       -15.5979
  42   2.0000      -0.565207       -15.3801
  43   2.0000      -0.560960       -15.2645
  44   2.0000      -0.536344       -14.5947
  45   2.0000      -0.527909       -14.3651
  46   2.0000      -0.516772       -14.0621
  47   2.0000      -0.514410       -13.9978
  48   2.0000      -0.512871       -13.9559
  49   2.0000      -0.492044       -13.3892
  50   2.0000      -0.487385       -13.2624
  51   2.0000      -0.477285       -12.9876
  52   2.0000      -0.473470       -12.8838
  53   2.0000      -0.466285       -12.6883
  54   2.0000      -0.460866       -12.5408
  55   2.0000      -0.444757       -12.1025
  56   2.0000      -0.441264       -12.0074
  57   2.0000      -0.437039       -11.8924
  58   2.0000      -0.429549       -11.6886
  59   2.0000      -0.424231       -11.5439
  60   2.0000      -0.421432       -11.4678
  61   2.0000      -0.411884       -11.2079
  62   2.0000      -0.408799       -11.1240
  63   2.0000      -0.350003        -9.5241
  64   2.0000      -0.334202        -9.0941
  65   2.0000      -0.324769        -8.8374
  66   2.0000      -0.281827        -7.6689
  67   0.0000       0.021876         0.5953
  68   0.0000       0.075763         2.0616
  69   0.0000       0.108892         2.9631
  70   0.0000       0.121617         3.3094
  71   0.0000       0.134508         3.6601

MULLIKEN ATOMIC CHARGES
-----------------------
   0 S :    0.094176
   1 C :   -0.118367
   2 C :   -0.079406
   3 C :   -0.019215
   4 C :   -0.134964
   5 H :    0.040398
   6 C :    0.128077
   7 H :    0.017886
   8 H :    0.006906
   9 C :   -0.116124
  10 H :    0.024722
  11 H :    0.033652
  12 C :   -0.046336
  13 H :    0.019511
  14 H :    0.043208
  15 H :    0.038354
  16 S :    0.120975
  17 C :   -0.112961
  18 C :   -0.023082
  19 C :   -0.070871
  20 C :   -0.141176
  21 H :    0.028932
  22 C :    0.029219
  23 H :    0.049182
  24 H :    0.046320
  25 C :   -0.058876
  26 H :    0.029687
  27 H :    0.021989
  28 C :   -0.053513
  29 H :    0.026902
  30 H :    0.053645
  31 H :    0.014350
  32 H :    0.052707
  33 H :    0.054092
Sum of atomic charges:   -0.0000000

LOEWDIN ATOMIC CHARGES
----------------------
   0 S :    0.435927
   1 C :   -0.200418
   2 C :   -0.065546
   3 C :   -0.072415
   4 C :   -0.204799
   5 H :    0.041010
   6 C :   -0.027751
   7 H :    0.030684
   8 H :    0.024620
   9 C :   -0.048632
  10 H :    0.024521
  11 H :    0.025265
  12 C :   -0.066534
  13 H :    0.016633
  14 H :    0.027036
  15 H :    0.033924
  16 S :    0.422683
  17 C :   -0.182872
  18 C :   -0.069246
  19 C :   -0.062277
  20 C :   -0.206965
  21 H :    0.034614
  22 C :   -0.043813
  23 H :    0.039260
  24 H :    0.028664
  25 C :   -0.035901
  26 H :    0.029293
  27 H :    0.009490
  28 C :   -0.061920
  29 H :    0.020739
  30 H :    0.036045
  31 H :    0.014175
  32 H :    0.029547
  33 H :    0.024959

  Mayer bond orders larger than 0.100000
B(  0-S ,  1-C ) :   1.1509 B(  0-S ,  4-C ) :   1.1526 B(  1-C ,  2-C ) :   1.5940
B(  1-C , 32-H ) :   0.9734 B(  2-C ,  3-C ) :   1.2501 B(  2-C ,  6-C ) :   1.0214
B(  3-C ,  4-C ) :   1.5696 B(  3-C ,  5-H ) :   0.9802 B(  4-C , 20-C ) :   1.0477
B(  6-C ,  7-H ) :   0.9352 B(  6-C ,  8-H ) :   0.9356 B(  6-C ,  9-C ) :   1.0601
B(  9-C , 10-H ) :   0.9604 B(  9-C , 11-H ) :   0.9568 B(  9-C , 12-C ) :   1.0730
B( 12-C , 13-H ) :   0.9764 B( 12-C , 14-H ) :   0.9778 B( 12-C , 15-H ) :   0.9749
B( 16-S , 17-C ) :   1.1747 B( 16-S , 20-C ) :   1.1654 B( 17-C , 18-C ) :   1.5678
B( 17-C , 20-C ) :   0.1184 B( 17-C , 33-H ) :   0.9694 B( 18-C , 19-C ) :   1.2838
B( 18-C , 21-H ) :   0.9809 B( 19-C , 20-C ) :   1.5162 B( 19-C , 22-C ) :   1.0358
B( 22-C , 23-H ) :   0.9408 B( 22-C , 24-H ) :   0.9293 B( 22-C , 25-C ) :   1.0675
B( 25-C , 26-H ) :   0.9650 B( 25-C , 27-H ) :   0.9584 B( 25-C , 28-C ) :   1.0608
B( 28-C , 29-H ) :   0.9763 B( 28-C , 30-H ) :   0.9748 B( 28-C , 31-H ) :   0.9797

Dispersion correction           -0.014135604
FINAL SINGLE POINT ENERGY     -1339.858158663941

DIPOLE MOMENT
-------------
                                X             Y             Z
Electronic contribution:     11.29661      -1.34817       6.24028
Nuclear contribution   :    -11.59211       1.42380      -6.23544
                        -----------------------------------------
Total Dipole Moment    :     -0.29550       0.07563       0.00484
                        -----------------------------------------
Magnitude (a.u.)       :      0.30506
Magnitude (Debye)      :      0.77540

Rotational constants in cm-1:     0.026991     0.006970     0.006052
Rotational constants in MHz :   809.179647   208.965781   181.448386

                             ****ORCA TERMINATED NORMALLY****
TOTAL RUN TIME: 0 days 0 hours 0 minutes 21 seconds 461 msec
