                         Program Version 4.2.1 -  RELEASE  -
|  1> ! wB97X-D3 SP def2-SVP
|  2> %pal
|  3> nprocs 24
|  4> end
|  5>
|  6> * xyz 0 1
|  7> S 	 -38.2535 	 17.5831 	 25.2037
|  8> C 	 -38.9146 	 16.6134 	 26.4376
|  9> C 	 -39.8584 	 15.699 	 25.9409
| 10> C 	 -40.1249 	 15.9094 	 24.5579
| 11> C 	 -39.4175 	 16.9944 	 24.0015
| 12> H 	 -40.964 	 15.3223 	 24.1194
| 13> C 	 -40.6462 	 14.6528 	 26.7955
| 14> H 	 -41.5486 	 14.3272 	 26.2545
| 15> H 	 -41.0244 	 15.1123 	 27.7144
| 16> C 	 -39.8534 	 13.4109 	 27.1512
| 17> H 	 -39.7061 	 12.8884 	 26.2311
| 18> H 	 -38.8755 	 13.7539 	 27.5485
| 19> C 	 -40.5224 	 12.4494 	 28.1242
| 20> H 	 -39.8128 	 11.6685 	 28.4515
| 21> H 	 -40.6736 	 12.9938 	 29.1045
| 22> H 	 -41.5179 	 12.052 	 27.8699
| 23> S 	 -41.1826 	 18.3905 	 22.2397
| 24> C 	 -40.6577 	 18.7518 	 20.5935
| 25> C 	 -39.362 	 18.2702 	 20.3916
| 26> C 	 -38.8266 	 17.5507 	 21.4888
| 27> C 	 -39.6548 	 17.5698 	 22.6265
| 28> H 	 -38.7692 	 18.4325 	 19.4612
| 29> C 	 -37.576 	 16.7872 	 21.4404
| 30> H 	 -37.5537 	 16.2357 	 20.5221
| 31> H 	 -37.5387 	 16.2027 	 22.3042
| 32> C 	 -36.3493 	 17.7918 	 21.2489
| 33> H 	 -36.3903 	 18.5562 	 20.4382
| 34> H 	 -35.4775 	 17.2516 	 20.9775
| 35> C 	 -36.1127 	 18.5233 	 22.5454
| 36> H 	 -35.295 	 19.201 	 22.3825
| 37> H 	 -35.9023 	 17.8099 	 23.3783
| 38> H 	 -36.9186 	 19.1187 	 23.0057
| 39> H 	 -38.6047 	 16.5194 	 27.5132
| 40> H 	 -41.1762 	 19.3867 	 19.8314
| 41> *
| 42>
| 43>                          ****END OF INPUT****

CARTESIAN COORDINATES (ANGSTROEM)
---------------------------------
  S    -38.253500   17.583100   25.203700
  C    -38.914600   16.613400   26.437600
  C    -39.858400   15.699000   25.940900
  C    -40.124900   15.909400   24.557900
  C    -39.417500   16.994400   24.001500
  H    -40.964000   15.322300   24.119400
  C    -40.646200   14.652800   26.795500
  H    -41.548600   14.327200   26.254500
  H    -41.024400   15.112300   27.714400
  C    -39.853400   13.410900   27.151200
  H    -39.706100   12.888400   26.231100
  H    -38.875500   13.753900   27.548500
  C    -40.522400   12.449400   28.124200
  H    -39.812800   11.668500   28.451500
  H    -40.673600   12.993800   29.104500
  H    -41.517900   12.052000   27.869900
  S    -41.182600   18.390500   22.239700
  C    -40.657700   18.751800   20.593500
  C    -39.362000   18.270200   20.391600
  C    -38.826600   17.550700   21.488800
  C    -39.654800   17.569800   22.626500
  H    -38.769200   18.432500   19.461200
  C    -37.576000   16.787200   21.440400
  H    -37.553700   16.235700   20.522100
  H    -37.538700   16.202700   22.304200
  C    -36.349300   17.791800   21.248900
  H    -36.390300   18.556200   20.438200
  H    -35.477500   17.251600   20.977500
  C    -36.112700   18.523300   22.545400
  H    -35.295000   19.201000   22.382500
  H    -35.902300   17.809900   23.378300
  H    -36.918600   19.118700   23.005700
  H    -38.604700   16.519400   27.513200
  H    -41.176200   19.386700   19.831400

 Total Charge           Charge          ....    0
 Multiplicity           Mult            ....    1
 Number of Electrons    NEL             ....  134
 Basis Dimension        Dim             ....  322

ORBITAL ENERGIES
----------------

  NO   OCC          E(Eh)            E(eV)
   0   2.0000     -88.975714     -2421.1523
   1   2.0000     -88.966386     -2420.8984
   2   2.0000     -10.338846      -281.3343
   3   2.0000     -10.330148      -281.0976
   4   2.0000     -10.324807      -280.9523
   5   2.0000     -10.319500      -280.8079
   6   2.0000     -10.303224      -280.3650
   7   2.0000     -10.301376      -280.3147
   8   2.0000     -10.297564      -280.2110
   9   2.0000     -10.295569      -280.1567
  10   2.0000     -10.295426      -280.1528
  11   2.0000     -10.286532      -279.9108
  12   2.0000     -10.285675      -279.8874
  13   2.0000     -10.285220      -279.8751
  14   2.0000     -10.282875      -279.8113
  15   2.0000     -10.269584      -279.4496
  16   2.0000      -8.089653      -220.1306
  17   2.0000      -8.080031      -219.8688
  18   2.0000      -6.048190      -164.5796
  19   2.0000      -6.044081      -164.4678
  20   2.0000      -6.040603      -164.3732
  21   2.0000      -6.038614      -164.3190
  22   2.0000      -6.034623      -164.2104
  23   2.0000      -6.030837      -164.1074
  24   2.0000      -1.000661       -27.2294
  25   2.0000      -0.982004       -26.7217
  26   2.0000      -0.910807       -24.7843
  27   2.0000      -0.909323       -24.7439
  28   2.0000      -0.860462       -23.4144
  29   2.0000      -0.850720       -23.1493
  30   2.0000      -0.846707       -23.0401
  31   2.0000      -0.808711       -22.0061
  32   2.0000      -0.781161       -21.2565
  33   2.0000      -0.766263       -20.8511
  34   2.0000      -0.704144       -19.1607
  35   2.0000      -0.695276       -18.9194
  36   2.0000      -0.694649       -18.9024
  37   2.0000      -0.654413       -17.8075
  38   2.0000      -0.633760       -17.2455
  39   2.0000      -0.614634       -16.7250
  40   2.0000      -0.592984       -16.1359
  41   2.0000      -0.573908       -15.6168
  42   2.0000      -0.560133       -15.2420
  43   2.0000      -0.552667       -15.0388
  44   2.0000      -0.536571       -14.6008
  45   2.0000      -0.522912       -14.2292
  46   2.0000      -0.519224       -14.1288
  47   2.0000      -0.512202       -13.9377
  48   2.0000      -0.497857       -13.5474
  49   2.0000      -0.494716       -13.4619
  50   2.0000      -0.490858       -13.3569
  51   2.0000      -0.475315       -12.9340
  52   2.0000      -0.468697       -12.7539
  53   2.0000      -0.461460       -12.5570
  54   2.0000      -0.460258       -12.5242
  55   2.0000      -0.453811       -12.3488
  56   2.0000      -0.444448       -12.0940
  57   2.0000      -0.432282       -11.7630
  58   2.0000      -0.430170       -11.7055
  59   2.0000      -0.423357       -11.5201
  60   2.0000      -0.422571       -11.4987
  61   2.0000      -0.417041       -11.3483
  62   2.0000      -0.405965       -11.0469
  63   2.0000      -0.340190        -9.2571
  64   2.0000      -0.330235        -8.9861
  65   2.0000      -0.322753        -8.7826
  66   2.0000      -0.298718        -8.1285
  67   0.0000       0.035173         0.9571
  68   0.0000       0.052106         1.4179
  69   0.0000       0.108774         2.9599
  70   0.0000       0.116562         3.1718
  71   0.0000       0.129132         3.5139

MULLIKEN ATOMIC CHARGES
-----------------------
   0 S :    0.136105
   1 C :   -0.124044
   2 C :   -0.118697
   3 C :    0.041477
   4 C :   -0.182612
   5 H :    0.031059
   6 C :    0.052462
   7 H :    0.017142
   8 H :    0.025787
   9 C :   -0.063689
  10 H :    0.024262
  11 H :    0.027475
  12 C :   -0.059420
  13 H :    0.041960
  14 H :    0.020862
  15 H :    0.041580
  16 S :    0.111484
  17 C :   -0.112680
  18 C :   -0.040836
  19 C :   -0.046499
  20 C :   -0.169560
  21 H :    0.030813
  22 C :    0.125794
  23 H :    0.023709
  24 H :    0.019384
  25 C :   -0.074102
  26 H :    0.031956
  27 H :    0.018635
  28 C :   -0.071261
  29 H :    0.026667
  30 H :    0.028799
  31 H :    0.040032
  32 H :    0.067896
  33 H :    0.078062
Sum of atomic charges:   -0.0000000

LOEWDIN ATOMIC CHARGES
----------------------
   0 S :    0.444528
   1 C :   -0.222517
   2 C :   -0.069529
   3 C :   -0.059542
   4 C :   -0.201982
   5 H :    0.040182
   6 C :   -0.031384
   7 H :    0.028082
   8 H :    0.027857
   9 C :   -0.044428
  10 H :    0.021154
  11 H :    0.026109
  12 C :   -0.074843
  13 H :    0.032245
  14 H :    0.027132
  15 H :    0.026849
  16 S :    0.395617
  17 C :   -0.190709
  18 C :   -0.077061
  19 C :   -0.053939
  20 C :   -0.203323
  21 H :    0.036618
  22 C :   -0.016180
  23 H :    0.032493
  24 H :    0.023511
  25 C :   -0.035505
  26 H :    0.027158
  27 H :    0.017808
  28 C :   -0.076439
  29 H :    0.022063
  30 H :    0.020603
  31 H :    0.021026
  32 H :    0.042754
  33 H :    0.043593

  Mayer bond orders larger than 0.100000
B(  0-S ,  1-C ) :   1.1691 B(  0-S ,  4-C ) :   1.1548 B(  1-C ,  2-C ) :   1.5776
B(  1-C ,  4-C ) :   0.1013 B(  1-C , 32-H ) :   0.9558 B(  2-C ,  3-C ) :   1.3067
B(  2-C ,  6-C ) :   1.0144 B(  3-C ,  4-C ) :   1.5266 B(  3-C ,  5-H ) :   0.9832
B(  4-C , 20-C ) :   1.0261 B(  6-C ,  7-H ) :   0.9433 B(  6-C ,  8-H ) :   0.9469
B(  6-C ,  9-C ) :   1.0617 B(  9-C , 10-H ) :   0.9527 B(  9-C , 11-H ) :   0.9565
B(  9-C , 12-C ) :   1.0874 B( 12-C , 13-H ) :   0.9721 B( 12-C , 14-H ) :   0.9706
B( 12-C , 15-H ) :   0.9738 B( 16-S , 17-C ) :   1.1599 B( 16-S , 20-C ) :   1.1331
B( 17-C , 18-C ) :   1.5919 B( 17-C , 33-H ) :   0.9607 B( 18-C , 19-C ) :   1.2659
B( 18-C , 21-H ) :   0.9765 B( 19-C , 20-C ) :   1.5634 B( 19-C , 22-C ) :   1.0610
B( 22-C , 23-H ) :   0.9268 B( 22-C , 24-H ) :   0.9339 B( 22-C , 25-C ) :   1.0566
B( 25-C , 26-H ) :   0.9610 B( 25-C , 27-H ) :   0.9545 B( 25-C , 28-C ) :   1.0685
B( 28-C , 29-H ) :   0.9704 B( 28-C , 30-H ) :   0.9715 B( 28-C , 31-H ) :   0.9744

Dispersion correction           -0.014870507
FINAL SINGLE POINT ENERGY     -1339.874692034341

DIPOLE MOMENT
-------------
                                X             Y             Z
Electronic contribution:     -8.19069      14.96102      -7.81665
Nuclear contribution   :      8.35060     -15.32193       7.80561
                        -----------------------------------------
Total Dipole Moment    :      0.15991      -0.36090      -0.01104
                        -----------------------------------------
Magnitude (a.u.)       :      0.39490
Magnitude (Debye)      :      1.00375

Rotational constants in cm-1:     0.023208     0.007313     0.006368
Rotational constants in MHz :   695.759534   219.246571   190.903317

                             ****ORCA TERMINATED NORMALLY****
TOTAL RUN TIME: 0 days 0 hours 0 minutes 21 seconds 390 msec
