                         Program Version 4.2.1 -  RELEASE  -
|  1> ! wB97X-D3 SP def2-SVP
|  2> %pal
|  3> nprocs 24
|  4> end
|  5>
|  6> * xyz 0 1
|  7> S 	 -111.255 	 51.8318 	 -86.8069
|  8> C 	 -111.249 	 50.9713 	 -88.3264
|  9> C 	 -110.601 	 51.6895 	 -89.2505
| 10> C 	 -110.227 	 53.0054 	 -88.8719
| 11> C 	 -110.689 	 53.2903 	 -87.5508
| 12> H 	 -109.86 	 53.8213 	 -89.4932
| 13> C 	 -110.317 	 51.1159 	 -90.5628
| 14> H 	 -110.18 	 50.0184 	 -90.4674
| 15> H 	 -109.307 	 51.3908 	 -90.9919
| 16> C 	 -111.315 	 51.558 	 -91.6477
| 17> H 	 -112.307 	 51.3408 	 -91.3171
| 18> H 	 -111.304 	 52.6479 	 -91.7237
| 19> C 	 -111.11 	 50.7974 	 -92.9491
| 20> H 	 -110.061 	 50.9602 	 -93.2749
| 21> H 	 -111.353 	 49.7615 	 -92.6718
| 22> H 	 -111.814 	 51.1603 	 -93.7414
| 23> S 	 -112.079 	 55.0053 	 -86.0201
| 24> C 	 -111.232 	 56.3495 	 -85.363
| 25> C 	 -109.949 	 56.431 	 -85.7169
| 26> C 	 -109.569 	 55.3798 	 -86.5666
| 27> C 	 -110.649 	 54.5006 	 -86.8248
| 28> H 	 -109.383 	 57.2498 	 -85.3376
| 29> C 	 -108.253 	 55.3889 	 -87.3253
| 30> H 	 -107.752 	 56.3846 	 -87.3301
| 31> H 	 -108.472 	 55.3831 	 -88.3772
| 32> C 	 -107.155 	 54.3759 	 -86.9315
| 33> H 	 -106.37 	 54.2852 	 -87.6714
| 34> H 	 -107.615 	 53.4721 	 -87.0142
| 35> C 	 -106.684 	 54.3491 	 -85.498
| 36> H 	 -107.381 	 53.7929 	 -84.7801
| 37> H 	 -106.509 	 55.3406 	 -85.0521
| 38> H 	 -105.782 	 53.726 	 -85.3868
| 39> H 	 -111.634 	 50.0625 	 -88.5474
| 40> H 	 -111.725 	 56.9741 	 -84.6397
| 41> *
| 42>
| 43>                          ****END OF INPUT****

CARTESIAN COORDINATES (ANGSTROEM)
---------------------------------
  S    -111.255000   51.831800  -86.806900
  C    -111.249000   50.971300  -88.326400
  C    -110.601000   51.689500  -89.250500
  C    -110.227000   53.005400  -88.871900
  C    -110.689000   53.290300  -87.550800
  H    -109.860000   53.821300  -89.493200
  C    -110.317000   51.115900  -90.562800
  H    -110.180000   50.018400  -90.467400
  H    -109.307000   51.390800  -90.991900
  C    -111.315000   51.558000  -91.647700
  H    -112.307000   51.340800  -91.317100
  H    -111.304000   52.647900  -91.723700
  C    -111.110000   50.797400  -92.949100
  H    -110.061000   50.960200  -93.274900
  H    -111.353000   49.761500  -92.671800
  H    -111.814000   51.160300  -93.741400
  S    -112.079000   55.005300  -86.020100
  C    -111.232000   56.349500  -85.363000
  C    -109.949000   56.431000  -85.716900
  C    -109.569000   55.379800  -86.566600
  C    -110.649000   54.500600  -86.824800
  H    -109.383000   57.249800  -85.337600
  C    -108.253000   55.388900  -87.325300
  H    -107.752000   56.384600  -87.330100
  H    -108.472000   55.383100  -88.377200
  C    -107.155000   54.375900  -86.931500
  H    -106.370000   54.285200  -87.671400
  H    -107.615000   53.472100  -87.014200
  C    -106.684000   54.349100  -85.498000
  H    -107.381000   53.792900  -84.780100
  H    -106.509000   55.340600  -85.052100
  H    -105.782000   53.726000  -85.386800
  H    -111.634000   50.062500  -88.547400
  H    -111.725000   56.974100  -84.639700

 Total Charge           Charge          ....    0
 Multiplicity           Mult            ....    1
 Number of Electrons    NEL             ....  134
 Basis Dimension        Dim             ....  322

ORBITAL ENERGIES
----------------

  NO   OCC          E(Eh)            E(eV)
   0   2.0000     -88.966578     -2420.9037
   1   2.0000     -88.963958     -2420.8324
   2   2.0000     -10.327921      -281.0370
   3   2.0000     -10.321498      -280.8622
   4   2.0000     -10.307825      -280.4902
   5   2.0000     -10.305051      -280.4147
   6   2.0000     -10.298386      -280.2333
   7   2.0000     -10.295392      -280.1519
   8   2.0000     -10.291580      -280.0481
   9   2.0000     -10.290089      -280.0076
  10   2.0000     -10.289728      -279.9977
  11   2.0000     -10.285771      -279.8901
  12   2.0000     -10.283669      -279.8329
  13   2.0000     -10.280478      -279.7460
  14   2.0000     -10.278959      -279.7047
  15   2.0000     -10.272553      -279.5304
  16   2.0000      -8.082729      -219.9422
  17   2.0000      -8.079124      -219.8441
  18   2.0000      -6.040888      -164.3809
  19   2.0000      -6.037572      -164.2907
  20   2.0000      -6.037049      -164.2764
  21   2.0000      -6.033753      -164.1868
  22   2.0000      -6.033605      -164.1827
  23   2.0000      -6.029871      -164.0811
  24   2.0000      -1.016642       -27.6642
  25   2.0000      -0.992983       -27.0204
  26   2.0000      -0.918253       -24.9869
  27   2.0000      -0.907607       -24.6972
  28   2.0000      -0.879501       -23.9324
  29   2.0000      -0.853507       -23.2251
  30   2.0000      -0.847600       -23.0644
  31   2.0000      -0.817867       -22.2553
  32   2.0000      -0.784004       -21.3338
  33   2.0000      -0.769053       -20.9270
  34   2.0000      -0.717360       -19.5204
  35   2.0000      -0.696578       -18.9548
  36   2.0000      -0.693755       -18.8780
  37   2.0000      -0.664694       -18.0872
  38   2.0000      -0.642937       -17.4952
  39   2.0000      -0.618825       -16.8391
  40   2.0000      -0.601176       -16.3588
  41   2.0000      -0.579165       -15.7599
  42   2.0000      -0.563144       -15.3239
  43   2.0000      -0.548848       -14.9349
  44   2.0000      -0.544083       -14.8053
  45   2.0000      -0.526665       -14.3313
  46   2.0000      -0.516036       -14.0421
  47   2.0000      -0.512200       -13.9377
  48   2.0000      -0.509153       -13.8548
  49   2.0000      -0.501376       -13.6431
  50   2.0000      -0.486963       -13.2509
  51   2.0000      -0.481436       -13.1006
  52   2.0000      -0.475538       -12.9401
  53   2.0000      -0.464582       -12.6419
  54   2.0000      -0.458498       -12.4764
  55   2.0000      -0.446340       -12.1455
  56   2.0000      -0.445999       -12.1363
  57   2.0000      -0.437750       -11.9118
  58   2.0000      -0.435506       -11.8507
  59   2.0000      -0.426083       -11.5943
  60   2.0000      -0.420293       -11.4367
  61   2.0000      -0.411441       -11.1959
  62   2.0000      -0.401092       -10.9143
  63   2.0000      -0.347689        -9.4611
  64   2.0000      -0.334547        -9.1035
  65   2.0000      -0.327602        -8.9145
  66   2.0000      -0.289392        -7.8747
  67   0.0000       0.023987         0.6527
  68   0.0000       0.075678         2.0593
  69   0.0000       0.111763         3.0412
  70   0.0000       0.119213         3.2439
  71   0.0000       0.135614         3.6902

MULLIKEN ATOMIC CHARGES
-----------------------
   0 S :    0.114496
   1 C :   -0.067267
   2 C :   -0.047763
   3 C :    0.030466
   4 C :   -0.155762
   5 H :    0.020347
   6 C :    0.003187
   7 H :    0.022061
   8 H :    0.022330
   9 C :   -0.061049
  10 H :    0.010371
  11 H :    0.025063
  12 C :   -0.043715
  13 H :    0.035445
  14 H :    0.036743
  15 H :    0.046288
  16 S :    0.129417
  17 C :   -0.088089
  18 C :   -0.021273
  19 C :    0.022206
  20 C :   -0.193961
  21 H :    0.009062
  22 C :    0.032148
  23 H :    0.016709
  24 H :    0.016913
  25 C :    0.001426
  26 H :    0.021385
  27 H :    0.002287
  28 C :   -0.082528
  29 H :    0.041705
  30 H :    0.028824
  31 H :    0.032722
  32 H :   -0.007690
  33 H :    0.047497
Sum of atomic charges:   -0.0000000

LOEWDIN ATOMIC CHARGES
----------------------
   0 S :    0.414062
   1 C :   -0.183394
   2 C :   -0.066615
   3 C :   -0.064609
   4 C :   -0.193660
   5 H :    0.032017
   6 C :   -0.040350
   7 H :    0.029468
   8 H :    0.033026
   9 C :   -0.041017
  10 H :    0.016233
  11 H :    0.021762
  12 C :   -0.065980
  13 H :    0.025621
  14 H :    0.028769
  15 H :    0.031801
  16 S :    0.440879
  17 C :   -0.186147
  18 C :   -0.068813
  19 C :   -0.045638
  20 C :   -0.220743
  21 H :    0.033414
  22 C :   -0.034161
  23 H :    0.031798
  24 H :    0.028955
  25 C :   -0.043615
  26 H :    0.026121
  27 H :    0.016426
  28 C :   -0.072721
  29 H :    0.034942
  30 H :    0.019670
  31 H :    0.030413
  32 H :    0.008463
  33 H :    0.023622

  Mayer bond orders larger than 0.100000
B(  0-S ,  1-C ) :   1.1136 B(  0-S ,  4-C ) :   1.1753 B(  1-C ,  2-C ) :   1.6193
B(  1-C , 32-H ) :   0.9807 B(  2-C ,  3-C ) :   1.2346 B(  2-C ,  6-C ) :   1.0375
B(  3-C ,  4-C ) :   1.5280 B(  3-C ,  5-H ) :   0.9958 B(  4-C , 20-C ) :   1.0821
B(  6-C ,  7-H ) :   0.9458 B(  6-C ,  8-H ) :   0.9359 B(  6-C ,  9-C ) :   1.0494
B(  9-C , 10-H ) :   0.9553 B(  9-C , 11-H ) :   0.9547 B(  9-C , 12-C ) :   1.0756
B( 12-C , 13-H ) :   0.9745 B( 12-C , 14-H ) :   0.9756 B( 12-C , 15-H ) :   0.9733
B( 16-S , 17-C ) :   1.1650 B( 16-S , 20-C ) :   1.1692 B( 17-C , 18-C ) :   1.5996
B( 17-C , 33-H ) :   0.9665 B( 18-C , 19-C ) :   1.2545 B( 18-C , 21-H ) :   1.0018
B( 19-C , 20-C ) :   1.5361 B( 19-C , 22-C ) :   1.0213 B( 22-C , 23-H ) :   0.9421
B( 22-C , 24-H ) :   0.9403 B( 22-C , 25-C ) :   1.0674 B( 25-C , 26-H ) :   0.9536
B( 25-C , 27-H ) :   0.9464 B( 25-C , 28-C ) :   1.0748 B( 28-C , 29-H ) :   0.9729
B( 28-C , 30-H ) :   0.9795 B( 28-C , 31-H ) :   0.9708

Dispersion correction           -0.014483422
FINAL SINGLE POINT ENERGY     -1339.863156612653

DIPOLE MOMENT
-------------
                                X             Y             Z
Electronic contribution:    -15.94266       4.50109      17.49515
Nuclear contribution   :     16.21292      -4.35838     -17.83780
                        -----------------------------------------
Total Dipole Moment    :      0.27027       0.14271      -0.34265
                        -----------------------------------------
Magnitude (a.u.)       :      0.45915
Magnitude (Debye)      :      1.16707

Rotational constants in cm-1:     0.020795     0.007979     0.006963
Rotational constants in MHz :   623.409835   239.205749   208.749585

                             ****ORCA TERMINATED NORMALLY****
TOTAL RUN TIME: 0 days 0 hours 0 minutes 21 seconds 857 msec
