                         Program Version 4.2.1 -  RELEASE  -
|  1> ! wB97X-D3 SP def2-SVP
|  2> %pal
|  3> nprocs 24
|  4> end
|  5>
|  6> * xyz 0 1
|  7> S 	 -106.709 	 60.5511 	 -20.9669
|  8> C 	 -107.705 	 61.8691 	 -20.2675
|  9> C 	 -108.861 	 61.3767 	 -19.7102
| 10> C 	 -108.884 	 59.9751 	 -19.622
| 11> C 	 -107.824 	 59.3411 	 -20.2823
| 12> H 	 -109.558 	 59.2917 	 -19.1652
| 13> C 	 -109.832 	 62.3318 	 -19.0351
| 14> H 	 -110.535 	 61.5704 	 -18.5021
| 15> H 	 -110.272 	 63.0132 	 -19.7151
| 16> C 	 -109.075 	 63.1122 	 -17.9559
| 17> H 	 -108.632 	 62.3325 	 -17.3492
| 18> H 	 -108.25 	 63.7781 	 -18.3505
| 19> C 	 -109.997 	 63.9833 	 -17.156
| 20> H 	 -110.978 	 63.4735 	 -16.9126
| 21> H 	 -109.641 	 64.3141 	 -16.1432
| 22> H 	 -110.27 	 64.8679 	 -17.6704
| 23> S 	 -108.165 	 57.0009 	 -21.7897
| 24> C 	 -107.713 	 55.463 	 -21.0524
| 25> C 	 -107.012 	 55.7447 	 -19.8499
| 26> C 	 -106.922 	 57.1281 	 -19.4961
| 27> C 	 -107.539 	 57.9369 	 -20.3922
| 28> H 	 -106.724 	 54.9645 	 -19.2284
| 29> C 	 -106.279 	 57.6534 	 -18.2181
| 30> H 	 -105.75 	 58.6354 	 -18.4568
| 31> H 	 -105.523 	 56.9124 	 -17.8517
| 32> C 	 -107.34 	 57.8242 	 -17.0894
| 33> H 	 -107.732 	 56.7831 	 -17.0494
| 34> H 	 -108.294 	 58.3436 	 -17.4138
| 35> C 	 -106.801 	 58.2834 	 -15.7613
| 36> H 	 -105.873 	 57.7608 	 -15.3957
| 37> H 	 -107.603 	 58.2618 	 -14.9906
| 38> H 	 -106.636 	 59.3714 	 -15.9274
| 39> H 	 -107.497 	 62.886 	 -20.4199
| 40> H 	 -107.952 	 54.3944 	 -21.293
| 41> *
| 42>
| 43>                          ****END OF INPUT****

CARTESIAN COORDINATES (ANGSTROEM)
---------------------------------
  S    -106.709000   60.551100  -20.966900
  C    -107.705000   61.869100  -20.267500
  C    -108.861000   61.376700  -19.710200
  C    -108.884000   59.975100  -19.622000
  C    -107.824000   59.341100  -20.282300
  H    -109.558000   59.291700  -19.165200
  C    -109.832000   62.331800  -19.035100
  H    -110.535000   61.570400  -18.502100
  H    -110.272000   63.013200  -19.715100
  C    -109.075000   63.112200  -17.955900
  H    -108.632000   62.332500  -17.349200
  H    -108.250000   63.778100  -18.350500
  C    -109.997000   63.983300  -17.156000
  H    -110.978000   63.473500  -16.912600
  H    -109.641000   64.314100  -16.143200
  H    -110.270000   64.867900  -17.670400
  S    -108.165000   57.000900  -21.789700
  C    -107.713000   55.463000  -21.052400
  C    -107.012000   55.744700  -19.849900
  C    -106.922000   57.128100  -19.496100
  C    -107.539000   57.936900  -20.392200
  H    -106.724000   54.964500  -19.228400
  C    -106.279000   57.653400  -18.218100
  H    -105.750000   58.635400  -18.456800
  H    -105.523000   56.912400  -17.851700
  C    -107.340000   57.824200  -17.089400
  H    -107.732000   56.783100  -17.049400
  H    -108.294000   58.343600  -17.413800
  C    -106.801000   58.283400  -15.761300
  H    -105.873000   57.760800  -15.395700
  H    -107.603000   58.261800  -14.990600
  H    -106.636000   59.371400  -15.927400
  H    -107.497000   62.886000  -20.419900
  H    -107.952000   54.394400  -21.293000

 Total Charge           Charge          ....    0
 Multiplicity           Mult            ....    1
 Number of Electrons    NEL             ....  134
 Basis Dimension        Dim             ....  322

ORBITAL ENERGIES
----------------

  NO   OCC          E(Eh)            E(eV)
   0   2.0000     -88.966948     -2420.9137
   1   2.0000     -88.966433     -2420.8997
   2   2.0000     -10.330589      -281.1096
   3   2.0000     -10.327580      -281.0277
   4   2.0000     -10.322646      -280.8935
   5   2.0000     -10.312712      -280.6232
   6   2.0000     -10.301674      -280.3228
   7   2.0000     -10.300398      -280.2881
   8   2.0000     -10.300345      -280.2866
   9   2.0000     -10.298924      -280.2480
  10   2.0000     -10.297254      -280.2025
  11   2.0000     -10.292318      -280.0682
  12   2.0000     -10.290522      -280.0193
  13   2.0000     -10.289549      -279.9929
  14   2.0000     -10.285860      -279.8925
  15   2.0000     -10.279450      -279.7181
  16   2.0000      -8.080482      -219.8811
  17   2.0000      -8.079822      -219.8631
  18   2.0000      -6.039213      -164.3353
  19   2.0000      -6.038299      -164.3105
  20   2.0000      -6.035034      -164.2216
  21   2.0000      -6.034432      -164.2052
  22   2.0000      -6.031181      -164.1168
  23   2.0000      -6.030796      -164.1063
  24   2.0000      -1.002270       -27.2731
  25   2.0000      -0.979495       -26.6534
  26   2.0000      -0.917283       -24.9605
  27   2.0000      -0.904702       -24.6182
  28   2.0000      -0.868885       -23.6436
  29   2.0000      -0.848993       -23.1023
  30   2.0000      -0.847168       -23.0526
  31   2.0000      -0.814160       -22.1544
  32   2.0000      -0.780117       -21.2281
  33   2.0000      -0.767381       -20.8815
  34   2.0000      -0.707646       -19.2560
  35   2.0000      -0.697928       -18.9916
  36   2.0000      -0.687134       -18.6979
  37   2.0000      -0.664065       -18.0701
  38   2.0000      -0.650470       -17.7002
  39   2.0000      -0.616195       -16.7675
  40   2.0000      -0.588555       -16.0154
  41   2.0000      -0.572241       -15.5715
  42   2.0000      -0.566809       -15.4237
  43   2.0000      -0.559059       -15.2128
  44   2.0000      -0.525863       -14.3095
  45   2.0000      -0.519560       -14.1379
  46   2.0000      -0.518282       -14.1032
  47   2.0000      -0.512500       -13.9458
  48   2.0000      -0.507887       -13.8203
  49   2.0000      -0.505103       -13.7445
  50   2.0000      -0.493729       -13.4350
  51   2.0000      -0.473841       -12.8939
  52   2.0000      -0.470971       -12.8158
  53   2.0000      -0.464308       -12.6345
  54   2.0000      -0.460653       -12.5350
  55   2.0000      -0.446190       -12.1415
  56   2.0000      -0.444095       -12.0844
  57   2.0000      -0.430120       -11.7042
  58   2.0000      -0.428553       -11.6615
  59   2.0000      -0.427404       -11.6302
  60   2.0000      -0.419740       -11.4217
  61   2.0000      -0.416581       -11.3357
  62   2.0000      -0.402956       -10.9650
  63   2.0000      -0.336799        -9.1648
  64   2.0000      -0.329798        -8.9743
  65   2.0000      -0.318351        -8.6628
  66   2.0000      -0.310820        -8.4578
  67   0.0000       0.037003         1.0069
  68   0.0000       0.044729         1.2171
  69   0.0000       0.111202         3.0260
  70   0.0000       0.119964         3.2644
  71   0.0000       0.124634         3.3915

MULLIKEN ATOMIC CHARGES
-----------------------
   0 S :    0.106877
   1 C :   -0.113872
   2 C :   -0.059502
   3 C :    0.063858
   4 C :   -0.205816
   5 H :    0.008833
   6 C :    0.066141
   7 H :    0.042214
   8 H :    0.032582
   9 C :   -0.101144
  10 H :    0.030991
  11 H :    0.044431
  12 C :   -0.041172
  13 H :    0.024264
  14 H :    0.037055
  15 H :    0.021398
  16 S :    0.115032
  17 C :   -0.106871
  18 C :   -0.033519
  19 C :    0.000420
  20 C :   -0.197907
  21 H :   -0.006463
  22 C :    0.066907
  23 H :    0.042897
  24 H :    0.029891
  25 C :   -0.112856
  26 H :    0.012957
  27 H :    0.028335
  28 C :   -0.031179
  29 H :    0.048107
  30 H :    0.038135
  31 H :    0.037768
  32 H :    0.031911
  33 H :    0.079299
Sum of atomic charges:   -0.0000000

LOEWDIN ATOMIC CHARGES
----------------------
   0 S :    0.381788
   1 C :   -0.169351
   2 C :   -0.067751
   3 C :   -0.053964
   4 C :   -0.182466
   5 H :    0.028301
   6 C :   -0.024360
   7 H :    0.043574
   8 H :    0.025168
   9 C :   -0.046270
  10 H :    0.025129
  11 H :    0.030450
  12 C :   -0.074620
  13 H :    0.028297
  14 H :    0.030894
  15 H :    0.018080
  16 S :    0.388228
  17 C :   -0.192186
  18 C :   -0.068913
  19 C :   -0.051017
  20 C :   -0.200240
  21 H :    0.016570
  22 C :   -0.032083
  23 H :    0.033887
  24 H :    0.033759
  25 C :   -0.055780
  26 H :    0.020817
  27 H :    0.028940
  28 C :   -0.074360
  29 H :    0.032983
  30 H :    0.030764
  31 H :    0.032246
  32 H :    0.015688
  33 H :    0.047798

  Mayer bond orders larger than 0.100000
B(  0-S ,  1-C ) :   1.1413 B(  0-S ,  4-C ) :   1.1464 B(  1-C ,  2-C ) :   1.5900
B(  1-C ,  4-C ) :   0.1128 B(  1-C , 32-H ) :   0.9785 B(  2-C ,  3-C ) :   1.2374
B(  2-C ,  6-C ) :   1.0111 B(  3-C ,  4-C ) :   1.5948 B(  3-C ,  5-H ) :   0.9873
B(  4-C , 20-C ) :   1.0315 B(  6-C ,  7-H ) :   0.9467 B(  6-C ,  8-H ) :   0.9347
B(  6-C ,  9-C ) :   1.0712 B(  9-C , 10-H ) :   0.9565 B(  9-C , 11-H ) :   0.9502
B(  9-C , 12-C ) :   1.0857 B( 12-C , 13-H ) :   0.9702 B( 12-C , 14-H ) :   0.9729
B( 12-C , 15-H ) :   0.9723 B( 16-S , 17-C ) :   1.1534 B( 16-S , 20-C ) :   1.1215
B( 17-C , 18-C ) :   1.6092 B( 17-C , 20-C ) :   0.1003 B( 17-C , 33-H ) :   0.9602
B( 18-C , 19-C ) :   1.2406 B( 18-C , 21-H ) :   0.9914 B( 19-C , 20-C ) :   1.6207
B( 19-C , 22-C ) :   1.0450 B( 22-C , 23-H ) :   0.9275 B( 22-C , 24-H ) :   0.9338
B( 22-C , 25-C ) :   1.0516 B( 25-C , 26-H ) :   0.9493 B( 25-C , 27-H ) :   0.9507
B( 25-C , 28-C ) :   1.0829 B( 28-C , 29-H ) :   0.9702 B( 28-C , 30-H ) :   0.9703
B( 28-C , 31-H ) :   0.9714

Dispersion correction           -0.014951748
FINAL SINGLE POINT ENERGY     -1339.867203263350

DIPOLE MOMENT
-------------
                                X             Y             Z
Electronic contribution:      5.63514     -12.50708     -27.16647
Nuclear contribution   :     -5.87103      12.61538      27.84841
                        -----------------------------------------
Total Dipole Moment    :     -0.23588       0.10830       0.68194
                        -----------------------------------------
Magnitude (a.u.)       :      0.72967
Magnitude (Debye)      :      1.85467

Rotational constants in cm-1:     0.020070     0.008500     0.006899
Rotational constants in MHz :   601.673214   254.821518   206.840899

                             ****ORCA TERMINATED NORMALLY****
TOTAL RUN TIME: 0 days 0 hours 0 minutes 20 seconds 972 msec
