                         Program Version 4.2.1 -  RELEASE  -
|  1> ! wB97X-D3 SP def2-SVP
|  2> %pal
|  3> nprocs 24
|  4> end
|  5>
|  6> * xyz 0 1
|  7> S 	 -85.7518 	 -5.65783 	 -63.8453
|  8> C 	 -87.2854 	 -6.20677 	 -64.3696
|  9> C 	 -88.1415 	 -6.44382 	 -63.3246
| 10> C 	 -87.4716 	 -6.35909 	 -62.0703
| 11> C 	 -86.201 	 -5.84406 	 -62.1865
| 12> H 	 -87.8732 	 -6.61826 	 -61.0932
| 13> C 	 -89.5726 	 -6.9621 	 -63.4217
| 14> H 	 -89.5789 	 -8.05755 	 -63.124
| 15> H 	 -89.822 	 -7.07046 	 -64.4921
| 16> C 	 -90.601 	 -6.12687 	 -62.7561
| 17> H 	 -90.4473 	 -6.25971 	 -61.6039
| 18> H 	 -90.3795 	 -5.12149 	 -63.0848
| 19> C 	 -92.0837 	 -6.28276 	 -63.2114
| 20> H 	 -92.1002 	 -6.20143 	 -64.3039
| 21> H 	 -92.4572 	 -7.27947 	 -62.9521
| 22> H 	 -92.7773 	 -5.45172 	 -62.8903
| 23> S 	 -84.3234 	 -7.07555 	 -60.5861
| 24> C 	 -83.4658 	 -6.01715 	 -59.4123
| 25> C 	 -83.8564 	 -4.69686 	 -59.4993
| 26> C 	 -84.8507 	 -4.47865 	 -60.4777
| 27> C 	 -85.2385 	 -5.6513 	 -61.0754
| 28> H 	 -83.45 	 -4.01633 	 -58.8279
| 29> C 	 -85.5516 	 -3.10207 	 -60.7568
| 30> H 	 -85.7828 	 -2.54741 	 -59.8273
| 31> H 	 -86.4593 	 -3.26659 	 -61.2843
| 32> C 	 -84.6082 	 -2.13299 	 -61.5713
| 33> H 	 -84.3035 	 -2.59337 	 -62.4237
| 34> H 	 -83.7215 	 -2.00513 	 -60.9319
| 35> C 	 -85.293 	 -0.785995 	 -61.8932
| 36> H 	 -84.5351 	 -0.163007 	 -62.4651
| 37> H 	 -85.8188 	 -0.196529 	 -61.0769
| 38> H 	 -86.0436 	 -1.00055 	 -62.6639
| 39> H 	 -87.5513 	 -6.45568 	 -65.4034
| 40> H 	 -82.803 	 -6.46623 	 -58.7576
| 41> *
| 42>
| 43>                          ****END OF INPUT****

CARTESIAN COORDINATES (ANGSTROEM)
---------------------------------
  S    -85.751800   -5.657830  -63.845300
  C    -87.285400   -6.206770  -64.369600
  C    -88.141500   -6.443820  -63.324600
  C    -87.471600   -6.359090  -62.070300
  C    -86.201000   -5.844060  -62.186500
  H    -87.873200   -6.618260  -61.093200
  C    -89.572600   -6.962100  -63.421700
  H    -89.578900   -8.057550  -63.124000
  H    -89.822000   -7.070460  -64.492100
  C    -90.601000   -6.126870  -62.756100
  H    -90.447300   -6.259710  -61.603900
  H    -90.379500   -5.121490  -63.084800
  C    -92.083700   -6.282760  -63.211400
  H    -92.100200   -6.201430  -64.303900
  H    -92.457200   -7.279470  -62.952100
  H    -92.777300   -5.451720  -62.890300
  S    -84.323400   -7.075550  -60.586100
  C    -83.465800   -6.017150  -59.412300
  C    -83.856400   -4.696860  -59.499300
  C    -84.850700   -4.478650  -60.477700
  C    -85.238500   -5.651300  -61.075400
  H    -83.450000   -4.016330  -58.827900
  C    -85.551600   -3.102070  -60.756800
  H    -85.782800   -2.547410  -59.827300
  H    -86.459300   -3.266590  -61.284300
  C    -84.608200   -2.132990  -61.571300
  H    -84.303500   -2.593370  -62.423700
  H    -83.721500   -2.005130  -60.931900
  C    -85.293000   -0.785995  -61.893200
  H    -84.535100   -0.163007  -62.465100
  H    -85.818800   -0.196529  -61.076900
  H    -86.043600   -1.000550  -62.663900
  H    -87.551300   -6.455680  -65.403400
  H    -82.803000   -6.466230  -58.757600

 Total Charge           Charge          ....    0
 Multiplicity           Mult            ....    1
 Number of Electrons    NEL             ....  134
 Basis Dimension        Dim             ....  322

ORBITAL ENERGIES
----------------

  NO   OCC          E(Eh)            E(eV)
   0   2.0000     -88.966092     -2420.8904
   1   2.0000     -88.964526     -2420.8478
   2   2.0000     -10.323360      -280.9129
   3   2.0000     -10.323152      -280.9073
   4   2.0000     -10.316084      -280.7149
   5   2.0000     -10.311450      -280.5888
   6   2.0000     -10.303139      -280.3627
   7   2.0000     -10.298144      -280.2267
   8   2.0000     -10.294126      -280.1174
   9   2.0000     -10.292927      -280.0848
  10   2.0000     -10.292431      -280.0713
  11   2.0000     -10.291360      -280.0421
  12   2.0000     -10.291315      -280.0409
  13   2.0000     -10.287328      -279.9324
  14   2.0000     -10.286515      -279.9103
  15   2.0000     -10.280543      -279.7478
  16   2.0000      -8.081751      -219.9156
  17   2.0000      -8.078637      -219.8309
  18   2.0000      -6.040114      -164.3599
  19   2.0000      -6.036991      -164.2749
  20   2.0000      -6.036103      -164.2507
  21   2.0000      -6.033417      -164.1776
  22   2.0000      -6.032648      -164.1567
  23   2.0000      -6.029425      -164.0690
  24   2.0000      -1.008887       -27.4532
  25   2.0000      -0.984501       -26.7896
  26   2.0000      -0.913310       -24.8524
  27   2.0000      -0.898736       -24.4558
  28   2.0000      -0.867453       -23.6046
  29   2.0000      -0.848804       -23.0971
  30   2.0000      -0.846032       -23.0217
  31   2.0000      -0.813589       -22.1389
  32   2.0000      -0.780454       -21.2372
  33   2.0000      -0.768855       -20.9216
  34   2.0000      -0.702153       -19.1066
  35   2.0000      -0.697116       -18.9695
  36   2.0000      -0.686295       -18.6750
  37   2.0000      -0.667236       -18.1564
  38   2.0000      -0.642717       -17.4892
  39   2.0000      -0.618144       -16.8205
  40   2.0000      -0.597577       -16.2609
  41   2.0000      -0.572496       -15.5784
  42   2.0000      -0.566732       -15.4216
  43   2.0000      -0.557166       -15.1613
  44   2.0000      -0.520911       -14.1747
  45   2.0000      -0.517734       -14.0883
  46   2.0000      -0.511999       -13.9322
  47   2.0000      -0.509746       -13.8709
  48   2.0000      -0.506409       -13.7801
  49   2.0000      -0.499548       -13.5934
  50   2.0000      -0.483729       -13.1629
  51   2.0000      -0.474924       -12.9233
  52   2.0000      -0.471263       -12.8237
  53   2.0000      -0.465747       -12.6736
  54   2.0000      -0.461819       -12.5667
  55   2.0000      -0.449692       -12.2368
  56   2.0000      -0.446978       -12.1629
  57   2.0000      -0.436002       -11.8642
  58   2.0000      -0.434974       -11.8362
  59   2.0000      -0.422675       -11.5016
  60   2.0000      -0.416408       -11.3310
  61   2.0000      -0.414565       -11.2809
  62   2.0000      -0.411883       -11.2079
  63   2.0000      -0.339136        -9.2284
  64   2.0000      -0.331934        -9.0324
  65   2.0000      -0.320442        -8.7197
  66   2.0000      -0.309966        -8.4346
  67   0.0000       0.048758         1.3268
  68   0.0000       0.055744         1.5169
  69   0.0000       0.108604         2.9553
  70   0.0000       0.123561         3.3623
  71   0.0000       0.126772         3.4496

MULLIKEN ATOMIC CHARGES
-----------------------
   0 S :    0.130585
   1 C :   -0.128433
   2 C :   -0.084804
   3 C :    0.031368
   4 C :   -0.178566
   5 H :    0.018227
   6 C :    0.059657
   7 H :    0.043046
   8 H :   -0.002020
   9 C :   -0.094736
  10 H :    0.050270
  11 H :    0.028973
  12 C :   -0.060459
  13 H :    0.024622
  14 H :    0.035819
  15 H :    0.052639
  16 S :    0.101520
  17 C :   -0.077023
  18 C :    0.003070
  19 C :    0.007166
  20 C :   -0.193288
  21 H :   -0.003430
  22 C :    0.070899
  23 H :    0.029178
  24 H :    0.023760
  25 C :   -0.052317
  26 H :    0.006782
  27 H :    0.026186
  28 C :   -0.076607
  29 H :    0.042959
  30 H :    0.050821
  31 H :    0.030832
  32 H :    0.051715
  33 H :    0.031589
Sum of atomic charges:   -0.0000000

LOEWDIN ATOMIC CHARGES
----------------------
   0 S :    0.430271
   1 C :   -0.211119
   2 C :   -0.067334
   3 C :   -0.057259
   4 C :   -0.208817
   5 H :    0.033897
   6 C :   -0.043349
   7 H :    0.036406
   8 H :    0.024722
   9 C :   -0.052243
  10 H :    0.033573
  11 H :    0.026821
  12 C :   -0.069398
  13 H :    0.024323
  14 H :    0.022980
  15 H :    0.036529
  16 S :    0.379601
  17 C :   -0.148137
  18 C :   -0.058086
  19 C :   -0.052381
  20 C :   -0.197086
  21 H :    0.023573
  22 C :   -0.018851
  23 H :    0.031594
  24 H :    0.022229
  25 C :   -0.030140
  26 H :    0.008886
  27 H :    0.022082
  28 C :   -0.078539
  29 H :    0.034409
  30 H :    0.032461
  31 H :    0.026187
  32 H :    0.032521
  33 H :    0.009675

  Mayer bond orders larger than 0.100000
B(  0-S ,  1-C ) :   1.1507 B(  0-S ,  4-C ) :   1.1633 B(  1-C ,  2-C ) :   1.6167
B(  1-C , 32-H ) :   0.9613 B(  2-C ,  3-C ) :   1.2326 B(  2-C ,  6-C ) :   1.0327
B(  3-C ,  4-C ) :   1.5905 B(  3-C ,  5-H ) :   0.9958 B(  4-C , 20-C ) :   0.9917
B(  6-C ,  7-H ) :   0.9340 B(  6-C ,  8-H ) :   0.9334 B(  6-C ,  9-C ) :   1.0588
B(  9-C , 10-H ) :   0.9514 B(  9-C , 11-H ) :   0.9540 B(  9-C , 12-C ) :   1.0824
B( 12-C , 13-H ) :   0.9713 B( 12-C , 14-H ) :   0.9764 B( 12-C , 15-H ) :   0.9766
B( 16-S , 17-C ) :   1.1409 B( 16-S , 20-C ) :   1.1481 B( 17-C , 18-C ) :   1.6182
B( 17-C , 20-C ) :   0.1006 B( 17-C , 33-H ) :   0.9800 B( 18-C , 19-C ) :   1.2117
B( 18-C , 21-H ) :   1.0035 B( 19-C , 20-C ) :   1.6360 B( 19-C , 22-C ) :   1.0336
B( 22-C , 23-H ) :   0.9458 B( 22-C , 24-H ) :   0.9365 B( 22-C , 25-C ) :   1.0535
B( 25-C , 26-H ) :   0.9526 B( 25-C , 27-H ) :   0.9619 B( 25-C , 28-C ) :   1.0804
B( 28-C , 29-H ) :   0.9727 B( 28-C , 30-H ) :   0.9745 B( 28-C , 31-H ) :   0.9736

Dispersion correction           -0.013993659
FINAL SINGLE POINT ENERGY     -1339.877569508148

DIPOLE MOMENT
-------------
                                X             Y             Z
Electronic contribution:     19.90787     -14.70681       1.76630
Nuclear contribution   :    -20.24154      14.88197      -1.70127
                        -----------------------------------------
Total Dipole Moment    :     -0.33367       0.17516       0.06502
                        -----------------------------------------
Magnitude (a.u.)       :      0.38242
Magnitude (Debye)      :      0.97204

Rotational constants in cm-1:     0.017830     0.007974     0.006759
Rotational constants in MHz :   534.517599   239.055063   202.623435

                             ****ORCA TERMINATED NORMALLY****
TOTAL RUN TIME: 0 days 0 hours 0 minutes 20 seconds 934 msec
