                         Program Version 4.2.1 -  RELEASE  -
|  1> ! wB97X-D3 SP def2-SVP
|  2> %pal
|  3> nprocs 24
|  4> end
|  5>
|  6> * xyz 0 1
|  7> S 	 -101.3 	 48.3834 	 -98.6021
|  8> C 	 -101.097 	 50.1617 	 -98.6739
|  9> C 	 -100.08 	 50.5475 	 -99.4959
| 10> C 	 -99.3335 	 49.3686 	 -99.9045
| 11> C 	 -99.8136 	 48.1357 	 -99.5405
| 12> H 	 -98.3786 	 49.4486 	 -100.431
| 13> C 	 -99.5946 	 51.9979 	 -99.8023
| 14> H 	 -98.5996 	 51.9298 	 -100.253
| 15> H 	 -99.5531 	 52.5432 	 -98.875
| 16> C 	 -100.507 	 52.6776 	 -100.879
| 17> H 	 -101.507 	 52.4041 	 -100.576
| 18> H 	 -100.363 	 53.723 	 -100.824
| 19> C 	 -100.245 	 52.2464 	 -102.341
| 20> H 	 -99.2455 	 52.5239 	 -102.699
| 21> H 	 -100.344 	 51.2383 	 -102.42
| 22> H 	 -100.938 	 52.7918 	 -103.011
| 23> S 	 -98.9604 	 45.8843 	 -98.2459
| 24> C 	 -97.9736 	 44.6774 	 -99.0345
| 25> C 	 -97.8048 	 45.0515 	 -100.345
| 26> C 	 -98.397 	 46.2741 	 -100.695
| 27> C 	 -99.1927 	 46.818 	 -99.6993
| 28> H 	 -97.2234 	 44.4991 	 -101.074
| 29> C 	 -97.9069 	 46.9334 	 -101.998
| 30> H 	 -96.9475 	 46.531 	 -102.195
| 31> H 	 -97.6903 	 48.015 	 -101.895
| 32> C 	 -98.8501 	 46.7606 	 -103.256
| 33> H 	 -98.534 	 47.4744 	 -104.051
| 34> H 	 -99.9003 	 47.0301 	 -103.051
| 35> C 	 -98.793 	 45.3405 	 -103.784
| 36> H 	 -99.4482 	 45.1315 	 -104.633
| 37> H 	 -99.074 	 44.6919 	 -102.899
| 38> H 	 -97.8138 	 45.0641 	 -103.955
| 39> H 	 -101.586 	 50.8732 	 -98.0754
| 40> H 	 -97.726 	 43.6385 	 -98.6721
| 41> *
| 42>
| 43>                          ****END OF INPUT****

CARTESIAN COORDINATES (ANGSTROEM)
---------------------------------
  S    -101.300000   48.383400  -98.602100
  C    -101.097000   50.161700  -98.673900
  C    -100.080000   50.547500  -99.495900
  C    -99.333500   49.368600  -99.904500
  C    -99.813600   48.135700  -99.540500
  H    -98.378600   49.448600  -100.431000
  C    -99.594600   51.997900  -99.802300
  H    -98.599600   51.929800  -100.253000
  H    -99.553100   52.543200  -98.875000
  C    -100.507000   52.677600  -100.879000
  H    -101.507000   52.404100  -100.576000
  H    -100.363000   53.723000  -100.824000
  C    -100.245000   52.246400  -102.341000
  H    -99.245500   52.523900  -102.699000
  H    -100.344000   51.238300  -102.420000
  H    -100.938000   52.791800  -103.011000
  S    -98.960400   45.884300  -98.245900
  C    -97.973600   44.677400  -99.034500
  C    -97.804800   45.051500  -100.345000
  C    -98.397000   46.274100  -100.695000
  C    -99.192700   46.818000  -99.699300
  H    -97.223400   44.499100  -101.074000
  C    -97.906900   46.933400  -101.998000
  H    -96.947500   46.531000  -102.195000
  H    -97.690300   48.015000  -101.895000
  C    -98.850100   46.760600  -103.256000
  H    -98.534000   47.474400  -104.051000
  H    -99.900300   47.030100  -103.051000
  C    -98.793000   45.340500  -103.784000
  H    -99.448200   45.131500  -104.633000
  H    -99.074000   44.691900  -102.899000
  H    -97.813800   45.064100  -103.955000
  H    -101.586000   50.873200  -98.075400
  H    -97.726000   43.638500  -98.672100

 Total Charge           Charge          ....    0
 Multiplicity           Mult            ....    1
 Number of Electrons    NEL             ....  134
 Basis Dimension        Dim             ....  322

ORBITAL ENERGIES
----------------

  NO   OCC          E(Eh)            E(eV)
   0   2.0000     -88.966888     -2420.9121
   1   2.0000     -88.966287     -2420.8957
   2   2.0000     -10.333125      -281.1786
   3   2.0000     -10.330658      -281.1115
   4   2.0000     -10.322587      -280.8919
   5   2.0000     -10.314435      -280.6700
   6   2.0000     -10.304875      -280.4099
   7   2.0000     -10.303026      -280.3596
   8   2.0000     -10.299562      -280.2653
   9   2.0000     -10.296580      -280.1842
  10   2.0000     -10.295794      -280.1628
  11   2.0000     -10.291788      -280.0538
  12   2.0000     -10.289087      -279.9803
  13   2.0000     -10.285441      -279.8811
  14   2.0000     -10.274465      -279.5824
  15   2.0000     -10.271548      -279.5030
  16   2.0000      -8.081705      -219.9144
  17   2.0000      -8.080031      -219.8688
  18   2.0000      -6.040312      -164.3653
  19   2.0000      -6.038795      -164.3240
  20   2.0000      -6.036008      -164.2481
  21   2.0000      -6.034736      -164.2135
  22   2.0000      -6.032505      -164.1528
  23   2.0000      -6.030505      -164.0984
  24   2.0000      -1.008864       -27.4526
  25   2.0000      -0.983674       -26.7671
  26   2.0000      -0.908963       -24.7341
  27   2.0000      -0.905064       -24.6281
  28   2.0000      -0.871367       -23.7111
  29   2.0000      -0.850260       -23.1367
  30   2.0000      -0.840582       -22.8734
  31   2.0000      -0.814850       -22.1732
  32   2.0000      -0.785199       -21.3664
  33   2.0000      -0.775882       -21.1128
  34   2.0000      -0.709190       -19.2980
  35   2.0000      -0.703660       -19.1476
  36   2.0000      -0.690808       -18.7978
  37   2.0000      -0.665328       -18.1045
  38   2.0000      -0.638947       -17.3866
  39   2.0000      -0.616261       -16.7693
  40   2.0000      -0.595771       -16.2118
  41   2.0000      -0.577657       -15.7189
  42   2.0000      -0.554019       -15.0756
  43   2.0000      -0.548807       -14.9338
  44   2.0000      -0.543367       -14.7858
  45   2.0000      -0.538464       -14.6523
  46   2.0000      -0.517963       -14.0945
  47   2.0000      -0.511727       -13.9248
  48   2.0000      -0.504611       -13.7312
  49   2.0000      -0.494472       -13.4553
  50   2.0000      -0.493136       -13.4189
  51   2.0000      -0.478259       -13.0141
  52   2.0000      -0.473424       -12.8825
  53   2.0000      -0.468007       -12.7351
  54   2.0000      -0.462817       -12.5939
  55   2.0000      -0.447529       -12.1779
  56   2.0000      -0.438563       -11.9339
  57   2.0000      -0.435565       -11.8523
  58   2.0000      -0.433971       -11.8090
  59   2.0000      -0.425932       -11.5902
  60   2.0000      -0.422211       -11.4889
  61   2.0000      -0.417150       -11.3512
  62   2.0000      -0.410748       -11.1770
  63   2.0000      -0.350863        -9.5475
  64   2.0000      -0.331256        -9.0139
  65   2.0000      -0.330384        -8.9902
  66   2.0000      -0.296706        -8.0738
  67   0.0000       0.021404         0.5824
  68   0.0000       0.073328         1.9953
  69   0.0000       0.108558         2.9540
  70   0.0000       0.113531         3.0893
  71   0.0000       0.128207         3.4887

MULLIKEN ATOMIC CHARGES
-----------------------
   0 S :    0.097986
   1 C :   -0.103899
   2 C :   -0.104466
   3 C :    0.007690
   4 C :   -0.131705
   5 H :    0.010499
   6 C :    0.070062
   7 H :    0.020297
   8 H :    0.038299
   9 C :   -0.056977
  10 H :    0.025789
  11 H :    0.023792
  12 C :   -0.027322
  13 H :    0.022662
  14 H :    0.019701
  15 H :    0.039508
  16 S :    0.104603
  17 C :   -0.101922
  18 C :   -0.040231
  19 C :   -0.044429
  20 C :   -0.124424
  21 H :    0.018672
  22 C :    0.044441
  23 H :    0.010772
  24 H :    0.027210
  25 C :   -0.075154
  26 H :    0.028996
  27 H :    0.040437
  28 C :   -0.030970
  29 H :    0.045264
  30 H :    0.031483
  31 H :    0.001374
  32 H :    0.028712
  33 H :    0.083250
Sum of atomic charges:   -0.0000000

LOEWDIN ATOMIC CHARGES
----------------------
   0 S :    0.372729
   1 C :   -0.173005
   2 C :   -0.061859
   3 C :   -0.062980
   4 C :   -0.188925
   5 H :    0.027348
   6 C :   -0.021492
   7 H :    0.028328
   8 H :    0.030993
   9 C :   -0.030446
  10 H :    0.021460
  11 H :    0.017145
  12 C :   -0.054526
  13 H :    0.024223
  14 H :    0.010661
  15 H :    0.033231
  16 S :    0.421411
  17 C :   -0.199728
  18 C :   -0.076008
  19 C :   -0.061063
  20 C :   -0.198850
  21 H :    0.029593
  22 C :   -0.024049
  23 H :    0.023257
  24 H :    0.031085
  25 C :   -0.039236
  26 H :    0.022533
  27 H :    0.027375
  28 C :   -0.066845
  29 H :    0.028237
  30 H :    0.033408
  31 H :    0.008706
  32 H :    0.019547
  33 H :    0.047743

  Mayer bond orders larger than 0.100000
B(  0-S ,  1-C ) :   1.1251 B(  0-S ,  4-C ) :   1.1189 B(  1-C ,  2-C ) :   1.6518
B(  1-C , 32-H ) :   0.9661 B(  2-C ,  3-C ) :   1.2233 B(  2-C ,  6-C ) :   1.0101
B(  3-C ,  4-C ) :   1.6180 B(  3-C ,  5-H ) :   0.9820 B(  4-C , 20-C ) :   1.0304
B(  6-C ,  7-H ) :   0.9463 B(  6-C ,  8-H ) :   0.9461 B(  6-C ,  9-C ) :   1.0573
B(  9-C , 10-H ) :   0.9610 B(  9-C , 11-H ) :   0.9586 B(  9-C , 12-C ) :   1.0798
B( 12-C , 13-H ) :   0.9739 B( 12-C , 14-H ) :   0.9790 B( 12-C , 15-H ) :   0.9733
B( 16-S , 17-C ) :   1.1626 B( 16-S , 20-C ) :   1.1544 B( 17-C , 18-C ) :   1.5763
B( 17-C , 20-C ) :   0.1048 B( 17-C , 33-H ) :   0.9575 B( 18-C , 19-C ) :   1.2892
B( 18-C , 21-H ) :   0.9830 B( 19-C , 20-C ) :   1.5792 B( 19-C , 22-C ) :   1.0189
B( 22-C , 23-H ) :   0.9424 B( 22-C , 24-H ) :   0.9431 B( 22-C , 25-C ) :   1.0622
B( 25-C , 26-H ) :   0.9568 B( 25-C , 27-H ) :   0.9608 B( 25-C , 28-C ) :   1.0761
B( 28-C , 29-H ) :   0.9730 B( 28-C , 30-H ) :   0.9716 B( 28-C , 31-H ) :   0.9729

Dispersion correction           -0.014344320
FINAL SINGLE POINT ENERGY     -1339.871179695577

DIPOLE MOMENT
-------------
                                X             Y             Z
Electronic contribution:     -4.85648     -12.89094      24.57842
Nuclear contribution   :      5.33238      13.29045     -25.01109
                        -----------------------------------------
Total Dipole Moment    :      0.47589       0.39951      -0.43267
                        -----------------------------------------
Magnitude (a.u.)       :      0.75716
Magnitude (Debye)      :      1.92454

Rotational constants in cm-1:     0.018597     0.008953     0.006673
Rotational constants in MHz :   557.526929   268.411380   200.044647

                             ****ORCA TERMINATED NORMALLY****
TOTAL RUN TIME: 0 days 0 hours 0 minutes 21 seconds 735 msec
