                         Program Version 4.2.1 -  RELEASE  -
|  1> ! wB97X-D3 SP def2-SVP
|  2> %pal
|  3> nprocs 24
|  4> end
|  5>
|  6> * xyz 0 1
|  7> S 	 -119.089 	 27.0605 	 -19.0062
|  8> C 	 -118.835 	 26.0394 	 -20.4431
|  9> C 	 -117.463 	 25.8333 	 -20.6726
| 10> C 	 -116.653 	 26.3967 	 -19.616
| 11> C 	 -117.389 	 27.1267 	 -18.7133
| 12> H 	 -115.598 	 26.3842 	 -19.5404
| 13> C 	 -116.947 	 24.9751 	 -21.7165
| 14> H 	 -117.815 	 24.5197 	 -22.1325
| 15> H 	 -116.402 	 24.1985 	 -21.2485
| 16> C 	 -116.153 	 25.6887 	 -22.79
| 17> H 	 -116.888 	 26.2288 	 -23.4547
| 18> H 	 -115.434 	 26.4071 	 -22.4033
| 19> C 	 -115.372 	 24.7352 	 -23.7672
| 20> H 	 -114.361 	 24.5409 	 -23.4063
| 21> H 	 -115.844 	 23.8176 	 -23.9463
| 22> H 	 -115.211 	 25.0668 	 -24.7324
| 23> S 	 -116.282 	 26.9795 	 -16.1923
| 24> C 	 -115.425 	 28.3932 	 -15.5769
| 25> C 	 -115.55 	 29.4231 	 -16.4921
| 26> C 	 -116.191 	 29.0623 	 -17.7183
| 27> C 	 -116.809 	 27.851 	 -17.6271
| 28> H 	 -114.952 	 30.2824 	 -16.3122
| 29> C 	 -116.197 	 29.9426 	 -19.0242
| 30> H 	 -117.112 	 29.6569 	 -19.5487
| 31> H 	 -115.393 	 29.4605 	 -19.6363
| 32> C 	 -116.019 	 31.4837 	 -19.0222
| 33> H 	 -115.998 	 31.7073 	 -20.0521
| 34> H 	 -115.111 	 31.8088 	 -18.5818
| 35> C 	 -117.07 	 32.3261 	 -18.2894
| 36> H 	 -116.787 	 33.3422 	 -18.4046
| 37> H 	 -117.212 	 32.1008 	 -17.2139
| 38> H 	 -118.097 	 32.0826 	 -18.7121
| 39> H 	 -119.551 	 25.4545 	 -21.0215
| 40> H 	 -115.044 	 28.4339 	 -14.6307
| 41> *
| 42>
| 43>                          ****END OF INPUT****

CARTESIAN COORDINATES (ANGSTROEM)
---------------------------------
  S    -119.089000   27.060500  -19.006200
  C    -118.835000   26.039400  -20.443100
  C    -117.463000   25.833300  -20.672600
  C    -116.653000   26.396700  -19.616000
  C    -117.389000   27.126700  -18.713300
  H    -115.598000   26.384200  -19.540400
  C    -116.947000   24.975100  -21.716500
  H    -117.815000   24.519700  -22.132500
  H    -116.402000   24.198500  -21.248500
  C    -116.153000   25.688700  -22.790000
  H    -116.888000   26.228800  -23.454700
  H    -115.434000   26.407100  -22.403300
  C    -115.372000   24.735200  -23.767200
  H    -114.361000   24.540900  -23.406300
  H    -115.844000   23.817600  -23.946300
  H    -115.211000   25.066800  -24.732400
  S    -116.282000   26.979500  -16.192300
  C    -115.425000   28.393200  -15.576900
  C    -115.550000   29.423100  -16.492100
  C    -116.191000   29.062300  -17.718300
  C    -116.809000   27.851000  -17.627100
  H    -114.952000   30.282400  -16.312200
  C    -116.197000   29.942600  -19.024200
  H    -117.112000   29.656900  -19.548700
  H    -115.393000   29.460500  -19.636300
  C    -116.019000   31.483700  -19.022200
  H    -115.998000   31.707300  -20.052100
  H    -115.111000   31.808800  -18.581800
  C    -117.070000   32.326100  -18.289400
  H    -116.787000   33.342200  -18.404600
  H    -117.212000   32.100800  -17.213900
  H    -118.097000   32.082600  -18.712100
  H    -119.551000   25.454500  -21.021500
  H    -115.044000   28.433900  -14.630700

 Total Charge           Charge          ....    0
 Multiplicity           Mult            ....    1
 Number of Electrons    NEL             ....  134
 Basis Dimension        Dim             ....  322

ORBITAL ENERGIES
----------------

  NO   OCC          E(Eh)            E(eV)
   0   2.0000     -88.968324     -2420.9512
   1   2.0000     -88.961350     -2420.7614
   2   2.0000     -10.321798      -280.8704
   3   2.0000     -10.316538      -280.7273
   4   2.0000     -10.315702      -280.7045
   5   2.0000     -10.313735      -280.6510
   6   2.0000     -10.303883      -280.3829
   7   2.0000     -10.298495      -280.2363
   8   2.0000     -10.298405      -280.2339
   9   2.0000     -10.292898      -280.0840
  10   2.0000     -10.291085      -280.0347
  11   2.0000     -10.289473      -279.9908
  12   2.0000     -10.283793      -279.8362
  13   2.0000     -10.280814      -279.7552
  14   2.0000     -10.278793      -279.7002
  15   2.0000     -10.268681      -279.4250
  16   2.0000      -8.082468      -219.9351
  17   2.0000      -8.075951      -219.7578
  18   2.0000      -6.040986      -164.3836
  19   2.0000      -6.037017      -164.2756
  20   2.0000      -6.034457      -164.2059
  21   2.0000      -6.033291      -164.1742
  22   2.0000      -6.030476      -164.0976
  23   2.0000      -6.026726      -163.9955
  24   2.0000      -1.007360       -27.4116
  25   2.0000      -0.981290       -26.7023
  26   2.0000      -0.919687       -25.0260
  27   2.0000      -0.901702       -24.5366
  28   2.0000      -0.871295       -23.7091
  29   2.0000      -0.849589       -23.1185
  30   2.0000      -0.845417       -23.0050
  31   2.0000      -0.815745       -22.1975
  32   2.0000      -0.786134       -21.3918
  33   2.0000      -0.775369       -21.0989
  34   2.0000      -0.713882       -19.4257
  35   2.0000      -0.701301       -19.0834
  36   2.0000      -0.699788       -19.0422
  37   2.0000      -0.658786       -17.9265
  38   2.0000      -0.641760       -17.4632
  39   2.0000      -0.618525       -16.8309
  40   2.0000      -0.596785       -16.2394
  41   2.0000      -0.572566       -15.5803
  42   2.0000      -0.561569       -15.2811
  43   2.0000      -0.551804       -15.0153
  44   2.0000      -0.538606       -14.6562
  45   2.0000      -0.528207       -14.3733
  46   2.0000      -0.521482       -14.1903
  47   2.0000      -0.518970       -14.1219
  48   2.0000      -0.505860       -13.7652
  49   2.0000      -0.502303       -13.6684
  50   2.0000      -0.495001       -13.4697
  51   2.0000      -0.480001       -13.0615
  52   2.0000      -0.467403       -12.7187
  53   2.0000      -0.462186       -12.5767
  54   2.0000      -0.457254       -12.4425
  55   2.0000      -0.449986       -12.2447
  56   2.0000      -0.439694       -11.9647
  57   2.0000      -0.436238       -11.8706
  58   2.0000      -0.435366       -11.8469
  59   2.0000      -0.428592       -11.6626
  60   2.0000      -0.420019       -11.4293
  61   2.0000      -0.416216       -11.3258
  62   2.0000      -0.412689       -11.2298
  63   2.0000      -0.334133        -9.0922
  64   2.0000      -0.326919        -8.8959
  65   2.0000      -0.320107        -8.7106
  66   2.0000      -0.310124        -8.4389
  67   0.0000       0.047212         1.2847
  68   0.0000       0.051807         1.4097
  69   0.0000       0.112847         3.0707
  70   0.0000       0.123689         3.3657
  71   0.0000       0.129673         3.5286

MULLIKEN ATOMIC CHARGES
-----------------------
   0 S :    0.123198
   1 C :   -0.117368
   2 C :   -0.124078
   3 C :    0.062991
   4 C :   -0.191636
   5 H :    0.000432
   6 C :    0.135648
   7 H :   -0.004590
   8 H :    0.024244
   9 C :   -0.100534
  10 H :    0.035957
  11 H :    0.036211
  12 C :   -0.006838
  13 H :    0.025376
  14 H :    0.010432
  15 H :    0.009196
  16 S :    0.096511
  17 C :   -0.071203
  18 C :   -0.013288
  19 C :   -0.049428
  20 C :   -0.164996
  21 H :    0.010930
  22 C :    0.048352
  23 H :    0.034521
  24 H :    0.041490
  25 C :   -0.012187
  26 H :    0.024227
  27 H :    0.016468
  28 C :   -0.071162
  29 H :    0.036165
  30 H :    0.041242
  31 H :    0.034156
  32 H :    0.048367
  33 H :    0.031195
Sum of atomic charges:    0.0000000

LOEWDIN ATOMIC CHARGES
----------------------
   0 S :    0.409665
   1 C :   -0.201987
   2 C :   -0.053723
   3 C :   -0.052856
   4 C :   -0.203955
   5 H :    0.025406
   6 C :   -0.034047
   7 H :    0.027980
   8 H :    0.030284
   9 C :   -0.033722
  10 H :    0.032143
  11 H :    0.023587
  12 C :   -0.063005
  13 H :    0.026329
  14 H :    0.018041
  15 H :    0.017047
  16 S :    0.394422
  17 C :   -0.159600
  18 C :   -0.072875
  19 C :   -0.048040
  20 C :   -0.211995
  21 H :    0.025427
  22 C :   -0.031346
  23 H :    0.031327
  24 H :    0.041159
  25 C :   -0.036376
  26 H :    0.026288
  27 H :    0.018186
  28 C :   -0.066956
  29 H :    0.022354
  30 H :    0.028945
  31 H :    0.030322
  32 H :    0.030571
  33 H :    0.010999

  Mayer bond orders larger than 0.100000
B(  0-S ,  1-C ) :   1.1238 B(  0-S ,  4-C ) :   1.1514 B(  1-C ,  2-C ) :   1.6228
B(  1-C , 32-H ) :   0.9617 B(  2-C ,  3-C ) :   1.2131 B(  2-C ,  6-C ) :   1.0475
B(  3-C ,  4-C ) :   1.5940 B(  3-C ,  5-H ) :   0.9996 B(  4-C , 20-C ) :   1.0034
B(  6-C ,  7-H ) :   0.9193 B(  6-C ,  8-H ) :   0.9343 B(  6-C ,  9-C ) :   1.0541
B(  9-C , 10-H ) :   0.9562 B(  9-C , 11-H ) :   0.9683 B(  9-C , 12-C ) :   1.0716
B( 12-C , 13-H ) :   0.9761 B( 12-C , 14-H ) :   0.9734 B( 12-C , 15-H ) :   0.9751
B( 16-S , 17-C ) :   1.1602 B( 16-S , 20-C ) :   1.1371 B( 17-C , 18-C ) :   1.6098
B( 17-C , 20-C ) :   0.1007 B( 17-C , 33-H ) :   0.9779 B( 18-C , 19-C ) :   1.2404
B( 18-C , 21-H ) :   0.9900 B( 19-C , 20-C ) :   1.6200 B( 19-C , 22-C ) :   1.0159
B( 22-C , 23-H ) :   0.9334 B( 22-C , 24-H ) :   0.9293 B( 22-C , 25-C ) :   1.0729
B( 25-C , 26-H ) :   0.9473 B( 25-C , 27-H ) :   0.9521 B( 25-C , 28-C ) :   1.0800
B( 28-C , 29-H ) :   0.9751 B( 28-C , 30-H ) :   0.9756 B( 28-C , 31-H ) :   0.9751

Dispersion correction           -0.014308597
FINAL SINGLE POINT ENERGY     -1339.862465767233

DIPOLE MOMENT
-------------
                                X             Y             Z
Electronic contribution:     -9.17551      -7.65778      21.20460
Nuclear contribution   :      9.69040       7.77763     -21.70379
                        -----------------------------------------
Total Dipole Moment    :      0.51488       0.11985      -0.49919
                        -----------------------------------------
Magnitude (a.u.)       :      0.72709
Magnitude (Debye)      :      1.84811

Rotational constants in cm-1:     0.018089     0.007824     0.007018
Rotational constants in MHz :   542.284013   234.545762   210.404625

                             ****ORCA TERMINATED NORMALLY****
TOTAL RUN TIME: 0 days 0 hours 0 minutes 20 seconds 205 msec
