                         Program Version 4.2.1 -  RELEASE  -
|  1> ! wB97X-D3 SP def2-SVP
|  2> %pal
|  3> nprocs 24
|  4> end
|  5>
|  6> * xyz 0 1
|  7> S 	 -49.5177 	 18.0937 	 -87.468
|  8> C 	 -50.3349 	 18.9375 	 -88.7565
|  9> C 	 -51.4962 	 19.5368 	 -88.2571
| 10> C 	 -51.484 	 19.4391 	 -86.797
| 11> C 	 -50.4966 	 18.6799 	 -86.2167
| 12> H 	 -52.2132 	 19.9721 	 -86.1424
| 13> C 	 -52.5253 	 20.3267 	 -89.0366
| 14> H 	 -52.221 	 20.1617 	 -90.1133
| 15> H 	 -52.3589 	 21.3937 	 -88.8252
| 16> C 	 -54.0204 	 19.9217 	 -88.9187
| 17> H 	 -54.197 	 18.8834 	 -89.0354
| 18> H 	 -54.5031 	 20.1472 	 -87.9755
| 19> C 	 -54.8558 	 20.5024 	 -90.0214
| 20> H 	 -54.353 	 20.2031 	 -90.9161
| 21> H 	 -55.8706 	 20.2681 	 -90.0781
| 22> H 	 -54.8272 	 21.5703 	 -89.8258
| 23> S 	 -50.1641 	 16.5843 	 -84.4256
| 24> C 	 -49.9192 	 16.9865 	 -82.7666
| 25> C 	 -50.1157 	 18.3031 	 -82.5564
| 26> C 	 -50.5725 	 19.02 	 -83.6884
| 27> C 	 -50.4882 	 18.2504 	 -84.8298
| 28> H 	 -49.8941 	 18.7877 	 -81.5728
| 29> C 	 -50.8323 	 20.4926 	 -83.6191
| 30> H 	 -50.4832 	 21.073 	 -84.4275
| 31> H 	 -50.3901 	 20.8983 	 -82.6728
| 32> C 	 -52.3043 	 20.8761 	 -83.4305
| 33> H 	 -52.4849 	 20.5874 	 -82.3533
| 34> H 	 -52.9236 	 20.3106 	 -84.0135
| 35> C 	 -52.4803 	 22.373 	 -83.5911
| 36> H 	 -53.5934 	 22.6321 	 -83.5214
| 37> H 	 -52.0686 	 22.6467 	 -84.5544
| 38> H 	 -52.04 	 22.8419 	 -82.722
| 39> H 	 -49.9742 	 18.9871 	 -89.7948
| 40> H 	 -49.545 	 16.2361 	 -81.9704
| 41> *
| 42>
| 43>                          ****END OF INPUT****

CARTESIAN COORDINATES (ANGSTROEM)
---------------------------------
  S    -49.517700   18.093700  -87.468000
  C    -50.334900   18.937500  -88.756500
  C    -51.496200   19.536800  -88.257100
  C    -51.484000   19.439100  -86.797000
  C    -50.496600   18.679900  -86.216700
  H    -52.213200   19.972100  -86.142400
  C    -52.525300   20.326700  -89.036600
  H    -52.221000   20.161700  -90.113300
  H    -52.358900   21.393700  -88.825200
  C    -54.020400   19.921700  -88.918700
  H    -54.197000   18.883400  -89.035400
  H    -54.503100   20.147200  -87.975500
  C    -54.855800   20.502400  -90.021400
  H    -54.353000   20.203100  -90.916100
  H    -55.870600   20.268100  -90.078100
  H    -54.827200   21.570300  -89.825800
  S    -50.164100   16.584300  -84.425600
  C    -49.919200   16.986500  -82.766600
  C    -50.115700   18.303100  -82.556400
  C    -50.572500   19.020000  -83.688400
  C    -50.488200   18.250400  -84.829800
  H    -49.894100   18.787700  -81.572800
  C    -50.832300   20.492600  -83.619100
  H    -50.483200   21.073000  -84.427500
  H    -50.390100   20.898300  -82.672800
  C    -52.304300   20.876100  -83.430500
  H    -52.484900   20.587400  -82.353300
  H    -52.923600   20.310600  -84.013500
  C    -52.480300   22.373000  -83.591100
  H    -53.593400   22.632100  -83.521400
  H    -52.068600   22.646700  -84.554400
  H    -52.040000   22.841900  -82.722000
  H    -49.974200   18.987100  -89.794800
  H    -49.545000   16.236100  -81.970400

 Total Charge           Charge          ....    0
 Multiplicity           Mult            ....    1
 Number of Electrons    NEL             ....  134
 Basis Dimension        Dim             ....  322

ORBITAL ENERGIES
----------------

  NO   OCC          E(Eh)            E(eV)
   0   2.0000     -88.965370     -2420.8708
   1   2.0000     -88.964859     -2420.8569
   2   2.0000     -10.327011      -281.0123
   3   2.0000     -10.325211      -280.9633
   4   2.0000     -10.320093      -280.8240
   5   2.0000     -10.317602      -280.7562
   6   2.0000     -10.308395      -280.5057
   7   2.0000     -10.304113      -280.3892
   8   2.0000     -10.298821      -280.2452
   9   2.0000     -10.295065      -280.1430
  10   2.0000     -10.292122      -280.0629
  11   2.0000     -10.286460      -279.9088
  12   2.0000     -10.282770      -279.8084
  13   2.0000     -10.282209      -279.7931
  14   2.0000     -10.278564      -279.6940
  15   2.0000     -10.268430      -279.4182
  16   2.0000      -8.081108      -219.8981
  17   2.0000      -8.080349      -219.8775
  18   2.0000      -6.039683      -164.3481
  19   2.0000      -6.038849      -164.3254
  20   2.0000      -6.035281      -164.2283
  21   2.0000      -6.034781      -164.2148
  22   2.0000      -6.031902      -164.1364
  23   2.0000      -6.031036      -164.1128
  24   2.0000      -1.015287       -27.6274
  25   2.0000      -0.992056       -26.9952
  26   2.0000      -0.918254       -24.9870
  27   2.0000      -0.916134       -24.9293
  28   2.0000      -0.876439       -23.8491
  29   2.0000      -0.856178       -23.2978
  30   2.0000      -0.848440       -23.0872
  31   2.0000      -0.814196       -22.1554
  32   2.0000      -0.781831       -21.2747
  33   2.0000      -0.772623       -21.0241
  34   2.0000      -0.707508       -19.2523
  35   2.0000      -0.699233       -19.0271
  36   2.0000      -0.691157       -18.8073
  37   2.0000      -0.661133       -17.9904
  38   2.0000      -0.639506       -17.4018
  39   2.0000      -0.618837       -16.8394
  40   2.0000      -0.602240       -16.3878
  41   2.0000      -0.579150       -15.7595
  42   2.0000      -0.575185       -15.6516
  43   2.0000      -0.568760       -15.4768
  44   2.0000      -0.532543       -14.4912
  45   2.0000      -0.523852       -14.2547
  46   2.0000      -0.517927       -14.0935
  47   2.0000      -0.511094       -13.9076
  48   2.0000      -0.506470       -13.7817
  49   2.0000      -0.505173       -13.7465
  50   2.0000      -0.498845       -13.5743
  51   2.0000      -0.479782       -13.0555
  52   2.0000      -0.474885       -12.9223
  53   2.0000      -0.462017       -12.5721
  54   2.0000      -0.458782       -12.4841
  55   2.0000      -0.451967       -12.2986
  56   2.0000      -0.450477       -12.2581
  57   2.0000      -0.431893       -11.7524
  58   2.0000      -0.427086       -11.6216
  59   2.0000      -0.424665       -11.5557
  60   2.0000      -0.421611       -11.4726
  61   2.0000      -0.417517       -11.3612
  62   2.0000      -0.414633       -11.2827
  63   2.0000      -0.354815        -9.6550
  64   2.0000      -0.332522        -9.0484
  65   2.0000      -0.326069        -8.8728
  66   2.0000      -0.290377        -7.9016
  67   0.0000       0.031171         0.8482
  68   0.0000       0.076456         2.0805
  69   0.0000       0.117232         3.1901
  70   0.0000       0.122438         3.3317
  71   0.0000       0.129520         3.5244

MULLIKEN ATOMIC CHARGES
-----------------------
   0 S :    0.110809
   1 C :   -0.138536
   2 C :   -0.074935
   3 C :   -0.015365
   4 C :   -0.114372
   5 H :    0.009819
   6 C :    0.036559
   7 H :    0.020177
   8 H :    0.050180
   9 C :   -0.049815
  10 H :    0.019102
  11 H :    0.024211
  12 C :   -0.026090
  13 H :    0.022104
  14 H :    0.024582
  15 H :    0.020894
  16 S :    0.112681
  17 C :   -0.124972
  18 C :   -0.041527
  19 C :   -0.007421
  20 C :   -0.152021
  21 H :    0.032095
  22 C :    0.039547
  23 H :    0.016175
  24 H :    0.018409
  25 C :   -0.084474
  26 H :    0.021960
  27 H :    0.017219
  28 C :   -0.029610
  29 H :    0.043005
  30 H :    0.034728
  31 H :    0.032621
  32 H :    0.063999
  33 H :    0.088262
Sum of atomic charges:   -0.0000000

LOEWDIN ATOMIC CHARGES
----------------------
   0 S :    0.433279
   1 C :   -0.205534
   2 C :   -0.062796
   3 C :   -0.072825
   4 C :   -0.217198
   5 H :    0.030072
   6 C :   -0.032994
   7 H :    0.035717
   8 H :    0.037661
   9 C :   -0.039866
  10 H :    0.021612
  11 H :    0.020873
  12 C :   -0.054873
  13 H :    0.021610
  14 H :    0.018894
  15 H :    0.024197
  16 S :    0.413499
  17 C :   -0.210309
  18 C :   -0.078152
  19 C :   -0.057384
  20 C :   -0.190584
  21 H :    0.039230
  22 C :   -0.030293
  23 H :    0.018521
  24 H :    0.034410
  25 C :   -0.036674
  26 H :    0.027844
  27 H :    0.001576
  28 C :   -0.061579
  29 H :    0.035776
  30 H :    0.022596
  31 H :    0.026209
  32 H :    0.036104
  33 H :    0.051381

  Mayer bond orders larger than 0.100000
B(  0-S ,  1-C ) :   1.1493 B(  0-S ,  4-C ) :   1.1563 B(  1-C ,  2-C ) :   1.5804
B(  1-C , 32-H ) :   0.9675 B(  2-C ,  3-C ) :   1.2569 B(  2-C ,  6-C ) :   1.0318
B(  3-C ,  4-C ) :   1.5460 B(  3-C ,  5-H ) :   0.9871 B(  4-C , 20-C ) :   1.0552
B(  6-C ,  7-H ) :   0.9425 B(  6-C ,  8-H ) :   0.9379 B(  6-C ,  9-C ) :   1.0526
B(  9-C , 10-H ) :   0.9579 B(  9-C , 11-H ) :   0.9531 B(  9-C , 12-C ) :   1.0868
B( 12-C , 13-H ) :   0.9766 B( 12-C , 14-H ) :   0.9742 B( 12-C , 15-H ) :   0.9757
B( 16-S , 17-C ) :   1.1458 B( 16-S , 20-C ) :   1.1425 B( 17-C , 18-C ) :   1.6205
B( 17-C , 33-H ) :   0.9536 B( 18-C , 19-C ) :   1.2624 B( 18-C , 21-H ) :   0.9800
B( 19-C , 20-C ) :   1.5765 B( 19-C , 22-C ) :   1.0555 B( 22-C , 23-H ) :   0.9377
B( 22-C , 24-H ) :   0.9394 B( 22-C , 25-C ) :   1.0427 B( 25-C , 26-H ) :   0.9533
B( 25-C , 27-H ) :   0.9592 B( 25-C , 28-C ) :   1.0824 B( 28-C , 29-H ) :   0.9731
B( 28-C , 30-H ) :   0.9732 B( 28-C , 31-H ) :   0.9729

Dispersion correction           -0.013801660
FINAL SINGLE POINT ENERGY     -1339.865873710892

DIPOLE MOMENT
-------------
                                X             Y             Z
Electronic contribution:     20.89257     -22.85047       3.70611
Nuclear contribution   :    -21.24429      23.36558      -3.64338
                        -----------------------------------------
Total Dipole Moment    :     -0.35172       0.51512       0.06272
                        -----------------------------------------
Magnitude (a.u.)       :      0.62689
Magnitude (Debye)      :      1.59342

Rotational constants in cm-1:     0.017506     0.008938     0.006663
Rotational constants in MHz :   524.805351   267.940578   199.750330

                             ****ORCA TERMINATED NORMALLY****
TOTAL RUN TIME: 0 days 0 hours 0 minutes 20 seconds 524 msec
