                         Program Version 4.2.1 -  RELEASE  -
|  1> ! wB97X-D3 SP def2-SVP
|  2> %pal
|  3> nprocs 24
|  4> end
|  5>
|  6> * xyz 0 1
|  7> S 	 -68.1606 	 20.9019 	 -113.916
|  8> C 	 -68.6434 	 21.3335 	 -115.531
|  9> C 	 -67.8979 	 20.6381 	 -116.48
| 10> C 	 -66.99 	 19.7983 	 -115.91
| 11> C 	 -66.8964 	 19.8607 	 -114.539
| 12> H 	 -66.3579 	 19.0853 	 -116.457
| 13> C 	 -68.0521 	 20.9181 	 -117.998
| 14> H 	 -67.121 	 21.0442 	 -118.549
| 15> H 	 -68.5158 	 21.9018 	 -117.99
| 16> C 	 -69.0442 	 20.0261 	 -118.713
| 17> H 	 -68.728 	 18.9679 	 -118.795
| 18> H 	 -69.8366 	 19.8403 	 -117.986
| 19> C 	 -69.3987 	 20.4669 	 -120.12
| 20> H 	 -68.4902 	 20.354 	 -120.701
| 21> H 	 -70.1661 	 19.7795 	 -120.442
| 22> H 	 -69.7208 	 21.5164 	 -120.179
| 23> S 	 -66.9474 	 18.1063 	 -112.338
| 24> C 	 -65.4983 	 17.0862 	 -112.12
| 25> C 	 -64.5147 	 17.2291 	 -113.079
| 26> C 	 -64.8883 	 18.2994 	 -113.997
| 27> C 	 -66.1276 	 18.9216 	 -113.727
| 28> H 	 -63.5643 	 16.6602 	 -113.05
| 29> C 	 -63.9187 	 18.5485 	 -115.119
| 30> H 	 -64.1333 	 19.4973 	 -115.629
| 31> H 	 -64.2214 	 17.8215 	 -115.881
| 32> C 	 -62.4096 	 18.3925 	 -114.872
| 33> H 	 -62.286 	 17.3268 	 -114.518
| 34> H 	 -62.1938 	 18.8761 	 -113.936
| 35> C 	 -61.4434 	 18.8375 	 -116.006
| 36> H 	 -61.7011 	 19.8338 	 -116.393
| 37> H 	 -61.5665 	 18.1613 	 -116.861
| 38> H 	 -60.3402 	 18.7375 	 -115.702
| 39> H 	 -69.4978 	 21.9678 	 -115.744
| 40> H 	 -65.3987 	 16.4079 	 -111.293
| 41> *
| 42>
| 43>                          ****END OF INPUT****

CARTESIAN COORDINATES (ANGSTROEM)
---------------------------------
  S    -68.160600   20.901900  -113.916000
  C    -68.643400   21.333500  -115.531000
  C    -67.897900   20.638100  -116.480000
  C    -66.990000   19.798300  -115.910000
  C    -66.896400   19.860700  -114.539000
  H    -66.357900   19.085300  -116.457000
  C    -68.052100   20.918100  -117.998000
  H    -67.121000   21.044200  -118.549000
  H    -68.515800   21.901800  -117.990000
  C    -69.044200   20.026100  -118.713000
  H    -68.728000   18.967900  -118.795000
  H    -69.836600   19.840300  -117.986000
  C    -69.398700   20.466900  -120.120000
  H    -68.490200   20.354000  -120.701000
  H    -70.166100   19.779500  -120.442000
  H    -69.720800   21.516400  -120.179000
  S    -66.947400   18.106300  -112.338000
  C    -65.498300   17.086200  -112.120000
  C    -64.514700   17.229100  -113.079000
  C    -64.888300   18.299400  -113.997000
  C    -66.127600   18.921600  -113.727000
  H    -63.564300   16.660200  -113.050000
  C    -63.918700   18.548500  -115.119000
  H    -64.133300   19.497300  -115.629000
  H    -64.221400   17.821500  -115.881000
  C    -62.409600   18.392500  -114.872000
  H    -62.286000   17.326800  -114.518000
  H    -62.193800   18.876100  -113.936000
  C    -61.443400   18.837500  -116.006000
  H    -61.701100   19.833800  -116.393000
  H    -61.566500   18.161300  -116.861000
  H    -60.340200   18.737500  -115.702000
  H    -69.497800   21.967800  -115.744000
  H    -65.398700   16.407900  -111.293000

 Total Charge           Charge          ....    0
 Multiplicity           Mult            ....    1
 Number of Electrons    NEL             ....  134
 Basis Dimension        Dim             ....  322

ORBITAL ENERGIES
----------------

  NO   OCC          E(Eh)            E(eV)
   0   2.0000     -88.969902     -2420.9941
   1   2.0000     -88.966924     -2420.9131
   2   2.0000     -10.333493      -281.1886
   3   2.0000     -10.327789      -281.0334
   4   2.0000     -10.320795      -280.8431
   5   2.0000     -10.315926      -280.7106
   6   2.0000     -10.310385      -280.5599
   7   2.0000     -10.300165      -280.2818
   8   2.0000     -10.298335      -280.2319
   9   2.0000     -10.293673      -280.1051
  10   2.0000     -10.293234      -280.0931
  11   2.0000     -10.292396      -280.0703
  12   2.0000     -10.291697      -280.0513
  13   2.0000     -10.288272      -279.9581
  14   2.0000     -10.282577      -279.8032
  15   2.0000     -10.279216      -279.7117
  16   2.0000      -8.084568      -219.9923
  17   2.0000      -8.080263      -219.8751
  18   2.0000      -6.042910      -164.4359
  19   2.0000      -6.039060      -164.3312
  20   2.0000      -6.038941      -164.3279
  21   2.0000      -6.035551      -164.2357
  22   2.0000      -6.035167      -164.2252
  23   2.0000      -6.030722      -164.1043
  24   2.0000      -1.007520       -27.4160
  25   2.0000      -0.977892       -26.6098
  26   2.0000      -0.913775       -24.8651
  27   2.0000      -0.906079       -24.6557
  28   2.0000      -0.869121       -23.6500
  29   2.0000      -0.855934       -23.2912
  30   2.0000      -0.843926       -22.9644
  31   2.0000      -0.814415       -22.1613
  32   2.0000      -0.783824       -21.3289
  33   2.0000      -0.769221       -20.9316
  34   2.0000      -0.710456       -19.3325
  35   2.0000      -0.699678       -19.0392
  36   2.0000      -0.697006       -18.9665
  37   2.0000      -0.654551       -17.8112
  38   2.0000      -0.642029       -17.4705
  39   2.0000      -0.623190       -16.9579
  40   2.0000      -0.596698       -16.2370
  41   2.0000      -0.573040       -15.5932
  42   2.0000      -0.557850       -15.1799
  43   2.0000      -0.556133       -15.1331
  44   2.0000      -0.534697       -14.5498
  45   2.0000      -0.522289       -14.2122
  46   2.0000      -0.512805       -13.9541
  47   2.0000      -0.509960       -13.8767
  48   2.0000      -0.502188       -13.6652
  49   2.0000      -0.497517       -13.5381
  50   2.0000      -0.490712       -13.3530
  51   2.0000      -0.480695       -13.0804
  52   2.0000      -0.472476       -12.8567
  53   2.0000      -0.467825       -12.7302
  54   2.0000      -0.464374       -12.6363
  55   2.0000      -0.453715       -12.3462
  56   2.0000      -0.447056       -12.1650
  57   2.0000      -0.442109       -12.0304
  58   2.0000      -0.429962       -11.6999
  59   2.0000      -0.424996       -11.5647
  60   2.0000      -0.423063       -11.5121
  61   2.0000      -0.411150       -11.1880
  62   2.0000      -0.405318       -11.0293
  63   2.0000      -0.353484        -9.6188
  64   2.0000      -0.337508        -9.1841
  65   2.0000      -0.328948        -8.9511
  66   2.0000      -0.282868        -7.6972
  67   0.0000       0.022008         0.5989
  68   0.0000       0.073891         2.0107
  69   0.0000       0.099336         2.7031
  70   0.0000       0.119537         3.2528
  71   0.0000       0.138601         3.7715

MULLIKEN ATOMIC CHARGES
-----------------------
   0 S :    0.111954
   1 C :   -0.128682
   2 C :   -0.076839
   3 C :    0.000635
   4 C :   -0.144006
   5 H :    0.013512
   6 C :    0.083066
   7 H :    0.027852
   8 H :    0.009038
   9 C :   -0.098080
  10 H :    0.018099
  11 H :    0.016456
  12 C :   -0.013626
  13 H :    0.031652
  14 H :    0.040544
  15 H :    0.033681
  16 S :    0.086809
  17 C :   -0.079078
  18 C :   -0.051234
  19 C :   -0.061376
  20 C :   -0.109506
  21 H :    0.043695
  22 C :    0.027435
  23 H :    0.022004
  24 H :    0.041648
  25 C :   -0.081667
  26 H :    0.026831
  27 H :    0.025799
  28 C :   -0.049716
  29 H :    0.042934
  30 H :    0.030298
  31 H :    0.056580
  32 H :    0.053709
  33 H :    0.049578
Sum of atomic charges:   -0.0000000

LOEWDIN ATOMIC CHARGES
----------------------
   0 S :    0.415424
   1 C :   -0.196970
   2 C :   -0.065661
   3 C :   -0.064236
   4 C :   -0.196632
   5 H :    0.035674
   6 C :   -0.027162
   7 H :    0.027156
   8 H :    0.030004
   9 C :   -0.054641
  10 H :    0.023836
  11 H :    0.021729
  12 C :   -0.058912
  13 H :    0.027438
  14 H :    0.030446
  15 H :    0.024634
  16 S :    0.361916
  17 C :   -0.161343
  18 C :   -0.075855
  19 C :   -0.048005
  20 C :   -0.184154
  21 H :    0.041789
  22 C :   -0.044458
  23 H :    0.026830
  24 H :    0.034732
  25 C :   -0.048878
  26 H :    0.024792
  27 H :    0.020974
  28 C :   -0.068153
  29 H :    0.028890
  30 H :    0.025549
  31 H :    0.041290
  32 H :    0.028968
  33 H :    0.022989

  Mayer bond orders larger than 0.100000
B(  0-S ,  1-C ) :   1.1603 B(  0-S ,  4-C ) :   1.1583 B(  1-C ,  2-C ) :   1.5619
B(  1-C ,  4-C ) :   0.1054 B(  1-C , 32-H ) :   0.9652 B(  2-C ,  3-C ) :   1.3163
B(  2-C ,  6-C ) :   1.0062 B(  3-C ,  4-C ) :   1.5197 B(  3-C ,  5-H ) :   0.9890
B(  4-C , 20-C ) :   1.0671 B(  6-C ,  7-H ) :   0.9478 B(  6-C ,  8-H ) :   0.9372
B(  6-C ,  9-C ) :   1.0611 B(  9-C , 10-H ) :   0.9497 B(  9-C , 11-H ) :   0.9522
B(  9-C , 12-C ) :   1.0749 B( 12-C , 13-H ) :   0.9717 B( 12-C , 14-H ) :   0.9727
B( 12-C , 15-H ) :   0.9770 B( 16-S , 17-C ) :   1.1424 B( 16-S , 20-C ) :   1.0995
B( 17-C , 18-C ) :   1.6451 B( 17-C , 33-H ) :   0.9635 B( 18-C , 19-C ) :   1.2038
B( 18-C , 21-H ) :   0.9800 B( 19-C , 20-C ) :   1.6257 B( 19-C , 22-C ) :   1.0502
B( 22-C , 23-H ) :   0.9337 B( 22-C , 24-H ) :   0.9222 B( 22-C , 25-C ) :   1.0542
B( 25-C , 26-H ) :   0.9413 B( 25-C , 27-H ) :   0.9622 B( 25-C , 28-C ) :   1.0723
B( 28-C , 29-H ) :   0.9747 B( 28-C , 30-H ) :   0.9752 B( 28-C , 31-H ) :   0.9736

Dispersion correction           -0.013244860
FINAL SINGLE POINT ENERGY     -1339.875053539370

DIPOLE MOMENT
-------------
                                X             Y             Z
Electronic contribution:    -11.48623       0.46359      27.11505
Nuclear contribution   :     11.79890      -0.68723     -27.75692
                        -----------------------------------------
Total Dipole Moment    :      0.31268      -0.22364      -0.64187
                        -----------------------------------------
Magnitude (a.u.)       :      0.74818
Magnitude (Debye)      :      1.90173

Rotational constants in cm-1:     0.016697     0.007964     0.006017
Rotational constants in MHz :   500.560478   238.764481   180.390485

                             ****ORCA TERMINATED NORMALLY****
TOTAL RUN TIME: 0 days 0 hours 0 minutes 20 seconds 726 msec
