                         Program Version 4.2.1 -  RELEASE  -
|  1> ! wB97X-D3 SP def2-SVP
|  2> %pal
|  3> nprocs 24
|  4> end
|  5>
|  6> * xyz 0 1
|  7> S 	 -103.427 	 22.6816 	 -121.799
|  8> C 	 -102.351 	 23.315 	 -120.55
|  9> C 	 -102.418 	 22.5266 	 -119.445
| 10> C 	 -103.388 	 21.509 	 -119.579
| 11> C 	 -104.01 	 21.3582 	 -120.872
| 12> H 	 -103.664 	 20.6975 	 -118.875
| 13> C 	 -101.506 	 22.6662 	 -118.201
| 14> H 	 -101.599 	 23.706 	 -117.997
| 15> H 	 -100.509 	 22.5359 	 -118.485
| 16> C 	 -101.618 	 21.689 	 -116.991
| 17> H 	 -101.602 	 20.6236 	 -117.288
| 18> H 	 -100.802 	 21.8181 	 -116.294
| 19> C 	 -102.888 	 21.8772 	 -116.208
| 20> H 	 -102.795 	 22.8442 	 -115.584
| 21> H 	 -103.811 	 21.9063 	 -116.749
| 22> H 	 -102.902 	 21.1121 	 -115.436
| 23> S 	 -106.504 	 21.3302 	 -121.773
| 24> C 	 -107.411 	 19.8861 	 -122.025
| 25> C 	 -106.704 	 18.7578 	 -121.592
| 26> C 	 -105.37 	 19.0738 	 -121.194
| 27> C 	 -105.103 	 20.4583 	 -121.31
| 28> H 	 -107.236 	 17.8409 	 -121.604
| 29> C 	 -104.414 	 17.9954 	 -120.836
| 30> H 	 -103.508 	 18.1782 	 -121.337
| 31> H 	 -104.636 	 17.0072 	 -121.267
| 32> C 	 -104.021 	 17.6595 	 -119.391
| 33> H 	 -104.839 	 17.6212 	 -118.684
| 34> H 	 -103.466 	 18.5203 	 -119.029
| 35> C 	 -103.104 	 16.4358 	 -119.146
| 36> H 	 -102.938 	 16.3131 	 -118.078
| 37> H 	 -102.2 	 16.6238 	 -119.672
| 38> H 	 -103.589 	 15.4437 	 -119.392
| 39> H 	 -101.599 	 24.0736 	 -120.643
| 40> H 	 -108.484 	 19.9543 	 -122.248
| 41> *
| 42>
| 43>                          ****END OF INPUT****

CARTESIAN COORDINATES (ANGSTROEM)
---------------------------------
  S    -103.427000   22.681600  -121.799000
  C    -102.351000   23.315000  -120.550000
  C    -102.418000   22.526600  -119.445000
  C    -103.388000   21.509000  -119.579000
  C    -104.010000   21.358200  -120.872000
  H    -103.664000   20.697500  -118.875000
  C    -101.506000   22.666200  -118.201000
  H    -101.599000   23.706000  -117.997000
  H    -100.509000   22.535900  -118.485000
  C    -101.618000   21.689000  -116.991000
  H    -101.602000   20.623600  -117.288000
  H    -100.802000   21.818100  -116.294000
  C    -102.888000   21.877200  -116.208000
  H    -102.795000   22.844200  -115.584000
  H    -103.811000   21.906300  -116.749000
  H    -102.902000   21.112100  -115.436000
  S    -106.504000   21.330200  -121.773000
  C    -107.411000   19.886100  -122.025000
  C    -106.704000   18.757800  -121.592000
  C    -105.370000   19.073800  -121.194000
  C    -105.103000   20.458300  -121.310000
  H    -107.236000   17.840900  -121.604000
  C    -104.414000   17.995400  -120.836000
  H    -103.508000   18.178200  -121.337000
  H    -104.636000   17.007200  -121.267000
  C    -104.021000   17.659500  -119.391000
  H    -104.839000   17.621200  -118.684000
  H    -103.466000   18.520300  -119.029000
  C    -103.104000   16.435800  -119.146000
  H    -102.938000   16.313100  -118.078000
  H    -102.200000   16.623800  -119.672000
  H    -103.589000   15.443700  -119.392000
  H    -101.599000   24.073600  -120.643000
  H    -108.484000   19.954300  -122.248000

 Total Charge           Charge          ....    0
 Multiplicity           Mult            ....    1
 Number of Electrons    NEL             ....  134
 Basis Dimension        Dim             ....  322

ORBITAL ENERGIES
----------------

  NO   OCC          E(Eh)            E(eV)
   0   2.0000     -88.967539     -2420.9298
   1   2.0000     -88.967022     -2420.9157
   2   2.0000     -10.335395      -281.2404
   3   2.0000     -10.332554      -281.1631
   4   2.0000     -10.317481      -280.7529
   5   2.0000     -10.311635      -280.5939
   6   2.0000     -10.311603      -280.5930
   7   2.0000     -10.302332      -280.3407
   8   2.0000     -10.296884      -280.1925
   9   2.0000     -10.295892      -280.1655
  10   2.0000     -10.291386      -280.0428
  11   2.0000     -10.289868      -280.0015
  12   2.0000     -10.285919      -279.8941
  13   2.0000     -10.284266      -279.8491
  14   2.0000     -10.282735      -279.8075
  15   2.0000     -10.276246      -279.6309
  16   2.0000      -8.082915      -219.9473
  17   2.0000      -8.082061      -219.9241
  18   2.0000      -6.041178      -164.3888
  19   2.0000      -6.040515      -164.3708
  20   2.0000      -6.037110      -164.2781
  21   2.0000      -6.036347      -164.2574
  22   2.0000      -6.033987      -164.1931
  23   2.0000      -6.033107      -164.1692
  24   2.0000      -1.010373       -27.4936
  25   2.0000      -0.988058       -26.8864
  26   2.0000      -0.912733       -24.8367
  27   2.0000      -0.909961       -24.7613
  28   2.0000      -0.873680       -23.7740
  29   2.0000      -0.855013       -23.2661
  30   2.0000      -0.841668       -22.9030
  31   2.0000      -0.813534       -22.1374
  32   2.0000      -0.788249       -21.4494
  33   2.0000      -0.777436       -21.1551
  34   2.0000      -0.709487       -19.3061
  35   2.0000      -0.699512       -19.0347
  36   2.0000      -0.689987       -18.7755
  37   2.0000      -0.666206       -18.1284
  38   2.0000      -0.638193       -17.3661
  39   2.0000      -0.618564       -16.8320
  40   2.0000      -0.603718       -16.4280
  41   2.0000      -0.572080       -15.5671
  42   2.0000      -0.561791       -15.2871
  43   2.0000      -0.550452       -14.9786
  44   2.0000      -0.542972       -14.7750
  45   2.0000      -0.529811       -14.4169
  46   2.0000      -0.523734       -14.2515
  47   2.0000      -0.512979       -13.9589
  48   2.0000      -0.509102       -13.8534
  49   2.0000      -0.501878       -13.6568
  50   2.0000      -0.490367       -13.3436
  51   2.0000      -0.482293       -13.1239
  52   2.0000      -0.474510       -12.9121
  53   2.0000      -0.464507       -12.6399
  54   2.0000      -0.461840       -12.5673
  55   2.0000      -0.452395       -12.3103
  56   2.0000      -0.441677       -12.0186
  57   2.0000      -0.436516       -11.8782
  58   2.0000      -0.430069       -11.7028
  59   2.0000      -0.427580       -11.6350
  60   2.0000      -0.416311       -11.3284
  61   2.0000      -0.413034       -11.2392
  62   2.0000      -0.405758       -11.0412
  63   2.0000      -0.344929        -9.3860
  64   2.0000      -0.334227        -9.0948
  65   2.0000      -0.327361        -8.9080
  66   2.0000      -0.293476        -7.9859
  67   0.0000       0.027521         0.7489
  68   0.0000       0.065853         1.7920
  69   0.0000       0.118749         3.2313
  70   0.0000       0.121366         3.3025
  71   0.0000       0.126169         3.4332

MULLIKEN ATOMIC CHARGES
-----------------------
   0 S :    0.113792
   1 C :   -0.123329
   2 C :   -0.077486
   3 C :    0.006879
   4 C :   -0.170412
   5 H :    0.019555
   6 C :    0.100515
   7 H :    0.024248
   8 H :    0.023376
   9 C :   -0.065756
  10 H :    0.034509
  11 H :    0.029182
  12 C :   -0.074301
  13 H :    0.029287
  14 H :    0.046734
  15 H :    0.025308
  16 S :    0.121694
  17 C :   -0.113714
  18 C :   -0.031125
  19 C :    0.004465
  20 C :   -0.145617
  21 H :    0.013445
  22 C :    0.074476
  23 H :    0.012196
  24 H :    0.010716
  25 C :   -0.083986
  26 H :    0.017915
  27 H :    0.014838
  28 C :   -0.053314
  29 H :    0.033237
  30 H :    0.035950
  31 H :    0.038007
  32 H :    0.038730
  33 H :    0.069983
Sum of atomic charges:   -0.0000000

LOEWDIN ATOMIC CHARGES
----------------------
   0 S :    0.424213
   1 C :   -0.198102
   2 C :   -0.062668
   3 C :   -0.078556
   4 C :   -0.216363
   5 H :    0.028521
   6 C :   -0.024975
   7 H :    0.030613
   8 H :    0.027652
   9 C :   -0.040203
  10 H :    0.027539
  11 H :    0.029062
  12 C :   -0.070853
  13 H :    0.031022
  14 H :    0.020514
  15 H :    0.022973
  16 S :    0.449277
  17 C :   -0.200308
  18 C :   -0.062021
  19 C :   -0.052123
  20 C :   -0.210373
  21 H :    0.029728
  22 C :   -0.039522
  23 H :    0.030152
  24 H :    0.032435
  25 C :   -0.042488
  26 H :    0.018245
  27 H :    0.017719
  28 C :   -0.062494
  29 H :    0.029654
  30 H :    0.021494
  31 H :    0.029670
  32 H :    0.028737
  33 H :    0.031829

  Mayer bond orders larger than 0.100000
B(  0-S ,  1-C ) :   1.1460 B(  0-S ,  4-C ) :   1.1856 B(  1-C ,  2-C ) :   1.5925
B(  1-C ,  4-C ) :   0.1126 B(  1-C , 32-H ) :   0.9736 B(  2-C ,  3-C ) :   1.2864
B(  2-C ,  6-C ) :   0.9787 B(  3-C ,  4-C ) :   1.5215 B(  3-C ,  5-H ) :   0.9762
B(  4-C , 20-C ) :   1.0140 B(  6-C ,  7-H ) :   0.9405 B(  6-C ,  8-H ) :   0.9404
B(  6-C ,  9-C ) :   1.0796 B(  9-C , 10-H ) :   0.9525 B(  9-C , 11-H ) :   0.9521
B(  9-C , 12-C ) :   1.0815 B( 12-C , 13-H ) :   0.9730 B( 12-C , 14-H ) :   0.9788
B( 12-C , 15-H ) :   0.9734 B( 16-S , 17-C ) :   1.1839 B( 16-S , 20-C ) :   1.1858
B( 17-C , 18-C ) :   1.5650 B( 17-C , 20-C ) :   0.1034 B( 17-C , 33-H ) :   0.9660
B( 18-C , 19-C ) :   1.2628 B( 18-C , 21-H ) :   1.0039 B( 19-C , 20-C ) :   1.5444
B( 19-C , 22-C ) :   1.0501 B( 22-C , 23-H ) :   0.9257 B( 22-C , 24-H ) :   0.9407
B( 22-C , 25-C ) :   1.0529 B( 25-C , 26-H ) :   0.9574 B( 25-C , 27-H ) :   0.9436
B( 25-C , 28-C ) :   1.0910 B( 28-C , 29-H ) :   0.9718 B( 28-C , 30-H ) :   0.9764
B( 28-C , 31-H ) :   0.9734

Dispersion correction           -0.014193902
FINAL SINGLE POINT ENERGY     -1339.859847656166

DIPOLE MOMENT
-------------
                                X             Y             Z
Electronic contribution:    -12.89672      15.34650     -23.66783
Nuclear contribution   :     13.13841     -15.73168      24.22576
                        -----------------------------------------
Total Dipole Moment    :      0.24169      -0.38518       0.55793
                        -----------------------------------------
Magnitude (a.u.)       :      0.71976
Magnitude (Debye)      :      1.82950

Rotational constants in cm-1:     0.015483     0.010205     0.007173
Rotational constants in MHz :   464.163235   305.951173   215.032022

                             ****ORCA TERMINATED NORMALLY****
TOTAL RUN TIME: 0 days 0 hours 0 minutes 21 seconds 895 msec
