                         Program Version 4.2.1 -  RELEASE  -
|  1> ! wB97X-D3 SP def2-SVP
|  2> %pal
|  3> nprocs 24
|  4> end
|  5>
|  6> * xyz 0 1
|  7> S 	 -70.7352 	 8.01489 	 18.5431
|  8> C 	 -69.715 	 9.27608 	 19.3022
|  9> C 	 -68.7297 	 8.74489 	 20.1505
| 10> C 	 -68.7568 	 7.29854 	 20.1325
| 11> C 	 -69.741 	 6.77906 	 19.3487
| 12> H 	 -68.1213 	 6.61116 	 20.7617
| 13> C 	 -67.9575 	 9.59223 	 21.0604
| 14> H 	 -68.0695 	 9.20139 	 21.9835
| 15> H 	 -68.3846 	 10.5834 	 21.0709
| 16> C 	 -66.3909 	 9.61148 	 20.839
| 17> H 	 -65.7761 	 8.60662 	 20.9781
| 18> H 	 -66.2659 	 10.0077 	 19.8521
| 19> C 	 -65.7417 	 10.5803 	 21.868
| 20> H 	 -66.2092 	 11.5753 	 21.873
| 21> H 	 -65.8936 	 10.1257 	 22.8139
| 22> H 	 -64.6627 	 10.8789 	 21.7114
| 23> S 	 -71.6245 	 4.78177 	 19.7852
| 24> C 	 -71.5234 	 3.32102 	 18.8315
| 25> C 	 -70.2734 	 3.1505 	 18.3226
| 26> C 	 -69.5502 	 4.34572 	 18.3678
| 27> C 	 -70.1052 	 5.38447 	 19.1153
| 28> H 	 -70.0629 	 2.28738 	 17.7967
| 29> C 	 -68.3238 	 4.48418 	 17.5549
| 30> H 	 -68.2748 	 5.55466 	 17.5144
| 31> H 	 -68.4482 	 4.17357 	 16.5427
| 32> C 	 -67.0516 	 3.81672 	 18.1352
| 33> H 	 -67.2397 	 2.73196 	 18.2596
| 34> H 	 -66.9933 	 4.25747 	 19.1842
| 35> C 	 -65.7939 	 4.20504 	 17.3928
| 36> H 	 -65.8275 	 3.6847 	 16.3917
| 37> H 	 -64.865 	 3.87594 	 17.9024
| 38> H 	 -65.7994 	 5.30149 	 17.1581
| 39> H 	 -69.8405 	 10.3442 	 19.174
| 40> H 	 -72.2433 	 2.5328 	 19.0164
| 41> *
| 42>
| 43>                          ****END OF INPUT****

CARTESIAN COORDINATES (ANGSTROEM)
---------------------------------
  S    -70.735200    8.014890   18.543100
  C    -69.715000    9.276080   19.302200
  C    -68.729700    8.744890   20.150500
  C    -68.756800    7.298540   20.132500
  C    -69.741000    6.779060   19.348700
  H    -68.121300    6.611160   20.761700
  C    -67.957500    9.592230   21.060400
  H    -68.069500    9.201390   21.983500
  H    -68.384600   10.583400   21.070900
  C    -66.390900    9.611480   20.839000
  H    -65.776100    8.606620   20.978100
  H    -66.265900   10.007700   19.852100
  C    -65.741700   10.580300   21.868000
  H    -66.209200   11.575300   21.873000
  H    -65.893600   10.125700   22.813900
  H    -64.662700   10.878900   21.711400
  S    -71.624500    4.781770   19.785200
  C    -71.523400    3.321020   18.831500
  C    -70.273400    3.150500   18.322600
  C    -69.550200    4.345720   18.367800
  C    -70.105200    5.384470   19.115300
  H    -70.062900    2.287380   17.796700
  C    -68.323800    4.484180   17.554900
  H    -68.274800    5.554660   17.514400
  H    -68.448200    4.173570   16.542700
  C    -67.051600    3.816720   18.135200
  H    -67.239700    2.731960   18.259600
  H    -66.993300    4.257470   19.184200
  C    -65.793900    4.205040   17.392800
  H    -65.827500    3.684700   16.391700
  H    -64.865000    3.875940   17.902400
  H    -65.799400    5.301490   17.158100
  H    -69.840500   10.344200   19.174000
  H    -72.243300    2.532800   19.016400

 Total Charge           Charge          ....    0
 Multiplicity           Mult            ....    1
 Number of Electrons    NEL             ....  134
 Basis Dimension        Dim             ....  322

ORBITAL ENERGIES
----------------

  NO   OCC          E(Eh)            E(eV)
   0   2.0000     -88.967076     -2420.9172
   1   2.0000     -88.959449     -2420.7097
   2   2.0000     -10.331910      -281.1456
   3   2.0000     -10.324825      -280.9528
   4   2.0000     -10.319159      -280.7986
   5   2.0000     -10.313895      -280.6553
   6   2.0000     -10.304322      -280.3949
   7   2.0000     -10.303215      -280.3647
   8   2.0000     -10.300000      -280.2772
   9   2.0000     -10.296972      -280.1949
  10   2.0000     -10.290241      -280.0117
  11   2.0000     -10.286849      -279.9194
  12   2.0000     -10.284889      -279.8661
  13   2.0000     -10.283273      -279.8221
  14   2.0000     -10.281661      -279.7782
  15   2.0000     -10.276777      -279.6453
  16   2.0000      -8.080712      -219.8873
  17   2.0000      -8.074521      -219.7189
  18   2.0000      -6.039368      -164.3396
  19   2.0000      -6.035454      -164.2330
  20   2.0000      -6.032905      -164.1637
  21   2.0000      -6.031299      -164.1200
  22   2.0000      -6.029000      -164.0574
  23   2.0000      -6.025360      -163.9584
  24   2.0000      -1.005798       -27.3692
  25   2.0000      -0.982563       -26.7369
  26   2.0000      -0.914384       -24.8816
  27   2.0000      -0.908840       -24.7308
  28   2.0000      -0.868867       -23.6431
  29   2.0000      -0.850132       -23.1333
  30   2.0000      -0.846366       -23.0308
  31   2.0000      -0.820676       -22.3317
  32   2.0000      -0.780977       -21.2515
  33   2.0000      -0.764860       -20.8129
  34   2.0000      -0.706193       -19.2165
  35   2.0000      -0.696837       -18.9619
  36   2.0000      -0.692987       -18.8571
  37   2.0000      -0.663005       -18.0413
  38   2.0000      -0.644341       -17.5334
  39   2.0000      -0.617818       -16.8117
  40   2.0000      -0.596310       -16.2264
  41   2.0000      -0.579682       -15.7740
  42   2.0000      -0.568768       -15.4770
  43   2.0000      -0.555548       -15.1172
  44   2.0000      -0.528333       -14.3767
  45   2.0000      -0.520769       -14.1709
  46   2.0000      -0.518056       -14.0970
  47   2.0000      -0.515267       -14.0211
  48   2.0000      -0.506143       -13.7729
  49   2.0000      -0.497259       -13.5311
  50   2.0000      -0.492325       -13.3968
  51   2.0000      -0.474139       -12.9020
  52   2.0000      -0.468821       -12.7573
  53   2.0000      -0.462804       -12.5935
  54   2.0000      -0.461269       -12.5518
  55   2.0000      -0.448509       -12.2045
  56   2.0000      -0.440769       -11.9939
  57   2.0000      -0.431357       -11.7378
  58   2.0000      -0.429883       -11.6977
  59   2.0000      -0.428285       -11.6542
  60   2.0000      -0.426701       -11.6111
  61   2.0000      -0.416013       -11.3203
  62   2.0000      -0.408024       -11.1029
  63   2.0000      -0.339094        -9.2272
  64   2.0000      -0.327829        -8.9207
  65   2.0000      -0.326192        -8.8761
  66   2.0000      -0.302320        -8.2265
  67   0.0000       0.035277         0.9599
  68   0.0000       0.058110         1.5813
  69   0.0000       0.110236         2.9997
  70   0.0000       0.119374         3.2483
  71   0.0000       0.125658         3.4193

MULLIKEN ATOMIC CHARGES
-----------------------
   0 S :    0.113357
   1 C :   -0.123369
   2 C :   -0.083110
   3 C :    0.043132
   4 C :   -0.177972
   5 H :    0.037126
   6 C :    0.115673
   7 H :   -0.001066
   8 H :    0.016310
   9 C :   -0.110915
  10 H :    0.058643
  11 H :    0.028665
  12 C :   -0.062907
  13 H :    0.023837
  14 H :    0.026062
  15 H :    0.046795
  16 S :    0.090856
  17 C :   -0.094224
  18 C :    0.008765
  19 C :   -0.028841
  20 C :   -0.170686
  21 H :   -0.004795
  22 C :    0.073234
  23 H :    0.015335
  24 H :    0.013814
  25 C :   -0.098848
  26 H :    0.036291
  27 H :    0.027408
  28 C :   -0.048046
  29 H :    0.030149
  30 H :    0.047494
  31 H :    0.044022
  32 H :    0.046738
  33 H :    0.061071
Sum of atomic charges:    0.0000000

LOEWDIN ATOMIC CHARGES
----------------------
   0 S :    0.379901
   1 C :   -0.183093
   2 C :   -0.058358
   3 C :   -0.057826
   4 C :   -0.187784
   5 H :    0.044229
   6 C :   -0.023162
   7 H :    0.018892
   8 H :    0.034143
   9 C :   -0.039867
  10 H :    0.040513
  11 H :    0.016840
  12 C :   -0.075076
  13 H :    0.022781
  14 H :    0.018172
  15 H :    0.033247
  16 S :    0.395001
  17 C :   -0.171400
  18 C :   -0.064241
  19 C :   -0.050889
  20 C :   -0.206806
  21 H :    0.022435
  22 C :   -0.033480
  23 H :    0.028448
  24 H :    0.022783
  25 C :   -0.046323
  26 H :    0.024301
  27 H :    0.026862
  28 C :   -0.074193
  29 H :    0.028550
  30 H :    0.029821
  31 H :    0.033721
  32 H :    0.025738
  33 H :    0.026119

  Mayer bond orders larger than 0.100000
B(  0-S ,  1-C ) :   1.1219 B(  0-S ,  4-C ) :   1.1292 B(  1-C ,  2-C ) :   1.6319
B(  1-C , 32-H ) :   0.9656 B(  2-C ,  3-C ) :   1.1937 B(  2-C ,  6-C ) :   1.0461
B(  3-C ,  4-C ) :   1.6377 B(  3-C ,  5-H ) :   0.9809 B(  4-C , 20-C ) :   1.0160
B(  6-C ,  7-H ) :   0.9255 B(  6-C ,  8-H ) :   0.9404 B(  6-C ,  9-C ) :   1.0367
B(  9-C , 10-H ) :   0.9585 B(  9-C , 11-H ) :   0.9604 B(  9-C , 12-C ) :   1.0690
B( 12-C , 13-H ) :   0.9739 B( 12-C , 14-H ) :   0.9778 B( 12-C , 15-H ) :   0.9754
B( 16-S , 17-C ) :   1.1704 B( 16-S , 20-C ) :   1.1395 B( 17-C , 18-C ) :   1.5990
B( 17-C , 20-C ) :   0.1005 B( 17-C , 33-H ) :   0.9611 B( 18-C , 19-C ) :   1.2428
B( 18-C , 21-H ) :   1.0029 B( 19-C , 20-C ) :   1.5873 B( 19-C , 22-C ) :   1.0511
B( 22-C , 23-H ) :   0.9272 B( 22-C , 24-H ) :   0.9338 B( 22-C , 25-C ) :   1.0514
B( 25-C , 26-H ) :   0.9577 B( 25-C , 27-H ) :   0.9513 B( 25-C , 28-C ) :   1.0831
B( 28-C , 29-H ) :   0.9703 B( 28-C , 30-H ) :   0.9735 B( 28-C , 31-H ) :   0.9718

Dispersion correction           -0.013798977
FINAL SINGLE POINT ENERGY     -1339.862249637727

DIPOLE MOMENT
-------------
                                X             Y             Z
Electronic contribution:    -29.12335      -5.40997      -2.53451
Nuclear contribution   :     29.65934       5.41796       2.66445
                        -----------------------------------------
Total Dipole Moment    :      0.53598       0.00799       0.12994
                        -----------------------------------------
Magnitude (a.u.)       :      0.55157
Magnitude (Debye)      :      1.40198

Rotational constants in cm-1:     0.017896     0.008285     0.006382
Rotational constants in MHz :   536.513963   248.379600   191.338831

                             ****ORCA TERMINATED NORMALLY****
TOTAL RUN TIME: 0 days 0 hours 0 minutes 21 seconds 211 msec
