                         Program Version 4.2.1 -  RELEASE  -
|  1> ! wB97X-D3 SP def2-SVP
|  2> %pal
|  3> nprocs 24
|  4> end
|  5>
|  6> * xyz 0 1
|  7> S 	 -48.4017 	 16.4365 	 26.7677
|  8> C 	 -48.5817 	 15.9598 	 25.0855
|  9> C 	 -48.0928 	 16.9125 	 24.1988
| 10> C 	 -47.3018 	 17.8775 	 24.9138
| 11> C 	 -47.2982 	 17.7389 	 26.3097
| 12> H 	 -46.7515 	 18.6459 	 24.3371
| 13> C 	 -48.1256 	 16.8631 	 22.6993
| 14> H 	 -48.2265 	 15.7296 	 22.6328
| 15> H 	 -47.2086 	 17.2824 	 22.3227
| 16> C 	 -49.1879 	 17.6085 	 21.9268
| 17> H 	 -49.0519 	 18.6892 	 21.9928
| 18> H 	 -48.9716 	 17.4127 	 20.9091
| 19> C 	 -50.5811 	 17.1838 	 22.2458
| 20> H 	 -50.8334 	 17.3403 	 23.2512
| 21> H 	 -51.411 	 17.7552 	 21.797
| 22> H 	 -50.8213 	 16.1566 	 22.0283
| 23> S 	 -47.3908 	 20.0647 	 27.7742
| 24> C 	 -46.0428 	 20.4948 	 28.7217
| 25> C 	 -45.0453 	 19.5965 	 28.6571
| 26> C 	 -45.3444 	 18.4961 	 27.8608
| 27> C 	 -46.5524 	 18.6268 	 27.1777
| 28> H 	 -44.1573 	 19.69 	 29.3027
| 29> C 	 -44.5172 	 17.2274 	 27.9039
| 30> H 	 -43.4622 	 17.3433 	 27.743
| 31> H 	 -44.8545 	 16.5043 	 27.1205
| 32> C 	 -44.8063 	 16.3215 	 29.1005
| 33> H 	 -44.652 	 16.7979 	 30.0699
| 34> H 	 -44.0302 	 15.5519 	 29.1949
| 35> C 	 -46.1736 	 15.6893 	 29.2228
| 36> H 	 -46.972 	 16.4545 	 29.1684
| 37> H 	 -46.3374 	 15.0926 	 30.1597
| 38> H 	 -46.4532 	 14.9364 	 28.5092
| 39> H 	 -49.1755 	 15.1432 	 24.8186
| 40> H 	 -45.9001 	 21.462 	 29.1148
| 41> *
| 42>
| 43>                          ****END OF INPUT****

CARTESIAN COORDINATES (ANGSTROEM)
---------------------------------
  S    -48.401700   16.436500   26.767700
  C    -48.581700   15.959800   25.085500
  C    -48.092800   16.912500   24.198800
  C    -47.301800   17.877500   24.913800
  C    -47.298200   17.738900   26.309700
  H    -46.751500   18.645900   24.337100
  C    -48.125600   16.863100   22.699300
  H    -48.226500   15.729600   22.632800
  H    -47.208600   17.282400   22.322700
  C    -49.187900   17.608500   21.926800
  H    -49.051900   18.689200   21.992800
  H    -48.971600   17.412700   20.909100
  C    -50.581100   17.183800   22.245800
  H    -50.833400   17.340300   23.251200
  H    -51.411000   17.755200   21.797000
  H    -50.821300   16.156600   22.028300
  S    -47.390800   20.064700   27.774200
  C    -46.042800   20.494800   28.721700
  C    -45.045300   19.596500   28.657100
  C    -45.344400   18.496100   27.860800
  C    -46.552400   18.626800   27.177700
  H    -44.157300   19.690000   29.302700
  C    -44.517200   17.227400   27.903900
  H    -43.462200   17.343300   27.743000
  H    -44.854500   16.504300   27.120500
  C    -44.806300   16.321500   29.100500
  H    -44.652000   16.797900   30.069900
  H    -44.030200   15.551900   29.194900
  C    -46.173600   15.689300   29.222800
  H    -46.972000   16.454500   29.168400
  H    -46.337400   15.092600   30.159700
  H    -46.453200   14.936400   28.509200
  H    -49.175500   15.143200   24.818600
  H    -45.900100   21.462000   29.114800

 Total Charge           Charge          ....    0
 Multiplicity           Mult            ....    1
 Number of Electrons    NEL             ....  134
 Basis Dimension        Dim             ....  322

ORBITAL ENERGIES
----------------

  NO   OCC          E(Eh)            E(eV)
   0   2.0000     -88.968111     -2420.9454
   1   2.0000     -88.962255     -2420.7860
   2   2.0000     -10.329050      -281.0677
   3   2.0000     -10.323991      -280.9301
   4   2.0000     -10.312446      -280.6159
   5   2.0000     -10.306037      -280.4415
   6   2.0000     -10.300268      -280.2845
   7   2.0000     -10.299002      -280.2501
   8   2.0000     -10.296307      -280.1768
   9   2.0000     -10.294307      -280.1223
  10   2.0000     -10.289441      -279.9899
  11   2.0000     -10.285440      -279.8810
  12   2.0000     -10.282664      -279.8055
  13   2.0000     -10.281518      -279.7743
  14   2.0000     -10.270652      -279.4786
  15   2.0000     -10.267522      -279.3935
  16   2.0000      -8.081780      -219.9164
  17   2.0000      -8.077913      -219.8112
  18   2.0000      -6.040285      -164.3645
  19   2.0000      -6.036479      -164.2609
  20   2.0000      -6.036195      -164.2532
  21   2.0000      -6.032539      -164.1537
  22   2.0000      -6.032283      -164.1468
  23   2.0000      -6.028857      -164.0535
  24   2.0000      -1.008432       -27.4408
  25   2.0000      -0.985019       -26.8037
  26   2.0000      -0.919216       -25.0131
  27   2.0000      -0.908084       -24.7102
  28   2.0000      -0.871508       -23.7149
  29   2.0000      -0.849780       -23.1237
  30   2.0000      -0.848234       -23.0816
  31   2.0000      -0.810927       -22.0664
  32   2.0000      -0.787782       -21.4366
  33   2.0000      -0.775775       -21.1099
  34   2.0000      -0.712121       -19.3778
  35   2.0000      -0.705077       -19.1861
  36   2.0000      -0.692070       -18.8322
  37   2.0000      -0.657124       -17.8812
  38   2.0000      -0.637734       -17.3536
  39   2.0000      -0.616786       -16.7836
  40   2.0000      -0.600872       -16.3506
  41   2.0000      -0.568176       -15.4609
  42   2.0000      -0.559823       -15.2336
  43   2.0000      -0.557977       -15.1833
  44   2.0000      -0.546466       -14.8701
  45   2.0000      -0.533414       -14.5149
  46   2.0000      -0.517842       -14.0912
  47   2.0000      -0.507658       -13.8141
  48   2.0000      -0.500316       -13.6143
  49   2.0000      -0.492781       -13.4092
  50   2.0000      -0.486750       -13.2451
  51   2.0000      -0.485757       -13.2181
  52   2.0000      -0.470916       -12.8143
  53   2.0000      -0.462740       -12.5918
  54   2.0000      -0.453861       -12.3502
  55   2.0000      -0.446702       -12.1554
  56   2.0000      -0.441907       -12.0249
  57   2.0000      -0.440996       -12.0001
  58   2.0000      -0.435168       -11.8415
  59   2.0000      -0.425974       -11.5913
  60   2.0000      -0.416651       -11.3377
  61   2.0000      -0.409482       -11.1426
  62   2.0000      -0.399856       -10.8806
  63   2.0000      -0.335855        -9.1391
  64   2.0000      -0.326946        -8.8966
  65   2.0000      -0.317452        -8.6383
  66   2.0000      -0.311145        -8.4667
  67   0.0000       0.039520         1.0754
  68   0.0000       0.052160         1.4193
  69   0.0000       0.112332         3.0567
  70   0.0000       0.118867         3.2345
  71   0.0000       0.125493         3.4148

MULLIKEN ATOMIC CHARGES
-----------------------
   0 S :    0.115156
   1 C :   -0.110640
   2 C :   -0.081040
   3 C :    0.021126
   4 C :   -0.143143
   5 H :    0.023374
   6 C :    0.036056
   7 H :    0.036582
   8 H :    0.020652
   9 C :   -0.003482
  10 H :    0.024798
  11 H :    0.019441
  12 C :   -0.038418
  13 H :    0.017832
  14 H :    0.023349
  15 H :    0.018608
  16 S :    0.111752
  17 C :   -0.065967
  18 C :   -0.048235
  19 C :   -0.000356
  20 C :   -0.203517
  21 H :    0.026444
  22 C :    0.074030
  23 H :    0.026259
  24 H :    0.032570
  25 C :   -0.058010
  26 H :    0.013029
  27 H :    0.020139
  28 C :   -0.068533
  29 H :    0.035299
  30 H :    0.030334
  31 H :    0.022917
  32 H :    0.027494
  33 H :    0.044101
Sum of atomic charges:    0.0000000

LOEWDIN ATOMIC CHARGES
----------------------
   0 S :    0.417111
   1 C :   -0.185124
   2 C :   -0.067311
   3 C :   -0.051605
   4 C :   -0.206839
   5 H :    0.034854
   6 C :   -0.032214
   7 H :    0.043699
   8 H :    0.030894
   9 C :   -0.038008
  10 H :    0.028172
  11 H :    0.023407
  12 C :   -0.069473
  13 H :    0.019729
  14 H :    0.030829
  15 H :    0.022586
  16 S :    0.420683
  17 C :   -0.188165
  18 C :   -0.078721
  19 C :   -0.051048
  20 C :   -0.198699
  21 H :    0.038060
  22 C :   -0.033091
  23 H :    0.029153
  24 H :    0.040779
  25 C :   -0.046244
  26 H :    0.019429
  27 H :    0.025480
  28 C :   -0.076853
  29 H :    0.017329
  30 H :    0.033369
  31 H :    0.012798
  32 H :    0.012763
  33 H :    0.022271

  Mayer bond orders larger than 0.100000
B(  0-S ,  1-C ) :   1.1522 B(  0-S ,  4-C ) :   1.1315 B(  1-C ,  2-C ) :   1.5899
B(  1-C , 32-H ) :   0.9709 B(  2-C ,  3-C ) :   1.2572 B(  2-C ,  6-C ) :   1.0086
B(  3-C ,  4-C ) :   1.5738 B(  3-C ,  5-H ) :   0.9844 B(  4-C , 20-C ) :   1.0422
B(  6-C ,  7-H ) :   0.9443 B(  6-C ,  8-H ) :   0.9377 B(  6-C ,  9-C ) :   1.0831
B(  9-C , 10-H ) :   0.9474 B(  9-C , 11-H ) :   0.9489 B(  9-C , 12-C ) :   1.0818
B( 12-C , 13-H ) :   0.9717 B( 12-C , 14-H ) :   0.9684 B( 12-C , 15-H ) :   0.9742
B( 16-S , 17-C ) :   1.1758 B( 16-S , 20-C ) :   1.1502 B( 17-C , 18-C ) :   1.6005
B( 17-C , 20-C ) :   0.1016 B( 17-C , 33-H ) :   0.9633 B( 18-C , 19-C ) :   1.2641
B( 18-C , 21-H ) :   0.9878 B( 19-C , 20-C ) :   1.5791 B( 19-C , 22-C ) :   1.0556
B( 22-C , 23-H ) :   0.9363 B( 22-C , 24-H ) :   0.9328 B( 22-C , 25-C ) :   1.0611
B( 25-C , 26-H ) :   0.9529 B( 25-C , 27-H ) :   0.9510 B( 25-C , 28-C ) :   1.0806
B( 28-C , 29-H ) :   0.9709 B( 28-C , 30-H ) :   0.9677 B( 28-C , 31-H ) :   0.9708

Dispersion correction           -0.015455790
FINAL SINGLE POINT ENERGY     -1339.867677143864

DIPOLE MOMENT
-------------
                                X             Y             Z
Electronic contribution:     -0.56188      10.58777       9.95348
Nuclear contribution   :      0.78586     -10.67009     -10.25453
                        -----------------------------------------
Total Dipole Moment    :      0.22398      -0.08232      -0.30105
                        -----------------------------------------
Magnitude (a.u.)       :      0.38415
Magnitude (Debye)      :      0.97644

Rotational constants in cm-1:     0.023960     0.008105     0.007010
Rotational constants in MHz :   718.296668   242.976008   210.141868

                             ****ORCA TERMINATED NORMALLY****
TOTAL RUN TIME: 0 days 0 hours 0 minutes 22 seconds 244 msec
