                         Program Version 4.2.1 -  RELEASE  -
|  1> ! wB97X-D3 SP def2-SVP
|  2> %pal
|  3> nprocs 24
|  4> end
|  5>
|  6> * xyz 0 1
|  7> S 	 -60.4342 	 -55.8962 	 -82.1307
|  8> C 	 -59.3138 	 -55.1654 	 -81.0989
|  9> C 	 -58.0495 	 -55.6503 	 -81.2159
| 10> C 	 -57.9235 	 -56.6818 	 -82.1984
| 11> C 	 -59.1657 	 -56.9486 	 -82.8118
| 12> H 	 -57.0286 	 -57.2684 	 -82.4397
| 13> C 	 -56.8501 	 -55.1012 	 -80.5015
| 14> H 	 -56.7777 	 -54.0213 	 -80.4864
| 15> H 	 -56.0719 	 -55.3607 	 -81.2432
| 16> C 	 -56.4816 	 -55.7455 	 -79.1286
| 17> H 	 -57.3333 	 -55.5993 	 -78.4942
| 18> H 	 -56.3463 	 -56.8363 	 -79.1549
| 19> C 	 -55.4251 	 -55.0544 	 -78.2922
| 20> H 	 -54.4668 	 -55.1714 	 -78.7971
| 21> H 	 -55.6469 	 -54.0209 	 -78.174
| 22> H 	 -55.2665 	 -55.6151 	 -77.3072
| 23> S 	 -59.0804 	 -59.6511 	 -83.2554
| 24> C 	 -59.459 	 -60.2249 	 -84.8428
| 25> C 	 -59.9458 	 -59.2446 	 -85.6265
| 26> C 	 -59.8939 	 -57.9418 	 -85.0701
| 27> C 	 -59.3955 	 -57.9891 	 -83.7407
| 28> H 	 -60.3544 	 -59.507 	 -86.6461
| 29> C 	 -60.3466 	 -56.736 	 -85.7856
| 30> H 	 -59.7953 	 -56.725 	 -86.7227
| 31> H 	 -59.8548 	 -55.8789 	 -85.2031
| 32> C 	 -61.8165 	 -56.5054 	 -85.9834
| 33> H 	 -62.27 	 -56.5273 	 -85.0178
| 34> H 	 -62.0397 	 -57.391 	 -86.5291
| 35> C 	 -62.1852 	 -55.2857 	 -86.7564
| 36> H 	 -63.3172 	 -55.2372 	 -86.8004
| 37> H 	 -61.769 	 -55.1362 	 -87.7936
| 38> H 	 -61.8394 	 -54.4998 	 -86.1625
| 39> H 	 -59.5205 	 -54.2877 	 -80.4276
| 40> H 	 -59.5092 	 -61.2163 	 -85.0715
| 41> *
| 42>
| 43>                          ****END OF INPUT****

CARTESIAN COORDINATES (ANGSTROEM)
---------------------------------
  S    -60.434200  -55.896200  -82.130700
  C    -59.313800  -55.165400  -81.098900
  C    -58.049500  -55.650300  -81.215900
  C    -57.923500  -56.681800  -82.198400
  C    -59.165700  -56.948600  -82.811800
  H    -57.028600  -57.268400  -82.439700
  C    -56.850100  -55.101200  -80.501500
  H    -56.777700  -54.021300  -80.486400
  H    -56.071900  -55.360700  -81.243200
  C    -56.481600  -55.745500  -79.128600
  H    -57.333300  -55.599300  -78.494200
  H    -56.346300  -56.836300  -79.154900
  C    -55.425100  -55.054400  -78.292200
  H    -54.466800  -55.171400  -78.797100
  H    -55.646900  -54.020900  -78.174000
  H    -55.266500  -55.615100  -77.307200
  S    -59.080400  -59.651100  -83.255400
  C    -59.459000  -60.224900  -84.842800
  C    -59.945800  -59.244600  -85.626500
  C    -59.893900  -57.941800  -85.070100
  C    -59.395500  -57.989100  -83.740700
  H    -60.354400  -59.507000  -86.646100
  C    -60.346600  -56.736000  -85.785600
  H    -59.795300  -56.725000  -86.722700
  H    -59.854800  -55.878900  -85.203100
  C    -61.816500  -56.505400  -85.983400
  H    -62.270000  -56.527300  -85.017800
  H    -62.039700  -57.391000  -86.529100
  C    -62.185200  -55.285700  -86.756400
  H    -63.317200  -55.237200  -86.800400
  H    -61.769000  -55.136200  -87.793600
  H    -61.839400  -54.499800  -86.162500
  H    -59.520500  -54.287700  -80.427600
  H    -59.509200  -61.216300  -85.071500

 Total Charge           Charge          ....    0
 Multiplicity           Mult            ....    1
 Number of Electrons    NEL             ....  134
 Basis Dimension        Dim             ....  322

ORBITAL ENERGIES
----------------

  NO   OCC          E(Eh)            E(eV)
   0   2.0000     -88.969574     -2420.9852
   1   2.0000     -88.964082     -2420.8358
   2   2.0000     -10.327811      -281.0340
   3   2.0000     -10.322994      -280.9029
   4   2.0000     -10.310953      -280.5753
   5   2.0000     -10.305375      -280.4235
   6   2.0000     -10.300057      -280.2788
   7   2.0000     -10.299008      -280.2502
   8   2.0000     -10.295466      -280.1539
   9   2.0000     -10.291557      -280.0475
  10   2.0000     -10.291230      -280.0386
  11   2.0000     -10.284341      -279.8511
  12   2.0000     -10.283405      -279.8257
  13   2.0000     -10.279351      -279.7154
  14   2.0000     -10.278116      -279.6817
  15   2.0000     -10.275555      -279.6121
  16   2.0000      -8.084457      -219.9893
  17   2.0000      -8.079085      -219.8431
  18   2.0000      -6.042796      -164.4328
  19   2.0000      -6.038956      -164.3283
  20   2.0000      -6.037504      -164.2888
  21   2.0000      -6.035385      -164.2312
  22   2.0000      -6.033573      -164.1819
  23   2.0000      -6.029915      -164.0823
  24   2.0000      -1.008830       -27.4516
  25   2.0000      -0.988276       -26.8923
  26   2.0000      -0.919131       -25.0108
  27   2.0000      -0.909207       -24.7408
  28   2.0000      -0.876415       -23.8485
  29   2.0000      -0.857284       -23.3279
  30   2.0000      -0.853854       -23.2345
  31   2.0000      -0.812912       -22.1205
  32   2.0000      -0.782740       -21.2995
  33   2.0000      -0.768221       -20.9043
  34   2.0000      -0.709538       -19.3075
  35   2.0000      -0.698943       -19.0192
  36   2.0000      -0.697544       -18.9811
  37   2.0000      -0.658372       -17.9152
  38   2.0000      -0.639740       -17.4082
  39   2.0000      -0.613791       -16.7021
  40   2.0000      -0.598600       -16.2887
  41   2.0000      -0.573758       -15.6127
  42   2.0000      -0.565910       -15.3992
  43   2.0000      -0.560091       -15.2409
  44   2.0000      -0.528391       -14.3782
  45   2.0000      -0.524000       -14.2588
  46   2.0000      -0.520208       -14.1556
  47   2.0000      -0.511249       -13.9118
  48   2.0000      -0.508463       -13.8360
  49   2.0000      -0.500293       -13.6137
  50   2.0000      -0.497014       -13.5245
  51   2.0000      -0.479899       -13.0587
  52   2.0000      -0.468139       -12.7387
  53   2.0000      -0.464324       -12.6349
  54   2.0000      -0.458779       -12.4840
  55   2.0000      -0.451773       -12.2934
  56   2.0000      -0.443465       -12.0673
  57   2.0000      -0.439874       -11.9696
  58   2.0000      -0.432589       -11.7713
  59   2.0000      -0.429796       -11.6953
  60   2.0000      -0.425415       -11.5761
  61   2.0000      -0.405993       -11.0476
  62   2.0000      -0.402249       -10.9457
  63   2.0000      -0.340951        -9.2778
  64   2.0000      -0.335668        -9.1340
  65   2.0000      -0.326422        -8.8824
  66   2.0000      -0.294137        -8.0039
  67   0.0000       0.031036         0.8445
  68   0.0000       0.067253         1.8301
  69   0.0000       0.110913         3.0181
  70   0.0000       0.113350         3.0844
  71   0.0000       0.135819         3.6958

MULLIKEN ATOMIC CHARGES
-----------------------
   0 S :    0.130647
   1 C :   -0.124640
   2 C :   -0.084573
   3 C :    0.023641
   4 C :   -0.189118
   5 H :    0.030095
   6 C :    0.055322
   7 H :    0.021129
   8 H :    0.016302
   9 C :   -0.061909
  10 H :    0.015020
  11 H :    0.031696
  12 C :   -0.049823
  13 H :    0.023091
  14 H :    0.031579
  15 H :    0.046163
  16 S :    0.115922
  17 C :   -0.051309
  18 C :   -0.053264
  19 C :   -0.019832
  20 C :   -0.172871
  21 H :    0.035337
  22 C :    0.019136
  23 H :    0.020084
  24 H :    0.023149
  25 C :   -0.010593
  26 H :    0.021116
  27 H :    0.007376
  28 C :   -0.032453
  29 H :    0.044274
  30 H :    0.040568
  31 H :    0.016868
  32 H :    0.062224
  33 H :    0.019644
Sum of atomic charges:    0.0000000

LOEWDIN ATOMIC CHARGES
----------------------
   0 S :    0.423208
   1 C :   -0.218736
   2 C :   -0.075346
   3 C :   -0.051114
   4 C :   -0.196071
   5 H :    0.037826
   6 C :   -0.035853
   7 H :    0.028314
   8 H :    0.032873
   9 C :   -0.045502
  10 H :    0.020026
  11 H :    0.027115
  12 C :   -0.065167
  13 H :    0.019820
  14 H :    0.019772
  15 H :    0.038672
  16 S :    0.414484
  17 C :   -0.176735
  18 C :   -0.076734
  19 C :   -0.053239
  20 C :   -0.203395
  21 H :    0.040176
  22 C :   -0.044632
  23 H :    0.030305
  24 H :    0.029721
  25 C :   -0.037540
  26 H :    0.024104
  27 H :    0.018674
  28 C :   -0.063261
  29 H :    0.036326
  30 H :    0.032447
  31 H :    0.018054
  32 H :    0.041143
  33 H :    0.010267

  Mayer bond orders larger than 0.100000
B(  0-S ,  1-C ) :   1.1500 B(  0-S ,  4-C ) :   1.1416 B(  1-C ,  2-C ) :   1.6165
B(  1-C , 32-H ) :   0.9553 B(  2-C ,  3-C ) :   1.2545 B(  2-C ,  6-C ) :   1.0160
B(  3-C ,  4-C ) :   1.5478 B(  3-C ,  5-H ) :   0.9901 B(  4-C , 20-C ) :   1.0845
B(  6-C ,  7-H ) :   0.9456 B(  6-C ,  8-H ) :   0.9369 B(  6-C ,  9-C ) :   1.0513
B(  9-C , 10-H ) :   0.9578 B(  9-C , 11-H ) :   0.9551 B(  9-C , 12-C ) :   1.0852
B( 12-C , 13-H ) :   0.9761 B( 12-C , 14-H ) :   0.9743 B( 12-C , 15-H ) :   0.9714
B( 16-S , 17-C ) :   1.1548 B( 16-S , 20-C ) :   1.1461 B( 17-C , 18-C ) :   1.6116
B( 17-C , 33-H ) :   0.9752 B( 18-C , 19-C ) :   1.2501 B( 18-C , 21-H ) :   0.9786
B( 19-C , 20-C ) :   1.5479 B( 19-C , 22-C ) :   1.0652 B( 22-C , 23-H ) :   0.9245
B( 22-C , 24-H ) :   0.9177 B( 22-C , 25-C ) :   1.0620 B( 25-C , 26-H ) :   0.9452
B( 25-C , 27-H ) :   0.9500 B( 25-C , 28-C ) :   1.0908 B( 28-C , 29-H ) :   0.9715
B( 28-C , 30-H ) :   0.9720 B( 28-C , 31-H ) :   0.9717

Dispersion correction           -0.013919426
FINAL SINGLE POINT ENERGY     -1339.873681797235

DIPOLE MOMENT
-------------
                                X             Y             Z
Electronic contribution:     -5.81763     -13.84954      -0.94565
Nuclear contribution   :      5.94112      14.03752       0.84015
                        -----------------------------------------
Total Dipole Moment    :      0.12349       0.18798      -0.10550
                        -----------------------------------------
Magnitude (a.u.)       :      0.24843
Magnitude (Debye)      :      0.63145

Rotational constants in cm-1:     0.022191     0.007385     0.005961
Rotational constants in MHz :   665.260711   221.383776   178.697192

                             ****ORCA TERMINATED NORMALLY****
TOTAL RUN TIME: 0 days 0 hours 0 minutes 21 seconds 88 msec
