                         Program Version 4.2.1 -  RELEASE  -
|  1> ! wB97X-D3 SP def2-SVP
|  2> %pal
|  3> nprocs 24
|  4> end
|  5>
|  6> * xyz 0 1
|  7> S 	 -104.308 	 22.6426 	 -110.478
|  8> C 	 -104.692 	 21.2786 	 -111.556
|  9> C 	 -105.786 	 21.542 	 -112.377
| 10> C 	 -106.309 	 22.9153 	 -112.149
| 11> C 	 -105.557 	 23.6402 	 -111.212
| 12> H 	 -107.216 	 23.187 	 -112.566
| 13> C 	 -106.319 	 20.5579 	 -113.395
| 14> H 	 -107.396 	 20.688 	 -113.463
| 15> H 	 -106.01 	 19.4977 	 -113.203
| 16> C 	 -105.515 	 20.8166 	 -114.735
| 17> H 	 -106.017 	 20.3608 	 -115.541
| 18> H 	 -105.561 	 21.7796 	 -115.161
| 19> C 	 -104.046 	 20.3259 	 -114.728
| 20> H 	 -103.577 	 20.2813 	 -115.671
| 21> H 	 -103.472 	 20.936 	 -114.086
| 22> H 	 -103.977 	 19.3654 	 -114.199
| 23> S 	 -105.483 	 25.128 	 -108.871
| 24> C 	 -106.149 	 26.6963 	 -108.801
| 25> C 	 -106.521 	 27.056 	 -110.082
| 26> C 	 -106.306 	 26.1374 	 -111.123
| 27> C 	 -105.868 	 24.9426 	 -110.591
| 28> H 	 -106.79 	 28.0416 	 -110.285
| 29> C 	 -106.724 	 26.4714 	 -112.549
| 30> H 	 -107.365 	 27.3854 	 -112.573
| 31> H 	 -107.256 	 25.5294 	 -112.912
| 32> C 	 -105.513 	 26.7181 	 -113.444
| 33> H 	 -104.886 	 25.8619 	 -113.432
| 34> H 	 -104.863 	 27.4829 	 -113.088
| 35> C 	 -105.869 	 27.1317 	 -114.956
| 36> H 	 -105.09 	 26.8577 	 -115.608
| 37> H 	 -105.947 	 28.2222 	 -114.907
| 38> H 	 -106.765 	 26.712 	 -115.311
| 39> H 	 -104.312 	 20.2631 	 -111.382
| 40> H 	 -106.324 	 27.2636 	 -107.972
| 41> *
| 42>
| 43>                          ****END OF INPUT****

CARTESIAN COORDINATES (ANGSTROEM)
---------------------------------
  S    -104.308000   22.642600  -110.478000
  C    -104.692000   21.278600  -111.556000
  C    -105.786000   21.542000  -112.377000
  C    -106.309000   22.915300  -112.149000
  C    -105.557000   23.640200  -111.212000
  H    -107.216000   23.187000  -112.566000
  C    -106.319000   20.557900  -113.395000
  H    -107.396000   20.688000  -113.463000
  H    -106.010000   19.497700  -113.203000
  C    -105.515000   20.816600  -114.735000
  H    -106.017000   20.360800  -115.541000
  H    -105.561000   21.779600  -115.161000
  C    -104.046000   20.325900  -114.728000
  H    -103.577000   20.281300  -115.671000
  H    -103.472000   20.936000  -114.086000
  H    -103.977000   19.365400  -114.199000
  S    -105.483000   25.128000  -108.871000
  C    -106.149000   26.696300  -108.801000
  C    -106.521000   27.056000  -110.082000
  C    -106.306000   26.137400  -111.123000
  C    -105.868000   24.942600  -110.591000
  H    -106.790000   28.041600  -110.285000
  C    -106.724000   26.471400  -112.549000
  H    -107.365000   27.385400  -112.573000
  H    -107.256000   25.529400  -112.912000
  C    -105.513000   26.718100  -113.444000
  H    -104.886000   25.861900  -113.432000
  H    -104.863000   27.482900  -113.088000
  C    -105.869000   27.131700  -114.956000
  H    -105.090000   26.857700  -115.608000
  H    -105.947000   28.222200  -114.907000
  H    -106.765000   26.712000  -115.311000
  H    -104.312000   20.263100  -111.382000
  H    -106.324000   27.263600  -107.972000

 Total Charge           Charge          ....    0
 Multiplicity           Mult            ....    1
 Number of Electrons    NEL             ....  134
 Basis Dimension        Dim             ....  322

ORBITAL ENERGIES
----------------

  NO   OCC          E(Eh)            E(eV)
   0   2.0000     -88.965842     -2420.8836
   1   2.0000     -88.965364     -2420.8706
   2   2.0000     -10.337886      -281.3082
   3   2.0000     -10.329515      -281.0804
   4   2.0000     -10.315432      -280.6972
   5   2.0000     -10.309142      -280.5260
   6   2.0000     -10.308568      -280.5104
   7   2.0000     -10.304989      -280.4130
   8   2.0000     -10.302890      -280.3559
   9   2.0000     -10.300408      -280.2884
  10   2.0000     -10.299226      -280.2562
  11   2.0000     -10.283543      -279.8294
  12   2.0000     -10.281554      -279.7753
  13   2.0000     -10.280176      -279.7378
  14   2.0000     -10.273106      -279.5454
  15   2.0000     -10.270407      -279.4720
  16   2.0000      -8.081018      -219.8957
  17   2.0000      -8.079535      -219.8553
  18   2.0000      -6.039484      -164.3427
  19   2.0000      -6.038273      -164.3098
  20   2.0000      -6.035420      -164.2321
  21   2.0000      -6.034151      -164.1976
  22   2.0000      -6.031819      -164.1341
  23   2.0000      -6.030061      -164.0863
  24   2.0000      -1.007830       -27.4244
  25   2.0000      -0.979090       -26.6424
  26   2.0000      -0.910025       -24.7630
  27   2.0000      -0.907586       -24.6967
  28   2.0000      -0.864208       -23.5163
  29   2.0000      -0.852168       -23.1887
  30   2.0000      -0.840746       -22.8779
  31   2.0000      -0.812492       -22.1090
  32   2.0000      -0.784430       -21.3454
  33   2.0000      -0.776303       -21.1243
  34   2.0000      -0.714584       -19.4448
  35   2.0000      -0.704972       -19.1833
  36   2.0000      -0.695569       -18.9274
  37   2.0000      -0.668353       -18.1868
  38   2.0000      -0.638265       -17.3681
  39   2.0000      -0.624593       -16.9960
  40   2.0000      -0.598979       -16.2990
  41   2.0000      -0.566696       -15.4206
  42   2.0000      -0.564634       -15.3645
  43   2.0000      -0.558176       -15.1888
  44   2.0000      -0.536210       -14.5910
  45   2.0000      -0.523449       -14.2438
  46   2.0000      -0.519513       -14.1367
  47   2.0000      -0.511720       -13.9246
  48   2.0000      -0.499642       -13.5959
  49   2.0000      -0.494470       -13.4552
  50   2.0000      -0.492060       -13.3896
  51   2.0000      -0.487895       -13.2763
  52   2.0000      -0.472874       -12.8675
  53   2.0000      -0.465774       -12.6744
  54   2.0000      -0.458242       -12.4694
  55   2.0000      -0.447727       -12.1833
  56   2.0000      -0.445909       -12.1338
  57   2.0000      -0.444092       -12.0844
  58   2.0000      -0.437811       -11.9134
  59   2.0000      -0.426384       -11.6025
  60   2.0000      -0.419158       -11.4059
  61   2.0000      -0.414128       -11.2690
  62   2.0000      -0.409090       -11.1319
  63   2.0000      -0.353458        -9.6181
  64   2.0000      -0.333144        -9.0653
  65   2.0000      -0.324685        -8.8351
  66   2.0000      -0.285834        -7.7779
  67   0.0000       0.021726         0.5912
  68   0.0000       0.074352         2.0232
  69   0.0000       0.103007         2.8030
  70   0.0000       0.117182         3.1887
  71   0.0000       0.130668         3.5557

MULLIKEN ATOMIC CHARGES
-----------------------
   0 S :    0.086076
   1 C :   -0.126008
   2 C :   -0.112989
   3 C :    0.042508
   4 C :   -0.106851
   5 H :   -0.009403
   6 C :    0.055666
   7 H :    0.036821
   8 H :    0.039003
   9 C :   -0.050365
  10 H :    0.005889
  11 H :    0.010384
  12 C :   -0.023716
  13 H :    0.034519
  14 H :    0.028541
  15 H :    0.011204
  16 S :    0.104779
  17 C :   -0.038795
  18 C :   -0.026571
  19 C :   -0.029137
  20 C :   -0.158247
  21 H :   -0.012062
  22 C :    0.061306
  23 H :    0.032260
  24 H :    0.040891
  25 C :   -0.091090
  26 H :    0.026163
  27 H :    0.020517
  28 C :   -0.013749
  29 H :    0.028956
  30 H :    0.031864
  31 H :    0.019316
  32 H :    0.059155
  33 H :    0.023163
Sum of atomic charges:   -0.0000000

LOEWDIN ATOMIC CHARGES
----------------------
   0 S :    0.382172
   1 C :   -0.202836
   2 C :   -0.050702
   3 C :   -0.059753
   4 C :   -0.178793
   5 H :    0.015354
   6 C :   -0.025380
   7 H :    0.032008
   8 H :    0.038461
   9 C :   -0.036765
  10 H :    0.016390
  11 H :    0.018488
  12 C :   -0.057498
  13 H :    0.023671
  14 H :    0.020294
  15 H :    0.023084
  16 S :    0.417510
  17 C :   -0.182888
  18 C :   -0.066113
  19 C :   -0.057240
  20 C :   -0.190629
  21 H :    0.016414
  22 C :   -0.028902
  23 H :    0.034058
  24 H :    0.040387
  25 C :   -0.035284
  26 H :    0.018808
  27 H :    0.019927
  28 C :   -0.054834
  29 H :    0.021907
  30 H :    0.027526
  31 H :    0.015465
  32 H :    0.031106
  33 H :    0.014586

  Mayer bond orders larger than 0.100000
B(  0-S ,  1-C ) :   1.1114 B(  0-S ,  4-C ) :   1.1442 B(  1-C ,  2-C ) :   1.6418
B(  1-C , 32-H ) :   0.9601 B(  2-C ,  3-C ) :   1.2229 B(  2-C ,  6-C ) :   1.0405
B(  3-C ,  4-C ) :   1.5711 B(  3-C ,  5-H ) :   0.9971 B(  4-C , 20-C ) :   1.0553
B(  6-C ,  7-H ) :   0.9404 B(  6-C ,  8-H ) :   0.9472 B(  6-C ,  9-C ) :   1.0498
B(  9-C , 10-H ) :   0.9535 B(  9-C , 11-H ) :   0.9538 B(  9-C , 12-C ) :   1.0750
B( 12-C , 13-H ) :   0.9736 B( 12-C , 14-H ) :   0.9707 B( 12-C , 15-H ) :   0.9720
B( 16-S , 17-C ) :   1.1632 B( 16-S , 20-C ) :   1.1496 B( 17-C , 18-C ) :   1.5729
B( 17-C , 20-C ) :   0.1026 B( 17-C , 33-H ) :   0.9833 B( 18-C , 19-C ) :   1.2859
B( 18-C , 21-H ) :   0.9908 B( 19-C , 20-C ) :   1.5653 B( 19-C , 22-C ) :   1.0302
B( 22-C , 23-H ) :   0.9419 B( 22-C , 24-H ) :   0.9329 B( 22-C , 25-C ) :   1.0601
B( 25-C , 26-H ) :   0.9607 B( 25-C , 27-H ) :   0.9601 B( 25-C , 28-C ) :   1.0662
B( 28-C , 29-H ) :   0.9779 B( 28-C , 30-H ) :   0.9813 B( 28-C , 31-H ) :   0.9789

Dispersion correction           -0.014236476
FINAL SINGLE POINT ENERGY     -1339.857808207577

DIPOLE MOMENT
-------------
                                X             Y             Z
Electronic contribution:      2.25423       1.74562      28.70684
Nuclear contribution   :     -2.59919      -1.67317     -29.24481
                        -----------------------------------------
Total Dipole Moment    :     -0.34497       0.07244      -0.53797
                        -----------------------------------------
Magnitude (a.u.)       :      0.64317
Magnitude (Debye)      :      1.63480

Rotational constants in cm-1:     0.018403     0.009162     0.006691
Rotational constants in MHz :   551.712130   274.669292   200.598042

                             ****ORCA TERMINATED NORMALLY****
TOTAL RUN TIME: 0 days 0 hours 0 minutes 21 seconds 642 msec
