                         Program Version 4.2.1 -  RELEASE  -
|  1> ! wB97X-D3 SP def2-SVP
|  2> %pal
|  3> nprocs 24
|  4> end
|  5>
|  6> * xyz 0 1
|  7> S 	 -145.002 	 29.6063 	 -12.5611
|  8> C 	 -145.61 	 28.7371 	 -14.0001
|  9> C 	 -146.942 	 28.9987 	 -14.1474
| 10> C 	 -147.488 	 29.8637 	 -13.1767
| 11> C 	 -146.612 	 30.2434 	 -12.179
| 12> H 	 -148.462 	 30.3316 	 -13.1895
| 13> C 	 -147.767 	 28.2706 	 -15.202
| 14> H 	 -148.752 	 28.7821 	 -15.308
| 15> H 	 -148.004 	 27.2852 	 -14.8948
| 16> C 	 -147.069 	 28.2722 	 -16.6138
| 17> H 	 -147.019 	 29.3314 	 -16.9234
| 18> H 	 -146.03 	 27.8501 	 -16.5961
| 19> C 	 -147.953 	 27.5511 	 -17.7376
| 20> H 	 -148.981 	 27.9259 	 -17.7134
| 21> H 	 -147.643 	 27.8891 	 -18.6925
| 22> H 	 -147.912 	 26.5291 	 -17.6763
| 23> S 	 -147.137 	 30.7912 	 -9.53063
| 24> C 	 -147.084 	 32.5147 	 -9.0184
| 25> C 	 -147.08 	 33.3303 	 -10.0905
| 26> C 	 -146.963 	 32.6449 	 -11.3279
| 27> C 	 -146.753 	 31.2993 	 -11.1712
| 28> H 	 -147.185 	 34.4195 	 -9.91115
| 29> C 	 -146.979 	 33.3541 	 -12.6814
| 30> H 	 -147.661 	 34.223 	 -12.5828
| 31> H 	 -147.389 	 32.6335 	 -13.3738
| 32> C 	 -145.584 	 33.8223 	 -13.1471
| 33> H 	 -145.775 	 34.2524 	 -14.1033
| 34> H 	 -144.897 	 33.0256 	 -13.3362
| 35> C 	 -144.769 	 34.7729 	 -12.3113
| 36> H 	 -143.977 	 35.1891 	 -12.9111
| 37> H 	 -144.311 	 34.2466 	 -11.4866
| 38> H 	 -145.426 	 35.5924 	 -11.9405
| 39> H 	 -144.939 	 28.1959 	 -14.6258
| 40> H 	 -147.211 	 32.9197 	 -7.98367
| 41> *
| 42>
| 43>                          ****END OF INPUT****

CARTESIAN COORDINATES (ANGSTROEM)
---------------------------------
  S    -145.002000   29.606300  -12.561100
  C    -145.610000   28.737100  -14.000100
  C    -146.942000   28.998700  -14.147400
  C    -147.488000   29.863700  -13.176700
  C    -146.612000   30.243400  -12.179000
  H    -148.462000   30.331600  -13.189500
  C    -147.767000   28.270600  -15.202000
  H    -148.752000   28.782100  -15.308000
  H    -148.004000   27.285200  -14.894800
  C    -147.069000   28.272200  -16.613800
  H    -147.019000   29.331400  -16.923400
  H    -146.030000   27.850100  -16.596100
  C    -147.953000   27.551100  -17.737600
  H    -148.981000   27.925900  -17.713400
  H    -147.643000   27.889100  -18.692500
  H    -147.912000   26.529100  -17.676300
  S    -147.137000   30.791200   -9.530630
  C    -147.084000   32.514700   -9.018400
  C    -147.080000   33.330300  -10.090500
  C    -146.963000   32.644900  -11.327900
  C    -146.753000   31.299300  -11.171200
  H    -147.185000   34.419500   -9.911150
  C    -146.979000   33.354100  -12.681400
  H    -147.661000   34.223000  -12.582800
  H    -147.389000   32.633500  -13.373800
  C    -145.584000   33.822300  -13.147100
  H    -145.775000   34.252400  -14.103300
  H    -144.897000   33.025600  -13.336200
  C    -144.769000   34.772900  -12.311300
  H    -143.977000   35.189100  -12.911100
  H    -144.311000   34.246600  -11.486600
  H    -145.426000   35.592400  -11.940500
  H    -144.939000   28.195900  -14.625800
  H    -147.211000   32.919700   -7.983670

 Total Charge           Charge          ....    0
 Multiplicity           Mult            ....    1
 Number of Electrons    NEL             ....  134
 Basis Dimension        Dim             ....  322

ORBITAL ENERGIES
----------------

  NO   OCC          E(Eh)            E(eV)
   0   2.0000     -88.962518     -2420.7932
   1   2.0000     -88.961620     -2420.7688
   2   2.0000     -10.330175      -281.0984
   3   2.0000     -10.322873      -280.8996
   4   2.0000     -10.318882      -280.7911
   5   2.0000     -10.315847      -280.7085
   6   2.0000     -10.300708      -280.2965
   7   2.0000     -10.300449      -280.2895
   8   2.0000     -10.298932      -280.2482
   9   2.0000     -10.295539      -280.1559
  10   2.0000     -10.294529      -280.1284
  11   2.0000     -10.292171      -280.0642
  12   2.0000     -10.291704      -280.0515
  13   2.0000     -10.274211      -279.5755
  14   2.0000     -10.274192      -279.5750
  15   2.0000     -10.271865      -279.5116
  16   2.0000      -8.076461      -219.7717
  17   2.0000      -8.075738      -219.7520
  18   2.0000      -6.034941      -164.2191
  19   2.0000      -6.034380      -164.2038
  20   2.0000      -6.030973      -164.1111
  21   2.0000      -6.030593      -164.1008
  22   2.0000      -6.027382      -164.0134
  23   2.0000      -6.026127      -163.9792
  24   2.0000      -1.004535       -27.3348
  25   2.0000      -0.983220       -26.7548
  26   2.0000      -0.906094       -24.6561
  27   2.0000      -0.903548       -24.5868
  28   2.0000      -0.867176       -23.5970
  29   2.0000      -0.846640       -23.0383
  30   2.0000      -0.843942       -22.9648
  31   2.0000      -0.818521       -22.2731
  32   2.0000      -0.784047       -21.3350
  33   2.0000      -0.771303       -20.9882
  34   2.0000      -0.709680       -19.3114
  35   2.0000      -0.701943       -19.1008
  36   2.0000      -0.686142       -18.6709
  37   2.0000      -0.656135       -17.8543
  38   2.0000      -0.647992       -17.6328
  39   2.0000      -0.614029       -16.7086
  40   2.0000      -0.587508       -15.9869
  41   2.0000      -0.569931       -15.5086
  42   2.0000      -0.563424       -15.3315
  43   2.0000      -0.553968       -15.0742
  44   2.0000      -0.543219       -14.7817
  45   2.0000      -0.523327       -14.2404
  46   2.0000      -0.521555       -14.1922
  47   2.0000      -0.518316       -14.1041
  48   2.0000      -0.502635       -13.6774
  49   2.0000      -0.496169       -13.5015
  50   2.0000      -0.483824       -13.1655
  51   2.0000      -0.480753       -13.0820
  52   2.0000      -0.473063       -12.8727
  53   2.0000      -0.464007       -12.6263
  54   2.0000      -0.460576       -12.5329
  55   2.0000      -0.444964       -12.1081
  56   2.0000      -0.439419       -11.9572
  57   2.0000      -0.434976       -11.8363
  58   2.0000      -0.431571       -11.7436
  59   2.0000      -0.428483       -11.6596
  60   2.0000      -0.419333       -11.4106
  61   2.0000      -0.415327       -11.3016
  62   2.0000      -0.408671       -11.1205
  63   2.0000      -0.335304        -9.1241
  64   2.0000      -0.332089        -9.0366
  65   2.0000      -0.322738        -8.7821
  66   2.0000      -0.308698        -8.4001
  67   0.0000       0.038250         1.0408
  68   0.0000       0.053619         1.4590
  69   0.0000       0.104777         2.8511
  70   0.0000       0.119814         3.2603
  71   0.0000       0.128448         3.4952

MULLIKEN ATOMIC CHARGES
-----------------------
   0 S :    0.090360
   1 C :   -0.128859
   2 C :   -0.060307
   3 C :    0.052859
   4 C :   -0.166939
   5 H :    0.016659
   6 C :    0.080626
   7 H :    0.019110
   8 H :    0.037624
   9 C :   -0.150174
  10 H :    0.039748
  11 H :    0.045049
  12 C :   -0.002332
  13 H :    0.022147
  14 H :    0.018934
  15 H :    0.026809
  16 S :    0.095293
  17 C :   -0.098639
  18 C :   -0.050341
  19 C :   -0.032570
  20 C :   -0.183250
  21 H :    0.032041
  22 C :    0.108917
  23 H :    0.025685
  24 H :    0.015803
  25 C :   -0.057532
  26 H :    0.016275
  27 H :    0.019570
  28 C :   -0.040388
  29 H :    0.031753
  30 H :    0.040133
  31 H :    0.022203
  32 H :    0.047398
  33 H :    0.066336
Sum of atomic charges:    0.0000000

LOEWDIN ATOMIC CHARGES
----------------------
   0 S :    0.384376
   1 C :   -0.171369
   2 C :   -0.069513
   3 C :   -0.060965
   4 C :   -0.188373
   5 H :    0.033356
   6 C :   -0.027227
   7 H :    0.030981
   8 H :    0.025903
   9 C :   -0.038167
  10 H :    0.027540
  11 H :    0.024472
  12 C :   -0.056073
  13 H :    0.027556
  14 H :    0.022232
  15 H :    0.011993
  16 S :    0.377147
  17 C :   -0.172213
  18 C :   -0.080310
  19 C :   -0.052026
  20 C :   -0.205328
  21 H :    0.039885
  22 C :   -0.024714
  23 H :    0.032630
  24 H :    0.030530
  25 C :   -0.039805
  26 H :    0.018998
  27 H :    0.021972
  28 C :   -0.061869
  29 H :    0.027788
  30 H :    0.025697
  31 H :    0.022486
  32 H :    0.022225
  33 H :    0.040185

  Mayer bond orders larger than 0.100000
B(  0-S ,  1-C ) :   1.1373 B(  0-S ,  4-C ) :   1.1546 B(  1-C ,  2-C ) :   1.5930
B(  1-C ,  4-C ) :   0.1023 B(  1-C , 32-H ) :   0.9821 B(  2-C ,  3-C ) :   1.2444
B(  2-C ,  6-C ) :   1.0092 B(  3-C ,  4-C ) :   1.5870 B(  3-C ,  5-H ) :   0.9956
B(  4-C , 20-C ) :   0.9954 B(  6-C ,  7-H ) :   0.9434 B(  6-C ,  8-H ) :   0.9457
B(  6-C ,  9-C ) :   1.0502 B(  9-C , 10-H ) :   0.9636 B(  9-C , 11-H ) :   0.9577
B(  9-C , 12-C ) :   1.0773 B( 12-C , 13-H ) :   0.9730 B( 12-C , 14-H ) :   0.9754
B( 12-C , 15-H ) :   0.9800 B( 16-S , 17-C ) :   1.1303 B( 16-S , 20-C ) :   1.1312
B( 17-C , 18-C ) :   1.6583 B( 17-C , 33-H ) :   0.9594 B( 18-C , 19-C ) :   1.2092
B( 18-C , 21-H ) :   0.9839 B( 19-C , 20-C ) :   1.6270 B( 19-C , 22-C ) :   1.0400
B( 22-C , 23-H ) :   0.9320 B( 22-C , 24-H ) :   0.9203 B( 22-C , 25-C ) :   1.0844
B( 25-C , 26-H ) :   0.9542 B( 25-C , 27-H ) :   0.9505 B( 25-C , 28-C ) :   1.0882
B( 28-C , 29-H ) :   0.9701 B( 28-C , 30-H ) :   0.9728 B( 28-C , 31-H ) :   0.9739

Dispersion correction           -0.014766158
FINAL SINGLE POINT ENERGY     -1339.876643051946

DIPOLE MOMENT
-------------
                                X             Y             Z
Electronic contribution:      2.60721      -5.72637      24.00813
Nuclear contribution   :     -2.91270       6.04366     -24.63944
                        -----------------------------------------
Total Dipole Moment    :     -0.30549       0.31729      -0.63131
                        -----------------------------------------
Magnitude (a.u.)       :      0.76978
Magnitude (Debye)      :      1.95661

Rotational constants in cm-1:     0.022565     0.007391     0.006539
Rotational constants in MHz :   676.491517   221.565024   196.019988

                             ****ORCA TERMINATED NORMALLY****
TOTAL RUN TIME: 0 days 0 hours 0 minutes 21 seconds 611 msec
