                         Program Version 4.2.1 -  RELEASE  -
|  1> ! wB97X-D3 SP def2-SVP
|  2> %pal
|  3> nprocs 24
|  4> end
|  5>
|  6> * xyz 0 1
|  7> S 	 -50.9557 	 13.6696 	 -107.674
|  8> C 	 -52.5383 	 13.062 	 -107.534
|  9> C 	 -52.7759 	 12.5984 	 -106.254
| 10> C 	 -51.5684 	 12.493 	 -105.537
| 11> C 	 -50.4333 	 12.9684 	 -106.197
| 12> H 	 -51.4503 	 12.0569 	 -104.571
| 13> C 	 -54.1811 	 12.2009 	 -105.67
| 14> H 	 -54.892 	 12.4067 	 -106.489
| 15> H 	 -54.3948 	 12.8512 	 -104.842
| 16> C 	 -54.2954 	 10.7106 	 -105.403
| 17> H 	 -53.6112 	 10.468 	 -104.565
| 18> H 	 -55.2341 	 10.4711 	 -104.92
| 19> C 	 -54.1908 	 9.89882 	 -106.751
| 20> H 	 -54.1098 	 8.76835 	 -106.629
| 21> H 	 -55.0809 	 10.0203 	 -107.322
| 22> H 	 -53.4177 	 10.1957 	 -107.448
| 23> S 	 -48.3467 	 11.6875 	 -104.902
| 24> C 	 -47.0582 	 12.6219 	 -104.145
| 25> C 	 -47.1172 	 13.9452 	 -104.523
| 26> C 	 -48.1939 	 14.2206 	 -105.339
| 27> C 	 -49.0747 	 13.1203 	 -105.528
| 28> H 	 -46.3275 	 14.5964 	 -104.174
| 29> C 	 -48.4245 	 15.6066 	 -105.834
| 30> H 	 -48.8028 	 15.4373 	 -106.82
| 31> H 	 -47.4896 	 16.1621 	 -105.996
| 32> C 	 -49.4286 	 16.473 	 -105.126
| 33> H 	 -50.3958 	 16.1703 	 -105.322
| 34> H 	 -49.4239 	 17.5041 	 -105.445
| 35> C 	 -49.2218 	 16.5649 	 -103.561
| 36> H 	 -48.1679 	 16.516 	 -103.261
| 37> H 	 -49.6389 	 15.7366 	 -103.044
| 38> H 	 -49.7691 	 17.3646 	 -103.135
| 39> H 	 -53.2432 	 13.2268 	 -108.307
| 40> H 	 -46.315 	 12.2477 	 -103.48
| 41> *
| 42>
| 43>                          ****END OF INPUT****

CARTESIAN COORDINATES (ANGSTROEM)
---------------------------------
  S    -50.955700   13.669600  -107.674000
  C    -52.538300   13.062000  -107.534000
  C    -52.775900   12.598400  -106.254000
  C    -51.568400   12.493000  -105.537000
  C    -50.433300   12.968400  -106.197000
  H    -51.450300   12.056900  -104.571000
  C    -54.181100   12.200900  -105.670000
  H    -54.892000   12.406700  -106.489000
  H    -54.394800   12.851200  -104.842000
  C    -54.295400   10.710600  -105.403000
  H    -53.611200   10.468000  -104.565000
  H    -55.234100   10.471100  -104.920000
  C    -54.190800    9.898820  -106.751000
  H    -54.109800    8.768350  -106.629000
  H    -55.080900   10.020300  -107.322000
  H    -53.417700   10.195700  -107.448000
  S    -48.346700   11.687500  -104.902000
  C    -47.058200   12.621900  -104.145000
  C    -47.117200   13.945200  -104.523000
  C    -48.193900   14.220600  -105.339000
  C    -49.074700   13.120300  -105.528000
  H    -46.327500   14.596400  -104.174000
  C    -48.424500   15.606600  -105.834000
  H    -48.802800   15.437300  -106.820000
  H    -47.489600   16.162100  -105.996000
  C    -49.428600   16.473000  -105.126000
  H    -50.395800   16.170300  -105.322000
  H    -49.423900   17.504100  -105.445000
  C    -49.221800   16.564900  -103.561000
  H    -48.167900   16.516000  -103.261000
  H    -49.638900   15.736600  -103.044000
  H    -49.769100   17.364600  -103.135000
  H    -53.243200   13.226800  -108.307000
  H    -46.315000   12.247700  -103.480000

 Total Charge           Charge          ....    0
 Multiplicity           Mult            ....    1
 Number of Electrons    NEL             ....  134
 Basis Dimension        Dim             ....  322

ORBITAL ENERGIES
----------------

  NO   OCC          E(Eh)            E(eV)
   0   2.0000     -88.968458     -2420.9548
   1   2.0000     -88.968069     -2420.9442
   2   2.0000     -10.332982      -281.1747
   3   2.0000     -10.332898      -281.1724
   4   2.0000     -10.312019      -280.6043
   5   2.0000     -10.311282      -280.5842
   6   2.0000     -10.302676      -280.3501
   7   2.0000     -10.298364      -280.2327
   8   2.0000     -10.297466      -280.2083
   9   2.0000     -10.292400      -280.0704
  10   2.0000     -10.291056      -280.0339
  11   2.0000     -10.287566      -279.9389
  12   2.0000     -10.281159      -279.7646
  13   2.0000     -10.281139      -279.7640
  14   2.0000     -10.274208      -279.5754
  15   2.0000     -10.265175      -279.3296
  16   2.0000      -8.083780      -219.9708
  17   2.0000      -8.082944      -219.9481
  18   2.0000      -6.042085      -164.4135
  19   2.0000      -6.041327      -164.3929
  20   2.0000      -6.038059      -164.3039
  21   2.0000      -6.037379      -164.2854
  22   2.0000      -6.034804      -164.2154
  23   2.0000      -6.033978      -164.1929
  24   2.0000      -1.012015       -27.5383
  25   2.0000      -0.992738       -27.0138
  26   2.0000      -0.909362       -24.7450
  27   2.0000      -0.908586       -24.7239
  28   2.0000      -0.867938       -23.6178
  29   2.0000      -0.846333       -23.0299
  30   2.0000      -0.842663       -22.9300
  31   2.0000      -0.814733       -22.1700
  32   2.0000      -0.783808       -21.3285
  33   2.0000      -0.775638       -21.1062
  34   2.0000      -0.712399       -19.3854
  35   2.0000      -0.703008       -19.1298
  36   2.0000      -0.688243       -18.7280
  37   2.0000      -0.666543       -18.1376
  38   2.0000      -0.644686       -17.5428
  39   2.0000      -0.619010       -16.8441
  40   2.0000      -0.589101       -16.0303
  41   2.0000      -0.571952       -15.5636
  42   2.0000      -0.558167       -15.1885
  43   2.0000      -0.555578       -15.1180
  44   2.0000      -0.546393       -14.8681
  45   2.0000      -0.536981       -14.6120
  46   2.0000      -0.514891       -14.0109
  47   2.0000      -0.507590       -13.8122
  48   2.0000      -0.498192       -13.5565
  49   2.0000      -0.492462       -13.4006
  50   2.0000      -0.483392       -13.1538
  51   2.0000      -0.476608       -12.9692
  52   2.0000      -0.473203       -12.8765
  53   2.0000      -0.467802       -12.7295
  54   2.0000      -0.459944       -12.5157
  55   2.0000      -0.449619       -12.2348
  56   2.0000      -0.444951       -12.1077
  57   2.0000      -0.442319       -12.0361
  58   2.0000      -0.436326       -11.8730
  59   2.0000      -0.428088       -11.6489
  60   2.0000      -0.413357       -11.2480
  61   2.0000      -0.411097       -11.1865
  62   2.0000      -0.410142       -11.1605
  63   2.0000      -0.347317        -9.4510
  64   2.0000      -0.335480        -9.1289
  65   2.0000      -0.331477        -9.0199
  66   2.0000      -0.289997        -7.8912
  67   0.0000       0.029125         0.7925
  68   0.0000       0.071442         1.9440
  69   0.0000       0.111105         3.0233
  70   0.0000       0.120339         3.2746
  71   0.0000       0.139666         3.8005

MULLIKEN ATOMIC CHARGES
-----------------------
   0 S :    0.112013
   1 C :   -0.117790
   2 C :   -0.092927
   3 C :    0.017128
   4 C :   -0.124643
   5 H :    0.002659
   6 C :    0.083148
   7 H :    0.013676
   8 H :    0.041725
   9 C :   -0.052699
  10 H :    0.032061
  11 H :    0.025059
  12 C :   -0.072296
  13 H :    0.044336
  14 H :    0.018754
  15 H :    0.044862
  16 S :    0.117229
  17 C :   -0.093465
  18 C :   -0.050245
  19 C :   -0.028798
  20 C :   -0.170024
  21 H :    0.020708
  22 C :    0.086692
  23 H :    0.006505
  24 H :    0.023633
  25 C :   -0.013725
  26 H :    0.006242
  27 H :    0.021367
  28 C :   -0.048704
  29 H :    0.024106
  30 H :    0.018825
  31 H :    0.021690
  32 H :    0.039409
  33 H :    0.043492
Sum of atomic charges:   -0.0000000

LOEWDIN ATOMIC CHARGES
----------------------
   0 S :    0.446441
   1 C :   -0.205361
   2 C :   -0.063473
   3 C :   -0.060870
   4 C :   -0.212921
   5 H :    0.023818
   6 C :   -0.022250
   7 H :    0.028523
   8 H :    0.030832
   9 C :   -0.043088
  10 H :    0.024688
  11 H :    0.023836
  12 C :   -0.070310
  13 H :    0.035434
  14 H :    0.020772
  15 H :    0.026156
  16 S :    0.426466
  17 C :   -0.183819
  18 C :   -0.070281
  19 C :   -0.063038
  20 C :   -0.200725
  21 H :    0.035467
  22 C :   -0.036054
  23 H :    0.023263
  24 H :    0.033797
  25 C :   -0.027549
  26 H :    0.012758
  27 H :    0.025039
  28 C :   -0.066326
  29 H :    0.023701
  30 H :    0.021168
  31 H :    0.020277
  32 H :    0.020296
  33 H :    0.023331

  Mayer bond orders larger than 0.100000
B(  0-S ,  1-C ) :   1.1786 B(  0-S ,  4-C ) :   1.1694 B(  1-C ,  2-C ) :   1.5569
B(  1-C , 32-H ) :   0.9750 B(  2-C ,  3-C ) :   1.2873 B(  2-C ,  6-C ) :   1.0066
B(  3-C ,  4-C ) :   1.5338 B(  3-C ,  5-H ) :   0.9985 B(  4-C , 20-C ) :   1.0039
B(  6-C ,  7-H ) :   0.9439 B(  6-C ,  8-H ) :   0.9432 B(  6-C ,  9-C ) :   1.0734
B(  9-C , 10-H ) :   0.9603 B(  9-C , 11-H ) :   0.9558 B(  9-C , 12-C ) :   1.0473
B( 12-C , 13-H ) :   0.9765 B( 12-C , 14-H ) :   0.9734 B( 12-C , 15-H ) :   0.9807
B( 16-S , 17-C ) :   1.1651 B( 16-S , 20-C ) :   1.1774 B( 17-C , 18-C ) :   1.5737
B( 17-C , 20-C ) :   0.1132 B( 17-C , 33-H ) :   0.9703 B( 18-C , 19-C ) :   1.2840
B( 18-C , 21-H ) :   0.9954 B( 19-C , 20-C ) :   1.5297 B( 19-C , 22-C ) :   1.0426
B( 22-C , 23-H ) :   0.9222 B( 22-C , 24-H ) :   0.9345 B( 22-C , 25-C ) :   1.0886
B( 25-C , 26-H ) :   0.9514 B( 25-C , 27-H ) :   0.9574 B( 25-C , 28-C ) :   1.0700
B( 28-C , 29-H ) :   0.9787 B( 28-C , 30-H ) :   0.9712 B( 28-C , 31-H ) :   0.9763

Dispersion correction           -0.015317566
FINAL SINGLE POINT ENERGY     -1339.869752323532

DIPOLE MOMENT
-------------
                                X             Y             Z
Electronic contribution:     13.23034      -4.73977      -6.34936
Nuclear contribution   :    -13.60493       4.92152       6.57724
                        -----------------------------------------
Total Dipole Moment    :     -0.37459       0.18175       0.22788
                        -----------------------------------------
Magnitude (a.u.)       :      0.47464
Magnitude (Debye)      :      1.20643

Rotational constants in cm-1:     0.021870     0.008301     0.007225
Rotational constants in MHz :   655.656492   248.869743   216.612976

                             ****ORCA TERMINATED NORMALLY****
TOTAL RUN TIME: 0 days 0 hours 0 minutes 22 seconds 69 msec
