                         Program Version 4.2.1 -  RELEASE  -
|  1> ! wB97X-D3 SP def2-SVP
|  2> %pal
|  3> nprocs 24
|  4> end
|  5>
|  6> * xyz 0 1
|  7> S 	 -107.939 	 2.53994 	 -106.976
|  8> C 	 -107.731 	 4.18807 	 -107.582
|  9> C 	 -106.412 	 4.50323 	 -107.754
| 10> C 	 -105.516 	 3.55391 	 -107.083
| 11> C 	 -106.202 	 2.54857 	 -106.487
| 12> H 	 -104.497 	 3.703 	 -106.913
| 13> C 	 -105.834 	 5.79138 	 -108.279
| 14> H 	 -104.702 	 5.70036 	 -108.339
| 15> H 	 -106.168 	 6.55653 	 -107.585
| 16> C 	 -106.321 	 6.06067 	 -109.727
| 17> H 	 -105.911 	 5.34759 	 -110.443
| 18> H 	 -107.435 	 5.91021 	 -109.792
| 19> C 	 -105.947 	 7.43804 	 -110.255
| 20> H 	 -104.901 	 7.65534 	 -110.307
| 21> H 	 -106.484 	 7.63102 	 -111.158
| 22> H 	 -106.363 	 8.1364 	 -109.518
| 23> S 	 -105.911 	 -0.172262 	 -106.699
| 24> C 	 -104.819 	 -0.993093 	 -105.613
| 25> C 	 -104.396 	 -0.179552 	 -104.553
| 26> C 	 -104.715 	 1.18645 	 -104.791
| 27> C 	 -105.564 	 1.36976 	 -105.895
| 28> H 	 -103.776 	 -0.574593 	 -103.775
| 29> C 	 -104.286 	 2.28998 	 -103.781
| 30> H 	 -104.796 	 3.19001 	 -104.183
| 31> H 	 -103.196 	 2.52473 	 -103.841
| 32> C 	 -104.521 	 2.11827 	 -102.272
| 33> H 	 -103.979 	 2.88859 	 -101.677
| 34> H 	 -103.969 	 1.19063 	 -101.978
| 35> C 	 -106.039 	 1.99703 	 -101.836
| 36> H 	 -106.312 	 1.87513 	 -100.778
| 37> H 	 -106.628 	 1.26402 	 -102.386
| 38> H 	 -106.415 	 2.95384 	 -102.115
| 39> H 	 -108.602 	 4.75545 	 -107.9
| 40> H 	 -104.665 	 -2.05497 	 -105.657
| 41> *
| 42>
| 43>                          ****END OF INPUT****

CARTESIAN COORDINATES (ANGSTROEM)
---------------------------------
  S    -107.939000    2.539940  -106.976000
  C    -107.731000    4.188070  -107.582000
  C    -106.412000    4.503230  -107.754000
  C    -105.516000    3.553910  -107.083000
  C    -106.202000    2.548570  -106.487000
  H    -104.497000    3.703000  -106.913000
  C    -105.834000    5.791380  -108.279000
  H    -104.702000    5.700360  -108.339000
  H    -106.168000    6.556530  -107.585000
  C    -106.321000    6.060670  -109.727000
  H    -105.911000    5.347590  -110.443000
  H    -107.435000    5.910210  -109.792000
  C    -105.947000    7.438040  -110.255000
  H    -104.901000    7.655340  -110.307000
  H    -106.484000    7.631020  -111.158000
  H    -106.363000    8.136400  -109.518000
  S    -105.911000   -0.172262  -106.699000
  C    -104.819000   -0.993093  -105.613000
  C    -104.396000   -0.179552  -104.553000
  C    -104.715000    1.186450  -104.791000
  C    -105.564000    1.369760  -105.895000
  H    -103.776000   -0.574593  -103.775000
  C    -104.286000    2.289980  -103.781000
  H    -104.796000    3.190010  -104.183000
  H    -103.196000    2.524730  -103.841000
  C    -104.521000    2.118270  -102.272000
  H    -103.979000    2.888590  -101.677000
  H    -103.969000    1.190630  -101.978000
  C    -106.039000    1.997030  -101.836000
  H    -106.312000    1.875130  -100.778000
  H    -106.628000    1.264020  -102.386000
  H    -106.415000    2.953840  -102.115000
  H    -108.602000    4.755450  -107.900000
  H    -104.665000   -2.054970  -105.657000

 Total Charge           Charge          ....    0
 Multiplicity           Mult            ....    1
 Number of Electrons    NEL             ....  134
 Basis Dimension        Dim             ....  322

ORBITAL ENERGIES
----------------

  NO   OCC          E(Eh)            E(eV)
   0   2.0000     -88.966380     -2420.8983
   1   2.0000     -88.964279     -2420.8411
   2   2.0000     -10.330764      -281.1144
   3   2.0000     -10.329684      -281.0850
   4   2.0000     -10.316924      -280.7378
   5   2.0000     -10.316258      -280.7197
   6   2.0000     -10.308056      -280.4965
   7   2.0000     -10.303069      -280.3608
   8   2.0000     -10.298465      -280.2355
   9   2.0000     -10.298293      -280.2308
  10   2.0000     -10.297123      -280.1990
  11   2.0000     -10.294023      -280.1146
  12   2.0000     -10.292010      -280.0598
  13   2.0000     -10.289184      -279.9829
  14   2.0000     -10.273422      -279.5540
  15   2.0000     -10.273048      -279.5439
  16   2.0000      -8.080856      -219.8913
  17   2.0000      -8.078346      -219.8230
  18   2.0000      -6.039286      -164.3373
  19   2.0000      -6.037071      -164.2770
  20   2.0000      -6.035465      -164.2333
  21   2.0000      -6.033278      -164.1738
  22   2.0000      -6.031658      -164.1297
  23   2.0000      -6.028596      -164.0464
  24   2.0000      -1.001760       -27.2593
  25   2.0000      -0.979195       -26.6452
  26   2.0000      -0.910615       -24.7791
  27   2.0000      -0.898310       -24.4443
  28   2.0000      -0.868219       -23.6254
  29   2.0000      -0.850748       -23.1500
  30   2.0000      -0.841798       -22.9065
  31   2.0000      -0.812947       -22.1214
  32   2.0000      -0.780841       -21.2478
  33   2.0000      -0.769126       -20.9290
  34   2.0000      -0.705452       -19.1963
  35   2.0000      -0.699818       -19.0430
  36   2.0000      -0.690023       -18.7765
  37   2.0000      -0.659037       -17.9333
  38   2.0000      -0.644807       -17.5461
  39   2.0000      -0.615856       -16.7583
  40   2.0000      -0.590591       -16.0708
  41   2.0000      -0.572454       -15.5773
  42   2.0000      -0.556183       -15.1345
  43   2.0000      -0.544020       -14.8035
  44   2.0000      -0.535135       -14.5618
  45   2.0000      -0.527607       -14.3569
  46   2.0000      -0.516014       -14.0414
  47   2.0000      -0.512857       -13.9556
  48   2.0000      -0.507128       -13.7996
  49   2.0000      -0.498697       -13.5702
  50   2.0000      -0.488640       -13.2966
  51   2.0000      -0.480141       -13.0653
  52   2.0000      -0.468338       -12.7441
  53   2.0000      -0.458836       -12.4856
  54   2.0000      -0.454520       -12.3681
  55   2.0000      -0.449389       -12.2285
  56   2.0000      -0.447230       -12.1697
  57   2.0000      -0.435348       -11.8464
  58   2.0000      -0.430931       -11.7262
  59   2.0000      -0.425109       -11.5678
  60   2.0000      -0.420473       -11.4416
  61   2.0000      -0.413255       -11.2452
  62   2.0000      -0.405643       -11.0381
  63   2.0000      -0.348500        -9.4832
  64   2.0000      -0.332368        -9.0442
  65   2.0000      -0.325985        -8.8705
  66   2.0000      -0.291246        -7.9252
  67   0.0000       0.032151         0.8749
  68   0.0000       0.055658         1.5145
  69   0.0000       0.102949         2.8014
  70   0.0000       0.119811         3.2602
  71   0.0000       0.131945         3.5904

MULLIKEN ATOMIC CHARGES
-----------------------
   0 S :    0.084708
   1 C :   -0.128191
   2 C :   -0.065355
   3 C :    0.056809
   4 C :   -0.136545
   5 H :    0.001998
   6 C :    0.049399
   7 H :    0.040235
   8 H :    0.047624
   9 C :   -0.131053
  10 H :    0.032443
  11 H :    0.031161
  12 C :   -0.003804
  13 H :    0.031736
  14 H :    0.030592
  15 H :    0.013226
  16 S :    0.106622
  17 C :   -0.096297
  18 C :   -0.027858
  19 C :   -0.031438
  20 C :   -0.167983
  21 H :    0.020635
  22 C :    0.042913
  23 H :    0.023452
  24 H :    0.040575
  25 C :   -0.089856
  26 H :    0.038646
  27 H :    0.025561
  28 C :   -0.047116
  29 H :    0.037932
  30 H :    0.042360
  31 H :    0.017891
  32 H :    0.054580
  33 H :    0.054398
Sum of atomic charges:    0.0000000

LOEWDIN ATOMIC CHARGES
----------------------
   0 S :    0.360692
   1 C :   -0.184100
   2 C :   -0.058273
   3 C :   -0.046335
   4 C :   -0.172507
   5 H :    0.024624
   6 C :   -0.034121
   7 H :    0.038030
   8 H :    0.035573
   9 C :   -0.045243
  10 H :    0.024361
  11 H :    0.025356
  12 C :   -0.063912
  13 H :    0.021822
  14 H :    0.025256
  15 H :    0.023970
  16 S :    0.400986
  17 C :   -0.182235
  18 C :   -0.066809
  19 C :   -0.059622
  20 C :   -0.189397
  21 H :    0.029962
  22 C :   -0.037540
  23 H :    0.027929
  24 H :    0.037569
  25 C :   -0.044640
  26 H :    0.031201
  27 H :    0.020425
  28 C :   -0.071484
  29 H :    0.028081
  30 H :    0.028573
  31 H :    0.021194
  32 H :    0.027144
  33 H :    0.023473

  Mayer bond orders larger than 0.100000
B(  0-S ,  1-C ) :   1.1100 B(  0-S ,  4-C ) :   1.1169 B(  1-C ,  2-C ) :   1.6487
B(  1-C , 32-H ) :   0.9705 B(  2-C ,  3-C ) :   1.1877 B(  2-C ,  6-C ) :   1.0173
B(  3-C ,  4-C ) :   1.6217 B(  3-C ,  5-H ) :   1.0015 B(  4-C , 20-C ) :   1.0328
B(  6-C ,  7-H ) :   0.9456 B(  6-C ,  8-H ) :   0.9413 B(  6-C ,  9-C ) :   1.0545
B(  9-C , 10-H ) :   0.9559 B(  9-C , 11-H ) :   0.9603 B(  9-C , 12-C ) :   1.0853
B( 12-C , 13-H ) :   0.9736 B( 12-C , 14-H ) :   0.9714 B( 12-C , 15-H ) :   0.9726
B( 16-S , 17-C ) :   1.1613 B( 16-S , 20-C ) :   1.1454 B( 17-C , 18-C ) :   1.6029
B( 17-C , 20-C ) :   0.1037 B( 17-C , 33-H ) :   0.9680 B( 18-C , 19-C ) :   1.2397
B( 18-C , 21-H ) :   0.9918 B( 19-C , 20-C ) :   1.5989 B( 19-C , 22-C ) :   1.0307
B( 22-C , 23-H ) :   0.9377 B( 22-C , 24-H ) :   0.9345 B( 22-C , 25-C ) :   1.0768
B( 25-C , 26-H ) :   0.9558 B( 25-C , 27-H ) :   0.9520 B( 25-C , 28-C ) :   1.0511
B( 28-C , 29-H ) :   0.9787 B( 28-C , 30-H ) :   0.9791 B( 28-C , 31-H ) :   0.9768

Dispersion correction           -0.013788291
FINAL SINGLE POINT ENERGY     -1339.871822703861

DIPOLE MOMENT
-------------
                                X             Y             Z
Electronic contribution:     -7.09197     -20.32764      -4.80715
Nuclear contribution   :      7.44980      20.78876       4.89725
                        -----------------------------------------
Total Dipole Moment    :      0.35784       0.46112       0.09010
                        -----------------------------------------
Magnitude (a.u.)       :      0.59059
Magnitude (Debye)      :      1.50116

Rotational constants in cm-1:     0.021970     0.007039     0.006292
Rotational constants in MHz :   658.647145   211.036738   188.643414

                             ****ORCA TERMINATED NORMALLY****
TOTAL RUN TIME: 0 days 0 hours 0 minutes 20 seconds 967 msec
