                         Program Version 4.2.1 -  RELEASE  -
|  1> ! wB97X-D3 SP def2-SVP
|  2> %pal
|  3> nprocs 24
|  4> end
|  5>
|  6> * xyz 0 1
|  7> S 	 -44.8927 	 28.8456 	 29.0205
|  8> C 	 -46.5941 	 28.9965 	 29.3431
|  9> C 	 -47.2557 	 27.8144 	 29.1602
| 10> C 	 -46.4094 	 26.7469 	 28.9165
| 11> C 	 -45.0641 	 27.1133 	 28.9111
| 12> H 	 -46.6568 	 25.7199 	 28.9859
| 13> C 	 -48.7917 	 27.4879 	 29.2202
| 14> H 	 -49.0762 	 27.8633 	 30.1846
| 15> H 	 -49.0097 	 26.4195 	 29.3819
| 16> C 	 -49.7156 	 27.9944 	 27.9878
| 17> H 	 -50.6997 	 27.5999 	 28.2052
| 18> H 	 -49.7746 	 29.059 	 27.975
| 19> C 	 -49.3082 	 27.3683 	 26.6451
| 20> H 	 -49.0617 	 26.3476 	 26.7269
| 21> H 	 -50.1448 	 27.4565 	 25.9326
| 22> H 	 -48.3392 	 27.76 	 26.2591
| 23> S 	 -43.2248 	 26.4048 	 27.0241
| 24> C 	 -42.299 	 24.9367 	 27.2426
| 25> C 	 -42.4871 	 24.4787 	 28.5428
| 26> C 	 -43.4696 	 25.1779 	 29.3479
| 27> C 	 -43.9318 	 26.2551 	 28.6541
| 28> H 	 -41.902 	 23.5446 	 28.8996
| 29> C 	 -44.0105 	 24.6741 	 30.6995
| 30> H 	 -44.1996 	 23.5366 	 30.6861
| 31> H 	 -44.9376 	 25.0754 	 31.0171
| 32> C 	 -42.9543 	 24.9457 	 31.8723
| 33> H 	 -42.3787 	 25.9217 	 31.8991
| 34> H 	 -42.1941 	 24.203 	 31.7987
| 35> C 	 -43.6373 	 24.8144 	 33.2938
| 36> H 	 -44.1305 	 25.7387 	 33.5733
| 37> H 	 -42.8943 	 24.6924 	 34.0511
| 38> H 	 -44.2697 	 23.9922 	 33.5026
| 39> H 	 -47.1451 	 29.9492 	 29.5972
| 40> H 	 -41.5671 	 24.6181 	 26.4796
| 41> *
| 42>
| 43>                          ****END OF INPUT****

CARTESIAN COORDINATES (ANGSTROEM)
---------------------------------
  S    -44.892700   28.845600   29.020500
  C    -46.594100   28.996500   29.343100
  C    -47.255700   27.814400   29.160200
  C    -46.409400   26.746900   28.916500
  C    -45.064100   27.113300   28.911100
  H    -46.656800   25.719900   28.985900
  C    -48.791700   27.487900   29.220200
  H    -49.076200   27.863300   30.184600
  H    -49.009700   26.419500   29.381900
  C    -49.715600   27.994400   27.987800
  H    -50.699700   27.599900   28.205200
  H    -49.774600   29.059000   27.975000
  C    -49.308200   27.368300   26.645100
  H    -49.061700   26.347600   26.726900
  H    -50.144800   27.456500   25.932600
  H    -48.339200   27.760000   26.259100
  S    -43.224800   26.404800   27.024100
  C    -42.299000   24.936700   27.242600
  C    -42.487100   24.478700   28.542800
  C    -43.469600   25.177900   29.347900
  C    -43.931800   26.255100   28.654100
  H    -41.902000   23.544600   28.899600
  C    -44.010500   24.674100   30.699500
  H    -44.199600   23.536600   30.686100
  H    -44.937600   25.075400   31.017100
  C    -42.954300   24.945700   31.872300
  H    -42.378700   25.921700   31.899100
  H    -42.194100   24.203000   31.798700
  C    -43.637300   24.814400   33.293800
  H    -44.130500   25.738700   33.573300
  H    -42.894300   24.692400   34.051100
  H    -44.269700   23.992200   33.502600
  H    -47.145100   29.949200   29.597200
  H    -41.567100   24.618100   26.479600

 Total Charge           Charge          ....    0
 Multiplicity           Mult            ....    1
 Number of Electrons    NEL             ....  134
 Basis Dimension        Dim             ....  322

ORBITAL ENERGIES
----------------

  NO   OCC          E(Eh)            E(eV)
   0   2.0000     -88.968628     -2420.9594
   1   2.0000     -88.960720     -2420.7443
   2   2.0000     -10.323674      -280.9214
   3   2.0000     -10.323315      -280.9117
   4   2.0000     -10.321838      -280.8715
   5   2.0000     -10.314643      -280.6757
   6   2.0000     -10.307947      -280.4935
   7   2.0000     -10.304737      -280.4062
   8   2.0000     -10.304619      -280.4029
   9   2.0000     -10.297571      -280.2112
  10   2.0000     -10.296364      -280.1783
  11   2.0000     -10.294446      -280.1261
  12   2.0000     -10.290349      -280.0146
  13   2.0000     -10.284804      -279.8637
  14   2.0000     -10.274380      -279.5801
  15   2.0000     -10.271961      -279.5143
  16   2.0000      -8.083462      -219.9622
  17   2.0000      -8.075473      -219.7448
  18   2.0000      -6.041817      -164.4062
  19   2.0000      -6.037997      -164.3023
  20   2.0000      -6.034348      -164.2030
  21   2.0000      -6.034007      -164.1937
  22   2.0000      -6.030054      -164.0861
  23   2.0000      -6.026119      -163.9790
  24   2.0000      -1.008127       -27.4325
  25   2.0000      -0.983071       -26.7507
  26   2.0000      -0.898027       -24.4366
  27   2.0000      -0.895966       -24.3805
  28   2.0000      -0.866066       -23.5669
  29   2.0000      -0.851813       -23.1790
  30   2.0000      -0.843380       -22.9495
  31   2.0000      -0.804831       -21.9006
  32   2.0000      -0.781851       -21.2753
  33   2.0000      -0.772473       -21.0201
  34   2.0000      -0.704248       -19.1635
  35   2.0000      -0.703881       -19.1536
  36   2.0000      -0.695522       -18.9261
  37   2.0000      -0.656230       -17.8569
  38   2.0000      -0.638618       -17.3777
  39   2.0000      -0.613097       -16.6832
  40   2.0000      -0.596540       -16.2327
  41   2.0000      -0.564170       -15.3518
  42   2.0000      -0.554280       -15.0827
  43   2.0000      -0.543710       -14.7951
  44   2.0000      -0.536369       -14.5953
  45   2.0000      -0.517302       -14.0765
  46   2.0000      -0.512412       -13.9434
  47   2.0000      -0.505059       -13.7434
  48   2.0000      -0.498604       -13.5677
  49   2.0000      -0.494283       -13.4501
  50   2.0000      -0.490547       -13.3485
  51   2.0000      -0.477746       -13.0001
  52   2.0000      -0.470973       -12.8158
  53   2.0000      -0.463956       -12.6249
  54   2.0000      -0.459495       -12.5035
  55   2.0000      -0.444810       -12.1039
  56   2.0000      -0.443074       -12.0567
  57   2.0000      -0.433804       -11.8044
  58   2.0000      -0.430288       -11.7087
  59   2.0000      -0.425770       -11.5858
  60   2.0000      -0.423821       -11.5327
  61   2.0000      -0.414886       -11.2896
  62   2.0000      -0.411989       -11.2108
  63   2.0000      -0.338690        -9.2162
  64   2.0000      -0.332754        -9.0547
  65   2.0000      -0.327471        -8.9109
  66   2.0000      -0.297919        -8.1068
  67   0.0000       0.038907         1.0587
  68   0.0000       0.058539         1.5929
  69   0.0000       0.116958         3.1826
  70   0.0000       0.119129         3.2417
  71   0.0000       0.131473         3.5776

MULLIKEN ATOMIC CHARGES
-----------------------
   0 S :    0.125306
   1 C :   -0.146532
   2 C :   -0.067450
   3 C :    0.061845
   4 C :   -0.198181
   5 H :    0.002643
   6 C :    0.038977
   7 H :    0.020300
   8 H :    0.021505
   9 C :   -0.044386
  10 H :    0.025987
  11 H :    0.031567
  12 C :   -0.053465
  13 H :    0.013543
  14 H :    0.042203
  15 H :    0.045578
  16 S :    0.094067
  17 C :   -0.113277
  18 C :   -0.061292
  19 C :   -0.003487
  20 C :   -0.163044
  21 H :    0.047917
  22 C :    0.065471
  23 H :    0.046710
  24 H :    0.021324
  25 C :   -0.095409
  26 H :    0.052621
  27 H :    0.022948
  28 C :   -0.047228
  29 H :    0.037289
  30 H :    0.015190
  31 H :    0.021395
  32 H :    0.062217
  33 H :    0.077148
Sum of atomic charges:   -0.0000000

LOEWDIN ATOMIC CHARGES
----------------------
   0 S :    0.421712
   1 C :   -0.213471
   2 C :   -0.070873
   3 C :   -0.057439
   4 C :   -0.199665
   5 H :    0.026662
   6 C :   -0.029446
   7 H :    0.025634
   8 H :    0.029577
   9 C :   -0.028499
  10 H :    0.023795
  11 H :    0.018496
  12 C :   -0.068729
  13 H :    0.018098
  14 H :    0.030319
  15 H :    0.033122
  16 S :    0.385378
  17 C :   -0.191982
  18 C :   -0.080593
  19 C :   -0.057067
  20 C :   -0.189945
  21 H :    0.042160
  22 C :   -0.023889
  23 H :    0.043804
  24 H :    0.021415
  25 C :   -0.035024
  26 H :    0.036580
  27 H :    0.014195
  28 C :   -0.070821
  29 H :    0.026623
  30 H :    0.023329
  31 H :    0.018164
  32 H :    0.040853
  33 H :    0.037527

  Mayer bond orders larger than 0.100000
B(  0-S ,  1-C ) :   1.1444 B(  0-S ,  4-C ) :   1.1700 B(  1-C ,  2-C ) :   1.6122
B(  1-C ,  4-C ) :   0.1066 B(  1-C , 32-H ) :   0.9604 B(  2-C ,  3-C ) :   1.2695
B(  2-C ,  6-C ) :   0.9923 B(  3-C ,  4-C ) :   1.5519 B(  3-C ,  5-H ) :   0.9998
B(  4-C , 20-C ) :   1.0144 B(  6-C ,  7-H ) :   0.9437 B(  6-C ,  8-H ) :   0.9515
B(  6-C ,  9-C ) :   1.0645 B(  9-C , 10-H ) :   0.9577 B(  9-C , 11-H ) :   0.9634
B(  9-C , 12-C ) :   1.0707 B( 12-C , 13-H ) :   0.9740 B( 12-C , 14-H ) :   0.9759
B( 12-C , 15-H ) :   0.9734 B( 16-S , 17-C ) :   1.1430 B( 16-S , 20-C ) :   1.1377
B( 17-C , 18-C ) :   1.6292 B( 17-C , 33-H ) :   0.9667 B( 18-C , 19-C ) :   1.2094
B( 18-C , 21-H ) :   0.9715 B( 19-C , 20-C ) :   1.6421 B( 19-C , 22-C ) :   1.0405
B( 22-C , 23-H ) :   0.9404 B( 22-C , 24-H ) :   0.9467 B( 22-C , 25-C ) :   1.0341
B( 25-C , 26-H ) :   0.9633 B( 25-C , 27-H ) :   0.9632 B( 25-C , 28-C ) :   1.0784
B( 28-C , 29-H ) :   0.9787 B( 28-C , 30-H ) :   0.9726 B( 28-C , 31-H ) :   0.9757

Dispersion correction           -0.014145812
FINAL SINGLE POINT ENERGY     -1339.861766861184

DIPOLE MOMENT
-------------
                                X             Y             Z
Electronic contribution:     14.97991       9.23149     -12.26029
Nuclear contribution   :    -15.32492      -9.67181      12.62355
                        -----------------------------------------
Total Dipole Moment    :     -0.34501      -0.44031       0.36326
                        -----------------------------------------
Magnitude (a.u.)       :      0.66698
Magnitude (Debye)      :      1.69533

Rotational constants in cm-1:     0.017725     0.008419     0.007045
Rotational constants in MHz :   531.368703   252.406126   211.210008

                             ****ORCA TERMINATED NORMALLY****
TOTAL RUN TIME: 0 days 0 hours 0 minutes 20 seconds 51 msec
