                         Program Version 4.2.1 -  RELEASE  -
|  1> ! wB97X-D3 SP def2-SVP
|  2> %pal
|  3> nprocs 24
|  4> end
|  5>
|  6> * xyz 0 1
|  7> S 	 -105.328 	 54.3006 	 -81.0579
|  8> C 	 -104.882 	 54.5772 	 -82.7925
|  9> C 	 -105.328 	 53.5336 	 -83.5855
| 10> C 	 -105.944 	 52.4624 	 -82.8126
| 11> C 	 -105.981 	 52.7015 	 -81.447
| 12> H 	 -106.245 	 51.4872 	 -83.2395
| 13> C 	 -105.231 	 53.5419 	 -85.0897
| 14> H 	 -104.176 	 53.5116 	 -85.361
| 15> H 	 -105.532 	 54.522 	 -85.5555
| 16> C 	 -105.995 	 52.4355 	 -85.842
| 17> H 	 -105.587 	 51.4304 	 -85.7005
| 18> H 	 -107.063 	 52.3544 	 -85.6419
| 19> C 	 -106.053 	 52.7686 	 -87.3371
| 20> H 	 -106.319 	 51.8635 	 -87.9791
| 21> H 	 -106.785 	 53.5753 	 -87.5983
| 22> H 	 -105.009 	 53.0629 	 -87.6434
| 23> S 	 -108.411 	 52.4293 	 -80.0238
| 24> C 	 -108.801 	 51.0577 	 -79.0937
| 25> C 	 -107.828 	 50.1174 	 -79.3185
| 26> C 	 -106.624 	 50.571 	 -80.0347
| 27> C 	 -106.741 	 51.8786 	 -80.4347
| 28> H 	 -107.907 	 49.1143 	 -78.8226
| 29> C 	 -105.312 	 49.7933 	 -80.1107
| 30> H 	 -105.296 	 49.2811 	 -79.1636
| 31> H 	 -104.513 	 50.4949 	 -80.1018
| 32> C 	 -105.214 	 48.8225 	 -81.2826
| 33> H 	 -104.274 	 48.3509 	 -81.1943
| 34> H 	 -105.206 	 49.2645 	 -82.2599
| 35> C 	 -106.274 	 47.6502 	 -81.196
| 36> H 	 -106.393 	 47.4195 	 -80.0843
| 37> H 	 -105.839 	 46.8472 	 -81.725
| 38> H 	 -107.324 	 47.795 	 -81.4784
| 39> H 	 -104.407 	 55.4131 	 -83.3108
| 40> H 	 -109.748 	 50.8392 	 -78.6369
| 41> *
| 42>
| 43>                          ****END OF INPUT****

CARTESIAN COORDINATES (ANGSTROEM)
---------------------------------
  S    -105.328000   54.300600  -81.057900
  C    -104.882000   54.577200  -82.792500
  C    -105.328000   53.533600  -83.585500
  C    -105.944000   52.462400  -82.812600
  C    -105.981000   52.701500  -81.447000
  H    -106.245000   51.487200  -83.239500
  C    -105.231000   53.541900  -85.089700
  H    -104.176000   53.511600  -85.361000
  H    -105.532000   54.522000  -85.555500
  C    -105.995000   52.435500  -85.842000
  H    -105.587000   51.430400  -85.700500
  H    -107.063000   52.354400  -85.641900
  C    -106.053000   52.768600  -87.337100
  H    -106.319000   51.863500  -87.979100
  H    -106.785000   53.575300  -87.598300
  H    -105.009000   53.062900  -87.643400
  S    -108.411000   52.429300  -80.023800
  C    -108.801000   51.057700  -79.093700
  C    -107.828000   50.117400  -79.318500
  C    -106.624000   50.571000  -80.034700
  C    -106.741000   51.878600  -80.434700
  H    -107.907000   49.114300  -78.822600
  C    -105.312000   49.793300  -80.110700
  H    -105.296000   49.281100  -79.163600
  H    -104.513000   50.494900  -80.101800
  C    -105.214000   48.822500  -81.282600
  H    -104.274000   48.350900  -81.194300
  H    -105.206000   49.264500  -82.259900
  C    -106.274000   47.650200  -81.196000
  H    -106.393000   47.419500  -80.084300
  H    -105.839000   46.847200  -81.725000
  H    -107.324000   47.795000  -81.478400
  H    -104.407000   55.413100  -83.310800
  H    -109.748000   50.839200  -78.636900

 Total Charge           Charge          ....    0
 Multiplicity           Mult            ....    1
 Number of Electrons    NEL             ....  134
 Basis Dimension        Dim             ....  322

ORBITAL ENERGIES
----------------

  NO   OCC          E(Eh)            E(eV)
   0   2.0000     -88.970196     -2421.0021
   1   2.0000     -88.956908     -2420.6405
   2   2.0000     -10.337759      -281.3047
   3   2.0000     -10.330620      -281.1105
   4   2.0000     -10.319548      -280.8092
   5   2.0000     -10.315074      -280.6874
   6   2.0000     -10.305672      -280.4316
   7   2.0000     -10.305109      -280.4163
   8   2.0000     -10.302522      -280.3459
   9   2.0000     -10.300748      -280.2976
  10   2.0000     -10.297425      -280.2072
  11   2.0000     -10.291027      -280.0331
  12   2.0000     -10.290810      -280.0272
  13   2.0000     -10.287928      -279.9487
  14   2.0000     -10.285254      -279.8760
  15   2.0000     -10.281492      -279.7736
  16   2.0000      -8.083176      -219.9544
  17   2.0000      -8.072121      -219.6536
  18   2.0000      -6.041938      -164.4095
  19   2.0000      -6.037918      -164.3001
  20   2.0000      -6.033764      -164.1871
  21   2.0000      -6.030666      -164.1028
  22   2.0000      -6.026507      -163.9896
  23   2.0000      -6.022810      -163.8890
  24   2.0000      -0.998545       -27.1718
  25   2.0000      -0.978254       -26.6196
  26   2.0000      -0.912674       -24.8351
  27   2.0000      -0.909432       -24.7469
  28   2.0000      -0.867190       -23.5974
  29   2.0000      -0.845546       -23.0085
  30   2.0000      -0.836425       -22.7603
  31   2.0000      -0.812035       -22.0966
  32   2.0000      -0.781758       -21.2727
  33   2.0000      -0.770604       -20.9692
  34   2.0000      -0.712316       -19.3831
  35   2.0000      -0.701918       -19.1002
  36   2.0000      -0.686763       -18.6878
  37   2.0000      -0.655038       -17.8245
  38   2.0000      -0.637359       -17.3434
  39   2.0000      -0.612899       -16.6778
  40   2.0000      -0.590226       -16.0609
  41   2.0000      -0.570066       -15.5123
  42   2.0000      -0.568120       -15.4593
  43   2.0000      -0.555756       -15.1229
  44   2.0000      -0.547955       -14.9106
  45   2.0000      -0.524034       -14.2597
  46   2.0000      -0.509013       -13.8509
  47   2.0000      -0.505403       -13.7527
  48   2.0000      -0.502772       -13.6811
  49   2.0000      -0.499366       -13.5884
  50   2.0000      -0.488148       -13.2832
  51   2.0000      -0.481460       -13.1012
  52   2.0000      -0.467671       -12.7260
  53   2.0000      -0.464195       -12.6314
  54   2.0000      -0.454509       -12.3678
  55   2.0000      -0.451174       -12.2771
  56   2.0000      -0.442369       -12.0375
  57   2.0000      -0.434234       -11.8161
  58   2.0000      -0.430581       -11.7167
  59   2.0000      -0.428234       -11.6528
  60   2.0000      -0.424233       -11.5440
  61   2.0000      -0.414989       -11.2924
  62   2.0000      -0.403780       -10.9874
  63   2.0000      -0.337078        -9.1723
  64   2.0000      -0.330134        -8.9834
  65   2.0000      -0.321667        -8.7530
  66   2.0000      -0.307127        -8.3574
  67   0.0000       0.034730         0.9451
  68   0.0000       0.058947         1.6040
  69   0.0000       0.112069         3.0496
  70   0.0000       0.119389         3.2487
  71   0.0000       0.124997         3.4013

MULLIKEN ATOMIC CHARGES
-----------------------
   0 S :    0.109235
   1 C :   -0.113383
   2 C :   -0.086583
   3 C :    0.035708
   4 C :   -0.161147
   5 H :    0.033228
   6 C :    0.028513
   7 H :    0.038905
   8 H :    0.038587
   9 C :   -0.078908
  10 H :    0.037306
  11 H :    0.039307
  12 C :   -0.103288
  13 H :    0.043932
  14 H :    0.052391
  15 H :    0.028719
  16 S :    0.086723
  17 C :   -0.070404
  18 C :   -0.069708
  19 C :   -0.052306
  20 C :   -0.145733
  21 H :    0.031676
  22 C :    0.081663
  23 H :    0.022678
  24 H :    0.024333
  25 C :   -0.026708
  26 H :    0.017656
  27 H :    0.025116
  28 C :   -0.078466
  29 H :    0.022691
  30 H :    0.033380
  31 H :    0.047676
  32 H :    0.045611
  33 H :    0.061600
Sum of atomic charges:    0.0000000

LOEWDIN ATOMIC CHARGES
----------------------
   0 S :    0.381947
   1 C :   -0.185521
   2 C :   -0.063634
   3 C :   -0.057845
   4 C :   -0.193068
   5 H :    0.037049
   6 C :   -0.039921
   7 H :    0.036195
   8 H :    0.039185
   9 C :   -0.050235
  10 H :    0.024469
  11 H :    0.028275
  12 C :   -0.074294
  13 H :    0.032703
  14 H :    0.029421
  15 H :    0.022812
  16 S :    0.395075
  17 C :   -0.194653
  18 C :   -0.087926
  19 C :   -0.052771
  20 C :   -0.186247
  21 H :    0.032518
  22 C :   -0.022439
  23 H :    0.031066
  24 H :    0.029395
  25 C :   -0.029168
  26 H :    0.021801
  27 H :    0.020285
  28 C :   -0.068728
  29 H :    0.027982
  30 H :    0.020403
  31 H :    0.026494
  32 H :    0.034979
  33 H :    0.034396

  Mayer bond orders larger than 0.100000
B(  0-S ,  1-C ) :   1.1166 B(  0-S ,  4-C ) :   1.1402 B(  1-C ,  2-C ) :   1.6513
B(  1-C , 32-H ) :   0.9675 B(  2-C ,  3-C ) :   1.2331 B(  2-C ,  6-C ) :   1.0082
B(  3-C ,  4-C ) :   1.5918 B(  3-C ,  5-H ) :   0.9809 B(  4-C , 20-C ) :   0.9887
B(  6-C ,  7-H ) :   0.9264 B(  6-C ,  8-H ) :   0.9489 B(  6-C ,  9-C ) :   1.0758
B(  9-C , 10-H ) :   0.9481 B(  9-C , 11-H ) :   0.9575 B(  9-C , 12-C ) :   1.0771
B( 12-C , 13-H ) :   0.9725 B( 12-C , 14-H ) :   0.9766 B( 12-C , 15-H ) :   0.9733
B( 16-S , 17-C ) :   1.1612 B( 16-S , 20-C ) :   1.1284 B( 17-C , 18-C ) :   1.6206
B( 17-C , 33-H ) :   0.9678 B( 18-C , 19-C ) :   1.2269 B( 18-C , 21-H ) :   0.9769
B( 19-C , 20-C ) :   1.6409 B( 19-C , 22-C ) :   1.0180 B( 22-C , 23-H ) :   0.9396
B( 22-C , 24-H ) :   0.9399 B( 22-C , 25-C ) :   1.0870 B( 25-C , 26-H ) :   0.9521
B( 25-C , 27-H ) :   0.9534 B( 25-C , 28-C ) :   1.0625 B( 28-C , 29-H ) :   0.9751
B( 28-C , 30-H ) :   0.9770 B( 28-C , 31-H ) :   0.9760

Dispersion correction           -0.014275793
FINAL SINGLE POINT ENERGY     -1339.865902561187

DIPOLE MOMENT
-------------
                                X             Y             Z
Electronic contribution:     -5.75205      17.37051      20.86742
Nuclear contribution   :      5.90761     -17.90905     -21.42394
                        -----------------------------------------
Total Dipole Moment    :      0.15556      -0.53855      -0.55652
                        -----------------------------------------
Magnitude (a.u.)       :      0.78990
Magnitude (Debye)      :      2.00776

Rotational constants in cm-1:     0.017108     0.008522     0.007009
Rotational constants in MHz :   512.880770   255.480792   210.128689

                             ****ORCA TERMINATED NORMALLY****
TOTAL RUN TIME: 0 days 0 hours 0 minutes 21 seconds 481 msec
