                         Program Version 4.2.1 -  RELEASE  -
|  1> ! wB97X-D3 SP def2-SVP
|  2> %pal
|  3> nprocs 24
|  4> end
|  5>
|  6> * xyz 0 1
|  7> S 	 -109.793 	 29.7207 	 -19.149
|  8> C 	 -109.314 	 28.6765 	 -20.5625
|  9> C 	 -108.496 	 29.3424 	 -21.4298
| 10> C 	 -108.236 	 30.6608 	 -20.9784
| 11> C 	 -108.794 	 31.0434 	 -19.7846
| 12> H 	 -107.436 	 31.356 	 -21.2932
| 13> C 	 -107.683 	 28.736 	 -22.563
| 14> H 	 -107.733 	 27.6399 	 -22.507
| 15> H 	 -106.776 	 29.138 	 -22.4703
| 16> C 	 -108.218 	 29.1112 	 -23.9128
| 17> H 	 -109.221 	 28.8943 	 -24.0679
| 18> H 	 -108.026 	 30.2551 	 -23.971
| 19> C 	 -107.382 	 28.5843 	 -25.1186
| 20> H 	 -107.619 	 27.5372 	 -25.2342
| 21> H 	 -107.587 	 29.1928 	 -26.0193
| 22> H 	 -106.301 	 28.6682 	 -24.8209
| 23> S 	 -107.224 	 31.7586 	 -17.6096
| 24> C 	 -107.333 	 33.3499 	 -16.96
| 25> C 	 -108.071 	 34.1393 	 -17.8322
| 26> C 	 -108.656 	 33.5074 	 -18.948
| 27> C 	 -108.333 	 32.1693 	 -18.9573
| 28> H 	 -107.937 	 35.1956 	 -17.8381
| 29> C 	 -109.581 	 34.1634 	 -19.971
| 30> H 	 -110.325 	 34.8612 	 -19.5109
| 31> H 	 -110.181 	 33.398 	 -20.4332
| 32> C 	 -108.819 	 34.9683 	 -21.1372
| 33> H 	 -107.954 	 34.3149 	 -21.4555
| 34> H 	 -108.311 	 35.8439 	 -20.7898
| 35> C 	 -109.637 	 35.2584 	 -22.3705
| 36> H 	 -109.852 	 34.3345 	 -22.8846
| 37> H 	 -109.141 	 35.8785 	 -23.1401
| 38> H 	 -110.565 	 35.7342 	 -22.12
| 39> H 	 -109.554 	 27.6337 	 -20.647
| 40> H 	 -106.592 	 33.867 	 -16.3231
| 41> *
| 42>
| 43>                          ****END OF INPUT****

CARTESIAN COORDINATES (ANGSTROEM)
---------------------------------
  S    -109.793000   29.720700  -19.149000
  C    -109.314000   28.676500  -20.562500
  C    -108.496000   29.342400  -21.429800
  C    -108.236000   30.660800  -20.978400
  C    -108.794000   31.043400  -19.784600
  H    -107.436000   31.356000  -21.293200
  C    -107.683000   28.736000  -22.563000
  H    -107.733000   27.639900  -22.507000
  H    -106.776000   29.138000  -22.470300
  C    -108.218000   29.111200  -23.912800
  H    -109.221000   28.894300  -24.067900
  H    -108.026000   30.255100  -23.971000
  C    -107.382000   28.584300  -25.118600
  H    -107.619000   27.537200  -25.234200
  H    -107.587000   29.192800  -26.019300
  H    -106.301000   28.668200  -24.820900
  S    -107.224000   31.758600  -17.609600
  C    -107.333000   33.349900  -16.960000
  C    -108.071000   34.139300  -17.832200
  C    -108.656000   33.507400  -18.948000
  C    -108.333000   32.169300  -18.957300
  H    -107.937000   35.195600  -17.838100
  C    -109.581000   34.163400  -19.971000
  H    -110.325000   34.861200  -19.510900
  H    -110.181000   33.398000  -20.433200
  C    -108.819000   34.968300  -21.137200
  H    -107.954000   34.314900  -21.455500
  H    -108.311000   35.843900  -20.789800
  C    -109.637000   35.258400  -22.370500
  H    -109.852000   34.334500  -22.884600
  H    -109.141000   35.878500  -23.140100
  H    -110.565000   35.734200  -22.120000
  H    -109.554000   27.633700  -20.647000
  H    -106.592000   33.867000  -16.323100

 Total Charge           Charge          ....    0
 Multiplicity           Mult            ....    1
 Number of Electrons    NEL             ....  134
 Basis Dimension        Dim             ....  322

ORBITAL ENERGIES
----------------

  NO   OCC          E(Eh)            E(eV)
   0   2.0000     -88.966791     -2420.9095
   1   2.0000     -88.965775     -2420.8818
   2   2.0000     -10.330187      -281.0987
   3   2.0000     -10.329681      -281.0849
   4   2.0000     -10.319252      -280.8011
   5   2.0000     -10.317811      -280.7619
   6   2.0000     -10.304117      -280.3893
   7   2.0000     -10.302275      -280.3392
   8   2.0000     -10.299813      -280.2722
   9   2.0000     -10.295283      -280.1489
  10   2.0000     -10.290399      -280.0160
  11   2.0000     -10.288781      -279.9720
  12   2.0000     -10.286740      -279.9164
  13   2.0000     -10.285393      -279.8798
  14   2.0000     -10.284301      -279.8501
  15   2.0000     -10.275321      -279.6057
  16   2.0000      -8.081235      -219.9016
  17   2.0000      -8.079082      -219.8430
  18   2.0000      -6.039757      -164.3502
  19   2.0000      -6.037767      -164.2960
  20   2.0000      -6.035761      -164.2414
  21   2.0000      -6.033872      -164.1900
  22   2.0000      -6.031980      -164.1385
  23   2.0000      -6.029644      -164.0750
  24   2.0000      -1.004785       -27.3416
  25   2.0000      -0.983300       -26.7570
  26   2.0000      -0.919330       -25.0163
  27   2.0000      -0.901710       -24.5368
  28   2.0000      -0.868990       -23.6464
  29   2.0000      -0.854566       -23.2539
  30   2.0000      -0.843067       -22.9410
  31   2.0000      -0.812887       -22.1198
  32   2.0000      -0.785103       -21.3637
  33   2.0000      -0.775011       -21.0891
  34   2.0000      -0.704701       -19.1759
  35   2.0000      -0.697922       -18.9914
  36   2.0000      -0.695307       -18.9203
  37   2.0000      -0.659112       -17.9353
  38   2.0000      -0.645557       -17.5665
  39   2.0000      -0.616560       -16.7774
  40   2.0000      -0.595163       -16.1952
  41   2.0000      -0.583217       -15.8702
  42   2.0000      -0.564596       -15.3634
  43   2.0000      -0.555970       -15.1287
  44   2.0000      -0.527630       -14.3575
  45   2.0000      -0.522868       -14.2280
  46   2.0000      -0.516522       -14.0553
  47   2.0000      -0.513503       -13.9731
  48   2.0000      -0.503232       -13.6937
  49   2.0000      -0.502206       -13.6657
  50   2.0000      -0.492260       -13.3951
  51   2.0000      -0.482703       -13.1350
  52   2.0000      -0.473659       -12.8889
  53   2.0000      -0.466974       -12.7070
  54   2.0000      -0.458476       -12.4758
  55   2.0000      -0.447178       -12.1683
  56   2.0000      -0.443294       -12.0626
  57   2.0000      -0.439120       -11.9491
  58   2.0000      -0.431317       -11.7367
  59   2.0000      -0.425523       -11.5791
  60   2.0000      -0.420148       -11.4328
  61   2.0000      -0.414035       -11.2665
  62   2.0000      -0.408685       -11.1209
  63   2.0000      -0.337943        -9.1959
  64   2.0000      -0.334499        -9.1022
  65   2.0000      -0.324567        -8.8319
  66   2.0000      -0.308160        -8.3855
  67   0.0000       0.033769         0.9189
  68   0.0000       0.050551         1.3756
  69   0.0000       0.111134         3.0241
  70   0.0000       0.116428         3.1682
  71   0.0000       0.128364         3.4930

MULLIKEN ATOMIC CHARGES
-----------------------
   0 S :    0.097646
   1 C :   -0.134831
   2 C :   -0.062510
   3 C :    0.025737
   4 C :   -0.168176
   5 H :    0.028866
   6 C :    0.162151
   7 H :    0.019525
   8 H :   -0.009622
   9 C :   -0.127745
  10 H :    0.023270
  11 H :    0.029435
  12 C :   -0.045057
  13 H :    0.032454
  14 H :    0.050686
  15 H :    0.030626
  16 S :    0.116368
  17 C :   -0.085130
  18 C :   -0.046813
  19 C :   -0.007327
  20 C :   -0.209035
  21 H :    0.012174
  22 C :    0.065117
  23 H :    0.039433
  24 H :    0.025615
  25 C :   -0.089904
  26 H :    0.026840
  27 H :    0.023176
  28 C :   -0.036261
  29 H :    0.029023
  30 H :    0.037398
  31 H :    0.026180
  32 H :    0.044270
  33 H :    0.076417
Sum of atomic charges:   -0.0000000

LOEWDIN ATOMIC CHARGES
----------------------
   0 S :    0.364486
   1 C :   -0.165365
   2 C :   -0.060408
   3 C :   -0.063992
   4 C :   -0.193881
   5 H :    0.036672
   6 C :   -0.012921
   7 H :    0.031077
   8 H :    0.014436
   9 C :   -0.038392
  10 H :    0.012326
  11 H :    0.029494
  12 C :   -0.066402
  13 H :    0.019979
  14 H :    0.031669
  15 H :    0.028419
  16 S :    0.407872
  17 C :   -0.204908
  18 C :   -0.072288
  19 C :   -0.055581
  20 C :   -0.184777
  21 H :    0.024296
  22 C :   -0.025435
  23 H :    0.035456
  24 H :    0.029380
  25 C :   -0.042471
  26 H :    0.026604
  27 H :    0.016318
  28 C :   -0.067415
  29 H :    0.025363
  30 H :    0.031795
  31 H :    0.020835
  32 H :    0.025670
  33 H :    0.042086

  Mayer bond orders larger than 0.100000
B(  0-S ,  1-C ) :   1.1212 B(  0-S ,  4-C ) :   1.1287 B(  1-C ,  2-C ) :   1.6464
B(  1-C , 32-H ) :   0.9688 B(  2-C ,  3-C ) :   1.2089 B(  2-C ,  6-C ) :   1.0239
B(  3-C ,  4-C ) :   1.6346 B(  3-C ,  5-H ) :   0.9752 B(  4-C , 20-C ) :   1.0129
B(  6-C ,  7-H ) :   0.9409 B(  6-C ,  8-H ) :   0.9240 B(  6-C ,  9-C ) :   1.0690
B(  9-C , 10-H ) :   0.9618 B(  9-C , 11-H ) :   0.9594 B(  9-C , 12-C ) :   1.0732
B( 12-C , 13-H ) :   0.9761 B( 12-C , 14-H ) :   0.9767 B( 12-C , 15-H ) :   0.9738
B( 16-S , 17-C ) :   1.1578 B( 16-S , 20-C ) :   1.1510 B( 17-C , 18-C ) :   1.6072
B( 17-C , 20-C ) :   0.1019 B( 17-C , 33-H ) :   0.9547 B( 18-C , 19-C ) :   1.2730
B( 18-C , 21-H ) :   0.9760 B( 19-C , 20-C ) :   1.5936 B( 19-C , 22-C ) :   1.0483
B( 22-C , 23-H ) :   0.9400 B( 22-C , 24-H ) :   0.9327 B( 22-C , 25-C ) :   1.0404
B( 25-C , 26-H ) :   0.9574 B( 25-C , 27-H ) :   0.9591 B( 25-C , 28-C ) :   1.0884
B( 28-C , 29-H ) :   0.9741 B( 28-C , 30-H ) :   0.9721 B( 28-C , 31-H ) :   0.9736

Dispersion correction           -0.013752745
FINAL SINGLE POINT ENERGY     -1339.859016621936

DIPOLE MOMENT
-------------
                                X             Y             Z
Electronic contribution:     -0.97755      -6.81266      28.87207
Nuclear contribution   :      1.32055       7.00185     -29.50437
                        -----------------------------------------
Total Dipole Moment    :      0.34301       0.18919      -0.63230
                        -----------------------------------------
Magnitude (a.u.)       :      0.74380
Magnitude (Debye)      :      1.89060

Rotational constants in cm-1:     0.016734     0.008526     0.006582
Rotational constants in MHz :   501.678065   255.597619   197.330465

                             ****ORCA TERMINATED NORMALLY****
TOTAL RUN TIME: 0 days 0 hours 0 minutes 20 seconds 30 msec
