                         Program Version 4.2.1 -  RELEASE  -
|  1> ! wB97X-D3 SP def2-SVP
|  2> %pal
|  3> nprocs 24
|  4> end
|  5>
|  6> * xyz 0 1
|  7> S 	 -123.502 	 12.6018 	 -12.5052
|  8> C 	 -121.999 	 12.5719 	 -11.7618
|  9> C 	 -121.63 	 11.2914 	 -11.5184
| 10> C 	 -122.562 	 10.2997 	 -11.9948
| 11> C 	 -123.688 	 10.8879 	 -12.4667
| 12> H 	 -122.436 	 9.21438 	 -12.0545
| 13> C 	 -120.34 	 11.0135 	 -10.8409
| 14> H 	 -120.276 	 11.6854 	 -9.9733
| 15> H 	 -119.685 	 11.4291 	 -11.601
| 16> C 	 -120.005 	 9.6357 	 -10.326
| 17> H 	 -120.865 	 9.35144 	 -9.76383
| 18> H 	 -119.936 	 8.93433 	 -11.1749
| 19> C 	 -118.785 	 9.64006 	 -9.39193
| 20> H 	 -117.869 	 9.69715 	 -9.97935
| 21> H 	 -118.748 	 10.5358 	 -8.82855
| 22> H 	 -118.755 	 8.77757 	 -8.71862
| 23> S 	 -125.495 	 10.8154 	 -14.5797
| 24> C 	 -126.374 	 9.39845 	 -14.8855
| 25> C 	 -126.032 	 8.39178 	 -14.0475
| 26> C 	 -125.226 	 8.82837 	 -12.9346
| 27> C 	 -124.745 	 10.1511 	 -13.1605
| 28> H 	 -126.503 	 7.45762 	 -14.1462
| 29> C 	 -124.887 	 7.90187 	 -11.784
| 30> H 	 -124.46 	 8.48618 	 -11.0045
| 31> H 	 -124.101 	 7.13347 	 -12.0486
| 32> C 	 -126.073 	 7.14511 	 -11.1285
| 33> H 	 -126.369 	 6.49187 	 -11.9608
| 34> H 	 -126.939 	 7.77381 	 -10.9129
| 35> C 	 -125.692 	 6.46809 	 -9.8677
| 36> H 	 -125.139 	 5.5913 	 -10.1376
| 37> H 	 -126.574 	 5.96397 	 -9.4087
| 38> H 	 -125.229 	 7.0237 	 -9.10698
| 39> H 	 -121.437 	 13.4312 	 -11.4264
| 40> H 	 -126.916 	 9.20325 	 -15.7498
| 41> *
| 42>
| 43>                          ****END OF INPUT****

CARTESIAN COORDINATES (ANGSTROEM)
---------------------------------
  S    -123.502000   12.601800  -12.505200
  C    -121.999000   12.571900  -11.761800
  C    -121.630000   11.291400  -11.518400
  C    -122.562000   10.299700  -11.994800
  C    -123.688000   10.887900  -12.466700
  H    -122.436000    9.214380  -12.054500
  C    -120.340000   11.013500  -10.840900
  H    -120.276000   11.685400   -9.973300
  H    -119.685000   11.429100  -11.601000
  C    -120.005000    9.635700  -10.326000
  H    -120.865000    9.351440   -9.763830
  H    -119.936000    8.934330  -11.174900
  C    -118.785000    9.640060   -9.391930
  H    -117.869000    9.697150   -9.979350
  H    -118.748000   10.535800   -8.828550
  H    -118.755000    8.777570   -8.718620
  S    -125.495000   10.815400  -14.579700
  C    -126.374000    9.398450  -14.885500
  C    -126.032000    8.391780  -14.047500
  C    -125.226000    8.828370  -12.934600
  C    -124.745000   10.151100  -13.160500
  H    -126.503000    7.457620  -14.146200
  C    -124.887000    7.901870  -11.784000
  H    -124.460000    8.486180  -11.004500
  H    -124.101000    7.133470  -12.048600
  C    -126.073000    7.145110  -11.128500
  H    -126.369000    6.491870  -11.960800
  H    -126.939000    7.773810  -10.912900
  C    -125.692000    6.468090   -9.867700
  H    -125.139000    5.591300  -10.137600
  H    -126.574000    5.963970   -9.408700
  H    -125.229000    7.023700   -9.106980
  H    -121.437000   13.431200  -11.426400
  H    -126.916000    9.203250  -15.749800

 Total Charge           Charge          ....    0
 Multiplicity           Mult            ....    1
 Number of Electrons    NEL             ....  134
 Basis Dimension        Dim             ....  322

ORBITAL ENERGIES
----------------

  NO   OCC          E(Eh)            E(eV)
   0   2.0000     -88.964063     -2420.8352
   1   2.0000     -88.962126     -2420.7825
   2   2.0000     -10.328999      -281.0664
   3   2.0000     -10.323680      -280.9216
   4   2.0000     -10.305478      -280.4263
   5   2.0000     -10.303746      -280.3792
   6   2.0000     -10.301723      -280.3241
   7   2.0000     -10.294000      -280.1140
   8   2.0000     -10.291309      -280.0408
   9   2.0000     -10.290970      -280.0315
  10   2.0000     -10.285605      -279.8855
  11   2.0000     -10.285364      -279.8790
  12   2.0000     -10.283844      -279.8376
  13   2.0000     -10.283748      -279.8350
  14   2.0000     -10.277750      -279.6718
  15   2.0000     -10.272090      -279.5178
  16   2.0000      -8.080050      -219.8693
  17   2.0000      -8.078769      -219.8345
  18   2.0000      -6.038474      -164.3152
  19   2.0000      -6.037226      -164.2813
  20   2.0000      -6.034285      -164.2012
  21   2.0000      -6.032974      -164.1656
  22   2.0000      -6.030928      -164.1099
  23   2.0000      -6.029510      -164.0713
  24   2.0000      -1.017328       -27.6829
  25   2.0000      -0.994564       -27.0635
  26   2.0000      -0.918702       -24.9992
  27   2.0000      -0.913123       -24.8474
  28   2.0000      -0.878203       -23.8971
  29   2.0000      -0.857066       -23.3220
  30   2.0000      -0.848504       -23.0890
  31   2.0000      -0.823247       -22.4017
  32   2.0000      -0.783170       -21.3111
  33   2.0000      -0.771561       -20.9952
  34   2.0000      -0.717830       -19.5331
  35   2.0000      -0.701051       -19.0766
  36   2.0000      -0.691473       -18.8159
  37   2.0000      -0.654954       -17.8222
  38   2.0000      -0.640248       -17.4220
  39   2.0000      -0.622252       -16.9323
  40   2.0000      -0.601140       -16.3579
  41   2.0000      -0.576895       -15.6981
  42   2.0000      -0.572943       -15.5906
  43   2.0000      -0.570376       -15.5207
  44   2.0000      -0.530257       -14.4290
  45   2.0000      -0.522530       -14.2188
  46   2.0000      -0.520073       -14.1519
  47   2.0000      -0.509590       -13.8667
  48   2.0000      -0.507973       -13.8227
  49   2.0000      -0.506657       -13.7868
  50   2.0000      -0.499383       -13.5889
  51   2.0000      -0.481557       -13.1038
  52   2.0000      -0.479066       -13.0360
  53   2.0000      -0.474957       -12.9242
  54   2.0000      -0.461100       -12.5472
  55   2.0000      -0.454657       -12.3719
  56   2.0000      -0.449848       -12.2410
  57   2.0000      -0.433601       -11.7989
  58   2.0000      -0.431316       -11.7367
  59   2.0000      -0.424793       -11.5592
  60   2.0000      -0.420324       -11.4376
  61   2.0000      -0.414597       -11.2817
  62   2.0000      -0.407936       -11.1005
  63   2.0000      -0.361427        -9.8349
  64   2.0000      -0.330619        -8.9966
  65   2.0000      -0.322541        -8.7768
  66   2.0000      -0.284846        -7.7510
  67   0.0000       0.029962         0.8153
  68   0.0000       0.089544         2.4366
  69   0.0000       0.116828         3.1790
  70   0.0000       0.124659         3.3921
  71   0.0000       0.139093         3.7849

MULLIKEN ATOMIC CHARGES
-----------------------
   0 S :    0.113734
   1 C :   -0.118347
   2 C :   -0.086985
   3 C :   -0.022558
   4 C :   -0.110959
   5 H :    0.027017
   6 C :    0.018498
   7 H :    0.023936
   8 H :    0.039027
   9 C :   -0.057693
  10 H :    0.020562
  11 H :    0.034739
  12 C :   -0.008933
  13 H :    0.027044
  14 H :    0.012268
  15 H :    0.039946
  16 S :    0.112632
  17 C :   -0.054352
  18 C :   -0.030797
  19 C :   -0.050565
  20 C :   -0.133967
  21 H :    0.004356
  22 C :    0.027857
  23 H :    0.011499
  24 H :    0.046179
  25 C :   -0.086086
  26 H :    0.025310
  27 H :    0.034129
  28 C :   -0.009500
  29 H :    0.014067
  30 H :    0.027500
  31 H :    0.033811
  32 H :    0.043311
  33 H :    0.033317
Sum of atomic charges:   -0.0000000

LOEWDIN ATOMIC CHARGES
----------------------
   0 S :    0.438076
   1 C :   -0.222912
   2 C :   -0.064110
   3 C :   -0.068696
   4 C :   -0.200095
   5 H :    0.036842
   6 C :   -0.043400
   7 H :    0.031936
   8 H :    0.036093
   9 C :   -0.041963
  10 H :    0.021634
  11 H :    0.025472
  12 C :   -0.057142
  13 H :    0.027617
  14 H :    0.019195
  15 H :    0.029229
  16 S :    0.431466
  17 C :   -0.193578
  18 C :   -0.066393
  19 C :   -0.055059
  20 C :   -0.197646
  21 H :    0.022425
  22 C :   -0.039827
  23 H :    0.020741
  24 H :    0.036500
  25 C :   -0.041956
  26 H :    0.023249
  27 H :    0.025368
  28 C :   -0.063794
  29 H :    0.024202
  30 H :    0.034534
  31 H :    0.020861
  32 H :    0.032259
  33 H :    0.018872

  Mayer bond orders larger than 0.100000
B(  0-S ,  1-C ) :   1.1361 B(  0-S ,  4-C ) :   1.1672 B(  1-C ,  2-C ) :   1.6105
B(  1-C , 32-H ) :   0.9757 B(  2-C ,  3-C ) :   1.2449 B(  2-C ,  6-C ) :   0.9982
B(  3-C ,  4-C ) :   1.5434 B(  3-C ,  5-H ) :   0.9923 B(  4-C , 20-C ) :   1.0564
B(  6-C ,  7-H ) :   0.9419 B(  6-C ,  8-H ) :   0.9336 B(  6-C ,  9-C ) :   1.0830
B(  9-C , 10-H ) :   0.9523 B(  9-C , 11-H ) :   0.9457 B(  9-C , 12-C ) :   1.0845
B( 12-C , 13-H ) :   0.9739 B( 12-C , 14-H ) :   0.9728 B( 12-C , 15-H ) :   0.9758
B( 16-S , 17-C ) :   1.1626 B( 16-S , 20-C ) :   1.1534 B( 17-C , 18-C ) :   1.6198
B( 17-C , 33-H ) :   0.9684 B( 18-C , 19-C ) :   1.2467 B( 18-C , 21-H ) :   0.9913
B( 19-C , 20-C ) :   1.5628 B( 19-C , 22-C ) :   1.0543 B( 22-C , 23-H ) :   0.9319
B( 22-C , 24-H ) :   0.9333 B( 22-C , 25-C ) :   1.0486 B( 25-C , 26-H ) :   0.9529
B( 25-C , 27-H ) :   0.9590 B( 25-C , 28-C ) :   1.0999 B( 28-C , 29-H ) :   0.9670
B( 28-C , 30-H ) :   0.9670 B( 28-C , 31-H ) :   0.9744

Dispersion correction           -0.013313166
FINAL SINGLE POINT ENERGY     -1339.873800774922

DIPOLE MOMENT
-------------
                                X             Y             Z
Electronic contribution:    -12.59771      20.75731     -20.56237
Nuclear contribution   :     12.95247     -21.30717      20.88027
                        -----------------------------------------
Total Dipole Moment    :      0.35476      -0.54986       0.31790
                        -----------------------------------------
Magnitude (a.u.)       :      0.72750
Magnitude (Debye)      :      1.84916

Rotational constants in cm-1:     0.016174     0.009082     0.006286
Rotational constants in MHz :   484.886645   272.279097   188.455277

                             ****ORCA TERMINATED NORMALLY****
TOTAL RUN TIME: 0 days 0 hours 0 minutes 21 seconds 249 msec
