                         Program Version 4.2.1 -  RELEASE  -
|  1> ! wB97X-D3 SP def2-SVP
|  2> %pal
|  3> nprocs 24
|  4> end
|  5>
|  6> * xyz 0 1
|  7> S 	 29.6965 	 -30.2539 	 -130.961
|  8> C 	 29.3506 	 -28.6288 	 -131.502
|  9> C 	 30.0622 	 -27.682 	 -130.756
| 10> C 	 31.0549 	 -28.2127 	 -129.907
| 11> C 	 30.9538 	 -29.6164 	 -129.854
| 12> H 	 31.7155 	 -27.6355 	 -129.315
| 13> C 	 29.9673 	 -26.2392 	 -130.99
| 14> H 	 29.2279 	 -26.0843 	 -131.787
| 15> H 	 30.8905 	 -25.9049 	 -131.476
| 16> C 	 29.755 	 -25.3713 	 -129.772
| 17> H 	 28.7386 	 -25.4822 	 -129.434
| 18> H 	 30.5031 	 -25.6175 	 -129.065
| 19> C 	 30.0309 	 -23.892 	 -130.161
| 20> H 	 29.6632 	 -23.7548 	 -131.226
| 21> H 	 29.6408 	 -23.1056 	 -129.521
| 22> H 	 31.1386 	 -23.7642 	 -130.204
| 23> S 	 33.1886 	 -31.1736 	 -129.9
| 24> C 	 33.7737 	 -31.9187 	 -128.467
| 25> C 	 32.7728 	 -31.8528 	 -127.459
| 26> C 	 31.6852 	 -31.0125 	 -127.765
| 27> C 	 31.8111 	 -30.5356 	 -129.073
| 28> H 	 33.0022 	 -32.2804 	 -126.503
| 29> C 	 30.6504 	 -30.6989 	 -126.761
| 30> H 	 30.349 	 -29.6321 	 -127.02
| 31> H 	 31.0971 	 -30.808 	 -125.795
| 32> C 	 29.3982 	 -31.5853 	 -126.744
| 33> H 	 29.8001 	 -32.4904 	 -126.516
| 34> H 	 28.9937 	 -31.7349 	 -127.79
| 35> C 	 28.3377 	 -31.1935 	 -125.763
| 36> H 	 27.3648 	 -31.7825 	 -125.722
| 37> H 	 28.0255 	 -30.1343 	 -125.896
| 38> H 	 28.6647 	 -31.1854 	 -124.717
| 39> H 	 28.7159 	 -28.4523 	 -132.365
| 40> H 	 34.5578 	 -32.61 	 -128.427
| 41> *
| 42>
| 43>                          ****END OF INPUT****

CARTESIAN COORDINATES (ANGSTROEM)
---------------------------------
  S     29.696500  -30.253900  -130.961000
  C     29.350600  -28.628800  -131.502000
  C     30.062200  -27.682000  -130.756000
  C     31.054900  -28.212700  -129.907000
  C     30.953800  -29.616400  -129.854000
  H     31.715500  -27.635500  -129.315000
  C     29.967300  -26.239200  -130.990000
  H     29.227900  -26.084300  -131.787000
  H     30.890500  -25.904900  -131.476000
  C     29.755000  -25.371300  -129.772000
  H     28.738600  -25.482200  -129.434000
  H     30.503100  -25.617500  -129.065000
  C     30.030900  -23.892000  -130.161000
  H     29.663200  -23.754800  -131.226000
  H     29.640800  -23.105600  -129.521000
  H     31.138600  -23.764200  -130.204000
  S     33.188600  -31.173600  -129.900000
  C     33.773700  -31.918700  -128.467000
  C     32.772800  -31.852800  -127.459000
  C     31.685200  -31.012500  -127.765000
  C     31.811100  -30.535600  -129.073000
  H     33.002200  -32.280400  -126.503000
  C     30.650400  -30.698900  -126.761000
  H     30.349000  -29.632100  -127.020000
  H     31.097100  -30.808000  -125.795000
  C     29.398200  -31.585300  -126.744000
  H     29.800100  -32.490400  -126.516000
  H     28.993700  -31.734900  -127.790000
  C     28.337700  -31.193500  -125.763000
  H     27.364800  -31.782500  -125.722000
  H     28.025500  -30.134300  -125.896000
  H     28.664700  -31.185400  -124.717000
  H     28.715900  -28.452300  -132.365000
  H     34.557800  -32.610000  -128.427000

 Total Charge           Charge          ....    0
 Multiplicity           Mult            ....    1
 Number of Electrons    NEL             ....  134
 Basis Dimension        Dim             ....  322

ORBITAL ENERGIES
----------------

  NO   OCC          E(Eh)            E(eV)
   0   2.0000     -88.967845     -2420.9382
   1   2.0000     -88.966916     -2420.9129
   2   2.0000     -10.334706      -281.2216
   3   2.0000     -10.323048      -280.9044
   4   2.0000     -10.315463      -280.6980
   5   2.0000     -10.312436      -280.6157
   6   2.0000     -10.299744      -280.2703
   7   2.0000     -10.296672      -280.1867
   8   2.0000     -10.296051      -280.1698
   9   2.0000     -10.291415      -280.0436
  10   2.0000     -10.289434      -279.9897
  11   2.0000     -10.285125      -279.8725
  12   2.0000     -10.284851      -279.8650
  13   2.0000     -10.283431      -279.8264
  14   2.0000     -10.281327      -279.7691
  15   2.0000     -10.278413      -279.6898
  16   2.0000      -8.082346      -219.9318
  17   2.0000      -8.081768      -219.9161
  18   2.0000      -6.040563      -164.3721
  19   2.0000      -6.040127      -164.3602
  20   2.0000      -6.036635      -164.2652
  21   2.0000      -6.036389      -164.2585
  22   2.0000      -6.033496      -164.1798
  23   2.0000      -6.032756      -164.1596
  24   2.0000      -1.005521       -27.3616
  25   2.0000      -0.984143       -26.7799
  26   2.0000      -0.918081       -24.9822
  27   2.0000      -0.915232       -24.9047
  28   2.0000      -0.863577       -23.4991
  29   2.0000      -0.855994       -23.2928
  30   2.0000      -0.850936       -23.1552
  31   2.0000      -0.811291       -22.0764
  32   2.0000      -0.780352       -21.2345
  33   2.0000      -0.763979       -20.7889
  34   2.0000      -0.710072       -19.3220
  35   2.0000      -0.700238       -19.0544
  36   2.0000      -0.691181       -18.8080
  37   2.0000      -0.666016       -18.1232
  38   2.0000      -0.645207       -17.5570
  39   2.0000      -0.623877       -16.9765
  40   2.0000      -0.593821       -16.1587
  41   2.0000      -0.575740       -15.6667
  42   2.0000      -0.569551       -15.4983
  43   2.0000      -0.559593       -15.2273
  44   2.0000      -0.523053       -14.2330
  45   2.0000      -0.519018       -14.1232
  46   2.0000      -0.516256       -14.0480
  47   2.0000      -0.514625       -14.0037
  48   2.0000      -0.511668       -13.9232
  49   2.0000      -0.501581       -13.6487
  50   2.0000      -0.489931       -13.3317
  51   2.0000      -0.478133       -13.0106
  52   2.0000      -0.470707       -12.8086
  53   2.0000      -0.458363       -12.4727
  54   2.0000      -0.455224       -12.3873
  55   2.0000      -0.452469       -12.3123
  56   2.0000      -0.442756       -12.0480
  57   2.0000      -0.433964       -11.8088
  58   2.0000      -0.431963       -11.7543
  59   2.0000      -0.426458       -11.6045
  60   2.0000      -0.425237       -11.5713
  61   2.0000      -0.422356       -11.4929
  62   2.0000      -0.413312       -11.2468
  63   2.0000      -0.337928        -9.1955
  64   2.0000      -0.329594        -8.9687
  65   2.0000      -0.311650        -8.4804
  66   2.0000      -0.308359        -8.3909
  67   0.0000       0.041745         1.1359
  68   0.0000       0.046679         1.2702
  69   0.0000       0.112221         3.0537
  70   0.0000       0.121909         3.3173
  71   0.0000       0.126097         3.4313

MULLIKEN ATOMIC CHARGES
-----------------------
   0 S :    0.114006
   1 C :   -0.138017
   2 C :   -0.056362
   3 C :    0.062357
   4 C :   -0.173731
   5 H :    0.008966
   6 C :    0.028992
   7 H :    0.009624
   8 H :    0.028120
   9 C :   -0.030597
  10 H :    0.036070
  11 H :    0.022839
  12 C :   -0.085513
  13 H :    0.035690
  14 H :    0.042369
  15 H :    0.033186
  16 S :    0.135845
  17 C :   -0.075909
  18 C :   -0.063817
  19 C :    0.007208
  20 C :   -0.211188
  21 H :    0.012525
  22 C :    0.065666
  23 H :    0.035782
  24 H :    0.012368
  25 C :   -0.010964
  26 H :   -0.008842
  27 H :    0.031074
  28 C :   -0.058690
  29 H :    0.047919
  30 H :    0.026593
  31 H :    0.019827
  32 H :    0.054764
  33 H :    0.041838
Sum of atomic charges:    0.0000000

LOEWDIN ATOMIC CHARGES
----------------------
   0 S :    0.394742
   1 C :   -0.200630
   2 C :   -0.065432
   3 C :   -0.045631
   4 C :   -0.183058
   5 H :    0.028806
   6 C :   -0.040404
   7 H :    0.027913
   8 H :    0.032635
   9 C :   -0.031094
  10 H :    0.025391
  11 H :    0.018743
  12 C :   -0.069463
  13 H :    0.029161
  14 H :    0.023555
  15 H :    0.027155
  16 S :    0.446342
  17 C :   -0.195892
  18 C :   -0.068383
  19 C :   -0.056088
  20 C :   -0.218852
  21 H :    0.025183
  22 C :   -0.028280
  23 H :    0.038996
  24 H :    0.027543
  25 C :   -0.038427
  26 H :    0.008962
  27 H :    0.030731
  28 C :   -0.077112
  29 H :    0.036521
  30 H :    0.027462
  31 H :    0.023554
  32 H :    0.028197
  33 H :    0.017155

  Mayer bond orders larger than 0.100000
B(  0-S ,  1-C ) :   1.1424 B(  0-S ,  4-C ) :   1.1627 B(  1-C ,  2-C ) :   1.5834
B(  1-C ,  4-C ) :   0.1022 B(  1-C , 32-H ) :   0.9687 B(  2-C ,  3-C ) :   1.2442
B(  2-C ,  6-C ) :   1.0423 B(  3-C ,  4-C ) :   1.5698 B(  3-C ,  5-H ) :   0.9965
B(  4-C , 20-C ) :   0.9975 B(  6-C ,  7-H ) :   0.9302 B(  6-C ,  8-H ) :   0.9396
B(  6-C ,  9-C ) :   1.0588 B(  9-C , 10-H ) :   0.9552 B(  9-C , 11-H ) :   0.9596
B(  9-C , 12-C ) :   1.0716 B( 12-C , 13-H ) :   0.9749 B( 12-C , 14-H ) :   0.9763
B( 12-C , 15-H ) :   0.9769 B( 16-S , 17-C ) :   1.1833 B( 16-S , 20-C ) :   1.1889
B( 17-C , 18-C ) :   1.5658 B( 17-C , 20-C ) :   0.1141 B( 17-C , 33-H ) :   0.9715
B( 18-C , 19-C ) :   1.2822 B( 18-C , 21-H ) :   0.9864 B( 19-C , 20-C ) :   1.5452
B( 19-C , 22-C ) :   1.0556 B( 22-C , 23-H ) :   0.9221 B( 22-C , 24-H ) :   0.9268
B( 22-C , 25-C ) :   1.0675 B( 25-C , 26-H ) :   0.9460 B( 25-C , 27-H ) :   0.9518
B( 25-C , 28-C ) :   1.0840 B( 28-C , 29-H ) :   0.9735 B( 28-C , 30-H ) :   0.9729
B( 28-C , 31-H ) :   0.9698

Dispersion correction           -0.013836722
FINAL SINGLE POINT ENERGY     -1339.872809581842

DIPOLE MOMENT
-------------
                                X             Y             Z
Electronic contribution:     12.19215     -17.45225     -13.16997
Nuclear contribution   :    -12.23353      17.75793      13.44518
                        -----------------------------------------
Total Dipole Moment    :     -0.04138       0.30567       0.27521
                        -----------------------------------------
Magnitude (a.u.)       :      0.41339
Magnitude (Debye)      :      1.05075

Rotational constants in cm-1:     0.017333     0.008111     0.007029
Rotational constants in MHz :   519.616573   243.151262   210.737310

                             ****ORCA TERMINATED NORMALLY****
TOTAL RUN TIME: 0 days 0 hours 0 minutes 21 seconds 160 msec
