                         Program Version 4.2.1 -  RELEASE  -
|  1> ! wB97X-D3 SP def2-SVP
|  2> %pal
|  3> nprocs 24
|  4> end
|  5>
|  6> * xyz 0 1
|  7> S 	 -96.0597 	 49.7236 	 -101.723
|  8> C 	 -95.5084 	 48.774 	 -100.373
|  9> C 	 -94.8621 	 49.5313 	 -99.4434
| 10> C 	 -94.8271 	 50.936 	 -99.8022
| 11> C 	 -95.3805 	 51.2124 	 -101.057
| 12> H 	 -94.4162 	 51.7395 	 -99.2743
| 13> C 	 -94.3995 	 49.1073 	 -98.0477
| 14> H 	 -94.9906 	 48.1857 	 -97.7591
| 15> H 	 -94.7592 	 49.8106 	 -97.2577
| 16> C 	 -92.9333 	 48.8396 	 -97.9294
| 17> H 	 -92.6044 	 47.9654 	 -98.5268
| 18> H 	 -92.4786 	 49.6918 	 -98.3572
| 19> C 	 -92.6146 	 48.6766 	 -96.388
| 20> H 	 -91.5441 	 48.3915 	 -96.3656
| 21> H 	 -92.6334 	 49.7129 	 -96.0147
| 22> H 	 -93.1929 	 47.948 	 -95.8643
| 23> S 	 -95.8321 	 52.5293 	 -103.366
| 24> C 	 -95.5536 	 54.2162 	 -103.61
| 25> C 	 -95.095 	 54.7694 	 -102.413
| 26> C 	 -95.1898 	 53.8639 	 -101.297
| 27> C 	 -95.5414 	 52.5457 	 -101.712
| 28> H 	 -94.8693 	 55.7953 	 -102.408
| 29> C 	 -94.865 	 54.3056 	 -99.8977
| 30> H 	 -95.4396 	 53.8202 	 -99.1755
| 31> H 	 -95.1985 	 55.3806 	 -99.8399
| 32> C 	 -93.3185 	 54.2671 	 -99.6853
| 33> H 	 -92.8437 	 54.7436 	 -100.568
| 34> H 	 -92.8451 	 53.2649 	 -99.674
| 35> C 	 -92.8126 	 54.9812 	 -98.4383
| 36> H 	 -91.7238 	 54.9577 	 -98.4202
| 37> H 	 -92.9727 	 54.4944 	 -97.4753
| 38> H 	 -93.2218 	 55.9688 	 -98.2779
| 39> H 	 -95.8194 	 47.7543 	 -100.164
| 40> H 	 -95.4688 	 54.6843 	 -104.575
| 41> *
| 42>
| 43>                          ****END OF INPUT****

CARTESIAN COORDINATES (ANGSTROEM)
---------------------------------
  S    -96.059700   49.723600  -101.723000
  C    -95.508400   48.774000  -100.373000
  C    -94.862100   49.531300  -99.443400
  C    -94.827100   50.936000  -99.802200
  C    -95.380500   51.212400  -101.057000
  H    -94.416200   51.739500  -99.274300
  C    -94.399500   49.107300  -98.047700
  H    -94.990600   48.185700  -97.759100
  H    -94.759200   49.810600  -97.257700
  C    -92.933300   48.839600  -97.929400
  H    -92.604400   47.965400  -98.526800
  H    -92.478600   49.691800  -98.357200
  C    -92.614600   48.676600  -96.388000
  H    -91.544100   48.391500  -96.365600
  H    -92.633400   49.712900  -96.014700
  H    -93.192900   47.948000  -95.864300
  S    -95.832100   52.529300  -103.366000
  C    -95.553600   54.216200  -103.610000
  C    -95.095000   54.769400  -102.413000
  C    -95.189800   53.863900  -101.297000
  C    -95.541400   52.545700  -101.712000
  H    -94.869300   55.795300  -102.408000
  C    -94.865000   54.305600  -99.897700
  H    -95.439600   53.820200  -99.175500
  H    -95.198500   55.380600  -99.839900
  C    -93.318500   54.267100  -99.685300
  H    -92.843700   54.743600  -100.568000
  H    -92.845100   53.264900  -99.674000
  C    -92.812600   54.981200  -98.438300
  H    -91.723800   54.957700  -98.420200
  H    -92.972700   54.494400  -97.475300
  H    -93.221800   55.968800  -98.277900
  H    -95.819400   47.754300  -100.164000
  H    -95.468800   54.684300  -104.575000

 Total Charge           Charge          ....    0
 Multiplicity           Mult            ....    1
 Number of Electrons    NEL             ....  134
 Basis Dimension        Dim             ....  322

ORBITAL ENERGIES
----------------

  NO   OCC          E(Eh)            E(eV)
   0   2.0000     -88.966079     -2420.8901
   1   2.0000     -88.965189     -2420.8659
   2   2.0000     -10.337505      -281.2978
   3   2.0000     -10.330434      -281.1054
   4   2.0000     -10.317011      -280.7401
   5   2.0000     -10.312803      -280.6256
   6   2.0000     -10.308605      -280.5114
   7   2.0000     -10.300994      -280.3043
   8   2.0000     -10.295555      -280.1563
   9   2.0000     -10.295335      -280.1503
  10   2.0000     -10.294949      -280.1398
  11   2.0000     -10.294737      -280.1340
  12   2.0000     -10.291575      -280.0480
  13   2.0000     -10.284715      -279.8613
  14   2.0000     -10.283342      -279.8240
  15   2.0000     -10.277464      -279.6640
  16   2.0000      -8.081697      -219.9142
  17   2.0000      -8.080676      -219.8864
  18   2.0000      -6.039997      -164.3567
  19   2.0000      -6.039412      -164.3408
  20   2.0000      -6.035741      -164.2409
  21   2.0000      -6.035181      -164.2256
  22   2.0000      -6.032776      -164.1602
  23   2.0000      -6.031226      -164.1180
  24   2.0000      -1.010784       -27.5048
  25   2.0000      -0.986418       -26.8418
  26   2.0000      -0.913277       -24.8515
  27   2.0000      -0.910780       -24.7836
  28   2.0000      -0.870700       -23.6929
  29   2.0000      -0.853534       -23.2259
  30   2.0000      -0.842969       -22.9383
  31   2.0000      -0.817801       -22.2535
  32   2.0000      -0.780504       -21.2386
  33   2.0000      -0.771616       -20.9967
  34   2.0000      -0.707128       -19.2419
  35   2.0000      -0.700810       -19.0700
  36   2.0000      -0.695319       -18.9206
  37   2.0000      -0.670284       -18.2393
  38   2.0000      -0.640581       -17.4311
  39   2.0000      -0.623412       -16.9639
  40   2.0000      -0.598733       -16.2923
  41   2.0000      -0.571737       -15.5578
  42   2.0000      -0.567233       -15.4352
  43   2.0000      -0.559459       -15.2236
  44   2.0000      -0.528771       -14.3886
  45   2.0000      -0.523754       -14.2521
  46   2.0000      -0.514836       -14.0094
  47   2.0000      -0.510882       -13.9018
  48   2.0000      -0.506217       -13.7749
  49   2.0000      -0.503267       -13.6946
  50   2.0000      -0.499995       -13.6056
  51   2.0000      -0.484468       -13.1831
  52   2.0000      -0.472426       -12.8554
  53   2.0000      -0.469693       -12.7810
  54   2.0000      -0.460591       -12.5333
  55   2.0000      -0.452090       -12.3020
  56   2.0000      -0.445205       -12.1146
  57   2.0000      -0.442404       -12.0384
  58   2.0000      -0.436615       -11.8809
  59   2.0000      -0.422452       -11.4955
  60   2.0000      -0.417484       -11.3603
  61   2.0000      -0.412451       -11.2234
  62   2.0000      -0.407764       -11.0958
  63   2.0000      -0.363330        -9.8867
  64   2.0000      -0.333517        -9.0755
  65   2.0000      -0.325339        -8.8529
  66   2.0000      -0.283770        -7.7218
  67   0.0000       0.021198         0.5768
  68   0.0000       0.086399         2.3510
  69   0.0000       0.103506         2.8165
  70   0.0000       0.116467         3.1692
  71   0.0000       0.130602         3.5539

MULLIKEN ATOMIC CHARGES
-----------------------
   0 S :    0.096485
   1 C :   -0.110908
   2 C :   -0.057497
   3 C :    0.015705
   4 C :   -0.102007
   5 H :   -0.030440
   6 C :    0.002993
   7 H :    0.018101
   8 H :    0.034592
   9 C :   -0.057110
  10 H :    0.037200
  11 H :    0.016662
  12 C :   -0.047250
  13 H :    0.034171
  14 H :    0.038716
  15 H :    0.043124
  16 S :    0.098909
  17 C :   -0.089191
  18 C :   -0.023889
  19 C :   -0.101979
  20 C :   -0.084331
  21 H :    0.007782
  22 C :    0.072556
  23 H :    0.022460
  24 H :    0.029222
  25 C :   -0.089226
  26 H :    0.032252
  27 H :    0.038105
  28 C :   -0.031002
  29 H :    0.028914
  30 H :    0.015816
  31 H :    0.028426
  32 H :    0.049944
  33 H :    0.062694
Sum of atomic charges:    0.0000000

LOEWDIN ATOMIC CHARGES
----------------------
   0 S :    0.393758
   1 C :   -0.198908
   2 C :   -0.063857
   3 C :   -0.063218
   4 C :   -0.176955
   5 H :    0.017454
   6 C :   -0.041157
   7 H :    0.028986
   8 H :    0.033625
   9 C :   -0.037905
  10 H :    0.027273
  11 H :    0.017668
  12 C :   -0.061827
  13 H :    0.029087
  14 H :    0.030361
  15 H :    0.022220
  16 S :    0.451527
  17 C :   -0.197347
  18 C :   -0.063812
  19 C :   -0.058412
  20 C :   -0.219777
  21 H :    0.024117
  22 C :   -0.031713
  23 H :    0.020124
  24 H :    0.040212
  25 C :   -0.043545
  26 H :    0.030615
  27 H :    0.028013
  28 C :   -0.074116
  29 H :    0.029345
  30 H :    0.023038
  31 H :    0.021690
  32 H :    0.032740
  33 H :    0.030696

  Mayer bond orders larger than 0.100000
B(  0-S ,  1-C ) :   1.1265 B(  0-S ,  4-C ) :   1.1420 B(  1-C ,  2-C ) :   1.6470
B(  1-C , 32-H ) :   0.9614 B(  2-C ,  3-C ) :   1.2204 B(  2-C ,  6-C ) :   1.0112
B(  3-C ,  4-C ) :   1.5867 B(  3-C ,  5-H ) :   0.9974 B(  4-C , 20-C ) :   1.0476
B(  6-C ,  7-H ) :   0.9406 B(  6-C ,  8-H ) :   0.9515 B(  6-C ,  9-C ) :   1.0583
B(  9-C , 10-H ) :   0.9546 B(  9-C , 11-H ) :   0.9581 B(  9-C , 12-C ) :   1.0694
B( 12-C , 13-H ) :   0.9758 B( 12-C , 14-H ) :   0.9764 B( 12-C , 15-H ) :   0.9775
B( 16-S , 17-C ) :   1.1818 B( 16-S , 20-C ) :   1.1766 B( 17-C , 18-C ) :   1.5618
B( 17-C , 33-H ) :   0.9705 B( 18-C , 19-C ) :   1.2971 B( 18-C , 21-H ) :   0.9957
B( 19-C , 20-C ) :   1.5203 B( 19-C , 22-C ) :   1.0502 B( 22-C , 23-H ) :   0.9417
B( 22-C , 24-H ) :   0.9319 B( 22-C , 25-C ) :   1.0454 B( 25-C , 26-H ) :   0.9539
B( 25-C , 27-H ) :   0.9522 B( 25-C , 28-C ) :   1.0855 B( 28-C , 29-H ) :   0.9703
B( 28-C , 30-H ) :   0.9704 B( 28-C , 31-H ) :   0.9743

Dispersion correction           -0.013878706
FINAL SINGLE POINT ENERGY     -1339.873759829751

DIPOLE MOMENT
-------------
                                X             Y             Z
Electronic contribution:    -17.99990      -3.63627     -28.04102
Nuclear contribution   :     18.40159       3.93655      28.59873
                        -----------------------------------------
Total Dipole Moment    :      0.40169       0.30027       0.55772
                        -----------------------------------------
Magnitude (a.u.)       :      0.75005
Magnitude (Debye)      :      1.90647

Rotational constants in cm-1:     0.017473     0.009302     0.006297
Rotational constants in MHz :   523.822768   278.856645   188.784308

                             ****ORCA TERMINATED NORMALLY****
TOTAL RUN TIME: 0 days 0 hours 0 minutes 21 seconds 665 msec
