                         Program Version 4.2.1 -  RELEASE  -
|  1> ! wB97X-D3 SP def2-SVP
|  2> %pal
|  3> nprocs 24
|  4> end
|  5>
|  6> * xyz 0 1
|  7> S 	 -90.5666 	 -33.8575 	 -65.9641
|  8> C 	 -92.1602 	 -34.5445 	 -66.1069
|  9> C 	 -93.1448 	 -33.5778 	 -66.0799
| 10> C 	 -92.6202 	 -32.3355 	 -65.7885
| 11> C 	 -91.2353 	 -32.3094 	 -65.5851
| 12> H 	 -93.1638 	 -31.3975 	 -65.7328
| 13> C 	 -94.6542 	 -33.7857 	 -66.0401
| 14> H 	 -95.0689 	 -33.711 	 -67.0353
| 15> H 	 -95.082 	 -33.039 	 -65.4198
| 16> C 	 -95.1057 	 -35.1425 	 -65.376
| 17> H 	 -94.822 	 -35.9998 	 -65.9958
| 18> H 	 -94.6552 	 -35.3042 	 -64.3929
| 19> C 	 -96.5963 	 -35.3049 	 -65.1599
| 20> H 	 -96.9077 	 -36.2634 	 -64.7908
| 21> H 	 -97.049 	 -34.4999 	 -64.6153
| 22> H 	 -97.0871 	 -35.2699 	 -66.138
| 23> S 	 -89.909 	 -30.8492 	 -63.6903
| 24> C 	 -88.6859 	 -29.6956 	 -64.2537
| 25> C 	 -89.0352 	 -29.2692 	 -65.5615
| 26> C 	 -89.9533 	 -30.2013 	 -66.1978
| 27> C 	 -90.4452 	 -31.1217 	 -65.3186
| 28> H 	 -88.5766 	 -28.544 	 -66.0728
| 29> C 	 -90.1801 	 -30.1669 	 -67.6676
| 30> H 	 -91.2887 	 -30.2569 	 -67.6495
| 31> H 	 -89.8047 	 -31.1386 	 -67.9903
| 32> C 	 -89.5733 	 -28.9955 	 -68.4945
| 33> H 	 -88.5457 	 -28.9209 	 -68.2781
| 34> H 	 -90.0464 	 -28.1542 	 -68.0743
| 35> C 	 -89.7802 	 -29.1408 	 -70.0479
| 36> H 	 -89.6529 	 -28.2652 	 -70.7139
| 37> H 	 -90.8309 	 -29.4963 	 -70.2053
| 38> H 	 -89.077 	 -29.8669 	 -70.4487
| 39> H 	 -92.2975 	 -35.6312 	 -66.2762
| 40> H 	 -87.9793 	 -29.1157 	 -63.6461
| 41> *
| 42>
| 43>                          ****END OF INPUT****

CARTESIAN COORDINATES (ANGSTROEM)
---------------------------------
  S    -90.566600  -33.857500  -65.964100
  C    -92.160200  -34.544500  -66.106900
  C    -93.144800  -33.577800  -66.079900
  C    -92.620200  -32.335500  -65.788500
  C    -91.235300  -32.309400  -65.585100
  H    -93.163800  -31.397500  -65.732800
  C    -94.654200  -33.785700  -66.040100
  H    -95.068900  -33.711000  -67.035300
  H    -95.082000  -33.039000  -65.419800
  C    -95.105700  -35.142500  -65.376000
  H    -94.822000  -35.999800  -65.995800
  H    -94.655200  -35.304200  -64.392900
  C    -96.596300  -35.304900  -65.159900
  H    -96.907700  -36.263400  -64.790800
  H    -97.049000  -34.499900  -64.615300
  H    -97.087100  -35.269900  -66.138000
  S    -89.909000  -30.849200  -63.690300
  C    -88.685900  -29.695600  -64.253700
  C    -89.035200  -29.269200  -65.561500
  C    -89.953300  -30.201300  -66.197800
  C    -90.445200  -31.121700  -65.318600
  H    -88.576600  -28.544000  -66.072800
  C    -90.180100  -30.166900  -67.667600
  H    -91.288700  -30.256900  -67.649500
  H    -89.804700  -31.138600  -67.990300
  C    -89.573300  -28.995500  -68.494500
  H    -88.545700  -28.920900  -68.278100
  H    -90.046400  -28.154200  -68.074300
  C    -89.780200  -29.140800  -70.047900
  H    -89.652900  -28.265200  -70.713900
  H    -90.830900  -29.496300  -70.205300
  H    -89.077000  -29.866900  -70.448700
  H    -92.297500  -35.631200  -66.276200
  H    -87.979300  -29.115700  -63.646100

 Total Charge           Charge          ....    0
 Multiplicity           Mult            ....    1
 Number of Electrons    NEL             ....  134
 Basis Dimension        Dim             ....  322

ORBITAL ENERGIES
----------------

  NO   OCC          E(Eh)            E(eV)
   0   2.0000     -88.967171     -2420.9198
   1   2.0000     -88.962259     -2420.7861
   2   2.0000     -10.322992      -280.9029
   3   2.0000     -10.322271      -280.8833
   4   2.0000     -10.314810      -280.6802
   5   2.0000     -10.314274      -280.6657
   6   2.0000     -10.298948      -280.2486
   7   2.0000     -10.296100      -280.1711
   8   2.0000     -10.293418      -280.0982
   9   2.0000     -10.291003      -280.0324
  10   2.0000     -10.289212      -279.9837
  11   2.0000     -10.288412      -279.9619
  12   2.0000     -10.288259      -279.9578
  13   2.0000     -10.287673      -279.9418
  14   2.0000     -10.287615      -279.9402
  15   2.0000     -10.272852      -279.5385
  16   2.0000      -8.082115      -219.9255
  17   2.0000      -8.076843      -219.7821
  18   2.0000      -6.040383      -164.3672
  19   2.0000      -6.036555      -164.2630
  20   2.0000      -6.035429      -164.2324
  21   2.0000      -6.033167      -164.1708
  22   2.0000      -6.031476      -164.1248
  23   2.0000      -6.027423      -164.0145
  24   2.0000      -1.008399       -27.4399
  25   2.0000      -0.984340       -26.7852
  26   2.0000      -0.909164       -24.7396
  27   2.0000      -0.907457       -24.6932
  28   2.0000      -0.867293       -23.6002
  29   2.0000      -0.854590       -23.2546
  30   2.0000      -0.846837       -23.0436
  31   2.0000      -0.810438       -22.0531
  32   2.0000      -0.782978       -21.3059
  33   2.0000      -0.768479       -20.9114
  34   2.0000      -0.717528       -19.5249
  35   2.0000      -0.706354       -19.2209
  36   2.0000      -0.689651       -18.7664
  37   2.0000      -0.660077       -17.9616
  38   2.0000      -0.644209       -17.5298
  39   2.0000      -0.612374       -16.6635
  40   2.0000      -0.587531       -15.9875
  41   2.0000      -0.574343       -15.6287
  42   2.0000      -0.572841       -15.5878
  43   2.0000      -0.564846       -15.3702
  44   2.0000      -0.526884       -14.3372
  45   2.0000      -0.520592       -14.1660
  46   2.0000      -0.516822       -14.0634
  47   2.0000      -0.516127       -14.0445
  48   2.0000      -0.506424       -13.7805
  49   2.0000      -0.497814       -13.5462
  50   2.0000      -0.492096       -13.3906
  51   2.0000      -0.477743       -13.0000
  52   2.0000      -0.470102       -12.7921
  53   2.0000      -0.465019       -12.6538
  54   2.0000      -0.456931       -12.4337
  55   2.0000      -0.451553       -12.2874
  56   2.0000      -0.443861       -12.0781
  57   2.0000      -0.440000       -11.9730
  58   2.0000      -0.433594       -11.7987
  59   2.0000      -0.423818       -11.5327
  60   2.0000      -0.422098       -11.4859
  61   2.0000      -0.420210       -11.4345
  62   2.0000      -0.416228       -11.3261
  63   2.0000      -0.335602        -9.1322
  64   2.0000      -0.325261        -8.8508
  65   2.0000      -0.314756        -8.5649
  66   2.0000      -0.307435        -8.3657
  67   0.0000       0.038188         1.0392
  68   0.0000       0.055124         1.5000
  69   0.0000       0.111723         3.0401
  70   0.0000       0.122771         3.3408
  71   0.0000       0.136837         3.7235

MULLIKEN ATOMIC CHARGES
-----------------------
   0 S :    0.134105
   1 C :   -0.156397
   2 C :   -0.036925
   3 C :    0.017734
   4 C :   -0.186298
   5 H :    0.013146
   6 C :    0.098340
   7 H :    0.036463
   8 H :    0.019862
   9 C :   -0.116151
  10 H :    0.028120
  11 H :    0.038239
  12 C :   -0.027955
  13 H :    0.030043
  14 H :    0.025009
  15 H :    0.011509
  16 S :    0.115666
  17 C :   -0.088678
  18 C :    0.001951
  19 C :   -0.072568
  20 C :   -0.200132
  21 H :   -0.032160
  22 C :    0.083776
  23 H :    0.033490
  24 H :    0.029342
  25 C :   -0.044898
  26 H :    0.031013
  27 H :    0.024346
  28 C :   -0.052161
  29 H :    0.041262
  30 H :    0.038397
  31 H :    0.036093
  32 H :    0.062065
  33 H :    0.064351
Sum of atomic charges:   -0.0000000

LOEWDIN ATOMIC CHARGES
----------------------
   0 S :    0.429870
   1 C :   -0.200390
   2 C :   -0.071742
   3 C :   -0.060335
   4 C :   -0.211052
   5 H :    0.032002
   6 C :   -0.018361
   7 H :    0.032801
   8 H :    0.026255
   9 C :   -0.042667
  10 H :    0.021961
  11 H :    0.025550
  12 C :   -0.065572
  13 H :    0.025741
  14 H :    0.019771
  15 H :    0.023519
  16 S :    0.404160
  17 C :   -0.176340
  18 C :   -0.056537
  19 C :   -0.047079
  20 C :   -0.224940
  21 H :    0.002841
  22 C :   -0.036720
  23 H :    0.040969
  24 H :    0.034379
  25 C :   -0.031562
  26 H :    0.018798
  27 H :    0.020060
  28 C :   -0.068010
  29 H :    0.030014
  30 H :    0.031511
  31 H :    0.026360
  32 H :    0.032950
  33 H :    0.031795

  Mayer bond orders larger than 0.100000
B(  0-S ,  1-C ) :   1.1646 B(  0-S ,  4-C ) :   1.1688 B(  1-C ,  2-C ) :   1.5669
B(  1-C ,  4-C ) :   0.1065 B(  1-C , 32-H ) :   0.9647 B(  2-C ,  3-C ) :   1.2908
B(  2-C ,  6-C ) :   1.0106 B(  3-C ,  4-C ) :   1.5489 B(  3-C ,  5-H ) :   0.9942
B(  4-C , 20-C ) :   1.0277 B(  6-C ,  7-H ) :   0.9256 B(  6-C ,  8-H ) :   0.9545
B(  6-C ,  9-C ) :   1.0695 B(  9-C , 10-H ) :   0.9499 B(  9-C , 11-H ) :   0.9611
B(  9-C , 12-C ) :   1.0954 B( 12-C , 13-H ) :   0.9721 B( 12-C , 14-H ) :   0.9750
B( 12-C , 15-H ) :   0.9700 B( 16-S , 17-C ) :   1.1562 B( 16-S , 20-C ) :   1.1358
B( 17-C , 18-C ) :   1.5938 B( 17-C , 33-H ) :   0.9629 B( 18-C , 19-C ) :   1.2405
B( 18-C , 21-H ) :   0.9941 B( 19-C , 20-C ) :   1.6240 B( 19-C , 22-C ) :   1.0214
B( 22-C , 23-H ) :   0.9203 B( 22-C , 24-H ) :   0.9173 B( 22-C , 25-C ) :   1.0718
B( 25-C , 26-H ) :   0.9510 B( 25-C , 27-H ) :   0.9536 B( 25-C , 28-C ) :   1.0697
B( 28-C , 29-H ) :   0.9772 B( 28-C , 30-H ) :   0.9766 B( 28-C , 31-H ) :   0.9768

Dispersion correction           -0.013679647
FINAL SINGLE POINT ENERGY     -1339.861036815067

DIPOLE MOMENT
-------------
                                X             Y             Z
Electronic contribution:     16.45391      -0.41248      15.15038
Nuclear contribution   :    -16.76086       0.57840     -15.62358
                        -----------------------------------------
Total Dipole Moment    :     -0.30695       0.16592      -0.47320
                        -----------------------------------------
Magnitude (a.u.)       :      0.58793
Magnitude (Debye)      :      1.49441

Rotational constants in cm-1:     0.020491     0.007016     0.005983
Rotational constants in MHz :   614.307809   210.321275   179.372214

                             ****ORCA TERMINATED NORMALLY****
TOTAL RUN TIME: 0 days 0 hours 0 minutes 20 seconds 844 msec
