                         Program Version 4.2.1 -  RELEASE  -
|  1> ! wB97X-D3 SP def2-SVP
|  2> %pal
|  3> nprocs 24
|  4> end
|  5>
|  6> * xyz 0 1
|  7> S 	 -107.792 	 36.3086 	 -16.0039
|  8> C 	 -106.384 	 35.7792 	 -15.0746
|  9> C 	 -105.889 	 34.5167 	 -15.4344
| 10> C 	 -106.749 	 33.9484 	 -16.4406
| 11> C 	 -107.879 	 34.6974 	 -16.7887
| 12> H 	 -106.652 	 33.0417 	 -16.9649
| 13> C 	 -104.627 	 33.8459 	 -15.0264
| 14> H 	 -103.978 	 34.5145 	 -14.5491
| 15> H 	 -104.149 	 33.5872 	 -15.9919
| 16> C 	 -104.842 	 32.5146 	 -14.2245
| 17> H 	 -105.556 	 32.6431 	 -13.447
| 18> H 	 -105.314 	 31.7374 	 -14.8577
| 19> C 	 -103.564 	 31.9187 	 -13.6731
| 20> H 	 -102.749 	 31.8708 	 -14.3117
| 21> H 	 -103.151 	 32.6577 	 -12.9197
| 22> H 	 -103.689 	 30.9214 	 -13.2592
| 23> S 	 -109.478 	 35.9166 	 -18.7368
| 24> C 	 -110.317 	 34.9242 	 -19.8386
| 25> C 	 -110.053 	 33.5903 	 -19.6599
| 26> C 	 -109.186 	 33.3348 	 -18.555
| 27> C 	 -108.781 	 34.4827 	 -17.9161
| 28> H 	 -110.422 	 32.9076 	 -20.4035
| 29> C 	 -108.871 	 31.909 	 -18.0837
| 30> H 	 -108.525 	 31.9116 	 -17.0994
| 31> H 	 -107.956 	 31.5979 	 -18.6215
| 32> C 	 -109.862 	 30.7759 	 -18.4567
| 33> H 	 -110.061 	 30.6472 	 -19.4918
| 34> H 	 -110.826 	 30.9933 	 -17.9962
| 35> C 	 -109.512 	 29.4631 	 -17.7197
| 36> H 	 -108.647 	 29.0398 	 -18.1828
| 37> H 	 -110.274 	 28.7681 	 -17.9835
| 38> H 	 -109.384 	 29.388 	 -16.6542
| 39> H 	 -105.761 	 36.4138 	 -14.4457
| 40> H 	 -110.842 	 35.2374 	 -20.6789
| 41> *
| 42>
| 43>                          ****END OF INPUT****

CARTESIAN COORDINATES (ANGSTROEM)
---------------------------------
  S    -107.792000   36.308600  -16.003900
  C    -106.384000   35.779200  -15.074600
  C    -105.889000   34.516700  -15.434400
  C    -106.749000   33.948400  -16.440600
  C    -107.879000   34.697400  -16.788700
  H    -106.652000   33.041700  -16.964900
  C    -104.627000   33.845900  -15.026400
  H    -103.978000   34.514500  -14.549100
  H    -104.149000   33.587200  -15.991900
  C    -104.842000   32.514600  -14.224500
  H    -105.556000   32.643100  -13.447000
  H    -105.314000   31.737400  -14.857700
  C    -103.564000   31.918700  -13.673100
  H    -102.749000   31.870800  -14.311700
  H    -103.151000   32.657700  -12.919700
  H    -103.689000   30.921400  -13.259200
  S    -109.478000   35.916600  -18.736800
  C    -110.317000   34.924200  -19.838600
  C    -110.053000   33.590300  -19.659900
  C    -109.186000   33.334800  -18.555000
  C    -108.781000   34.482700  -17.916100
  H    -110.422000   32.907600  -20.403500
  C    -108.871000   31.909000  -18.083700
  H    -108.525000   31.911600  -17.099400
  H    -107.956000   31.597900  -18.621500
  C    -109.862000   30.775900  -18.456700
  H    -110.061000   30.647200  -19.491800
  H    -110.826000   30.993300  -17.996200
  C    -109.512000   29.463100  -17.719700
  H    -108.647000   29.039800  -18.182800
  H    -110.274000   28.768100  -17.983500
  H    -109.384000   29.388000  -16.654200
  H    -105.761000   36.413800  -14.445700
  H    -110.842000   35.237400  -20.678900

 Total Charge           Charge          ....    0
 Multiplicity           Mult            ....    1
 Number of Electrons    NEL             ....  134
 Basis Dimension        Dim             ....  322

ORBITAL ENERGIES
----------------

  NO   OCC          E(Eh)            E(eV)
   0   2.0000     -88.967854     -2420.9384
   1   2.0000     -88.964610     -2420.8501
   2   2.0000     -10.334320      -281.2112
   3   2.0000     -10.328190      -281.0443
   4   2.0000     -10.317637      -280.7572
   5   2.0000     -10.308789      -280.5164
   6   2.0000     -10.305279      -280.4209
   7   2.0000     -10.303762      -280.3796
   8   2.0000     -10.295055      -280.1427
   9   2.0000     -10.293316      -280.0954
  10   2.0000     -10.292104      -280.0624
  11   2.0000     -10.289829      -280.0005
  12   2.0000     -10.289520      -279.9921
  13   2.0000     -10.289137      -279.9816
  14   2.0000     -10.276970      -279.6506
  15   2.0000     -10.273809      -279.5646
  16   2.0000      -8.081414      -219.9065
  17   2.0000      -8.079655      -219.8586
  18   2.0000      -6.040081      -164.3590
  19   2.0000      -6.038185      -164.3074
  20   2.0000      -6.036258      -164.2549
  21   2.0000      -6.034168      -164.1981
  22   2.0000      -6.031909      -164.1366
  23   2.0000      -6.030331      -164.0936
  24   2.0000      -1.004269       -27.3276
  25   2.0000      -0.979640       -26.6574
  26   2.0000      -0.913131       -24.8475
  27   2.0000      -0.909787       -24.7566
  28   2.0000      -0.871134       -23.7048
  29   2.0000      -0.857363       -23.3300
  30   2.0000      -0.845227       -22.9998
  31   2.0000      -0.815275       -22.1848
  32   2.0000      -0.787441       -21.4274
  33   2.0000      -0.774868       -21.0852
  34   2.0000      -0.714868       -19.4526
  35   2.0000      -0.709459       -19.3053
  36   2.0000      -0.700614       -19.0647
  37   2.0000      -0.658010       -17.9053
  38   2.0000      -0.641127       -17.4459
  39   2.0000      -0.621649       -16.9159
  40   2.0000      -0.600911       -16.3516
  41   2.0000      -0.568086       -15.4584
  42   2.0000      -0.566899       -15.4261
  43   2.0000      -0.560426       -15.2500
  44   2.0000      -0.534059       -14.5325
  45   2.0000      -0.528856       -14.3909
  46   2.0000      -0.516505       -14.0548
  47   2.0000      -0.508294       -13.8314
  48   2.0000      -0.506678       -13.7874
  49   2.0000      -0.498430       -13.5630
  50   2.0000      -0.494409       -13.4536
  51   2.0000      -0.482846       -13.1389
  52   2.0000      -0.476814       -12.9748
  53   2.0000      -0.463965       -12.6251
  54   2.0000      -0.459433       -12.5018
  55   2.0000      -0.455553       -12.3962
  56   2.0000      -0.449960       -12.2440
  57   2.0000      -0.444831       -12.1045
  58   2.0000      -0.440450       -11.9852
  59   2.0000      -0.430857       -11.7242
  60   2.0000      -0.417380       -11.3575
  61   2.0000      -0.415206       -11.2983
  62   2.0000      -0.409005       -11.1296
  63   2.0000      -0.359549        -9.7838
  64   2.0000      -0.331995        -9.0341
  65   2.0000      -0.327301        -8.9063
  66   2.0000      -0.280343        -7.6285
  67   0.0000       0.021045         0.5727
  68   0.0000       0.078301         2.1307
  69   0.0000       0.098852         2.6899
  70   0.0000       0.119316         3.2468
  71   0.0000       0.132928         3.6172

MULLIKEN ATOMIC CHARGES
-----------------------
   0 S :    0.087706
   1 C :   -0.103720
   2 C :   -0.086954
   3 C :    0.009944
   4 C :   -0.123495
   5 H :   -0.013047
   6 C :    0.092449
   7 H :    0.002169
   8 H :    0.039789
   9 C :   -0.072376
  10 H :    0.028738
  11 H :    0.026255
  12 C :   -0.026927
  13 H :    0.006917
  14 H :    0.025811
  15 H :    0.040603
  16 S :    0.098068
  17 C :   -0.045863
  18 C :   -0.054671
  19 C :   -0.032801
  20 C :   -0.135405
  21 H :    0.012256
  22 C :    0.066598
  23 H :    0.010065
  24 H :    0.032890
  25 C :   -0.060536
  26 H :    0.032152
  27 H :    0.028954
  28 C :   -0.032511
  29 H :    0.012061
  30 H :    0.019146
  31 H :    0.041368
  32 H :    0.044385
  33 H :    0.029982
Sum of atomic charges:   -0.0000000

LOEWDIN ATOMIC CHARGES
----------------------
   0 S :    0.375337
   1 C :   -0.193939
   2 C :   -0.057726
   3 C :   -0.057474
   4 C :   -0.171252
   5 H :    0.019832
   6 C :   -0.025368
   7 H :    0.020181
   8 H :    0.042347
   9 C :   -0.036138
  10 H :    0.021711
  11 H :    0.025034
  12 C :   -0.066290
  13 H :    0.013211
  14 H :    0.031502
  15 H :    0.029357
  16 S :    0.399746
  17 C :   -0.183499
  18 C :   -0.073417
  19 C :   -0.053988
  20 C :   -0.185285
  21 H :    0.029815
  22 C :   -0.031317
  23 H :    0.020402
  24 H :    0.035989
  25 C :   -0.032676
  26 H :    0.021599
  27 H :    0.025885
  28 C :   -0.060791
  29 H :    0.017961
  30 H :    0.025254
  31 H :    0.027358
  32 H :    0.027606
  33 H :    0.019032

  Mayer bond orders larger than 0.100000
B(  0-S ,  1-C ) :   1.1287 B(  0-S ,  4-C ) :   1.1208 B(  1-C ,  2-C ) :   1.6218
B(  1-C , 32-H ) :   0.9600 B(  2-C ,  3-C ) :   1.2191 B(  2-C ,  6-C ) :   1.0393
B(  3-C ,  4-C ) :   1.5781 B(  3-C ,  5-H ) :   0.9890 B(  4-C , 20-C ) :   1.0909
B(  6-C ,  7-H ) :   0.9411 B(  6-C ,  8-H ) :   0.9329 B(  6-C ,  9-C ) :   1.0454
B(  9-C , 10-H ) :   0.9598 B(  9-C , 11-H ) :   0.9538 B(  9-C , 12-C ) :   1.0897
B( 12-C , 13-H ) :   0.9722 B( 12-C , 14-H ) :   0.9718 B( 12-C , 15-H ) :   0.9735
B( 16-S , 17-C ) :   1.1605 B( 16-S , 20-C ) :   1.1128 B( 17-C , 18-C ) :   1.6246
B( 17-C , 33-H ) :   0.9669 B( 18-C , 19-C ) :   1.2355 B( 18-C , 21-H ) :   0.9909
B( 19-C , 20-C ) :   1.6153 B( 19-C , 22-C ) :   1.0376 B( 22-C , 23-H ) :   0.9356
B( 22-C , 24-H ) :   0.9194 B( 22-C , 25-C ) :   1.0655 B( 25-C , 26-H ) :   0.9475
B( 25-C , 27-H ) :   0.9585 B( 25-C , 28-C ) :   1.0825 B( 28-C , 29-H ) :   0.9737
B( 28-C , 30-H ) :   0.9709 B( 28-C , 31-H ) :   0.9779

Dispersion correction           -0.013239820
FINAL SINGLE POINT ENERGY     -1339.866648242815

DIPOLE MOMENT
-------------
                                X             Y             Z
Electronic contribution:    -11.93475      29.84591      -8.00323
Nuclear contribution   :     12.32908     -30.61299       7.80943
                        -----------------------------------------
Total Dipole Moment    :      0.39433      -0.76707      -0.19379
                        -----------------------------------------
Magnitude (a.u.)       :      0.88400
Magnitude (Debye)      :      2.24694

Rotational constants in cm-1:     0.016069     0.008929     0.005962
Rotational constants in MHz :   481.733388   267.685633   178.742212

                             ****ORCA TERMINATED NORMALLY****
TOTAL RUN TIME: 0 days 0 hours 0 minutes 21 seconds 71 msec
