                         Program Version 4.2.1 -  RELEASE  -
|  1> ! wB97X-D3 SP def2-SVP
|  2> %pal
|  3> nprocs 24
|  4> end
|  5>
|  6> * xyz 0 1
|  7> S 	 -143.676 	 10.5775 	 9.95537
|  8> C 	 -144.288 	 12.121 	 9.25128
|  9> C 	 -145.638 	 12.2635 	 9.52065
| 10> C 	 -146.134 	 11.0627 	 10.1277
| 11> C 	 -145.272 	 10.0538 	 10.4166
| 12> H 	 -147.141 	 10.8251 	 10.3853
| 13> C 	 -146.527 	 13.4765 	 9.25836
| 14> H 	 -145.921 	 14.3788 	 9.67852
| 15> H 	 -147.401 	 13.3711 	 9.88282
| 16> C 	 -146.821 	 13.6357 	 7.769
| 17> H 	 -145.923 	 13.5751 	 7.13925
| 18> H 	 -147.566 	 12.8578 	 7.55883
| 19> C 	 -147.528 	 14.9478 	 7.47694
| 20> H 	 -148.306 	 15.147 	 8.31804
| 21> H 	 -146.741 	 15.7561 	 7.43531
| 22> H 	 -148.087 	 14.8368 	 6.54245
| 23> S 	 -144.818 	 7.54401 	 9.88952
| 24> C 	 -145.021 	 6.37951 	 11.1225
| 25> C 	 -145.735 	 6.88546 	 12.1443
| 26> C 	 -145.998 	 8.30761 	 12.1137
| 27> C 	 -145.522 	 8.77827 	 10.9402
| 28> H 	 -145.899 	 6.1044 	 12.9154
| 29> C 	 -146.363 	 9.01321 	 13.3407
| 30> H 	 -146.363 	 8.28977 	 14.1944
| 31> H 	 -147.379 	 9.21507 	 13.2098
| 32> C 	 -145.709 	 10.2913 	 13.7484
| 33> H 	 -145.728 	 11.175 	 13.0793
| 34> H 	 -144.642 	 10.1293 	 13.7601
| 35> C 	 -146.115 	 10.7863 	 15.1556
| 36> H 	 -145.542 	 11.633 	 15.5597
| 37> H 	 -146.138 	 10.0562 	 15.9342
| 38> H 	 -147.193 	 11.1681 	 15.1987
| 39> H 	 -143.658 	 12.841 	 8.736
| 40> H 	 -144.856 	 5.30649 	 10.9772
| 41> *
| 42>
| 43>                          ****END OF INPUT****

CARTESIAN COORDINATES (ANGSTROEM)
---------------------------------
  S    -143.676000   10.577500    9.955370
  C    -144.288000   12.121000    9.251280
  C    -145.638000   12.263500    9.520650
  C    -146.134000   11.062700   10.127700
  C    -145.272000   10.053800   10.416600
  H    -147.141000   10.825100   10.385300
  C    -146.527000   13.476500    9.258360
  H    -145.921000   14.378800    9.678520
  H    -147.401000   13.371100    9.882820
  C    -146.821000   13.635700    7.769000
  H    -145.923000   13.575100    7.139250
  H    -147.566000   12.857800    7.558830
  C    -147.528000   14.947800    7.476940
  H    -148.306000   15.147000    8.318040
  H    -146.741000   15.756100    7.435310
  H    -148.087000   14.836800    6.542450
  S    -144.818000    7.544010    9.889520
  C    -145.021000    6.379510   11.122500
  C    -145.735000    6.885460   12.144300
  C    -145.998000    8.307610   12.113700
  C    -145.522000    8.778270   10.940200
  H    -145.899000    6.104400   12.915400
  C    -146.363000    9.013210   13.340700
  H    -146.363000    8.289770   14.194400
  H    -147.379000    9.215070   13.209800
  C    -145.709000   10.291300   13.748400
  H    -145.728000   11.175000   13.079300
  H    -144.642000   10.129300   13.760100
  C    -146.115000   10.786300   15.155600
  H    -145.542000   11.633000   15.559700
  H    -146.138000   10.056200   15.934200
  H    -147.193000   11.168100   15.198700
  H    -143.658000   12.841000    8.736000
  H    -144.856000    5.306490   10.977200

 Total Charge           Charge          ....    0
 Multiplicity           Mult            ....    1
 Number of Electrons    NEL             ....  134
 Basis Dimension        Dim             ....  322

ORBITAL ENERGIES
----------------

  NO   OCC          E(Eh)            E(eV)
   0   2.0000     -88.960073     -2420.7267
   1   2.0000     -88.957791     -2420.6646
   2   2.0000     -10.319593      -280.8104
   3   2.0000     -10.317817      -280.7621
   4   2.0000     -10.316719      -280.7322
   5   2.0000     -10.308991      -280.5219
   6   2.0000     -10.304797      -280.4078
   7   2.0000     -10.302196      -280.3370
   8   2.0000     -10.300142      -280.2811
   9   2.0000     -10.291104      -280.0352
  10   2.0000     -10.289001      -279.9779
  11   2.0000     -10.288357      -279.9604
  12   2.0000     -10.287557      -279.9387
  13   2.0000     -10.285470      -279.8819
  14   2.0000     -10.284743      -279.8621
  15   2.0000     -10.281504      -279.7739
  16   2.0000      -8.074242      -219.7113
  17   2.0000      -8.073903      -219.7021
  18   2.0000      -6.032869      -164.1627
  19   2.0000      -6.032403      -164.1500
  20   2.0000      -6.028769      -164.0512
  21   2.0000      -6.028253      -164.0371
  22   2.0000      -6.024921      -163.9464
  23   2.0000      -6.024505      -163.9351
  24   2.0000      -1.015896       -27.6439
  25   2.0000      -0.984028       -26.7768
  26   2.0000      -0.919259       -25.0143
  27   2.0000      -0.915217       -24.9043
  28   2.0000      -0.876103       -23.8400
  29   2.0000      -0.855500       -23.2793
  30   2.0000      -0.840946       -22.8833
  31   2.0000      -0.814577       -22.1658
  32   2.0000      -0.785605       -21.3774
  33   2.0000      -0.772012       -21.0075
  34   2.0000      -0.717136       -19.5143
  35   2.0000      -0.698593       -19.0097
  36   2.0000      -0.691385       -18.8136
  37   2.0000      -0.661863       -18.0102
  38   2.0000      -0.642125       -17.4731
  39   2.0000      -0.614048       -16.7091
  40   2.0000      -0.599463       -16.3122
  41   2.0000      -0.577461       -15.7135
  42   2.0000      -0.567607       -15.4454
  43   2.0000      -0.556139       -15.1333
  44   2.0000      -0.529870       -14.4185
  45   2.0000      -0.526693       -14.3320
  46   2.0000      -0.518493       -14.1089
  47   2.0000      -0.514232       -13.9930
  48   2.0000      -0.508066       -13.8252
  49   2.0000      -0.494400       -13.4533
  50   2.0000      -0.490413       -13.3448
  51   2.0000      -0.483508       -13.1569
  52   2.0000      -0.466397       -12.6913
  53   2.0000      -0.462071       -12.5736
  54   2.0000      -0.456888       -12.4326
  55   2.0000      -0.447995       -12.1906
  56   2.0000      -0.440698       -11.9920
  57   2.0000      -0.438555       -11.9337
  58   2.0000      -0.433260       -11.7896
  59   2.0000      -0.426213       -11.5978
  60   2.0000      -0.417302       -11.3554
  61   2.0000      -0.413201       -11.2438
  62   2.0000      -0.407380       -11.0854
  63   2.0000      -0.343613        -9.3502
  64   2.0000      -0.334026        -9.0893
  65   2.0000      -0.319277        -8.6880
  66   2.0000      -0.296789        -8.0760
  67   0.0000       0.032920         0.8958
  68   0.0000       0.072269         1.9665
  69   0.0000       0.110269         3.0006
  70   0.0000       0.120058         3.2669
  71   0.0000       0.136023         3.7014

MULLIKEN ATOMIC CHARGES
-----------------------
   0 S :    0.102491
   1 C :   -0.144574
   2 C :   -0.058351
   3 C :    0.036446
   4 C :   -0.156371
   5 H :   -0.014295
   6 C :    0.041829
   7 H :    0.044704
   8 H :    0.024639
   9 C :   -0.073603
  10 H :    0.041923
  11 H :    0.032273
  12 C :   -0.071462
  13 H :    0.038630
  14 H :    0.044428
  15 H :    0.042937
  16 S :    0.101481
  17 C :   -0.092235
  18 C :   -0.076563
  19 C :    0.036964
  20 C :   -0.210005
  21 H :    0.025660
  22 C :    0.113360
  23 H :    0.024839
  24 H :    0.012647
  25 C :   -0.060219
  26 H :    0.045317
  27 H :    0.024258
  28 C :   -0.067684
  29 H :    0.037795
  30 H :    0.016615
  31 H :    0.025587
  32 H :    0.048792
  33 H :    0.061744
Sum of atomic charges:   -0.0000000

LOEWDIN ATOMIC CHARGES
----------------------
   0 S :    0.383903
   1 C :   -0.181673
   2 C :   -0.062547
   3 C :   -0.069158
   4 C :   -0.206042
   5 H :    0.022595
   6 C :   -0.033885
   7 H :    0.040117
   8 H :    0.027996
   9 C :   -0.044995
  10 H :    0.027826
  11 H :    0.028908
  12 C :   -0.073424
  13 H :    0.032689
  14 H :    0.028813
  15 H :    0.026281
  16 S :    0.408013
  17 C :   -0.196940
  18 C :   -0.079472
  19 C :   -0.047288
  20 C :   -0.187487
  21 H :    0.036334
  22 C :   -0.033004
  23 H :    0.041883
  24 H :    0.031648
  25 C :   -0.045540
  26 H :    0.034546
  27 H :    0.025040
  28 C :   -0.070903
  29 H :    0.029907
  30 H :    0.015902
  31 H :    0.028815
  32 H :    0.027166
  33 H :    0.033974

  Mayer bond orders larger than 0.100000
B(  0-S ,  1-C ) :   1.1301 B(  0-S ,  4-C ) :   1.1273 B(  1-C ,  2-C ) :   1.6077
B(  1-C , 32-H ) :   0.9727 B(  2-C ,  3-C ) :   1.2233 B(  2-C ,  6-C ) :   1.0065
B(  3-C ,  4-C ) :   1.6116 B(  3-C ,  5-H ) :   0.9976 B(  4-C , 20-C ) :   1.0556
B(  6-C ,  7-H ) :   0.9444 B(  6-C ,  8-H ) :   0.9383 B(  6-C ,  9-C ) :   1.0666
B(  9-C , 10-H ) :   0.9609 B(  9-C , 11-H ) :   0.9519 B(  9-C , 12-C ) :   1.0802
B( 12-C , 13-H ) :   0.9705 B( 12-C , 14-H ) :   0.9763 B( 12-C , 15-H ) :   0.9754
B( 16-S , 17-C ) :   1.1330 B( 16-S , 20-C ) :   1.1368 B( 17-C , 18-C ) :   1.6851
B( 17-C , 33-H ) :   0.9594 B( 18-C , 19-C ) :   1.1729 B( 18-C , 21-H ) :   0.9793
B( 19-C , 20-C ) :   1.6251 B( 19-C , 22-C ) :   1.0505 B( 22-C , 23-H ) :   0.9342
B( 22-C , 24-H ) :   0.8949 B( 22-C , 25-C ) :   1.0653 B( 25-C , 26-H ) :   0.9445
B( 25-C , 27-H ) :   0.9531 B( 25-C , 28-C ) :   1.0815 B( 28-C , 29-H ) :   0.9752
B( 28-C , 30-H ) :   0.9754 B( 28-C , 31-H ) :   0.9740

Dispersion correction           -0.014140767
FINAL SINGLE POINT ENERGY     -1339.859225071973

DIPOLE MOMENT
-------------
                                X             Y             Z
Electronic contribution:     13.94179     -20.63537      -7.90164
Nuclear contribution   :    -14.37213      20.85314       8.18934
                        -----------------------------------------
Total Dipole Moment    :     -0.43034       0.21777       0.28770
                        -----------------------------------------
Magnitude (a.u.)       :      0.56159
Magnitude (Debye)      :      1.42746

Rotational constants in cm-1:     0.019511     0.008119     0.006650
Rotational constants in MHz :   584.918019   243.416255   199.363014

                             ****ORCA TERMINATED NORMALLY****
TOTAL RUN TIME: 0 days 0 hours 0 minutes 21 seconds 337 msec
