                         Program Version 4.2.1 -  RELEASE  -
|  1> ! wB97X-D3 SP def2-SVP
|  2> %pal
|  3> nprocs 24
|  4> end
|  5>
|  6> * xyz 0 1
|  7> S 	 -115.949 	 46.0875 	 -112.677
|  8> C 	 -116.762 	 44.5585 	 -112.945
|  9> C 	 -116.228 	 43.5563 	 -112.123
| 10> C 	 -115.058 	 44.0477 	 -111.334
| 11> C 	 -114.674 	 45.3394 	 -111.696
| 12> H 	 -114.514 	 43.4188 	 -110.637
| 13> C 	 -116.74 	 42.1448 	 -112.007
| 14> H 	 -115.832 	 41.5721 	 -111.718
| 15> H 	 -117.001 	 41.81 	 -113.042
| 16> C 	 -118.012 	 41.8782 	 -111.205
| 17> H 	 -118.008 	 42.5572 	 -110.311
| 18> H 	 -118.855 	 42.2166 	 -111.821
| 19> C 	 -118.187 	 40.3753 	 -110.878
| 20> H 	 -118.142 	 39.6028 	 -111.665
| 21> H 	 -117.672 	 40.0507 	 -109.996
| 22> H 	 -119.286 	 40.1687 	 -110.697
| 23> S 	 -113.999 	 47.4297 	 -110.237
| 24> C 	 -112.475 	 47.4511 	 -109.459
| 25> C 	 -111.512 	 46.647 	 -110.037
| 26> C 	 -112.23 	 45.7189 	 -110.899
| 27> C 	 -113.538 	 46.0477 	 -111.129
| 28> H 	 -110.438 	 46.7345 	 -109.816
| 29> C 	 -111.464 	 44.587 	 -111.521
| 30> H 	 -112.106 	 43.6705 	 -111.465
| 31> H 	 -110.618 	 44.3287 	 -110.879
| 32> C 	 -110.939 	 44.671 	 -112.944
| 33> H 	 -109.949 	 44.0778 	 -112.96
| 34> H 	 -110.675 	 45.6564 	 -113.267
| 35> C 	 -111.949 	 44.1801 	 -114.023
| 36> H 	 -112.247 	 43.1463 	 -113.82
| 37> H 	 -111.525 	 44.2888 	 -115.046
| 38> H 	 -112.814 	 44.7863 	 -113.949
| 39> H 	 -117.445 	 44.3706 	 -113.763
| 40> H 	 -112.196 	 48.2755 	 -108.798
| 41> *
| 42>
| 43>                          ****END OF INPUT****

CARTESIAN COORDINATES (ANGSTROEM)
---------------------------------
  S    -115.949000   46.087500  -112.677000
  C    -116.762000   44.558500  -112.945000
  C    -116.228000   43.556300  -112.123000
  C    -115.058000   44.047700  -111.334000
  C    -114.674000   45.339400  -111.696000
  H    -114.514000   43.418800  -110.637000
  C    -116.740000   42.144800  -112.007000
  H    -115.832000   41.572100  -111.718000
  H    -117.001000   41.810000  -113.042000
  C    -118.012000   41.878200  -111.205000
  H    -118.008000   42.557200  -110.311000
  H    -118.855000   42.216600  -111.821000
  C    -118.187000   40.375300  -110.878000
  H    -118.142000   39.602800  -111.665000
  H    -117.672000   40.050700  -109.996000
  H    -119.286000   40.168700  -110.697000
  S    -113.999000   47.429700  -110.237000
  C    -112.475000   47.451100  -109.459000
  C    -111.512000   46.647000  -110.037000
  C    -112.230000   45.718900  -110.899000
  C    -113.538000   46.047700  -111.129000
  H    -110.438000   46.734500  -109.816000
  C    -111.464000   44.587000  -111.521000
  H    -112.106000   43.670500  -111.465000
  H    -110.618000   44.328700  -110.879000
  C    -110.939000   44.671000  -112.944000
  H    -109.949000   44.077800  -112.960000
  H    -110.675000   45.656400  -113.267000
  C    -111.949000   44.180100  -114.023000
  H    -112.247000   43.146300  -113.820000
  H    -111.525000   44.288800  -115.046000
  H    -112.814000   44.786300  -113.949000
  H    -117.445000   44.370600  -113.763000
  H    -112.196000   48.275500  -108.798000

 Total Charge           Charge          ....    0
 Multiplicity           Mult            ....    1
 Number of Electrons    NEL             ....  134
 Basis Dimension        Dim             ....  322

ORBITAL ENERGIES
----------------

  NO   OCC          E(Eh)            E(eV)
   0   2.0000     -88.966679     -2420.9064
   1   2.0000     -88.963480     -2420.8194
   2   2.0000     -10.334989      -281.2293
   3   2.0000     -10.320806      -280.8434
   4   2.0000     -10.316049      -280.7140
   5   2.0000     -10.315113      -280.6885
   6   2.0000     -10.307400      -280.4786
   7   2.0000     -10.304672      -280.4044
   8   2.0000     -10.300457      -280.2897
   9   2.0000     -10.299858      -280.2734
  10   2.0000     -10.295641      -280.1586
  11   2.0000     -10.294161      -280.1183
  12   2.0000     -10.288405      -279.9617
  13   2.0000     -10.285887      -279.8932
  14   2.0000     -10.284800      -279.8636
  15   2.0000     -10.270761      -279.4816
  16   2.0000      -8.080880      -219.8919
  17   2.0000      -8.080310      -219.8764
  18   2.0000      -6.039628      -164.3466
  19   2.0000      -6.038688      -164.3210
  20   2.0000      -6.035473      -164.2336
  21   2.0000      -6.034652      -164.2112
  22   2.0000      -6.031425      -164.1234
  23   2.0000      -6.030928      -164.1099
  24   2.0000      -1.013597       -27.5814
  25   2.0000      -0.980129       -26.6707
  26   2.0000      -0.908897       -24.7323
  27   2.0000      -0.906488       -24.6668
  28   2.0000      -0.871295       -23.7091
  29   2.0000      -0.849011       -23.1028
  30   2.0000      -0.842593       -22.9281
  31   2.0000      -0.812872       -22.1194
  32   2.0000      -0.779438       -21.2096
  33   2.0000      -0.770213       -20.9586
  34   2.0000      -0.704111       -19.1598
  35   2.0000      -0.701989       -19.1021
  36   2.0000      -0.687071       -18.6961
  37   2.0000      -0.666650       -18.1405
  38   2.0000      -0.637654       -17.3515
  39   2.0000      -0.615743       -16.7552
  40   2.0000      -0.597457       -16.2576
  41   2.0000      -0.564878       -15.3711
  42   2.0000      -0.562965       -15.3190
  43   2.0000      -0.544955       -14.8290
  44   2.0000      -0.532067       -14.4783
  45   2.0000      -0.524526       -14.2731
  46   2.0000      -0.512479       -13.9453
  47   2.0000      -0.507775       -13.8173
  48   2.0000      -0.504913       -13.7394
  49   2.0000      -0.500724       -13.6254
  50   2.0000      -0.495059       -13.4713
  51   2.0000      -0.479738       -13.0543
  52   2.0000      -0.469331       -12.7711
  53   2.0000      -0.465019       -12.6538
  54   2.0000      -0.456692       -12.4272
  55   2.0000      -0.452291       -12.3075
  56   2.0000      -0.441895       -12.0246
  57   2.0000      -0.438231       -11.9249
  58   2.0000      -0.428455       -11.6589
  59   2.0000      -0.420557       -11.4439
  60   2.0000      -0.412116       -11.2142
  61   2.0000      -0.409934       -11.1549
  62   2.0000      -0.408192       -11.1075
  63   2.0000      -0.350978        -9.5506
  64   2.0000      -0.329090        -8.9550
  65   2.0000      -0.323529        -8.8037
  66   2.0000      -0.291382        -7.9289
  67   0.0000       0.033097         0.9006
  68   0.0000       0.060236         1.6391
  69   0.0000       0.106785         2.9058
  70   0.0000       0.110179         2.9981
  71   0.0000       0.131074         3.5667

MULLIKEN ATOMIC CHARGES
-----------------------
   0 S :    0.095709
   1 C :   -0.113008
   2 C :   -0.112822
   3 C :    0.033723
   4 C :   -0.143265
   5 H :    0.023301
   6 C :    0.029493
   7 H :    0.029941
   8 H :    0.028320
   9 C :   -0.048232
  10 H :    0.044439
  11 H :    0.029260
  12 C :   -0.065455
  13 H :    0.031519
  14 H :    0.042253
  15 H :    0.024434
  16 S :    0.112290
  17 C :   -0.095440
  18 C :   -0.034118
  19 C :   -0.082533
  20 C :   -0.110739
  21 H :    0.040944
  22 C :    0.054839
  23 H :    0.017000
  24 H :    0.015216
  25 C :   -0.065682
  26 H :    0.032368
  27 H :    0.019290
  28 C :   -0.049740
  29 H :    0.028041
  30 H :    0.039253
  31 H :    0.035411
  32 H :    0.055866
  33 H :    0.058125
Sum of atomic charges:    0.0000000

LOEWDIN ATOMIC CHARGES
----------------------
   0 S :    0.383808
   1 C :   -0.202070
   2 C :   -0.057595
   3 C :   -0.062031
   4 C :   -0.187094
   5 H :    0.029811
   6 C :   -0.046615
   7 H :    0.031624
   8 H :    0.035515
   9 C :   -0.039871
  10 H :    0.032437
  11 H :    0.026968
  12 C :   -0.078684
  13 H :    0.030355
  14 H :    0.023789
  15 H :    0.034630
  16 S :    0.438525
  17 C :   -0.191813
  18 C :   -0.067356
  19 C :   -0.054746
  20 C :   -0.216618
  21 H :    0.041747
  22 C :   -0.043407
  23 H :    0.033915
  24 H :    0.030528
  25 C :   -0.041275
  26 H :    0.030217
  27 H :    0.018372
  28 C :   -0.062013
  29 H :    0.021701
  30 H :    0.029524
  31 H :    0.021351
  32 H :    0.030358
  33 H :    0.026012

  Mayer bond orders larger than 0.100000
B(  0-S ,  1-C ) :   1.1187 B(  0-S ,  4-C ) :   1.1333 B(  1-C ,  2-C ) :   1.6251
B(  1-C , 32-H ) :   0.9689 B(  2-C ,  3-C ) :   1.2105 B(  2-C ,  6-C ) :   1.0333
B(  3-C ,  4-C ) :   1.5885 B(  3-C ,  5-H ) :   0.9872 B(  4-C , 20-C ) :   1.0136
B(  6-C ,  7-H ) :   0.9475 B(  6-C ,  8-H ) :   0.9375 B(  6-C ,  9-C ) :   1.0490
B(  9-C , 10-H ) :   0.9595 B(  9-C , 11-H ) :   0.9551 B(  9-C , 12-C ) :   1.0713
B( 12-C , 13-H ) :   0.9730 B( 12-C , 14-H ) :   0.9794 B( 12-C , 15-H ) :   0.9710
B( 16-S , 17-C ) :   1.1846 B( 16-S , 20-C ) :   1.1332 B( 17-C , 18-C ) :   1.6101
B( 17-C , 33-H ) :   0.9600 B( 18-C , 19-C ) :   1.2147 B( 18-C , 21-H ) :   0.9898
B( 19-C , 20-C ) :   1.6300 B( 19-C , 22-C ) :   1.0615 B( 22-C , 23-H ) :   0.9302
B( 22-C , 24-H ) :   0.9308 B( 22-C , 25-C ) :   1.0596 B( 25-C , 26-H ) :   0.9565
B( 25-C , 27-H ) :   0.9575 B( 25-C , 28-C ) :   1.0764 B( 28-C , 29-H ) :   0.9762
B( 28-C , 30-H ) :   0.9740 B( 28-C , 31-H ) :   0.9751

Dispersion correction           -0.014584542
FINAL SINGLE POINT ENERGY     -1339.862782737674

DIPOLE MOMENT
-------------
                                X             Y             Z
Electronic contribution:     -0.72485      25.52844       5.08034
Nuclear contribution   :      0.92085     -26.05462      -5.00753
                        -----------------------------------------
Total Dipole Moment    :      0.19600      -0.52618       0.07280
                        -----------------------------------------
Magnitude (a.u.)       :      0.56620
Magnitude (Debye)      :      1.43916

Rotational constants in cm-1:     0.019793     0.007895     0.007051
Rotational constants in MHz :   593.376266   236.671658   211.390552

                             ****ORCA TERMINATED NORMALLY****
TOTAL RUN TIME: 0 days 0 hours 0 minutes 21 seconds 663 msec
