                         Program Version 4.2.1 -  RELEASE  -
|  1> ! wB97X-D3 SP def2-SVP
|  2> %pal
|  3> nprocs 24
|  4> end
|  5>
|  6> * xyz 0 1
|  7> S 	 -37.3391 	 -45.9195 	 -73.1177
|  8> C 	 -38.4242 	 -44.8633 	 -73.9938
|  9> C 	 -37.8121 	 -44.3592 	 -75.1783
| 10> C 	 -36.4189 	 -44.753 	 -75.1534
| 11> C 	 -35.9639 	 -45.4762 	 -74.0527
| 12> H 	 -35.7709 	 -44.4694 	 -75.9899
| 13> C 	 -38.3671 	 -43.4288 	 -76.1659
| 14> H 	 -38.9116 	 -42.6594 	 -75.7624
| 15> H 	 -39.1398 	 -43.9984 	 -76.6735
| 16> C 	 -37.3829 	 -42.7884 	 -77.2096
| 17> H 	 -36.7557 	 -43.4633 	 -77.8278
| 18> H 	 -38.0846 	 -42.3875 	 -77.9486
| 19> C 	 -36.5116 	 -41.6954 	 -76.6698
| 20> H 	 -35.8473 	 -41.333 	 -77.4504
| 21> H 	 -37.1626 	 -40.8561 	 -76.3449
| 22> H 	 -35.8902 	 -41.9963 	 -75.768
| 23> S 	 -33.7131 	 -46.3942 	 -75.2259
| 24> C 	 -32.5048 	 -47.2607 	 -74.312
| 25> C 	 -32.7366 	 -47.1275 	 -72.9339
| 26> C 	 -33.9221 	 -46.3149 	 -72.6375
| 27> C 	 -34.6794 	 -46.0331 	 -73.7711
| 28> H 	 -32.0733 	 -47.3523 	 -72.1692
| 29> C 	 -34.282 	 -45.9778 	 -71.2077
| 30> H 	 -34.9347 	 -45.1659 	 -71.1334
| 31> H 	 -33.3805 	 -45.6047 	 -70.7159
| 32> C 	 -34.9931 	 -47.0636 	 -70.4265
| 33> H 	 -34.3119 	 -47.8308 	 -70.1951
| 34> H 	 -35.8091 	 -47.356 	 -71.0167
| 35> C 	 -35.6487 	 -46.5487 	 -69.1089
| 36> H 	 -34.9819 	 -46.1379 	 -68.2904
| 37> H 	 -36.2232 	 -47.3248 	 -68.752
| 38> H 	 -36.3904 	 -45.8263 	 -69.3461
| 39> H 	 -39.3535 	 -44.5339 	 -73.6933
| 40> H 	 -31.6642 	 -47.7469 	 -74.7523
| 41> *
| 42>
| 43>                          ****END OF INPUT****

CARTESIAN COORDINATES (ANGSTROEM)
---------------------------------
  S    -37.339100  -45.919500  -73.117700
  C    -38.424200  -44.863300  -73.993800
  C    -37.812100  -44.359200  -75.178300
  C    -36.418900  -44.753000  -75.153400
  C    -35.963900  -45.476200  -74.052700
  H    -35.770900  -44.469400  -75.989900
  C    -38.367100  -43.428800  -76.165900
  H    -38.911600  -42.659400  -75.762400
  H    -39.139800  -43.998400  -76.673500
  C    -37.382900  -42.788400  -77.209600
  H    -36.755700  -43.463300  -77.827800
  H    -38.084600  -42.387500  -77.948600
  C    -36.511600  -41.695400  -76.669800
  H    -35.847300  -41.333000  -77.450400
  H    -37.162600  -40.856100  -76.344900
  H    -35.890200  -41.996300  -75.768000
  S    -33.713100  -46.394200  -75.225900
  C    -32.504800  -47.260700  -74.312000
  C    -32.736600  -47.127500  -72.933900
  C    -33.922100  -46.314900  -72.637500
  C    -34.679400  -46.033100  -73.771100
  H    -32.073300  -47.352300  -72.169200
  C    -34.282000  -45.977800  -71.207700
  H    -34.934700  -45.165900  -71.133400
  H    -33.380500  -45.604700  -70.715900
  C    -34.993100  -47.063600  -70.426500
  H    -34.311900  -47.830800  -70.195100
  H    -35.809100  -47.356000  -71.016700
  C    -35.648700  -46.548700  -69.108900
  H    -34.981900  -46.137900  -68.290400
  H    -36.223200  -47.324800  -68.752000
  H    -36.390400  -45.826300  -69.346100
  H    -39.353500  -44.533900  -73.693300
  H    -31.664200  -47.746900  -74.752300

 Total Charge           Charge          ....    0
 Multiplicity           Mult            ....    1
 Number of Electrons    NEL             ....  134
 Basis Dimension        Dim             ....  322

ORBITAL ENERGIES
----------------

  NO   OCC          E(Eh)            E(eV)
   0   2.0000     -88.967808     -2420.9371
   1   2.0000     -88.962821     -2420.8014
   2   2.0000     -10.329017      -281.0668
   3   2.0000     -10.328414      -281.0504
   4   2.0000     -10.322342      -280.8852
   5   2.0000     -10.309420      -280.5336
   6   2.0000     -10.308301      -280.5031
   7   2.0000     -10.304761      -280.4068
   8   2.0000     -10.295638      -280.1586
   9   2.0000     -10.293636      -280.1041
  10   2.0000     -10.292254      -280.0665
  11   2.0000     -10.289077      -279.9800
  12   2.0000     -10.281213      -279.7660
  13   2.0000     -10.280994      -279.7601
  14   2.0000     -10.275377      -279.6072
  15   2.0000     -10.269759      -279.4543
  16   2.0000      -8.082227      -219.9286
  17   2.0000      -8.077292      -219.7943
  18   2.0000      -6.040841      -164.3796
  19   2.0000      -6.036629      -164.2650
  20   2.0000      -6.035932      -164.2461
  21   2.0000      -6.033083      -164.1685
  22   2.0000      -6.031828      -164.1344
  23   2.0000      -6.027951      -164.0289
  24   2.0000      -1.005403       -27.3584
  25   2.0000      -0.979210       -26.6456
  26   2.0000      -0.918117       -24.9832
  27   2.0000      -0.911868       -24.8132
  28   2.0000      -0.871646       -23.7187
  29   2.0000      -0.849993       -23.1295
  30   2.0000      -0.844666       -22.9845
  31   2.0000      -0.811499       -22.0820
  32   2.0000      -0.788844       -21.4655
  33   2.0000      -0.774559       -21.0768
  34   2.0000      -0.710982       -19.3468
  35   2.0000      -0.700397       -19.0588
  36   2.0000      -0.692678       -18.8487
  37   2.0000      -0.674666       -18.3586
  38   2.0000      -0.632962       -17.2238
  39   2.0000      -0.626131       -17.0379
  40   2.0000      -0.602698       -16.4003
  41   2.0000      -0.574732       -15.6393
  42   2.0000      -0.572776       -15.5860
  43   2.0000      -0.557977       -15.1833
  44   2.0000      -0.530108       -14.4250
  45   2.0000      -0.524307       -14.2671
  46   2.0000      -0.521115       -14.1803
  47   2.0000      -0.516676       -14.0595
  48   2.0000      -0.505116       -13.7449
  49   2.0000      -0.496923       -13.5220
  50   2.0000      -0.494350       -13.4520
  51   2.0000      -0.484636       -13.1876
  52   2.0000      -0.474211       -12.9039
  53   2.0000      -0.463659       -12.6168
  54   2.0000      -0.459397       -12.5008
  55   2.0000      -0.448682       -12.2093
  56   2.0000      -0.442726       -12.0472
  57   2.0000      -0.436701       -11.8832
  58   2.0000      -0.430934       -11.7263
  59   2.0000      -0.427070       -11.6212
  60   2.0000      -0.423486       -11.5236
  61   2.0000      -0.413873       -11.2620
  62   2.0000      -0.410935       -11.1821
  63   2.0000      -0.351392        -9.5619
  64   2.0000      -0.327628        -8.9152
  65   2.0000      -0.324791        -8.8380
  66   2.0000      -0.282090        -7.6761
  67   0.0000       0.017796         0.4842
  68   0.0000       0.075441         2.0528
  69   0.0000       0.099598         2.7102
  70   0.0000       0.116769         3.1775
  71   0.0000       0.138164         3.7596

MULLIKEN ATOMIC CHARGES
-----------------------
   0 S :    0.106163
   1 C :   -0.087245
   2 C :   -0.101213
   3 C :   -0.018066
   4 C :   -0.108293
   5 H :    0.017482
   6 C :    0.107193
   7 H :    0.006865
   8 H :    0.034573
   9 C :   -0.107840
  10 H :    0.036438
  11 H :    0.026343
  12 C :   -0.063939
  13 H :    0.039727
  14 H :    0.030210
  15 H :    0.055722
  16 S :    0.085653
  17 C :   -0.069899
  18 C :    0.008575
  19 C :   -0.072116
  20 C :   -0.131626
  21 H :   -0.001588
  22 C :    0.081716
  23 H :   -0.008068
  24 H :    0.020854
  25 C :   -0.034802
  26 H :    0.019455
  27 H :    0.016648
  28 C :   -0.031554
  29 H :    0.043742
  30 H :    0.013004
  31 H :    0.016933
  32 H :    0.011192
  33 H :    0.057761
Sum of atomic charges:    0.0000000

LOEWDIN ATOMIC CHARGES
----------------------
   0 S :    0.430862
   1 C :   -0.197278
   2 C :   -0.048941
   3 C :   -0.078085
   4 C :   -0.206224
   5 H :    0.025266
   6 C :   -0.029643
   7 H :    0.024428
   8 H :    0.042075
   9 C :   -0.047241
  10 H :    0.025471
  11 H :    0.029273
  12 C :   -0.073482
  13 H :    0.027890
  14 H :    0.026754
  15 H :    0.034402
  16 S :    0.396606
  17 C :   -0.172599
  18 C :   -0.061333
  19 C :   -0.044958
  20 C :   -0.188311
  21 H :    0.018931
  22 C :   -0.035434
  23 H :    0.018490
  24 H :    0.032087
  25 C :   -0.022769
  26 H :    0.015752
  27 H :    0.014903
  28 C :   -0.061155
  29 H :    0.031404
  30 H :    0.017075
  31 H :    0.020592
  32 H :    0.009055
  33 H :    0.026136

  Mayer bond orders larger than 0.100000
B(  0-S ,  1-C ) :   1.1471 B(  0-S ,  4-C ) :   1.1582 B(  1-C ,  2-C ) :   1.5624
B(  1-C ,  4-C ) :   0.1066 B(  1-C , 32-H ) :   0.9804 B(  2-C ,  3-C ) :   1.3053
B(  2-C ,  6-C ) :   1.0218 B(  3-C ,  4-C ) :   1.5126 B(  3-C ,  5-H ) :   0.9739
B(  4-C , 20-C ) :   1.0926 B(  6-C ,  7-H ) :   0.9327 B(  6-C ,  8-H ) :   0.9174
B(  6-C ,  9-C ) :   1.0835 B(  9-C , 10-H ) :   0.9548 B(  9-C , 11-H ) :   0.9486
B(  9-C , 12-C ) :   1.0768 B( 12-C , 13-H ) :   0.9722 B( 12-C , 14-H ) :   0.9714
B( 12-C , 15-H ) :   0.9733 B( 16-S , 17-C ) :   1.1618 B( 16-S , 20-C ) :   1.1143
B( 17-C , 18-C ) :   1.5879 B( 17-C , 33-H ) :   0.9739 B( 18-C , 19-C ) :   1.2338
B( 18-C , 21-H ) :   0.9933 B( 19-C , 20-C ) :   1.5728 B( 19-C , 22-C ) :   1.0684
B( 22-C , 23-H ) :   0.9282 B( 22-C , 24-H ) :   0.9243 B( 22-C , 25-C ) :   1.0691
B( 25-C , 26-H ) :   0.9567 B( 25-C , 27-H ) :   0.9468 B( 25-C , 28-C ) :   1.0927
B( 28-C , 29-H ) :   0.9762 B( 28-C , 30-H ) :   0.9712 B( 28-C , 31-H ) :   0.9688

Dispersion correction           -0.014410050
FINAL SINGLE POINT ENERGY     -1339.858842962842

DIPOLE MOMENT
-------------
                                X             Y             Z
Electronic contribution:      4.37248     -11.13072      -5.31277
Nuclear contribution   :     -4.43868      11.47547       5.29580
                        -----------------------------------------
Total Dipole Moment    :     -0.06620       0.34475      -0.01697
                        -----------------------------------------
Magnitude (a.u.)       :      0.35146
Magnitude (Debye)      :      0.89335

Rotational constants in cm-1:     0.019593     0.008949     0.006796
Rotational constants in MHz :   587.373029   268.290942   203.732331

                             ****ORCA TERMINATED NORMALLY****
TOTAL RUN TIME: 0 days 0 hours 0 minutes 20 seconds 390 msec
