                         Program Version 4.2.1 -  RELEASE  -
|  1> ! wB97X-D3 SP def2-SVP
|  2> %pal
|  3> nprocs 24
|  4> end
|  5>
|  6> * xyz 0 1
|  7> S 	 -41.6676 	 -50.0096 	 -74.5406
|  8> C 	 -41.6912 	 -48.3012 	 -74.5573
|  9> C 	 -40.632 	 -47.7388 	 -73.908
| 10> C 	 -39.9637 	 -48.7177 	 -73.1563
| 11> C 	 -40.4271 	 -50.0089 	 -73.318
| 12> H 	 -39.1378 	 -48.5038 	 -72.4724
| 13> C 	 -40.4311 	 -46.2605 	 -73.6981
| 14> H 	 -39.9568 	 -45.9928 	 -72.7271
| 15> H 	 -41.4123 	 -45.761 	 -73.842
| 16> C 	 -39.6434 	 -45.5729 	 -74.8295
| 17> H 	 -40.1489 	 -45.8003 	 -75.7245
| 18> H 	 -39.7225 	 -44.5065 	 -74.8013
| 19> C 	 -38.171 	 -45.9634 	 -74.8433
| 20> H 	 -37.6993 	 -45.8869 	 -73.8389
| 21> H 	 -38.0241 	 -46.9372 	 -75.2416
| 22> H 	 -37.5364 	 -45.3656 	 -75.5061
| 23> S 	 -41.039 	 -52.3932 	 -72.1188
| 24> C 	 -39.907 	 -53.6687 	 -72.1279
| 25> C 	 -38.7281 	 -53.3403 	 -72.7891
| 26> C 	 -38.7035 	 -51.9309 	 -73.1822
| 27> C 	 -39.8684 	 -51.3069 	 -72.849
| 28> H 	 -37.9628 	 -54.0682 	 -72.9907
| 29> C 	 -37.5669 	 -51.3379 	 -73.8782
| 30> H 	 -38.0627 	 -50.6419 	 -74.6263
| 31> H 	 -36.995 	 -52.1164 	 -74.3601
| 32> C 	 -36.5899 	 -50.5223 	 -72.9963
| 33> H 	 -36.2862 	 -51.211 	 -72.1918
| 34> H 	 -37.1896 	 -49.6998 	 -72.6088
| 35> C 	 -35.3528 	 -50.1522 	 -73.8038
| 36> H 	 -34.833 	 -50.9616 	 -74.2767
| 37> H 	 -34.6175 	 -49.6654 	 -73.191
| 38> H 	 -35.5501 	 -49.4178 	 -74.5272
| 39> H 	 -42.235 	 -47.7151 	 -75.2679
| 40> H 	 -40.1578 	 -54.6639 	 -71.8758
| 41> *
| 42>
| 43>                          ****END OF INPUT****

CARTESIAN COORDINATES (ANGSTROEM)
---------------------------------
  S    -41.667600  -50.009600  -74.540600
  C    -41.691200  -48.301200  -74.557300
  C    -40.632000  -47.738800  -73.908000
  C    -39.963700  -48.717700  -73.156300
  C    -40.427100  -50.008900  -73.318000
  H    -39.137800  -48.503800  -72.472400
  C    -40.431100  -46.260500  -73.698100
  H    -39.956800  -45.992800  -72.727100
  H    -41.412300  -45.761000  -73.842000
  C    -39.643400  -45.572900  -74.829500
  H    -40.148900  -45.800300  -75.724500
  H    -39.722500  -44.506500  -74.801300
  C    -38.171000  -45.963400  -74.843300
  H    -37.699300  -45.886900  -73.838900
  H    -38.024100  -46.937200  -75.241600
  H    -37.536400  -45.365600  -75.506100
  S    -41.039000  -52.393200  -72.118800
  C    -39.907000  -53.668700  -72.127900
  C    -38.728100  -53.340300  -72.789100
  C    -38.703500  -51.930900  -73.182200
  C    -39.868400  -51.306900  -72.849000
  H    -37.962800  -54.068200  -72.990700
  C    -37.566900  -51.337900  -73.878200
  H    -38.062700  -50.641900  -74.626300
  H    -36.995000  -52.116400  -74.360100
  C    -36.589900  -50.522300  -72.996300
  H    -36.286200  -51.211000  -72.191800
  H    -37.189600  -49.699800  -72.608800
  C    -35.352800  -50.152200  -73.803800
  H    -34.833000  -50.961600  -74.276700
  H    -34.617500  -49.665400  -73.191000
  H    -35.550100  -49.417800  -74.527200
  H    -42.235000  -47.715100  -75.267900
  H    -40.157800  -54.663900  -71.875800

 Total Charge           Charge          ....    0
 Multiplicity           Mult            ....    1
 Number of Electrons    NEL             ....  134
 Basis Dimension        Dim             ....  322

ORBITAL ENERGIES
----------------

  NO   OCC          E(Eh)            E(eV)
   0   2.0000     -88.966379     -2420.8982
   1   2.0000     -88.962794     -2420.8007
   2   2.0000     -10.327854      -281.0352
   3   2.0000     -10.321909      -280.8734
   4   2.0000     -10.312343      -280.6131
   5   2.0000     -10.306932      -280.4659
   6   2.0000     -10.299428      -280.2617
   7   2.0000     -10.296368      -280.1784
   8   2.0000     -10.294974      -280.1405
   9   2.0000     -10.294551      -280.1290
  10   2.0000     -10.292073      -280.0615
  11   2.0000     -10.288074      -279.9527
  12   2.0000     -10.286716      -279.9158
  13   2.0000     -10.280125      -279.7364
  14   2.0000     -10.274998      -279.5969
  15   2.0000     -10.269943      -279.4593
  16   2.0000      -8.081935      -219.9206
  17   2.0000      -8.078478      -219.8266
  18   2.0000      -6.040235      -164.3631
  19   2.0000      -6.036897      -164.2723
  20   2.0000      -6.036328      -164.2568
  21   2.0000      -6.032870      -164.1627
  22   2.0000      -6.032822      -164.1614
  23   2.0000      -6.029322      -164.0662
  24   2.0000      -1.012828       -27.5604
  25   2.0000      -0.991153       -26.9706
  26   2.0000      -0.915155       -24.9026
  27   2.0000      -0.914862       -24.8947
  28   2.0000      -0.867611       -23.6089
  29   2.0000      -0.855870       -23.2894
  30   2.0000      -0.848471       -23.0881
  31   2.0000      -0.815290       -22.1852
  32   2.0000      -0.785229       -21.3672
  33   2.0000      -0.774128       -21.0651
  34   2.0000      -0.706885       -19.2353
  35   2.0000      -0.705768       -19.2049
  36   2.0000      -0.691940       -18.8287
  37   2.0000      -0.667626       -18.1670
  38   2.0000      -0.641970       -17.4689
  39   2.0000      -0.617052       -16.7908
  40   2.0000      -0.592747       -16.1295
  41   2.0000      -0.578785       -15.7495
  42   2.0000      -0.574097       -15.6220
  43   2.0000      -0.548341       -14.9211
  44   2.0000      -0.544326       -14.8119
  45   2.0000      -0.520435       -14.1618
  46   2.0000      -0.517532       -14.0828
  47   2.0000      -0.514238       -13.9931
  48   2.0000      -0.505789       -13.7632
  49   2.0000      -0.493738       -13.4353
  50   2.0000      -0.491851       -13.3839
  51   2.0000      -0.483548       -13.1580
  52   2.0000      -0.470607       -12.8059
  53   2.0000      -0.465124       -12.6567
  54   2.0000      -0.461767       -12.5653
  55   2.0000      -0.456780       -12.4296
  56   2.0000      -0.442318       -12.0361
  57   2.0000      -0.436712       -11.8835
  58   2.0000      -0.428806       -11.6684
  59   2.0000      -0.427835       -11.6420
  60   2.0000      -0.424988       -11.5645
  61   2.0000      -0.422123       -11.4865
  62   2.0000      -0.418408       -11.3854
  63   2.0000      -0.338991        -9.2244
  64   2.0000      -0.334522        -9.1028
  65   2.0000      -0.325107        -8.8466
  66   2.0000      -0.300758        -8.1840
  67   0.0000       0.037665         1.0249
  68   0.0000       0.063717         1.7338
  69   0.0000       0.116509         3.1704
  70   0.0000       0.121063         3.2943
  71   0.0000       0.126302         3.4369

MULLIKEN ATOMIC CHARGES
-----------------------
   0 S :    0.129835
   1 C :   -0.093583
   2 C :   -0.069489
   3 C :    0.002651
   4 C :   -0.148294
   5 H :    0.016347
   6 C :    0.028002
   7 H :    0.039688
   8 H :    0.032477
   9 C :   -0.040882
  10 H :    0.005328
  11 H :    0.020726
  12 C :   -0.051817
  13 H :    0.029093
  14 H :    0.027748
  15 H :    0.025378
  16 S :    0.108432
  17 C :   -0.063876
  18 C :   -0.039614
  19 C :   -0.014492
  20 C :   -0.190993
  21 H :    0.014653
  22 C :    0.043689
  23 H :    0.043613
  24 H :    0.007870
  25 C :   -0.057417
  26 H :    0.030305
  27 H :    0.020416
  28 C :    0.004332
  29 H :    0.024668
  30 H :    0.020631
  31 H :    0.014137
  32 H :    0.037081
  33 H :    0.043359
Sum of atomic charges:   -0.0000000

LOEWDIN ATOMIC CHARGES
----------------------
   0 S :    0.432460
   1 C :   -0.201784
   2 C :   -0.071562
   3 C :   -0.064788
   4 C :   -0.200669
   5 H :    0.030073
   6 C :   -0.027224
   7 H :    0.032925
   8 H :    0.038976
   9 C :   -0.038450
  10 H :    0.016026
  11 H :    0.020170
  12 C :   -0.069798
  13 H :    0.026932
  14 H :    0.020638
  15 H :    0.025801
  16 S :    0.420380
  17 C :   -0.188591
  18 C :   -0.069692
  19 C :   -0.050121
  20 C :   -0.209106
  21 H :    0.028211
  22 C :   -0.037334
  23 H :    0.040160
  24 H :    0.025401
  25 C :   -0.029786
  26 H :    0.026787
  27 H :    0.021885
  28 C :   -0.061011
  29 H :    0.024701
  30 H :    0.025488
  31 H :    0.019973
  32 H :    0.022303
  33 H :    0.020626

  Mayer bond orders larger than 0.100000
B(  0-S ,  1-C ) :   1.1632 B(  0-S ,  4-C ) :   1.1653 B(  1-C ,  2-C ) :   1.6094
B(  1-C , 32-H ) :   0.9559 B(  2-C ,  3-C ) :   1.2566 B(  2-C ,  6-C ) :   1.0168
B(  3-C ,  4-C ) :   1.5728 B(  3-C ,  5-H ) :   0.9975 B(  4-C , 20-C ) :   1.0083
B(  6-C ,  7-H ) :   0.9545 B(  6-C ,  8-H ) :   0.9421 B(  6-C ,  9-C ) :   1.0707
B(  9-C , 10-H ) :   0.9526 B(  9-C , 11-H ) :   0.9569 B(  9-C , 12-C ) :   1.0752
B( 12-C , 13-H ) :   0.9754 B( 12-C , 14-H ) :   0.9746 B( 12-C , 15-H ) :   0.9734
B( 16-S , 17-C ) :   1.1713 B( 16-S , 20-C ) :   1.1357 B( 17-C , 18-C ) :   1.6054
B( 17-C , 33-H ) :   0.9698 B( 18-C , 19-C ) :   1.2261 B( 18-C , 21-H ) :   0.9936
B( 19-C , 20-C ) :   1.6069 B( 19-C , 22-C ) :   1.0626 B( 22-C , 23-H ) :   0.9181
B( 22-C , 24-H ) :   0.9300 B( 22-C , 25-C ) :   1.0689 B( 25-C , 26-H ) :   0.9544
B( 25-C , 27-H ) :   0.9500 B( 25-C , 28-C ) :   1.0900 B( 28-C , 29-H ) :   0.9713
B( 28-C , 30-H ) :   0.9702 B( 28-C , 31-H ) :   0.9705

Dispersion correction           -0.014936201
FINAL SINGLE POINT ENERGY     -1339.884415947806

DIPOLE MOMENT
-------------
                                X             Y             Z
Electronic contribution:    -23.69470     -19.15229       5.84750
Nuclear contribution   :     24.22705      19.42034      -6.14151
                        -----------------------------------------
Total Dipole Moment    :      0.53236       0.26805      -0.29401
                        -----------------------------------------
Magnitude (a.u.)       :      0.66461
Magnitude (Debye)      :      1.68929

Rotational constants in cm-1:     0.018420     0.009937     0.006962
Rotational constants in MHz :   552.204129   297.895423   208.722515

                             ****ORCA TERMINATED NORMALLY****
TOTAL RUN TIME: 0 days 0 hours 0 minutes 22 seconds 401 msec
