                         Program Version 4.2.1 -  RELEASE  -
|  1> ! wB97X-D3 SP def2-SVP
|  2> %pal
|  3> nprocs 24
|  4> end
|  5>
|  6> * xyz 0 1
|  7> S 	 -39.5631 	 19.304 	 13.6102
|  8> C 	 -41.1931 	 18.8769 	 14.0193
|  9> C 	 -41.6079 	 19.3556 	 15.2509
| 10> C 	 -40.606 	 20.1713 	 15.8315
| 11> C 	 -39.5173 	 20.4443 	 14.976
| 12> H 	 -40.5174 	 20.5997 	 16.8133
| 13> C 	 -42.9294 	 19.0839 	 15.965
| 14> H 	 -43.7679 	 19.0938 	 15.3008
| 15> H 	 -43.0611 	 20.0118 	 16.5854
| 16> C 	 -42.9257 	 17.7509 	 16.7597
| 17> H 	 -42.5665 	 16.9543 	 16.0604
| 18> H 	 -42.2544 	 17.768 	 17.5374
| 19> C 	 -44.2606 	 17.4487 	 17.4019
| 20> H 	 -44.2875 	 16.4588 	 17.8383
| 21> H 	 -44.4483 	 18.1368 	 18.277
| 22> H 	 -45.1254 	 17.4539 	 16.7224
| 23> S 	 -36.8996 	 20.2384 	 15.4443
| 24> C 	 -35.828 	 21.5903 	 15.8473
| 25> C 	 -36.6549 	 22.7384 	 15.7413
| 26> C 	 -38.0579 	 22.5197 	 15.5174
| 27> C 	 -38.3226 	 21.1883 	 15.2773
| 28> H 	 -36.224 	 23.693 	 15.8859
| 29> C 	 -39.1156 	 23.623 	 15.5964
| 30> H 	 -38.8981 	 24.3115 	 16.4488
| 31> H 	 -40.127 	 23.2216 	 15.8181
| 32> C 	 -39.2537 	 24.5622 	 14.3358
| 33> H 	 -38.2341 	 25.023 	 14.1941
| 34> H 	 -39.9704 	 25.3335 	 14.6167
| 35> C 	 -39.674 	 23.8097 	 13.0434
| 36> H 	 -40.5877 	 23.3109 	 13.0697
| 37> H 	 -38.8845 	 23.1031 	 12.8441
| 38> H 	 -39.6326 	 24.5659 	 12.3097
| 39> H 	 -41.6987 	 18.1157 	 13.5055
| 40> H 	 -34.7237 	 21.5689 	 15.9456
| 41> *
| 42>
| 43>                          ****END OF INPUT****

CARTESIAN COORDINATES (ANGSTROEM)
---------------------------------
  S    -39.563100   19.304000   13.610200
  C    -41.193100   18.876900   14.019300
  C    -41.607900   19.355600   15.250900
  C    -40.606000   20.171300   15.831500
  C    -39.517300   20.444300   14.976000
  H    -40.517400   20.599700   16.813300
  C    -42.929400   19.083900   15.965000
  H    -43.767900   19.093800   15.300800
  H    -43.061100   20.011800   16.585400
  C    -42.925700   17.750900   16.759700
  H    -42.566500   16.954300   16.060400
  H    -42.254400   17.768000   17.537400
  C    -44.260600   17.448700   17.401900
  H    -44.287500   16.458800   17.838300
  H    -44.448300   18.136800   18.277000
  H    -45.125400   17.453900   16.722400
  S    -36.899600   20.238400   15.444300
  C    -35.828000   21.590300   15.847300
  C    -36.654900   22.738400   15.741300
  C    -38.057900   22.519700   15.517400
  C    -38.322600   21.188300   15.277300
  H    -36.224000   23.693000   15.885900
  C    -39.115600   23.623000   15.596400
  H    -38.898100   24.311500   16.448800
  H    -40.127000   23.221600   15.818100
  C    -39.253700   24.562200   14.335800
  H    -38.234100   25.023000   14.194100
  H    -39.970400   25.333500   14.616700
  C    -39.674000   23.809700   13.043400
  H    -40.587700   23.310900   13.069700
  H    -38.884500   23.103100   12.844100
  H    -39.632600   24.565900   12.309700
  H    -41.698700   18.115700   13.505500
  H    -34.723700   21.568900   15.945600

 Total Charge           Charge          ....    0
 Multiplicity           Mult            ....    1
 Number of Electrons    NEL             ....  134
 Basis Dimension        Dim             ....  322

ORBITAL ENERGIES
----------------

  NO   OCC          E(Eh)            E(eV)
   0   2.0000     -88.968374     -2420.9525
   1   2.0000     -88.962224     -2420.7852
   2   2.0000     -10.330607      -281.1101
   3   2.0000     -10.325269      -280.9648
   4   2.0000     -10.323292      -280.9110
   5   2.0000     -10.311043      -280.5777
   6   2.0000     -10.304672      -280.4044
   7   2.0000     -10.303194      -280.3642
   8   2.0000     -10.296866      -280.1920
   9   2.0000     -10.296448      -280.1806
  10   2.0000     -10.296298      -280.1765
  11   2.0000     -10.295257      -280.1482
  12   2.0000     -10.289150      -279.9820
  13   2.0000     -10.285471      -279.8819
  14   2.0000     -10.281670      -279.7785
  15   2.0000     -10.261305      -279.2243
  16   2.0000      -8.082801      -219.9442
  17   2.0000      -8.077180      -219.7912
  18   2.0000      -6.041156      -164.3882
  19   2.0000      -6.037445      -164.2872
  20   2.0000      -6.035786      -164.2421
  21   2.0000      -6.033648      -164.1839
  22   2.0000      -6.031386      -164.1224
  23   2.0000      -6.028050      -164.0316
  24   2.0000      -1.007713       -27.4213
  25   2.0000      -0.982731       -26.7415
  26   2.0000      -0.911463       -24.8022
  27   2.0000      -0.897551       -24.4236
  28   2.0000      -0.870971       -23.7003
  29   2.0000      -0.852600       -23.2004
  30   2.0000      -0.842183       -22.9170
  31   2.0000      -0.811692       -22.0873
  32   2.0000      -0.780423       -21.2364
  33   2.0000      -0.772493       -21.0206
  34   2.0000      -0.705145       -19.1880
  35   2.0000      -0.703766       -19.1504
  36   2.0000      -0.689245       -18.7553
  37   2.0000      -0.661408       -17.9978
  38   2.0000      -0.648724       -17.6527
  39   2.0000      -0.617779       -16.8106
  40   2.0000      -0.592720       -16.1287
  41   2.0000      -0.566694       -15.4205
  42   2.0000      -0.560909       -15.2631
  43   2.0000      -0.542005       -14.7487
  44   2.0000      -0.539094       -14.6695
  45   2.0000      -0.524636       -14.2761
  46   2.0000      -0.517790       -14.0898
  47   2.0000      -0.512239       -13.9387
  48   2.0000      -0.509555       -13.8657
  49   2.0000      -0.501750       -13.6533
  50   2.0000      -0.492214       -13.3938
  51   2.0000      -0.476446       -12.9648
  52   2.0000      -0.472115       -12.8469
  53   2.0000      -0.465004       -12.6534
  54   2.0000      -0.461699       -12.5635
  55   2.0000      -0.447268       -12.1708
  56   2.0000      -0.440183       -11.9780
  57   2.0000      -0.433515       -11.7965
  58   2.0000      -0.427185       -11.6243
  59   2.0000      -0.423289       -11.5183
  60   2.0000      -0.420944       -11.4545
  61   2.0000      -0.419851       -11.4247
  62   2.0000      -0.411426       -11.1955
  63   2.0000      -0.342011        -9.3066
  64   2.0000      -0.329166        -8.9571
  65   2.0000      -0.325288        -8.8515
  66   2.0000      -0.295737        -8.0474
  67   0.0000       0.028258         0.7689
  68   0.0000       0.058993         1.6053
  69   0.0000       0.112386         3.0582
  70   0.0000       0.119320         3.2469
  71   0.0000       0.128970         3.5095

MULLIKEN ATOMIC CHARGES
-----------------------
   0 S :    0.112156
   1 C :   -0.089043
   2 C :   -0.080872
   3 C :    0.042074
   4 C :   -0.174124
   5 H :    0.016041
   6 C :    0.062655
   7 H :    0.018906
   8 H :    0.030195
   9 C :   -0.037486
  10 H :    0.033431
  11 H :    0.009697
  12 C :   -0.055191
  13 H :    0.029484
  14 H :    0.038092
  15 H :    0.030297
  16 S :    0.100342
  17 C :   -0.113162
  18 C :   -0.036100
  19 C :   -0.013767
  20 C :   -0.176792
  21 H :    0.004991
  22 C :    0.040180
  23 H :    0.031739
  24 H :    0.025542
  25 C :   -0.113484
  26 H :    0.032390
  27 H :    0.034060
  28 C :    0.003566
  29 H :    0.030175
  30 H :    0.032451
  31 H :    0.021724
  32 H :    0.029135
  33 H :    0.080697
Sum of atomic charges:   -0.0000000

LOEWDIN ATOMIC CHARGES
----------------------
   0 S :    0.407053
   1 C :   -0.190037
   2 C :   -0.064051
   3 C :   -0.051014
   4 C :   -0.192829
   5 H :    0.031745
   6 C :   -0.028008
   7 H :    0.025698
   8 H :    0.035773
   9 C :   -0.035291
  10 H :    0.030291
  11 H :    0.015056
  12 C :   -0.070380
  13 H :    0.025902
  14 H :    0.032415
  15 H :    0.022999
  16 S :    0.414279
  17 C :   -0.196431
  18 C :   -0.063645
  19 C :   -0.064687
  20 C :   -0.212221
  21 H :    0.020471
  22 C :   -0.038460
  23 H :    0.033870
  24 H :    0.029125
  25 C :   -0.036667
  26 H :    0.025868
  27 H :    0.020896
  28 C :   -0.053697
  29 H :    0.018480
  30 H :    0.027436
  31 H :    0.021761
  32 H :    0.015753
  33 H :    0.042548

  Mayer bond orders larger than 0.100000
B(  0-S ,  1-C ) :   1.1569 B(  0-S ,  4-C ) :   1.1456 B(  1-C ,  2-C ) :   1.5901
B(  1-C ,  4-C ) :   0.1060 B(  1-C , 32-H ) :   0.9728 B(  2-C ,  3-C ) :   1.2566
B(  2-C ,  6-C ) :   1.0128 B(  3-C ,  4-C ) :   1.5630 B(  3-C ,  5-H ) :   0.9912
B(  4-C , 20-C ) :   1.0384 B(  6-C ,  7-H ) :   0.9447 B(  6-C ,  8-H ) :   0.9432
B(  6-C ,  9-C ) :   1.0548 B(  9-C , 10-H ) :   0.9569 B(  9-C , 11-H ) :   0.9518
B(  9-C , 12-C ) :   1.0881 B( 12-C , 13-H ) :   0.9714 B( 12-C , 14-H ) :   0.9732
B( 12-C , 15-H ) :   0.9751 B( 16-S , 17-C ) :   1.1465 B( 16-S , 20-C ) :   1.1705
B( 17-C , 18-C ) :   1.5814 B( 17-C , 20-C ) :   0.1080 B( 17-C , 33-H ) :   0.9679
B( 18-C , 19-C ) :   1.2550 B( 18-C , 21-H ) :   0.9900 B( 19-C , 20-C ) :   1.5721
B( 19-C , 22-C ) :   1.0406 B( 22-C , 23-H ) :   0.9380 B( 22-C , 24-H ) :   0.9394
B( 22-C , 25-C ) :   1.0706 B( 25-C , 26-H ) :   0.9587 B( 25-C , 27-H ) :   0.9579
B( 25-C , 28-C ) :   1.0705 B( 28-C , 29-H ) :   0.9778 B( 28-C , 30-H ) :   0.9735
B( 28-C , 31-H ) :   0.9733

Dispersion correction           -0.014506114
FINAL SINGLE POINT ENERGY     -1339.875335502913

DIPOLE MOMENT
-------------
                                X             Y             Z
Electronic contribution:     20.46875      -6.53824      -5.74289
Nuclear contribution   :    -20.83144       6.67208       6.08086
                        -----------------------------------------
Total Dipole Moment    :     -0.36270       0.13384       0.33797
                        -----------------------------------------
Magnitude (a.u.)       :      0.51350
Magnitude (Debye)      :      1.30522

Rotational constants in cm-1:     0.021138     0.007577     0.006853
Rotational constants in MHz :   633.706523   227.149809   205.459304

                             ****ORCA TERMINATED NORMALLY****
TOTAL RUN TIME: 0 days 0 hours 0 minutes 20 seconds 248 msec
