                         Program Version 4.2.1 -  RELEASE  -
|  1> ! wB97X-D3 SP def2-SVP
|  2> %pal
|  3> nprocs 24
|  4> end
|  5>
|  6> * xyz 0 1
|  7> S 	 -37.0294 	 16.0367 	 13.256
|  8> C 	 -37.9194 	 17.1575 	 14.2082
|  9> C 	 -37.3841 	 18.4564 	 14.1841
| 10> C 	 -36.2997 	 18.5581 	 13.2169
| 11> C 	 -35.9985 	 17.3855 	 12.6717
| 12> H 	 -35.699 	 19.3912 	 13.0352
| 13> C 	 -37.8578 	 19.6532 	 14.9548
| 14> H 	 -36.9114 	 20.085 	 15.3475
| 15> H 	 -38.4441 	 19.4414 	 15.8251
| 16> C 	 -38.4579 	 20.8541 	 14.1262
| 17> H 	 -37.7386 	 21.3115 	 13.522
| 18> H 	 -39.2777 	 20.5507 	 13.4174
| 19> C 	 -39.0594 	 21.8966 	 15.0187
| 20> H 	 -38.4117 	 22.0895 	 15.8074
| 21> H 	 -39.2315 	 22.864 	 14.5599
| 22> H 	 -39.9228 	 21.4788 	 15.5483
| 23> S 	 -33.8897 	 15.6862 	 12.0084
| 24> C 	 -32.7029 	 16.2051 	 10.88
| 25> C 	 -33.1044 	 17.3188 	 10.2586
| 26> C 	 -34.3639 	 17.8262 	 10.6757
| 27> C 	 -34.9265 	 17.1089 	 11.7395
| 28> H 	 -32.4988 	 17.7561 	 9.48479
| 29> C 	 -34.8413 	 19.115 	 10.0713
| 30> H 	 -34.1367 	 19.8803 	 10.2643
| 31> H 	 -35.682 	 19.3995 	 10.7649
| 32> C 	 -35.2389 	 19.0361 	 8.59221
| 33> H 	 -34.3988 	 18.7368 	 7.9583
| 34> H 	 -35.5979 	 19.9818 	 8.20596
| 35> C 	 -36.5328 	 18.296 	 8.42458
| 36> H 	 -37.3019 	 18.4424 	 9.21578
| 37> H 	 -36.3524 	 17.2126 	 8.48
| 38> H 	 -37.0105 	 18.6169 	 7.53403
| 39> H 	 -38.852 	 16.9849 	 14.7678
| 40> H 	 -31.8731 	 15.5728 	 10.6387
| 41> *
| 42>
| 43>                          ****END OF INPUT****

CARTESIAN COORDINATES (ANGSTROEM)
---------------------------------
  S    -37.029400   16.036700   13.256000
  C    -37.919400   17.157500   14.208200
  C    -37.384100   18.456400   14.184100
  C    -36.299700   18.558100   13.216900
  C    -35.998500   17.385500   12.671700
  H    -35.699000   19.391200   13.035200
  C    -37.857800   19.653200   14.954800
  H    -36.911400   20.085000   15.347500
  H    -38.444100   19.441400   15.825100
  C    -38.457900   20.854100   14.126200
  H    -37.738600   21.311500   13.522000
  H    -39.277700   20.550700   13.417400
  C    -39.059400   21.896600   15.018700
  H    -38.411700   22.089500   15.807400
  H    -39.231500   22.864000   14.559900
  H    -39.922800   21.478800   15.548300
  S    -33.889700   15.686200   12.008400
  C    -32.702900   16.205100   10.880000
  C    -33.104400   17.318800   10.258600
  C    -34.363900   17.826200   10.675700
  C    -34.926500   17.108900   11.739500
  H    -32.498800   17.756100    9.484790
  C    -34.841300   19.115000   10.071300
  H    -34.136700   19.880300   10.264300
  H    -35.682000   19.399500   10.764900
  C    -35.238900   19.036100    8.592210
  H    -34.398800   18.736800    7.958300
  H    -35.597900   19.981800    8.205960
  C    -36.532800   18.296000    8.424580
  H    -37.301900   18.442400    9.215780
  H    -36.352400   17.212600    8.480000
  H    -37.010500   18.616900    7.534030
  H    -38.852000   16.984900   14.767800
  H    -31.873100   15.572800   10.638700

 Total Charge           Charge          ....    0
 Multiplicity           Mult            ....    1
 Number of Electrons    NEL             ....  134
 Basis Dimension        Dim             ....  322

ORBITAL ENERGIES
----------------

  NO   OCC          E(Eh)            E(eV)
   0   2.0000     -88.967113     -2420.9182
   1   2.0000     -88.958880     -2420.6942
   2   2.0000     -10.328937      -281.0647
   3   2.0000     -10.328720      -281.0588
   4   2.0000     -10.316181      -280.7176
   5   2.0000     -10.310254      -280.5563
   6   2.0000     -10.305442      -280.4253
   7   2.0000     -10.300826      -280.2997
   8   2.0000     -10.296939      -280.1940
   9   2.0000     -10.290305      -280.0134
  10   2.0000     -10.287425      -279.9351
  11   2.0000     -10.286379      -279.9066
  12   2.0000     -10.285270      -279.8764
  13   2.0000     -10.283611      -279.8313
  14   2.0000     -10.270836      -279.4837
  15   2.0000     -10.268631      -279.4237
  16   2.0000      -8.081795      -219.9168
  17   2.0000      -8.074341      -219.7140
  18   2.0000      -6.040347      -164.3662
  19   2.0000      -6.036522      -164.2621
  20   2.0000      -6.032836      -164.1618
  21   2.0000      -6.032298      -164.1472
  22   2.0000      -6.028743      -164.0504
  23   2.0000      -6.025069      -163.9505
  24   2.0000      -1.008994       -27.4561
  25   2.0000      -0.987003       -26.8577
  26   2.0000      -0.913429       -24.8557
  27   2.0000      -0.912797       -24.8385
  28   2.0000      -0.876402       -23.8481
  29   2.0000      -0.858390       -23.3580
  30   2.0000      -0.848957       -23.1013
  31   2.0000      -0.821149       -22.3446
  32   2.0000      -0.781285       -21.2599
  33   2.0000      -0.769058       -20.9271
  34   2.0000      -0.710759       -19.3407
  35   2.0000      -0.700595       -19.0642
  36   2.0000      -0.696505       -18.9529
  37   2.0000      -0.660224       -17.9656
  38   2.0000      -0.643925       -17.5221
  39   2.0000      -0.627649       -17.0792
  40   2.0000      -0.600792       -16.3484
  41   2.0000      -0.567841       -15.4517
  42   2.0000      -0.564619       -15.3641
  43   2.0000      -0.561957       -15.2916
  44   2.0000      -0.543326       -14.7846
  45   2.0000      -0.529808       -14.4168
  46   2.0000      -0.518414       -14.1068
  47   2.0000      -0.514379       -13.9970
  48   2.0000      -0.508320       -13.8321
  49   2.0000      -0.498734       -13.5712
  50   2.0000      -0.492056       -13.3895
  51   2.0000      -0.479373       -13.0444
  52   2.0000      -0.473129       -12.8745
  53   2.0000      -0.469795       -12.7838
  54   2.0000      -0.459634       -12.5073
  55   2.0000      -0.447518       -12.1776
  56   2.0000      -0.443323       -12.0634
  57   2.0000      -0.440353       -11.9826
  58   2.0000      -0.432875       -11.7791
  59   2.0000      -0.425721       -11.5845
  60   2.0000      -0.418676       -11.3928
  61   2.0000      -0.414944       -11.2912
  62   2.0000      -0.402065       -10.9407
  63   2.0000      -0.360990        -9.8230
  64   2.0000      -0.330480        -8.9928
  65   2.0000      -0.326317        -8.8795
  66   2.0000      -0.287890        -7.8339
  67   0.0000       0.030360         0.8261
  68   0.0000       0.073628         2.0035
  69   0.0000       0.109774         2.9871
  70   0.0000       0.118809         3.2330
  71   0.0000       0.132013         3.5923

MULLIKEN ATOMIC CHARGES
-----------------------
   0 S :    0.112702
   1 C :   -0.110431
   2 C :   -0.082730
   3 C :    0.020613
   4 C :   -0.121117
   5 H :    0.000757
   6 C :    0.048414
   7 H :    0.031611
   8 H :    0.015627
   9 C :   -0.065177
  10 H :    0.012063
  11 H :    0.037285
  12 C :   -0.016163
  13 H :   -0.002493
  14 H :    0.037364
  15 H :    0.026341
  16 S :    0.081319
  17 C :   -0.074549
  18 C :   -0.026794
  19 C :   -0.054916
  20 C :   -0.135943
  21 H :    0.012595
  22 C :    0.057575
  23 H :    0.022700
  24 H :    0.011236
  25 C :   -0.038767
  26 H :    0.037113
  27 H :    0.017940
  28 C :   -0.061864
  29 H :    0.034462
  30 H :    0.039890
  31 H :    0.024587
  32 H :    0.053103
  33 H :    0.055646
Sum of atomic charges:   -0.0000000

LOEWDIN ATOMIC CHARGES
----------------------
   0 S :    0.391745
   1 C :   -0.209583
   2 C :   -0.058119
   3 C :   -0.052856
   4 C :   -0.168928
   5 H :    0.025588
   6 C :   -0.032898
   7 H :    0.040460
   8 H :    0.025084
   9 C :   -0.036890
  10 H :    0.012814
  11 H :    0.028344
  12 C :   -0.063193
  13 H :    0.013172
  14 H :    0.028975
  15 H :    0.027548
  16 S :    0.394728
  17 C :   -0.182357
  18 C :   -0.075366
  19 C :   -0.059189
  20 C :   -0.188828
  21 H :    0.029430
  22 C :   -0.035213
  23 H :    0.024098
  24 H :    0.033307
  25 C :   -0.041077
  26 H :    0.026396
  27 H :    0.026188
  28 C :   -0.065356
  29 H :    0.032820
  30 H :    0.026583
  31 H :    0.018802
  32 H :    0.035330
  33 H :    0.028443

  Mayer bond orders larger than 0.100000
B(  0-S ,  1-C ) :   1.1250 B(  0-S ,  4-C ) :   1.1145 B(  1-C ,  2-C ) :   1.6464
B(  1-C , 32-H ) :   0.9614 B(  2-C ,  3-C ) :   1.1780 B(  2-C ,  6-C ) :   1.0416
B(  3-C ,  4-C ) :   1.6423 B(  3-C ,  5-H ) :   0.9975 B(  4-C , 20-C ) :   1.0460
B(  6-C ,  7-H ) :   0.9264 B(  6-C ,  8-H ) :   0.9519 B(  6-C ,  9-C ) :   1.0489
B(  9-C , 10-H ) :   0.9520 B(  9-C , 11-H ) :   0.9604 B(  9-C , 12-C ) :   1.0940
B( 12-C , 13-H ) :   0.9664 B( 12-C , 14-H ) :   0.9712 B( 12-C , 15-H ) :   0.9730
B( 16-S , 17-C ) :   1.1552 B( 16-S , 20-C ) :   1.1327 B( 17-C , 18-C ) :   1.6032
B( 17-C , 33-H ) :   0.9706 B( 18-C , 19-C ) :   1.2408 B( 18-C , 21-H ) :   0.9972
B( 19-C , 20-C ) :   1.5791 B( 19-C , 22-C ) :   1.0371 B( 22-C , 23-H ) :   0.9361
B( 22-C , 24-H ) :   0.9335 B( 22-C , 25-C ) :   1.0774 B( 25-C , 26-H ) :   0.9570
B( 25-C , 27-H ) :   0.9575 B( 25-C , 28-C ) :   1.0626 B( 28-C , 29-H ) :   0.9724
B( 28-C , 30-H ) :   0.9741 B( 28-C , 31-H ) :   0.9802

Dispersion correction           -0.014108735
FINAL SINGLE POINT ENERGY     -1339.869586052187

DIPOLE MOMENT
-------------
                                X             Y             Z
Electronic contribution:     11.68280     -25.48507       4.90380
Nuclear contribution   :    -11.67674      26.24966      -4.99861
                        -----------------------------------------
Total Dipole Moment    :      0.00606       0.76459      -0.09481
                        -----------------------------------------
Magnitude (a.u.)       :      0.77047
Magnitude (Debye)      :      1.95839

Rotational constants in cm-1:     0.018997     0.008410     0.006749
Rotational constants in MHz :   569.508683   252.111744   202.342781

                             ****ORCA TERMINATED NORMALLY****
TOTAL RUN TIME: 0 days 0 hours 0 minutes 21 seconds 651 msec
