                         Program Version 4.2.1 -  RELEASE  -
|  1> ! wB97X-D3 SP def2-SVP
|  2> %pal
|  3> nprocs 24
|  4> end
|  5>
|  6> * xyz 0 1
|  7> S 	 -123.648 	 59.3049 	 -47.1837
|  8> C 	 -124.125 	 57.996 	 -46.1216
|  9> C 	 -125.416 	 58.1516 	 -45.7063
| 10> C 	 -126.089 	 59.241 	 -46.3487
| 11> C 	 -125.267 	 59.9884 	 -47.1704
| 12> H 	 -127.173 	 59.409 	 -46.2601
| 13> C 	 -126.185 	 57.2017 	 -44.7633
| 14> H 	 -125.962 	 56.1806 	 -45.1487
| 15> H 	 -127.276 	 57.2599 	 -44.8897
| 16> C 	 -125.776 	 57.3576 	 -43.3076
| 17> H 	 -126.382 	 56.6278 	 -42.7705
| 18> H 	 -124.741 	 57.0275 	 -43.0887
| 19> C 	 -126.023 	 58.756 	 -42.7202
| 20> H 	 -125.041 	 59.3101 	 -42.6909
| 21> H 	 -126.686 	 59.3249 	 -43.305
| 22> H 	 -126.308 	 58.6962 	 -41.6976
| 23> S 	 -125.154 	 61.3434 	 -49.5429
| 24> C 	 -125.912 	 62.9395 	 -49.6475
| 25> C 	 -126.579 	 63.3172 	 -48.5009
| 26> C 	 -126.354 	 62.3228 	 -47.4393
| 27> C 	 -125.624 	 61.2399 	 -47.833
| 28> H 	 -127.058 	 64.2928 	 -48.4345
| 29> C 	 -126.919 	 62.6542 	 -46.0775
| 30> H 	 -126.682 	 63.7144 	 -45.8131
| 31> H 	 -126.392 	 62.109 	 -45.3119
| 32> C 	 -128.412 	 62.2881 	 -45.8978
| 33> H 	 -128.531 	 61.2469 	 -46.0634
| 34> H 	 -129.012 	 62.7684 	 -46.6906
| 35> C 	 -128.915 	 62.5399 	 -44.4391
| 36> H 	 -129.205 	 63.5514 	 -44.2105
| 37> H 	 -128.219 	 62.2847 	 -43.6434
| 38> H 	 -129.892 	 62.0972 	 -44.3564
| 39> H 	 -123.429 	 57.316 	 -45.5729
| 40> H 	 -125.801 	 63.5501 	 -50.5205
| 41> *
| 42>
| 43>                          ****END OF INPUT****

CARTESIAN COORDINATES (ANGSTROEM)
---------------------------------
  S    -123.648000   59.304900  -47.183700
  C    -124.125000   57.996000  -46.121600
  C    -125.416000   58.151600  -45.706300
  C    -126.089000   59.241000  -46.348700
  C    -125.267000   59.988400  -47.170400
  H    -127.173000   59.409000  -46.260100
  C    -126.185000   57.201700  -44.763300
  H    -125.962000   56.180600  -45.148700
  H    -127.276000   57.259900  -44.889700
  C    -125.776000   57.357600  -43.307600
  H    -126.382000   56.627800  -42.770500
  H    -124.741000   57.027500  -43.088700
  C    -126.023000   58.756000  -42.720200
  H    -125.041000   59.310100  -42.690900
  H    -126.686000   59.324900  -43.305000
  H    -126.308000   58.696200  -41.697600
  S    -125.154000   61.343400  -49.542900
  C    -125.912000   62.939500  -49.647500
  C    -126.579000   63.317200  -48.500900
  C    -126.354000   62.322800  -47.439300
  C    -125.624000   61.239900  -47.833000
  H    -127.058000   64.292800  -48.434500
  C    -126.919000   62.654200  -46.077500
  H    -126.682000   63.714400  -45.813100
  H    -126.392000   62.109000  -45.311900
  C    -128.412000   62.288100  -45.897800
  H    -128.531000   61.246900  -46.063400
  H    -129.012000   62.768400  -46.690600
  C    -128.915000   62.539900  -44.439100
  H    -129.205000   63.551400  -44.210500
  H    -128.219000   62.284700  -43.643400
  H    -129.892000   62.097200  -44.356400
  H    -123.429000   57.316000  -45.572900
  H    -125.801000   63.550100  -50.520500

 Total Charge           Charge          ....    0
 Multiplicity           Mult            ....    1
 Number of Electrons    NEL             ....  134
 Basis Dimension        Dim             ....  322

ORBITAL ENERGIES
----------------

  NO   OCC          E(Eh)            E(eV)
   0   2.0000     -88.967593     -2420.9313
   1   2.0000     -88.961988     -2420.7788
   2   2.0000     -10.330679      -281.1121
   3   2.0000     -10.327714      -281.0314
   4   2.0000     -10.318758      -280.7877
   5   2.0000     -10.314834      -280.6809
   6   2.0000     -10.306279      -280.4481
   7   2.0000     -10.298789      -280.2443
   8   2.0000     -10.298758      -280.2435
   9   2.0000     -10.296912      -280.1932
  10   2.0000     -10.294615      -280.1307
  11   2.0000     -10.291270      -280.0397
  12   2.0000     -10.290259      -280.0122
  13   2.0000     -10.287591      -279.9396
  14   2.0000     -10.277992      -279.6784
  15   2.0000     -10.273467      -279.5552
  16   2.0000      -8.082063      -219.9241
  17   2.0000      -8.076540      -219.7738
  18   2.0000      -6.040616      -164.3735
  19   2.0000      -6.036623      -164.2649
  20   2.0000      -6.035150      -164.2248
  21   2.0000      -6.032753      -164.1596
  22   2.0000      -6.031233      -164.1182
  23   2.0000      -6.027045      -164.0042
  24   2.0000      -1.004240       -27.3268
  25   2.0000      -0.980857       -26.6905
  26   2.0000      -0.910637       -24.7797
  27   2.0000      -0.905020       -24.6268
  28   2.0000      -0.868339       -23.6287
  29   2.0000      -0.848987       -23.1021
  30   2.0000      -0.842494       -22.9254
  31   2.0000      -0.813757       -22.1434
  32   2.0000      -0.783781       -21.3278
  33   2.0000      -0.774334       -21.0707
  34   2.0000      -0.708934       -19.2911
  35   2.0000      -0.701069       -19.0771
  36   2.0000      -0.694428       -18.8963
  37   2.0000      -0.665671       -18.1138
  38   2.0000      -0.633655       -17.2426
  39   2.0000      -0.613901       -16.7051
  40   2.0000      -0.596135       -16.2216
  41   2.0000      -0.572349       -15.5744
  42   2.0000      -0.557487       -15.1700
  43   2.0000      -0.556821       -15.1519
  44   2.0000      -0.538076       -14.6418
  45   2.0000      -0.527246       -14.3471
  46   2.0000      -0.515640       -14.0313
  47   2.0000      -0.507591       -13.8123
  48   2.0000      -0.506031       -13.7698
  49   2.0000      -0.493963       -13.4414
  50   2.0000      -0.491164       -13.3653
  51   2.0000      -0.477911       -13.0046
  52   2.0000      -0.470147       -12.7933
  53   2.0000      -0.466662       -12.6985
  54   2.0000      -0.458556       -12.4780
  55   2.0000      -0.450604       -12.2615
  56   2.0000      -0.443789       -12.0761
  57   2.0000      -0.438577       -11.9343
  58   2.0000      -0.434553       -11.8248
  59   2.0000      -0.424398       -11.5485
  60   2.0000      -0.418785       -11.3957
  61   2.0000      -0.417357       -11.3569
  62   2.0000      -0.407000       -11.0750
  63   2.0000      -0.349471        -9.5096
  64   2.0000      -0.332565        -9.0496
  65   2.0000      -0.328519        -8.9395
  66   2.0000      -0.294808        -8.0221
  67   0.0000       0.029088         0.7915
  68   0.0000       0.072851         1.9824
  69   0.0000       0.106035         2.8853
  70   0.0000       0.122397         3.3306
  71   0.0000       0.123442         3.3590

MULLIKEN ATOMIC CHARGES
-----------------------
   0 S :    0.112846
   1 C :   -0.127056
   2 C :   -0.100043
   3 C :    0.007680
   4 C :   -0.124709
   5 H :    0.020452
   6 C :    0.036726
   7 H :    0.036569
   8 H :    0.028949
   9 C :   -0.077060
  10 H :    0.023822
  11 H :    0.028808
  12 C :   -0.026438
  13 H :    0.039175
  14 H :    0.019404
  15 H :    0.029842
  16 S :    0.084790
  17 C :   -0.083966
  18 C :   -0.026156
  19 C :   -0.049214
  20 C :   -0.136157
  21 H :    0.030915
  22 C :    0.048316
  23 H :    0.034120
  24 H :    0.012616
  25 C :   -0.057389
  26 H :    0.014327
  27 H :    0.029820
  28 C :   -0.033054
  29 H :    0.017080
  30 H :    0.040128
  31 H :    0.026213
  32 H :    0.065334
  33 H :    0.053308
Sum of atomic charges:    0.0000000

LOEWDIN ATOMIC CHARGES
----------------------
   0 S :    0.405022
   1 C :   -0.207495
   2 C :   -0.066239
   3 C :   -0.068078
   4 C :   -0.191798
   5 H :    0.033022
   6 C :   -0.034066
   7 H :    0.036712
   8 H :    0.030645
   9 C :   -0.044599
  10 H :    0.022121
  11 H :    0.024633
  12 C :   -0.062348
  13 H :    0.036884
  14 H :    0.015851
  15 H :    0.023684
  16 S :    0.374642
  17 C :   -0.165149
  18 C :   -0.068540
  19 C :   -0.051948
  20 C :   -0.187713
  21 H :    0.036841
  22 C :   -0.035641
  23 H :    0.034708
  24 H :    0.025115
  25 C :   -0.032106
  26 H :    0.016047
  27 H :    0.026533
  28 C :   -0.068832
  29 H :    0.022754
  30 H :    0.028084
  31 H :    0.027585
  32 H :    0.040265
  33 H :    0.023405

  Mayer bond orders larger than 0.100000
B(  0-S ,  1-C ) :   1.1281 B(  0-S ,  4-C ) :   1.1573 B(  1-C ,  2-C ) :   1.6386
B(  1-C , 32-H ) :   0.9564 B(  2-C ,  3-C ) :   1.2453 B(  2-C ,  6-C ) :   1.0013
B(  3-C ,  4-C ) :   1.5659 B(  3-C ,  5-H ) :   0.9914 B(  4-C , 20-C ) :   1.0247
B(  6-C ,  7-H ) :   0.9452 B(  6-C ,  8-H ) :   0.9483 B(  6-C ,  9-C ) :   1.0820
B(  9-C , 10-H ) :   0.9589 B(  9-C , 11-H ) :   0.9596 B(  9-C , 12-C ) :   1.0603
B( 12-C , 13-H ) :   0.9741 B( 12-C , 14-H ) :   0.9812 B( 12-C , 15-H ) :   0.9751
B( 16-S , 17-C ) :   1.1398 B( 16-S , 20-C ) :   1.1090 B( 17-C , 18-C ) :   1.6518
B( 17-C , 33-H ) :   0.9687 B( 18-C , 19-C ) :   1.1775 B( 18-C , 21-H ) :   0.9892
B( 19-C , 20-C ) :   1.6704 B( 19-C , 22-C ) :   1.0512 B( 22-C , 23-H ) :   0.9411
B( 22-C , 24-H ) :   0.9293 B( 22-C , 25-C ) :   1.0595 B( 25-C , 26-H ) :   0.9550
B( 25-C , 27-H ) :   0.9541 B( 25-C , 28-C ) :   1.0746 B( 28-C , 29-H ) :   0.9731
B( 28-C , 30-H ) :   0.9746 B( 28-C , 31-H ) :   0.9731

Dispersion correction           -0.015058764
FINAL SINGLE POINT ENERGY     -1339.887542830526

DIPOLE MOMENT
-------------
                                X             Y             Z
Electronic contribution:     17.32403       0.48318     -26.55717
Nuclear contribution   :    -17.82442      -0.36370      27.17355
                        -----------------------------------------
Total Dipole Moment    :     -0.50038       0.11948       0.61638
                        -----------------------------------------
Magnitude (a.u.)       :      0.80286
Magnitude (Debye)      :      2.04072

Rotational constants in cm-1:     0.017378     0.010261     0.006884
Rotational constants in MHz :   520.987983   307.620660   206.370041

                             ****ORCA TERMINATED NORMALLY****
TOTAL RUN TIME: 0 days 0 hours 0 minutes 22 seconds 284 msec
