                         Program Version 4.2.1 -  RELEASE  -
|  1> ! wB97X-D3 SP def2-SVP
|  2> %pal
|  3> nprocs 24
|  4> end
|  5>
|  6> * xyz 0 1
|  7> S 	 -93.2422 	 -34.0462 	 -72.7804
|  8> C 	 -92.7298 	 -34.935 	 -74.1703
|  9> C 	 -92.2939 	 -34.0606 	 -75.173
| 10> C 	 -92.174 	 -32.7157 	 -74.7056
| 11> C 	 -92.7546 	 -32.4888 	 -73.4552
| 12> H 	 -91.7721 	 -31.9094 	 -75.2754
| 13> C 	 -91.8693 	 -34.402 	 -76.6298
| 14> H 	 -91.6148 	 -35.4246 	 -76.7074
| 15> H 	 -90.9586 	 -33.8746 	 -76.8023
| 16> C 	 -92.9858 	 -34.2229 	 -77.7738
| 17> H 	 -92.5158 	 -34.5934 	 -78.6645
| 18> H 	 -93.8571 	 -34.8133 	 -77.5092
| 19> C 	 -93.4923 	 -32.7883 	 -78.0458
| 20> H 	 -92.7125 	 -32.034 	 -78.1403
| 21> H 	 -93.8745 	 -32.7669 	 -79.1172
| 22> H 	 -94.3118 	 -32.6658 	 -77.3823
| 23> S 	 -91.4516 	 -31.4554 	 -71.4358
| 24> C 	 -91.4467 	 -29.7573 	 -71.0981
| 25> C 	 -92.4105 	 -29.1283 	 -71.8403
| 26> C 	 -93.0442 	 -29.9421 	 -72.821
| 27> C 	 -92.6296 	 -31.2818 	 -72.695
| 28> H 	 -92.387 	 -28.0523 	 -71.7182
| 29> C 	 -93.7991 	 -29.3998 	 -74.0325
| 30> H 	 -94.3799 	 -28.55 	 -73.6591
| 31> H 	 -94.4718 	 -30.1918 	 -74.3031
| 32> C 	 -92.954 	 -29.0159 	 -75.2102
| 33> H 	 -92.6645 	 -29.8957 	 -75.775
| 34> H 	 -91.9898 	 -28.7021 	 -74.8608
| 35> C 	 -93.7513 	 -28.0482 	 -76.1863
| 36> H 	 -94.0522 	 -27.1202 	 -75.6855
| 37> H 	 -94.583 	 -28.5911 	 -76.6369
| 38> H 	 -93.1003 	 -27.7496 	 -76.9855
| 39> H 	 -92.8809 	 -36.0746 	 -74.2582
| 40> H 	 -90.8591 	 -29.2349 	 -70.3411
| 41> *
| 42>
| 43>                          ****END OF INPUT****

CARTESIAN COORDINATES (ANGSTROEM)
---------------------------------
  S    -93.242200  -34.046200  -72.780400
  C    -92.729800  -34.935000  -74.170300
  C    -92.293900  -34.060600  -75.173000
  C    -92.174000  -32.715700  -74.705600
  C    -92.754600  -32.488800  -73.455200
  H    -91.772100  -31.909400  -75.275400
  C    -91.869300  -34.402000  -76.629800
  H    -91.614800  -35.424600  -76.707400
  H    -90.958600  -33.874600  -76.802300
  C    -92.985800  -34.222900  -77.773800
  H    -92.515800  -34.593400  -78.664500
  H    -93.857100  -34.813300  -77.509200
  C    -93.492300  -32.788300  -78.045800
  H    -92.712500  -32.034000  -78.140300
  H    -93.874500  -32.766900  -79.117200
  H    -94.311800  -32.665800  -77.382300
  S    -91.451600  -31.455400  -71.435800
  C    -91.446700  -29.757300  -71.098100
  C    -92.410500  -29.128300  -71.840300
  C    -93.044200  -29.942100  -72.821000
  C    -92.629600  -31.281800  -72.695000
  H    -92.387000  -28.052300  -71.718200
  C    -93.799100  -29.399800  -74.032500
  H    -94.379900  -28.550000  -73.659100
  H    -94.471800  -30.191800  -74.303100
  C    -92.954000  -29.015900  -75.210200
  H    -92.664500  -29.895700  -75.775000
  H    -91.989800  -28.702100  -74.860800
  C    -93.751300  -28.048200  -76.186300
  H    -94.052200  -27.120200  -75.685500
  H    -94.583000  -28.591100  -76.636900
  H    -93.100300  -27.749600  -76.985500
  H    -92.880900  -36.074600  -74.258200
  H    -90.859100  -29.234900  -70.341100

 Total Charge           Charge          ....    0
 Multiplicity           Mult            ....    1
 Number of Electrons    NEL             ....  134
 Basis Dimension        Dim             ....  322

ORBITAL ENERGIES
----------------

  NO   OCC          E(Eh)            E(eV)
   0   2.0000     -88.966785     -2420.9093
   1   2.0000     -88.960848     -2420.7477
   2   2.0000     -10.328356      -281.0489
   3   2.0000     -10.322763      -280.8966
   4   2.0000     -10.322538      -280.8905
   5   2.0000     -10.312315      -280.6124
   6   2.0000     -10.305548      -280.4282
   7   2.0000     -10.304360      -280.3959
   8   2.0000     -10.292655      -280.0774
   9   2.0000     -10.292008      -280.0598
  10   2.0000     -10.290522      -280.0193
  11   2.0000     -10.289291      -279.9859
  12   2.0000     -10.285724      -279.8888
  13   2.0000     -10.284169      -279.8465
  14   2.0000     -10.281892      -279.7845
  15   2.0000     -10.280099      -279.7357
  16   2.0000      -8.081464      -219.9078
  17   2.0000      -8.076414      -219.7704
  18   2.0000      -6.039993      -164.3566
  19   2.0000      -6.035799      -164.2424
  20   2.0000      -6.034815      -164.2157
  21   2.0000      -6.032378      -164.1494
  22   2.0000      -6.030622      -164.1016
  23   2.0000      -6.027377      -164.0133
  24   2.0000      -1.008933       -27.4545
  25   2.0000      -0.983292       -26.7567
  26   2.0000      -0.909388       -24.7457
  27   2.0000      -0.900651       -24.5080
  28   2.0000      -0.872542       -23.7431
  29   2.0000      -0.847667       -23.0662
  30   2.0000      -0.844018       -22.9669
  31   2.0000      -0.812698       -22.1146
  32   2.0000      -0.782984       -21.3061
  33   2.0000      -0.770673       -20.9711
  34   2.0000      -0.708524       -19.2799
  35   2.0000      -0.697616       -18.9831
  36   2.0000      -0.696066       -18.9409
  37   2.0000      -0.659184       -17.9373
  38   2.0000      -0.639626       -17.4051
  39   2.0000      -0.616331       -16.7712
  40   2.0000      -0.591861       -16.1053
  41   2.0000      -0.574914       -15.6442
  42   2.0000      -0.562646       -15.3104
  43   2.0000      -0.547939       -14.9102
  44   2.0000      -0.530037       -14.4230
  45   2.0000      -0.522729       -14.2242
  46   2.0000      -0.518511       -14.1094
  47   2.0000      -0.513881       -13.9834
  48   2.0000      -0.508063       -13.8251
  49   2.0000      -0.498808       -13.5732
  50   2.0000      -0.488344       -13.2885
  51   2.0000      -0.481601       -13.1050
  52   2.0000      -0.472637       -12.8611
  53   2.0000      -0.463609       -12.6154
  54   2.0000      -0.461813       -12.5666
  55   2.0000      -0.448190       -12.1959
  56   2.0000      -0.446649       -12.1539
  57   2.0000      -0.437653       -11.9091
  58   2.0000      -0.428347       -11.6559
  59   2.0000      -0.424979       -11.5643
  60   2.0000      -0.419271       -11.4089
  61   2.0000      -0.413409       -11.2494
  62   2.0000      -0.410604       -11.1731
  63   2.0000      -0.344661        -9.3787
  64   2.0000      -0.325685        -8.8623
  65   2.0000      -0.323102        -8.7920
  66   2.0000      -0.298165        -8.1135
  67   0.0000       0.035714         0.9718
  68   0.0000       0.061044         1.6611
  69   0.0000       0.123470         3.3598
  70   0.0000       0.126359         3.4384
  71   0.0000       0.128075         3.4851

MULLIKEN ATOMIC CHARGES
-----------------------
   0 S :    0.116389
   1 C :   -0.162327
   2 C :   -0.094276
   3 C :    0.049621
   4 C :   -0.162343
   5 H :    0.004130
   6 C :    0.088414
   7 H :    0.006430
   8 H :    0.023248
   9 C :   -0.073530
  10 H :    0.029061
  11 H :    0.033071
  12 C :   -0.059433
  13 H :    0.032813
  14 H :    0.030644
  15 H :    0.046344
  16 S :    0.115521
  17 C :   -0.104019
  18 C :   -0.049055
  19 C :   -0.038873
  20 C :   -0.176441
  21 H :    0.017960
  22 C :    0.090088
  23 H :    0.021717
  24 H :    0.025859
  25 C :   -0.058192
  26 H :    0.018614
  27 H :    0.018228
  28 C :   -0.041907
  29 H :    0.038900
  30 H :    0.040984
  31 H :    0.027321
  32 H :    0.085900
  33 H :    0.059140
Sum of atomic charges:   -0.0000000

LOEWDIN ATOMIC CHARGES
----------------------
   0 S :    0.413073
   1 C :   -0.220034
   2 C :   -0.069437
   3 C :   -0.051611
   4 C :   -0.207841
   5 H :    0.024107
   6 C :   -0.024887
   7 H :    0.023302
   8 H :    0.026075
   9 C :   -0.030554
  10 H :    0.019889
  11 H :    0.026314
  12 C :   -0.072681
  13 H :    0.022800
  14 H :    0.035132
  15 H :    0.024678
  16 S :    0.428569
  17 C :   -0.194208
  18 C :   -0.081145
  19 C :   -0.052913
  20 C :   -0.206797
  21 H :    0.032027
  22 C :   -0.029775
  23 H :    0.030601
  24 H :    0.030634
  25 C :   -0.039408
  26 H :    0.021986
  27 H :    0.019839
  28 C :   -0.058147
  29 H :    0.025904
  30 H :    0.029469
  31 H :    0.023306
  32 H :    0.048596
  33 H :    0.033136

  Mayer bond orders larger than 0.100000
B(  0-S ,  1-C ) :   1.1593 B(  0-S ,  4-C ) :   1.1515 B(  1-C ,  2-C ) :   1.5837
B(  1-C ,  4-C ) :   0.1007 B(  1-C , 32-H ) :   0.9562 B(  2-C ,  3-C ) :   1.2670
B(  2-C ,  6-C ) :   1.0182 B(  3-C ,  4-C ) :   1.5511 B(  3-C ,  5-H ) :   0.9890
B(  4-C , 20-C ) :   1.0347 B(  6-C ,  7-H ) :   0.9405 B(  6-C ,  8-H ) :   0.9464
B(  6-C ,  9-C ) :   1.0611 B(  9-C , 10-H ) :   0.9614 B(  9-C , 11-H ) :   0.9600
B(  9-C , 12-C ) :   1.0793 B( 12-C , 13-H ) :   0.9748 B( 12-C , 14-H ) :   0.9717
B( 12-C , 15-H ) :   0.9796 B( 16-S , 17-C ) :   1.1625 B( 16-S , 20-C ) :   1.1687
B( 17-C , 18-C ) :   1.6211 B( 17-C , 20-C ) :   0.1022 B( 17-C , 33-H ) :   0.9644
B( 18-C , 19-C ) :   1.2340 B( 18-C , 21-H ) :   0.9894 B( 19-C , 20-C ) :   1.5697
B( 19-C , 22-C ) :   1.0572 B( 22-C , 23-H ) :   0.9371 B( 22-C , 24-H ) :   0.9223
B( 22-C , 25-C ) :   1.0658 B( 25-C , 26-H ) :   0.9402 B( 25-C , 27-H ) :   0.9605
B( 25-C , 28-C ) :   1.0735 B( 28-C , 29-H ) :   0.9795 B( 28-C , 30-H ) :   0.9756
B( 28-C , 31-H ) :   0.9751

Dispersion correction           -0.015023323
FINAL SINGLE POINT ENERGY     -1339.868527226225

DIPOLE MOMENT
-------------
                                X             Y             Z
Electronic contribution:      5.07211     -10.31971      28.92073
Nuclear contribution   :     -4.92754      10.55975     -29.63509
                        -----------------------------------------
Total Dipole Moment    :      0.14456       0.24004      -0.71436
                        -----------------------------------------
Magnitude (a.u.)       :      0.76735
Magnitude (Debye)      :      1.95045

Rotational constants in cm-1:     0.016412     0.010666     0.007066
Rotational constants in MHz :   492.021074   319.769441   211.820303

                             ****ORCA TERMINATED NORMALLY****
TOTAL RUN TIME: 0 days 0 hours 0 minutes 21 seconds 94 msec
