                         Program Version 4.2.1 -  RELEASE  -
|  1> ! wB97X-D3 SP def2-SVP
|  2> %pal
|  3> nprocs 24
|  4> end
|  5>
|  6> * xyz 0 1
|  7> S 	 -68.4763 	 10.5547 	 -101.455
|  8> C 	 -67.337 	 11.6952 	 -100.933
|  9> C 	 -66.2358 	 11.078 	 -100.304
| 10> C 	 -66.3506 	 9.6835 	 -100.26
| 11> C 	 -67.5088 	 9.19592 	 -100.795
| 12> H 	 -65.501 	 9.08938 	 -99.8711
| 13> C 	 -64.93 	 11.8056 	 -99.8366
| 14> H 	 -64.5834 	 12.3608 	 -100.74
| 15> H 	 -64.1251 	 11.0029 	 -99.6631
| 16> C 	 -65.2514 	 12.8343 	 -98.7451
| 17> H 	 -65.9494 	 13.5247 	 -99.172
| 18> H 	 -65.8775 	 12.4943 	 -97.9547
| 19> C 	 -63.9428 	 13.4925 	 -98.2356
| 20> H 	 -63.3161 	 13.8832 	 -99.0454
| 21> H 	 -63.9978 	 14.3016 	 -97.4805
| 22> H 	 -63.3808 	 12.7393 	 -97.6594
| 23> S 	 -69.6345 	 7.36364 	 -100.728
| 24> C 	 -69.3487 	 5.65176 	 -101.113
| 25> C 	 -68.0214 	 5.46787 	 -101.49
| 26> C 	 -67.1774 	 6.62609 	 -101.323
| 27> C 	 -67.8682 	 7.75665 	 -100.901
| 28> H 	 -67.6837 	 4.47827 	 -101.974
| 29> C 	 -65.7551 	 6.61877 	 -101.759
| 30> H 	 -65.3805 	 5.70157 	 -101.832
| 31> H 	 -65.1375 	 7.13587 	 -100.895
| 32> C 	 -65.4818 	 7.183 	 -103.158
| 33> H 	 -66.0904 	 8.07743 	 -103.169
| 34> H 	 -65.9377 	 6.62967 	 -103.979
| 35> C 	 -64.0079 	 7.62652 	 -103.551
| 36> H 	 -63.6901 	 8.44726 	 -102.927
| 37> H 	 -63.9641 	 7.92106 	 -104.54
| 38> H 	 -63.4339 	 6.72003 	 -103.381
| 39> H 	 -67.5494 	 12.755 	 -101.079
| 40> H 	 -70.2173 	 4.93326 	 -101.322
| 41> *
| 42>
| 43>                          ****END OF INPUT****

CARTESIAN COORDINATES (ANGSTROEM)
---------------------------------
  S    -68.476300   10.554700  -101.455000
  C    -67.337000   11.695200  -100.933000
  C    -66.235800   11.078000  -100.304000
  C    -66.350600    9.683500  -100.260000
  C    -67.508800    9.195920  -100.795000
  H    -65.501000    9.089380  -99.871100
  C    -64.930000   11.805600  -99.836600
  H    -64.583400   12.360800  -100.740000
  H    -64.125100   11.002900  -99.663100
  C    -65.251400   12.834300  -98.745100
  H    -65.949400   13.524700  -99.172000
  H    -65.877500   12.494300  -97.954700
  C    -63.942800   13.492500  -98.235600
  H    -63.316100   13.883200  -99.045400
  H    -63.997800   14.301600  -97.480500
  H    -63.380800   12.739300  -97.659400
  S    -69.634500    7.363640  -100.728000
  C    -69.348700    5.651760  -101.113000
  C    -68.021400    5.467870  -101.490000
  C    -67.177400    6.626090  -101.323000
  C    -67.868200    7.756650  -100.901000
  H    -67.683700    4.478270  -101.974000
  C    -65.755100    6.618770  -101.759000
  H    -65.380500    5.701570  -101.832000
  H    -65.137500    7.135870  -100.895000
  C    -65.481800    7.183000  -103.158000
  H    -66.090400    8.077430  -103.169000
  H    -65.937700    6.629670  -103.979000
  C    -64.007900    7.626520  -103.551000
  H    -63.690100    8.447260  -102.927000
  H    -63.964100    7.921060  -104.540000
  H    -63.433900    6.720030  -103.381000
  H    -67.549400   12.755000  -101.079000
  H    -70.217300    4.933260  -101.322000

 Total Charge           Charge          ....    0
 Multiplicity           Mult            ....    1
 Number of Electrons    NEL             ....  134
 Basis Dimension        Dim             ....  322

ORBITAL ENERGIES
----------------

  NO   OCC          E(Eh)            E(eV)
   0   2.0000     -88.971462     -2421.0366
   1   2.0000     -88.963706     -2420.8255
   2   2.0000     -10.336138      -281.2606
   3   2.0000     -10.334976      -281.2290
   4   2.0000     -10.327588      -281.0280
   5   2.0000     -10.316272      -280.7200
   6   2.0000     -10.307387      -280.4783
   7   2.0000     -10.305504      -280.4270
   8   2.0000     -10.305439      -280.4253
   9   2.0000     -10.302607      -280.3482
  10   2.0000     -10.293919      -280.1118
  11   2.0000     -10.289168      -279.9825
  12   2.0000     -10.286676      -279.9147
  13   2.0000     -10.283355      -279.8243
  14   2.0000     -10.281730      -279.7801
  15   2.0000     -10.274526      -279.5841
  16   2.0000      -8.086215      -220.0371
  17   2.0000      -8.077163      -219.7908
  18   2.0000      -6.044711      -164.4849
  19   2.0000      -6.040607      -164.3733
  20   2.0000      -6.037099      -164.2778
  21   2.0000      -6.035851      -164.2438
  22   2.0000      -6.031890      -164.1361
  23   2.0000      -6.027771      -164.0240
  24   2.0000      -1.004151       -27.3243
  25   2.0000      -0.979694       -26.6588
  26   2.0000      -0.907119       -24.6840
  27   2.0000      -0.905949       -24.6521
  28   2.0000      -0.865881       -23.5618
  29   2.0000      -0.852827       -23.2066
  30   2.0000      -0.844641       -22.9839
  31   2.0000      -0.809198       -22.0194
  32   2.0000      -0.782582       -21.2951
  33   2.0000      -0.766198       -20.8493
  34   2.0000      -0.711105       -19.3502
  35   2.0000      -0.704433       -19.1686
  36   2.0000      -0.687881       -18.7182
  37   2.0000      -0.661190       -17.9919
  38   2.0000      -0.640851       -17.4384
  39   2.0000      -0.622234       -16.9318
  40   2.0000      -0.593789       -16.1578
  41   2.0000      -0.561720       -15.2852
  42   2.0000      -0.559280       -15.2188
  43   2.0000      -0.551817       -15.0157
  44   2.0000      -0.525972       -14.3124
  45   2.0000      -0.522253       -14.2112
  46   2.0000      -0.516418       -14.0524
  47   2.0000      -0.508779       -13.8446
  48   2.0000      -0.503787       -13.7087
  49   2.0000      -0.497657       -13.5419
  50   2.0000      -0.494844       -13.4654
  51   2.0000      -0.483647       -13.1607
  52   2.0000      -0.472398       -12.8546
  53   2.0000      -0.463559       -12.6141
  54   2.0000      -0.458997       -12.4900
  55   2.0000      -0.450378       -12.2554
  56   2.0000      -0.444444       -12.0939
  57   2.0000      -0.442412       -12.0386
  58   2.0000      -0.429282       -11.6814
  59   2.0000      -0.421205       -11.4616
  60   2.0000      -0.417688       -11.3659
  61   2.0000      -0.413606       -11.2548
  62   2.0000      -0.405710       -11.0399
  63   2.0000      -0.355290        -9.6679
  64   2.0000      -0.333110        -9.0644
  65   2.0000      -0.329327        -8.9614
  66   2.0000      -0.286868        -7.8061
  67   0.0000       0.021074         0.5734
  68   0.0000       0.067313         1.8317
  69   0.0000       0.103467         2.8155
  70   0.0000       0.121410         3.3037
  71   0.0000       0.123814         3.3692

MULLIKEN ATOMIC CHARGES
-----------------------
   0 S :    0.126730
   1 C :   -0.146591
   2 C :   -0.083716
   3 C :   -0.000040
   4 C :   -0.114012
   5 H :    0.023003
   6 C :    0.028948
   7 H :    0.043672
   8 H :    0.037069
   9 C :   -0.044400
  10 H :    0.014850
  11 H :    0.025396
  12 C :   -0.055241
  13 H :    0.033839
  14 H :    0.033368
  15 H :    0.031115
  16 S :    0.073963
  17 C :   -0.120936
  18 C :   -0.059198
  19 C :   -0.049127
  20 C :   -0.154118
  21 H :    0.052515
  22 C :    0.106020
  23 H :   -0.024208
  24 H :    0.038845
  25 C :   -0.104731
  26 H :    0.021344
  27 H :    0.025005
  28 C :   -0.000408
  29 H :    0.031768
  30 H :    0.024295
  31 H :    0.029351
  32 H :    0.062144
  33 H :    0.093488
Sum of atomic charges:   -0.0000000

LOEWDIN ATOMIC CHARGES
----------------------
   0 S :    0.423603
   1 C :   -0.218273
   2 C :   -0.066391
   3 C :   -0.068560
   4 C :   -0.187863
   5 H :    0.037610
   6 C :   -0.031012
   7 H :    0.036831
   8 H :    0.033926
   9 C :   -0.041616
  10 H :    0.021626
  11 H :    0.023813
  12 C :   -0.073132
  13 H :    0.025774
  14 H :    0.027098
  15 H :    0.027997
  16 S :    0.361879
  17 C :   -0.193273
  18 C :   -0.080476
  19 C :   -0.058675
  20 C :   -0.167866
  21 H :    0.046662
  22 C :   -0.029847
  23 H :    0.006701
  24 H :    0.044089
  25 C :   -0.041883
  26 H :    0.020243
  27 H :    0.024599
  28 C :   -0.049013
  29 H :    0.024946
  30 H :    0.018020
  31 H :    0.024097
  32 H :    0.029487
  33 H :    0.048877

  Mayer bond orders larger than 0.100000
B(  0-S ,  1-C ) :   1.1711 B(  0-S ,  4-C ) :   1.1499 B(  1-C ,  2-C ) :   1.5483
B(  1-C ,  4-C ) :   0.1040 B(  1-C , 32-H ) :   0.9690 B(  2-C ,  3-C ) :   1.3147
B(  2-C ,  6-C ) :   0.9978 B(  3-C ,  4-C ) :   1.5324 B(  3-C ,  5-H ) :   0.9881
B(  4-C , 20-C ) :   1.0543 B(  6-C ,  7-H ) :   0.9417 B(  6-C ,  8-H ) :   0.9554
B(  6-C ,  9-C ) :   1.0404 B(  9-C , 10-H ) :   0.9529 B(  9-C , 11-H ) :   0.9619
B(  9-C , 12-C ) :   1.0710 B( 12-C , 13-H ) :   0.9750 B( 12-C , 14-H ) :   0.9760
B( 12-C , 15-H ) :   0.9763 B( 16-S , 17-C ) :   1.1443 B( 16-S , 20-C ) :   1.1223
B( 17-C , 18-C ) :   1.6175 B( 17-C , 33-H ) :   0.9547 B( 18-C , 19-C ) :   1.2443
B( 18-C , 21-H ) :   0.9717 B( 19-C , 20-C ) :   1.5910 B( 19-C , 22-C ) :   1.0625
B( 22-C , 23-H ) :   0.9126 B( 22-C , 24-H ) :   0.9343 B( 22-C , 25-C ) :   1.0437
B( 25-C , 26-H ) :   0.9608 B( 25-C , 27-H ) :   0.9540 B( 25-C , 28-C ) :   1.0749
B( 28-C , 29-H ) :   0.9778 B( 28-C , 30-H ) :   0.9738 B( 28-C , 31-H ) :   0.9794

Dispersion correction           -0.014263305
FINAL SINGLE POINT ENERGY     -1339.856244070496

DIPOLE MOMENT
-------------
                                X             Y             Z
Electronic contribution:    -27.57837      -8.39614      -0.49582
Nuclear contribution   :     28.15983       8.47521       0.25686
                        -----------------------------------------
Total Dipole Moment    :      0.58145       0.07908      -0.23896
                        -----------------------------------------
Magnitude (a.u.)       :      0.63359
Magnitude (Debye)      :      1.61047

Rotational constants in cm-1:     0.019671     0.007952     0.006468
Rotational constants in MHz :   589.724121   238.403807   193.905353

                             ****ORCA TERMINATED NORMALLY****
TOTAL RUN TIME: 0 days 0 hours 0 minutes 20 seconds 230 msec
