                         Program Version 4.2.1 -  RELEASE  -
|  1> ! wB97X-D3 SP def2-SVP
|  2> %pal
|  3> nprocs 24
|  4> end
|  5>
|  6> * xyz 0 1
|  7> S 	 -38.1955 	 -8.00048 	 10.059
|  8> C 	 -36.8652 	 -7.29968 	 10.8787
|  9> C 	 -37.2661 	 -6.20003 	 11.6494
| 10> C 	 -38.6687 	 -5.90338 	 11.4866
| 11> C 	 -39.2709 	 -6.68978 	 10.5654
| 12> H 	 -39.2072 	 -5.0273 	 11.7831
| 13> C 	 -36.3241 	 -5.40133 	 12.6146
| 14> H 	 -35.4131 	 -5.99055 	 12.7627
| 15> H 	 -36.9262 	 -5.31642 	 13.5172
| 16> C 	 -35.7893 	 -4.04359 	 12.115
| 17> H 	 -35.0475 	 -3.69291 	 12.7534
| 18> H 	 -35.2712 	 -4.22222 	 11.1371
| 19> C 	 -36.8436 	 -2.89064 	 12.0871
| 20> H 	 -37.8145 	 -3.07962 	 11.5157
| 21> H 	 -37.2097 	 -2.76164 	 13.0577
| 22> H 	 -36.3947 	 -1.99558 	 11.6965
| 23> S 	 -41.739 	 -7.79871 	 10.379
| 24> C 	 -43.0813 	 -6.86756 	 9.81195
| 25> C 	 -42.6406 	 -5.6536 	 9.44179
| 26> C 	 -41.2902 	 -5.34483 	 9.66618
| 27> C 	 -40.592 	 -6.47486 	 10.0816
| 28> H 	 -43.3874 	 -4.92749 	 9.19
| 29> C 	 -40.6665 	 -3.99981 	 9.32699
| 30> H 	 -39.5729 	 -4.16324 	 9.26043
| 31> H 	 -40.7299 	 -3.36021 	 10.2184
| 32> C 	 -41.1424 	 -3.1662 	 8.20276
| 33> H 	 -42.148 	 -2.97213 	 8.2967
| 34> H 	 -41.0105 	 -3.62917 	 7.24161
| 35> C 	 -40.5318 	 -1.77754 	 8.18643
| 36> H 	 -40.7325 	 -1.15305 	 7.31551
| 37> H 	 -39.4819 	 -1.91601 	 8.38282
| 38> H 	 -40.774 	 -1.11817 	 9.00931
| 39> H 	 -35.8652 	 -7.59391 	 10.7856
| 40> H 	 -44.1046 	 -7.18319 	 9.65484
| 41> *
| 42>
| 43>                          ****END OF INPUT****

CARTESIAN COORDINATES (ANGSTROEM)
---------------------------------
  S    -38.195500   -8.000480   10.059000
  C    -36.865200   -7.299680   10.878700
  C    -37.266100   -6.200030   11.649400
  C    -38.668700   -5.903380   11.486600
  C    -39.270900   -6.689780   10.565400
  H    -39.207200   -5.027300   11.783100
  C    -36.324100   -5.401330   12.614600
  H    -35.413100   -5.990550   12.762700
  H    -36.926200   -5.316420   13.517200
  C    -35.789300   -4.043590   12.115000
  H    -35.047500   -3.692910   12.753400
  H    -35.271200   -4.222220   11.137100
  C    -36.843600   -2.890640   12.087100
  H    -37.814500   -3.079620   11.515700
  H    -37.209700   -2.761640   13.057700
  H    -36.394700   -1.995580   11.696500
  S    -41.739000   -7.798710   10.379000
  C    -43.081300   -6.867560    9.811950
  C    -42.640600   -5.653600    9.441790
  C    -41.290200   -5.344830    9.666180
  C    -40.592000   -6.474860   10.081600
  H    -43.387400   -4.927490    9.190000
  C    -40.666500   -3.999810    9.326990
  H    -39.572900   -4.163240    9.260430
  H    -40.729900   -3.360210   10.218400
  C    -41.142400   -3.166200    8.202760
  H    -42.148000   -2.972130    8.296700
  H    -41.010500   -3.629170    7.241610
  C    -40.531800   -1.777540    8.186430
  H    -40.732500   -1.153050    7.315510
  H    -39.481900   -1.916010    8.382820
  H    -40.774000   -1.118170    9.009310
  H    -35.865200   -7.593910   10.785600
  H    -44.104600   -7.183190    9.654840

 Total Charge           Charge          ....    0
 Multiplicity           Mult            ....    1
 Number of Electrons    NEL             ....  134
 Basis Dimension        Dim             ....  322

ORBITAL ENERGIES
----------------

  NO   OCC          E(Eh)            E(eV)
   0   2.0000     -88.965804     -2420.8826
   1   2.0000     -88.960877     -2420.7485
   2   2.0000     -10.325301      -280.9657
   3   2.0000     -10.323569      -280.9186
   4   2.0000     -10.311158      -280.5809
   5   2.0000     -10.310902      -280.5739
   6   2.0000     -10.305964      -280.4395
   7   2.0000     -10.304093      -280.3886
   8   2.0000     -10.296969      -280.1948
   9   2.0000     -10.292725      -280.0793
  10   2.0000     -10.290947      -280.0309
  11   2.0000     -10.288672      -279.9690
  12   2.0000     -10.282770      -279.8084
  13   2.0000     -10.279412      -279.7170
  14   2.0000     -10.275973      -279.6234
  15   2.0000     -10.274547      -279.5846
  16   2.0000      -8.080969      -219.8944
  17   2.0000      -8.075911      -219.7567
  18   2.0000      -6.039461      -164.3421
  19   2.0000      -6.035462      -164.2333
  20   2.0000      -6.034435      -164.2053
  21   2.0000      -6.031667      -164.1300
  22   2.0000      -6.030322      -164.0934
  23   2.0000      -6.026675      -163.9942
  24   2.0000      -1.011237       -27.5172
  25   2.0000      -0.987661       -26.8756
  26   2.0000      -0.920605       -25.0509
  27   2.0000      -0.905850       -24.6494
  28   2.0000      -0.879093       -23.9213
  29   2.0000      -0.854414       -23.2498
  30   2.0000      -0.845188       -22.9987
  31   2.0000      -0.817847       -22.2547
  32   2.0000      -0.785048       -21.3622
  33   2.0000      -0.774389       -21.0722
  34   2.0000      -0.713371       -19.4118
  35   2.0000      -0.705518       -19.1981
  36   2.0000      -0.703807       -19.1515
  37   2.0000      -0.657337       -17.8871
  38   2.0000      -0.646243       -17.5852
  39   2.0000      -0.615923       -16.7601
  40   2.0000      -0.602432       -16.3930
  41   2.0000      -0.572241       -15.5715
  42   2.0000      -0.569468       -15.4960
  43   2.0000      -0.548817       -14.9341
  44   2.0000      -0.540591       -14.7102
  45   2.0000      -0.535236       -14.5645
  46   2.0000      -0.521042       -14.1783
  47   2.0000      -0.513875       -13.9833
  48   2.0000      -0.509823       -13.8730
  49   2.0000      -0.509407       -13.8617
  50   2.0000      -0.489489       -13.3197
  51   2.0000      -0.482374       -13.1261
  52   2.0000      -0.470294       -12.7973
  53   2.0000      -0.467492       -12.7211
  54   2.0000      -0.460206       -12.5228
  55   2.0000      -0.451613       -12.2890
  56   2.0000      -0.441794       -12.0218
  57   2.0000      -0.438072       -11.9205
  58   2.0000      -0.434788       -11.8312
  59   2.0000      -0.427676       -11.6376
  60   2.0000      -0.421181       -11.4609
  61   2.0000      -0.413960       -11.2644
  62   2.0000      -0.412093       -11.2136
  63   2.0000      -0.350021        -9.5246
  64   2.0000      -0.330202        -8.9852
  65   2.0000      -0.329550        -8.9675
  66   2.0000      -0.293095        -7.9755
  67   0.0000       0.031969         0.8699
  68   0.0000       0.067592         1.8393
  69   0.0000       0.118782         3.2322
  70   0.0000       0.125583         3.4173
  71   0.0000       0.128355         3.4927

MULLIKEN ATOMIC CHARGES
-----------------------
   0 S :    0.121561
   1 C :   -0.090091
   2 C :   -0.109112
   3 C :    0.045749
   4 C :   -0.162715
   5 H :    0.007051
   6 C :    0.059508
   7 H :    0.021976
   8 H :    0.035392
   9 C :   -0.044640
  10 H :    0.020324
  11 H :    0.032288
  12 C :   -0.055470
  13 H :    0.030954
  14 H :    0.014931
  15 H :    0.036950
  16 S :    0.091943
  17 C :   -0.070872
  18 C :   -0.051007
  19 C :   -0.000092
  20 C :   -0.165584
  21 H :    0.008572
  22 C :    0.015814
  23 H :    0.038136
  24 H :    0.027125
  25 C :    0.007762
  26 H :    0.006163
  27 H :    0.031049
  28 C :   -0.059156
  29 H :    0.040376
  30 H :    0.015621
  31 H :    0.016693
  32 H :    0.028557
  33 H :    0.054242
Sum of atomic charges:   -0.0000000

LOEWDIN ATOMIC CHARGES
----------------------
   0 S :    0.410971
   1 C :   -0.198992
   2 C :   -0.058160
   3 C :   -0.057992
   4 C :   -0.195630
   5 H :    0.029264
   6 C :   -0.027721
   7 H :    0.031719
   8 H :    0.031212
   9 C :   -0.036095
  10 H :    0.016822
  11 H :    0.029064
  12 C :   -0.066633
  13 H :    0.028374
  14 H :    0.015856
  15 H :    0.025155
  16 S :    0.401316
  17 C :   -0.187699
  18 C :   -0.080335
  19 C :   -0.053986
  20 C :   -0.185425
  21 H :    0.027545
  22 C :   -0.037136
  23 H :    0.035134
  24 H :    0.033378
  25 C :   -0.035831
  26 H :    0.014091
  27 H :    0.027259
  28 C :   -0.064329
  29 H :    0.030004
  30 H :    0.022195
  31 H :    0.022837
  32 H :    0.019082
  33 H :    0.034687

  Mayer bond orders larger than 0.100000
B(  0-S ,  1-C ) :   1.1441 B(  0-S ,  4-C ) :   1.1342 B(  1-C ,  2-C ) :   1.6206
B(  1-C , 32-H ) :   0.9750 B(  2-C ,  3-C ) :   1.2146 B(  2-C ,  6-C ) :   1.0149
B(  3-C ,  4-C ) :   1.6000 B(  3-C ,  5-H ) :   0.9943 B(  4-C , 20-C ) :   1.0404
B(  6-C ,  7-H ) :   0.9406 B(  6-C ,  8-H ) :   0.9458 B(  6-C ,  9-C ) :   1.0764
B(  9-C , 10-H ) :   0.9546 B(  9-C , 11-H ) :   0.9541 B(  9-C , 12-C ) :   1.0707
B( 12-C , 13-H ) :   0.9753 B( 12-C , 14-H ) :   0.9743 B( 12-C , 15-H ) :   0.9743
B( 16-S , 17-C ) :   1.1497 B( 16-S , 20-C ) :   1.1461 B( 17-C , 18-C ) :   1.6215
B( 17-C , 20-C ) :   0.1015 B( 17-C , 33-H ) :   0.9635 B( 18-C , 19-C ) :   1.2530
B( 18-C , 21-H ) :   0.9869 B( 19-C , 20-C ) :   1.5864 B( 19-C , 22-C ) :   1.0303
B( 22-C , 23-H ) :   0.9334 B( 22-C , 24-H ) :   0.9232 B( 22-C , 25-C ) :   1.0858
B( 25-C , 26-H ) :   0.9365 B( 25-C , 27-H ) :   0.9512 B( 25-C , 28-C ) :   1.0850
B( 28-C , 29-H ) :   0.9726 B( 28-C , 30-H ) :   0.9740 B( 28-C , 31-H ) :   0.9698

Dispersion correction           -0.014448443
FINAL SINGLE POINT ENERGY     -1339.869337150436

DIPOLE MOMENT
-------------
                                X             Y             Z
Electronic contribution:     -8.88600     -30.55949      -0.59102
Nuclear contribution   :      9.02921      31.36451       0.70470
                        -----------------------------------------
Total Dipole Moment    :      0.14321       0.80502       0.11368
                        -----------------------------------------
Magnitude (a.u.)       :      0.82552
Magnitude (Debye)      :      2.09831

Rotational constants in cm-1:     0.015535     0.010283     0.006900
Rotational constants in MHz :   465.713722   308.290441   206.844330

                             ****ORCA TERMINATED NORMALLY****
TOTAL RUN TIME: 0 days 0 hours 0 minutes 20 seconds 860 msec
