                         Program Version 4.2.1 -  RELEASE  -
|  1> ! wB97X-D3 SP def2-SVP
|  2> %pal
|  3> nprocs 24
|  4> end
|  5>
|  6> * xyz 0 1
|  7> S 	 -45.0498 	 -4.21988 	 18.4123
|  8> C 	 -45.5358 	 -2.87297 	 17.4216
|  9> C 	 -45.3533 	 -3.12031 	 16.0651
| 10> C 	 -44.8391 	 -4.47099 	 15.8408
| 11> C 	 -44.5627 	 -5.19538 	 16.969
| 12> H 	 -44.7275 	 -4.89763 	 14.9211
| 13> C 	 -45.6125 	 -2.24802 	 14.8831
| 14> H 	 -44.8134 	 -2.44449 	 14.2268
| 15> H 	 -45.5532 	 -1.22815 	 15.1827
| 16> C 	 -46.9577 	 -2.56543 	 14.1806
| 17> H 	 -46.9529 	 -3.66596 	 14.021
| 18> H 	 -47.783 	 -2.35198 	 14.8214
| 19> C 	 -47.2261 	 -1.94314 	 12.8844
| 20> H 	 -47.1689 	 -0.866007 	 13.0461
| 21> H 	 -46.4741 	 -2.22203 	 12.16
| 22> H 	 -48.1986 	 -2.20797 	 12.5089
| 23> S 	 -45.245 	 -7.7665 	 17.7739
| 24> C 	 -44.2464 	 -9.06304 	 17.3451
| 25> C 	 -43.1469 	 -8.61282 	 16.6935
| 26> C 	 -43.0765 	 -7.22674 	 16.3761
| 27> C 	 -44.1643 	 -6.60184 	 17.0481
| 28> H 	 -42.4497 	 -9.43045 	 16.4589
| 29> C 	 -41.957 	 -6.5964 	 15.5405
| 30> H 	 -41.0933 	 -6.57478 	 16.2109
| 31> H 	 -42.2164 	 -5.5536 	 15.2216
| 32> C 	 -41.6727 	 -7.59997 	 14.3326
| 33> H 	 -42.6105 	 -7.93058 	 13.9324
| 34> H 	 -41.2321 	 -8.497 	 14.7285
| 35> C 	 -40.6757 	 -7.00576 	 13.2877
| 36> H 	 -41.0931 	 -6.22226 	 12.6807
| 37> H 	 -40.4476 	 -7.83903 	 12.6041
| 38> H 	 -39.8767 	 -6.59154 	 13.8614
| 39> H 	 -45.887 	 -1.92278 	 17.8096
| 40> H 	 -44.6122 	 -10.0892 	 17.3284
| 41> *
| 42>
| 43>                          ****END OF INPUT****

CARTESIAN COORDINATES (ANGSTROEM)
---------------------------------
  S    -45.049800   -4.219880   18.412300
  C    -45.535800   -2.872970   17.421600
  C    -45.353300   -3.120310   16.065100
  C    -44.839100   -4.470990   15.840800
  C    -44.562700   -5.195380   16.969000
  H    -44.727500   -4.897630   14.921100
  C    -45.612500   -2.248020   14.883100
  H    -44.813400   -2.444490   14.226800
  H    -45.553200   -1.228150   15.182700
  C    -46.957700   -2.565430   14.180600
  H    -46.952900   -3.665960   14.021000
  H    -47.783000   -2.351980   14.821400
  C    -47.226100   -1.943140   12.884400
  H    -47.168900   -0.866007   13.046100
  H    -46.474100   -2.222030   12.160000
  H    -48.198600   -2.207970   12.508900
  S    -45.245000   -7.766500   17.773900
  C    -44.246400   -9.063040   17.345100
  C    -43.146900   -8.612820   16.693500
  C    -43.076500   -7.226740   16.376100
  C    -44.164300   -6.601840   17.048100
  H    -42.449700   -9.430450   16.458900
  C    -41.957000   -6.596400   15.540500
  H    -41.093300   -6.574780   16.210900
  H    -42.216400   -5.553600   15.221600
  C    -41.672700   -7.599970   14.332600
  H    -42.610500   -7.930580   13.932400
  H    -41.232100   -8.497000   14.728500
  C    -40.675700   -7.005760   13.287700
  H    -41.093100   -6.222260   12.680700
  H    -40.447600   -7.839030   12.604100
  H    -39.876700   -6.591540   13.861400
  H    -45.887000   -1.922780   17.809600
  H    -44.612200  -10.089200   17.328400

 Total Charge           Charge          ....    0
 Multiplicity           Mult            ....    1
 Number of Electrons    NEL             ....  134
 Basis Dimension        Dim             ....  322

ORBITAL ENERGIES
----------------

  NO   OCC          E(Eh)            E(eV)
   0   2.0000     -88.963611     -2420.8229
   1   2.0000     -88.961683     -2420.7705
   2   2.0000     -10.329965      -281.0926
   3   2.0000     -10.327934      -281.0374
   4   2.0000     -10.314124      -280.6616
   5   2.0000     -10.309766      -280.5430
   6   2.0000     -10.308936      -280.5204
   7   2.0000     -10.303109      -280.3618
   8   2.0000     -10.300391      -280.2879
   9   2.0000     -10.290214      -280.0110
  10   2.0000     -10.289388      -279.9885
  11   2.0000     -10.286641      -279.9137
  12   2.0000     -10.285258      -279.8761
  13   2.0000     -10.279838      -279.7286
  14   2.0000     -10.279439      -279.7178
  15   2.0000     -10.271552      -279.5031
  16   2.0000      -8.079614      -219.8575
  17   2.0000      -8.075787      -219.7533
  18   2.0000      -6.037981      -164.3018
  19   2.0000      -6.034501      -164.2071
  20   2.0000      -6.033818      -164.1885
  21   2.0000      -6.030562      -164.0999
  22   2.0000      -6.030389      -164.0952
  23   2.0000      -6.026373      -163.9860
  24   2.0000      -1.006334       -27.3837
  25   2.0000      -0.981283       -26.7021
  26   2.0000      -0.916940       -24.9512
  27   2.0000      -0.905702       -24.6454
  28   2.0000      -0.871488       -23.7144
  29   2.0000      -0.853562       -23.2266
  30   2.0000      -0.847936       -23.0735
  31   2.0000      -0.815961       -22.2034
  32   2.0000      -0.783149       -21.3106
  33   2.0000      -0.770049       -20.9541
  34   2.0000      -0.707817       -19.2607
  35   2.0000      -0.699617       -19.0375
  36   2.0000      -0.695966       -18.9382
  37   2.0000      -0.652396       -17.7526
  38   2.0000      -0.638833       -17.3835
  39   2.0000      -0.624403       -16.9909
  40   2.0000      -0.597124       -16.2486
  41   2.0000      -0.573834       -15.6148
  42   2.0000      -0.565720       -15.3940
  43   2.0000      -0.560119       -15.2416
  44   2.0000      -0.535045       -14.5593
  45   2.0000      -0.531002       -14.4493
  46   2.0000      -0.518803       -14.1174
  47   2.0000      -0.513065       -13.9612
  48   2.0000      -0.507819       -13.8185
  49   2.0000      -0.499947       -13.6042
  50   2.0000      -0.494593       -13.4586
  51   2.0000      -0.482773       -13.1369
  52   2.0000      -0.474157       -12.9025
  53   2.0000      -0.461353       -12.5541
  54   2.0000      -0.456738       -12.4285
  55   2.0000      -0.450408       -12.2562
  56   2.0000      -0.445162       -12.1135
  57   2.0000      -0.440020       -11.9736
  58   2.0000      -0.431109       -11.7311
  59   2.0000      -0.426607       -11.6086
  60   2.0000      -0.421967       -11.4823
  61   2.0000      -0.415511       -11.3066
  62   2.0000      -0.414566       -11.2809
  63   2.0000      -0.348953        -9.4955
  64   2.0000      -0.330153        -8.9839
  65   2.0000      -0.322324        -8.7709
  66   2.0000      -0.291052        -7.9199
  67   0.0000       0.036282         0.9873
  68   0.0000       0.067906         1.8478
  69   0.0000       0.119352         3.2477
  70   0.0000       0.121728         3.3124
  71   0.0000       0.129657         3.5281

MULLIKEN ATOMIC CHARGES
-----------------------
   0 S :    0.092806
   1 C :   -0.117224
   2 C :   -0.109121
   3 C :    0.059372
   4 C :   -0.154836
   5 H :   -0.023536
   6 C :    0.124050
   7 H :    0.007442
   8 H :    0.008818
   9 C :   -0.096191
  10 H :    0.022242
  11 H :    0.021093
  12 C :    0.001017
  13 H :    0.021945
  14 H :    0.022179
  15 H :    0.033908
  16 S :    0.121447
  17 C :   -0.107100
  18 C :   -0.066060
  19 C :   -0.032051
  20 C :   -0.164664
  21 H :    0.024251
  22 C :    0.083705
  23 H :    0.046392
  24 H :    0.038102
  25 C :   -0.123837
  26 H :    0.030972
  27 H :    0.029209
  28 C :   -0.010217
  29 H :    0.028725
  30 H :    0.040952
  31 H :    0.030940
  32 H :    0.045870
  33 H :    0.069402
Sum of atomic charges:   -0.0000000

LOEWDIN ATOMIC CHARGES
----------------------
   0 S :    0.375615
   1 C :   -0.198779
   2 C :   -0.057959
   3 C :   -0.050888
   4 C :   -0.173730
   5 H :    0.012914
   6 C :   -0.024660
   7 H :    0.025612
   8 H :    0.024406
   9 C :   -0.040974
  10 H :    0.025325
  11 H :    0.021138
  12 C :   -0.059957
  13 H :    0.024557
  14 H :    0.022103
  15 H :    0.027561
  16 S :    0.434878
  17 C :   -0.211570
  18 C :   -0.082880
  19 C :   -0.049175
  20 C :   -0.208588
  21 H :    0.032937
  22 C :   -0.027489
  23 H :    0.037382
  24 H :    0.033993
  25 C :   -0.033445
  26 H :    0.019082
  27 H :    0.020287
  28 C :   -0.060118
  29 H :    0.021398
  30 H :    0.032037
  31 H :    0.023991
  32 H :    0.028754
  33 H :    0.036243

  Mayer bond orders larger than 0.100000
B(  0-S ,  1-C ) :   1.1293 B(  0-S ,  4-C ) :   1.1219 B(  1-C ,  2-C ) :   1.6328
B(  1-C , 32-H ) :   0.9672 B(  2-C ,  3-C ) :   1.2107 B(  2-C ,  6-C ) :   1.0365
B(  3-C ,  4-C ) :   1.6136 B(  3-C ,  5-H ) :   0.9997 B(  4-C , 20-C ) :   1.0330
B(  6-C ,  7-H ) :   0.9310 B(  6-C ,  8-H ) :   0.9316 B(  6-C ,  9-C ) :   1.0626
B(  9-C , 10-H ) :   0.9547 B(  9-C , 11-H ) :   0.9527 B(  9-C , 12-C ) :   1.1005
B( 12-C , 13-H ) :   0.9689 B( 12-C , 14-H ) :   0.9711 B( 12-C , 15-H ) :   0.9695
B( 16-S , 17-C ) :   1.1671 B( 16-S , 20-C ) :   1.1747 B( 17-C , 18-C ) :   1.6092
B( 17-C , 33-H ) :   0.9632 B( 18-C , 19-C ) :   1.2431 B( 18-C , 21-H ) :   0.9831
B( 19-C , 20-C ) :   1.5502 B( 19-C , 22-C ) :   1.0393 B( 22-C , 23-H ) :   0.9290
B( 22-C , 24-H ) :   0.9405 B( 22-C , 25-C ) :   1.0496 B( 25-C , 26-H ) :   0.9668
B( 25-C , 27-H ) :   0.9493 B( 25-C , 28-C ) :   1.0774 B( 28-C , 29-H ) :   0.9785
B( 28-C , 30-H ) :   0.9746 B( 28-C , 31-H ) :   0.9719

Dispersion correction           -0.013502711
FINAL SINGLE POINT ENERGY     -1339.876064979097

DIPOLE MOMENT
-------------
                                X             Y             Z
Electronic contribution:     -6.25375      -8.04218      27.08898
Nuclear contribution   :      6.41792       8.00638     -27.86943
                        -----------------------------------------
Total Dipole Moment    :      0.16418      -0.03581      -0.78045
                        -----------------------------------------
Magnitude (a.u.)       :      0.79833
Magnitude (Debye)      :      2.02920

Rotational constants in cm-1:     0.016063     0.008414     0.006469
Rotational constants in MHz :   481.570102   252.230751   193.947932

                             ****ORCA TERMINATED NORMALLY****
TOTAL RUN TIME: 0 days 0 hours 0 minutes 21 seconds 76 msec
