                         Program Version 4.2.1 -  RELEASE  -
|  1> ! wB97X-D3 SP def2-SVP
|  2> %pal
|  3> nprocs 24
|  4> end
|  5>
|  6> * xyz 0 1
|  7> S 	 -100.181 	 7.84817 	 3.38581
|  8> C 	 -100.293 	 6.41701 	 2.31871
|  9> C 	 -99.8584 	 5.3385 	 3.06396
| 10> C 	 -99.6925 	 5.5921 	 4.46579
| 11> C 	 -99.8531 	 6.89809 	 4.82723
| 12> H 	 -99.3787 	 4.78059 	 5.19834
| 13> C 	 -99.872 	 3.90593 	 2.53238
| 14> H 	 -100.865 	 3.62957 	 2.11116
| 15> H 	 -99.7436 	 3.08023 	 3.28093
| 16> C 	 -98.7874 	 3.70169 	 1.46113
| 17> H 	 -98.9762 	 4.50256 	 0.710436
| 18> H 	 -97.7579 	 3.808 	 1.73131
| 19> C 	 -98.8508 	 2.31025 	 0.773486
| 20> H 	 -98.0381 	 2.24298 	 0.103076
| 21> H 	 -98.8083 	 1.45628 	 1.48689
| 22> H 	 -99.7104 	 2.25482 	 -0.000155682
| 23> S 	 -101.235 	 8.53066 	 6.50875
| 24> C 	 -100.686 	 8.6678 	 8.13311
| 25> C 	 -99.637 	 7.80245 	 8.46445
| 26> C 	 -99.0932 	 7.2038 	 7.26908
| 27> C 	 -99.8898 	 7.4207 	 6.15483
| 28> H 	 -99.1776 	 7.8081 	 9.46686
| 29> C 	 -97.66 	 6.54503 	 7.2872
| 30> H 	 -97.6359 	 5.76943 	 6.55214
| 31> H 	 -97.5948 	 5.80866 	 8.16718
| 32> C 	 -96.4748 	 7.48161 	 7.06398
| 33> H 	 -96.3439 	 8.00579 	 8.01906
| 34> H 	 -96.6825 	 8.27306 	 6.27195
| 35> C 	 -95.27 	 6.62466 	 6.5911
| 36> H 	 -94.526 	 7.24397 	 6.03997
| 37> H 	 -95.5004 	 5.97451 	 5.75797
| 38> H 	 -94.798 	 6.03045 	 7.32318
| 39> H 	 -100.502 	 6.47954 	 1.29019
| 40> H 	 -101.196 	 9.27452 	 8.92363
| 41> *
| 42>
| 43>                          ****END OF INPUT****

CARTESIAN COORDINATES (ANGSTROEM)
---------------------------------
  S    -100.181000    7.848170    3.385810
  C    -100.293000    6.417010    2.318710
  C    -99.858400    5.338500    3.063960
  C    -99.692500    5.592100    4.465790
  C    -99.853100    6.898090    4.827230
  H    -99.378700    4.780590    5.198340
  C    -99.872000    3.905930    2.532380
  H    -100.865000    3.629570    2.111160
  H    -99.743600    3.080230    3.280930
  C    -98.787400    3.701690    1.461130
  H    -98.976200    4.502560    0.710436
  H    -97.757900    3.808000    1.731310
  C    -98.850800    2.310250    0.773486
  H    -98.038100    2.242980    0.103076
  H    -98.808300    1.456280    1.486890
  H    -99.710400    2.254820   -0.000156
  S    -101.235000    8.530660    6.508750
  C    -100.686000    8.667800    8.133110
  C    -99.637000    7.802450    8.464450
  C    -99.093200    7.203800    7.269080
  C    -99.889800    7.420700    6.154830
  H    -99.177600    7.808100    9.466860
  C    -97.660000    6.545030    7.287200
  H    -97.635900    5.769430    6.552140
  H    -97.594800    5.808660    8.167180
  C    -96.474800    7.481610    7.063980
  H    -96.343900    8.005790    8.019060
  H    -96.682500    8.273060    6.271950
  C    -95.270000    6.624660    6.591100
  H    -94.526000    7.243970    6.039970
  H    -95.500400    5.974510    5.757970
  H    -94.798000    6.030450    7.323180
  H    -100.502000    6.479540    1.290190
  H    -101.196000    9.274520    8.923630

 Total Charge           Charge          ....    0
 Multiplicity           Mult            ....    1
 Number of Electrons    NEL             ....  134
 Basis Dimension        Dim             ....  322

ORBITAL ENERGIES
----------------

  NO   OCC          E(Eh)            E(eV)
   0   2.0000     -88.968512     -2420.9563
   1   2.0000     -88.963335     -2420.8154
   2   2.0000     -10.327461      -281.0245
   3   2.0000     -10.326741      -281.0049
   4   2.0000     -10.321079      -280.8508
   5   2.0000     -10.316387      -280.7232
   6   2.0000     -10.309850      -280.5453
   7   2.0000     -10.303641      -280.3763
   8   2.0000     -10.298206      -280.2284
   9   2.0000     -10.297351      -280.2052
  10   2.0000     -10.296405      -280.1794
  11   2.0000     -10.296043      -280.1696
  12   2.0000     -10.295680      -280.1597
  13   2.0000     -10.286573      -279.9119
  14   2.0000     -10.283729      -279.8345
  15   2.0000     -10.277299      -279.6595
  16   2.0000      -8.083282      -219.9573
  17   2.0000      -8.077521      -219.8005
  18   2.0000      -6.041679      -164.4024
  19   2.0000      -6.037853      -164.2983
  20   2.0000      -6.036225      -164.2540
  21   2.0000      -6.034067      -164.1953
  22   2.0000      -6.032062      -164.1407
  23   2.0000      -6.028139      -164.0340
  24   2.0000      -1.006138       -27.3784
  25   2.0000      -0.981295       -26.7024
  26   2.0000      -0.907315       -24.6893
  27   2.0000      -0.904080       -24.6013
  28   2.0000      -0.869449       -23.6589
  29   2.0000      -0.850299       -23.1378
  30   2.0000      -0.839883       -22.8544
  31   2.0000      -0.810696       -22.0602
  32   2.0000      -0.780590       -21.2409
  33   2.0000      -0.769260       -20.9326
  34   2.0000      -0.708282       -19.2733
  35   2.0000      -0.699935       -19.0462
  36   2.0000      -0.692349       -18.8398
  37   2.0000      -0.659818       -17.9546
  38   2.0000      -0.641794       -17.4641
  39   2.0000      -0.615855       -16.7583
  40   2.0000      -0.592964       -16.1354
  41   2.0000      -0.568903       -15.4806
  42   2.0000      -0.559571       -15.2267
  43   2.0000      -0.552452       -15.0330
  44   2.0000      -0.523686       -14.2502
  45   2.0000      -0.522834       -14.2270
  46   2.0000      -0.518764       -14.1163
  47   2.0000      -0.509180       -13.8555
  48   2.0000      -0.500889       -13.6299
  49   2.0000      -0.495863       -13.4931
  50   2.0000      -0.494846       -13.4655
  51   2.0000      -0.480299       -13.0696
  52   2.0000      -0.473965       -12.8972
  53   2.0000      -0.464218       -12.6320
  54   2.0000      -0.454814       -12.3761
  55   2.0000      -0.449832       -12.2406
  56   2.0000      -0.440286       -11.9808
  57   2.0000      -0.437705       -11.9106
  58   2.0000      -0.430674       -11.7192
  59   2.0000      -0.417263       -11.3543
  60   2.0000      -0.414314       -11.2741
  61   2.0000      -0.409852       -11.1526
  62   2.0000      -0.408532       -11.1167
  63   2.0000      -0.350226        -9.5301
  64   2.0000      -0.334371        -9.0987
  65   2.0000      -0.328242        -8.9319
  66   2.0000      -0.289524        -7.8783
  67   0.0000       0.022739         0.6188
  68   0.0000       0.073095         1.9890
  69   0.0000       0.106785         2.9058
  70   0.0000       0.118651         3.2287
  71   0.0000       0.131275         3.5722

MULLIKEN ATOMIC CHARGES
-----------------------
   0 S :    0.088535
   1 C :   -0.117297
   2 C :   -0.042149
   3 C :    0.003036
   4 C :   -0.135470
   5 H :    0.044299
   6 C :    0.028782
   7 H :    0.040380
   8 H :    0.021996
   9 C :   -0.096155
  10 H :    0.022429
  11 H :    0.029306
  12 C :   -0.058313
  13 H :    0.018673
  14 H :    0.045205
  15 H :    0.035172
  16 S :    0.122240
  17 C :   -0.108494
  18 C :   -0.040645
  19 C :   -0.053282
  20 C :   -0.149375
  21 H :    0.034354
  22 C :    0.053847
  23 H :   -0.016862
  24 H :    0.031170
  25 C :   -0.049491
  26 H :    0.036867
  27 H :    0.054543
  28 C :   -0.049969
  29 H :    0.029896
  30 H :    0.025586
  31 H :    0.032680
  32 H :    0.044955
  33 H :    0.073551
Sum of atomic charges:    0.0000000

LOEWDIN ATOMIC CHARGES
----------------------
   0 S :    0.379815
   1 C :   -0.174290
   2 C :   -0.061929
   3 C :   -0.070840
   4 C :   -0.193407
   5 H :    0.043370
   6 C :   -0.038229
   7 H :    0.036154
   8 H :    0.028661
   9 C :   -0.043464
  10 H :    0.023811
  11 H :    0.021362
  12 C :   -0.073795
  13 H :    0.018260
  14 H :    0.028201
  15 H :    0.032862
  16 S :    0.412918
  17 C :   -0.197695
  18 C :   -0.077973
  19 C :   -0.049324
  20 C :   -0.193141
  21 H :    0.037275
  22 C :   -0.040543
  23 H :    0.016029
  24 H :    0.039176
  25 C :   -0.038648
  26 H :    0.026896
  27 H :    0.040089
  28 C :   -0.068279
  29 H :    0.032163
  30 H :    0.026822
  31 H :    0.019058
  32 H :    0.021196
  33 H :    0.037439

  Mayer bond orders larger than 0.100000
B(  0-S ,  1-C ) :   1.1187 B(  0-S ,  4-C ) :   1.1404 B(  1-C ,  2-C ) :   1.5912
B(  1-C , 32-H ) :   0.9815 B(  2-C ,  3-C ) :   1.2513 B(  2-C ,  6-C ) :   1.0127
B(  3-C ,  4-C ) :   1.5758 B(  3-C ,  5-H ) :   0.9785 B(  4-C , 20-C ) :   1.0710
B(  6-C ,  7-H ) :   0.9512 B(  6-C ,  8-H ) :   0.9521 B(  6-C ,  9-C ) :   1.0433
B(  9-C , 10-H ) :   0.9589 B(  9-C , 11-H ) :   0.9617 B(  9-C , 12-C ) :   1.0837
B( 12-C , 13-H ) :   0.9734 B( 12-C , 14-H ) :   0.9735 B( 12-C , 15-H ) :   0.9737
B( 16-S , 17-C ) :   1.1665 B( 16-S , 20-C ) :   1.1256 B( 17-C , 18-C ) :   1.6129
B( 17-C , 33-H ) :   0.9581 B( 18-C , 19-C ) :   1.2374 B( 18-C , 21-H ) :   0.9830
B( 19-C , 20-C ) :   1.6069 B( 19-C , 22-C ) :   1.0346 B( 22-C , 23-H ) :   0.9344
B( 22-C , 24-H ) :   0.9348 B( 22-C , 25-C ) :   1.0445 B( 25-C , 26-H ) :   0.9571
B( 25-C , 27-H ) :   0.9581 B( 25-C , 28-C ) :   1.0731 B( 28-C , 29-H ) :   0.9741
B( 28-C , 30-H ) :   0.9722 B( 28-C , 31-H ) :   0.9789

Dispersion correction           -0.013605846
FINAL SINGLE POINT ENERGY     -1339.863627216430

DIPOLE MOMENT
-------------
                                X             Y             Z
Electronic contribution:    -19.81578      20.71508       6.77259
Nuclear contribution   :     20.24446     -21.17972      -6.68344
                        -----------------------------------------
Total Dipole Moment    :      0.42868      -0.46464       0.08915
                        -----------------------------------------
Magnitude (a.u.)       :      0.63844
Magnitude (Debye)      :      1.62278

Rotational constants in cm-1:     0.018830     0.008001     0.006321
Rotational constants in MHz :   564.499253   239.876722   189.507734

                             ****ORCA TERMINATED NORMALLY****
TOTAL RUN TIME: 0 days 0 hours 0 minutes 19 seconds 979 msec
