                         Program Version 4.2.1 -  RELEASE  -
|  1> ! wB97X-D3 SP def2-SVP
|  2> %pal
|  3> nprocs 24
|  4> end
|  5>
|  6> * xyz 0 1
|  7> S 	 -86.9675 	 -33.2995 	 -72.8192
|  8> C 	 -85.5309 	 -33.3922 	 -73.8228
|  9> C 	 -85.6554 	 -32.6037 	 -74.9506
| 10> C 	 -86.9862 	 -32.1839 	 -75.1351
| 11> C 	 -87.8282 	 -32.6 	 -74.1855
| 12> H 	 -87.504 	 -31.6136 	 -75.9111
| 13> C 	 -84.5844 	 -32.3519 	 -76.0318
| 14> H 	 -84.9555 	 -32.7579 	 -76.9179
| 15> H 	 -83.7548 	 -32.9277 	 -75.7794
| 16> C 	 -84.3301 	 -30.844 	 -76.2469
| 17> H 	 -83.3918 	 -30.8429 	 -76.8082
| 18> H 	 -85.1691 	 -30.5166 	 -76.7897
| 19> C 	 -84.2494 	 -30.0561 	 -74.9507
| 20> H 	 -85.2172 	 -30.0052 	 -74.468
| 21> H 	 -83.4929 	 -30.2589 	 -74.2166
| 22> H 	 -84.0604 	 -29.0247 	 -75.1758
| 23> S 	 -89.9848 	 -32.2365 	 -72.4486
| 24> C 	 -91.4604 	 -31.6478 	 -73.1582
| 25> C 	 -91.449 	 -31.6983 	 -74.5099
| 26> C 	 -90.2721 	 -32.1963 	 -75.0707
| 27> C 	 -89.3195 	 -32.3567 	 -74.0917
| 28> H 	 -92.3101 	 -31.3021 	 -75.0555
| 29> C 	 -90.2094 	 -32.4168 	 -76.6312
| 30> H 	 -89.3499 	 -31.9743 	 -77.0532
| 31> H 	 -91.0629 	 -31.9616 	 -77.0934
| 32> C 	 -90.1083 	 -33.8179 	 -77.0178
| 33> H 	 -91.0469 	 -34.2189 	 -76.6039
| 34> H 	 -89.4255 	 -34.3668 	 -76.3905
| 35> C 	 -90.0523 	 -34.1857 	 -78.5226
| 36> H 	 -90.3198 	 -35.1991 	 -78.785
| 37> H 	 -89.0012 	 -34.1265 	 -78.7729
| 38> H 	 -90.74 	 -33.5386 	 -79.1614
| 39> H 	 -84.5093 	 -33.6616 	 -73.5792
| 40> H 	 -92.228 	 -31.2262 	 -72.5581
| 41> *
| 42>
| 43>                          ****END OF INPUT****

CARTESIAN COORDINATES (ANGSTROEM)
---------------------------------
  S    -86.967500  -33.299500  -72.819200
  C    -85.530900  -33.392200  -73.822800
  C    -85.655400  -32.603700  -74.950600
  C    -86.986200  -32.183900  -75.135100
  C    -87.828200  -32.600000  -74.185500
  H    -87.504000  -31.613600  -75.911100
  C    -84.584400  -32.351900  -76.031800
  H    -84.955500  -32.757900  -76.917900
  H    -83.754800  -32.927700  -75.779400
  C    -84.330100  -30.844000  -76.246900
  H    -83.391800  -30.842900  -76.808200
  H    -85.169100  -30.516600  -76.789700
  C    -84.249400  -30.056100  -74.950700
  H    -85.217200  -30.005200  -74.468000
  H    -83.492900  -30.258900  -74.216600
  H    -84.060400  -29.024700  -75.175800
  S    -89.984800  -32.236500  -72.448600
  C    -91.460400  -31.647800  -73.158200
  C    -91.449000  -31.698300  -74.509900
  C    -90.272100  -32.196300  -75.070700
  C    -89.319500  -32.356700  -74.091700
  H    -92.310100  -31.302100  -75.055500
  C    -90.209400  -32.416800  -76.631200
  H    -89.349900  -31.974300  -77.053200
  H    -91.062900  -31.961600  -77.093400
  C    -90.108300  -33.817900  -77.017800
  H    -91.046900  -34.218900  -76.603900
  H    -89.425500  -34.366800  -76.390500
  C    -90.052300  -34.185700  -78.522600
  H    -90.319800  -35.199100  -78.785000
  H    -89.001200  -34.126500  -78.772900
  H    -90.740000  -33.538600  -79.161400
  H    -84.509300  -33.661600  -73.579200
  H    -92.228000  -31.226200  -72.558100

 Total Charge           Charge          ....    0
 Multiplicity           Mult            ....    1
 Number of Electrons    NEL             ....  134
 Basis Dimension        Dim             ....  322

ORBITAL ENERGIES
----------------

  NO   OCC          E(Eh)            E(eV)
   0   2.0000     -88.967219     -2420.9211
   1   2.0000     -88.964255     -2420.8405
   2   2.0000     -10.333902      -281.1998
   3   2.0000     -10.327339      -281.0212
   4   2.0000     -10.311296      -280.5846
   5   2.0000     -10.309514      -280.5361
   6   2.0000     -10.305819      -280.4356
   7   2.0000     -10.297716      -280.2151
   8   2.0000     -10.290588      -280.0211
   9   2.0000     -10.289901      -280.0024
  10   2.0000     -10.285620      -279.8859
  11   2.0000     -10.284956      -279.8679
  12   2.0000     -10.284718      -279.8614
  13   2.0000     -10.281291      -279.7681
  14   2.0000     -10.277582      -279.6672
  15   2.0000     -10.267640      -279.3967
  16   2.0000      -8.082157      -219.9267
  17   2.0000      -8.078847      -219.8366
  18   2.0000      -6.040553      -164.3718
  19   2.0000      -6.037524      -164.2894
  20   2.0000      -6.036916      -164.2728
  21   2.0000      -6.033710      -164.1856
  22   2.0000      -6.032755      -164.1596
  23   2.0000      -6.029125      -164.0608
  24   2.0000      -1.010701       -27.5026
  25   2.0000      -0.990571       -26.9548
  26   2.0000      -0.918401       -24.9910
  27   2.0000      -0.913908       -24.8687
  28   2.0000      -0.865239       -23.5443
  29   2.0000      -0.855188       -23.2708
  30   2.0000      -0.843397       -22.9500
  31   2.0000      -0.817533       -22.2462
  32   2.0000      -0.791420       -21.5356
  33   2.0000      -0.781852       -21.2753
  34   2.0000      -0.707673       -19.2568
  35   2.0000      -0.700322       -19.0567
  36   2.0000      -0.691026       -18.8038
  37   2.0000      -0.662940       -18.0395
  38   2.0000      -0.641442       -17.4545
  39   2.0000      -0.621227       -16.9045
  40   2.0000      -0.606112       -16.4931
  41   2.0000      -0.572573       -15.5805
  42   2.0000      -0.563246       -15.3267
  43   2.0000      -0.559336       -15.2203
  44   2.0000      -0.536090       -14.5877
  45   2.0000      -0.525131       -14.2895
  46   2.0000      -0.518065       -14.0973
  47   2.0000      -0.512950       -13.9581
  48   2.0000      -0.499960       -13.6046
  49   2.0000      -0.498778       -13.5724
  50   2.0000      -0.489826       -13.3289
  51   2.0000      -0.481897       -13.1131
  52   2.0000      -0.477085       -12.9822
  53   2.0000      -0.467352       -12.7173
  54   2.0000      -0.458628       -12.4799
  55   2.0000      -0.454282       -12.3616
  56   2.0000      -0.443487       -12.0679
  57   2.0000      -0.442391       -12.0381
  58   2.0000      -0.437107       -11.8943
  59   2.0000      -0.430621       -11.7178
  60   2.0000      -0.424843       -11.5606
  61   2.0000      -0.411481       -11.1970
  62   2.0000      -0.397731       -10.8228
  63   2.0000      -0.356293        -9.6952
  64   2.0000      -0.341277        -9.2866
  65   2.0000      -0.328286        -8.9331
  66   2.0000      -0.285741        -7.7754
  67   0.0000       0.024276         0.6606
  68   0.0000       0.076218         2.0740
  69   0.0000       0.090804         2.4709
  70   0.0000       0.125325         3.4103
  71   0.0000       0.134028         3.6471

MULLIKEN ATOMIC CHARGES
-----------------------
   0 S :    0.087663
   1 C :   -0.083126
   2 C :   -0.146894
   3 C :   -0.015714
   4 C :   -0.105218
   5 H :    0.006736
   6 C :    0.152833
   7 H :    0.015153
   8 H :   -0.008620
   9 C :   -0.067892
  10 H :    0.038045
  11 H :    0.024932
  12 C :   -0.026643
  13 H :    0.037635
  14 H :    0.027372
  15 H :    0.015156
  16 S :    0.096575
  17 C :   -0.076212
  18 C :   -0.043154
  19 C :   -0.052393
  20 C :   -0.149823
  21 H :    0.023114
  22 C :    0.144433
  23 H :   -0.000299
  24 H :    0.008196
  25 C :   -0.094153
  26 H :    0.007325
  27 H :    0.031944
  28 C :   -0.033266
  29 H :    0.032722
  30 H :    0.033108
  31 H :    0.038737
  32 H :    0.037483
  33 H :    0.044244
Sum of atomic charges:   -0.0000000

LOEWDIN ATOMIC CHARGES
----------------------
   0 S :    0.379822
   1 C :   -0.201806
   2 C :   -0.055290
   3 C :   -0.080493
   4 C :   -0.172641
   5 H :    0.034954
   6 C :   -0.015965
   7 H :    0.024190
   8 H :    0.016165
   9 C :   -0.029928
  10 H :    0.029743
  11 H :    0.020940
  12 C :   -0.067574
  13 H :    0.030335
  14 H :    0.023742
  15 H :    0.024152
  16 S :    0.390680
  17 C :   -0.177712
  18 C :   -0.073157
  19 C :   -0.055747
  20 C :   -0.174691
  21 H :    0.036111
  22 C :   -0.016574
  23 H :    0.015821
  24 H :    0.026614
  25 C :   -0.052326
  26 H :    0.022332
  27 H :    0.026539
  28 C :   -0.065456
  29 H :    0.027246
  30 H :    0.025556
  31 H :    0.033271
  32 H :    0.028765
  33 H :    0.022384

  Mayer bond orders larger than 0.100000
B(  0-S ,  1-C ) :   1.1167 B(  0-S ,  4-C ) :   1.1262 B(  1-C ,  2-C ) :   1.6626
B(  1-C , 32-H ) :   0.9549 B(  2-C ,  3-C ) :   1.1781 B(  2-C ,  6-C ) :   1.0165
B(  3-C ,  4-C ) :   1.6526 B(  3-C ,  5-H ) :   0.9908 B(  4-C , 20-C ) :   1.0221
B(  6-C ,  7-H ) :   0.9437 B(  6-C ,  8-H ) :   0.9338 B(  6-C ,  9-C ) :   1.0583
B(  9-C , 10-H ) :   0.9589 B(  9-C , 11-H ) :   0.9523 B(  9-C , 12-C ) :   1.0993
B( 12-C , 13-H ) :   0.9615 B( 12-C , 14-H ) :   0.9770 B( 12-C , 15-H ) :   0.9686
B( 16-S , 17-C ) :   1.1399 B( 16-S , 20-C ) :   1.1424 B( 17-C , 18-C ) :   1.6339
B( 17-C , 33-H ) :   0.9716 B( 18-C , 19-C ) :   1.2325 B( 18-C , 21-H ) :   0.9880
B( 19-C , 20-C ) :   1.6251 B( 19-C , 22-C ) :   1.0226 B( 22-C , 23-H ) :   0.9306
B( 22-C , 24-H ) :   0.9288 B( 22-C , 25-C ) :   1.0659 B( 25-C , 26-H ) :   0.9453
B( 25-C , 27-H ) :   0.9577 B( 25-C , 28-C ) :   1.0697 B( 28-C , 29-H ) :   0.9753
B( 28-C , 30-H ) :   0.9754 B( 28-C , 31-H ) :   0.9733

Dispersion correction           -0.014575565
FINAL SINGLE POINT ENERGY     -1339.850478388900

DIPOLE MOMENT
-------------
                                X             Y             Z
Electronic contribution:     -7.73050      -3.49790      24.54722
Nuclear contribution   :      7.73173       3.79955     -25.22478
                        -----------------------------------------
Total Dipole Moment    :      0.00123       0.30165      -0.67757
                        -----------------------------------------
Magnitude (a.u.)       :      0.74168
Magnitude (Debye)      :      1.88520

Rotational constants in cm-1:     0.016899     0.009601     0.007370
Rotational constants in MHz :   506.614923   287.819939   220.949781

                             ****ORCA TERMINATED NORMALLY****
TOTAL RUN TIME: 0 days 0 hours 0 minutes 21 seconds 107 msec
