                         Program Version 4.2.1 -  RELEASE  -
|  1> ! wB97X-D3 SP def2-SVP
|  2> %pal
|  3> nprocs 24
|  4> end
|  5>
|  6> * xyz 0 1
|  7> S 	 -50.3249 	 -50.5603 	 -78.0513
|  8> C 	 -51.2433 	 -50.5671 	 -76.54
|  9> C 	 -50.9824 	 -49.4318 	 -75.7988
| 10> C 	 -49.9996 	 -48.612 	 -76.3921
| 11> C 	 -49.574 	 -49.0231 	 -77.6279
| 12> H 	 -49.6467 	 -47.7 	 -75.9391
| 13> C 	 -51.7628 	 -49.0137 	 -74.6083
| 14> H 	 -51.2301 	 -48.7668 	 -73.715
| 15> H 	 -52.3445 	 -49.9887 	 -74.4793
| 16> C 	 -52.7644 	 -47.934 	 -74.9002
| 17> H 	 -53.3198 	 -47.7442 	 -73.9914
| 18> H 	 -52.2267 	 -47.0818 	 -75.2463
| 19> C 	 -53.7662 	 -48.2405 	 -76.0569
| 20> H 	 -53.2234 	 -48.2534 	 -77.0217
| 21> H 	 -54.1462 	 -49.2773 	 -75.812
| 22> H 	 -54.6046 	 -47.5015 	 -76.1144
| 23> S 	 -47.8591 	 -46.8617 	 -77.6987
| 24> C 	 -47.0594 	 -46.5661 	 -79.267
| 25> C 	 -47.4916 	 -47.3402 	 -80.2925
| 26> C 	 -48.3466 	 -48.3407 	 -79.8257
| 27> C 	 -48.6485 	 -48.2365 	 -78.4672
| 28> H 	 -47.0722 	 -47.2227 	 -81.3176
| 29> C 	 -49.0853 	 -49.2505 	 -80.7968
| 30> H 	 -49.0339 	 -48.7057 	 -81.8211
| 31> H 	 -50.1004 	 -49.5264 	 -80.5042
| 32> C 	 -48.4695 	 -50.6529 	 -81.1199
| 33> H 	 -49.1753 	 -51.1603 	 -81.7378
| 34> H 	 -48.3801 	 -51.2169 	 -80.2261
| 35> C 	 -47.1793 	 -50.59 	 -81.9742
| 36> H 	 -46.4832 	 -49.8822 	 -81.6101
| 37> H 	 -47.4922 	 -50.2991 	 -82.9131
| 38> H 	 -46.6037 	 -51.5115 	 -82.1236
| 39> H 	 -52.038 	 -51.277 	 -76.2031
| 40> H 	 -46.356 	 -45.7735 	 -79.352
| 41> *
| 42>
| 43>                          ****END OF INPUT****

CARTESIAN COORDINATES (ANGSTROEM)
---------------------------------
  S    -50.324900  -50.560300  -78.051300
  C    -51.243300  -50.567100  -76.540000
  C    -50.982400  -49.431800  -75.798800
  C    -49.999600  -48.612000  -76.392100
  C    -49.574000  -49.023100  -77.627900
  H    -49.646700  -47.700000  -75.939100
  C    -51.762800  -49.013700  -74.608300
  H    -51.230100  -48.766800  -73.715000
  H    -52.344500  -49.988700  -74.479300
  C    -52.764400  -47.934000  -74.900200
  H    -53.319800  -47.744200  -73.991400
  H    -52.226700  -47.081800  -75.246300
  C    -53.766200  -48.240500  -76.056900
  H    -53.223400  -48.253400  -77.021700
  H    -54.146200  -49.277300  -75.812000
  H    -54.604600  -47.501500  -76.114400
  S    -47.859100  -46.861700  -77.698700
  C    -47.059400  -46.566100  -79.267000
  C    -47.491600  -47.340200  -80.292500
  C    -48.346600  -48.340700  -79.825700
  C    -48.648500  -48.236500  -78.467200
  H    -47.072200  -47.222700  -81.317600
  C    -49.085300  -49.250500  -80.796800
  H    -49.033900  -48.705700  -81.821100
  H    -50.100400  -49.526400  -80.504200
  C    -48.469500  -50.652900  -81.119900
  H    -49.175300  -51.160300  -81.737800
  H    -48.380100  -51.216900  -80.226100
  C    -47.179300  -50.590000  -81.974200
  H    -46.483200  -49.882200  -81.610100
  H    -47.492200  -50.299100  -82.913100
  H    -46.603700  -51.511500  -82.123600
  H    -52.038000  -51.277000  -76.203100
  H    -46.356000  -45.773500  -79.352000

 Total Charge           Charge          ....    0
 Multiplicity           Mult            ....    1
 Number of Electrons    NEL             ....  134
 Basis Dimension        Dim             ....  322

ORBITAL ENERGIES
----------------

  NO   OCC          E(Eh)            E(eV)
   0   2.0000     -88.973652     -2421.0962
   1   2.0000     -88.970786     -2421.0182
   2   2.0000     -10.334204      -281.2080
   3   2.0000     -10.332170      -281.1526
   4   2.0000     -10.318260      -280.7741
   5   2.0000     -10.317642      -280.7573
   6   2.0000     -10.303699      -280.3779
   7   2.0000     -10.299515      -280.2641
   8   2.0000     -10.297069      -280.1975
   9   2.0000     -10.296531      -280.1828
  10   2.0000     -10.290486      -280.0184
  11   2.0000     -10.287909      -279.9482
  12   2.0000     -10.283865      -279.8382
  13   2.0000     -10.281031      -279.7611
  14   2.0000     -10.279667      -279.7240
  15   2.0000     -10.266302      -279.3603
  16   2.0000      -8.086774      -220.0523
  17   2.0000      -8.084767      -219.9977
  18   2.0000      -6.045507      -164.5066
  19   2.0000      -6.043250      -164.4452
  20   2.0000      -6.041484      -164.3972
  21   2.0000      -6.039682      -164.3481
  22   2.0000      -6.037413      -164.2864
  23   2.0000      -6.035322      -164.2295
  24   2.0000      -1.009390       -27.4669
  25   2.0000      -0.988045       -26.8861
  26   2.0000      -0.919347       -25.0167
  27   2.0000      -0.905243       -24.6329
  28   2.0000      -0.872362       -23.7382
  29   2.0000      -0.853005       -23.2114
  30   2.0000      -0.843107       -22.9421
  31   2.0000      -0.815612       -22.1939
  32   2.0000      -0.782756       -21.2999
  33   2.0000      -0.774129       -21.0651
  34   2.0000      -0.714353       -19.4385
  35   2.0000      -0.694799       -18.9064
  36   2.0000      -0.687888       -18.7184
  37   2.0000      -0.672025       -18.2867
  38   2.0000      -0.631787       -17.1918
  39   2.0000      -0.618394       -16.8273
  40   2.0000      -0.597027       -16.2459
  41   2.0000      -0.573767       -15.6130
  42   2.0000      -0.561853       -15.2888
  43   2.0000      -0.553062       -15.0496
  44   2.0000      -0.546253       -14.8643
  45   2.0000      -0.542551       -14.7636
  46   2.0000      -0.515464       -14.0265
  47   2.0000      -0.510133       -13.8814
  48   2.0000      -0.500087       -13.6081
  49   2.0000      -0.494147       -13.4464
  50   2.0000      -0.485368       -13.2075
  51   2.0000      -0.479573       -13.0499
  52   2.0000      -0.469280       -12.7698
  53   2.0000      -0.467456       -12.7201
  54   2.0000      -0.457665       -12.4537
  55   2.0000      -0.449329       -12.2269
  56   2.0000      -0.446532       -12.1507
  57   2.0000      -0.439495       -11.9593
  58   2.0000      -0.430024       -11.7016
  59   2.0000      -0.425009       -11.5651
  60   2.0000      -0.420073       -11.4308
  61   2.0000      -0.418545       -11.3892
  62   2.0000      -0.409096       -11.1321
  63   2.0000      -0.365495        -9.9456
  64   2.0000      -0.337416        -9.1815
  65   2.0000      -0.334071        -9.0905
  66   2.0000      -0.281132        -7.6500
  67   0.0000       0.016965         0.4617
  68   0.0000       0.083713         2.2780
  69   0.0000       0.095450         2.5973
  70   0.0000       0.111998         3.0476
  71   0.0000       0.129619         3.5271

MULLIKEN ATOMIC CHARGES
-----------------------
   0 S :    0.101415
   1 C :   -0.133588
   2 C :   -0.092623
   3 C :   -0.037286
   4 C :   -0.071071
   5 H :    0.013494
   6 C :    0.070661
   7 H :    0.034696
   8 H :    0.010831
   9 C :   -0.056174
  10 H :    0.034392
  11 H :    0.022396
  12 C :   -0.093244
  13 H :    0.057738
  14 H :    0.024283
  15 H :    0.048282
  16 S :    0.081883
  17 C :   -0.072139
  18 C :   -0.030545
  19 C :   -0.032605
  20 C :   -0.114463
  21 H :    0.041268
  22 C :   -0.028233
  23 H :    0.035467
  24 H :    0.039840
  25 C :   -0.033591
  26 H :    0.021707
  27 H :    0.023221
  28 C :   -0.027721
  29 H :    0.020689
  30 H :    0.003602
  31 H :    0.034677
  32 H :    0.062372
  33 H :    0.040369
Sum of atomic charges:    0.0000000

LOEWDIN ATOMIC CHARGES
----------------------
   0 S :    0.409748
   1 C :   -0.207305
   2 C :   -0.064257
   3 C :   -0.079683
   4 C :   -0.173938
   5 H :    0.021016
   6 C :   -0.032408
   7 H :    0.029777
   8 H :    0.033880
   9 C :   -0.038192
  10 H :    0.024421
  11 H :    0.018368
  12 C :   -0.069370
  13 H :    0.030648
  14 H :    0.023340
  15 H :    0.030234
  16 S :    0.388959
  17 C :   -0.155616
  18 C :   -0.071155
  19 C :   -0.065008
  20 C :   -0.178747
  21 H :    0.045283
  22 C :   -0.038300
  23 H :    0.040142
  24 H :    0.021424
  25 C :   -0.031744
  26 H :    0.021490
  27 H :    0.009709
  28 C :   -0.061675
  29 H :    0.017514
  30 H :    0.013221
  31 H :    0.030348
  32 H :    0.039419
  33 H :    0.018459

  Mayer bond orders larger than 0.100000
B(  0-S ,  1-C ) :   1.1176 B(  0-S ,  4-C ) :   1.1307 B(  1-C ,  2-C ) :   1.6254
B(  1-C , 32-H ) :   0.9503 B(  2-C ,  3-C ) :   1.2539 B(  2-C ,  6-C ) :   1.0269
B(  3-C ,  4-C ) :   1.5523 B(  3-C ,  5-H ) :   0.9841 B(  4-C , 20-C ) :   1.0913
B(  6-C ,  7-H ) :   0.9395 B(  6-C ,  8-H ) :   0.9339 B(  6-C ,  9-C ) :   1.0779
B(  9-C , 10-H ) :   0.9571 B(  9-C , 11-H ) :   0.9528 B(  9-C , 12-C ) :   1.0693
B( 12-C , 13-H ) :   0.9721 B( 12-C , 14-H ) :   0.9764 B( 12-C , 15-H ) :   0.9752
B( 16-S , 17-C ) :   1.1370 B( 16-S , 20-C ) :   1.1331 B( 17-C , 18-C ) :   1.6337
B( 17-C , 33-H ) :   0.9698 B( 18-C , 19-C ) :   1.2355 B( 18-C , 21-H ) :   0.9798
B( 19-C , 20-C ) :   1.5838 B( 19-C , 22-C ) :   1.0284 B( 22-C , 23-H ) :   0.9419
B( 22-C , 24-H ) :   0.9348 B( 22-C , 25-C ) :   1.0667 B( 25-C , 26-H ) :   0.9597
B( 25-C , 27-H ) :   0.9553 B( 25-C , 28-C ) :   1.0670 B( 28-C , 29-H ) :   0.9803
B( 28-C , 30-H ) :   0.9751 B( 28-C , 31-H ) :   0.9744

Dispersion correction           -0.014884495
FINAL SINGLE POINT ENERGY     -1339.873943230763

DIPOLE MOMENT
-------------
                                X             Y             Z
Electronic contribution:      9.78207       4.02709       4.43047
Nuclear contribution   :     -9.91958      -3.81246      -4.53382
                        -----------------------------------------
Total Dipole Moment    :     -0.13750       0.21463      -0.10335
                        -----------------------------------------
Magnitude (a.u.)       :      0.27506
Magnitude (Debye)      :      0.69914

Rotational constants in cm-1:     0.022585     0.008651     0.006910
Rotational constants in MHz :   677.074411   259.358179   207.168945

                             ****ORCA TERMINATED NORMALLY****
TOTAL RUN TIME: 0 days 0 hours 0 minutes 23 seconds 125 msec
