                         Program Version 4.2.1 -  RELEASE  -
|  1> ! wB97X-D3 SP def2-SVP
|  2> %pal
|  3> nprocs 24
|  4> end
|  5>
|  6> * xyz 0 1
|  7> S 	 -49.1819 	 12.6063 	 23.8918
|  8> C 	 -48.5541 	 10.9031 	 23.8199
|  9> C 	 -49.5984 	 10.0746 	 23.3681
| 10> C 	 -50.8165 	 10.8235 	 23.3016
| 11> C 	 -50.7438 	 12.1866 	 23.4071
| 12> H 	 -51.7783 	 10.336 	 23.0821
| 13> C 	 -49.6037 	 8.5907 	 23.1353
| 14> H 	 -50.6091 	 8.23976 	 23.1307
| 15> H 	 -49.1126 	 8.15834 	 23.9969
| 16> C 	 -48.8535 	 8.12114 	 21.8475
| 17> H 	 -49.3126 	 8.67896 	 20.994
| 18> H 	 -47.8468 	 8.45468 	 21.9174
| 19> C 	 -48.8597 	 6.59507 	 21.6974
| 20> H 	 -48.3752 	 6.12868 	 20.7687
| 21> H 	 -48.3539 	 6.07844 	 22.5382
| 22> H 	 -49.8977 	 6.36598 	 21.8056
| 23> S 	 -52.3584 	 13.6159 	 21.7916
| 24> C 	 -53.6149 	 14.6689 	 22.5151
| 25> C 	 -53.6675 	 14.4716 	 23.8815
| 26> C 	 -52.6186 	 13.6374 	 24.4594
| 27> C 	 -51.8269 	 13.1337 	 23.4049
| 28> H 	 -54.4737 	 14.9646 	 24.4016
| 29> C 	 -52.466 	 13.302 	 25.9163
| 30> H 	 -51.8591 	 14.1465 	 26.3754
| 31> H 	 -51.9593 	 12.3786 	 25.9554
| 32> C 	 -53.6705 	 13.2033 	 26.7636
| 33> H 	 -54.2453 	 12.3309 	 26.38
| 34> H 	 -54.2808 	 14.0644 	 26.7389
| 35> C 	 -53.3582 	 12.8738 	 28.2374
| 36> H 	 -54.2915 	 12.6372 	 28.7291
| 37> H 	 -52.9053 	 13.6867 	 28.8208
| 38> H 	 -52.7097 	 12.0128 	 28.4072
| 39> H 	 -47.5615 	 10.5371 	 24.0497
| 40> H 	 -54.4266 	 15.1055 	 21.9331
| 41> *
| 42>
| 43>                          ****END OF INPUT****

CARTESIAN COORDINATES (ANGSTROEM)
---------------------------------
  S    -49.181900   12.606300   23.891800
  C    -48.554100   10.903100   23.819900
  C    -49.598400   10.074600   23.368100
  C    -50.816500   10.823500   23.301600
  C    -50.743800   12.186600   23.407100
  H    -51.778300   10.336000   23.082100
  C    -49.603700    8.590700   23.135300
  H    -50.609100    8.239760   23.130700
  H    -49.112600    8.158340   23.996900
  C    -48.853500    8.121140   21.847500
  H    -49.312600    8.678960   20.994000
  H    -47.846800    8.454680   21.917400
  C    -48.859700    6.595070   21.697400
  H    -48.375200    6.128680   20.768700
  H    -48.353900    6.078440   22.538200
  H    -49.897700    6.365980   21.805600
  S    -52.358400   13.615900   21.791600
  C    -53.614900   14.668900   22.515100
  C    -53.667500   14.471600   23.881500
  C    -52.618600   13.637400   24.459400
  C    -51.826900   13.133700   23.404900
  H    -54.473700   14.964600   24.401600
  C    -52.466000   13.302000   25.916300
  H    -51.859100   14.146500   26.375400
  H    -51.959300   12.378600   25.955400
  C    -53.670500   13.203300   26.763600
  H    -54.245300   12.330900   26.380000
  H    -54.280800   14.064400   26.738900
  C    -53.358200   12.873800   28.237400
  H    -54.291500   12.637200   28.729100
  H    -52.905300   13.686700   28.820800
  H    -52.709700   12.012800   28.407200
  H    -47.561500   10.537100   24.049700
  H    -54.426600   15.105500   21.933100

 Total Charge           Charge          ....    0
 Multiplicity           Mult            ....    1
 Number of Electrons    NEL             ....  134
 Basis Dimension        Dim             ....  322

ORBITAL ENERGIES
----------------

  NO   OCC          E(Eh)            E(eV)
   0   2.0000     -88.965041     -2420.8618
   1   2.0000     -88.964756     -2420.8541
   2   2.0000     -10.328593      -281.0553
   3   2.0000     -10.321230      -280.8550
   4   2.0000     -10.320923      -280.8466
   5   2.0000     -10.319661      -280.8122
   6   2.0000     -10.311748      -280.5969
   7   2.0000     -10.303506      -280.3727
   8   2.0000     -10.297985      -280.2224
   9   2.0000     -10.291348      -280.0418
  10   2.0000     -10.290367      -280.0151
  11   2.0000     -10.289036      -279.9789
  12   2.0000     -10.288942      -279.9763
  13   2.0000     -10.284873      -279.8656
  14   2.0000     -10.284715      -279.8613
  15   2.0000     -10.278725      -279.6983
  16   2.0000      -8.079633      -219.8580
  17   2.0000      -8.078638      -219.8309
  18   2.0000      -6.038214      -164.3082
  19   2.0000      -6.037190      -164.2803
  20   2.0000      -6.033965      -164.1925
  21   2.0000      -6.033308      -164.1747
  22   2.0000      -6.030487      -164.0979
  23   2.0000      -6.029365      -164.0674
  24   2.0000      -1.005944       -27.3731
  25   2.0000      -0.977166       -26.5900
  26   2.0000      -0.917989       -24.9798
  27   2.0000      -0.913624       -24.8610
  28   2.0000      -0.868947       -23.6452
  29   2.0000      -0.848258       -23.0823
  30   2.0000      -0.844428       -22.9781
  31   2.0000      -0.810339       -22.0505
  32   2.0000      -0.784563       -21.3490
  33   2.0000      -0.772727       -21.0270
  34   2.0000      -0.707641       -19.2559
  35   2.0000      -0.703746       -19.1499
  36   2.0000      -0.697066       -18.9681
  37   2.0000      -0.652432       -17.7536
  38   2.0000      -0.638894       -17.3852
  39   2.0000      -0.616319       -16.7709
  40   2.0000      -0.598955       -16.2984
  41   2.0000      -0.579037       -15.7564
  42   2.0000      -0.573981       -15.6188
  43   2.0000      -0.558632       -15.2011
  44   2.0000      -0.530120       -14.4253
  45   2.0000      -0.520729       -14.1698
  46   2.0000      -0.517748       -14.0886
  47   2.0000      -0.512954       -13.9582
  48   2.0000      -0.508157       -13.8277
  49   2.0000      -0.499137       -13.5822
  50   2.0000      -0.489887       -13.3305
  51   2.0000      -0.478575       -13.0227
  52   2.0000      -0.470264       -12.7965
  53   2.0000      -0.460147       -12.5212
  54   2.0000      -0.457434       -12.4474
  55   2.0000      -0.447762       -12.1842
  56   2.0000      -0.441978       -12.0268
  57   2.0000      -0.436644       -11.8817
  58   2.0000      -0.431893       -11.7524
  59   2.0000      -0.426726       -11.6118
  60   2.0000      -0.423475       -11.5233
  61   2.0000      -0.419150       -11.4056
  62   2.0000      -0.417430       -11.3588
  63   2.0000      -0.333024        -9.0620
  64   2.0000      -0.328065        -8.9271
  65   2.0000      -0.320405        -8.7187
  66   2.0000      -0.308186        -8.3862
  67   0.0000       0.039732         1.0812
  68   0.0000       0.054383         1.4798
  69   0.0000       0.108646         2.9564
  70   0.0000       0.116663         3.1746
  71   0.0000       0.125925         3.4266

MULLIKEN ATOMIC CHARGES
-----------------------
   0 S :    0.114122
   1 C :   -0.130522
   2 C :   -0.084633
   3 C :    0.021800
   4 C :   -0.165828
   5 H :    0.011923
   6 C :    0.068634
   7 H :    0.012335
   8 H :    0.025749
   9 C :   -0.069701
  10 H :    0.042522
  11 H :    0.019039
  12 C :   -0.052681
  13 H :    0.056892
  14 H :    0.028923
  15 H :    0.021285
  16 S :    0.102424
  17 C :   -0.093971
  18 C :   -0.052915
  19 C :    0.010838
  20 C :   -0.198535
  21 H :    0.019300
  22 C :    0.105583
  23 H :    0.045848
  24 H :    0.021421
  25 C :   -0.092481
  26 H :    0.032562
  27 H :    0.025472
  28 C :   -0.048128
  29 H :    0.028920
  30 H :    0.031934
  31 H :    0.028731
  32 H :    0.046453
  33 H :    0.066686
Sum of atomic charges:    0.0000000

LOEWDIN ATOMIC CHARGES
----------------------
   0 S :    0.418162
   1 C :   -0.185147
   2 C :   -0.058948
   3 C :   -0.070497
   4 C :   -0.231442
   5 H :    0.030242
   6 C :   -0.027472
   7 H :    0.023977
   8 H :    0.031504
   9 C :   -0.036402
  10 H :    0.030951
  11 H :    0.015463
  12 C :   -0.074195
  13 H :    0.037895
  14 H :    0.027189
  15 H :    0.020322
  16 S :    0.388004
  17 C :   -0.180277
  18 C :   -0.068734
  19 C :   -0.044293
  20 C :   -0.196334
  21 H :    0.029000
  22 C :   -0.034977
  23 H :    0.045083
  24 H :    0.028989
  25 C :   -0.039311
  26 H :    0.030354
  27 H :    0.017417
  28 C :   -0.064213
  29 H :    0.026578
  30 H :    0.025089
  31 H :    0.025308
  32 H :    0.028155
  33 H :    0.032560

  Mayer bond orders larger than 0.100000
B(  0-S ,  1-C ) :   1.1408 B(  0-S ,  4-C ) :   1.1571 B(  1-C ,  2-C ) :   1.5791
B(  1-C ,  4-C ) :   0.1039 B(  1-C , 32-H ) :   0.9733 B(  2-C ,  3-C ) :   1.2625
B(  2-C ,  6-C ) :   1.0259 B(  3-C ,  4-C ) :   1.5800 B(  3-C ,  5-H ) :   0.9878
B(  4-C , 20-C ) :   1.0013 B(  6-C ,  7-H ) :   0.9415 B(  6-C ,  8-H ) :   0.9360
B(  6-C ,  9-C ) :   1.0547 B(  9-C , 10-H ) :   0.9576 B(  9-C , 11-H ) :   0.9586
B(  9-C , 12-C ) :   1.0695 B( 12-C , 13-H ) :   0.9744 B( 12-C , 14-H ) :   0.9731
B( 12-C , 15-H ) :   0.9754 B( 16-S , 17-C ) :   1.1297 B( 16-S , 20-C ) :   1.1557
B( 17-C , 18-C ) :   1.6494 B( 17-C , 33-H ) :   0.9623 B( 18-C , 19-C ) :   1.2033
B( 18-C , 21-H ) :   0.9841 B( 19-C , 20-C ) :   1.5986 B( 19-C , 22-C ) :   1.0450
B( 22-C , 23-H ) :   0.9199 B( 22-C , 24-H ) :   0.9269 B( 22-C , 25-C ) :   1.0891
B( 25-C , 26-H ) :   0.9534 B( 25-C , 27-H ) :   0.9461 B( 25-C , 28-C ) :   1.0916
B( 28-C , 29-H ) :   0.9735 B( 28-C , 30-H ) :   0.9738 B( 28-C , 31-H ) :   0.9740

Dispersion correction           -0.013522379
FINAL SINGLE POINT ENERGY     -1339.874107284934

DIPOLE MOMENT
-------------
                                X             Y             Z
Electronic contribution:      2.45563      18.87704     -11.81999
Nuclear contribution   :     -2.79306     -19.36556      12.24111
                        -----------------------------------------
Total Dipole Moment    :     -0.33744      -0.48852       0.42113
                        -----------------------------------------
Magnitude (a.u.)       :      0.72791
Magnitude (Debye)      :      1.85021

Rotational constants in cm-1:     0.019136     0.007224     0.006227
Rotational constants in MHz :   573.687259   216.582144   186.670826

                             ****ORCA TERMINATED NORMALLY****
TOTAL RUN TIME: 0 days 0 hours 0 minutes 19 seconds 625 msec
