                         Program Version 4.2.1 -  RELEASE  -
|  1> ! wB97X-D3 SP def2-SVP
|  2> %pal
|  3> nprocs 24
|  4> end
|  5>
|  6> * xyz 0 1
|  7> S 	 -43.1867 	 12.1806 	 26.5233
|  8> C 	 -44.8047 	 11.4683 	 26.3809
|  9> C 	 -45.8032 	 12.2922 	 26.8821
| 10> C 	 -45.3335 	 13.5878 	 27.172
| 11> C 	 -43.9406 	 13.6553 	 27.0479
| 12> H 	 -45.9337 	 14.4805 	 27.4101
| 13> C 	 -47.2852 	 11.8947 	 26.9959
| 14> H 	 -47.7281 	 11.9314 	 26.0009
| 15> H 	 -47.689 	 12.5386 	 27.7424
| 16> C 	 -47.5121 	 10.5733 	 27.6591
| 17> H 	 -48.534 	 10.2569 	 27.4939
| 18> H 	 -46.9211 	 9.7681 	 27.1611
| 19> C 	 -47.164 	 10.4744 	 29.1996
| 20> H 	 -47.5989 	 9.60837 	 29.6574
| 21> H 	 -46.139 	 10.3952 	 29.366
| 22> H 	 -47.6274 	 11.3091 	 29.7537
| 23> S 	 -41.7351 	 15.0229 	 28.2482
| 24> C 	 -41.3105 	 16.6244 	 27.6541
| 25> C 	 -42.2444 	 17.0853 	 26.7585
| 26> C 	 -43.2184 	 16.0894 	 26.3304
| 27> C 	 -43.129 	 14.9017 	 27.1017
| 28> H 	 -42.0678 	 18.1072 	 26.4579
| 29> C 	 -44.1522 	 16.3875 	 25.23
| 30> H 	 -44.2097 	 17.4795 	 25.1253
| 31> H 	 -45.1202 	 15.9298 	 25.5859
| 32> C 	 -43.8162 	 15.777 	 23.9039
| 33> H 	 -42.8657 	 16.1743 	 23.4469
| 34> H 	 -44.5796 	 16.1294 	 23.2596
| 35> C 	 -43.9382 	 14.225 	 23.7942
| 36> H 	 -43.0431 	 13.7245 	 24.2148
| 37> H 	 -43.9203 	 13.9113 	 22.7234
| 38> H 	 -44.8145 	 13.8059 	 24.2892
| 39> H 	 -44.9561 	 10.4407 	 25.9448
| 40> H 	 -40.4843 	 17.2293 	 27.9458
| 41> *
| 42>
| 43>                          ****END OF INPUT****

CARTESIAN COORDINATES (ANGSTROEM)
---------------------------------
  S    -43.186700   12.180600   26.523300
  C    -44.804700   11.468300   26.380900
  C    -45.803200   12.292200   26.882100
  C    -45.333500   13.587800   27.172000
  C    -43.940600   13.655300   27.047900
  H    -45.933700   14.480500   27.410100
  C    -47.285200   11.894700   26.995900
  H    -47.728100   11.931400   26.000900
  H    -47.689000   12.538600   27.742400
  C    -47.512100   10.573300   27.659100
  H    -48.534000   10.256900   27.493900
  H    -46.921100    9.768100   27.161100
  C    -47.164000   10.474400   29.199600
  H    -47.598900    9.608370   29.657400
  H    -46.139000   10.395200   29.366000
  H    -47.627400   11.309100   29.753700
  S    -41.735100   15.022900   28.248200
  C    -41.310500   16.624400   27.654100
  C    -42.244400   17.085300   26.758500
  C    -43.218400   16.089400   26.330400
  C    -43.129000   14.901700   27.101700
  H    -42.067800   18.107200   26.457900
  C    -44.152200   16.387500   25.230000
  H    -44.209700   17.479500   25.125300
  H    -45.120200   15.929800   25.585900
  C    -43.816200   15.777000   23.903900
  H    -42.865700   16.174300   23.446900
  H    -44.579600   16.129400   23.259600
  C    -43.938200   14.225000   23.794200
  H    -43.043100   13.724500   24.214800
  H    -43.920300   13.911300   22.723400
  H    -44.814500   13.805900   24.289200
  H    -44.956100   10.440700   25.944800
  H    -40.484300   17.229300   27.945800

 Total Charge           Charge          ....    0
 Multiplicity           Mult            ....    1
 Number of Electrons    NEL             ....  134
 Basis Dimension        Dim             ....  322

ORBITAL ENERGIES
----------------

  NO   OCC          E(Eh)            E(eV)
   0   2.0000     -88.971652     -2421.0417
   1   2.0000     -88.961914     -2420.7768
   2   2.0000     -10.332203      -281.1535
   3   2.0000     -10.331147      -281.1248
   4   2.0000     -10.320998      -280.8486
   5   2.0000     -10.313017      -280.6315
   6   2.0000     -10.305240      -280.4198
   7   2.0000     -10.303552      -280.3739
   8   2.0000     -10.299675      -280.2684
   9   2.0000     -10.291597      -280.0486
  10   2.0000     -10.291046      -280.0336
  11   2.0000     -10.289376      -279.9882
  12   2.0000     -10.288284      -279.9584
  13   2.0000     -10.281736      -279.7803
  14   2.0000     -10.274110      -279.5728
  15   2.0000     -10.272638      -279.5327
  16   2.0000      -8.085712      -220.0234
  17   2.0000      -8.075509      -219.7458
  18   2.0000      -6.044038      -164.4666
  19   2.0000      -6.040417      -164.3681
  20   2.0000      -6.036568      -164.2634
  21   2.0000      -6.034116      -164.1966
  22   2.0000      -6.030161      -164.0890
  23   2.0000      -6.026269      -163.9831
  24   2.0000      -1.000962       -27.2376
  25   2.0000      -0.976065       -26.5601
  26   2.0000      -0.914723       -24.8909
  27   2.0000      -0.909264       -24.7423
  28   2.0000      -0.859788       -23.3960
  29   2.0000      -0.850302       -23.1379
  30   2.0000      -0.838158       -22.8074
  31   2.0000      -0.809804       -22.0359
  32   2.0000      -0.787441       -21.4274
  33   2.0000      -0.769150       -20.9296
  34   2.0000      -0.706409       -19.2224
  35   2.0000      -0.702104       -19.1052
  36   2.0000      -0.685442       -18.6518
  37   2.0000      -0.652760       -17.7625
  38   2.0000      -0.636871       -17.3301
  39   2.0000      -0.610865       -16.6225
  40   2.0000      -0.586686       -15.9645
  41   2.0000      -0.576260       -15.6808
  42   2.0000      -0.565417       -15.3858
  43   2.0000      -0.550757       -14.9869
  44   2.0000      -0.543062       -14.7775
  45   2.0000      -0.531044       -14.4505
  46   2.0000      -0.514457       -13.9991
  47   2.0000      -0.507387       -13.8067
  48   2.0000      -0.500877       -13.6296
  49   2.0000      -0.488226       -13.2853
  50   2.0000      -0.487675       -13.2703
  51   2.0000      -0.475288       -12.9333
  52   2.0000      -0.468947       -12.7607
  53   2.0000      -0.462321       -12.5804
  54   2.0000      -0.455337       -12.3903
  55   2.0000      -0.448921       -12.2158
  56   2.0000      -0.447787       -12.1849
  57   2.0000      -0.434534       -11.8243
  58   2.0000      -0.429337       -11.6829
  59   2.0000      -0.421425       -11.4676
  60   2.0000      -0.420178       -11.4336
  61   2.0000      -0.414525       -11.2798
  62   2.0000      -0.405075       -11.0226
  63   2.0000      -0.337356        -9.1799
  64   2.0000      -0.334546        -9.1035
  65   2.0000      -0.325028        -8.8445
  66   2.0000      -0.291981        -7.9452
  67   0.0000       0.030083         0.8186
  68   0.0000       0.061012         1.6602
  69   0.0000       0.108327         2.9477
  70   0.0000       0.116526         3.1708
  71   0.0000       0.125435         3.4133

MULLIKEN ATOMIC CHARGES
-----------------------
   0 S :    0.133062
   1 C :   -0.170958
   2 C :   -0.094295
   3 C :    0.019413
   4 C :   -0.166467
   5 H :    0.035372
   6 C :    0.127817
   7 H :    0.051816
   8 H :    0.011432
   9 C :   -0.106362
  10 H :    0.024190
  11 H :    0.018127
  12 C :   -0.034547
  13 H :    0.024791
  14 H :    0.036535
  15 H :    0.028694
  16 S :    0.089158
  17 C :   -0.086563
  18 C :   -0.047181
  19 C :   -0.023168
  20 C :   -0.168926
  21 H :    0.017011
  22 C :    0.078188
  23 H :    0.024173
  24 H :    0.019334
  25 C :   -0.049726
  26 H :    0.031620
  27 H :    0.017331
  28 C :   -0.063635
  29 H :    0.039007
  30 H :    0.032114
  31 H :    0.034602
  32 H :    0.071390
  33 H :    0.046651
Sum of atomic charges:   -0.0000000

LOEWDIN ATOMIC CHARGES
----------------------
   0 S :    0.427103
   1 C :   -0.200567
   2 C :   -0.065491
   3 C :   -0.062486
   4 C :   -0.195128
   5 H :    0.040554
   6 C :   -0.027018
   7 H :    0.039335
   8 H :    0.027841
   9 C :   -0.042262
  10 H :    0.021846
  11 H :    0.020057
  12 C :   -0.058137
  13 H :    0.025847
  14 H :    0.019618
  15 H :    0.026141
  16 S :    0.368729
  17 C :   -0.177517
  18 C :   -0.076665
  19 C :   -0.050681
  20 C :   -0.193618
  21 H :    0.031356
  22 C :   -0.039553
  23 H :    0.035135
  24 H :    0.037161
  25 C :   -0.040127
  26 H :    0.029245
  27 H :    0.019459
  28 C :   -0.073203
  29 H :    0.017430
  30 H :    0.028740
  31 H :    0.024152
  32 H :    0.036009
  33 H :    0.026693

  Mayer bond orders larger than 0.100000
B(  0-S ,  1-C ) :   1.1436 B(  0-S ,  4-C ) :   1.1785 B(  1-C ,  2-C ) :   1.5922
B(  1-C ,  4-C ) :   0.1003 B(  1-C , 32-H ) :   0.9627 B(  2-C ,  3-C ) :   1.2496
B(  2-C ,  6-C ) :   1.0021 B(  3-C ,  4-C ) :   1.5636 B(  3-C ,  5-H ) :   0.9905
B(  4-C , 20-C ) :   1.0181 B(  6-C ,  7-H ) :   0.9348 B(  6-C ,  8-H ) :   0.9418
B(  6-C ,  9-C ) :   1.0825 B(  9-C , 10-H ) :   0.9564 B(  9-C , 11-H ) :   0.9521
B(  9-C , 12-C ) :   1.0713 B( 12-C , 13-H ) :   0.9749 B( 12-C , 14-H ) :   0.9783
B( 12-C , 15-H ) :   0.9747 B( 16-S , 17-C ) :   1.1420 B( 16-S , 20-C ) :   1.1230
B( 17-C , 18-C ) :   1.6535 B( 17-C , 33-H ) :   0.9660 B( 18-C , 19-C ) :   1.2069
B( 18-C , 21-H ) :   0.9874 B( 19-C , 20-C ) :   1.5934 B( 19-C , 22-C ) :   1.0443
B( 22-C , 23-H ) :   0.9262 B( 22-C , 24-H ) :   0.9221 B( 22-C , 25-C ) :   1.0955
B( 25-C , 26-H ) :   0.9500 B( 25-C , 27-H ) :   0.9504 B( 25-C , 28-C ) :   1.0777
B( 28-C , 29-H ) :   0.9682 B( 28-C , 30-H ) :   0.9724 B( 28-C , 31-H ) :   0.9700

Dispersion correction           -0.016133997
FINAL SINGLE POINT ENERGY     -1339.873842721709

DIPOLE MOMENT
-------------
                                X             Y             Z
Electronic contribution:     19.34005       5.22436       7.41773
Nuclear contribution   :    -19.89645      -5.12527      -7.74203
                        -----------------------------------------
Total Dipole Moment    :     -0.55640       0.09909      -0.32430
                        -----------------------------------------
Magnitude (a.u.)       :      0.65159
Magnitude (Debye)      :      1.65621

Rotational constants in cm-1:     0.023171     0.008467     0.007409
Rotational constants in MHz :   694.635527   253.848794   222.128164

                             ****ORCA TERMINATED NORMALLY****
TOTAL RUN TIME: 0 days 0 hours 0 minutes 22 seconds 866 msec
