                         Program Version 4.2.1 -  RELEASE  -
|  1> ! wB97X-D3 SP def2-SVP
|  2> %pal
|  3> nprocs 24
|  4> end
|  5>
|  6> * xyz 0 1
|  7> S 	 -143.098 	 30.5744 	 -12.5319
|  8> C 	 -141.75 	 30.0818 	 -13.5763
|  9> C 	 -142.097 	 29.0612 	 -14.4617
| 10> C 	 -143.469 	 28.7905 	 -14.3939
| 11> C 	 -144.137 	 29.6088 	 -13.5518
| 12> H 	 -144.086 	 28.1011 	 -15.0226
| 13> C 	 -141.271 	 28.2348 	 -15.3546
| 14> H 	 -141.018 	 27.3081 	 -14.9362
| 15> H 	 -140.264 	 28.7486 	 -15.2303
| 16> C 	 -141.59 	 28.1915 	 -16.8121
| 17> H 	 -142.385 	 27.4926 	 -16.8576
| 18> H 	 -141.923 	 29.1474 	 -17.1937
| 19> C 	 -140.372 	 27.5618 	 -17.5837
| 20> H 	 -139.414 	 28.0698 	 -17.545
| 21> H 	 -140.265 	 26.4855 	 -17.3349
| 22> H 	 -140.543 	 27.4868 	 -18.6718
| 23> S 	 -146.509 	 31.0544 	 -13.6459
| 24> C 	 -147.978 	 30.2531 	 -13.3481
| 25> C 	 -147.782 	 28.9113 	 -13.0122
| 26> C 	 -146.364 	 28.5164 	 -12.9034
| 27> C 	 -145.593 	 29.6028 	 -13.3284
| 28> H 	 -148.712 	 28.3418 	 -12.7735
| 29> C 	 -145.837 	 27.2006 	 -12.3238
| 30> H 	 -146.086 	 27.2521 	 -11.2798
| 31> H 	 -144.737 	 27.4066 	 -12.2421
| 32> C 	 -146.34 	 25.9338 	 -12.9845
| 33> H 	 -146.132 	 26.0582 	 -14.0439
| 34> H 	 -147.473 	 25.9026 	 -12.8457
| 35> C 	 -145.6 	 24.6214 	 -12.4227
| 36> H 	 -145.625 	 24.4457 	 -11.3369
| 37> H 	 -144.551 	 24.7069 	 -12.6853
| 38> H 	 -145.999 	 23.7215 	 -12.9829
| 39> H 	 -140.688 	 30.3389 	 -13.4821
| 40> H 	 -148.923 	 30.8175 	 -13.184
| 41> *
| 42>
| 43>                          ****END OF INPUT****

CARTESIAN COORDINATES (ANGSTROEM)
---------------------------------
  S    -143.098000   30.574400  -12.531900
  C    -141.750000   30.081800  -13.576300
  C    -142.097000   29.061200  -14.461700
  C    -143.469000   28.790500  -14.393900
  C    -144.137000   29.608800  -13.551800
  H    -144.086000   28.101100  -15.022600
  C    -141.271000   28.234800  -15.354600
  H    -141.018000   27.308100  -14.936200
  H    -140.264000   28.748600  -15.230300
  C    -141.590000   28.191500  -16.812100
  H    -142.385000   27.492600  -16.857600
  H    -141.923000   29.147400  -17.193700
  C    -140.372000   27.561800  -17.583700
  H    -139.414000   28.069800  -17.545000
  H    -140.265000   26.485500  -17.334900
  H    -140.543000   27.486800  -18.671800
  S    -146.509000   31.054400  -13.645900
  C    -147.978000   30.253100  -13.348100
  C    -147.782000   28.911300  -13.012200
  C    -146.364000   28.516400  -12.903400
  C    -145.593000   29.602800  -13.328400
  H    -148.712000   28.341800  -12.773500
  C    -145.837000   27.200600  -12.323800
  H    -146.086000   27.252100  -11.279800
  H    -144.737000   27.406600  -12.242100
  C    -146.340000   25.933800  -12.984500
  H    -146.132000   26.058200  -14.043900
  H    -147.473000   25.902600  -12.845700
  C    -145.600000   24.621400  -12.422700
  H    -145.625000   24.445700  -11.336900
  H    -144.551000   24.706900  -12.685300
  H    -145.999000   23.721500  -12.982900
  H    -140.688000   30.338900  -13.482100
  H    -148.923000   30.817500  -13.184000

 Total Charge           Charge          ....    0
 Multiplicity           Mult            ....    1
 Number of Electrons    NEL             ....  134
 Basis Dimension        Dim             ....  322

ORBITAL ENERGIES
----------------

  NO   OCC          E(Eh)            E(eV)
   0   2.0000     -88.968989     -2420.9693
   1   2.0000     -88.963715     -2420.8258
   2   2.0000     -10.322590      -280.8920
   3   2.0000     -10.321820      -280.8710
   4   2.0000     -10.315581      -280.7012
   5   2.0000     -10.315180      -280.6903
   6   2.0000     -10.309541      -280.5369
   7   2.0000     -10.299767      -280.2709
   8   2.0000     -10.299732      -280.2699
   9   2.0000     -10.295442      -280.1532
  10   2.0000     -10.292143      -280.0635
  11   2.0000     -10.289932      -280.0033
  12   2.0000     -10.287570      -279.9390
  13   2.0000     -10.287110      -279.9265
  14   2.0000     -10.284868      -279.8655
  15   2.0000     -10.284392      -279.8525
  16   2.0000      -8.083220      -219.9556
  17   2.0000      -8.079483      -219.8539
  18   2.0000      -6.041722      -164.4036
  19   2.0000      -6.038006      -164.3025
  20   2.0000      -6.037844      -164.2981
  21   2.0000      -6.033831      -164.1889
  22   2.0000      -6.033815      -164.1885
  23   2.0000      -6.030371      -164.0947
  24   2.0000      -1.007230       -27.4081
  25   2.0000      -0.984394       -26.7867
  26   2.0000      -0.919779       -25.0285
  27   2.0000      -0.905807       -24.6483
  28   2.0000      -0.864359       -23.5204
  29   2.0000      -0.850642       -23.1472
  30   2.0000      -0.840878       -22.8815
  31   2.0000      -0.810155       -22.0454
  32   2.0000      -0.782840       -21.3022
  33   2.0000      -0.771108       -20.9829
  34   2.0000      -0.713091       -19.4042
  35   2.0000      -0.704649       -19.1745
  36   2.0000      -0.690690       -18.7946
  37   2.0000      -0.649826       -17.6827
  38   2.0000      -0.638741       -17.3810
  39   2.0000      -0.618544       -16.8314
  40   2.0000      -0.591454       -16.0943
  41   2.0000      -0.578367       -15.7382
  42   2.0000      -0.560167       -15.2429
  43   2.0000      -0.552304       -15.0289
  44   2.0000      -0.525388       -14.2965
  45   2.0000      -0.520190       -14.1551
  46   2.0000      -0.508266       -13.8306
  47   2.0000      -0.505534       -13.7563
  48   2.0000      -0.502849       -13.6832
  49   2.0000      -0.501637       -13.6502
  50   2.0000      -0.486097       -13.2274
  51   2.0000      -0.473326       -12.8799
  52   2.0000      -0.470023       -12.7900
  53   2.0000      -0.464246       -12.6328
  54   2.0000      -0.456481       -12.4215
  55   2.0000      -0.448967       -12.2170
  56   2.0000      -0.443954       -12.0806
  57   2.0000      -0.442693       -12.0463
  58   2.0000      -0.439666       -11.9639
  59   2.0000      -0.431203       -11.7336
  60   2.0000      -0.422079       -11.4854
  61   2.0000      -0.418630       -11.3915
  62   2.0000      -0.407500       -11.0886
  63   2.0000      -0.338400        -9.2083
  64   2.0000      -0.329522        -8.9668
  65   2.0000      -0.326165        -8.8754
  66   2.0000      -0.298883        -8.1330
  67   0.0000       0.037189         1.0120
  68   0.0000       0.069260         1.8847
  69   0.0000       0.107415         2.9229
  70   0.0000       0.116702         3.1756
  71   0.0000       0.132814         3.6141

MULLIKEN ATOMIC CHARGES
-----------------------
   0 S :    0.119479
   1 C :   -0.112557
   2 C :   -0.087841
   3 C :    0.013865
   4 C :   -0.172960
   5 H :    0.029704
   6 C :    0.067810
   7 H :    0.022881
   8 H :   -0.001354
   9 C :   -0.023213
  10 H :    0.021667
  11 H :    0.038529
  12 C :   -0.077818
  13 H :    0.040765
  14 H :    0.032600
  15 H :    0.028765
  16 S :    0.126041
  17 C :   -0.119606
  18 C :   -0.063127
  19 C :   -0.029461
  20 C :   -0.198770
  21 H :    0.033613
  22 C :    0.074209
  23 H :    0.027737
  24 H :    0.033234
  25 C :   -0.089172
  26 H :    0.035662
  27 H :    0.049919
  28 C :   -0.064655
  29 H :    0.044299
  30 H :    0.032303
  31 H :    0.047111
  32 H :    0.042911
  33 H :    0.077430
Sum of atomic charges:   -0.0000000

LOEWDIN ATOMIC CHARGES
----------------------
   0 S :    0.397574
   1 C :   -0.195810
   2 C :   -0.064814
   3 C :   -0.066243
   4 C :   -0.192930
   5 H :    0.040481
   6 C :   -0.038935
   7 H :    0.027294
   8 H :    0.031663
   9 C :   -0.028421
  10 H :    0.020906
  11 H :    0.028309
  12 C :   -0.070861
  13 H :    0.024578
  14 H :    0.030081
  15 H :    0.027624
  16 S :    0.426692
  17 C :   -0.215453
  18 C :   -0.082381
  19 C :   -0.048731
  20 C :   -0.213834
  21 H :    0.035095
  22 C :   -0.042790
  23 H :    0.031935
  24 H :    0.037927
  25 C :   -0.040325
  26 H :    0.025127
  27 H :    0.033190
  28 C :   -0.070679
  29 H :    0.027622
  30 H :    0.024694
  31 H :    0.033622
  32 H :    0.028966
  33 H :    0.038825

  Mayer bond orders larger than 0.100000
B(  0-S ,  1-C ) :   1.1212 B(  0-S ,  4-C ) :   1.1503 B(  1-C ,  2-C ) :   1.6341
B(  1-C , 32-H ) :   0.9582 B(  2-C ,  3-C ) :   1.2149 B(  2-C ,  6-C ) :   1.0265
B(  3-C ,  4-C ) :   1.6208 B(  3-C ,  5-H ) :   0.9882 B(  4-C , 20-C ) :   1.0031
B(  6-C ,  7-H ) :   0.9305 B(  6-C ,  8-H ) :   0.9308 B(  6-C ,  9-C ) :   1.0571
B(  9-C , 10-H ) :   0.9482 B(  9-C , 11-H ) :   0.9604 B(  9-C , 12-C ) :   1.0802
B( 12-C , 13-H ) :   0.9793 B( 12-C , 14-H ) :   0.9731 B( 12-C , 15-H ) :   0.9750
B( 16-S , 17-C ) :   1.1645 B( 16-S , 20-C ) :   1.1585 B( 17-C , 18-C ) :   1.6191
B( 17-C , 33-H ) :   0.9603 B( 18-C , 19-C ) :   1.2144 B( 18-C , 21-H ) :   0.9819
B( 19-C , 20-C ) :   1.5920 B( 19-C , 22-C ) :   1.0354 B( 22-C , 23-H ) :   0.9278
B( 22-C , 24-H ) :   0.9298 B( 22-C , 25-C ) :   1.0443 B( 25-C , 26-H ) :   0.9607
B( 25-C , 27-H ) :   0.9550 B( 25-C , 28-C ) :   1.0672 B( 28-C , 29-H ) :   0.9782
B( 28-C , 30-H ) :   0.9765 B( 28-C , 31-H ) :   0.9773

Dispersion correction           -0.014039315
FINAL SINGLE POINT ENERGY     -1339.865310788843

DIPOLE MOMENT
-------------
                                X             Y             Z
Electronic contribution:     -9.56006      25.91960      10.51055
Nuclear contribution   :      9.64752     -26.57110     -10.59000
                        -----------------------------------------
Total Dipole Moment    :      0.08746      -0.65150      -0.07946
                        -----------------------------------------
Magnitude (a.u.)       :      0.66213
Magnitude (Debye)      :      1.68300

Rotational constants in cm-1:     0.015978     0.008754     0.006885
Rotational constants in MHz :   478.995326   262.423844   206.415046

                             ****ORCA TERMINATED NORMALLY****
TOTAL RUN TIME: 0 days 0 hours 0 minutes 20 seconds 221 msec
