                         Program Version 4.2.1 -  RELEASE  -
|  1> ! wB97X-D3 SP def2-SVP
|  2> %pal
|  3> nprocs 24
|  4> end
|  5>
|  6> * xyz 0 1
|  7> S 	 -100.065 	 0.733005 	 -104.3
|  8> C 	 -99.5978 	 1.26029 	 -105.886
|  9> C 	 -100.757 	 1.70321 	 -106.585
| 10> C 	 -101.937 	 1.28745 	 -105.923
| 11> C 	 -101.744 	 0.545017 	 -104.831
| 12> H 	 -102.932 	 1.51778 	 -106.286
| 13> C 	 -100.757 	 2.39856 	 -107.984
| 14> H 	 -101.004 	 1.63231 	 -108.645
| 15> H 	 -99.7546 	 2.66319 	 -108.368
| 16> C 	 -101.666 	 3.63569 	 -108.11
| 17> H 	 -101.872 	 3.88152 	 -109.128
| 18> H 	 -102.65 	 3.52471 	 -107.665
| 19> C 	 -101.002 	 4.85282 	 -107.363
| 20> H 	 -100.169 	 5.2168 	 -107.954
| 21> H 	 -101.681 	 5.79099 	 -107.358
| 22> H 	 -100.74 	 4.59955 	 -106.311
| 23> S 	 -102.049 	 -1.94851 	 -103.784
| 24> C 	 -103.724 	 -2.40869 	 -103.212
| 25> C 	 -104.603 	 -1.3671 	 -103.3
| 26> C 	 -104.017 	 -0.203757 	 -103.879
| 27> C 	 -102.667 	 -0.325173 	 -104.16
| 28> H 	 -105.634 	 -1.38005 	 -102.973
| 29> C 	 -104.763 	 1.02041 	 -104.094
| 30> H 	 -104.979 	 1.01059 	 -105.227
| 31> H 	 -104.139 	 1.89741 	 -103.88
| 32> C 	 -106.075 	 1.23891 	 -103.418
| 33> H 	 -105.9 	 1.269 	 -102.314
| 34> H 	 -106.9 	 0.52305 	 -103.598
| 35> C 	 -106.721 	 2.5068 	 -103.811
| 36> H 	 -107.267 	 2.44861 	 -104.793
| 37> H 	 -106.116 	 3.40554 	 -103.725
| 38> H 	 -107.544 	 2.52759 	 -103.147
| 39> H 	 -98.6049 	 1.382 	 -106.259
| 40> H 	 -103.97 	 -3.44412 	 -102.981
| 41> *
| 42>
| 43>                          ****END OF INPUT****

CARTESIAN COORDINATES (ANGSTROEM)
---------------------------------
  S    -100.065000    0.733005  -104.300000
  C    -99.597800    1.260290  -105.886000
  C    -100.757000    1.703210  -106.585000
  C    -101.937000    1.287450  -105.923000
  C    -101.744000    0.545017  -104.831000
  H    -102.932000    1.517780  -106.286000
  C    -100.757000    2.398560  -107.984000
  H    -101.004000    1.632310  -108.645000
  H    -99.754600    2.663190  -108.368000
  C    -101.666000    3.635690  -108.110000
  H    -101.872000    3.881520  -109.128000
  H    -102.650000    3.524710  -107.665000
  C    -101.002000    4.852820  -107.363000
  H    -100.169000    5.216800  -107.954000
  H    -101.681000    5.790990  -107.358000
  H    -100.740000    4.599550  -106.311000
  S    -102.049000   -1.948510  -103.784000
  C    -103.724000   -2.408690  -103.212000
  C    -104.603000   -1.367100  -103.300000
  C    -104.017000   -0.203757  -103.879000
  C    -102.667000   -0.325173  -104.160000
  H    -105.634000   -1.380050  -102.973000
  C    -104.763000    1.020410  -104.094000
  H    -104.979000    1.010590  -105.227000
  H    -104.139000    1.897410  -103.880000
  C    -106.075000    1.238910  -103.418000
  H    -105.900000    1.269000  -102.314000
  H    -106.900000    0.523050  -103.598000
  C    -106.721000    2.506800  -103.811000
  H    -107.267000    2.448610  -104.793000
  H    -106.116000    3.405540  -103.725000
  H    -107.544000    2.527590  -103.147000
  H    -98.604900    1.382000  -106.259000
  H    -103.970000   -3.444120  -102.981000

 Total Charge           Charge          ....    0
 Multiplicity           Mult            ....    1
 Number of Electrons    NEL             ....  134
 Basis Dimension        Dim             ....  322

ORBITAL ENERGIES
----------------

  NO   OCC          E(Eh)            E(eV)
   0   2.0000     -88.963809     -2420.8283
   1   2.0000     -88.961628     -2420.7690
   2   2.0000     -10.323337      -280.9123
   3   2.0000     -10.323070      -280.9050
   4   2.0000     -10.322641      -280.8933
   5   2.0000     -10.312693      -280.6227
   6   2.0000     -10.305489      -280.4266
   7   2.0000     -10.297695      -280.2145
   8   2.0000     -10.294654      -280.1318
   9   2.0000     -10.293394      -280.0975
  10   2.0000     -10.292190      -280.0647
  11   2.0000     -10.289049      -279.9793
  12   2.0000     -10.288984      -279.9775
  13   2.0000     -10.287746      -279.9438
  14   2.0000     -10.284888      -279.8660
  15   2.0000     -10.276088      -279.6266
  16   2.0000      -8.077000      -219.7863
  17   2.0000      -8.076522      -219.7733
  18   2.0000      -6.035615      -164.2374
  19   2.0000      -6.035047      -164.2220
  20   2.0000      -6.031851      -164.1350
  21   2.0000      -6.031321      -164.1206
  22   2.0000      -6.027588      -164.0190
  23   2.0000      -6.026938      -164.0013
  24   2.0000      -1.007171       -27.4065
  25   2.0000      -0.980826       -26.6896
  26   2.0000      -0.923949       -25.1419
  27   2.0000      -0.904661       -24.6171
  28   2.0000      -0.870417       -23.6853
  29   2.0000      -0.860346       -23.4112
  30   2.0000      -0.842133       -22.9156
  31   2.0000      -0.815695       -22.1962
  32   2.0000      -0.780377       -21.2351
  33   2.0000      -0.767737       -20.8912
  34   2.0000      -0.707963       -19.2647
  35   2.0000      -0.699870       -19.0444
  36   2.0000      -0.693950       -18.8834
  37   2.0000      -0.654952       -17.8221
  38   2.0000      -0.642744       -17.4899
  39   2.0000      -0.624250       -16.9867
  40   2.0000      -0.607205       -16.5229
  41   2.0000      -0.580838       -15.8054
  42   2.0000      -0.564498       -15.3608
  43   2.0000      -0.551662       -15.0115
  44   2.0000      -0.537386       -14.6230
  45   2.0000      -0.535905       -14.5827
  46   2.0000      -0.520097       -14.1526
  47   2.0000      -0.512877       -13.9561
  48   2.0000      -0.500871       -13.6294
  49   2.0000      -0.491821       -13.3831
  50   2.0000      -0.484297       -13.1784
  51   2.0000      -0.482601       -13.1322
  52   2.0000      -0.468246       -12.7416
  53   2.0000      -0.461872       -12.5682
  54   2.0000      -0.457382       -12.4460
  55   2.0000      -0.453458       -12.3392
  56   2.0000      -0.446964       -12.1625
  57   2.0000      -0.432958       -11.7814
  58   2.0000      -0.430395       -11.7116
  59   2.0000      -0.424007       -11.5378
  60   2.0000      -0.420231       -11.4351
  61   2.0000      -0.418101       -11.3771
  62   2.0000      -0.413763       -11.2591
  63   2.0000      -0.351806        -9.5731
  64   2.0000      -0.327871        -8.9218
  65   2.0000      -0.322822        -8.7844
  66   2.0000      -0.282334        -7.6827
  67   0.0000       0.020638         0.5616
  68   0.0000       0.069651         1.8953
  69   0.0000       0.102047         2.7768
  70   0.0000       0.113718         3.0944
  71   0.0000       0.132415         3.6032

MULLIKEN ATOMIC CHARGES
-----------------------
   0 S :    0.111389
   1 C :   -0.115377
   2 C :   -0.099611
   3 C :    0.023401
   4 C :   -0.150850
   5 H :    0.000928
   6 C :    0.088686
   7 H :    0.025467
   8 H :    0.014749
   9 C :   -0.059146
  10 H :    0.023468
  11 H :    0.028515
  12 C :   -0.101097
  13 H :    0.029561
  14 H :    0.037597
  15 H :    0.058916
  16 S :    0.091465
  17 C :   -0.088808
  18 C :   -0.010780
  19 C :   -0.021495
  20 C :   -0.132503
  21 H :    0.019829
  22 C :    0.013777
  23 H :    0.050357
  24 H :    0.041569
  25 C :   -0.114266
  26 H :    0.036261
  27 H :    0.033115
  28 C :   -0.020873
  29 H :    0.034192
  30 H :    0.036238
  31 H :    0.014268
  32 H :    0.039895
  33 H :    0.061163
Sum of atomic charges:    0.0000000

LOEWDIN ATOMIC CHARGES
----------------------
   0 S :    0.391263
   1 C :   -0.199053
   2 C :   -0.056021
   3 C :   -0.065756
   4 C :   -0.183172
   5 H :    0.028709
   6 C :   -0.027361
   7 H :    0.024505
   8 H :    0.031817
   9 C :   -0.038629
  10 H :    0.021934
  11 H :    0.021358
  12 C :   -0.073415
  13 H :    0.020225
  14 H :    0.031182
  15 H :    0.031790
  16 S :    0.366303
  17 C :   -0.155087
  18 C :   -0.066716
  19 C :   -0.059023
  20 C :   -0.188521
  21 H :    0.034509
  22 C :   -0.047047
  23 H :    0.043970
  24 H :    0.038421
  25 C :   -0.052478
  26 H :    0.028931
  27 H :    0.028882
  28 C :   -0.062376
  29 H :    0.030951
  30 H :    0.023081
  31 H :    0.024468
  32 H :    0.022978
  33 H :    0.029378

  Mayer bond orders larger than 0.100000
B(  0-S ,  1-C ) :   1.1351 B(  0-S ,  4-C ) :   1.1338 B(  1-C ,  2-C ) :   1.5863
B(  1-C , 32-H ) :   0.9762 B(  2-C ,  3-C ) :   1.2380 B(  2-C ,  6-C ) :   1.0088
B(  3-C ,  4-C ) :   1.5817 B(  3-C ,  5-H ) :   0.9950 B(  4-C , 20-C ) :   1.0728
B(  6-C ,  7-H ) :   0.9409 B(  6-C ,  8-H ) :   0.9456 B(  6-C ,  9-C ) :   1.0666
B(  9-C , 10-H ) :   0.9554 B(  9-C , 11-H ) :   0.9607 B(  9-C , 12-C ) :   1.0629
B( 12-C , 13-H ) :   0.9770 B( 12-C , 14-H ) :   0.9760 B( 12-C , 15-H ) :   0.9778
B( 16-S , 17-C ) :   1.1364 B( 16-S , 20-C ) :   1.1153 B( 17-C , 18-C ) :   1.6037
B( 17-C , 33-H ) :   0.9646 B( 18-C , 19-C ) :   1.2457 B( 18-C , 21-H ) :   0.9833
B( 19-C , 20-C ) :   1.5967 B( 19-C , 22-C ) :   1.0582 B( 22-C , 23-H ) :   0.9073
B( 22-C , 24-H ) :   0.9305 B( 22-C , 25-C ) :   1.0951 B( 25-C , 26-H ) :   0.9479
B( 25-C , 27-H ) :   0.9394 B( 25-C , 28-C ) :   1.0991 B( 28-C , 29-H ) :   0.9697
B( 28-C , 30-H ) :   0.9709 B( 28-C , 31-H ) :   0.9683

Dispersion correction           -0.013919071
FINAL SINGLE POINT ENERGY     -1339.855968286680

DIPOLE MOMENT
-------------
                                X             Y             Z
Electronic contribution:     16.22518     -22.76920      10.95230
Nuclear contribution   :    -16.91331      23.10489     -11.35750
                        -----------------------------------------
Total Dipole Moment    :     -0.68813       0.33570      -0.40520
                        -----------------------------------------
Magnitude (a.u.)       :      0.86626
Magnitude (Debye)      :      2.20185

Rotational constants in cm-1:     0.016857     0.009355     0.006553
Rotational constants in MHz :   505.351455   280.464336   196.443433

                             ****ORCA TERMINATED NORMALLY****
TOTAL RUN TIME: 0 days 0 hours 0 minutes 20 seconds 395 msec
