                         Program Version 4.2.1 -  RELEASE  -
|  1> ! wB97X-D3 SP def2-SVP
|  2> %pal
|  3> nprocs 24
|  4> end
|  5>
|  6> * xyz 0 1
|  7> S 	 2.6918 	 -24.6449 	 -114.358
|  8> C 	 3.37915 	 -24.9703 	 -115.933
|  9> C 	 3.69315 	 -26.3468 	 -115.956
| 10> C 	 3.36138 	 -27.0866 	 -114.812
| 11> C 	 2.79557 	 -26.2936 	 -113.799
| 12> H 	 3.57309 	 -28.1183 	 -114.558
| 13> C 	 4.27342 	 -27.0322 	 -117.176
| 14> H 	 5.19542 	 -26.4483 	 -117.489
| 15> H 	 3.53902 	 -26.7813 	 -117.913
| 16> C 	 4.63227 	 -28.5319 	 -117.086
| 17> H 	 5.23335 	 -28.8163 	 -116.205
| 18> H 	 3.63523 	 -29.0323 	 -116.924
| 19> C 	 5.42411 	 -29.026 	 -118.314
| 20> H 	 6.35771 	 -28.3355 	 -118.476
| 21> H 	 5.79614 	 -30.0773 	 -118.148
| 22> H 	 4.67229 	 -29.0416 	 -119.135
| 23> S 	 2.3204 	 -25.4124 	 -111.22
| 24> C 	 2.06925 	 -26.5584 	 -109.909
| 25> C 	 2.18637 	 -27.8583 	 -110.378
| 26> C 	 2.31136 	 -27.9102 	 -111.834
| 27> C 	 2.47478 	 -26.7038 	 -112.448
| 28> H 	 2.14361 	 -28.6474 	 -109.646
| 29> C 	 2.22834 	 -29.2475 	 -112.476
| 30> H 	 2.33748 	 -29.2405 	 -113.583
| 31> H 	 1.21074 	 -29.5482 	 -112.424
| 32> C 	 3.21658 	 -30.2383 	 -111.952
| 33> H 	 3.0789 	 -30.4096 	 -110.928
| 34> H 	 4.21652 	 -29.9026 	 -112.081
| 35> C 	 3.29561 	 -31.5689 	 -112.751
| 36> H 	 3.41557 	 -31.4589 	 -113.844
| 37> H 	 2.40767 	 -32.0717 	 -112.383
| 38> H 	 4.15378 	 -32.0243 	 -112.451
| 39> H 	 3.69748 	 -24.2584 	 -116.637
| 40> H 	 1.48641 	 -26.3318 	 -108.996
| 41> *
| 42>
| 43>                          ****END OF INPUT****

CARTESIAN COORDINATES (ANGSTROEM)
---------------------------------
  S      2.691800  -24.644900  -114.358000
  C      3.379150  -24.970300  -115.933000
  C      3.693150  -26.346800  -115.956000
  C      3.361380  -27.086600  -114.812000
  C      2.795570  -26.293600  -113.799000
  H      3.573090  -28.118300  -114.558000
  C      4.273420  -27.032200  -117.176000
  H      5.195420  -26.448300  -117.489000
  H      3.539020  -26.781300  -117.913000
  C      4.632270  -28.531900  -117.086000
  H      5.233350  -28.816300  -116.205000
  H      3.635230  -29.032300  -116.924000
  C      5.424110  -29.026000  -118.314000
  H      6.357710  -28.335500  -118.476000
  H      5.796140  -30.077300  -118.148000
  H      4.672290  -29.041600  -119.135000
  S      2.320400  -25.412400  -111.220000
  C      2.069250  -26.558400  -109.909000
  C      2.186370  -27.858300  -110.378000
  C      2.311360  -27.910200  -111.834000
  C      2.474780  -26.703800  -112.448000
  H      2.143610  -28.647400  -109.646000
  C      2.228340  -29.247500  -112.476000
  H      2.337480  -29.240500  -113.583000
  H      1.210740  -29.548200  -112.424000
  C      3.216580  -30.238300  -111.952000
  H      3.078900  -30.409600  -110.928000
  H      4.216520  -29.902600  -112.081000
  C      3.295610  -31.568900  -112.751000
  H      3.415570  -31.458900  -113.844000
  H      2.407670  -32.071700  -112.383000
  H      4.153780  -32.024300  -112.451000
  H      3.697480  -24.258400  -116.637000
  H      1.486410  -26.331800  -108.996000

 Total Charge           Charge          ....    0
 Multiplicity           Mult            ....    1
 Number of Electrons    NEL             ....  134
 Basis Dimension        Dim             ....  322

ORBITAL ENERGIES
----------------

  NO   OCC          E(Eh)            E(eV)
   0   2.0000     -88.968838     -2420.9652
   1   2.0000     -88.959682     -2420.7160
   2   2.0000     -10.333171      -281.1799
   3   2.0000     -10.330729      -281.1134
   4   2.0000     -10.320720      -280.8411
   5   2.0000     -10.312711      -280.6231
   6   2.0000     -10.305767      -280.4342
   7   2.0000     -10.303492      -280.3723
   8   2.0000     -10.299357      -280.2597
   9   2.0000     -10.297335      -280.2047
  10   2.0000     -10.296239      -280.1749
  11   2.0000     -10.293128      -280.0902
  12   2.0000     -10.292136      -280.0632
  13   2.0000     -10.286845      -279.9193
  14   2.0000     -10.278290      -279.6865
  15   2.0000     -10.274713      -279.5892
  16   2.0000      -8.083042      -219.9508
  17   2.0000      -8.074161      -219.7091
  18   2.0000      -6.041592      -164.4001
  19   2.0000      -6.037381      -164.2855
  20   2.0000      -6.034043      -164.1947
  21   2.0000      -6.032959      -164.1652
  22   2.0000      -6.028680      -164.0487
  23   2.0000      -6.024653      -163.9391
  24   2.0000      -1.006400       -27.3855
  25   2.0000      -0.982756       -26.7422
  26   2.0000      -0.919473       -25.0201
  27   2.0000      -0.909481       -24.7482
  28   2.0000      -0.872523       -23.7426
  29   2.0000      -0.855292       -23.2737
  30   2.0000      -0.844155       -22.9706
  31   2.0000      -0.817762       -22.2524
  32   2.0000      -0.783531       -21.3210
  33   2.0000      -0.769470       -20.9383
  34   2.0000      -0.714275       -19.4364
  35   2.0000      -0.704275       -19.1643
  36   2.0000      -0.691655       -18.8209
  37   2.0000      -0.659434       -17.9441
  38   2.0000      -0.639750       -17.4085
  39   2.0000      -0.621653       -16.9160
  40   2.0000      -0.598760       -16.2931
  41   2.0000      -0.578346       -15.7376
  42   2.0000      -0.569528       -15.4976
  43   2.0000      -0.566463       -15.4142
  44   2.0000      -0.537610       -14.6291
  45   2.0000      -0.535436       -14.5700
  46   2.0000      -0.519205       -14.1283
  47   2.0000      -0.510463       -13.8904
  48   2.0000      -0.507796       -13.8178
  49   2.0000      -0.501656       -13.6507
  50   2.0000      -0.494067       -13.4442
  51   2.0000      -0.481592       -13.1048
  52   2.0000      -0.477810       -13.0019
  53   2.0000      -0.469658       -12.7800
  54   2.0000      -0.460717       -12.5367
  55   2.0000      -0.451389       -12.2829
  56   2.0000      -0.442626       -12.0445
  57   2.0000      -0.433942       -11.8082
  58   2.0000      -0.430804       -11.7228
  59   2.0000      -0.424059       -11.5392
  60   2.0000      -0.422570       -11.4987
  61   2.0000      -0.409060       -11.1311
  62   2.0000      -0.400227       -10.8907
  63   2.0000      -0.359207        -9.7745
  64   2.0000      -0.333209        -9.0671
  65   2.0000      -0.324366        -8.8265
  66   2.0000      -0.280840        -7.6420
  67   0.0000       0.013033         0.3546
  68   0.0000       0.082430         2.2430
  69   0.0000       0.099911         2.7187
  70   0.0000       0.117341         3.1930
  71   0.0000       0.124110         3.3772

MULLIKEN ATOMIC CHARGES
-----------------------
   0 S :    0.112772
   1 C :   -0.107305
   2 C :   -0.077433
   3 C :   -0.022452
   4 C :   -0.107404
   5 H :    0.012790
   6 C :    0.033137
   7 H :    0.031461
   8 H :    0.038438
   9 C :   -0.114095
  10 H :    0.040696
  11 H :    0.039853
  12 C :   -0.069121
  13 H :    0.056686
  14 H :    0.046343
  15 H :    0.044565
  16 S :    0.070350
  17 C :   -0.099500
  18 C :   -0.048104
  19 C :   -0.057450
  20 C :   -0.094611
  21 H :    0.026892
  22 C :    0.076967
  23 H :    0.000255
  24 H :    0.024726
  25 C :   -0.093283
  26 H :    0.019931
  27 H :    0.018338
  28 C :   -0.008809
  29 H :    0.035836
  30 H :    0.035443
  31 H :    0.011045
  32 H :    0.038140
  33 H :    0.084902
Sum of atomic charges:   -0.0000000

LOEWDIN ATOMIC CHARGES
----------------------
   0 S :    0.422161
   1 C :   -0.206808
   2 C :   -0.055974
   3 C :   -0.076258
   4 C :   -0.187463
   5 H :    0.029226
   6 C :   -0.041199
   7 H :    0.034736
   8 H :    0.033521
   9 C :   -0.055774
  10 H :    0.024064
  11 H :    0.028760
  12 C :   -0.073857
  13 H :    0.039460
  14 H :    0.031131
  15 H :    0.029419
  16 S :    0.369219
  17 C :   -0.187284
  18 C :   -0.066373
  19 C :   -0.054598
  20 C :   -0.178038
  21 H :    0.030793
  22 C :   -0.037033
  23 H :    0.029265
  24 H :    0.031147
  25 C :   -0.032267
  26 H :    0.014774
  27 H :    0.021685
  28 C :   -0.051871
  29 H :    0.029055
  30 H :    0.027420
  31 H :    0.012569
  32 H :    0.023230
  33 H :    0.043165

  Mayer bond orders larger than 0.100000
B(  0-S ,  1-C ) :   1.1398 B(  0-S ,  4-C ) :   1.1769 B(  1-C ,  2-C ) :   1.5453
B(  1-C ,  4-C ) :   0.1161 B(  1-C , 32-H ) :   0.9852 B(  2-C ,  3-C ) :   1.3094
B(  2-C ,  6-C ) :   0.9972 B(  3-C ,  4-C ) :   1.4979 B(  3-C ,  5-H ) :   0.9793
B(  4-C , 20-C ) :   1.0983 B(  6-C ,  7-H ) :   0.9377 B(  6-C ,  8-H ) :   0.9405
B(  6-C ,  9-C ) :   1.0756 B(  9-C , 10-H ) :   0.9547 B(  9-C , 11-H ) :   0.9461
B(  9-C , 12-C ) :   1.0715 B( 12-C , 13-H ) :   0.9712 B( 12-C , 14-H ) :   0.9737
B( 12-C , 15-H ) :   0.9757 B( 16-S , 17-C ) :   1.1482 B( 16-S , 20-C ) :   1.0949
B( 17-C , 18-C ) :   1.6395 B( 17-C , 33-H ) :   0.9551 B( 18-C , 19-C ) :   1.2032
B( 18-C , 21-H ) :   0.9898 B( 19-C , 20-C ) :   1.6309 B( 19-C , 22-C ) :   1.0397
B( 22-C , 23-H ) :   0.9346 B( 22-C , 24-H ) :   0.9213 B( 22-C , 25-C ) :   1.0583
B( 25-C , 26-H ) :   0.9546 B( 25-C , 27-H ) :   0.9584 B( 25-C , 28-C ) :   1.0858
B( 28-C , 29-H ) :   0.9722 B( 28-C , 30-H ) :   0.9783 B( 28-C , 31-H ) :   0.9753

Dispersion correction           -0.013744154
FINAL SINGLE POINT ENERGY     -1339.851994653620

DIPOLE MOMENT
-------------
                                X             Y             Z
Electronic contribution:     -9.88725      28.69875      14.60300
Nuclear contribution   :     10.03591     -29.49747     -14.78631
                        -----------------------------------------
Total Dipole Moment    :      0.14866      -0.79873      -0.18331
                        -----------------------------------------
Magnitude (a.u.)       :      0.83286
Magnitude (Debye)      :      2.11697

Rotational constants in cm-1:     0.016291     0.009845     0.006276
Rotational constants in MHz :   488.405758   295.136745   188.137376

                             ****ORCA TERMINATED NORMALLY****
TOTAL RUN TIME: 0 days 0 hours 0 minutes 20 seconds 730 msec
