                         Program Version 4.2.1 -  RELEASE  -
|  1> ! wB97X-D3 SP def2-SVP
|  2> %pal
|  3> nprocs 24
|  4> end
|  5>
|  6> * xyz 0 1
|  7> S 	 -76.3884 	 -18.9385 	 -57.8499
|  8> C 	 -75.8699 	 -17.7972 	 -56.6218
|  9> C 	 -76.8181 	 -16.8823 	 -56.2149
| 10> C 	 -77.935 	 -16.9301 	 -57.0732
| 11> C 	 -77.8482 	 -17.9578 	 -58.0388
| 12> H 	 -78.8185 	 -16.3495 	 -56.9051
| 13> C 	 -76.7817 	 -16.0489 	 -55.0703
| 14> H 	 -76.8045 	 -16.8566 	 -54.343
| 15> H 	 -77.731 	 -15.5382 	 -55.0569
| 16> C 	 -75.5363 	 -15.1583 	 -55.0084
| 17> H 	 -74.8093 	 -15.7955 	 -54.5091
| 18> H 	 -75.0888 	 -14.9054 	 -56.0305
| 19> C 	 -75.8474 	 -13.9211 	 -54.1444
| 20> H 	 -76.5405 	 -13.2892 	 -54.7159
| 21> H 	 -76.2564 	 -14.2004 	 -53.1423
| 22> H 	 -75.034 	 -13.2214 	 -54.0449
| 23> S 	 -79.1922 	 -17.6587 	 -60.4668
| 24> C 	 -80.3658 	 -18.8321 	 -60.9978
| 25> C 	 -80.7204 	 -19.5333 	 -59.878
| 26> C 	 -79.8982 	 -19.3839 	 -58.75
| 27> C 	 -78.9219 	 -18.4163 	 -58.9095
| 28> H 	 -81.5615 	 -20.1615 	 -59.9507
| 29> C 	 -80.1431 	 -20.1214 	 -57.4704
| 30> H 	 -81.1877 	 -20.0639 	 -57.1884
| 31> H 	 -79.5058 	 -19.552 	 -56.7069
| 32> C 	 -79.6059 	 -21.5259 	 -57.4473
| 33> H 	 -78.5514 	 -21.4872 	 -57.6629
| 34> H 	 -80.0128 	 -22.0987 	 -58.3044
| 35> C 	 -79.7089 	 -22.2344 	 -56.0793
| 36> H 	 -79.2649 	 -23.2582 	 -56.1088
| 37> H 	 -80.6507 	 -22.2962 	 -55.5734
| 38> H 	 -79.1486 	 -21.6242 	 -55.4651
| 39> H 	 -75.0752 	 -18.0877 	 -55.9968
| 40> H 	 -80.94 	 -18.8199 	 -61.9347
| 41> *
| 42>
| 43>                          ****END OF INPUT****

CARTESIAN COORDINATES (ANGSTROEM)
---------------------------------
  S    -76.388400  -18.938500  -57.849900
  C    -75.869900  -17.797200  -56.621800
  C    -76.818100  -16.882300  -56.214900
  C    -77.935000  -16.930100  -57.073200
  C    -77.848200  -17.957800  -58.038800
  H    -78.818500  -16.349500  -56.905100
  C    -76.781700  -16.048900  -55.070300
  H    -76.804500  -16.856600  -54.343000
  H    -77.731000  -15.538200  -55.056900
  C    -75.536300  -15.158300  -55.008400
  H    -74.809300  -15.795500  -54.509100
  H    -75.088800  -14.905400  -56.030500
  C    -75.847400  -13.921100  -54.144400
  H    -76.540500  -13.289200  -54.715900
  H    -76.256400  -14.200400  -53.142300
  H    -75.034000  -13.221400  -54.044900
  S    -79.192200  -17.658700  -60.466800
  C    -80.365800  -18.832100  -60.997800
  C    -80.720400  -19.533300  -59.878000
  C    -79.898200  -19.383900  -58.750000
  C    -78.921900  -18.416300  -58.909500
  H    -81.561500  -20.161500  -59.950700
  C    -80.143100  -20.121400  -57.470400
  H    -81.187700  -20.063900  -57.188400
  H    -79.505800  -19.552000  -56.706900
  C    -79.605900  -21.525900  -57.447300
  H    -78.551400  -21.487200  -57.662900
  H    -80.012800  -22.098700  -58.304400
  C    -79.708900  -22.234400  -56.079300
  H    -79.264900  -23.258200  -56.108800
  H    -80.650700  -22.296200  -55.573400
  H    -79.148600  -21.624200  -55.465100
  H    -75.075200  -18.087700  -55.996800
  H    -80.940000  -18.819900  -61.934700

 Total Charge           Charge          ....    0
 Multiplicity           Mult            ....    1
 Number of Electrons    NEL             ....  134
 Basis Dimension        Dim             ....  322

ORBITAL ENERGIES
----------------

  NO   OCC          E(Eh)            E(eV)
   0   2.0000     -88.971314     -2421.0325
   1   2.0000     -88.957287     -2420.6508
   2   2.0000     -10.332807      -281.1700
   3   2.0000     -10.321812      -280.8708
   4   2.0000     -10.314830      -280.6808
   5   2.0000     -10.305427      -280.4249
   6   2.0000     -10.296807      -280.1904
   7   2.0000     -10.295839      -280.1640
   8   2.0000     -10.295354      -280.1508
   9   2.0000     -10.293600      -280.1031
  10   2.0000     -10.287139      -279.9273
  11   2.0000     -10.286060      -279.8979
  12   2.0000     -10.284223      -279.8479
  13   2.0000     -10.283101      -279.8174
  14   2.0000     -10.279853      -279.7290
  15   2.0000     -10.269685      -279.4523
  16   2.0000      -8.085248      -220.0108
  17   2.0000      -8.072398      -219.6611
  18   2.0000      -6.043588      -164.4544
  19   2.0000      -6.040008      -164.3570
  20   2.0000      -6.036102      -164.2507
  21   2.0000      -6.030897      -164.1091
  22   2.0000      -6.026784      -163.9971
  23   2.0000      -6.023187      -163.8992
  24   2.0000      -1.007550       -27.4168
  25   2.0000      -0.989289       -26.9199
  26   2.0000      -0.926256       -25.2047
  27   2.0000      -0.909525       -24.7494
  28   2.0000      -0.868418       -23.6308
  29   2.0000      -0.856533       -23.3075
  30   2.0000      -0.846513       -23.0348
  31   2.0000      -0.815223       -22.1834
  32   2.0000      -0.783250       -21.3133
  33   2.0000      -0.769774       -20.9466
  34   2.0000      -0.716271       -19.4907
  35   2.0000      -0.702795       -19.1240
  36   2.0000      -0.693634       -18.8747
  37   2.0000      -0.658999       -17.9323
  38   2.0000      -0.644838       -17.5469
  39   2.0000      -0.615681       -16.7535
  40   2.0000      -0.593327       -16.1452
  41   2.0000      -0.576408       -15.6849
  42   2.0000      -0.568820       -15.4784
  43   2.0000      -0.561245       -15.2723
  44   2.0000      -0.535989       -14.5850
  45   2.0000      -0.525966       -14.3123
  46   2.0000      -0.522626       -14.2214
  47   2.0000      -0.514711       -14.0060
  48   2.0000      -0.506209       -13.7746
  49   2.0000      -0.499651       -13.5962
  50   2.0000      -0.487972       -13.2784
  51   2.0000      -0.475986       -12.9522
  52   2.0000      -0.468433       -12.7467
  53   2.0000      -0.461159       -12.5488
  54   2.0000      -0.458200       -12.4682
  55   2.0000      -0.451959       -12.2984
  56   2.0000      -0.445804       -12.1310
  57   2.0000      -0.438513       -11.9325
  58   2.0000      -0.438343       -11.9279
  59   2.0000      -0.435268       -11.8442
  60   2.0000      -0.414920       -11.2905
  61   2.0000      -0.411155       -11.1881
  62   2.0000      -0.408443       -11.1143
  63   2.0000      -0.336327        -9.1519
  64   2.0000      -0.326582        -8.8868
  65   2.0000      -0.316894        -8.6231
  66   2.0000      -0.305459        -8.3119
  67   0.0000       0.035873         0.9762
  68   0.0000       0.051174         1.3925
  69   0.0000       0.099588         2.7099
  70   0.0000       0.122172         3.3245
  71   0.0000       0.132557         3.6071

MULLIKEN ATOMIC CHARGES
-----------------------
   0 S :    0.125661
   1 C :   -0.104262
   2 C :   -0.131212
   3 C :    0.051009
   4 C :   -0.179517
   5 H :    0.009787
   6 C :    0.107628
   7 H :    0.043911
   8 H :    0.010442
   9 C :   -0.089590
  10 H :    0.029576
  11 H :    0.059907
  12 C :   -0.049006
  13 H :    0.030306
  14 H :    0.045982
  15 H :    0.027217
  16 S :    0.096038
  17 C :   -0.099312
  18 C :   -0.023722
  19 C :   -0.008223
  20 C :   -0.182326
  21 H :   -0.003000
  22 C :    0.051897
  23 H :    0.029756
  24 H :    0.027486
  25 C :   -0.069853
  26 H :    0.012201
  27 H :    0.023357
  28 C :   -0.005057
  29 H :    0.041835
  30 H :    0.021170
  31 H :    0.002783
  32 H :    0.027507
  33 H :    0.069621
Sum of atomic charges:   -0.0000000

LOEWDIN ATOMIC CHARGES
----------------------
   0 S :    0.413475
   1 C :   -0.200162
   2 C :   -0.059195
   3 C :   -0.049316
   4 C :   -0.191223
   5 H :    0.029870
   6 C :   -0.036262
   7 H :    0.046659
   8 H :    0.027914
   9 C :   -0.038610
  10 H :    0.024034
  11 H :    0.037320
  12 C :   -0.069226
  13 H :    0.027038
  14 H :    0.032529
  15 H :    0.022369
  16 S :    0.405898
  17 C :   -0.189711
  18 C :   -0.072871
  19 C :   -0.061061
  20 C :   -0.207827
  21 H :    0.021698
  22 C :   -0.034498
  23 H :    0.029182
  24 H :    0.036198
  25 C :   -0.041519
  26 H :    0.020310
  27 H :    0.019702
  28 C :   -0.061453
  29 H :    0.034063
  30 H :    0.019867
  31 H :    0.014942
  32 H :    0.010971
  33 H :    0.038894

  Mayer bond orders larger than 0.100000
B(  0-S ,  1-C ) :   1.1403 B(  0-S ,  4-C ) :   1.1729 B(  1-C ,  2-C ) :   1.5926
B(  1-C ,  4-C ) :   0.1013 B(  1-C , 32-H ) :   0.9666 B(  2-C ,  3-C ) :   1.2755
B(  2-C ,  6-C ) :   1.0109 B(  3-C ,  4-C ) :   1.5456 B(  3-C ,  5-H ) :   0.9936
B(  4-C , 20-C ) :   1.0195 B(  6-C ,  7-H ) :   0.9123 B(  6-C ,  8-H ) :   0.9444
B(  6-C ,  9-C ) :   1.0359 B(  9-C , 10-H ) :   0.9464 B(  9-C , 11-H ) :   0.9678
B(  9-C , 12-C ) :   1.0830 B( 12-C , 13-H ) :   0.9763 B( 12-C , 14-H ) :   0.9711
B( 12-C , 15-H ) :   0.9742 B( 16-S , 17-C ) :   1.1632 B( 16-S , 20-C ) :   1.1501
B( 17-C , 18-C ) :   1.5813 B( 17-C , 20-C ) :   0.1063 B( 17-C , 33-H ) :   0.9661
B( 18-C , 19-C ) :   1.2581 B( 18-C , 21-H ) :   0.9973 B( 19-C , 20-C ) :   1.5762
B( 19-C , 22-C ) :   1.0446 B( 22-C , 23-H ) :   0.9376 B( 22-C , 24-H ) :   0.9261
B( 22-C , 25-C ) :   1.0722 B( 25-C , 26-H ) :   0.9463 B( 25-C , 27-H ) :   0.9574
B( 25-C , 28-C ) :   1.0729 B( 28-C , 29-H ) :   0.9740 B( 28-C , 30-H ) :   0.9766
B( 28-C , 31-H ) :   0.9707

Dispersion correction           -0.014376285
FINAL SINGLE POINT ENERGY     -1339.857215640991

DIPOLE MOMENT
-------------
                                X             Y             Z
Electronic contribution:      0.04176      -0.32633     -22.45447
Nuclear contribution   :     -0.28163       0.37962      23.17433
                        -----------------------------------------
Total Dipole Moment    :     -0.23987       0.05329       0.71986
                        -----------------------------------------
Magnitude (a.u.)       :      0.76064
Magnitude (Debye)      :      1.93340

Rotational constants in cm-1:     0.020123     0.007766     0.006490
Rotational constants in MHz :   603.265787   232.824423   194.579434

                             ****ORCA TERMINATED NORMALLY****
TOTAL RUN TIME: 0 days 0 hours 0 minutes 21 seconds 277 msec
