                         Program Version 4.2.1 -  RELEASE  -
|  1> ! wB97X-D3 SP def2-SVP
|  2> %pal
|  3> nprocs 24
|  4> end
|  5>
|  6> * xyz 0 1
|  7> S 	 -40.3915 	 -6.81859 	 4.29593
|  8> C 	 -40.7614 	 -8.39679 	 4.99092
|  9> C 	 -41.4348 	 -8.2313 	 6.20384
| 10> C 	 -41.4692 	 -6.8891 	 6.65548
| 11> C 	 -40.7352 	 -6.05333 	 5.81238
| 12> H 	 -42.0699 	 -6.55058 	 7.50166
| 13> C 	 -42.1436 	 -9.35023 	 6.89488
| 14> H 	 -42.3341 	 -10.0771 	 6.03827
| 15> H 	 -43.1028 	 -8.98578 	 7.2056
| 16> C 	 -41.5313 	 -9.88954 	 8.21224
| 17> H 	 -42.065 	 -10.8275 	 8.53617
| 18> H 	 -40.5071 	 -10.0876 	 7.95436
| 19> C 	 -41.4278 	 -9.03627 	 9.51997
| 20> H 	 -42.3037 	 -8.89805 	 10.1441
| 21> H 	 -40.8488 	 -9.47088 	 10.2837
| 22> H 	 -41.0012 	 -8.04726 	 9.33955
| 23> S 	 -40.8839 	 -3.55039 	 4.73319
| 24> C 	 -40.6235 	 -2.25083 	 5.79192
| 25> C 	 -40.094 	 -2.62828 	 7.05731
| 26> C 	 -40.2052 	 -4.02815 	 7.21238
| 27> C 	 -40.6327 	 -4.63061 	 6.05102
| 28> H 	 -39.9232 	 -1.91645 	 7.81962
| 29> C 	 -39.8361 	 -4.66659 	 8.58031
| 30> H 	 -38.8249 	 -4.37072 	 8.91283
| 31> H 	 -39.8501 	 -5.69588 	 8.45536
| 32> C 	 -40.7998 	 -4.4771 	 9.72258
| 33> H 	 -41.7705 	 -4.79928 	 9.4376
| 34> H 	 -40.8977 	 -3.38551 	 9.79936
| 35> C 	 -40.5643 	 -4.94488 	 11.1404
| 36> H 	 -41.4168 	 -4.60055 	 11.7641
| 37> H 	 -39.6073 	 -4.57851 	 11.6439
| 38> H 	 -40.3698 	 -5.99005 	 11.2269
| 39> H 	 -40.6622 	 -9.31279 	 4.43126
| 40> H 	 -40.7042 	 -1.29349 	 5.36325
| 41> *
| 42>
| 43>                          ****END OF INPUT****

CARTESIAN COORDINATES (ANGSTROEM)
---------------------------------
  S    -40.391500   -6.818590    4.295930
  C    -40.761400   -8.396790    4.990920
  C    -41.434800   -8.231300    6.203840
  C    -41.469200   -6.889100    6.655480
  C    -40.735200   -6.053330    5.812380
  H    -42.069900   -6.550580    7.501660
  C    -42.143600   -9.350230    6.894880
  H    -42.334100  -10.077100    6.038270
  H    -43.102800   -8.985780    7.205600
  C    -41.531300   -9.889540    8.212240
  H    -42.065000  -10.827500    8.536170
  H    -40.507100  -10.087600    7.954360
  C    -41.427800   -9.036270    9.519970
  H    -42.303700   -8.898050   10.144100
  H    -40.848800   -9.470880   10.283700
  H    -41.001200   -8.047260    9.339550
  S    -40.883900   -3.550390    4.733190
  C    -40.623500   -2.250830    5.791920
  C    -40.094000   -2.628280    7.057310
  C    -40.205200   -4.028150    7.212380
  C    -40.632700   -4.630610    6.051020
  H    -39.923200   -1.916450    7.819620
  C    -39.836100   -4.666590    8.580310
  H    -38.824900   -4.370720    8.912830
  H    -39.850100   -5.695880    8.455360
  C    -40.799800   -4.477100    9.722580
  H    -41.770500   -4.799280    9.437600
  H    -40.897700   -3.385510    9.799360
  C    -40.564300   -4.944880   11.140400
  H    -41.416800   -4.600550   11.764100
  H    -39.607300   -4.578510   11.643900
  H    -40.369800   -5.990050   11.226900
  H    -40.662200   -9.312790    4.431260
  H    -40.704200   -1.293490    5.363250

 Total Charge           Charge          ....    0
 Multiplicity           Mult            ....    1
 Number of Electrons    NEL             ....  134
 Basis Dimension        Dim             ....  322

ORBITAL ENERGIES
----------------

  NO   OCC          E(Eh)            E(eV)
   0   2.0000     -88.969848     -2420.9926
   1   2.0000     -88.967755     -2420.9357
   2   2.0000     -10.326816      -281.0069
   3   2.0000     -10.321215      -280.8545
   4   2.0000     -10.315137      -280.6892
   5   2.0000     -10.312880      -280.6277
   6   2.0000     -10.303828      -280.3814
   7   2.0000     -10.298451      -280.2351
   8   2.0000     -10.294796      -280.1356
   9   2.0000     -10.294099      -280.1167
  10   2.0000     -10.293954      -280.1127
  11   2.0000     -10.291417      -280.0437
  12   2.0000     -10.287701      -279.9426
  13   2.0000     -10.284649      -279.8595
  14   2.0000     -10.280976      -279.7596
  15   2.0000     -10.277408      -279.6625
  16   2.0000      -8.086341      -220.0405
  17   2.0000      -8.082492      -219.9358
  18   2.0000      -6.044468      -164.4783
  19   2.0000      -6.041012      -164.3843
  20   2.0000      -6.040738      -164.3768
  21   2.0000      -6.037279      -164.2827
  22   2.0000      -6.037231      -164.2814
  23   2.0000      -6.033051      -164.1677
  24   2.0000      -1.014967       -27.6187
  25   2.0000      -0.988041       -26.8860
  26   2.0000      -0.914616       -24.8880
  27   2.0000      -0.908201       -24.7134
  28   2.0000      -0.867336       -23.6014
  29   2.0000      -0.860977       -23.4284
  30   2.0000      -0.846269       -23.0281
  31   2.0000      -0.812200       -22.1011
  32   2.0000      -0.792480       -21.5645
  33   2.0000      -0.775977       -21.1154
  34   2.0000      -0.705006       -19.1842
  35   2.0000      -0.700524       -19.0622
  36   2.0000      -0.696425       -18.9507
  37   2.0000      -0.669528       -18.2188
  38   2.0000      -0.638130       -17.3644
  39   2.0000      -0.618271       -16.8240
  40   2.0000      -0.602533       -16.3958
  41   2.0000      -0.570630       -15.5276
  42   2.0000      -0.568925       -15.4812
  43   2.0000      -0.545747       -14.8505
  44   2.0000      -0.537429       -14.6242
  45   2.0000      -0.530402       -14.4330
  46   2.0000      -0.517072       -14.0702
  47   2.0000      -0.508115       -13.8265
  48   2.0000      -0.503902       -13.7119
  49   2.0000      -0.500131       -13.6093
  50   2.0000      -0.490678       -13.3520
  51   2.0000      -0.489906       -13.3310
  52   2.0000      -0.469651       -12.7798
  53   2.0000      -0.467980       -12.7344
  54   2.0000      -0.461393       -12.5551
  55   2.0000      -0.456364       -12.4183
  56   2.0000      -0.453400       -12.3376
  57   2.0000      -0.444332       -12.0909
  58   2.0000      -0.434696       -11.8287
  59   2.0000      -0.426110       -11.5951
  60   2.0000      -0.417596       -11.3634
  61   2.0000      -0.408105       -11.1051
  62   2.0000      -0.402911       -10.9638
  63   2.0000      -0.348665        -9.4876
  64   2.0000      -0.339086        -9.2270
  65   2.0000      -0.328715        -8.9448
  66   2.0000      -0.282317        -7.6822
  67   0.0000       0.025049         0.6816
  68   0.0000       0.067240         1.8297
  69   0.0000       0.098659         2.6846
  70   0.0000       0.118908         3.2357
  71   0.0000       0.129482         3.5234

MULLIKEN ATOMIC CHARGES
-----------------------
   0 S :    0.099993
   1 C :   -0.127242
   2 C :   -0.094224
   3 C :   -0.011244
   4 C :   -0.117002
   5 H :    0.027917
   6 C :    0.071915
   7 H :    0.036842
   8 H :    0.016952
   9 C :   -0.055254
  10 H :    0.042926
  11 H :    0.026509
  12 C :   -0.053895
  13 H :    0.018570
  14 H :    0.018862
  15 H :    0.030637
  16 S :    0.126047
  17 C :   -0.091679
  18 C :   -0.007715
  19 C :   -0.066015
  20 C :   -0.153399
  21 H :    0.015769
  22 C :    0.143369
  23 H :    0.028330
  24 H :   -0.010077
  25 C :   -0.076855
  26 H :    0.011062
  27 H :    0.011362
  28 C :   -0.049055
  29 H :    0.051528
  30 H :    0.026727
  31 H :    0.020337
  32 H :    0.046093
  33 H :    0.041906
Sum of atomic charges:   -0.0000000

LOEWDIN ATOMIC CHARGES
----------------------
   0 S :    0.402651
   1 C :   -0.201406
   2 C :   -0.062449
   3 C :   -0.069401
   4 C :   -0.187861
   5 H :    0.034650
   6 C :   -0.037896
   7 H :    0.042787
   8 H :    0.027411
   9 C :   -0.037515
  10 H :    0.033139
  11 H :    0.022583
  12 C :   -0.074320
  13 H :    0.023366
  14 H :    0.025394
  15 H :    0.022212
  16 S :    0.443348
  17 C :   -0.187357
  18 C :   -0.059254
  19 C :   -0.049020
  20 C :   -0.208800
  21 H :    0.025958
  22 C :   -0.023001
  23 H :    0.034360
  24 H :    0.014398
  25 C :   -0.046916
  26 H :    0.017552
  27 H :    0.021882
  28 C :   -0.069173
  29 H :    0.038010
  30 H :    0.030207
  31 H :    0.016712
  32 H :    0.024899
  33 H :    0.012852

  Mayer bond orders larger than 0.100000
B(  0-S ,  1-C ) :   1.1259 B(  0-S ,  4-C ) :   1.1689 B(  1-C ,  2-C ) :   1.5810
B(  1-C , 32-H ) :   0.9736 B(  2-C ,  3-C ) :   1.2624 B(  2-C ,  6-C ) :   1.0308
B(  3-C ,  4-C ) :   1.5116 B(  3-C ,  5-H ) :   0.9952 B(  4-C , 20-C ) :   1.0641
B(  6-C ,  7-H ) :   0.9427 B(  6-C ,  8-H ) :   0.9368 B(  6-C ,  9-C ) :   1.0500
B(  9-C , 10-H ) :   0.9564 B(  9-C , 11-H ) :   0.9561 B(  9-C , 12-C ) :   1.0773
B( 12-C , 13-H ) :   0.9707 B( 12-C , 14-H ) :   0.9686 B( 12-C , 15-H ) :   0.9726
B( 16-S , 17-C ) :   1.1941 B( 16-S , 20-C ) :   1.1521 B( 17-C , 18-C ) :   1.5549
B( 17-C , 33-H ) :   0.9771 B( 18-C , 19-C ) :   1.2664 B( 18-C , 21-H ) :   0.9967
B( 19-C , 20-C ) :   1.5900 B( 19-C , 22-C ) :   1.0411 B( 22-C , 23-H ) :   0.9329
B( 22-C , 24-H ) :   0.9162 B( 22-C , 25-C ) :   1.0690 B( 25-C , 26-H ) :   0.9455
B( 25-C , 27-H ) :   0.9519 B( 25-C , 28-C ) :   1.0886 B( 28-C , 29-H ) :   0.9709
B( 28-C , 30-H ) :   0.9690 B( 28-C , 31-H ) :   0.9732

Dispersion correction           -0.015200152
FINAL SINGLE POINT ENERGY     -1339.854266622773

DIPOLE MOMENT
-------------
                                X             Y             Z
Electronic contribution:      3.00399      11.77743     -31.57764
Nuclear contribution   :     -3.21330     -11.84965      32.12457
                        -----------------------------------------
Total Dipole Moment    :     -0.20931      -0.07223       0.54693
                        -----------------------------------------
Magnitude (a.u.)       :      0.59005
Magnitude (Debye)      :      1.49980

Rotational constants in cm-1:     0.015880     0.011313     0.006913
Rotational constants in MHz :   476.081288   339.162155   207.247349

                             ****ORCA TERMINATED NORMALLY****
TOTAL RUN TIME: 0 days 0 hours 0 minutes 21 seconds 474 msec
