                         Program Version 4.2.1 -  RELEASE  -
|  1> ! wB97X-D3 SP def2-SVP
|  2> %pal
|  3> nprocs 24
|  4> end
|  5>
|  6> * xyz 0 1
|  7> S 	 20.4675 	 -15.6168 	 -125.468
|  8> C 	 18.9521 	 -16.2696 	 -124.894
|  9> C 	 19.0885 	 -17.3686 	 -124.104
| 10> C 	 20.4211 	 -17.7365 	 -124.025
| 11> C 	 21.3309 	 -16.9718 	 -124.755
| 12> H 	 20.7922 	 -18.7173 	 -123.674
| 13> C 	 17.9687 	 -18.0358 	 -123.259
| 14> H 	 17.3174 	 -18.6727 	 -123.837
| 15> H 	 17.2883 	 -17.226 	 -122.938
| 16> C 	 18.4462 	 -18.8362 	 -121.983
| 17> H 	 19.2026 	 -19.5696 	 -122.263
| 18> H 	 18.9366 	 -18.1333 	 -121.289
| 19> C 	 17.3021 	 -19.5334 	 -121.244
| 20> H 	 16.5625 	 -18.8404 	 -121.065
| 21> H 	 16.877 	 -20.3856 	 -121.762
| 22> H 	 17.8165 	 -19.9403 	 -120.352
| 23> S 	 23.3301 	 -17.589 	 -126.644
| 24> C 	 24.9949 	 -17.5536 	 -126.088
| 25> C 	 25.0236 	 -17.3943 	 -124.721
| 26> C 	 23.753 	 -17.3159 	 -124.074
| 27> C 	 22.7068 	 -17.2977 	 -124.98
| 28> H 	 25.9596 	 -17.3349 	 -124.167
| 29> C 	 23.6191 	 -17.1899 	 -122.545
| 30> H 	 24.508 	 -17.5506 	 -122.055
| 31> H 	 22.8479 	 -17.877 	 -122.335
| 32> C 	 23.4028 	 -15.7361 	 -122.079
| 33> H 	 22.4186 	 -15.4837 	 -122.266
| 34> H 	 24.0948 	 -15.0779 	 -122.659
| 35> C 	 23.5998 	 -15.4306 	 -120.57
| 36> H 	 22.8325 	 -15.9177 	 -119.975
| 37> H 	 23.4782 	 -14.3459 	 -120.477
| 38> H 	 24.5725 	 -15.6013 	 -120.155
| 39> H 	 18.0688 	 -15.7065 	 -125.11
| 40> H 	 25.8629 	 -17.5243 	 -126.766
| 41> *
| 42>
| 43>                          ****END OF INPUT****

CARTESIAN COORDINATES (ANGSTROEM)
---------------------------------
  S     20.467500  -15.616800  -125.468000
  C     18.952100  -16.269600  -124.894000
  C     19.088500  -17.368600  -124.104000
  C     20.421100  -17.736500  -124.025000
  C     21.330900  -16.971800  -124.755000
  H     20.792200  -18.717300  -123.674000
  C     17.968700  -18.035800  -123.259000
  H     17.317400  -18.672700  -123.837000
  H     17.288300  -17.226000  -122.938000
  C     18.446200  -18.836200  -121.983000
  H     19.202600  -19.569600  -122.263000
  H     18.936600  -18.133300  -121.289000
  C     17.302100  -19.533400  -121.244000
  H     16.562500  -18.840400  -121.065000
  H     16.877000  -20.385600  -121.762000
  H     17.816500  -19.940300  -120.352000
  S     23.330100  -17.589000  -126.644000
  C     24.994900  -17.553600  -126.088000
  C     25.023600  -17.394300  -124.721000
  C     23.753000  -17.315900  -124.074000
  C     22.706800  -17.297700  -124.980000
  H     25.959600  -17.334900  -124.167000
  C     23.619100  -17.189900  -122.545000
  H     24.508000  -17.550600  -122.055000
  H     22.847900  -17.877000  -122.335000
  C     23.402800  -15.736100  -122.079000
  H     22.418600  -15.483700  -122.266000
  H     24.094800  -15.077900  -122.659000
  C     23.599800  -15.430600  -120.570000
  H     22.832500  -15.917700  -119.975000
  H     23.478200  -14.345900  -120.477000
  H     24.572500  -15.601300  -120.155000
  H     18.068800  -15.706500  -125.110000
  H     25.862900  -17.524300  -126.766000

 Total Charge           Charge          ....    0
 Multiplicity           Mult            ....    1
 Number of Electrons    NEL             ....  134
 Basis Dimension        Dim             ....  322

ORBITAL ENERGIES
----------------

  NO   OCC          E(Eh)            E(eV)
   0   2.0000     -88.967001     -2420.9152
   1   2.0000     -88.962485     -2420.7923
   2   2.0000     -10.326116      -280.9879
   3   2.0000     -10.324747      -280.9507
   4   2.0000     -10.319286      -280.8020
   5   2.0000     -10.311277      -280.5841
   6   2.0000     -10.301977      -280.3311
   7   2.0000     -10.299401      -280.2609
   8   2.0000     -10.298574      -280.2384
   9   2.0000     -10.291906      -280.0570
  10   2.0000     -10.291682      -280.0509
  11   2.0000     -10.291210      -280.0381
  12   2.0000     -10.285812      -279.8912
  13   2.0000     -10.280916      -279.7579
  14   2.0000     -10.275936      -279.6224
  15   2.0000     -10.274583      -279.5856
  16   2.0000      -8.081664      -219.9133
  17   2.0000      -8.076485      -219.7723
  18   2.0000      -6.040049      -164.3581
  19   2.0000      -6.036135      -164.2516
  20   2.0000      -6.035126      -164.2241
  21   2.0000      -6.032600      -164.1554
  22   2.0000      -6.031082      -164.1141
  23   2.0000      -6.027160      -164.0074
  24   2.0000      -1.005972       -27.3739
  25   2.0000      -0.982201       -26.7271
  26   2.0000      -0.906508       -24.6673
  27   2.0000      -0.903572       -24.5874
  28   2.0000      -0.871969       -23.7275
  29   2.0000      -0.852072       -23.1861
  30   2.0000      -0.844666       -22.9845
  31   2.0000      -0.810571       -22.0568
  32   2.0000      -0.784847       -21.3568
  33   2.0000      -0.773068       -21.0362
  34   2.0000      -0.711786       -19.3687
  35   2.0000      -0.697839       -18.9892
  36   2.0000      -0.690700       -18.7949
  37   2.0000      -0.657217       -17.8838
  38   2.0000      -0.644896       -17.5485
  39   2.0000      -0.619124       -16.8472
  40   2.0000      -0.591889       -16.1061
  41   2.0000      -0.568762       -15.4768
  42   2.0000      -0.566593       -15.4178
  43   2.0000      -0.562834       -15.3155
  44   2.0000      -0.530357       -14.4318
  45   2.0000      -0.523946       -14.2573
  46   2.0000      -0.518788       -14.1169
  47   2.0000      -0.510559       -13.8930
  48   2.0000      -0.500355       -13.6153
  49   2.0000      -0.494035       -13.4434
  50   2.0000      -0.490569       -13.3491
  51   2.0000      -0.486311       -13.2332
  52   2.0000      -0.470771       -12.8103
  53   2.0000      -0.467221       -12.7137
  54   2.0000      -0.459237       -12.4965
  55   2.0000      -0.447191       -12.1687
  56   2.0000      -0.442516       -12.0415
  57   2.0000      -0.433994       -11.8096
  58   2.0000      -0.430344       -11.7103
  59   2.0000      -0.429561       -11.6889
  60   2.0000      -0.421607       -11.4725
  61   2.0000      -0.417108       -11.3501
  62   2.0000      -0.413849       -11.2614
  63   2.0000      -0.340379        -9.2622
  64   2.0000      -0.333883        -9.0854
  65   2.0000      -0.327721        -8.9177
  66   2.0000      -0.294457        -8.0126
  67   0.0000       0.028083         0.7642
  68   0.0000       0.064427         1.7531
  69   0.0000       0.116365         3.1664
  70   0.0000       0.122664         3.3378
  71   0.0000       0.138285         3.7629

MULLIKEN ATOMIC CHARGES
-----------------------
   0 S :    0.121288
   1 C :   -0.148736
   2 C :   -0.018958
   3 C :   -0.001493
   4 C :   -0.176200
   5 H :    0.029133
   6 C :    0.061665
   7 H :    0.030475
   8 H :    0.026381
   9 C :   -0.122759
  10 H :    0.034724
  11 H :    0.037028
  12 C :   -0.009573
  13 H :    0.020195
  14 H :    0.032210
  15 H :    0.039316
  16 S :    0.100469
  17 C :   -0.102337
  18 C :   -0.031647
  19 C :   -0.058662
  20 C :   -0.187718
  21 H :    0.018060
  22 C :    0.147643
  23 H :    0.004522
  24 H :    0.007980
  25 C :   -0.068833
  26 H :    0.022039
  27 H :    0.035032
  28 C :   -0.040190
  29 H :    0.032128
  30 H :    0.030065
  31 H :    0.024626
  32 H :    0.040272
  33 H :    0.071855
Sum of atomic charges:   -0.0000000

LOEWDIN ATOMIC CHARGES
----------------------
   0 S :    0.410444
   1 C :   -0.183983
   2 C :   -0.071029
   3 C :   -0.066090
   4 C :   -0.198618
   5 H :    0.034434
   6 C :   -0.029651
   7 H :    0.027462
   8 H :    0.032372
   9 C :   -0.040305
  10 H :    0.020792
  11 H :    0.026483
  12 C :   -0.055068
  13 H :    0.013704
  14 H :    0.025021
  15 H :    0.035988
  16 S :    0.380205
  17 C :   -0.185253
  18 C :   -0.077170
  19 C :   -0.045675
  20 C :   -0.193221
  21 H :    0.030900
  22 C :   -0.022729
  23 H :    0.025916
  24 H :    0.023521
  25 C :   -0.030318
  26 H :    0.016106
  27 H :    0.030120
  28 C :   -0.064460
  29 H :    0.024159
  30 H :    0.030637
  31 H :    0.017639
  32 H :    0.020292
  33 H :    0.037375

  Mayer bond orders larger than 0.100000
B(  0-S ,  1-C ) :   1.1595 B(  0-S ,  4-C ) :   1.1464 B(  1-C ,  2-C ) :   1.5912
B(  1-C ,  4-C ) :   0.1031 B(  1-C , 32-H ) :   0.9747 B(  2-C ,  3-C ) :   1.2892
B(  2-C ,  6-C ) :   0.9892 B(  3-C ,  4-C ) :   1.5609 B(  3-C ,  5-H ) :   0.9738
B(  4-C , 20-C ) :   1.0769 B(  6-C ,  7-H ) :   0.9395 B(  6-C ,  8-H ) :   0.9456
B(  6-C ,  9-C ) :   1.0745 B(  9-C , 10-H ) :   0.9492 B(  9-C , 11-H ) :   0.9583
B(  9-C , 12-C ) :   1.0845 B( 12-C , 13-H ) :   0.9761 B( 12-C , 14-H ) :   0.9753
B( 12-C , 15-H ) :   0.9719 B( 16-S , 17-C ) :   1.1496 B( 16-S , 20-C ) :   1.1248
B( 17-C , 18-C ) :   1.6038 B( 17-C , 33-H ) :   0.9647 B( 18-C , 19-C ) :   1.2538
B( 18-C , 21-H ) :   0.9863 B( 19-C , 20-C ) :   1.5951 B( 19-C , 22-C ) :   1.0349
B( 22-C , 23-H ) :   0.9325 B( 22-C , 24-H ) :   0.9241 B( 22-C , 25-C ) :   1.0579
B( 25-C , 26-H ) :   0.9539 B( 25-C , 27-H ) :   0.9596 B( 25-C , 28-C ) :   1.0909
B( 28-C , 29-H ) :   0.9748 B( 28-C , 30-H ) :   0.9736 B( 28-C , 31-H ) :   0.9759

Dispersion correction           -0.014176456
FINAL SINGLE POINT ENERGY     -1339.880931877783

DIPOLE MOMENT
-------------
                                X             Y             Z
Electronic contribution:      7.87386       4.74558     -28.08599
Nuclear contribution   :     -8.00964      -4.84534      28.70380
                        -----------------------------------------
Total Dipole Moment    :     -0.13578      -0.09976       0.61781
                        -----------------------------------------
Magnitude (a.u.)       :      0.64038
Magnitude (Debye)      :      1.62771

Rotational constants in cm-1:     0.016888     0.008682     0.007094
Rotational constants in MHz :   506.274565   260.266173   212.687264

                             ****ORCA TERMINATED NORMALLY****
TOTAL RUN TIME: 0 days 0 hours 0 minutes 20 seconds 372 msec
