                         Program Version 4.2.1 -  RELEASE  -
|  1> ! wB97X-D3 SP def2-SVP
|  2> %pal
|  3> nprocs 24
|  4> end
|  5>
|  6> * xyz 0 1
|  7> S 	 -112.159 	 35.8127 	 -116.526
|  8> C 	 -111.992 	 34.3986 	 -117.537
|  9> C 	 -111.547 	 33.3716 	 -116.794
| 10> C 	 -111.689 	 33.62 	 -115.373
| 11> C 	 -112.158 	 34.8361 	 -115.07
| 12> H 	 -111.505 	 33.0212 	 -114.534
| 13> C 	 -111.253 	 32.009 	 -117.29
| 14> H 	 -110.511 	 31.5491 	 -116.584
| 15> H 	 -110.913 	 32.1283 	 -118.297
| 16> C 	 -112.393 	 30.9439 	 -117.233
| 17> H 	 -112.807 	 30.8664 	 -116.23
| 18> H 	 -113.266 	 31.1939 	 -117.862
| 19> C 	 -111.987 	 29.5019 	 -117.652
| 20> H 	 -111.602 	 29.4867 	 -118.677
| 21> H 	 -111.219 	 29.1521 	 -117.015
| 22> H 	 -112.905 	 28.8242 	 -117.703
| 23> S 	 -111.164 	 36.7981 	 -113.417
| 24> C 	 -111.382 	 36.5625 	 -111.673
| 25> C 	 -112.474 	 35.7141 	 -111.395
| 26> C 	 -112.911 	 35.0614 	 -112.584
| 27> C 	 -112.264 	 35.4653 	 -113.75
| 28> H 	 -112.766 	 35.5577 	 -110.346
| 29> C 	 -113.943 	 33.9407 	 -112.645
| 30> H 	 -113.483 	 32.9364 	 -112.342
| 31> H 	 -114.175 	 33.8926 	 -113.696
| 32> C 	 -115.326 	 34.1959 	 -112.003
| 33> H 	 -115.628 	 35.2114 	 -112.164
| 34> H 	 -115.227 	 34.0163 	 -110.915
| 35> C 	 -116.472 	 33.2424 	 -112.407
| 36> H 	 -117.385 	 33.8418 	 -112.524
| 37> H 	 -116.653 	 32.5108 	 -111.595
| 38> H 	 -116.259 	 32.5748 	 -113.261
| 39> H 	 -111.909 	 34.4424 	 -118.598
| 40> H 	 -110.837 	 37.0994 	 -110.89
| 41> *
| 42>
| 43>                          ****END OF INPUT****

CARTESIAN COORDINATES (ANGSTROEM)
---------------------------------
  S    -112.159000   35.812700  -116.526000
  C    -111.992000   34.398600  -117.537000
  C    -111.547000   33.371600  -116.794000
  C    -111.689000   33.620000  -115.373000
  C    -112.158000   34.836100  -115.070000
  H    -111.505000   33.021200  -114.534000
  C    -111.253000   32.009000  -117.290000
  H    -110.511000   31.549100  -116.584000
  H    -110.913000   32.128300  -118.297000
  C    -112.393000   30.943900  -117.233000
  H    -112.807000   30.866400  -116.230000
  H    -113.266000   31.193900  -117.862000
  C    -111.987000   29.501900  -117.652000
  H    -111.602000   29.486700  -118.677000
  H    -111.219000   29.152100  -117.015000
  H    -112.905000   28.824200  -117.703000
  S    -111.164000   36.798100  -113.417000
  C    -111.382000   36.562500  -111.673000
  C    -112.474000   35.714100  -111.395000
  C    -112.911000   35.061400  -112.584000
  C    -112.264000   35.465300  -113.750000
  H    -112.766000   35.557700  -110.346000
  C    -113.943000   33.940700  -112.645000
  H    -113.483000   32.936400  -112.342000
  H    -114.175000   33.892600  -113.696000
  C    -115.326000   34.195900  -112.003000
  H    -115.628000   35.211400  -112.164000
  H    -115.227000   34.016300  -110.915000
  C    -116.472000   33.242400  -112.407000
  H    -117.385000   33.841800  -112.524000
  H    -116.653000   32.510800  -111.595000
  H    -116.259000   32.574800  -113.261000
  H    -111.909000   34.442400  -118.598000
  H    -110.837000   37.099400  -110.890000

 Total Charge           Charge          ....    0
 Multiplicity           Mult            ....    1
 Number of Electrons    NEL             ....  134
 Basis Dimension        Dim             ....  322

ORBITAL ENERGIES
----------------

  NO   OCC          E(Eh)            E(eV)
   0   2.0000     -88.967240     -2420.9217
   1   2.0000     -88.957686     -2420.6617
   2   2.0000     -10.327578      -281.0277
   3   2.0000     -10.325887      -280.9817
   4   2.0000     -10.325265      -280.9648
   5   2.0000     -10.309738      -280.5422
   6   2.0000     -10.307296      -280.4758
   7   2.0000     -10.301752      -280.3249
   8   2.0000     -10.298210      -280.2285
   9   2.0000     -10.294107      -280.1169
  10   2.0000     -10.293485      -280.1000
  11   2.0000     -10.289671      -279.9962
  12   2.0000     -10.286869      -279.9199
  13   2.0000     -10.285790      -279.8906
  14   2.0000     -10.282626      -279.8045
  15   2.0000     -10.280952      -279.7589
  16   2.0000      -8.081519      -219.9093
  17   2.0000      -8.073296      -219.6856
  18   2.0000      -6.040066      -164.3586
  19   2.0000      -6.036155      -164.2521
  20   2.0000      -6.032185      -164.1441
  21   2.0000      -6.031939      -164.1374
  22   2.0000      -6.027931      -164.0283
  23   2.0000      -6.023609      -163.9107
  24   2.0000      -1.011390       -27.5213
  25   2.0000      -0.985276       -26.8107
  26   2.0000      -0.910366       -24.7723
  27   2.0000      -0.902971       -24.5711
  28   2.0000      -0.872539       -23.7430
  29   2.0000      -0.851020       -23.1574
  30   2.0000      -0.844529       -22.9808
  31   2.0000      -0.821058       -22.3421
  32   2.0000      -0.779256       -21.2046
  33   2.0000      -0.768579       -20.9141
  34   2.0000      -0.704447       -19.1690
  35   2.0000      -0.698138       -18.9973
  36   2.0000      -0.695024       -18.9126
  37   2.0000      -0.656404       -17.8617
  38   2.0000      -0.650812       -17.7095
  39   2.0000      -0.619069       -16.8457
  40   2.0000      -0.590390       -16.0653
  41   2.0000      -0.574466       -15.6320
  42   2.0000      -0.566837       -15.4244
  43   2.0000      -0.558786       -15.2053
  44   2.0000      -0.524924       -14.2839
  45   2.0000      -0.523680       -14.2500
  46   2.0000      -0.518411       -14.1067
  47   2.0000      -0.517604       -14.0847
  48   2.0000      -0.504832       -13.7372
  49   2.0000      -0.499962       -13.6047
  50   2.0000      -0.486646       -13.2423
  51   2.0000      -0.481612       -13.1053
  52   2.0000      -0.471891       -12.8408
  53   2.0000      -0.465392       -12.6640
  54   2.0000      -0.458757       -12.4834
  55   2.0000      -0.449647       -12.2355
  56   2.0000      -0.443790       -12.0761
  57   2.0000      -0.435717       -11.8565
  58   2.0000      -0.430589       -11.7169
  59   2.0000      -0.424846       -11.5607
  60   2.0000      -0.422223       -11.4893
  61   2.0000      -0.411356       -11.1936
  62   2.0000      -0.405651       -11.0383
  63   2.0000      -0.350985        -9.5508
  64   2.0000      -0.331605        -9.0234
  65   2.0000      -0.323000        -8.7893
  66   2.0000      -0.295429        -8.0390
  67   0.0000       0.032215         0.8766
  68   0.0000       0.057988         1.5779
  69   0.0000       0.102660         2.7935
  70   0.0000       0.117419         3.1951
  71   0.0000       0.130352         3.5470

MULLIKEN ATOMIC CHARGES
-----------------------
   0 S :    0.074537
   1 C :   -0.091924
   2 C :   -0.057149
   3 C :    0.043683
   4 C :   -0.147183
   5 H :   -0.011409
   6 C :    0.070506
   7 H :    0.030821
   8 H :    0.015813
   9 C :   -0.082664
  10 H :    0.024563
  11 H :    0.026081
  12 C :   -0.061731
  13 H :    0.028012
  14 H :    0.028127
  15 H :    0.049240
  16 S :    0.108444
  17 C :   -0.116176
  18 C :   -0.032600
  19 C :   -0.055342
  20 C :   -0.135801
  21 H :    0.035555
  22 C :    0.043467
  23 H :    0.049790
  24 H :    0.029656
  25 C :   -0.084221
  26 H :    0.034552
  27 H :    0.030746
  28 C :   -0.063468
  29 H :    0.044440
  30 H :    0.029156
  31 H :    0.035961
  32 H :    0.040907
  33 H :    0.065611
Sum of atomic charges:    0.0000000

LOEWDIN ATOMIC CHARGES
----------------------
   0 S :    0.381922
   1 C :   -0.180600
   2 C :   -0.065069
   3 C :   -0.053150
   4 C :   -0.183817
   5 H :    0.024842
   6 C :   -0.032556
   7 H :    0.039336
   8 H :    0.025887
   9 C :   -0.041645
  10 H :    0.021276
  11 H :    0.022673
  12 C :   -0.067807
  13 H :    0.023426
  14 H :    0.015963
  15 H :    0.038069
  16 S :    0.394775
  17 C :   -0.174985
  18 C :   -0.072783
  19 C :   -0.057660
  20 C :   -0.198918
  21 H :    0.039320
  22 C :   -0.039321
  23 H :    0.036439
  24 H :    0.028690
  25 C :   -0.044235
  26 H :    0.023356
  27 H :    0.024993
  28 C :   -0.071630
  29 H :    0.032013
  30 H :    0.027499
  31 H :    0.027036
  32 H :    0.025289
  33 H :    0.031372

  Mayer bond orders larger than 0.100000
B(  0-S ,  1-C ) :   1.1205 B(  0-S ,  4-C ) :   1.1213 B(  1-C ,  2-C ) :   1.6490
B(  1-C , 32-H ) :   0.9714 B(  2-C ,  3-C ) :   1.1596 B(  2-C ,  6-C ) :   1.0602
B(  3-C ,  4-C ) :   1.6384 B(  3-C ,  5-H ) :   1.0073 B(  4-C , 20-C ) :   1.0144
B(  6-C ,  7-H ) :   0.9329 B(  6-C ,  8-H ) :   0.9342 B(  6-C ,  9-C ) :   1.0597
B(  9-C , 10-H ) :   0.9556 B(  9-C , 11-H ) :   0.9564 B(  9-C , 12-C ) :   1.0793
B( 12-C , 13-H ) :   0.9756 B( 12-C , 14-H ) :   0.9769 B( 12-C , 15-H ) :   0.9739
B( 16-S , 17-C ) :   1.1634 B( 16-S , 20-C ) :   1.1284 B( 17-C , 18-C ) :   1.6019
B( 17-C , 20-C ) :   0.1013 B( 17-C , 33-H ) :   0.9647 B( 18-C , 19-C ) :   1.2245
B( 18-C , 21-H ) :   0.9927 B( 19-C , 20-C ) :   1.6193 B( 19-C , 22-C ) :   1.0422
B( 22-C , 23-H ) :   0.9332 B( 22-C , 24-H ) :   0.9350 B( 22-C , 25-C ) :   1.0639
B( 25-C , 26-H ) :   0.9663 B( 25-C , 27-H ) :   0.9574 B( 25-C , 28-C ) :   1.0697
B( 28-C , 29-H ) :   0.9793 B( 28-C , 30-H ) :   0.9798 B( 28-C , 31-H ) :   0.9780

Dispersion correction           -0.013518078
FINAL SINGLE POINT ENERGY     -1339.862132449525

DIPOLE MOMENT
-------------
                                X             Y             Z
Electronic contribution:     13.57036      27.49952      -0.18539
Nuclear contribution   :    -13.63850     -28.16048       0.44311
                        -----------------------------------------
Total Dipole Moment    :     -0.06814      -0.66096       0.25773
                        -----------------------------------------
Magnitude (a.u.)       :      0.71269
Magnitude (Debye)      :      1.81152

Rotational constants in cm-1:     0.016340     0.008626     0.006505
Rotational constants in MHz :   489.848368   258.594128   195.027813

                             ****ORCA TERMINATED NORMALLY****
TOTAL RUN TIME: 0 days 0 hours 0 minutes 21 seconds 93 msec
