                         Program Version 4.2.1 -  RELEASE  -
|  1> ! wB97X-D3 SP def2-SVP
|  2> %pal
|  3> nprocs 24
|  4> end
|  5>
|  6> * xyz 0 1
|  7> S 	 -145.323 	 1.05187 	 15.0377
|  8> C 	 -145.004 	 0.658523 	 13.3582
|  9> C 	 -145.037 	 1.82315 	 12.6047
| 10> C 	 -145.271 	 3.00101 	 13.373
| 11> C 	 -145.395 	 2.76964 	 14.7213
| 12> H 	 -145.38 	 3.98781 	 13.0628
| 13> C 	 -144.833 	 1.95974 	 11.1391
| 14> H 	 -145.734 	 2.25285 	 10.6705
| 15> H 	 -144.587 	 0.929305 	 10.836
| 16> C 	 -143.798 	 2.96723 	 10.7731
| 17> H 	 -144.352 	 3.83866 	 10.5752
| 18> H 	 -143.064 	 3.12685 	 11.5286
| 19> C 	 -143.189 	 2.61322 	 9.42607
| 20> H 	 -142.397 	 3.32858 	 9.09707
| 21> H 	 -142.7 	 1.57178 	 9.58388
| 22> H 	 -143.835 	 2.50521 	 8.52539
| 23> S 	 -144.097 	 4.62782 	 16.3391
| 24> C 	 -145.144 	 5.57784 	 17.4373
| 25> C 	 -146.467 	 5.36732 	 17.2963
| 26> C 	 -146.724 	 4.27166 	 16.4072
| 27> C 	 -145.523 	 3.7531 	 15.7723
| 28> H 	 -147.113 	 5.93211 	 17.9004
| 29> C 	 -148.12 	 3.78046 	 16.0291
| 30> H 	 -148.206 	 2.67455 	 15.9904
| 31> H 	 -148.293 	 4.01966 	 14.9678
| 32> C 	 -149.202 	 4.57083 	 16.6995
| 33> H 	 -149.035 	 5.6806 	 16.6901
| 34> H 	 -148.936 	 4.37851 	 17.7718
| 35> C 	 -150.543 	 4.06722 	 16.289
| 36> H 	 -151.192 	 4.65764 	 16.9909
| 37> H 	 -150.674 	 3.01799 	 16.4052
| 38> H 	 -150.811 	 4.25293 	 15.2396
| 39> H 	 -144.926 	 -0.33164 	 12.8617
| 40> H 	 -144.719 	 6.21681 	 18.1754
| 41> *
| 42>
| 43>                          ****END OF INPUT****

CARTESIAN COORDINATES (ANGSTROEM)
---------------------------------
  S    -145.323000    1.051870   15.037700
  C    -145.004000    0.658523   13.358200
  C    -145.037000    1.823150   12.604700
  C    -145.271000    3.001010   13.373000
  C    -145.395000    2.769640   14.721300
  H    -145.380000    3.987810   13.062800
  C    -144.833000    1.959740   11.139100
  H    -145.734000    2.252850   10.670500
  H    -144.587000    0.929305   10.836000
  C    -143.798000    2.967230   10.773100
  H    -144.352000    3.838660   10.575200
  H    -143.064000    3.126850   11.528600
  C    -143.189000    2.613220    9.426070
  H    -142.397000    3.328580    9.097070
  H    -142.700000    1.571780    9.583880
  H    -143.835000    2.505210    8.525390
  S    -144.097000    4.627820   16.339100
  C    -145.144000    5.577840   17.437300
  C    -146.467000    5.367320   17.296300
  C    -146.724000    4.271660   16.407200
  C    -145.523000    3.753100   15.772300
  H    -147.113000    5.932110   17.900400
  C    -148.120000    3.780460   16.029100
  H    -148.206000    2.674550   15.990400
  H    -148.293000    4.019660   14.967800
  C    -149.202000    4.570830   16.699500
  H    -149.035000    5.680600   16.690100
  H    -148.936000    4.378510   17.771800
  C    -150.543000    4.067220   16.289000
  H    -151.192000    4.657640   16.990900
  H    -150.674000    3.017990   16.405200
  H    -150.811000    4.252930   15.239600
  H    -144.926000   -0.331640   12.861700
  H    -144.719000    6.216810   18.175400

 Total Charge           Charge          ....    0
 Multiplicity           Mult            ....    1
 Number of Electrons    NEL             ....  134
 Basis Dimension        Dim             ....  322

ORBITAL ENERGIES
----------------

  NO   OCC          E(Eh)            E(eV)
   0   2.0000     -88.966893     -2420.9122
   1   2.0000     -88.963674     -2420.8246
   2   2.0000     -10.327803      -281.0338
   3   2.0000     -10.324256      -280.9373
   4   2.0000     -10.316292      -280.7206
   5   2.0000     -10.316006      -280.7128
   6   2.0000     -10.312060      -280.6054
   7   2.0000     -10.295607      -280.1577
   8   2.0000     -10.292302      -280.0678
   9   2.0000     -10.287639      -279.9409
  10   2.0000     -10.287571      -279.9390
  11   2.0000     -10.287410      -279.9347
  12   2.0000     -10.284661      -279.8599
  13   2.0000     -10.281469      -279.7730
  14   2.0000     -10.279252      -279.7127
  15   2.0000     -10.276707      -279.6434
  16   2.0000      -8.080654      -219.8858
  17   2.0000      -8.078143      -219.8174
  18   2.0000      -6.039076      -164.3316
  19   2.0000      -6.036716      -164.2674
  20   2.0000      -6.035339      -164.2299
  21   2.0000      -6.032589      -164.1551
  22   2.0000      -6.031533      -164.1263
  23   2.0000      -6.028930      -164.0555
  24   2.0000      -1.002261       -27.2729
  25   2.0000      -0.980103       -26.6699
  26   2.0000      -0.923763       -25.1369
  27   2.0000      -0.917204       -24.9584
  28   2.0000      -0.873403       -23.7665
  29   2.0000      -0.848371       -23.0854
  30   2.0000      -0.845340       -23.0029
  31   2.0000      -0.818747       -22.2792
  32   2.0000      -0.779446       -21.2098
  33   2.0000      -0.764798       -20.8112
  34   2.0000      -0.711080       -19.3495
  35   2.0000      -0.704205       -19.1624
  36   2.0000      -0.691796       -18.8247
  37   2.0000      -0.648469       -17.6457
  38   2.0000      -0.642562       -17.4850
  39   2.0000      -0.619806       -16.8658
  40   2.0000      -0.602642       -16.3987
  41   2.0000      -0.588630       -16.0174
  42   2.0000      -0.565362       -15.3843
  43   2.0000      -0.562540       -15.3075
  44   2.0000      -0.538200       -14.6452
  45   2.0000      -0.521958       -14.2032
  46   2.0000      -0.512935       -13.9577
  47   2.0000      -0.510925       -13.9030
  48   2.0000      -0.501428       -13.6445
  49   2.0000      -0.500308       -13.6141
  50   2.0000      -0.494728       -13.4622
  51   2.0000      -0.484820       -13.1926
  52   2.0000      -0.467041       -12.7088
  53   2.0000      -0.462653       -12.5894
  54   2.0000      -0.461327       -12.5533
  55   2.0000      -0.455476       -12.3941
  56   2.0000      -0.443323       -12.0634
  57   2.0000      -0.440898       -11.9975
  58   2.0000      -0.436872       -11.8879
  59   2.0000      -0.418861       -11.3978
  60   2.0000      -0.416813       -11.3421
  61   2.0000      -0.413161       -11.2427
  62   2.0000      -0.394588       -10.7373
  63   2.0000      -0.340440        -9.2638
  64   2.0000      -0.330051        -8.9811
  65   2.0000      -0.317595        -8.6422
  66   2.0000      -0.300277        -8.1709
  67   0.0000       0.041155         1.1199
  68   0.0000       0.052025         1.4157
  69   0.0000       0.112757         3.0683
  70   0.0000       0.123076         3.3491
  71   0.0000       0.128566         3.4985

MULLIKEN ATOMIC CHARGES
-----------------------
   0 S :    0.112254
   1 C :   -0.126222
   2 C :   -0.118340
   3 C :    0.064492
   4 C :   -0.184945
   5 H :   -0.013723
   6 C :    0.111057
   7 H :    0.024992
   8 H :    0.002603
   9 C :   -0.028850
  10 H :    0.017381
  11 H :    0.040121
  12 C :   -0.109396
  13 H :    0.040860
  14 H :    0.036191
  15 H :    0.039303
  16 S :    0.111766
  17 C :   -0.080000
  18 C :   -0.023714
  19 C :   -0.025996
  20 C :   -0.164674
  21 H :    0.006253
  22 C :    0.065607
  23 H :    0.039199
  24 H :    0.019863
  25 C :   -0.142756
  26 H :    0.043575
  27 H :    0.025636
  28 C :    0.013400
  29 H :    0.038624
  30 H :    0.027204
  31 H :    0.034542
  32 H :    0.059165
  33 H :    0.044526
Sum of atomic charges:    0.0000000

LOEWDIN ATOMIC CHARGES
----------------------
   0 S :    0.405566
   1 C :   -0.209992
   2 C :   -0.064385
   3 C :   -0.053628
   4 C :   -0.198847
   5 H :    0.022738
   6 C :   -0.027225
   7 H :    0.030137
   8 H :    0.024679
   9 C :   -0.037429
  10 H :    0.021945
  11 H :    0.026190
  12 C :   -0.074117
  13 H :    0.027085
  14 H :    0.030069
  15 H :    0.027396
  16 S :    0.389445
  17 C :   -0.157687
  18 C :   -0.073593
  19 C :   -0.037692
  20 C :   -0.210311
  21 H :    0.028720
  22 C :   -0.045908
  23 H :    0.036603
  24 H :    0.033016
  25 C :   -0.058868
  26 H :    0.030637
  27 H :    0.024736
  28 C :   -0.060000
  29 H :    0.037017
  30 H :    0.023836
  31 H :    0.028120
  32 H :    0.039949
  33 H :    0.021801

  Mayer bond orders larger than 0.100000
B(  0-S ,  1-C ) :   1.1288 B(  0-S ,  4-C ) :   1.1488 B(  1-C ,  2-C ) :   1.6228
B(  1-C , 32-H ) :   0.9596 B(  2-C ,  3-C ) :   1.2106 B(  2-C ,  6-C ) :   1.0341
B(  3-C ,  4-C ) :   1.5925 B(  3-C ,  5-H ) :   1.0083 B(  4-C , 20-C ) :   1.0365
B(  6-C ,  7-H ) :   0.9248 B(  6-C ,  8-H ) :   0.9445 B(  6-C ,  9-C ) :   1.0605
B(  9-C , 10-H ) :   0.9393 B(  9-C , 11-H ) :   0.9644 B(  9-C , 12-C ) :   1.0855
B( 12-C , 13-H ) :   0.9746 B( 12-C , 14-H ) :   0.9761 B( 12-C , 15-H ) :   0.9733
B( 16-S , 17-C ) :   1.1538 B( 16-S , 20-C ) :   1.1425 B( 17-C , 18-C ) :   1.6228
B( 17-C , 20-C ) :   0.1024 B( 17-C , 33-H ) :   0.9613 B( 18-C , 19-C ) :   1.2347
B( 18-C , 21-H ) :   0.9939 B( 19-C , 20-C ) :   1.5700 B( 19-C , 22-C ) :   1.0338
B( 22-C , 23-H ) :   0.9310 B( 22-C , 24-H ) :   0.9214 B( 22-C , 25-C ) :   1.0774
B( 25-C , 26-H ) :   0.9437 B( 25-C , 27-H ) :   0.9485 B( 25-C , 28-C ) :   1.0723
B( 28-C , 29-H ) :   0.9695 B( 28-C , 30-H ) :   0.9706 B( 28-C , 31-H ) :   0.9713

Dispersion correction           -0.013659380
FINAL SINGLE POINT ENERGY     -1339.855618931108

DIPOLE MOMENT
-------------
                                X             Y             Z
Electronic contribution:     11.94115      -3.19121      15.80734
Nuclear contribution   :    -12.35515       3.51584     -16.13556
                        -----------------------------------------
Total Dipole Moment    :     -0.41400       0.32463      -0.32822
                        -----------------------------------------
Magnitude (a.u.)       :      0.62009
Magnitude (Debye)      :      1.57614

Rotational constants in cm-1:     0.019372     0.007386     0.006575
Rotational constants in MHz :   580.752304   221.432922   197.124265

                             ****ORCA TERMINATED NORMALLY****
TOTAL RUN TIME: 0 days 0 hours 0 minutes 21 seconds 18 msec
