                         Program Version 4.2.1 -  RELEASE  -
|  1> ! wB97X-D3 SP def2-SVP
|  2> %pal
|  3> nprocs 24
|  4> end
|  5>
|  6> * xyz 0 1
|  7> S 	 -40.4827 	 5.06023 	 29.7714
|  8> C 	 -41.9761 	 5.04235 	 30.7424
|  9> C 	 -41.8967 	 6.04212 	 31.7005
| 10> C 	 -40.6322 	 6.6247 	 31.819
| 11> C 	 -39.7626 	 6.27835 	 30.8262
| 12> H 	 -40.2496 	 7.29929 	 32.6114
| 13> C 	 -43.1448 	 6.40695 	 32.5198
| 14> H 	 -43.2687 	 5.59705 	 33.2368
| 15> H 	 -44.0892 	 6.51674 	 32.0256
| 16> C 	 -43.0407 	 7.70043 	 33.3942
| 17> H 	 -42.2668 	 7.50002 	 34.1101
| 18> H 	 -42.6223 	 8.56319 	 32.8367
| 19> C 	 -44.455 	 8.10515 	 33.8796
| 20> H 	 -44.3784 	 9.00095 	 34.4553
| 21> H 	 -45.2617 	 8.34922 	 33.1396
| 22> H 	 -44.854 	 7.37432 	 34.6045
| 23> S 	 -38.2506 	 8.45138 	 31.2279
| 24> C 	 -36.6931 	 8.61263 	 30.4317
| 25> C 	 -36.2905 	 7.47723 	 29.7002
| 26> C 	 -37.2887 	 6.41276 	 29.7916
| 27> C 	 -38.4271 	 6.84811 	 30.5815
| 28> H 	 -35.3281 	 7.38037 	 29.1532
| 29> C 	 -37.0568 	 5.11806 	 29.0869
| 30> H 	 -36.5561 	 5.33093 	 28.1174
| 31> H 	 -38.0325 	 4.74798 	 28.7917
| 32> C 	 -36.1968 	 4.00009 	 29.8162
| 33> H 	 -35.1527 	 4.15357 	 30.079
| 34> H 	 -36.2603 	 3.05606 	 29.2866
| 35> C 	 -36.6652 	 3.64783 	 31.2257
| 36> H 	 -37.7235 	 3.33163 	 31.3302
| 37> H 	 -36.5299 	 4.51429 	 31.9428
| 38> H 	 -36.1814 	 2.80171 	 31.659
| 39> H 	 -42.9152 	 4.52495 	 30.4712
| 40> H 	 -36.0137 	 9.49442 	 30.5672
| 41> *
| 42>
| 43>                          ****END OF INPUT****

CARTESIAN COORDINATES (ANGSTROEM)
---------------------------------
  S    -40.482700    5.060230   29.771400
  C    -41.976100    5.042350   30.742400
  C    -41.896700    6.042120   31.700500
  C    -40.632200    6.624700   31.819000
  C    -39.762600    6.278350   30.826200
  H    -40.249600    7.299290   32.611400
  C    -43.144800    6.406950   32.519800
  H    -43.268700    5.597050   33.236800
  H    -44.089200    6.516740   32.025600
  C    -43.040700    7.700430   33.394200
  H    -42.266800    7.500020   34.110100
  H    -42.622300    8.563190   32.836700
  C    -44.455000    8.105150   33.879600
  H    -44.378400    9.000950   34.455300
  H    -45.261700    8.349220   33.139600
  H    -44.854000    7.374320   34.604500
  S    -38.250600    8.451380   31.227900
  C    -36.693100    8.612630   30.431700
  C    -36.290500    7.477230   29.700200
  C    -37.288700    6.412760   29.791600
  C    -38.427100    6.848110   30.581500
  H    -35.328100    7.380370   29.153200
  C    -37.056800    5.118060   29.086900
  H    -36.556100    5.330930   28.117400
  H    -38.032500    4.747980   28.791700
  C    -36.196800    4.000090   29.816200
  H    -35.152700    4.153570   30.079000
  H    -36.260300    3.056060   29.286600
  C    -36.665200    3.647830   31.225700
  H    -37.723500    3.331630   31.330200
  H    -36.529900    4.514290   31.942800
  H    -36.181400    2.801710   31.659000
  H    -42.915200    4.524950   30.471200
  H    -36.013700    9.494420   30.567200

 Total Charge           Charge          ....    0
 Multiplicity           Mult            ....    1
 Number of Electrons    NEL             ....  134
 Basis Dimension        Dim             ....  322

ORBITAL ENERGIES
----------------

  NO   OCC          E(Eh)            E(eV)
   0   2.0000     -88.973413     -2421.0897
   1   2.0000     -88.966596     -2420.9041
   2   2.0000     -10.335957      -281.2557
   3   2.0000     -10.332307      -281.1564
   4   2.0000     -10.325491      -280.9709
   5   2.0000     -10.314621      -280.6751
   6   2.0000     -10.314475      -280.6711
   7   2.0000     -10.304965      -280.4124
   8   2.0000     -10.302468      -280.3444
   9   2.0000     -10.299024      -280.2507
  10   2.0000     -10.292626      -280.0766
  11   2.0000     -10.289400      -279.9888
  12   2.0000     -10.289371      -279.9880
  13   2.0000     -10.288439      -279.9627
  14   2.0000     -10.283376      -279.8249
  15   2.0000     -10.269145      -279.4376
  16   2.0000      -8.087757      -220.0791
  17   2.0000      -8.080051      -219.8694
  18   2.0000      -6.046272      -164.5274
  19   2.0000      -6.042349      -164.4207
  20   2.0000      -6.038652      -164.3201
  21   2.0000      -6.038517      -164.3164
  22   2.0000      -6.034773      -164.2145
  23   2.0000      -6.030771      -164.1056
  24   2.0000      -1.004540       -27.3349
  25   2.0000      -0.979069       -26.6418
  26   2.0000      -0.905579       -24.6421
  27   2.0000      -0.904197       -24.6045
  28   2.0000      -0.867597       -23.6085
  29   2.0000      -0.852097       -23.1867
  30   2.0000      -0.841447       -22.8969
  31   2.0000      -0.811589       -22.0845
  32   2.0000      -0.782338       -21.2885
  33   2.0000      -0.766465       -20.8566
  34   2.0000      -0.710379       -19.3304
  35   2.0000      -0.697101       -18.9691
  36   2.0000      -0.681131       -18.5345
  37   2.0000      -0.668400       -18.1881
  38   2.0000      -0.628838       -17.1115
  39   2.0000      -0.619952       -16.8698
  40   2.0000      -0.593231       -16.1426
  41   2.0000      -0.565412       -15.3856
  42   2.0000      -0.561286       -15.2734
  43   2.0000      -0.543568       -14.7912
  44   2.0000      -0.542366       -14.7585
  45   2.0000      -0.519459       -14.1352
  46   2.0000      -0.516747       -14.0614
  47   2.0000      -0.506231       -13.7752
  48   2.0000      -0.503356       -13.6970
  49   2.0000      -0.494433       -13.4542
  50   2.0000      -0.484912       -13.1951
  51   2.0000      -0.480073       -13.0634
  52   2.0000      -0.473471       -12.8838
  53   2.0000      -0.464479       -12.6391
  54   2.0000      -0.454087       -12.3563
  55   2.0000      -0.450969       -12.2715
  56   2.0000      -0.448038       -12.1917
  57   2.0000      -0.433949       -11.8084
  58   2.0000      -0.431182       -11.7331
  59   2.0000      -0.423801       -11.5322
  60   2.0000      -0.418895       -11.3987
  61   2.0000      -0.412770       -11.2320
  62   2.0000      -0.401668       -10.9300
  63   2.0000      -0.355708        -9.6793
  64   2.0000      -0.332614        -9.0509
  65   2.0000      -0.331384        -9.0174
  66   2.0000      -0.278868        -7.5884
  67   0.0000       0.016284         0.4431
  68   0.0000       0.077993         2.1223
  69   0.0000       0.107692         2.9305
  70   0.0000       0.114850         3.1252
  71   0.0000       0.119357         3.2479

MULLIKEN ATOMIC CHARGES
-----------------------
   0 S :    0.084030
   1 C :   -0.127282
   2 C :   -0.057912
   3 C :   -0.043521
   4 C :   -0.081460
   5 H :    0.034168
   6 C :    0.048859
   7 H :    0.038030
   8 H :    0.027792
   9 C :   -0.103184
  10 H :    0.030669
  11 H :    0.035934
  12 C :   -0.055046
  13 H :    0.022682
  14 H :    0.050236
  15 H :    0.032533
  16 S :    0.103102
  17 C :   -0.106330
  18 C :   -0.041117
  19 C :   -0.076659
  20 C :   -0.140713
  21 H :    0.040644
  22 C :    0.072308
  23 H :    0.034920
  24 H :    0.023773
  25 C :   -0.044120
  26 H :    0.035541
  27 H :    0.033539
  28 C :   -0.101851
  29 H :    0.024831
  30 H :    0.046316
  31 H :    0.021981
  32 H :    0.062142
  33 H :    0.075165
Sum of atomic charges:   -0.0000000

LOEWDIN ATOMIC CHARGES
----------------------
   0 S :    0.392569
   1 C :   -0.198250
   2 C :   -0.058328
   3 C :   -0.091537
   4 C :   -0.177363
   5 H :    0.033003
   6 C :   -0.030803
   7 H :    0.035059
   8 H :    0.026128
   9 C :   -0.043405
  10 H :    0.020768
  11 H :    0.025283
  12 C :   -0.072475
  13 H :    0.023230
  14 H :    0.035286
  15 H :    0.027238
  16 S :    0.425855
  17 C :   -0.196894
  18 C :   -0.068764
  19 C :   -0.055092
  20 C :   -0.198788
  21 H :    0.041114
  22 C :   -0.036917
  23 H :    0.039215
  24 H :    0.021137
  25 C :   -0.041140
  26 H :    0.029501
  27 H :    0.027548
  28 C :   -0.078400
  29 H :    0.021444
  30 H :    0.029784
  31 H :    0.019615
  32 H :    0.036820
  33 H :    0.037560

  Mayer bond orders larger than 0.100000
B(  0-S ,  1-C ) :   1.1193 B(  0-S ,  4-C ) :   1.1408 B(  1-C ,  2-C ) :   1.6214
B(  1-C , 32-H ) :   0.9677 B(  2-C ,  3-C ) :   1.2579 B(  2-C ,  6-C ) :   0.9955
B(  3-C ,  4-C ) :   1.5684 B(  3-C ,  5-H ) :   0.9711 B(  4-C , 20-C ) :   1.0773
B(  6-C ,  7-H ) :   0.9359 B(  6-C ,  8-H ) :   0.9581 B(  6-C ,  9-C ) :   1.0713
B(  9-C , 10-H ) :   0.9498 B(  9-C , 11-H ) :   0.9609 B(  9-C , 12-C ) :   1.0783
B( 12-C , 13-H ) :   0.9716 B( 12-C , 14-H ) :   0.9732 B( 12-C , 15-H ) :   0.9746
B( 16-S , 17-C ) :   1.1528 B( 16-S , 20-C ) :   1.1551 B( 17-C , 18-C ) :   1.6004
B( 17-C , 33-H ) :   0.9604 B( 18-C , 19-C ) :   1.2543 B( 18-C , 21-H ) :   0.9813
B( 19-C , 20-C ) :   1.5197 B( 19-C , 22-C ) :   1.0529 B( 22-C , 23-H ) :   0.9328
B( 22-C , 24-H ) :   0.9320 B( 22-C , 25-C ) :   1.0508 B( 25-C , 26-H ) :   0.9628
B( 25-C , 27-H ) :   0.9572 B( 25-C , 28-C ) :   1.0718 B( 28-C , 29-H ) :   0.9737
B( 28-C , 30-H ) :   0.9738 B( 28-C , 31-H ) :   0.9743

Dispersion correction           -0.014326773
FINAL SINGLE POINT ENERGY     -1339.866317706395

DIPOLE MOMENT
-------------
                                X             Y             Z
Electronic contribution:      5.96739       5.49623      -9.87976
Nuclear contribution   :     -5.97559      -5.44754      10.03020
                        -----------------------------------------
Total Dipole Moment    :     -0.00820       0.04869       0.15044
                        -----------------------------------------
Magnitude (a.u.)       :      0.15834
Magnitude (Debye)      :      0.40246

Rotational constants in cm-1:     0.022369     0.007985     0.006507
Rotational constants in MHz :   670.606994   239.385471   195.089378

                             ****ORCA TERMINATED NORMALLY****
TOTAL RUN TIME: 0 days 0 hours 0 minutes 20 seconds 163 msec
