                         Program Version 4.2.1 -  RELEASE  -
|  1> ! wB97X-D3 SP def2-SVP
|  2> %pal
|  3> nprocs 24
|  4> end
|  5>
|  6> * xyz 0 1
|  7> S 	 -109.58 	 53.1548 	 -89.0895
|  8> C 	 -109.074 	 51.448 	 -89.0162
|  9> C 	 -109.623 	 50.8129 	 -87.8996
| 10> C 	 -110.601 	 51.5783 	 -87.28
| 11> C 	 -110.72 	 52.8409 	 -87.8296
| 12> H 	 -111.226 	 51.2761 	 -86.48
| 13> C 	 -109.305 	 49.429 	 -87.5243
| 14> H 	 -108.558 	 48.9271 	 -88.0702
| 15> H 	 -110.258 	 48.7828 	 -87.6351
| 16> C 	 -109.058 	 49.1886 	 -85.9624
| 17> H 	 -109.818 	 49.7002 	 -85.3579
| 18> H 	 -109.034 	 48.2042 	 -85.6441
| 19> C 	 -107.743 	 49.7118 	 -85.4478
| 20> H 	 -106.961 	 49.1253 	 -85.8822
| 21> H 	 -107.593 	 50.7701 	 -85.6155
| 22> H 	 -107.647 	 49.5321 	 -84.356
| 23> S 	 -110.936 	 55.5152 	 -87.1367
| 24> C 	 -112.332 	 55.9863 	 -86.3617
| 25> C 	 -113.357 	 55.0144 	 -86.3127
| 26> C 	 -112.896 	 53.7412 	 -86.7814
| 27> C 	 -111.586 	 53.8583 	 -87.2777
| 28> H 	 -114.34 	 55.2524 	 -85.9929
| 29> C 	 -113.834 	 52.5322 	 -86.8363
| 30> H 	 -113.52 	 51.7998 	 -87.6118
| 31> H 	 -114.736 	 52.8708 	 -87.2509
| 32> C 	 -113.99 	 51.7628 	 -85.5827
| 33> H 	 -114.471 	 52.4429 	 -84.8099
| 34> H 	 -113.027 	 51.6311 	 -85.1756
| 35> C 	 -114.791 	 50.4285 	 -85.6657
| 36> H 	 -114.488 	 49.7311 	 -86.3731
| 37> H 	 -115.809 	 50.7596 	 -86.0001
| 38> H 	 -114.948 	 49.9981 	 -84.7093
| 39> H 	 -108.441 	 51.0225 	 -89.7768
| 40> H 	 -112.501 	 56.9281 	 -85.7862
| 41> *
| 42>
| 43>                          ****END OF INPUT****

CARTESIAN COORDINATES (ANGSTROEM)
---------------------------------
  S    -109.580000   53.154800  -89.089500
  C    -109.074000   51.448000  -89.016200
  C    -109.623000   50.812900  -87.899600
  C    -110.601000   51.578300  -87.280000
  C    -110.720000   52.840900  -87.829600
  H    -111.226000   51.276100  -86.480000
  C    -109.305000   49.429000  -87.524300
  H    -108.558000   48.927100  -88.070200
  H    -110.258000   48.782800  -87.635100
  C    -109.058000   49.188600  -85.962400
  H    -109.818000   49.700200  -85.357900
  H    -109.034000   48.204200  -85.644100
  C    -107.743000   49.711800  -85.447800
  H    -106.961000   49.125300  -85.882200
  H    -107.593000   50.770100  -85.615500
  H    -107.647000   49.532100  -84.356000
  S    -110.936000   55.515200  -87.136700
  C    -112.332000   55.986300  -86.361700
  C    -113.357000   55.014400  -86.312700
  C    -112.896000   53.741200  -86.781400
  C    -111.586000   53.858300  -87.277700
  H    -114.340000   55.252400  -85.992900
  C    -113.834000   52.532200  -86.836300
  H    -113.520000   51.799800  -87.611800
  H    -114.736000   52.870800  -87.250900
  C    -113.990000   51.762800  -85.582700
  H    -114.471000   52.442900  -84.809900
  H    -113.027000   51.631100  -85.175600
  C    -114.791000   50.428500  -85.665700
  H    -114.488000   49.731100  -86.373100
  H    -115.809000   50.759600  -86.000100
  H    -114.948000   49.998100  -84.709300
  H    -108.441000   51.022500  -89.776800
  H    -112.501000   56.928100  -85.786200

 Total Charge           Charge          ....    0
 Multiplicity           Mult            ....    1
 Number of Electrons    NEL             ....  134
 Basis Dimension        Dim             ....  322

ORBITAL ENERGIES
----------------

  NO   OCC          E(Eh)            E(eV)
   0   2.0000     -88.971643     -2421.0415
   1   2.0000     -88.967289     -2420.9230
   2   2.0000     -10.327965      -281.0382
   3   2.0000     -10.325803      -280.9794
   4   2.0000     -10.315706      -280.7046
   5   2.0000     -10.313340      -280.6403
   6   2.0000     -10.306964      -280.4668
   7   2.0000     -10.299506      -280.2638
   8   2.0000     -10.295827      -280.1637
   9   2.0000     -10.292762      -280.0803
  10   2.0000     -10.288509      -279.9646
  11   2.0000     -10.287126      -279.9269
  12   2.0000     -10.285359      -279.8789
  13   2.0000     -10.281584      -279.7761
  14   2.0000     -10.278703      -279.6977
  15   2.0000     -10.267347      -279.3887
  16   2.0000      -8.087224      -220.0645
  17   2.0000      -8.082016      -219.9228
  18   2.0000      -6.045515      -164.5068
  19   2.0000      -6.041690      -164.4028
  20   2.0000      -6.040398      -164.3676
  21   2.0000      -6.038102      -164.3051
  22   2.0000      -6.036706      -164.2671
  23   2.0000      -6.032755      -164.1596
  24   2.0000      -1.009864       -27.4798
  25   2.0000      -0.986662       -26.8484
  26   2.0000      -0.917576       -24.9685
  27   2.0000      -0.911777       -24.8107
  28   2.0000      -0.868140       -23.6233
  29   2.0000      -0.858743       -23.3676
  30   2.0000      -0.849279       -23.1100
  31   2.0000      -0.810500       -22.0548
  32   2.0000      -0.791687       -21.5429
  33   2.0000      -0.770591       -20.9688
  34   2.0000      -0.710318       -19.3287
  35   2.0000      -0.699889       -19.0449
  36   2.0000      -0.691474       -18.8160
  37   2.0000      -0.662199       -18.0194
  38   2.0000      -0.639904       -17.4127
  39   2.0000      -0.629388       -17.1265
  40   2.0000      -0.600898       -16.3513
  41   2.0000      -0.569093       -15.4858
  42   2.0000      -0.560651       -15.2561
  43   2.0000      -0.549226       -14.9452
  44   2.0000      -0.539222       -14.6730
  45   2.0000      -0.529393       -14.4055
  46   2.0000      -0.523682       -14.2501
  47   2.0000      -0.518209       -14.1012
  48   2.0000      -0.500316       -13.6143
  49   2.0000      -0.495390       -13.4803
  50   2.0000      -0.494566       -13.4578
  51   2.0000      -0.484311       -13.1788
  52   2.0000      -0.472802       -12.8656
  53   2.0000      -0.469831       -12.7847
  54   2.0000      -0.462322       -12.5804
  55   2.0000      -0.454344       -12.3633
  56   2.0000      -0.448777       -12.2118
  57   2.0000      -0.437641       -11.9088
  58   2.0000      -0.428847       -11.6695
  59   2.0000      -0.427597       -11.6355
  60   2.0000      -0.424257       -11.5446
  61   2.0000      -0.415918       -11.3177
  62   2.0000      -0.410062       -11.1584
  63   2.0000      -0.350774        -9.5451
  64   2.0000      -0.335900        -9.1403
  65   2.0000      -0.331378        -9.0172
  66   2.0000      -0.275915        -7.5080
  67   0.0000       0.026586         0.7234
  68   0.0000       0.066554         1.8110
  69   0.0000       0.106811         2.9065
  70   0.0000       0.117488         3.1970
  71   0.0000       0.127129         3.4593

MULLIKEN ATOMIC CHARGES
-----------------------
   0 S :    0.102208
   1 C :   -0.141239
   2 C :   -0.009944
   3 C :    0.014459
   4 C :   -0.117812
   5 H :   -0.024195
   6 C :    0.057376
   7 H :    0.009405
   8 H :    0.047634
   9 C :   -0.075574
  10 H :    0.025075
  11 H :    0.012981
  12 C :   -0.052945
  13 H :    0.015328
  14 H :    0.040315
  15 H :    0.029398
  16 S :    0.135682
  17 C :   -0.103553
  18 C :   -0.036795
  19 C :   -0.039228
  20 C :   -0.160559
  21 H :    0.004676
  22 C :    0.080177
  23 H :    0.021809
  24 H :    0.008823
  25 C :   -0.082413
  26 H :    0.023964
  27 H :    0.018487
  28 C :   -0.002438
  29 H :    0.025502
  30 H :    0.021471
  31 H :    0.033548
  32 H :    0.046173
  33 H :    0.072203
Sum of atomic charges:    0.0000000

LOEWDIN ATOMIC CHARGES
----------------------
   0 S :    0.397237
   1 C :   -0.189573
   2 C :   -0.060094
   3 C :   -0.062547
   4 C :   -0.188362
   5 H :    0.024571
   6 C :   -0.027637
   7 H :    0.020671
   8 H :    0.046116
   9 C :   -0.036894
  10 H :    0.022513
  11 H :    0.015359
  12 C :   -0.065563
  13 H :    0.017244
  14 H :    0.023368
  15 H :    0.028445
  16 S :    0.433065
  17 C :   -0.223443
  18 C :   -0.068850
  19 C :   -0.048036
  20 C :   -0.186916
  21 H :    0.024055
  22 C :   -0.032974
  23 H :    0.033713
  24 H :    0.023272
  25 C :   -0.042562
  26 H :    0.029430
  27 H :    0.012029
  28 C :   -0.054670
  29 H :    0.015785
  30 H :    0.032019
  31 H :    0.025198
  32 H :    0.024022
  33 H :    0.040008

  Mayer bond orders larger than 0.100000
B(  0-S ,  1-C ) :   1.1228 B(  0-S ,  4-C ) :   1.1603 B(  1-C ,  2-C ) :   1.5653
B(  1-C , 32-H ) :   0.9776 B(  2-C ,  3-C ) :   1.2452 B(  2-C ,  6-C ) :   1.0471
B(  3-C ,  4-C ) :   1.5345 B(  3-C ,  5-H ) :   1.0042 B(  4-C , 20-C ) :   1.0728
B(  6-C ,  7-H ) :   0.9494 B(  6-C ,  8-H ) :   0.9338 B(  6-C ,  9-C ) :   1.0551
B(  9-C , 10-H ) :   0.9576 B(  9-C , 11-H ) :   0.9583 B(  9-C , 12-C ) :   1.0816
B( 12-C , 13-H ) :   0.9743 B( 12-C , 14-H ) :   0.9776 B( 12-C , 15-H ) :   0.9724
B( 16-S , 17-C ) :   1.1844 B( 16-S , 20-C ) :   1.1382 B( 17-C , 18-C ) :   1.5819
B( 17-C , 33-H ) :   0.9579 B( 18-C , 19-C ) :   1.2582 B( 18-C , 21-H ) :   0.9952
B( 19-C , 20-C ) :   1.5746 B( 19-C , 22-C ) :   1.0375 B( 22-C , 23-H ) :   0.9315
B( 22-C , 24-H ) :   0.9292 B( 22-C , 25-C ) :   1.0617 B( 25-C , 26-H ) :   0.9477
B( 25-C , 27-H ) :   0.9503 B( 25-C , 28-C ) :   1.0770 B( 28-C , 29-H ) :   0.9768
B( 28-C , 30-H ) :   0.9720 B( 28-C , 31-H ) :   0.9746

Dispersion correction           -0.014450174
FINAL SINGLE POINT ENERGY     -1339.864317295807

DIPOLE MOMENT
-------------
                                X             Y             Z
Electronic contribution:      7.08736      24.99010     -14.46072
Nuclear contribution   :     -7.43822     -25.47730      14.79431
                        -----------------------------------------
Total Dipole Moment    :     -0.35086      -0.48720       0.33359
                        -----------------------------------------
Magnitude (a.u.)       :      0.68684
Magnitude (Debye)      :      1.74580

Rotational constants in cm-1:     0.015874     0.010176     0.007320
Rotational constants in MHz :   475.900986   305.070211   219.460634

                             ****ORCA TERMINATED NORMALLY****
TOTAL RUN TIME: 0 days 0 hours 0 minutes 20 seconds 929 msec
