                         Program Version 4.2.1 -  RELEASE  -
|  1> ! wB97X-D3 SP def2-SVP
|  2> %pal
|  3> nprocs 24
|  4> end
|  5>
|  6> * xyz 0 1
|  7> S 	 -105.954 	 54.8094 	 -12.502
|  8> C 	 -105.077 	 55.4067 	 -13.9019
|  9> C 	 -104.689 	 54.3976 	 -14.7317
| 10> C 	 -104.996 	 53.1446 	 -14.2063
| 11> C 	 -105.852 	 53.1445 	 -13.112
| 12> H 	 -104.814 	 52.1203 	 -14.6599
| 13> C 	 -104.097 	 54.6094 	 -16.104
| 14> H 	 -103.965 	 55.685 	 -16.3308
| 15> H 	 -104.948 	 54.2297 	 -16.7597
| 16> C 	 -102.669 	 54.0712 	 -16.2548
| 17> H 	 -101.926 	 54.6101 	 -15.6977
| 18> H 	 -102.649 	 53.1148 	 -15.79
| 19> C 	 -102.211 	 53.9928 	 -17.7321
| 20> H 	 -102.367 	 54.9479 	 -18.285
| 21> H 	 -101.177 	 53.6029 	 -17.7221
| 22> H 	 -102.82 	 53.2306 	 -18.2034
| 23> S 	 -108.431 	 52.5681 	 -12.3204
| 24> C 	 -108.98 	 50.9288 	 -11.9603
| 25> C 	 -107.875 	 50.1172 	 -12.0067
| 26> C 	 -106.642 	 50.716 	 -12.4719
| 27> C 	 -106.782 	 52.1057 	 -12.6018
| 28> H 	 -108.007 	 49.0673 	 -11.699
| 29> C 	 -105.328 	 49.9522 	 -12.663
| 30> H 	 -104.96 	 49.9295 	 -13.7045
| 31> H 	 -105.64 	 48.9157 	 -12.5222
| 32> C 	 -104.233 	 50.3443 	 -11.6353
| 33> H 	 -104.506 	 50.0977 	 -10.6549
| 34> H 	 -104.08 	 51.4553 	 -11.6733
| 35> C 	 -102.884 	 49.6629 	 -12.0216
| 36> H 	 -102.093 	 50.1615 	 -11.5819
| 37> H 	 -102.718 	 49.6314 	 -13.1549
| 38> H 	 -102.885 	 48.5932 	 -11.6953
| 39> H 	 -105.08 	 56.443 	 -14.0895
| 40> H 	 -110.031 	 50.6443 	 -11.7074
| 41> *
| 42>
| 43>                          ****END OF INPUT****

CARTESIAN COORDINATES (ANGSTROEM)
---------------------------------
  S    -105.954000   54.809400  -12.502000
  C    -105.077000   55.406700  -13.901900
  C    -104.689000   54.397600  -14.731700
  C    -104.996000   53.144600  -14.206300
  C    -105.852000   53.144500  -13.112000
  H    -104.814000   52.120300  -14.659900
  C    -104.097000   54.609400  -16.104000
  H    -103.965000   55.685000  -16.330800
  H    -104.948000   54.229700  -16.759700
  C    -102.669000   54.071200  -16.254800
  H    -101.926000   54.610100  -15.697700
  H    -102.649000   53.114800  -15.790000
  C    -102.211000   53.992800  -17.732100
  H    -102.367000   54.947900  -18.285000
  H    -101.177000   53.602900  -17.722100
  H    -102.820000   53.230600  -18.203400
  S    -108.431000   52.568100  -12.320400
  C    -108.980000   50.928800  -11.960300
  C    -107.875000   50.117200  -12.006700
  C    -106.642000   50.716000  -12.471900
  C    -106.782000   52.105700  -12.601800
  H    -108.007000   49.067300  -11.699000
  C    -105.328000   49.952200  -12.663000
  H    -104.960000   49.929500  -13.704500
  H    -105.640000   48.915700  -12.522200
  C    -104.233000   50.344300  -11.635300
  H    -104.506000   50.097700  -10.654900
  H    -104.080000   51.455300  -11.673300
  C    -102.884000   49.662900  -12.021600
  H    -102.093000   50.161500  -11.581900
  H    -102.718000   49.631400  -13.154900
  H    -102.885000   48.593200  -11.695300
  H    -105.080000   56.443000  -14.089500
  H    -110.031000   50.644300  -11.707400

 Total Charge           Charge          ....    0
 Multiplicity           Mult            ....    1
 Number of Electrons    NEL             ....  134
 Basis Dimension        Dim             ....  322

ORBITAL ENERGIES
----------------

  NO   OCC          E(Eh)            E(eV)
   0   2.0000     -88.964021     -2420.8341
   1   2.0000     -88.962454     -2420.7914
   2   2.0000     -10.335885      -281.2537
   3   2.0000     -10.331829      -281.1433
   4   2.0000     -10.322379      -280.8862
   5   2.0000     -10.308490      -280.5083
   6   2.0000     -10.306784      -280.4618
   7   2.0000     -10.299097      -280.2527
   8   2.0000     -10.298966      -280.2491
   9   2.0000     -10.298682      -280.2414
  10   2.0000     -10.298568      -280.2383
  11   2.0000     -10.296452      -280.1807
  12   2.0000     -10.285971      -279.8955
  13   2.0000     -10.284171      -279.8465
  14   2.0000     -10.283315      -279.8232
  15   2.0000     -10.279653      -279.7236
  16   2.0000      -8.078694      -219.8325
  17   2.0000      -8.077044      -219.7875
  18   2.0000      -6.037279      -164.2827
  19   2.0000      -6.035507      -164.2345
  20   2.0000      -6.033048      -164.1676
  21   2.0000      -6.031579      -164.1276
  22   2.0000      -6.029500      -164.0710
  23   2.0000      -6.027859      -164.0264
  24   2.0000      -1.006310       -27.3831
  25   2.0000      -0.985578       -26.8189
  26   2.0000      -0.911790       -24.8111
  27   2.0000      -0.903446       -24.5840
  28   2.0000      -0.868960       -23.6456
  29   2.0000      -0.848333       -23.0843
  30   2.0000      -0.842386       -22.9225
  31   2.0000      -0.816889       -22.2287
  32   2.0000      -0.778202       -21.1760
  33   2.0000      -0.768509       -20.9122
  34   2.0000      -0.709429       -19.3045
  35   2.0000      -0.701092       -19.0777
  36   2.0000      -0.691695       -18.8220
  37   2.0000      -0.659838       -17.9551
  38   2.0000      -0.642951       -17.4956
  39   2.0000      -0.621824       -16.9207
  40   2.0000      -0.594266       -16.1708
  41   2.0000      -0.565196       -15.3798
  42   2.0000      -0.560018       -15.2389
  43   2.0000      -0.555827       -15.1248
  44   2.0000      -0.531730       -14.4691
  45   2.0000      -0.525745       -14.3062
  46   2.0000      -0.516274       -14.0485
  47   2.0000      -0.513523       -13.9737
  48   2.0000      -0.502629       -13.6772
  49   2.0000      -0.497234       -13.5304
  50   2.0000      -0.487065       -13.2537
  51   2.0000      -0.485265       -13.2047
  52   2.0000      -0.477520       -12.9940
  53   2.0000      -0.462911       -12.5964
  54   2.0000      -0.457995       -12.4627
  55   2.0000      -0.446518       -12.1504
  56   2.0000      -0.443360       -12.0644
  57   2.0000      -0.438248       -11.9253
  58   2.0000      -0.434529       -11.8241
  59   2.0000      -0.423780       -11.5316
  60   2.0000      -0.423183       -11.5154
  61   2.0000      -0.410938       -11.1822
  62   2.0000      -0.404636       -11.0107
  63   2.0000      -0.352610        -9.5950
  64   2.0000      -0.332293        -9.0421
  65   2.0000      -0.327524        -8.9124
  66   2.0000      -0.288652        -7.8546
  67   0.0000       0.022849         0.6217
  68   0.0000       0.074465         2.0263
  69   0.0000       0.118114         3.2140
  70   0.0000       0.121767         3.3134
  71   0.0000       0.127155         3.4601

MULLIKEN ATOMIC CHARGES
-----------------------
   0 S :    0.085496
   1 C :   -0.107894
   2 C :   -0.077187
   3 C :    0.020215
   4 C :   -0.165538
   5 H :    0.025909
   6 C :    0.037129
   7 H :    0.021523
   8 H :    0.060436
   9 C :   -0.067625
  10 H :    0.027577
  11 H :    0.013323
  12 C :   -0.047557
  13 H :    0.044269
  14 H :    0.041693
  15 H :    0.026947
  16 S :    0.097917
  17 C :   -0.118381
  18 C :   -0.039482
  19 C :   -0.050775
  20 C :   -0.122337
  21 H :    0.028221
  22 C :    0.049737
  23 H :    0.035103
  24 H :    0.009520
  25 C :   -0.063510
  26 H :    0.023741
  27 H :    0.052125
  28 C :   -0.048509
  29 H :    0.024417
  30 H :    0.031572
  31 H :    0.035613
  32 H :    0.036190
  33 H :    0.080123
Sum of atomic charges:   -0.0000000

LOEWDIN ATOMIC CHARGES
----------------------
   0 S :    0.383236
   1 C :   -0.183594
   2 C :   -0.070406
   3 C :   -0.072164
   4 C :   -0.179055
   5 H :    0.039454
   6 C :   -0.034004
   7 H :    0.031260
   8 H :    0.046100
   9 C :   -0.039270
  10 H :    0.024654
  11 H :    0.016295
  12 C :   -0.065337
  13 H :    0.029600
  14 H :    0.030972
  15 H :    0.022826
  16 S :    0.408475
  17 C :   -0.194559
  18 C :   -0.076959
  19 C :   -0.063805
  20 C :   -0.200176
  21 H :    0.034206
  22 C :   -0.035164
  23 H :    0.029702
  24 H :    0.029098
  25 C :   -0.031676
  26 H :    0.018341
  27 H :    0.031761
  28 C :   -0.064241
  29 H :    0.013769
  30 H :    0.029735
  31 H :    0.028182
  32 H :    0.017973
  33 H :    0.044770

  Mayer bond orders larger than 0.100000
B(  0-S ,  1-C ) :   1.1288 B(  0-S ,  4-C ) :   1.1525 B(  1-C ,  2-C ) :   1.6166
B(  1-C , 32-H ) :   0.9741 B(  2-C ,  3-C ) :   1.2503 B(  2-C ,  6-C ) :   1.0145
B(  3-C ,  4-C ) :   1.5729 B(  3-C ,  5-H ) :   0.9743 B(  4-C , 20-C ) :   1.0421
B(  6-C ,  7-H ) :   0.9420 B(  6-C ,  8-H ) :   0.9446 B(  6-C ,  9-C ) :   1.0494
B(  9-C , 10-H ) :   0.9531 B(  9-C , 11-H ) :   0.9611 B(  9-C , 12-C ) :   1.0792
B( 12-C , 13-H ) :   0.9742 B( 12-C , 14-H ) :   0.9731 B( 12-C , 15-H ) :   0.9787
B( 16-S , 17-C ) :   1.1461 B( 16-S , 20-C ) :   1.1586 B( 17-C , 18-C ) :   1.6020
B( 17-C , 33-H ) :   0.9645 B( 18-C , 19-C ) :   1.2610 B( 18-C , 21-H ) :   0.9811
B( 19-C , 20-C ) :   1.5591 B( 19-C , 22-C ) :   1.0394 B( 22-C , 23-H ) :   0.9369
B( 22-C , 24-H ) :   0.9291 B( 22-C , 25-C ) :   1.0560 B( 25-C , 26-H ) :   0.9550
B( 25-C , 27-H ) :   0.9611 B( 25-C , 28-C ) :   1.0733 B( 28-C , 29-H ) :   0.9759
B( 28-C , 30-H ) :   0.9766 B( 28-C , 31-H ) :   0.9763

Dispersion correction           -0.014034622
FINAL SINGLE POINT ENERGY     -1339.874107079386

DIPOLE MOMENT
-------------
                                X             Y             Z
Electronic contribution:    -24.51786      10.26445      13.70488
Nuclear contribution   :     24.79069     -10.66508     -14.07086
                        -----------------------------------------
Total Dipole Moment    :      0.27282      -0.40063      -0.36598
                        -----------------------------------------
Magnitude (a.u.)       :      0.60735
Magnitude (Debye)      :      1.54376

Rotational constants in cm-1:     0.017602     0.008730     0.006793
Rotational constants in MHz :   527.702631   261.721954   203.637766

                             ****ORCA TERMINATED NORMALLY****
TOTAL RUN TIME: 0 days 0 hours 0 minutes 21 seconds 422 msec
