                         Program Version 4.2.1 -  RELEASE  -
|  1> ! wB97X-D3 SP def2-SVP
|  2> %pal
|  3> nprocs 24
|  4> end
|  5>
|  6> * xyz 0 1
|  7> S 	 -104.693 	 55.0794 	 -106.694
|  8> C 	 -104.173 	 54.657 	 -108.331
|  9> C 	 -105.314 	 54.382 	 -109.123
| 10> C 	 -106.507 	 54.6944 	 -108.479
| 11> C 	 -106.344 	 55.0655 	 -107.156
| 12> H 	 -107.471 	 54.7319 	 -108.989
| 13> C 	 -105.213 	 53.8371 	 -110.588
| 14> H 	 -106.182 	 53.5285 	 -110.942
| 15> H 	 -104.623 	 52.8856 	 -110.575
| 16> C 	 -104.663 	 54.7457 	 -111.721
| 17> H 	 -103.731 	 55.0975 	 -111.484
| 18> H 	 -104.441 	 54.1165 	 -112.615
| 19> C 	 -105.449 	 56.0265 	 -112.176
| 20> H 	 -104.961 	 56.7629 	 -112.801
| 21> H 	 -106.366 	 55.6988 	 -112.65
| 22> H 	 -105.787 	 56.6956 	 -111.439
| 23> S 	 -107 	 56.7673 	 -105.246
| 24> C 	 -108.666 	 57.0628 	 -104.889
| 25> C 	 -109.482 	 56.0759 	 -105.428
| 26> C 	 -108.787 	 55.1799 	 -106.271
| 27> C 	 -107.455 	 55.5002 	 -106.303
| 28> H 	 -110.593 	 56.0055 	 -105.263
| 29> C 	 -109.437 	 54.0119 	 -107.079
| 30> H 	 -108.742 	 53.1807 	 -106.904
| 31> H 	 -109.442 	 54.3268 	 -108.108
| 32> C 	 -110.847 	 53.6135 	 -106.615
| 33> H 	 -111.503 	 54.4411 	 -106.797
| 34> H 	 -110.803 	 53.2382 	 -105.631
| 35> C 	 -111.149 	 52.3076 	 -107.429
| 36> H 	 -110.486 	 51.5101 	 -107.131
| 37> H 	 -111.035 	 52.4376 	 -108.505
| 38> H 	 -112.201 	 52.0436 	 -107.237
| 39> H 	 -103.157 	 54.4513 	 -108.75
| 40> H 	 -109.002 	 57.7791 	 -104.207
| 41> *
| 42>
| 43>                          ****END OF INPUT****

CARTESIAN COORDINATES (ANGSTROEM)
---------------------------------
  S    -104.693000   55.079400  -106.694000
  C    -104.173000   54.657000  -108.331000
  C    -105.314000   54.382000  -109.123000
  C    -106.507000   54.694400  -108.479000
  C    -106.344000   55.065500  -107.156000
  H    -107.471000   54.731900  -108.989000
  C    -105.213000   53.837100  -110.588000
  H    -106.182000   53.528500  -110.942000
  H    -104.623000   52.885600  -110.575000
  C    -104.663000   54.745700  -111.721000
  H    -103.731000   55.097500  -111.484000
  H    -104.441000   54.116500  -112.615000
  C    -105.449000   56.026500  -112.176000
  H    -104.961000   56.762900  -112.801000
  H    -106.366000   55.698800  -112.650000
  H    -105.787000   56.695600  -111.439000
  S    -107.000000   56.767300  -105.246000
  C    -108.666000   57.062800  -104.889000
  C    -109.482000   56.075900  -105.428000
  C    -108.787000   55.179900  -106.271000
  C    -107.455000   55.500200  -106.303000
  H    -110.593000   56.005500  -105.263000
  C    -109.437000   54.011900  -107.079000
  H    -108.742000   53.180700  -106.904000
  H    -109.442000   54.326800  -108.108000
  C    -110.847000   53.613500  -106.615000
  H    -111.503000   54.441100  -106.797000
  H    -110.803000   53.238200  -105.631000
  C    -111.149000   52.307600  -107.429000
  H    -110.486000   51.510100  -107.131000
  H    -111.035000   52.437600  -108.505000
  H    -112.201000   52.043600  -107.237000
  H    -103.157000   54.451300  -108.750000
  H    -109.002000   57.779100  -104.207000

 Total Charge           Charge          ....    0
 Multiplicity           Mult            ....    1
 Number of Electrons    NEL             ....  134
 Basis Dimension        Dim             ....  322

ORBITAL ENERGIES
----------------

  NO   OCC          E(Eh)            E(eV)
   0   2.0000     -88.972771     -2421.0722
   1   2.0000     -88.963804     -2420.8282
   2   2.0000     -10.326007      -280.9849
   3   2.0000     -10.318860      -280.7905
   4   2.0000     -10.317881      -280.7638
   5   2.0000     -10.310130      -280.5529
   6   2.0000     -10.302469      -280.3444
   7   2.0000     -10.299684      -280.2686
   8   2.0000     -10.298249      -280.2296
   9   2.0000     -10.295927      -280.1664
  10   2.0000     -10.294620      -280.1308
  11   2.0000     -10.287773      -279.9445
  12   2.0000     -10.287212      -279.9293
  13   2.0000     -10.286679      -279.9148
  14   2.0000     -10.281171      -279.7649
  15   2.0000     -10.271493      -279.5015
  16   2.0000      -8.087081      -220.0607
  17   2.0000      -8.079940      -219.8664
  18   2.0000      -6.045624      -164.5098
  19   2.0000      -6.041592      -164.4001
  20   2.0000      -6.038190      -164.3075
  21   2.0000      -6.037899      -164.2996
  22   2.0000      -6.034379      -164.2038
  23   2.0000      -6.030756      -164.1052
  24   2.0000      -1.014008       -27.5926
  25   2.0000      -0.986868       -26.8541
  26   2.0000      -0.912939       -24.8423
  27   2.0000      -0.901251       -24.5243
  28   2.0000      -0.864551       -23.5256
  29   2.0000      -0.856173       -23.2977
  30   2.0000      -0.844782       -22.9877
  31   2.0000      -0.809300       -22.0222
  32   2.0000      -0.783497       -21.3200
  33   2.0000      -0.772375       -21.0174
  34   2.0000      -0.711571       -19.3628
  35   2.0000      -0.706764       -19.2320
  36   2.0000      -0.696224       -18.9452
  37   2.0000      -0.657247       -17.8846
  38   2.0000      -0.631354       -17.1800
  39   2.0000      -0.616963       -16.7884
  40   2.0000      -0.596112       -16.2210
  41   2.0000      -0.586998       -15.9730
  42   2.0000      -0.568248       -15.4628
  43   2.0000      -0.542055       -14.7501
  44   2.0000      -0.531781       -14.4705
  45   2.0000      -0.524163       -14.2632
  46   2.0000      -0.517592       -14.0844
  47   2.0000      -0.505791       -13.7633
  48   2.0000      -0.502253       -13.6670
  49   2.0000      -0.494735       -13.4624
  50   2.0000      -0.484918       -13.1953
  51   2.0000      -0.477894       -13.0042
  52   2.0000      -0.473755       -12.8915
  53   2.0000      -0.471095       -12.8191
  54   2.0000      -0.460484       -12.5304
  55   2.0000      -0.454789       -12.3754
  56   2.0000      -0.446005       -12.1364
  57   2.0000      -0.445001       -12.1091
  58   2.0000      -0.434527       -11.8241
  59   2.0000      -0.431266       -11.7353
  60   2.0000      -0.421953       -11.4819
  61   2.0000      -0.413284       -11.2460
  62   2.0000      -0.407937       -11.1005
  63   2.0000      -0.351263        -9.5583
  64   2.0000      -0.338094        -9.2000
  65   2.0000      -0.331383        -9.0174
  66   2.0000      -0.281050        -7.6478
  67   0.0000       0.025905         0.7049
  68   0.0000       0.078443         2.1345
  69   0.0000       0.099942         2.7196
  70   0.0000       0.127619         3.4727
  71   0.0000       0.139702         3.8015

MULLIKEN ATOMIC CHARGES
-----------------------
   0 S :    0.124944
   1 C :   -0.138348
   2 C :   -0.083104
   3 C :   -0.011991
   4 C :   -0.112755
   5 H :    0.009023
   6 C :    0.060362
   7 H :    0.008897
   8 H :    0.043049
   9 C :   -0.034852
  10 H :   -0.000796
  11 H :    0.030225
  12 C :   -0.049313
  13 H :    0.029621
  14 H :    0.019840
  15 H :    0.019698
  16 S :    0.108569
  17 C :   -0.062233
  18 C :   -0.069042
  19 C :   -0.050669
  20 C :   -0.151237
  21 H :    0.035268
  22 C :    0.024598
  23 H :    0.043158
  24 H :    0.042368
  25 C :   -0.061333
  26 H :    0.042526
  27 H :    0.032762
  28 C :   -0.041444
  29 H :    0.034673
  30 H :    0.025789
  31 H :    0.034850
  32 H :    0.063695
  33 H :    0.033199
Sum of atomic charges:   -0.0000000

LOEWDIN ATOMIC CHARGES
----------------------
   0 S :    0.420627
   1 C :   -0.213434
   2 C :   -0.060760
   3 C :   -0.075712
   4 C :   -0.204242
   5 H :    0.033048
   6 C :   -0.029092
   7 H :    0.023441
   8 H :    0.040758
   9 C :   -0.035676
  10 H :    0.007261
  11 H :    0.031662
  12 C :   -0.070929
  13 H :    0.029649
  14 H :    0.021368
  15 H :    0.021518
  16 S :    0.429993
  17 C :   -0.186793
  18 C :   -0.075964
  19 C :   -0.065309
  20 C :   -0.204399
  21 H :    0.039244
  22 C :   -0.025058
  23 H :    0.037064
  24 H :    0.026769
  25 C :   -0.032307
  26 H :    0.022463
  27 H :    0.024722
  28 C :   -0.058279
  29 H :    0.025282
  30 H :    0.021405
  31 H :    0.025963
  32 H :    0.040011
  33 H :    0.015701

  Mayer bond orders larger than 0.100000
B(  0-S ,  1-C ) :   1.1350 B(  0-S ,  4-C ) :   1.1715 B(  1-C ,  2-C ) :   1.5746
B(  1-C ,  4-C ) :   0.1056 B(  1-C , 32-H ) :   0.9634 B(  2-C ,  3-C ) :   1.2987
B(  2-C ,  6-C ) :   1.0103 B(  3-C ,  4-C ) :   1.5270 B(  3-C ,  5-H ) :   0.9901
B(  4-C , 20-C ) :   1.0387 B(  6-C ,  7-H ) :   0.9466 B(  6-C ,  8-H ) :   0.9403
B(  6-C ,  9-C ) :   1.0711 B(  9-C , 10-H ) :   0.9578 B(  9-C , 11-H ) :   0.9544
B(  9-C , 12-C ) :   1.0620 B( 12-C , 13-H ) :   0.9758 B( 12-C , 14-H ) :   0.9779
B( 12-C , 15-H ) :   0.9753 B( 16-S , 17-C ) :   1.1656 B( 16-S , 20-C ) :   1.1556
B( 17-C , 18-C ) :   1.5767 B( 17-C , 20-C ) :   0.1005 B( 17-C , 33-H ) :   0.9747
B( 18-C , 19-C ) :   1.2778 B( 18-C , 21-H ) :   0.9776 B( 19-C , 20-C ) :   1.6070
B( 19-C , 22-C ) :   0.9923 B( 22-C , 23-H ) :   0.9442 B( 22-C , 24-H ) :   0.9303
B( 22-C , 25-C ) :   1.0966 B( 25-C , 26-H ) :   0.9474 B( 25-C , 27-H ) :   0.9547
B( 25-C , 28-C ) :   1.0796 B( 28-C , 29-H ) :   0.9769 B( 28-C , 30-H ) :   0.9747
B( 28-C , 31-H ) :   0.9739

Dispersion correction           -0.013589658
FINAL SINGLE POINT ENERGY     -1339.864419258257

DIPOLE MOMENT
-------------
                                X             Y             Z
Electronic contribution:     12.81836      11.10258      22.74064
Nuclear contribution   :    -13.25306     -11.37447     -23.14903
                        -----------------------------------------
Total Dipole Moment    :     -0.43470      -0.27189      -0.40839
                        -----------------------------------------
Magnitude (a.u.)       :      0.65549
Magnitude (Debye)      :      1.66613

Rotational constants in cm-1:     0.016736     0.008609     0.006595
Rotational constants in MHz :   501.731965   258.106248   197.722424

                             ****ORCA TERMINATED NORMALLY****
TOTAL RUN TIME: 0 days 0 hours 0 minutes 20 seconds 100 msec
