                         Program Version 4.2.1 -  RELEASE  -
|  1> ! wB97X-D3 SP def2-SVP
|  2> %pal
|  3> nprocs 24
|  4> end
|  5>
|  6> * xyz 0 1
|  7> S 	 -49.1548 	 14.5592 	 23.6374
|  8> C 	 -50.8693 	 14.738 	 24.0442
|  9> C 	 -51.5262 	 15.5582 	 23.1341
| 10> C 	 -50.5894 	 16.1784 	 22.2434
| 11> C 	 -49.2766 	 15.7249 	 22.3704
| 12> H 	 -50.7535 	 16.84 	 21.3793
| 13> C 	 -53.0263 	 15.9527 	 23.1462
| 14> H 	 -53.5179 	 15.1694 	 22.6452
| 15> H 	 -53.1616 	 16.891 	 22.6482
| 16> C 	 -53.5921 	 16.1074 	 24.5344
| 17> H 	 -53.4573 	 15.1503 	 25.0513
| 18> H 	 -53.0073 	 16.8833 	 24.9201
| 19> C 	 -55.0408 	 16.4785 	 24.4789
| 20> H 	 -55.6588 	 15.7767 	 23.9338
| 21> H 	 -55.4849 	 16.4665 	 25.4738
| 22> H 	 -55.2519 	 17.3717 	 23.9985
| 23> S 	 -46.8121 	 14.9139 	 21.5181
| 24> C 	 -45.9044 	 15.908 	 20.4419
| 25> C 	 -46.4062 	 17.2319 	 20.4875
| 26> C 	 -47.7251 	 17.3195 	 21.0567
| 27> C 	 -48.0821 	 16.1399 	 21.6186
| 28> H 	 -45.8403 	 18.003 	 20.03
| 29> C 	 -48.3451 	 18.7522 	 21.086
| 30> H 	 -49.4232 	 18.7469 	 20.8703
| 31> H 	 -48.0085 	 19.383 	 20.2379
| 32> C 	 -48.2064 	 19.4092 	 22.5287
| 33> H 	 -48.1691 	 18.6126 	 23.2851
| 34> H 	 -49.0035 	 20.1278 	 22.6832
| 35> C 	 -46.8373 	 20.1778 	 22.6729
| 36> H 	 -45.9243 	 19.6472 	 22.3166
| 37> H 	 -46.8185 	 20.2926 	 23.8078
| 38> H 	 -46.8468 	 21.1469 	 22.1627
| 39> H 	 -51.4103 	 14.2148 	 24.8288
| 40> H 	 -44.9463 	 15.6628 	 20.1081
| 41> *
| 42>
| 43>                          ****END OF INPUT****

CARTESIAN COORDINATES (ANGSTROEM)
---------------------------------
  S    -49.154800   14.559200   23.637400
  C    -50.869300   14.738000   24.044200
  C    -51.526200   15.558200   23.134100
  C    -50.589400   16.178400   22.243400
  C    -49.276600   15.724900   22.370400
  H    -50.753500   16.840000   21.379300
  C    -53.026300   15.952700   23.146200
  H    -53.517900   15.169400   22.645200
  H    -53.161600   16.891000   22.648200
  C    -53.592100   16.107400   24.534400
  H    -53.457300   15.150300   25.051300
  H    -53.007300   16.883300   24.920100
  C    -55.040800   16.478500   24.478900
  H    -55.658800   15.776700   23.933800
  H    -55.484900   16.466500   25.473800
  H    -55.251900   17.371700   23.998500
  S    -46.812100   14.913900   21.518100
  C    -45.904400   15.908000   20.441900
  C    -46.406200   17.231900   20.487500
  C    -47.725100   17.319500   21.056700
  C    -48.082100   16.139900   21.618600
  H    -45.840300   18.003000   20.030000
  C    -48.345100   18.752200   21.086000
  H    -49.423200   18.746900   20.870300
  H    -48.008500   19.383000   20.237900
  C    -48.206400   19.409200   22.528700
  H    -48.169100   18.612600   23.285100
  H    -49.003500   20.127800   22.683200
  C    -46.837300   20.177800   22.672900
  H    -45.924300   19.647200   22.316600
  H    -46.818500   20.292600   23.807800
  H    -46.846800   21.146900   22.162700
  H    -51.410300   14.214800   24.828800
  H    -44.946300   15.662800   20.108100

 Total Charge           Charge          ....    0
 Multiplicity           Mult            ....    1
 Number of Electrons    NEL             ....  134
 Basis Dimension        Dim             ....  322

ORBITAL ENERGIES
----------------

  NO   OCC          E(Eh)            E(eV)
   0   2.0000     -88.967095     -2420.9177
   1   2.0000     -88.965748     -2420.8811
   2   2.0000     -10.329338      -281.0756
   3   2.0000     -10.328478      -281.0522
   4   2.0000     -10.314489      -280.6715
   5   2.0000     -10.314391      -280.6689
   6   2.0000     -10.307172      -280.4724
   7   2.0000     -10.303961      -280.3850
   8   2.0000     -10.302442      -280.3437
   9   2.0000     -10.295172      -280.1459
  10   2.0000     -10.293408      -280.0979
  11   2.0000     -10.292934      -280.0850
  12   2.0000     -10.285418      -279.8805
  13   2.0000     -10.284292      -279.8498
  14   2.0000     -10.279156      -279.7101
  15   2.0000     -10.270086      -279.4633
  16   2.0000      -8.081663      -219.9132
  17   2.0000      -8.080909      -219.8927
  18   2.0000      -6.040254      -164.3637
  19   2.0000      -6.039385      -164.3400
  20   2.0000      -6.036172      -164.2526
  21   2.0000      -6.035505      -164.2345
  22   2.0000      -6.032397      -164.1499
  23   2.0000      -6.031549      -164.1268
  24   2.0000      -1.007954       -27.4278
  25   2.0000      -0.982914       -26.7464
  26   2.0000      -0.922287       -25.0967
  27   2.0000      -0.898408       -24.4469
  28   2.0000      -0.868292       -23.6274
  29   2.0000      -0.850514       -23.1437
  30   2.0000      -0.841066       -22.8866
  31   2.0000      -0.810125       -22.0446
  32   2.0000      -0.782880       -21.3032
  33   2.0000      -0.775637       -21.1061
  34   2.0000      -0.711382       -19.3577
  35   2.0000      -0.699497       -19.0343
  36   2.0000      -0.686363       -18.6769
  37   2.0000      -0.670340       -18.2409
  38   2.0000      -0.637197       -17.3390
  39   2.0000      -0.610996       -16.6261
  40   2.0000      -0.598550       -16.2874
  41   2.0000      -0.588897       -16.0247
  42   2.0000      -0.563265       -15.3272
  43   2.0000      -0.544563       -14.8183
  44   2.0000      -0.531116       -14.4524
  45   2.0000      -0.524855       -14.2820
  46   2.0000      -0.519787       -14.1441
  47   2.0000      -0.510902       -13.9024
  48   2.0000      -0.504259       -13.7216
  49   2.0000      -0.501440       -13.6449
  50   2.0000      -0.490803       -13.3554
  51   2.0000      -0.481843       -13.1116
  52   2.0000      -0.475911       -12.9502
  53   2.0000      -0.469743       -12.7824
  54   2.0000      -0.459823       -12.5124
  55   2.0000      -0.448845       -12.2137
  56   2.0000      -0.439886       -11.9699
  57   2.0000      -0.434478       -11.8227
  58   2.0000      -0.432890       -11.7795
  59   2.0000      -0.424896       -11.5620
  60   2.0000      -0.420852       -11.4520
  61   2.0000      -0.418695       -11.3933
  62   2.0000      -0.406364       -11.0577
  63   2.0000      -0.355658        -9.6780
  64   2.0000      -0.334667        -9.1067
  65   2.0000      -0.327681        -8.9166
  66   2.0000      -0.283517        -7.7149
  67   0.0000       0.023418         0.6372
  68   0.0000       0.069804         1.8995
  69   0.0000       0.101695         2.7673
  70   0.0000       0.122246         3.3265
  71   0.0000       0.136737         3.7208

MULLIKEN ATOMIC CHARGES
-----------------------
   0 S :    0.101761
   1 C :   -0.132869
   2 C :   -0.082025
   3 C :   -0.014940
   4 C :   -0.123104
   5 H :    0.017894
   6 C :    0.099870
   7 H :    0.024609
   8 H :    0.016214
   9 C :   -0.080704
  10 H :    0.031197
  11 H :    0.027472
  12 C :    0.001709
  13 H :    0.010500
  14 H :    0.030684
  15 H :    0.009838
  16 S :    0.097423
  17 C :   -0.062996
  18 C :   -0.043656
  19 C :   -0.042364
  20 C :   -0.132551
  21 H :    0.011275
  22 C :    0.045236
  23 H :    0.017337
  24 H :    0.031068
  25 C :   -0.064586
  26 H :    0.054096
  27 H :    0.037285
  28 C :   -0.099754
  29 H :    0.044756
  30 H :    0.045718
  31 H :    0.036562
  32 H :    0.047295
  33 H :    0.039749
Sum of atomic charges:   -0.0000000

LOEWDIN ATOMIC CHARGES
----------------------
   0 S :    0.402830
   1 C :   -0.202210
   2 C :   -0.055066
   3 C :   -0.078940
   4 C :   -0.194986
   5 H :    0.033248
   6 C :   -0.018368
   7 H :    0.025633
   8 H :    0.026060
   9 C :   -0.034779
  10 H :    0.024873
  11 H :    0.021910
  12 C :   -0.059328
  13 H :    0.024484
  14 H :    0.029560
  15 H :    0.015710
  16 S :    0.404820
  17 C :   -0.184321
  18 C :   -0.059672
  19 C :   -0.057736
  20 C :   -0.186526
  21 H :    0.022699
  22 C :   -0.034297
  23 H :    0.025702
  24 H :    0.032934
  25 C :   -0.030209
  26 H :    0.032176
  27 H :    0.024478
  28 C :   -0.076604
  29 H :    0.026532
  30 H :    0.034929
  31 H :    0.021110
  32 H :    0.027759
  33 H :    0.015595

  Mayer bond orders larger than 0.100000
B(  0-S ,  1-C ) :   1.1270 B(  0-S ,  4-C ) :   1.1504 B(  1-C ,  2-C ) :   1.6156
B(  1-C , 32-H ) :   0.9680 B(  2-C ,  3-C ) :   1.2393 B(  2-C ,  6-C ) :   1.0036
B(  3-C ,  4-C ) :   1.5871 B(  3-C ,  5-H ) :   0.9876 B(  4-C , 20-C ) :   1.0443
B(  6-C ,  7-H ) :   0.9244 B(  6-C ,  8-H ) :   0.9520 B(  6-C ,  9-C ) :   1.0825
B(  9-C , 10-H ) :   0.9455 B(  9-C , 11-H ) :   0.9600 B(  9-C , 12-C ) :   1.1019
B( 12-C , 13-H ) :   0.9679 B( 12-C , 14-H ) :   0.9699 B( 12-C , 15-H ) :   0.9698
B( 16-S , 17-C ) :   1.1603 B( 16-S , 20-C ) :   1.1345 B( 17-C , 18-C ) :   1.6006
B( 17-C , 20-C ) :   0.1016 B( 17-C , 33-H ) :   0.9740 B( 18-C , 19-C ) :   1.2308
B( 18-C , 21-H ) :   0.9895 B( 19-C , 20-C ) :   1.6219 B( 19-C , 22-C ) :   1.0408
B( 22-C , 23-H ) :   0.9401 B( 22-C , 24-H ) :   0.9430 B( 22-C , 25-C ) :   1.0427
B( 25-C , 26-H ) :   0.9658 B( 25-C , 27-H ) :   0.9591 B( 25-C , 28-C ) :   1.0647
B( 28-C , 29-H ) :   0.9762 B( 28-C , 30-H ) :   0.9786 B( 28-C , 31-H ) :   0.9785

Dispersion correction           -0.013966222
FINAL SINGLE POINT ENERGY     -1339.863868766282

DIPOLE MOMENT
-------------
                                X             Y             Z
Electronic contribution:     17.93998     -20.21048      -5.34216
Nuclear contribution   :    -18.31546      20.80084       5.27720
                        -----------------------------------------
Total Dipole Moment    :     -0.37547       0.59036      -0.06496
                        -----------------------------------------
Magnitude (a.u.)       :      0.70265
Magnitude (Debye)      :      1.78600

Rotational constants in cm-1:     0.021411     0.007718     0.006240
Rotational constants in MHz :   641.888092   231.392217   187.074185

                             ****ORCA TERMINATED NORMALLY****
TOTAL RUN TIME: 0 days 0 hours 0 minutes 20 seconds 118 msec
