                         Program Version 4.2.1 -  RELEASE  -
|  1> ! wB97X-D3 SP def2-SVP
|  2> %pal
|  3> nprocs 24
|  4> end
|  5>
|  6> * xyz 0 1
|  7> S 	 -53.1951 	 12.0002 	 22.8957
|  8> C 	 -54.2533 	 11.4364 	 21.7061
|  9> C 	 -54.9867 	 10.3557 	 22.134
| 10> C 	 -54.5812 	 9.91914 	 23.451
| 11> C 	 -53.6054 	 10.6916 	 24.0091
| 12> H 	 -55.0131 	 9.03858 	 23.9385
| 13> C 	 -56.1564 	 9.73937 	 21.2785
| 14> H 	 -56.7526 	 8.94527 	 21.8323
| 15> H 	 -55.7373 	 9.23451 	 20.4352
| 16> C 	 -57.2262 	 10.7203 	 20.7486
| 17> H 	 -57.6103 	 11.2644 	 21.554
| 18> H 	 -56.7355 	 11.4865 	 20.1185
| 19> C 	 -58.389 	 9.98622 	 20.0196
| 20> H 	 -58.8751 	 9.36811 	 20.7676
| 21> H 	 -59.094 	 10.5839 	 19.5065
| 22> H 	 -58.0519 	 9.22329 	 19.2055
| 23> S 	 -53.5188 	 10.3366 	 26.7955
| 24> C 	 -52.0461 	 10.1742 	 27.596
| 25> C 	 -51.0183 	 10.1392 	 26.6696
| 26> C 	 -51.4023 	 10.3589 	 25.3185
| 27> C 	 -52.8143 	 10.5532 	 25.2078
| 28> H 	 -49.982 	 10.0058 	 27.0678
| 29> C 	 -50.4217 	 10.2296 	 24.1797
| 30> H 	 -49.4256 	 10.3725 	 24.631
| 31> H 	 -50.4802 	 11.1009 	 23.5104
| 32> C 	 -50.3989 	 8.87828 	 23.3813
| 33> H 	 -49.5549 	 8.99346 	 22.7175
| 34> H 	 -51.2536 	 8.65689 	 22.804
| 35> C 	 -50.1689 	 7.67286 	 24.2375
| 36> H 	 -51.1657 	 7.37261 	 24.5319
| 37> H 	 -49.6416 	 8.00081 	 25.0901
| 38> H 	 -49.8451 	 6.83625 	 23.6751
| 39> H 	 -54.3743 	 11.7469 	 20.6737
| 40> H 	 -51.8739 	 10.1337 	 28.6279
| 41> *
| 42>
| 43>                          ****END OF INPUT****

CARTESIAN COORDINATES (ANGSTROEM)
---------------------------------
  S    -53.195100   12.000200   22.895700
  C    -54.253300   11.436400   21.706100
  C    -54.986700   10.355700   22.134000
  C    -54.581200    9.919140   23.451000
  C    -53.605400   10.691600   24.009100
  H    -55.013100    9.038580   23.938500
  C    -56.156400    9.739370   21.278500
  H    -56.752600    8.945270   21.832300
  H    -55.737300    9.234510   20.435200
  C    -57.226200   10.720300   20.748600
  H    -57.610300   11.264400   21.554000
  H    -56.735500   11.486500   20.118500
  C    -58.389000    9.986220   20.019600
  H    -58.875100    9.368110   20.767600
  H    -59.094000   10.583900   19.506500
  H    -58.051900    9.223290   19.205500
  S    -53.518800   10.336600   26.795500
  C    -52.046100   10.174200   27.596000
  C    -51.018300   10.139200   26.669600
  C    -51.402300   10.358900   25.318500
  C    -52.814300   10.553200   25.207800
  H    -49.982000   10.005800   27.067800
  C    -50.421700   10.229600   24.179700
  H    -49.425600   10.372500   24.631000
  H    -50.480200   11.100900   23.510400
  C    -50.398900    8.878280   23.381300
  H    -49.554900    8.993460   22.717500
  H    -51.253600    8.656890   22.804000
  C    -50.168900    7.672860   24.237500
  H    -51.165700    7.372610   24.531900
  H    -49.641600    8.000810   25.090100
  H    -49.845100    6.836250   23.675100
  H    -54.374300   11.746900   20.673700
  H    -51.873900   10.133700   28.627900

 Total Charge           Charge          ....    0
 Multiplicity           Mult            ....    1
 Number of Electrons    NEL             ....  134
 Basis Dimension        Dim             ....  322

ORBITAL ENERGIES
----------------

  NO   OCC          E(Eh)            E(eV)
   0   2.0000     -88.968407     -2420.9534
   1   2.0000     -88.965865     -2420.8843
   2   2.0000     -10.329007      -281.0666
   3   2.0000     -10.328545      -281.0540
   4   2.0000     -10.311109      -280.5795
   5   2.0000     -10.308318      -280.5036
   6   2.0000     -10.306335      -280.4496
   7   2.0000     -10.302630      -280.3488
   8   2.0000     -10.298895      -280.2472
   9   2.0000     -10.296971      -280.1948
  10   2.0000     -10.294494      -280.1274
  11   2.0000     -10.291851      -280.0555
  12   2.0000     -10.287032      -279.9244
  13   2.0000     -10.285432      -279.8808
  14   2.0000     -10.274361      -279.5796
  15   2.0000     -10.260060      -279.1904
  16   2.0000      -8.083867      -219.9732
  17   2.0000      -8.081145      -219.8991
  18   2.0000      -6.042201      -164.4167
  19   2.0000      -6.039636      -164.3468
  20   2.0000      -6.038016      -164.3028
  21   2.0000      -6.035529      -164.2351
  22   2.0000      -6.035027      -164.2214
  23   2.0000      -6.031916      -164.1368
  24   2.0000      -1.011022       -27.5113
  25   2.0000      -0.991049       -26.9678
  26   2.0000      -0.910008       -24.7626
  27   2.0000      -0.905166       -24.6308
  28   2.0000      -0.872743       -23.7486
  29   2.0000      -0.853942       -23.2370
  30   2.0000      -0.845576       -23.0093
  31   2.0000      -0.814727       -22.1698
  32   2.0000      -0.783241       -21.3131
  33   2.0000      -0.770326       -20.9616
  34   2.0000      -0.709195       -19.2982
  35   2.0000      -0.704086       -19.1592
  36   2.0000      -0.689502       -18.7623
  37   2.0000      -0.659516       -17.9463
  38   2.0000      -0.638070       -17.3628
  39   2.0000      -0.617885       -16.8135
  40   2.0000      -0.590781       -16.0760
  41   2.0000      -0.576439       -15.6857
  42   2.0000      -0.563758       -15.3406
  43   2.0000      -0.560625       -15.2554
  44   2.0000      -0.548311       -14.9203
  45   2.0000      -0.525544       -14.3008
  46   2.0000      -0.516531       -14.0555
  47   2.0000      -0.511241       -13.9116
  48   2.0000      -0.503776       -13.7084
  49   2.0000      -0.495709       -13.4889
  50   2.0000      -0.483856       -13.1664
  51   2.0000      -0.478376       -13.0173
  52   2.0000      -0.472568       -12.8592
  53   2.0000      -0.466533       -12.6950
  54   2.0000      -0.460850       -12.5404
  55   2.0000      -0.451472       -12.2852
  56   2.0000      -0.444194       -12.0871
  57   2.0000      -0.432527       -11.7697
  58   2.0000      -0.431741       -11.7483
  59   2.0000      -0.424976       -11.5642
  60   2.0000      -0.420518       -11.4429
  61   2.0000      -0.416018       -11.3204
  62   2.0000      -0.407471       -11.0879
  63   2.0000      -0.348965        -9.4958
  64   2.0000      -0.331990        -9.0339
  65   2.0000      -0.327755        -8.9187
  66   2.0000      -0.293793        -7.9945
  67   0.0000       0.029582         0.8050
  68   0.0000       0.072124         1.9626
  69   0.0000       0.117762         3.2045
  70   0.0000       0.119762         3.2589
  71   0.0000       0.135288         3.6814

MULLIKEN ATOMIC CHARGES
-----------------------
   0 S :    0.125349
   1 C :   -0.113589
   2 C :   -0.102862
   3 C :    0.038051
   4 C :   -0.166080
   5 H :    0.015369
   6 C :    0.036378
   7 H :    0.025734
   8 H :    0.030529
   9 C :   -0.059042
  10 H :    0.025193
  11 H :    0.024864
  12 C :   -0.062998
  13 H :    0.030336
  14 H :    0.034328
  15 H :    0.032672
  16 S :    0.131889
  17 C :   -0.070547
  18 C :   -0.071619
  19 C :   -0.031945
  20 C :   -0.154893
  21 H :    0.032941
  22 C :    0.054428
  23 H :    0.014811
  24 H :    0.031531
  25 C :   -0.048535
  26 H :    0.021695
  27 H :    0.026086
  28 C :    0.000405
  29 H :    0.018662
  30 H :    0.015320
  31 H :    0.026468
  32 H :    0.048968
  33 H :    0.040101
Sum of atomic charges:   -0.0000000

LOEWDIN ATOMIC CHARGES
----------------------
   0 S :    0.436784
   1 C :   -0.217764
   2 C :   -0.067960
   3 C :   -0.063149
   4 C :   -0.189546
   5 H :    0.035065
   6 C :   -0.031534
   7 H :    0.032739
   8 H :    0.025588
   9 C :   -0.038120
  10 H :    0.018611
  11 H :    0.020468
  12 C :   -0.067522
  13 H :    0.024407
  14 H :    0.020500
  15 H :    0.033388
  16 S :    0.447867
  17 C :   -0.202431
  18 C :   -0.083305
  19 C :   -0.054512
  20 C :   -0.216704
  21 H :    0.036130
  22 C :   -0.037854
  23 H :    0.031424
  24 H :    0.027380
  25 C :   -0.029370
  26 H :    0.020925
  27 H :    0.019197
  28 C :   -0.056522
  29 H :    0.027474
  30 H :    0.017414
  31 H :    0.023977
  32 H :    0.032771
  33 H :    0.024184

  Mayer bond orders larger than 0.100000
B(  0-S ,  1-C ) :   1.1552 B(  0-S ,  4-C ) :   1.1493 B(  1-C ,  2-C ) :   1.6165
B(  1-C , 32-H ) :   0.9648 B(  2-C ,  3-C ) :   1.2567 B(  2-C ,  6-C ) :   1.0011
B(  3-C ,  4-C ) :   1.5828 B(  3-C ,  5-H ) :   0.9964 B(  4-C , 20-C ) :   1.0398
B(  6-C ,  7-H ) :   0.9551 B(  6-C ,  8-H ) :   0.9408 B(  6-C ,  9-C ) :   1.0587
B(  9-C , 10-H ) :   0.9588 B(  9-C , 11-H ) :   0.9539 B(  9-C , 12-C ) :   1.0733
B( 12-C , 13-H ) :   0.9749 B( 12-C , 14-H ) :   0.9765 B( 12-C , 15-H ) :   0.9759
B( 16-S , 17-C ) :   1.1913 B( 16-S , 20-C ) :   1.1655 B( 17-C , 18-C ) :   1.5576
B( 17-C , 20-C ) :   0.1067 B( 17-C , 33-H ) :   0.9746 B( 18-C , 19-C ) :   1.3024
B( 18-C , 21-H ) :   0.9802 B( 19-C , 20-C ) :   1.5001 B( 19-C , 22-C ) :   1.0474
B( 22-C , 23-H ) :   0.9309 B( 22-C , 24-H ) :   0.9283 B( 22-C , 25-C ) :   1.0672
B( 25-C , 26-H ) :   0.9565 B( 25-C , 27-H ) :   0.9618 B( 25-C , 28-C ) :   1.0805
B( 28-C , 29-H ) :   0.9703 B( 28-C , 30-H ) :   0.9768 B( 28-C , 31-H ) :   0.9699

Dispersion correction           -0.014704718
FINAL SINGLE POINT ENERGY     -1339.875716078958

DIPOLE MOMENT
-------------
                                X             Y             Z
Electronic contribution:      4.02765      12.09354      17.09890
Nuclear contribution   :     -4.00787     -12.43891     -17.35013
                        -----------------------------------------
Total Dipole Moment    :      0.01979      -0.34537      -0.25123
                        -----------------------------------------
Magnitude (a.u.)       :      0.42754
Magnitude (Debye)      :      1.08671

Rotational constants in cm-1:     0.023732     0.007168     0.006518
Rotational constants in MHz :   711.470784   214.904510   195.396681

                             ****ORCA TERMINATED NORMALLY****
TOTAL RUN TIME: 0 days 0 hours 0 minutes 20 seconds 348 msec
