                         Program Version 4.2.1 -  RELEASE  -
|  1> ! wB97X-D3 SP def2-SVP
|  2> %pal
|  3> nprocs 24
|  4> end
|  5>
|  6> * xyz 0 1
|  7> S 	 -113.939 	 20.8589 	 -113.039
|  8> C 	 -112.866 	 22.1105 	 -113.487
|  9> C 	 -111.6 	 21.6472 	 -113.819
| 10> C 	 -111.619 	 20.2033 	 -113.827
| 11> C 	 -112.728 	 19.6369 	 -113.262
| 12> H 	 -110.891 	 19.5144 	 -114.116
| 13> C 	 -110.311 	 22.4413 	 -114.128
| 14> H 	 -110.535 	 22.8275 	 -115.153
| 15> H 	 -109.541 	 21.6978 	 -114.256
| 16> C 	 -109.902 	 23.5396 	 -113.101
| 17> H 	 -110.856 	 24.026 	 -112.8
| 18> H 	 -109.42 	 23.1461 	 -112.235
| 19> C 	 -108.992 	 24.5812 	 -113.801
| 20> H 	 -109.571 	 25.1352 	 -114.573
| 21> H 	 -108.759 	 25.4361 	 -113.121
| 22> H 	 -108.004 	 24.3028 	 -114.136
| 23> S 	 -112.383 	 17.1226 	 -114.241
| 24> C 	 -113.517 	 15.8687 	 -113.708
| 25> C 	 -113.998 	 16.2232 	 -112.465
| 26> C 	 -113.706 	 17.5875 	 -111.997
| 27> C 	 -113.024 	 18.2507 	 -113.016
| 28> H 	 -114.527 	 15.5214 	 -111.892
| 29> C 	 -114.361 	 18.1603 	 -110.732
| 30> H 	 -114.133 	 19.2121 	 -110.701
| 31> H 	 -113.75 	 17.7994 	 -109.872
| 32> C 	 -115.91 	 17.9971 	 -110.506
| 33> H 	 -116.113 	 18.3563 	 -109.488
| 34> H 	 -116.265 	 16.9271 	 -110.581
| 35> C 	 -116.7 	 18.8311 	 -111.489
| 36> H 	 -116.522 	 18.4635 	 -112.559
| 37> H 	 -116.449 	 19.9 	 -111.48
| 38> H 	 -117.746 	 18.7726 	 -111.331
| 39> H 	 -112.98 	 23.1624 	 -113.357
| 40> H 	 -113.628 	 14.9404 	 -114.219
| 41> *
| 42>
| 43>                          ****END OF INPUT****

CARTESIAN COORDINATES (ANGSTROEM)
---------------------------------
  S    -113.939000   20.858900  -113.039000
  C    -112.866000   22.110500  -113.487000
  C    -111.600000   21.647200  -113.819000
  C    -111.619000   20.203300  -113.827000
  C    -112.728000   19.636900  -113.262000
  H    -110.891000   19.514400  -114.116000
  C    -110.311000   22.441300  -114.128000
  H    -110.535000   22.827500  -115.153000
  H    -109.541000   21.697800  -114.256000
  C    -109.902000   23.539600  -113.101000
  H    -110.856000   24.026000  -112.800000
  H    -109.420000   23.146100  -112.235000
  C    -108.992000   24.581200  -113.801000
  H    -109.571000   25.135200  -114.573000
  H    -108.759000   25.436100  -113.121000
  H    -108.004000   24.302800  -114.136000
  S    -112.383000   17.122600  -114.241000
  C    -113.517000   15.868700  -113.708000
  C    -113.998000   16.223200  -112.465000
  C    -113.706000   17.587500  -111.997000
  C    -113.024000   18.250700  -113.016000
  H    -114.527000   15.521400  -111.892000
  C    -114.361000   18.160300  -110.732000
  H    -114.133000   19.212100  -110.701000
  H    -113.750000   17.799400  -109.872000
  C    -115.910000   17.997100  -110.506000
  H    -116.113000   18.356300  -109.488000
  H    -116.265000   16.927100  -110.581000
  C    -116.700000   18.831100  -111.489000
  H    -116.522000   18.463500  -112.559000
  H    -116.449000   19.900000  -111.480000
  H    -117.746000   18.772600  -111.331000
  H    -112.980000   23.162400  -113.357000
  H    -113.628000   14.940400  -114.219000

 Total Charge           Charge          ....    0
 Multiplicity           Mult            ....    1
 Number of Electrons    NEL             ....  134
 Basis Dimension        Dim             ....  322

ORBITAL ENERGIES
----------------

  NO   OCC          E(Eh)            E(eV)
   0   2.0000     -88.965219     -2420.8667
   1   2.0000     -88.960186     -2420.7297
   2   2.0000     -10.330571      -281.1091
   3   2.0000     -10.322520      -280.8900
   4   2.0000     -10.319040      -280.7953
   5   2.0000     -10.312194      -280.6091
   6   2.0000     -10.305371      -280.4234
   7   2.0000     -10.302539      -280.3463
   8   2.0000     -10.297789      -280.2171
   9   2.0000     -10.297360      -280.2054
  10   2.0000     -10.295845      -280.1642
  11   2.0000     -10.295637      -280.1585
  12   2.0000     -10.294898      -280.1384
  13   2.0000     -10.285285      -279.8768
  14   2.0000     -10.284254      -279.8488
  15   2.0000     -10.274106      -279.5726
  16   2.0000      -8.080323      -219.8768
  17   2.0000      -8.074612      -219.7214
  18   2.0000      -6.038939      -164.3279
  19   2.0000      -6.034679      -164.2120
  20   2.0000      -6.033335      -164.1754
  21   2.0000      -6.031044      -164.1130
  22   2.0000      -6.029448      -164.0696
  23   2.0000      -6.024900      -163.9459
  24   2.0000      -1.008149       -27.4331
  25   2.0000      -0.980155       -26.6714
  26   2.0000      -0.906631       -24.6707
  27   2.0000      -0.902956       -24.5707
  28   2.0000      -0.871057       -23.7027
  29   2.0000      -0.851166       -23.1614
  30   2.0000      -0.843035       -22.9401
  31   2.0000      -0.811030       -22.0692
  32   2.0000      -0.782871       -21.3030
  33   2.0000      -0.770753       -20.9733
  34   2.0000      -0.710341       -19.3294
  35   2.0000      -0.703822       -19.1520
  36   2.0000      -0.693903       -18.8821
  37   2.0000      -0.664163       -18.0728
  38   2.0000      -0.639819       -17.4104
  39   2.0000      -0.608007       -16.5447
  40   2.0000      -0.597058       -16.2468
  41   2.0000      -0.574429       -15.6310
  42   2.0000      -0.560350       -15.2479
  43   2.0000      -0.548580       -14.9276
  44   2.0000      -0.539828       -14.6895
  45   2.0000      -0.523678       -14.2500
  46   2.0000      -0.515686       -14.0325
  47   2.0000      -0.511008       -13.9052
  48   2.0000      -0.507035       -13.7971
  49   2.0000      -0.496319       -13.5055
  50   2.0000      -0.488753       -13.2996
  51   2.0000      -0.474977       -12.9248
  52   2.0000      -0.469745       -12.7824
  53   2.0000      -0.465195       -12.6586
  54   2.0000      -0.460524       -12.5315
  55   2.0000      -0.447671       -12.1818
  56   2.0000      -0.439602       -11.9622
  57   2.0000      -0.436660       -11.8821
  58   2.0000      -0.433946       -11.8083
  59   2.0000      -0.431278       -11.7357
  60   2.0000      -0.416631       -11.3371
  61   2.0000      -0.415484       -11.3059
  62   2.0000      -0.411309       -11.1923
  63   2.0000      -0.353917        -9.6306
  64   2.0000      -0.328086        -8.9277
  65   2.0000      -0.323522        -8.8035
  66   2.0000      -0.284599        -7.7443
  67   0.0000       0.024071         0.6550
  68   0.0000       0.075743         2.0611
  69   0.0000       0.097352         2.6491
  70   0.0000       0.120045         3.2666
  71   0.0000       0.134570         3.6618

MULLIKEN ATOMIC CHARGES
-----------------------
   0 S :    0.116965
   1 C :   -0.101073
   2 C :   -0.113480
   3 C :    0.016080
   4 C :   -0.131259
   5 H :   -0.014581
   6 C :    0.073212
   7 H :    0.048636
   8 H :    0.019296
   9 C :   -0.043926
  10 H :    0.030221
  11 H :    0.038417
  12 C :   -0.079268
  13 H :    0.033852
  14 H :    0.026110
  15 H :    0.040690
  16 S :    0.071564
  17 C :   -0.071837
  18 C :   -0.017854
  19 C :   -0.040215
  20 C :   -0.152904
  21 H :    0.001560
  22 C :    0.058716
  23 H :    0.009063
  24 H :    0.043257
  25 C :   -0.060669
  26 H :    0.033332
  27 H :    0.041781
  28 C :   -0.069171
  29 H :    0.046774
  30 H :    0.033132
  31 H :    0.027647
  32 H :    0.031505
  33 H :    0.054427
Sum of atomic charges:   -0.0000000

LOEWDIN ATOMIC CHARGES
----------------------
   0 S :    0.440931
   1 C :   -0.220240
   2 C :   -0.056811
   3 C :   -0.067261
   4 C :   -0.195578
   5 H :    0.014732
   6 C :   -0.030795
   7 H :    0.041579
   8 H :    0.026825
   9 C :   -0.031281
  10 H :    0.028217
  11 H :    0.024637
  12 C :   -0.075394
  13 H :    0.029224
  14 H :    0.028746
  15 H :    0.023475
  16 S :    0.368079
  17 C :   -0.166246
  18 C :   -0.059051
  19 C :   -0.054264
  20 C :   -0.177345
  21 H :    0.019061
  22 C :   -0.038758
  23 H :    0.021070
  24 H :    0.041024
  25 C :   -0.039810
  26 H :    0.027704
  27 H :    0.028690
  28 C :   -0.074187
  29 H :    0.034703
  30 H :    0.021247
  31 H :    0.019720
  32 H :    0.021363
  33 H :    0.025995

  Mayer bond orders larger than 0.100000
B(  0-S ,  1-C ) :   1.1407 B(  0-S ,  4-C ) :   1.1458 B(  1-C ,  2-C ) :   1.6199
B(  1-C , 32-H ) :   0.9641 B(  2-C ,  3-C ) :   1.2373 B(  2-C ,  6-C ) :   1.0014
B(  3-C ,  4-C ) :   1.5864 B(  3-C ,  5-H ) :   0.9964 B(  4-C , 20-C ) :   1.0697
B(  6-C ,  7-H ) :   0.9432 B(  6-C ,  8-H ) :   0.9434 B(  6-C ,  9-C ) :   1.0482
B(  9-C , 10-H ) :   0.9607 B(  9-C , 11-H ) :   0.9584 B(  9-C , 12-C ) :   1.0771
B( 12-C , 13-H ) :   0.9763 B( 12-C , 14-H ) :   0.9725 B( 12-C , 15-H ) :   0.9781
B( 16-S , 17-C ) :   1.1178 B( 16-S , 20-C ) :   1.1229 B( 17-C , 18-C ) :   1.6430
B( 17-C , 33-H ) :   0.9772 B( 18-C , 19-C ) :   1.1794 B( 18-C , 21-H ) :   0.9951
B( 19-C , 20-C ) :   1.5866 B( 19-C , 22-C ) :   1.0510 B( 22-C , 23-H ) :   0.9320
B( 22-C , 24-H ) :   0.9267 B( 22-C , 25-C ) :   1.0570 B( 25-C , 26-H ) :   0.9510
B( 25-C , 27-H ) :   0.9564 B( 25-C , 28-C ) :   1.0783 B( 28-C , 29-H ) :   0.9736
B( 28-C , 30-H ) :   0.9718 B( 28-C , 31-H ) :   0.9725

Dispersion correction           -0.014402093
FINAL SINGLE POINT ENERGY     -1339.868973226468

DIPOLE MOMENT
-------------
                                X             Y             Z
Electronic contribution:     -2.11959     -14.58586      -7.39506
Nuclear contribution   :      2.22196      14.72233       7.72280
                        -----------------------------------------
Total Dipole Moment    :      0.10238       0.13647       0.32773
                        -----------------------------------------
Magnitude (a.u.)       :      0.36948
Magnitude (Debye)      :      0.93914

Rotational constants in cm-1:     0.024156     0.007327     0.006077
Rotational constants in MHz :   724.177475   219.667907   182.197159

                             ****ORCA TERMINATED NORMALLY****
TOTAL RUN TIME: 0 days 0 hours 0 minutes 20 seconds 80 msec
