                         Program Version 4.2.1 -  RELEASE  -
|  1> ! wB97X-D3 SP def2-SVP
|  2> %pal
|  3> nprocs 24
|  4> end
|  5>
|  6> * xyz 0 1
|  7> S 	 32.7219 	 -32.794 	 -113.659
|  8> C 	 33.0239 	 -31.138 	 -113.21
|  9> C 	 34.1198 	 -30.5911 	 -113.923
| 10> C 	 34.6773 	 -31.5574 	 -114.816
| 11> C 	 34.0945 	 -32.8012 	 -114.755
| 12> H 	 35.4872 	 -31.4041 	 -115.479
| 13> C 	 34.4791 	 -29.0607 	 -113.857
| 14> H 	 34.0111 	 -28.6089 	 -112.916
| 15> H 	 33.9454 	 -28.6617 	 -114.685
| 16> C 	 35.948 	 -28.6498 	 -113.952
| 17> H 	 36.4527 	 -29.0395 	 -114.861
| 18> H 	 36.0942 	 -27.6111 	 -114.053
| 19> C 	 36.733 	 -29.0704 	 -112.65
| 20> H 	 37.7354 	 -28.6088 	 -112.696
| 21> H 	 36.1877 	 -28.5611 	 -111.813
| 22> H 	 36.8516 	 -30.1222 	 -112.531
| 23> S 	 33.0805 	 -34.2849 	 -116.831
| 24> C 	 34.1509 	 -35.3149 	 -117.691
| 25> C 	 35.463 	 -35.3616 	 -117.207
| 26> C 	 35.6143 	 -34.5837 	 -116.011
| 27> C 	 34.385 	 -33.921 	 -115.659
| 28> H 	 36.1706 	 -36.0003 	 -117.701
| 29> C 	 36.9225 	 -34.4184 	 -115.388
| 30> H 	 37.2612 	 -33.5404 	 -115.969
| 31> H 	 37.5446 	 -35.2423 	 -115.646
| 32> C 	 37.1072 	 -34.1461 	 -113.891
| 33> H 	 36.6389 	 -34.9589 	 -113.501
| 34> H 	 36.557 	 -33.328 	 -113.565
| 35> C 	 38.5586 	 -34.0941 	 -113.336
| 36> H 	 39.1645 	 -35.0407 	 -113.374
| 37> H 	 38.5768 	 -33.9842 	 -112.281
| 38> H 	 39.152 	 -33.2267 	 -113.702
| 39> H 	 32.5947 	 -30.6293 	 -112.399
| 40> H 	 33.9459 	 -35.8579 	 -118.579
| 41> *
| 42>
| 43>                          ****END OF INPUT****

CARTESIAN COORDINATES (ANGSTROEM)
---------------------------------
  S     32.721900  -32.794000  -113.659000
  C     33.023900  -31.138000  -113.210000
  C     34.119800  -30.591100  -113.923000
  C     34.677300  -31.557400  -114.816000
  C     34.094500  -32.801200  -114.755000
  H     35.487200  -31.404100  -115.479000
  C     34.479100  -29.060700  -113.857000
  H     34.011100  -28.608900  -112.916000
  H     33.945400  -28.661700  -114.685000
  C     35.948000  -28.649800  -113.952000
  H     36.452700  -29.039500  -114.861000
  H     36.094200  -27.611100  -114.053000
  C     36.733000  -29.070400  -112.650000
  H     37.735400  -28.608800  -112.696000
  H     36.187700  -28.561100  -111.813000
  H     36.851600  -30.122200  -112.531000
  S     33.080500  -34.284900  -116.831000
  C     34.150900  -35.314900  -117.691000
  C     35.463000  -35.361600  -117.207000
  C     35.614300  -34.583700  -116.011000
  C     34.385000  -33.921000  -115.659000
  H     36.170600  -36.000300  -117.701000
  C     36.922500  -34.418400  -115.388000
  H     37.261200  -33.540400  -115.969000
  H     37.544600  -35.242300  -115.646000
  C     37.107200  -34.146100  -113.891000
  H     36.638900  -34.958900  -113.501000
  H     36.557000  -33.328000  -113.565000
  C     38.558600  -34.094100  -113.336000
  H     39.164500  -35.040700  -113.374000
  H     38.576800  -33.984200  -112.281000
  H     39.152000  -33.226700  -113.702000
  H     32.594700  -30.629300  -112.399000
  H     33.945900  -35.857900  -118.579000

 Total Charge           Charge          ....    0
 Multiplicity           Mult            ....    1
 Number of Electrons    NEL             ....  134
 Basis Dimension        Dim             ....  322

ORBITAL ENERGIES
----------------

  NO   OCC          E(Eh)            E(eV)
   0   2.0000     -88.967638     -2420.9325
   1   2.0000     -88.966662     -2420.9060
   2   2.0000     -10.328586      -281.0551
   3   2.0000     -10.328185      -281.0442
   4   2.0000     -10.313898      -280.6554
   5   2.0000     -10.311617      -280.5934
   6   2.0000     -10.310902      -280.5739
   7   2.0000     -10.308033      -280.4958
   8   2.0000     -10.301066      -280.3062
   9   2.0000     -10.293332      -280.0958
  10   2.0000     -10.291019      -280.0329
  11   2.0000     -10.289234      -279.9843
  12   2.0000     -10.286917      -279.9213
  13   2.0000     -10.281938      -279.7857
  14   2.0000     -10.280914      -279.7579
  15   2.0000     -10.273015      -279.5430
  16   2.0000      -8.082079      -219.9245
  17   2.0000      -8.081221      -219.9012
  18   2.0000      -6.040425      -164.3683
  19   2.0000      -6.039654      -164.3473
  20   2.0000      -6.036679      -164.2664
  21   2.0000      -6.035651      -164.2384
  22   2.0000      -6.032976      -164.1656
  23   2.0000      -6.032186      -164.1441
  24   2.0000      -1.001136       -27.2423
  25   2.0000      -0.978948       -26.6385
  26   2.0000      -0.913962       -24.8702
  27   2.0000      -0.904715       -24.6186
  28   2.0000      -0.864535       -23.5252
  29   2.0000      -0.854489       -23.2518
  30   2.0000      -0.843958       -22.9653
  31   2.0000      -0.811949       -22.0943
  32   2.0000      -0.784067       -21.3355
  33   2.0000      -0.769546       -20.9404
  34   2.0000      -0.720699       -19.6112
  35   2.0000      -0.701223       -19.0813
  36   2.0000      -0.687886       -18.7183
  37   2.0000      -0.658552       -17.9201
  38   2.0000      -0.641895       -17.4668
  39   2.0000      -0.619159       -16.8482
  40   2.0000      -0.591130       -16.0855
  41   2.0000      -0.574575       -15.6350
  42   2.0000      -0.562869       -15.3164
  43   2.0000      -0.553702       -15.0670
  44   2.0000      -0.544638       -14.8203
  45   2.0000      -0.518736       -14.1155
  46   2.0000      -0.516627       -14.0581
  47   2.0000      -0.509893       -13.8749
  48   2.0000      -0.496852       -13.5200
  49   2.0000      -0.496395       -13.5076
  50   2.0000      -0.488994       -13.3062
  51   2.0000      -0.481341       -13.0980
  52   2.0000      -0.469258       -12.7692
  53   2.0000      -0.461448       -12.5566
  54   2.0000      -0.459045       -12.4913
  55   2.0000      -0.452169       -12.3042
  56   2.0000      -0.449089       -12.2203
  57   2.0000      -0.437145       -11.8953
  58   2.0000      -0.431900       -11.7526
  59   2.0000      -0.426851       -11.6152
  60   2.0000      -0.425706       -11.5840
  61   2.0000      -0.420032       -11.4296
  62   2.0000      -0.415768       -11.3136
  63   2.0000      -0.342518        -9.3204
  64   2.0000      -0.328124        -8.9287
  65   2.0000      -0.325281        -8.8513
  66   2.0000      -0.288231        -7.8432
  67   0.0000       0.033037         0.8990
  68   0.0000       0.061145         1.6638
  69   0.0000       0.115064         3.1311
  70   0.0000       0.123441         3.3590
  71   0.0000       0.127837         3.4786

MULLIKEN ATOMIC CHARGES
-----------------------
   0 S :    0.115360
   1 C :   -0.102759
   2 C :   -0.097020
   3 C :    0.055423
   4 C :   -0.178211
   5 H :   -0.005027
   6 C :    0.050846
   7 H :    0.030944
   8 H :    0.043122
   9 C :   -0.069144
  10 H :    0.028477
  11 H :    0.020974
  12 C :   -0.070152
  13 H :    0.033500
  14 H :    0.033661
  15 H :    0.046904
  16 S :    0.120204
  17 C :   -0.064629
  18 C :   -0.058137
  19 C :   -0.021876
  20 C :   -0.162342
  21 H :    0.016072
  22 C :    0.043384
  23 H :    0.040927
  24 H :    0.013822
  25 C :    0.006107
  26 H :    0.002894
  27 H :    0.026030
  28 C :   -0.063179
  29 H :    0.032449
  30 H :    0.019571
  31 H :    0.037380
  32 H :    0.034082
  33 H :    0.040339
Sum of atomic charges:    0.0000000

LOEWDIN ATOMIC CHARGES
----------------------
   0 S :    0.409323
   1 C :   -0.199124
   2 C :   -0.056343
   3 C :   -0.060908
   4 C :   -0.200607
   5 H :    0.024270
   6 C :   -0.029637
   7 H :    0.035991
   8 H :    0.031180
   9 C :   -0.044821
  10 H :    0.024259
  11 H :    0.020435
  12 C :   -0.063221
  13 H :    0.026791
  14 H :    0.029338
  15 H :    0.020324
  16 S :    0.412879
  17 C :   -0.186575
  18 C :   -0.073756
  19 C :   -0.040845
  20 C :   -0.206090
  21 H :    0.030629
  22 C :   -0.035280
  23 H :    0.042410
  24 H :    0.028489
  25 C :   -0.027332
  26 H :    0.017122
  27 H :    0.019018
  28 C :   -0.070997
  29 H :    0.031188
  30 H :    0.023717
  31 H :    0.028015
  32 H :    0.017652
  33 H :    0.022507

  Mayer bond orders larger than 0.100000
B(  0-S ,  1-C ) :   1.1485 B(  0-S ,  4-C ) :   1.1567 B(  1-C ,  2-C ) :   1.5950
B(  1-C ,  4-C ) :   0.1016 B(  1-C , 32-H ) :   0.9715 B(  2-C ,  3-C ) :   1.2505
B(  2-C ,  6-C ) :   1.0012 B(  3-C ,  4-C ) :   1.5634 B(  3-C ,  5-H ) :   0.9994
B(  4-C , 20-C ) :   1.0283 B(  6-C ,  7-H ) :   0.9471 B(  6-C ,  8-H ) :   0.9406
B(  6-C ,  9-C ) :   1.0788 B(  9-C , 10-H ) :   0.9510 B(  9-C , 11-H ) :   0.9546
B(  9-C , 12-C ) :   1.0688 B( 12-C , 13-H ) :   0.9761 B( 12-C , 14-H ) :   0.9757
B( 12-C , 15-H ) :   0.9807 B( 16-S , 17-C ) :   1.1748 B( 16-S , 20-C ) :   1.1349
B( 17-C , 18-C ) :   1.6082 B( 17-C , 33-H ) :   0.9642 B( 18-C , 19-C ) :   1.2458
B( 18-C , 21-H ) :   0.9921 B( 19-C , 20-C ) :   1.5558 B( 19-C , 22-C ) :   1.0540
B( 22-C , 23-H ) :   0.9142 B( 22-C , 24-H ) :   0.9343 B( 22-C , 25-C ) :   1.0603
B( 25-C , 26-H ) :   0.9501 B( 25-C , 27-H ) :   0.9469 B( 25-C , 28-C ) :   1.0931
B( 28-C , 29-H ) :   0.9722 B( 28-C , 30-H ) :   0.9709 B( 28-C , 31-H ) :   0.9755

Dispersion correction           -0.014793431
FINAL SINGLE POINT ENERGY     -1339.862443123877

DIPOLE MOMENT
-------------
                                X             Y             Z
Electronic contribution:    -25.48735     -13.15910     -10.60363
Nuclear contribution   :     26.11973      13.50785      10.52325
                        -----------------------------------------
Total Dipole Moment    :      0.63238       0.34875      -0.08038
                        -----------------------------------------
Magnitude (a.u.)       :      0.72663
Magnitude (Debye)      :      1.84695

Rotational constants in cm-1:     0.016999     0.009718     0.007336
Rotational constants in MHz :   509.604308   291.328914   219.919112

                             ****ORCA TERMINATED NORMALLY****
TOTAL RUN TIME: 0 days 0 hours 0 minutes 21 seconds 979 msec
