                         Program Version 4.2.1 -  RELEASE  -
|  1> ! wB97X-D3 SP def2-SVP
|  2> %pal
|  3> nprocs 24
|  4> end
|  5>
|  6> * xyz 0 1
|  7> S 	 18.1595 	 -7.03995 	 -117.007
|  8> C 	 18.5046 	 -7.32601 	 -115.322
|  9> C 	 17.4135 	 -7.25283 	 -114.532
| 10> C 	 16.2432 	 -6.84125 	 -115.286
| 11> C 	 16.4506 	 -6.68603 	 -116.613
| 12> H 	 15.2777 	 -6.79769 	 -114.854
| 13> C 	 17.3917 	 -7.37637 	 -113.027
| 14> H 	 18.3111 	 -7.89389 	 -112.732
| 15> H 	 16.5873 	 -8.07372 	 -112.747
| 16> C 	 17.3303 	 -6.00715 	 -112.288
| 17> H 	 16.5403 	 -5.37229 	 -112.772
| 18> H 	 17.0576 	 -6.16249 	 -111.224
| 19> C 	 18.775 	 -5.26188 	 -112.243
| 20> H 	 19.4842 	 -5.81607 	 -111.695
| 21> H 	 19.1811 	 -5.0979 	 -113.273
| 22> H 	 18.9216 	 -4.33797 	 -111.608
| 23> S 	 15.853 	 -5.04668 	 -118.683
| 24> C 	 14.3068 	 -5.17308 	 -119.527
| 25> C 	 13.5534 	 -6.15113 	 -118.988
| 26> C 	 14.1888 	 -6.86029 	 -117.913
| 27> C 	 15.4795 	 -6.40442 	 -117.619
| 28> H 	 12.5936 	 -6.28528 	 -119.351
| 29> C 	 13.5755 	 -8.13081 	 -117.429
| 30> H 	 14.3278 	 -8.87436 	 -117.129
| 31> H 	 12.8963 	 -8.46764 	 -118.222
| 32> C 	 12.6425 	 -7.93834 	 -116.204
| 33> H 	 11.7651 	 -7.34744 	 -116.356
| 34> H 	 13.0984 	 -7.52056 	 -115.291
| 35> C 	 11.9341 	 -9.25269 	 -115.817
| 36> H 	 12.7355 	 -9.84841 	 -115.495
| 37> H 	 11.3756 	 -9.65034 	 -116.588
| 38> H 	 11.1677 	 -8.88935 	 -115.077
| 39> H 	 19.4556 	 -7.50705 	 -114.872
| 40> H 	 13.8689 	 -4.44726 	 -120.155
| 41> *
| 42>
| 43>                          ****END OF INPUT****

CARTESIAN COORDINATES (ANGSTROEM)
---------------------------------
  S     18.159500   -7.039950  -117.007000
  C     18.504600   -7.326010  -115.322000
  C     17.413500   -7.252830  -114.532000
  C     16.243200   -6.841250  -115.286000
  C     16.450600   -6.686030  -116.613000
  H     15.277700   -6.797690  -114.854000
  C     17.391700   -7.376370  -113.027000
  H     18.311100   -7.893890  -112.732000
  H     16.587300   -8.073720  -112.747000
  C     17.330300   -6.007150  -112.288000
  H     16.540300   -5.372290  -112.772000
  H     17.057600   -6.162490  -111.224000
  C     18.775000   -5.261880  -112.243000
  H     19.484200   -5.816070  -111.695000
  H     19.181100   -5.097900  -113.273000
  H     18.921600   -4.337970  -111.608000
  S     15.853000   -5.046680  -118.683000
  C     14.306800   -5.173080  -119.527000
  C     13.553400   -6.151130  -118.988000
  C     14.188800   -6.860290  -117.913000
  C     15.479500   -6.404420  -117.619000
  H     12.593600   -6.285280  -119.351000
  C     13.575500   -8.130810  -117.429000
  H     14.327800   -8.874360  -117.129000
  H     12.896300   -8.467640  -118.222000
  C     12.642500   -7.938340  -116.204000
  H     11.765100   -7.347440  -116.356000
  H     13.098400   -7.520560  -115.291000
  C     11.934100   -9.252690  -115.817000
  H     12.735500   -9.848410  -115.495000
  H     11.375600   -9.650340  -116.588000
  H     11.167700   -8.889350  -115.077000
  H     19.455600   -7.507050  -114.872000
  H     13.868900   -4.447260  -120.155000

 Total Charge           Charge          ....    0
 Multiplicity           Mult            ....    1
 Number of Electrons    NEL             ....  134
 Basis Dimension        Dim             ....  322

ORBITAL ENERGIES
----------------

  NO   OCC          E(Eh)            E(eV)
   0   2.0000     -88.964987     -2420.8604
   1   2.0000     -88.961067     -2420.7537
   2   2.0000     -10.329399      -281.0772
   3   2.0000     -10.327515      -281.0260
   4   2.0000     -10.312364      -280.6137
   5   2.0000     -10.309994      -280.5492
   6   2.0000     -10.304625      -280.4031
   7   2.0000     -10.303944      -280.3846
   8   2.0000     -10.298071      -280.2248
   9   2.0000     -10.296981      -280.1951
  10   2.0000     -10.293925      -280.1119
  11   2.0000     -10.291119      -280.0356
  12   2.0000     -10.286532      -279.9108
  13   2.0000     -10.285751      -279.8895
  14   2.0000     -10.282838      -279.8102
  15   2.0000     -10.270489      -279.4742
  16   2.0000      -8.079485      -219.8540
  17   2.0000      -8.075707      -219.7512
  18   2.0000      -6.038196      -164.3077
  19   2.0000      -6.034263      -164.2007
  20   2.0000      -6.034178      -164.1983
  21   2.0000      -6.030194      -164.0899
  22   2.0000      -6.029871      -164.0811
  23   2.0000      -6.026431      -163.9875
  24   2.0000      -1.007779       -27.4231
  25   2.0000      -0.985038       -26.8043
  26   2.0000      -0.912001       -24.8168
  27   2.0000      -0.906481       -24.6666
  28   2.0000      -0.874559       -23.7979
  29   2.0000      -0.854199       -23.2439
  30   2.0000      -0.839985       -22.8571
  31   2.0000      -0.821281       -22.3482
  32   2.0000      -0.781304       -21.2604
  33   2.0000      -0.771004       -20.9801
  34   2.0000      -0.715610       -19.4727
  35   2.0000      -0.699801       -19.0425
  36   2.0000      -0.692663       -18.8483
  37   2.0000      -0.668130       -18.1807
  38   2.0000      -0.642493       -17.4831
  39   2.0000      -0.625802       -17.0289
  40   2.0000      -0.599206       -16.3052
  41   2.0000      -0.576699       -15.6928
  42   2.0000      -0.570406       -15.5215
  43   2.0000      -0.547583       -14.9005
  44   2.0000      -0.535783       -14.5794
  45   2.0000      -0.532989       -14.5034
  46   2.0000      -0.518437       -14.1074
  47   2.0000      -0.510330       -13.8868
  48   2.0000      -0.506943       -13.7946
  49   2.0000      -0.498148       -13.5553
  50   2.0000      -0.492956       -13.4140
  51   2.0000      -0.476961       -12.9788
  52   2.0000      -0.473850       -12.8941
  53   2.0000      -0.463963       -12.6251
  54   2.0000      -0.459462       -12.5026
  55   2.0000      -0.447840       -12.1863
  56   2.0000      -0.444716       -12.1013
  57   2.0000      -0.435150       -11.8410
  58   2.0000      -0.433784       -11.8039
  59   2.0000      -0.425993       -11.5919
  60   2.0000      -0.421499       -11.4696
  61   2.0000      -0.416271       -11.3273
  62   2.0000      -0.405232       -11.0269
  63   2.0000      -0.353706        -9.6248
  64   2.0000      -0.330894        -9.0041
  65   2.0000      -0.326580        -8.8867
  66   2.0000      -0.296102        -8.0574
  67   0.0000       0.029748         0.8095
  68   0.0000       0.071078         1.9341
  69   0.0000       0.112857         3.0710
  70   0.0000       0.118824         3.2334
  71   0.0000       0.125476         3.4144

MULLIKEN ATOMIC CHARGES
-----------------------
   0 S :    0.106403
   1 C :   -0.089690
   2 C :   -0.113861
   3 C :    0.042215
   4 C :   -0.121001
   5 H :   -0.015637
   6 C :    0.062355
   7 H :    0.015776
   8 H :    0.038561
   9 C :   -0.070620
  10 H :    0.050486
  11 H :    0.040078
  12 C :   -0.089198
  13 H :    0.012431
  14 H :    0.052398
  15 H :    0.040396
  16 S :    0.085329
  17 C :   -0.055813
  18 C :   -0.023950
  19 C :    0.002610
  20 C :   -0.154342
  21 H :   -0.008119
  22 C :    0.069901
  23 H :    0.040772
  24 H :    0.022749
  25 C :   -0.128330
  26 H :    0.011941
  27 H :    0.031434
  28 C :   -0.011153
  29 H :    0.027838
  30 H :    0.015056
  31 H :    0.036959
  32 H :    0.030868
  33 H :    0.045159
Sum of atomic charges:    0.0000000

LOEWDIN ATOMIC CHARGES
----------------------
   0 S :    0.383838
   1 C :   -0.188051
   2 C :   -0.067665
   3 C :   -0.051913
   4 C :   -0.182531
   5 H :    0.022860
   6 C :   -0.034824
   7 H :    0.029076
   8 H :    0.035028
   9 C :   -0.035341
  10 H :    0.029531
  11 H :    0.027154
  12 C :   -0.082862
  13 H :    0.015363
  14 H :    0.030473
  15 H :    0.036129
  16 S :    0.389815
  17 C :   -0.168923
  18 C :   -0.062656
  19 C :   -0.052197
  20 C :   -0.191744
  21 H :    0.020961
  22 C :   -0.029212
  23 H :    0.036246
  24 H :    0.036100
  25 C :   -0.042555
  26 H :    0.016130
  27 H :    0.019616
  28 C :   -0.052835
  29 H :    0.017108
  30 H :    0.010827
  31 H :    0.035929
  32 H :    0.025281
  33 H :    0.025845

  Mayer bond orders larger than 0.100000
B(  0-S ,  1-C ) :   1.1158 B(  0-S ,  4-C ) :   1.1154 B(  1-C ,  2-C ) :   1.6717
B(  1-C , 32-H ) :   0.9597 B(  2-C ,  3-C ) :   1.1958 B(  2-C ,  6-C ) :   1.0343
B(  3-C ,  4-C ) :   1.6193 B(  3-C ,  5-H ) :   1.0038 B(  4-C , 20-C ) :   1.0492
B(  6-C ,  7-H ) :   0.9412 B(  6-C ,  8-H ) :   0.9370 B(  6-C ,  9-C ) :   1.0515
B(  9-C , 10-H ) :   0.9630 B(  9-C , 11-H ) :   0.9584 B(  9-C , 12-C ) :   1.0523
B( 12-C , 13-H ) :   0.9737 B( 12-C , 14-H ) :   0.9801 B( 12-C , 15-H ) :   0.9762
B( 16-S , 17-C ) :   1.1388 B( 16-S , 20-C ) :   1.1311 B( 17-C , 18-C ) :   1.6429
B( 17-C , 33-H ) :   0.9661 B( 18-C , 19-C ) :   1.2246 B( 18-C , 21-H ) :   0.9971
B( 19-C , 20-C ) :   1.5868 B( 19-C , 22-C ) :   1.0528 B( 22-C , 23-H ) :   0.9400
B( 22-C , 24-H ) :   0.9349 B( 22-C , 25-C ) :   1.0577 B( 25-C , 26-H ) :   0.9602
B( 25-C , 27-H ) :   0.9566 B( 25-C , 28-C ) :   1.0734 B( 28-C , 29-H ) :   0.9776
B( 28-C , 30-H ) :   0.9759 B( 28-C , 31-H ) :   0.9775

Dispersion correction           -0.014264461
FINAL SINGLE POINT ENERGY     -1339.861131311692

DIPOLE MOMENT
-------------
                                X             Y             Z
Electronic contribution:     10.47348       7.12935     -22.74046
Nuclear contribution   :    -11.00557      -7.33779      23.24945
                        -----------------------------------------
Total Dipole Moment    :     -0.53209      -0.20844       0.50898
                        -----------------------------------------
Magnitude (a.u.)       :      0.76526
Magnitude (Debye)      :      1.94515

Rotational constants in cm-1:     0.017726     0.008838     0.006840
Rotational constants in MHz :   531.406700   264.966425   205.045328

                             ****ORCA TERMINATED NORMALLY****
TOTAL RUN TIME: 0 days 0 hours 0 minutes 21 seconds 674 msec
