                         Program Version 4.2.1 -  RELEASE  -
|  1> ! wB97X-D3 SP def2-SVP
|  2> %pal
|  3> nprocs 24
|  4> end
|  5>
|  6> * xyz 0 1
|  7> S 	 39.0631 	 -17.6155 	 -112.644
|  8> C 	 37.7889 	 -18.7507 	 -113.029
|  9> C 	 37.8872 	 -19.9748 	 -112.348
| 10> C 	 38.8883 	 -19.8816 	 -111.362
| 11> C 	 39.7545 	 -18.7821 	 -111.465
| 12> H 	 39.0362 	 -20.5163 	 -110.586
| 13> C 	 36.8341 	 -21.0672 	 -112.46
| 14> H 	 36.1929 	 -20.9553 	 -113.399
| 15> H 	 36.0832 	 -20.7837 	 -111.758
| 16> C 	 37.3914 	 -22.5375 	 -112.499
| 17> H 	 37.8933 	 -22.699 	 -113.452
| 18> H 	 38.1257 	 -22.5277 	 -111.737
| 19> C 	 36.3042 	 -23.6182 	 -112.274
| 20> H 	 35.8468 	 -23.7043 	 -113.352
| 21> H 	 36.7842 	 -24.6306 	 -112.2
| 22> H 	 35.5908 	 -23.487 	 -111.553
| 23> S 	 41.1619 	 -16.6466 	 -110.348
| 24> C 	 42.4348 	 -17.0164 	 -109.123
| 25> C 	 42.682 	 -18.3778 	 -109.091
| 26> C 	 41.6713 	 -19.1567 	 -109.733
| 27> C 	 40.848 	 -18.402 	 -110.573
| 28> H 	 43.5266 	 -18.7431 	 -108.478
| 29> C 	 41.7437 	 -20.6045 	 -109.468
| 30> H 	 42.7561 	 -20.8013 	 -109.384
| 31> H 	 41.3947 	 -21.0502 	 -110.463
| 32> C 	 41.0514 	 -21.1978 	 -108.261
| 33> H 	 41.0408 	 -22.296 	 -108.248
| 34> H 	 40.0429 	 -20.9017 	 -108.42
| 35> C 	 41.425 	 -20.5847 	 -106.946
| 36> H 	 41.4656 	 -19.4848 	 -107.077
| 37> H 	 42.4347 	 -20.9008 	 -106.649
| 38> H 	 40.6292 	 -20.7452 	 -106.208
| 39> H 	 37.0289 	 -18.5174 	 -113.765
| 40> H 	 42.949 	 -16.298 	 -108.524
| 41> *
| 42>
| 43>                          ****END OF INPUT****

CARTESIAN COORDINATES (ANGSTROEM)
---------------------------------
  S     39.063100  -17.615500  -112.644000
  C     37.788900  -18.750700  -113.029000
  C     37.887200  -19.974800  -112.348000
  C     38.888300  -19.881600  -111.362000
  C     39.754500  -18.782100  -111.465000
  H     39.036200  -20.516300  -110.586000
  C     36.834100  -21.067200  -112.460000
  H     36.192900  -20.955300  -113.399000
  H     36.083200  -20.783700  -111.758000
  C     37.391400  -22.537500  -112.499000
  H     37.893300  -22.699000  -113.452000
  H     38.125700  -22.527700  -111.737000
  C     36.304200  -23.618200  -112.274000
  H     35.846800  -23.704300  -113.352000
  H     36.784200  -24.630600  -112.200000
  H     35.590800  -23.487000  -111.553000
  S     41.161900  -16.646600  -110.348000
  C     42.434800  -17.016400  -109.123000
  C     42.682000  -18.377800  -109.091000
  C     41.671300  -19.156700  -109.733000
  C     40.848000  -18.402000  -110.573000
  H     43.526600  -18.743100  -108.478000
  C     41.743700  -20.604500  -109.468000
  H     42.756100  -20.801300  -109.384000
  H     41.394700  -21.050200  -110.463000
  C     41.051400  -21.197800  -108.261000
  H     41.040800  -22.296000  -108.248000
  H     40.042900  -20.901700  -108.420000
  C     41.425000  -20.584700  -106.946000
  H     41.465600  -19.484800  -107.077000
  H     42.434700  -20.900800  -106.649000
  H     40.629200  -20.745200  -106.208000
  H     37.028900  -18.517400  -113.765000
  H     42.949000  -16.298000  -108.524000

 Total Charge           Charge          ....    0
 Multiplicity           Mult            ....    1
 Number of Electrons    NEL             ....  134
 Basis Dimension        Dim             ....  322

ORBITAL ENERGIES
----------------

  NO   OCC          E(Eh)            E(eV)
   0   2.0000     -88.968335     -2420.9515
   1   2.0000     -88.966182     -2420.8929
   2   2.0000     -10.335868      -281.2533
   3   2.0000     -10.335614      -281.2464
   4   2.0000     -10.321970      -280.8751
   5   2.0000     -10.316410      -280.7238
   6   2.0000     -10.304729      -280.4059
   7   2.0000     -10.303630      -280.3760
   8   2.0000     -10.298370      -280.2329
   9   2.0000     -10.297780      -280.2168
  10   2.0000     -10.291594      -280.0485
  11   2.0000     -10.290999      -280.0323
  12   2.0000     -10.287780      -279.9447
  13   2.0000     -10.286541      -279.9110
  14   2.0000     -10.282802      -279.8093
  15   2.0000     -10.278369      -279.6886
  16   2.0000      -8.082280      -219.9300
  17   2.0000      -8.079469      -219.8535
  18   2.0000      -6.040813      -164.3789
  19   2.0000      -6.038210      -164.3080
  20   2.0000      -6.036967      -164.2742
  21   2.0000      -6.034357      -164.2032
  22   2.0000      -6.033009      -164.1665
  23   2.0000      -6.029872      -164.0812
  24   2.0000      -1.000550       -27.2264
  25   2.0000      -0.979214       -26.6458
  26   2.0000      -0.919739       -25.0274
  27   2.0000      -0.906180       -24.6584
  28   2.0000      -0.867808       -23.6142
  29   2.0000      -0.855148       -23.2698
  30   2.0000      -0.847006       -23.0482
  31   2.0000      -0.816087       -22.2069
  32   2.0000      -0.783624       -21.3235
  33   2.0000      -0.770370       -20.9628
  34   2.0000      -0.715890       -19.4804
  35   2.0000      -0.704378       -19.1671
  36   2.0000      -0.689131       -18.7522
  37   2.0000      -0.666755       -18.1433
  38   2.0000      -0.644989       -17.5510
  39   2.0000      -0.623708       -16.9720
  40   2.0000      -0.591350       -16.0915
  41   2.0000      -0.564336       -15.3564
  42   2.0000      -0.562024       -15.2935
  43   2.0000      -0.557932       -15.1821
  44   2.0000      -0.554560       -15.0904
  45   2.0000      -0.531053       -14.4507
  46   2.0000      -0.524720       -14.2784
  47   2.0000      -0.507055       -13.7977
  48   2.0000      -0.502604       -13.6765
  49   2.0000      -0.498239       -13.5578
  50   2.0000      -0.493133       -13.4188
  51   2.0000      -0.481283       -13.0964
  52   2.0000      -0.477198       -12.9852
  53   2.0000      -0.466417       -12.6919
  54   2.0000      -0.458045       -12.4640
  55   2.0000      -0.447612       -12.1801
  56   2.0000      -0.444539       -12.0965
  57   2.0000      -0.440306       -11.9813
  58   2.0000      -0.434911       -11.8345
  59   2.0000      -0.422921       -11.5083
  60   2.0000      -0.419837       -11.4244
  61   2.0000      -0.412756       -11.2317
  62   2.0000      -0.404444       -11.0055
  63   2.0000      -0.357626        -9.7315
  64   2.0000      -0.334910        -9.1134
  65   2.0000      -0.327015        -8.8985
  66   2.0000      -0.277082        -7.5398
  67   0.0000       0.014834         0.4037
  68   0.0000       0.071658         1.9499
  69   0.0000       0.095657         2.6030
  70   0.0000       0.112925         3.0728
  71   0.0000       0.133631         3.6363

MULLIKEN ATOMIC CHARGES
-----------------------
   0 S :    0.097864
   1 C :   -0.127058
   2 C :   -0.050494
   3 C :    0.030652
   4 C :   -0.120552
   5 H :   -0.039543
   6 C :    0.023694
   7 H :    0.020191
   8 H :    0.039572
   9 C :   -0.058108
  10 H :    0.041095
  11 H :    0.018664
  12 C :   -0.053076
  13 H :    0.036494
  14 H :    0.040879
  15 H :    0.032005
  16 S :    0.080353
  17 C :   -0.088858
  18 C :   -0.038122
  19 C :   -0.101482
  20 C :   -0.097130
  21 H :    0.037514
  22 C :    0.059409
  23 H :    0.001561
  24 H :    0.036916
  25 C :   -0.017173
  26 H :    0.037893
  27 H :    0.007223
  28 C :   -0.065933
  29 H :    0.040273
  30 H :    0.029311
  31 H :    0.041876
  32 H :    0.051438
  33 H :    0.052651
Sum of atomic charges:    0.0000000

LOEWDIN ATOMIC CHARGES
----------------------
   0 S :    0.386192
   1 C :   -0.190528
   2 C :   -0.061708
   3 C :   -0.052376
   4 C :   -0.172048
   5 H :    0.009078
   6 C :   -0.038115
   7 H :    0.034571
   8 H :    0.031377
   9 C :   -0.033714
  10 H :    0.031717
  11 H :    0.011358
  12 C :   -0.064159
  13 H :    0.039109
  14 H :    0.033652
  15 H :    0.010260
  16 S :    0.357118
  17 C :   -0.161826
  18 C :   -0.068621
  19 C :   -0.061562
  20 C :   -0.177315
  21 H :    0.038122
  22 C :   -0.035409
  23 H :    0.019062
  24 H :    0.040408
  25 C :   -0.041148
  26 H :    0.028445
  27 H :    0.018221
  28 C :   -0.067093
  29 H :    0.031713
  30 H :    0.022373
  31 H :    0.031388
  32 H :    0.025704
  33 H :    0.025754

  Mayer bond orders larger than 0.100000
B(  0-S ,  1-C ) :   1.1528 B(  0-S ,  4-C ) :   1.1326 B(  1-C ,  2-C ) :   1.5845
B(  1-C ,  4-C ) :   0.1033 B(  1-C , 32-H ) :   0.9667 B(  2-C ,  3-C ) :   1.2485
B(  2-C ,  6-C ) :   1.0235 B(  3-C ,  4-C ) :   1.5559 B(  3-C ,  5-H ) :   0.9985
B(  4-C , 20-C ) :   1.0932 B(  6-C ,  7-H ) :   0.9422 B(  6-C ,  8-H ) :   0.9472
B(  6-C ,  9-C ) :   1.0309 B(  9-C , 10-H ) :   0.9584 B(  9-C , 11-H ) :   0.9673
B(  9-C , 12-C ) :   1.0748 B( 12-C , 13-H ) :   0.9760 B( 12-C , 14-H ) :   0.9735
B( 12-C , 15-H ) :   0.9827 B( 16-S , 17-C ) :   1.1303 B( 16-S , 20-C ) :   1.1076
B( 17-C , 18-C ) :   1.6325 B( 17-C , 33-H ) :   0.9699 B( 18-C , 19-C ) :   1.2203
B( 18-C , 21-H ) :   0.9775 B( 19-C , 20-C ) :   1.6015 B( 19-C , 22-C ) :   1.0414
B( 22-C , 23-H ) :   0.9277 B( 22-C , 24-H ) :   0.9270 B( 22-C , 25-C ) :   1.0684
B( 25-C , 26-H ) :   0.9531 B( 25-C , 27-H ) :   0.9441 B( 25-C , 28-C ) :   1.0898
B( 28-C , 29-H ) :   0.9650 B( 28-C , 30-H ) :   0.9745 B( 28-C , 31-H ) :   0.9711

Dispersion correction           -0.014181124
FINAL SINGLE POINT ENERGY     -1339.846051531267

DIPOLE MOMENT
-------------
                                X             Y             Z
Electronic contribution:      7.39129      28.49821      -8.56158
Nuclear contribution   :     -7.56148     -29.14279       8.92846
                        -----------------------------------------
Total Dipole Moment    :     -0.17020      -0.64459       0.36688
                        -----------------------------------------
Magnitude (a.u.)       :      0.76096
Magnitude (Debye)      :      1.93420

Rotational constants in cm-1:     0.018193     0.008931     0.006235
Rotational constants in MHz :   545.401330   267.740000   186.925505

                             ****ORCA TERMINATED NORMALLY****
TOTAL RUN TIME: 0 days 0 hours 0 minutes 21 seconds 822 msec
