                         Program Version 4.2.1 -  RELEASE  -
|  1> ! wB97X-D3 SP def2-SVP
|  2> %pal
|  3> nprocs 24
|  4> end
|  5>
|  6> * xyz 0 1
|  7> S 	 -149.301 	 12.7014 	 -6.67295
|  8> C 	 -148.628 	 11.3235 	 -7.44714
|  9> C 	 -148.077 	 11.5797 	 -8.74914
| 10> C 	 -148.341 	 12.9679 	 -9.03347
| 11> C 	 -148.984 	 13.6845 	 -8.05638
| 12> H 	 -147.852 	 13.4833 	 -9.89381
| 13> C 	 -147.343 	 10.6335 	 -9.6352
| 14> H 	 -147.788 	 10.3127 	 -10.5915
| 15> H 	 -147.206 	 9.71746 	 -8.98755
| 16> C 	 -146.014 	 11.2107 	 -10.1586
| 17> H 	 -145.483 	 10.4945 	 -10.7719
| 18> H 	 -146.244 	 12.0658 	 -10.8391
| 19> C 	 -145.121 	 11.6728 	 -8.9669
| 20> H 	 -144.719 	 10.7747 	 -8.5089
| 21> H 	 -144.366 	 12.3325 	 -9.25762
| 22> H 	 -145.584 	 12.2429 	 -8.17238
| 23> S 	 -147.951 	 16.1947 	 -7.38325
| 24> C 	 -149.081 	 17.4745 	 -7.53409
| 25> C 	 -150.228 	 17.1537 	 -8.18216
| 26> C 	 -150.223 	 15.7988 	 -8.59879
| 27> C 	 -149.197 	 15.1071 	 -8.03086
| 28> H 	 -151.012 	 17.852 	 -8.23013
| 29> C 	 -151.421 	 15.2796 	 -9.40461
| 30> H 	 -151.01 	 14.9668 	 -10.4119
| 31> H 	 -152.017 	 16.0887 	 -9.54331
| 32> C 	 -152.393 	 14.2902 	 -8.71087
| 33> H 	 -151.809 	 13.4683 	 -8.36994
| 34> H 	 -153.147 	 13.9111 	 -9.42041
| 35> C 	 -153.123 	 15.0353 	 -7.57918
| 36> H 	 -153.766 	 15.8575 	 -7.76783
| 37> H 	 -152.361 	 15.3302 	 -6.77477
| 38> H 	 -153.829 	 14.3793 	 -7.1612
| 39> H 	 -148.614 	 10.3969 	 -6.89904
| 40> H 	 -148.919 	 18.499 	 -7.31886
| 41> *
| 42>
| 43>                          ****END OF INPUT****

CARTESIAN COORDINATES (ANGSTROEM)
---------------------------------
  S    -149.301000   12.701400   -6.672950
  C    -148.628000   11.323500   -7.447140
  C    -148.077000   11.579700   -8.749140
  C    -148.341000   12.967900   -9.033470
  C    -148.984000   13.684500   -8.056380
  H    -147.852000   13.483300   -9.893810
  C    -147.343000   10.633500   -9.635200
  H    -147.788000   10.312700  -10.591500
  H    -147.206000    9.717460   -8.987550
  C    -146.014000   11.210700  -10.158600
  H    -145.483000   10.494500  -10.771900
  H    -146.244000   12.065800  -10.839100
  C    -145.121000   11.672800   -8.966900
  H    -144.719000   10.774700   -8.508900
  H    -144.366000   12.332500   -9.257620
  H    -145.584000   12.242900   -8.172380
  S    -147.951000   16.194700   -7.383250
  C    -149.081000   17.474500   -7.534090
  C    -150.228000   17.153700   -8.182160
  C    -150.223000   15.798800   -8.598790
  C    -149.197000   15.107100   -8.030860
  H    -151.012000   17.852000   -8.230130
  C    -151.421000   15.279600   -9.404610
  H    -151.010000   14.966800  -10.411900
  H    -152.017000   16.088700   -9.543310
  C    -152.393000   14.290200   -8.710870
  H    -151.809000   13.468300   -8.369940
  H    -153.147000   13.911100   -9.420410
  C    -153.123000   15.035300   -7.579180
  H    -153.766000   15.857500   -7.767830
  H    -152.361000   15.330200   -6.774770
  H    -153.829000   14.379300   -7.161200
  H    -148.614000   10.396900   -6.899040
  H    -148.919000   18.499000   -7.318860

 Total Charge           Charge          ....    0
 Multiplicity           Mult            ....    1
 Number of Electrons    NEL             ....  134
 Basis Dimension        Dim             ....  322

ORBITAL ENERGIES
----------------

  NO   OCC          E(Eh)            E(eV)
   0   2.0000     -88.968081     -2420.9446
   1   2.0000     -88.964241     -2420.8401
   2   2.0000     -10.319893      -280.8186
   3   2.0000     -10.317098      -280.7425
   4   2.0000     -10.317065      -280.7416
   5   2.0000     -10.307554      -280.4828
   6   2.0000     -10.305026      -280.4140
   7   2.0000     -10.298144      -280.2267
   8   2.0000     -10.296675      -280.1868
   9   2.0000     -10.294212      -280.1198
  10   2.0000     -10.292047      -280.0608
  11   2.0000     -10.283079      -279.8168
  12   2.0000     -10.282610      -279.8040
  13   2.0000     -10.280989      -279.7599
  14   2.0000     -10.270685      -279.4796
  15   2.0000     -10.266413      -279.3633
  16   2.0000      -8.083463      -219.9622
  17   2.0000      -8.079366      -219.8507
  18   2.0000      -6.041677      -164.4024
  19   2.0000      -6.037855      -164.2984
  20   2.0000      -6.037807      -164.2971
  21   2.0000      -6.034520      -164.2076
  22   2.0000      -6.034040      -164.1946
  23   2.0000      -6.029976      -164.0840
  24   2.0000      -1.010062       -27.4852
  25   2.0000      -0.987460       -26.8701
  26   2.0000      -0.913913       -24.8688
  27   2.0000      -0.906273       -24.6609
  28   2.0000      -0.868156       -23.6237
  29   2.0000      -0.848182       -23.0802
  30   2.0000      -0.843989       -22.9661
  31   2.0000      -0.811102       -22.0712
  32   2.0000      -0.785832       -21.3836
  33   2.0000      -0.773165       -21.0389
  34   2.0000      -0.713840       -19.4246
  35   2.0000      -0.700642       -19.0654
  36   2.0000      -0.686501       -18.6806
  37   2.0000      -0.658852       -17.9283
  38   2.0000      -0.640201       -17.4207
  39   2.0000      -0.621795       -16.9199
  40   2.0000      -0.591726       -16.1017
  41   2.0000      -0.566919       -15.4267
  42   2.0000      -0.554477       -15.0881
  43   2.0000      -0.551063       -14.9952
  44   2.0000      -0.542726       -14.7683
  45   2.0000      -0.536793       -14.6069
  46   2.0000      -0.517984       -14.0951
  47   2.0000      -0.515296       -14.0219
  48   2.0000      -0.495469       -13.4824
  49   2.0000      -0.489917       -13.3313
  50   2.0000      -0.482634       -13.1331
  51   2.0000      -0.474811       -12.9203
  52   2.0000      -0.468704       -12.7541
  53   2.0000      -0.463456       -12.6113
  54   2.0000      -0.460523       -12.5315
  55   2.0000      -0.451279       -12.2799
  56   2.0000      -0.445567       -12.1245
  57   2.0000      -0.436739       -11.8843
  58   2.0000      -0.434029       -11.8105
  59   2.0000      -0.424839       -11.5605
  60   2.0000      -0.419792       -11.4231
  61   2.0000      -0.413963       -11.2645
  62   2.0000      -0.409040       -11.1306
  63   2.0000      -0.337345        -9.1796
  64   2.0000      -0.329281        -8.9602
  65   2.0000      -0.316649        -8.6164
  66   2.0000      -0.307097        -8.3565
  67   0.0000       0.046621         1.2686
  68   0.0000       0.054440         1.4814
  69   0.0000       0.105821         2.8795
  70   0.0000       0.124046         3.3755
  71   0.0000       0.128964         3.5093

MULLIKEN ATOMIC CHARGES
-----------------------
   0 S :    0.133003
   1 C :   -0.131057
   2 C :   -0.096082
   3 C :    0.033223
   4 C :   -0.203913
   5 H :    0.026959
   6 C :    0.075723
   7 H :    0.045839
   8 H :    0.026313
   9 C :   -0.113486
  10 H :    0.033787
  11 H :    0.036065
  12 C :   -0.030942
  13 H :    0.026330
  14 H :    0.017356
  15 H :    0.039973
  16 S :    0.123715
  17 C :   -0.057833
  18 C :   -0.033205
  19 C :   -0.039857
  20 C :   -0.187786
  21 H :    0.001890
  22 C :    0.129658
  23 H :    0.043203
  24 H :   -0.023272
  25 C :   -0.042623
  26 H :    0.033881
  27 H :    0.031800
  28 C :   -0.068001
  29 H :    0.021096
  30 H :    0.051741
  31 H :    0.015710
  32 H :    0.047539
  33 H :    0.033254
Sum of atomic charges:    0.0000000

LOEWDIN ATOMIC CHARGES
----------------------
   0 S :    0.440617
   1 C :   -0.203766
   2 C :   -0.062031
   3 C :   -0.061266
   4 C :   -0.216359
   5 H :    0.036504
   6 C :   -0.039081
   7 H :    0.037215
   8 H :    0.035576
   9 C :   -0.038337
  10 H :    0.024565
  11 H :    0.024117
  12 C :   -0.065686
  13 H :    0.025921
  14 H :    0.017172
  15 H :    0.028182
  16 S :    0.403810
  17 C :   -0.184609
  18 C :   -0.070050
  19 C :   -0.044417
  20 C :   -0.203572
  21 H :    0.024597
  22 C :   -0.024268
  23 H :    0.039305
  24 H :    0.010890
  25 C :   -0.028446
  26 H :    0.017513
  27 H :    0.027594
  28 C :   -0.071342
  29 H :    0.019605
  30 H :    0.037500
  31 H :    0.020199
  32 H :    0.020345
  33 H :    0.022002

  Mayer bond orders larger than 0.100000
B(  0-S ,  1-C ) :   1.1802 B(  0-S ,  4-C ) :   1.1583 B(  1-C ,  2-C ) :   1.5590
B(  1-C , 32-H ) :   0.9675 B(  2-C ,  3-C ) :   1.2538 B(  2-C ,  6-C ) :   1.0318
B(  3-C ,  4-C ) :   1.5983 B(  3-C ,  5-H ) :   0.9821 B(  4-C , 20-C ) :   1.0293
B(  6-C ,  7-H ) :   0.9388 B(  6-C ,  8-H ) :   0.9403 B(  6-C ,  9-C ) :   1.0629
B(  9-C , 10-H ) :   0.9585 B(  9-C , 11-H ) :   0.9545 B(  9-C , 12-C ) :   1.0665
B( 12-C , 13-H ) :   0.9766 B( 12-C , 14-H ) :   0.9746 B( 12-C , 15-H ) :   0.9739
B( 16-S , 17-C ) :   1.1496 B( 16-S , 20-C ) :   1.1259 B( 17-C , 18-C ) :   1.6512
B( 17-C , 33-H ) :   0.9615 B( 18-C , 19-C ) :   1.2156 B( 18-C , 21-H ) :   0.9947
B( 19-C , 20-C ) :   1.6280 B( 19-C , 22-C ) :   1.0375 B( 22-C , 23-H ) :   0.9271
B( 22-C , 24-H ) :   0.9272 B( 22-C , 25-C ) :   1.0664 B( 25-C , 26-H ) :   0.9592
B( 25-C , 27-H ) :   0.9541 B( 25-C , 28-C ) :   1.0736 B( 28-C , 29-H ) :   0.9738
B( 28-C , 30-H ) :   0.9737 B( 28-C , 31-H ) :   0.9705

Dispersion correction           -0.015844456
FINAL SINGLE POINT ENERGY     -1339.862022623757

DIPOLE MOMENT
-------------
                                X             Y             Z
Electronic contribution:      3.03940       8.15659      10.34833
Nuclear contribution   :     -3.12168      -8.25922     -10.70325
                        -----------------------------------------
Total Dipole Moment    :     -0.08227      -0.10264      -0.35492
                        -----------------------------------------
Magnitude (a.u.)       :      0.37851
Magnitude (Debye)      :      0.96209

Rotational constants in cm-1:     0.021186     0.009116     0.007701
Rotational constants in MHz :   635.147120   273.293342   230.882206

                             ****ORCA TERMINATED NORMALLY****
TOTAL RUN TIME: 0 days 0 hours 0 minutes 21 seconds 395 msec
