                         Program Version 4.2.1 -  RELEASE  -
|  1> ! wB97X-D3 SP def2-SVP
|  2> %pal
|  3> nprocs 24
|  4> end
|  5>
|  6> * xyz 0 1
|  7> S 	 -128.718 	 61.3479 	 -56.8224
|  8> C 	 -129.643 	 59.9755 	 -57.2864
|  9> C 	 -130.534 	 59.5692 	 -56.3325
| 10> C 	 -130.462 	 60.4333 	 -55.1845
| 11> C 	 -129.661 	 61.54 	 -55.3651
| 12> H 	 -131.122 	 60.5491 	 -54.3362
| 13> C 	 -131.48 	 58.351 	 -56.3504
| 14> H 	 -132.229 	 58.4829 	 -55.5397
| 15> H 	 -130.863 	 57.4932 	 -56.015
| 16> C 	 -132.042 	 57.919 	 -57.7716
| 17> H 	 -132.106 	 58.8044 	 -58.3651
| 18> H 	 -131.281 	 57.3209 	 -58.3107
| 19> C 	 -133.429 	 57.2547 	 -57.6779
| 20> H 	 -134.14 	 57.8442 	 -56.9824
| 21> H 	 -133.883 	 57.1649 	 -58.6699
| 22> H 	 -133.26 	 56.2221 	 -57.2943
| 23> S 	 -129.686 	 64.3598 	 -55.5002
| 24> C 	 -130.595 	 65.1029 	 -54.212
| 25> C 	 -130.52 	 64.3009 	 -53.0786
| 26> C 	 -129.926 	 63.0344 	 -53.281
| 27> C 	 -129.722 	 62.7937 	 -54.6537
| 28> H 	 -130.848 	 64.705 	 -52.1275
| 29> C 	 -129.985 	 62.0573 	 -52.1073
| 30> H 	 -129.256 	 62.4457 	 -51.3456
| 31> H 	 -129.52 	 61.1138 	 -52.3583
| 32> C 	 -131.348 	 61.8554 	 -51.4398
| 33> H 	 -131.822 	 61.0564 	 -52.0711
| 34> H 	 -131.934 	 62.7889 	 -51.3902
| 35> C 	 -131.307 	 61.3807 	 -50.0224
| 36> H 	 -132.381 	 61.3426 	 -49.7072
| 37> H 	 -130.758 	 62.0834 	 -49.376
| 38> H 	 -130.989 	 60.3409 	 -49.7921
| 39> H 	 -129.569 	 59.4532 	 -58.2029
| 40> H 	 -130.832 	 66.1145 	 -54.1154
| 41> *
| 42>
| 43>                          ****END OF INPUT****

CARTESIAN COORDINATES (ANGSTROEM)
---------------------------------
  S    -128.718000   61.347900  -56.822400
  C    -129.643000   59.975500  -57.286400
  C    -130.534000   59.569200  -56.332500
  C    -130.462000   60.433300  -55.184500
  C    -129.661000   61.540000  -55.365100
  H    -131.122000   60.549100  -54.336200
  C    -131.480000   58.351000  -56.350400
  H    -132.229000   58.482900  -55.539700
  H    -130.863000   57.493200  -56.015000
  C    -132.042000   57.919000  -57.771600
  H    -132.106000   58.804400  -58.365100
  H    -131.281000   57.320900  -58.310700
  C    -133.429000   57.254700  -57.677900
  H    -134.140000   57.844200  -56.982400
  H    -133.883000   57.164900  -58.669900
  H    -133.260000   56.222100  -57.294300
  S    -129.686000   64.359800  -55.500200
  C    -130.595000   65.102900  -54.212000
  C    -130.520000   64.300900  -53.078600
  C    -129.926000   63.034400  -53.281000
  C    -129.722000   62.793700  -54.653700
  H    -130.848000   64.705000  -52.127500
  C    -129.985000   62.057300  -52.107300
  H    -129.256000   62.445700  -51.345600
  H    -129.520000   61.113800  -52.358300
  C    -131.348000   61.855400  -51.439800
  H    -131.822000   61.056400  -52.071100
  H    -131.934000   62.788900  -51.390200
  C    -131.307000   61.380700  -50.022400
  H    -132.381000   61.342600  -49.707200
  H    -130.758000   62.083400  -49.376000
  H    -130.989000   60.340900  -49.792100
  H    -129.569000   59.453200  -58.202900
  H    -130.832000   66.114500  -54.115400

 Total Charge           Charge          ....    0
 Multiplicity           Mult            ....    1
 Number of Electrons    NEL             ....  134
 Basis Dimension        Dim             ....  322

ORBITAL ENERGIES
----------------

  NO   OCC          E(Eh)            E(eV)
   0   2.0000     -88.964750     -2420.8539
   1   2.0000     -88.963535     -2420.8209
   2   2.0000     -10.332190      -281.1532
   3   2.0000     -10.326770      -281.0057
   4   2.0000     -10.312416      -280.6151
   5   2.0000     -10.306555      -280.4556
   6   2.0000     -10.304632      -280.4033
   7   2.0000     -10.303286      -280.3667
   8   2.0000     -10.301672      -280.3228
   9   2.0000     -10.293888      -280.1109
  10   2.0000     -10.293189      -280.0919
  11   2.0000     -10.292813      -280.0817
  12   2.0000     -10.292595      -280.0758
  13   2.0000     -10.291981      -280.0591
  14   2.0000     -10.291688      -280.0511
  15   2.0000     -10.284468      -279.8546
  16   2.0000      -8.079209      -219.8465
  17   2.0000      -8.079086      -219.8431
  18   2.0000      -6.037848      -164.2982
  19   2.0000      -6.037587      -164.2911
  20   2.0000      -6.033985      -164.1931
  21   2.0000      -6.033561      -164.1815
  22   2.0000      -6.029752      -164.0779
  23   2.0000      -6.029588      -164.0734
  24   2.0000      -1.008881       -27.4531
  25   2.0000      -0.986024       -26.8311
  26   2.0000      -0.912913       -24.8416
  27   2.0000      -0.903654       -24.5897
  28   2.0000      -0.870155       -23.6781
  29   2.0000      -0.855083       -23.2680
  30   2.0000      -0.846703       -23.0400
  31   2.0000      -0.813153       -22.1270
  32   2.0000      -0.781430       -21.2638
  33   2.0000      -0.771009       -20.9802
  34   2.0000      -0.711111       -19.3503
  35   2.0000      -0.699458       -19.0332
  36   2.0000      -0.693283       -18.8652
  37   2.0000      -0.661071       -17.9887
  38   2.0000      -0.641375       -17.4527
  39   2.0000      -0.610665       -16.6170
  40   2.0000      -0.598279       -16.2800
  41   2.0000      -0.569071       -15.4852
  42   2.0000      -0.566831       -15.4242
  43   2.0000      -0.558792       -15.2055
  44   2.0000      -0.531840       -14.4721
  45   2.0000      -0.521834       -14.1998
  46   2.0000      -0.518701       -14.1146
  47   2.0000      -0.516296       -14.0491
  48   2.0000      -0.501797       -13.6546
  49   2.0000      -0.499013       -13.5788
  50   2.0000      -0.492513       -13.4020
  51   2.0000      -0.479738       -13.0543
  52   2.0000      -0.471002       -12.8166
  53   2.0000      -0.464823       -12.6485
  54   2.0000      -0.455708       -12.4004
  55   2.0000      -0.451445       -12.2844
  56   2.0000      -0.446440       -12.1482
  57   2.0000      -0.434398       -11.8206
  58   2.0000      -0.427950       -11.6451
  59   2.0000      -0.425568       -11.5803
  60   2.0000      -0.423273       -11.5179
  61   2.0000      -0.418268       -11.3817
  62   2.0000      -0.413877       -11.2622
  63   2.0000      -0.353700        -9.6247
  64   2.0000      -0.330756        -9.0003
  65   2.0000      -0.324705        -8.8357
  66   2.0000      -0.282322        -7.6824
  67   0.0000       0.016921         0.4604
  68   0.0000       0.071363         1.9419
  69   0.0000       0.107536         2.9262
  70   0.0000       0.127221         3.4618
  71   0.0000       0.128977         3.5096

MULLIKEN ATOMIC CHARGES
-----------------------
   0 S :    0.109529
   1 C :   -0.101265
   2 C :   -0.092050
   3 C :    0.029646
   4 C :   -0.168039
   5 H :    0.000197
   6 C :    0.050911
   7 H :    0.030033
   8 H :    0.049254
   9 C :   -0.091482
  10 H :    0.028422
  11 H :    0.038328
  12 C :   -0.076807
  13 H :    0.054105
  14 H :    0.042208
  15 H :    0.041494
  16 S :    0.107509
  17 C :   -0.056121
  18 C :   -0.074159
  19 C :    0.005441
  20 C :   -0.146684
  21 H :    0.022073
  22 C :    0.037131
  23 H :    0.030726
  24 H :    0.021903
  25 C :   -0.077262
  26 H :    0.041804
  27 H :    0.040667
  28 C :   -0.072946
  29 H :    0.035278
  30 H :    0.036637
  31 H :    0.036699
  32 H :    0.027864
  33 H :    0.038956
Sum of atomic charges:   -0.0000000

LOEWDIN ATOMIC CHARGES
----------------------
   0 S :    0.408955
   1 C :   -0.201942
   2 C :   -0.061637
   3 C :   -0.063841
   4 C :   -0.188558
   5 H :    0.028179
   6 C :   -0.033197
   7 H :    0.031335
   8 H :    0.040121
   9 C :   -0.045926
  10 H :    0.017157
  11 H :    0.027423
  12 C :   -0.070542
  13 H :    0.036747
  14 H :    0.027182
  15 H :    0.028890
  16 S :    0.393102
  17 C :   -0.179999
  18 C :   -0.067525
  19 C :   -0.056465
  20 C :   -0.184012
  21 H :    0.028176
  22 C :   -0.042241
  23 H :    0.037005
  24 H :    0.026775
  25 C :   -0.046369
  26 H :    0.030658
  27 H :    0.029940
  28 C :   -0.073359
  29 H :    0.033627
  30 H :    0.024955
  31 H :    0.026115
  32 H :    0.020357
  33 H :    0.018916

  Mayer bond orders larger than 0.100000
B(  0-S ,  1-C ) :   1.1296 B(  0-S ,  4-C ) :   1.1356 B(  1-C ,  2-C ) :   1.6405
B(  1-C , 32-H ) :   0.9685 B(  2-C ,  3-C ) :   1.2286 B(  2-C ,  6-C ) :   1.0151
B(  3-C ,  4-C ) :   1.5956 B(  3-C ,  5-H ) :   0.9811 B(  4-C , 20-C ) :   1.0926
B(  6-C ,  7-H ) :   0.9522 B(  6-C ,  8-H ) :   0.9347 B(  6-C ,  9-C ) :   1.0393
B(  9-C , 10-H ) :   0.9683 B(  9-C , 11-H ) :   0.9521 B(  9-C , 12-C ) :   1.0806
B( 12-C , 13-H ) :   0.9763 B( 12-C , 14-H ) :   0.9746 B( 12-C , 15-H ) :   0.9758
B( 16-S , 17-C ) :   1.1411 B( 16-S , 20-C ) :   1.1311 B( 17-C , 18-C ) :   1.6099
B( 17-C , 20-C ) :   0.1034 B( 17-C , 33-H ) :   0.9721 B( 18-C , 19-C ) :   1.2413
B( 18-C , 21-H ) :   0.9851 B( 19-C , 20-C ) :   1.5306 B( 19-C , 22-C ) :   1.0591
B( 22-C , 23-H ) :   0.9297 B( 22-C , 24-H ) :   0.9361 B( 22-C , 25-C ) :   1.0543
B( 25-C , 26-H ) :   0.9496 B( 25-C , 27-H ) :   0.9523 B( 25-C , 28-C ) :   1.0925
B( 28-C , 29-H ) :   0.9718 B( 28-C , 30-H ) :   0.9717 B( 28-C , 31-H ) :   0.9736

Dispersion correction           -0.013575312
FINAL SINGLE POINT ENERGY     -1339.859438490137

DIPOLE MOMENT
-------------
                                X             Y             Z
Electronic contribution:     17.70708      20.01422     -12.60265
Nuclear contribution   :    -18.20659     -20.39336      13.03077
                        -----------------------------------------
Total Dipole Moment    :     -0.49951      -0.37914       0.42812
                        -----------------------------------------
Magnitude (a.u.)       :      0.75931
Magnitude (Debye)      :      1.93000

Rotational constants in cm-1:     0.017040     0.008111     0.006193
Rotational constants in MHz :   510.834687   243.174716   185.665214

                             ****ORCA TERMINATED NORMALLY****
TOTAL RUN TIME: 0 days 0 hours 0 minutes 21 seconds 143 msec
