                         Program Version 4.2.1 -  RELEASE  -
|  1> ! wB97X-D3 SP def2-SVP
|  2> %pal
|  3> nprocs 24
|  4> end
|  5>
|  6> * xyz 0 1
|  7> S 	 -113.976 	 16.6727 	 -117.181
|  8> C 	 -114.023 	 18.0582 	 -118.224
|  9> C 	 -114.641 	 19.1099 	 -117.521
| 10> C 	 -114.903 	 18.783 	 -116.147
| 11> C 	 -114.464 	 17.5466 	 -115.755
| 12> H 	 -115.584 	 19.366 	 -115.409
| 13> C 	 -114.882 	 20.4303 	 -118.116
| 14> H 	 -115.965 	 20.5331 	 -118.077
| 15> H 	 -114.585 	 20.4394 	 -119.147
| 16> C 	 -114.302 	 21.6674 	 -117.451
| 17> H 	 -114.927 	 22.4713 	 -117.829
| 18> H 	 -114.554 	 21.5768 	 -116.446
| 19> C 	 -112.836 	 21.9001 	 -117.795
| 20> H 	 -112.799 	 21.8032 	 -118.9
| 21> H 	 -112.512 	 22.8567 	 -117.463
| 22> H 	 -112.183 	 21.1411 	 -117.378
| 23> S 	 -115.095 	 15.159 	 -114.418
| 24> C 	 -115.471 	 15.15 	 -112.778
| 25> C 	 -115.29 	 16.3963 	 -112.198
| 26> C 	 -114.976 	 17.4534 	 -113.131
| 27> C 	 -114.79 	 16.9128 	 -114.445
| 28> H 	 -115.354 	 16.4204 	 -111.134
| 29> C 	 -114.751 	 18.9143 	 -112.769
| 30> H 	 -115.669 	 19.3512 	 -112.419
| 31> H 	 -114.57 	 19.5438 	 -113.67
| 32> C 	 -113.618 	 19.0715 	 -111.72
| 33> H 	 -112.763 	 18.7205 	 -112.198
| 34> H 	 -113.605 	 18.457 	 -110.82
| 35> C 	 -113.26 	 20.4697 	 -111.366
| 36> H 	 -113.94 	 20.8555 	 -110.608
| 37> H 	 -113.282 	 21.2543 	 -112.17
| 38> H 	 -112.219 	 20.4516 	 -110.979
| 39> H 	 -113.823 	 18.1295 	 -119.254
| 40> H 	 -116.057 	 14.3227 	 -112.375
| 41> *
| 42>
| 43>                          ****END OF INPUT****

CARTESIAN COORDINATES (ANGSTROEM)
---------------------------------
  S    -113.976000   16.672700  -117.181000
  C    -114.023000   18.058200  -118.224000
  C    -114.641000   19.109900  -117.521000
  C    -114.903000   18.783000  -116.147000
  C    -114.464000   17.546600  -115.755000
  H    -115.584000   19.366000  -115.409000
  C    -114.882000   20.430300  -118.116000
  H    -115.965000   20.533100  -118.077000
  H    -114.585000   20.439400  -119.147000
  C    -114.302000   21.667400  -117.451000
  H    -114.927000   22.471300  -117.829000
  H    -114.554000   21.576800  -116.446000
  C    -112.836000   21.900100  -117.795000
  H    -112.799000   21.803200  -118.900000
  H    -112.512000   22.856700  -117.463000
  H    -112.183000   21.141100  -117.378000
  S    -115.095000   15.159000  -114.418000
  C    -115.471000   15.150000  -112.778000
  C    -115.290000   16.396300  -112.198000
  C    -114.976000   17.453400  -113.131000
  C    -114.790000   16.912800  -114.445000
  H    -115.354000   16.420400  -111.134000
  C    -114.751000   18.914300  -112.769000
  H    -115.669000   19.351200  -112.419000
  H    -114.570000   19.543800  -113.670000
  C    -113.618000   19.071500  -111.720000
  H    -112.763000   18.720500  -112.198000
  H    -113.605000   18.457000  -110.820000
  C    -113.260000   20.469700  -111.366000
  H    -113.940000   20.855500  -110.608000
  H    -113.282000   21.254300  -112.170000
  H    -112.219000   20.451600  -110.979000
  H    -113.823000   18.129500  -119.254000
  H    -116.057000   14.322700  -112.375000

 Total Charge           Charge          ....    0
 Multiplicity           Mult            ....    1
 Number of Electrons    NEL             ....  134
 Basis Dimension        Dim             ....  322

ORBITAL ENERGIES
----------------

  NO   OCC          E(Eh)            E(eV)
   0   2.0000     -88.965980     -2420.8874
   1   2.0000     -88.964808     -2420.8555
   2   2.0000     -10.337600      -281.3004
   3   2.0000     -10.333352      -281.1848
   4   2.0000     -10.315200      -280.6909
   5   2.0000     -10.314362      -280.6681
   6   2.0000     -10.312251      -280.6106
   7   2.0000     -10.300692      -280.2961
   8   2.0000     -10.298959      -280.2489
   9   2.0000     -10.297597      -280.2119
  10   2.0000     -10.296360      -280.1782
  11   2.0000     -10.282813      -279.8096
  12   2.0000     -10.279174      -279.7105
  13   2.0000     -10.278657      -279.6965
  14   2.0000     -10.278133      -279.6822
  15   2.0000     -10.276153      -279.6283
  16   2.0000      -8.080811      -219.8900
  17   2.0000      -8.080513      -219.8819
  18   2.0000      -6.039461      -164.3421
  19   2.0000      -6.038880      -164.3263
  20   2.0000      -6.035327      -164.2296
  21   2.0000      -6.034777      -164.2146
  22   2.0000      -6.031489      -164.1252
  23   2.0000      -6.031374      -164.1220
  24   2.0000      -1.007208       -27.4075
  25   2.0000      -0.987215       -26.8635
  26   2.0000      -0.920456       -25.0469
  27   2.0000      -0.913672       -24.8623
  28   2.0000      -0.870062       -23.6756
  29   2.0000      -0.856333       -23.3020
  30   2.0000      -0.844233       -22.9728
  31   2.0000      -0.816063       -22.2062
  32   2.0000      -0.785147       -21.3649
  33   2.0000      -0.773943       -21.0601
  34   2.0000      -0.710837       -19.3429
  35   2.0000      -0.702469       -19.1152
  36   2.0000      -0.695897       -18.9363
  37   2.0000      -0.655798       -17.8452
  38   2.0000      -0.636947       -17.3322
  39   2.0000      -0.622416       -16.9368
  40   2.0000      -0.600467       -16.3395
  41   2.0000      -0.572307       -15.5733
  42   2.0000      -0.563182       -15.3250
  43   2.0000      -0.557980       -15.1834
  44   2.0000      -0.539492       -14.6803
  45   2.0000      -0.532814       -14.4986
  46   2.0000      -0.521120       -14.1804
  47   2.0000      -0.517476       -14.0812
  48   2.0000      -0.508166       -13.8279
  49   2.0000      -0.499232       -13.5848
  50   2.0000      -0.489003       -13.3065
  51   2.0000      -0.483663       -13.1611
  52   2.0000      -0.470805       -12.8113
  53   2.0000      -0.464148       -12.6301
  54   2.0000      -0.458309       -12.4712
  55   2.0000      -0.454451       -12.3663
  56   2.0000      -0.443266       -12.0619
  57   2.0000      -0.439544       -11.9606
  58   2.0000      -0.437759       -11.9120
  59   2.0000      -0.429790       -11.6952
  60   2.0000      -0.420355       -11.4385
  61   2.0000      -0.411127       -11.1873
  62   2.0000      -0.406616       -11.0646
  63   2.0000      -0.359480        -9.7819
  64   2.0000      -0.331063        -9.0087
  65   2.0000      -0.322708        -8.7813
  66   2.0000      -0.283041        -7.7019
  67   0.0000       0.022565         0.6140
  68   0.0000       0.077059         2.0969
  69   0.0000       0.105664         2.8753
  70   0.0000       0.116701         3.1756
  71   0.0000       0.131030         3.5655

MULLIKEN ATOMIC CHARGES
-----------------------
   0 S :    0.096562
   1 C :   -0.085930
   2 C :   -0.102458
   3 C :   -0.053775
   4 C :   -0.086861
   5 H :    0.062069
   6 C :    0.048718
   7 H :    0.031082
   8 H :   -0.001278
   9 C :   -0.033871
  10 H :    0.019794
  11 H :    0.001938
  12 C :   -0.018110
  13 H :    0.022700
  14 H :    0.030978
  15 H :    0.040638
  16 S :    0.102028
  17 C :   -0.109083
  18 C :   -0.037672
  19 C :   -0.038303
  20 C :   -0.164715
  21 H :    0.015519
  22 C :    0.084659
  23 H :    0.023030
  24 H :    0.019548
  25 C :   -0.054005
  26 H :    0.013176
  27 H :    0.031233
  28 C :   -0.064947
  29 H :    0.028026
  30 H :    0.031209
  31 H :    0.038015
  32 H :    0.033048
  33 H :    0.077038
Sum of atomic charges:   -0.0000000

LOEWDIN ATOMIC CHARGES
----------------------
   0 S :    0.411165
   1 C :   -0.201515
   2 C :   -0.061483
   3 C :   -0.087626
   4 C :   -0.192585
   5 H :    0.046995
   6 C :   -0.034983
   7 H :    0.037116
   8 H :    0.022184
   9 C :   -0.033842
  10 H :    0.026013
  11 H :    0.010167
  12 C :   -0.056207
  13 H :    0.028447
  14 H :    0.021480
  15 H :    0.028523
  16 S :    0.420404
  17 C :   -0.210715
  18 C :   -0.072391
  19 C :   -0.048576
  20 C :   -0.186763
  21 H :    0.027724
  22 C :   -0.030942
  23 H :    0.026302
  24 H :    0.033942
  25 C :   -0.045233
  26 H :    0.021357
  27 H :    0.029518
  28 C :   -0.068765
  29 H :    0.020600
  30 H :    0.027445
  31 H :    0.032827
  32 H :    0.023372
  33 H :    0.036047

  Mayer bond orders larger than 0.100000
B(  0-S ,  1-C ) :   1.1309 B(  0-S ,  4-C ) :   1.1558 B(  1-C ,  2-C ) :   1.5820
B(  1-C , 32-H ) :   0.9762 B(  2-C ,  3-C ) :   1.2504 B(  2-C ,  6-C ) :   1.0533
B(  3-C ,  4-C ) :   1.5620 B(  3-C ,  5-H ) :   0.9627 B(  4-C , 20-C ) :   1.0625
B(  6-C ,  7-H ) :   0.9228 B(  6-C ,  8-H ) :   0.9378 B(  6-C ,  9-C ) :   1.0856
B(  9-C , 10-H ) :   0.9496 B(  9-C , 11-H ) :   0.9500 B(  9-C , 12-C ) :   1.0705
B( 12-C , 13-H ) :   0.9735 B( 12-C , 14-H ) :   0.9744 B( 12-C , 15-H ) :   0.9776
B( 16-S , 17-C ) :   1.1868 B( 16-S , 20-C ) :   1.1522 B( 17-C , 18-C ) :   1.5791
B( 17-C , 33-H ) :   0.9628 B( 18-C , 19-C ) :   1.2588 B( 18-C , 21-H ) :   0.9973
B( 19-C , 20-C ) :   1.5500 B( 19-C , 22-C ) :   1.0459 B( 22-C , 23-H ) :   0.9299
B( 22-C , 24-H ) :   0.9298 B( 22-C , 25-C ) :   1.0495 B( 25-C , 26-H ) :   0.9529
B( 25-C , 27-H ) :   0.9532 B( 25-C , 28-C ) :   1.0951 B( 28-C , 29-H ) :   0.9746
B( 28-C , 30-H ) :   0.9720 B( 28-C , 31-H ) :   0.9741

Dispersion correction           -0.013759329
FINAL SINGLE POINT ENERGY     -1339.863419210828

DIPOLE MOMENT
-------------
                                X             Y             Z
Electronic contribution:     -5.51684     -29.85692      -6.03777
Nuclear contribution   :      5.26762      30.46833       6.26156
                        -----------------------------------------
Total Dipole Moment    :     -0.24922       0.61142       0.22380
                        -----------------------------------------
Magnitude (a.u.)       :      0.69716
Magnitude (Debye)      :      1.77203

Rotational constants in cm-1:     0.016736     0.009598     0.006523
Rotational constants in MHz :   501.719670   287.742539   195.540710

                             ****ORCA TERMINATED NORMALLY****
TOTAL RUN TIME: 0 days 0 hours 0 minutes 21 seconds 514 msec
