                         Program Version 4.2.1 -  RELEASE  -
|  1> ! wB97X-D3 SP def2-SVP
|  2> %pal
|  3> nprocs 24
|  4> end
|  5>
|  6> * xyz 0 1
|  7> S 	 -84.1092 	 -9.79662 	 -60.8678
|  8> C 	 -84.6426 	 -8.11214 	 -60.8748
|  9> C 	 -84.0971 	 -7.47475 	 -59.8015
| 10> C 	 -83.3397 	 -8.31528 	 -58.9783
| 11> C 	 -83.3928 	 -9.6686 	 -59.2874
| 12> H 	 -82.9917 	 -8.02579 	 -57.9952
| 13> C 	 -84.4175 	 -6.03929 	 -59.3624
| 14> H 	 -83.8258 	 -5.74867 	 -58.4484
| 15> H 	 -85.4163 	 -6.17394 	 -58.9451
| 16> C 	 -84.4421 	 -4.99048 	 -60.5173
| 17> H 	 -83.4403 	 -4.70606 	 -60.8174
| 18> H 	 -84.7956 	 -5.46157 	 -61.4199
| 19> C 	 -85.2304 	 -3.74076 	 -60.1851
| 20> H 	 -86.1919 	 -4.0073 	 -59.743
| 21> H 	 -84.7561 	 -3.29712 	 -59.3235
| 22> H 	 -85.2991 	 -3.15144 	 -61.0703
| 23> S 	 -82.1608 	 -12.1465 	 -59.5324
| 24> C 	 -81.674 	 -13.0355 	 -58.1215
| 25> C 	 -82.1977 	 -12.3785 	 -57.0099
| 26> C 	 -82.9087 	 -11.1462 	 -57.2415
| 27> C 	 -82.8775 	 -10.812 	 -58.6009
| 28> H 	 -82.192 	 -12.931 	 -56.1121
| 29> C 	 -83.6994 	 -10.332 	 -56.1935
| 30> H 	 -83.7724 	 -9.33678 	 -56.415
| 31> H 	 -83.1411 	 -10.3787 	 -55.2395
| 32> C 	 -85.0589 	 -10.926 	 -55.8859
| 33> H 	 -85.4698 	 -10.4054 	 -54.9938
| 34> H 	 -85.0307 	 -11.9772 	 -55.5898
| 35> C 	 -86.1418 	 -10.768 	 -57.0379
| 36> H 	 -86.2356 	 -9.72271 	 -57.428
| 37> H 	 -87.1347 	 -11.1477 	 -56.7693
| 38> H 	 -85.8587 	 -11.45 	 -57.8649
| 39> H 	 -85.4402 	 -7.78418 	 -61.5288
| 40> H 	 -81.2942 	 -14.0317 	 -58.146
| 41> *
| 42>
| 43>                          ****END OF INPUT****

CARTESIAN COORDINATES (ANGSTROEM)
---------------------------------
  S    -84.109200   -9.796620  -60.867800
  C    -84.642600   -8.112140  -60.874800
  C    -84.097100   -7.474750  -59.801500
  C    -83.339700   -8.315280  -58.978300
  C    -83.392800   -9.668600  -59.287400
  H    -82.991700   -8.025790  -57.995200
  C    -84.417500   -6.039290  -59.362400
  H    -83.825800   -5.748670  -58.448400
  H    -85.416300   -6.173940  -58.945100
  C    -84.442100   -4.990480  -60.517300
  H    -83.440300   -4.706060  -60.817400
  H    -84.795600   -5.461570  -61.419900
  C    -85.230400   -3.740760  -60.185100
  H    -86.191900   -4.007300  -59.743000
  H    -84.756100   -3.297120  -59.323500
  H    -85.299100   -3.151440  -61.070300
  S    -82.160800  -12.146500  -59.532400
  C    -81.674000  -13.035500  -58.121500
  C    -82.197700  -12.378500  -57.009900
  C    -82.908700  -11.146200  -57.241500
  C    -82.877500  -10.812000  -58.600900
  H    -82.192000  -12.931000  -56.112100
  C    -83.699400  -10.332000  -56.193500
  H    -83.772400   -9.336780  -56.415000
  H    -83.141100  -10.378700  -55.239500
  C    -85.058900  -10.926000  -55.885900
  H    -85.469800  -10.405400  -54.993800
  H    -85.030700  -11.977200  -55.589800
  C    -86.141800  -10.768000  -57.037900
  H    -86.235600   -9.722710  -57.428000
  H    -87.134700  -11.147700  -56.769300
  H    -85.858700  -11.450000  -57.864900
  H    -85.440200   -7.784180  -61.528800
  H    -81.294200  -14.031700  -58.146000

 Total Charge           Charge          ....    0
 Multiplicity           Mult            ....    1
 Number of Electrons    NEL             ....  134
 Basis Dimension        Dim             ....  322

ORBITAL ENERGIES
----------------

  NO   OCC          E(Eh)            E(eV)
   0   2.0000     -88.964860     -2420.8569
   1   2.0000     -88.962326     -2420.7880
   2   2.0000     -10.330940      -281.1192
   3   2.0000     -10.330245      -281.1003
   4   2.0000     -10.319026      -280.7950
   5   2.0000     -10.312371      -280.6139
   6   2.0000     -10.310628      -280.5665
   7   2.0000     -10.300095      -280.2798
   8   2.0000     -10.299692      -280.2689
   9   2.0000     -10.295613      -280.1579
  10   2.0000     -10.292129      -280.0631
  11   2.0000     -10.290789      -280.0266
  12   2.0000     -10.290655      -280.0230
  13   2.0000     -10.285079      -279.8712
  14   2.0000     -10.279209      -279.7115
  15   2.0000     -10.275179      -279.6018
  16   2.0000      -8.079431      -219.8525
  17   2.0000      -8.077320      -219.7950
  18   2.0000      -6.038001      -164.3024
  19   2.0000      -6.035827      -164.2432
  20   2.0000      -6.033898      -164.1907
  21   2.0000      -6.031786      -164.1332
  22   2.0000      -6.030195      -164.0900
  23   2.0000      -6.028061      -164.0319
  24   2.0000      -1.009532       -27.4708
  25   2.0000      -0.985192       -26.8084
  26   2.0000      -0.911719       -24.8091
  27   2.0000      -0.907361       -24.6906
  28   2.0000      -0.874453       -23.7951
  29   2.0000      -0.850968       -23.1560
  30   2.0000      -0.838223       -22.8092
  31   2.0000      -0.814313       -22.1586
  32   2.0000      -0.784806       -21.3557
  33   2.0000      -0.774173       -21.0663
  34   2.0000      -0.712287       -19.3823
  35   2.0000      -0.704270       -19.1642
  36   2.0000      -0.696321       -18.9479
  37   2.0000      -0.660190       -17.9647
  38   2.0000      -0.641818       -17.4648
  39   2.0000      -0.620923       -16.8962
  40   2.0000      -0.602147       -16.3852
  41   2.0000      -0.572209       -15.5706
  42   2.0000      -0.554337       -15.0843
  43   2.0000      -0.546431       -14.8691
  44   2.0000      -0.538951       -14.6656
  45   2.0000      -0.536012       -14.5856
  46   2.0000      -0.524006       -14.2589
  47   2.0000      -0.512428       -13.9439
  48   2.0000      -0.508704       -13.8425
  49   2.0000      -0.501271       -13.6403
  50   2.0000      -0.494246       -13.4491
  51   2.0000      -0.483187       -13.1482
  52   2.0000      -0.474799       -12.9199
  53   2.0000      -0.462857       -12.5950
  54   2.0000      -0.459868       -12.5137
  55   2.0000      -0.448510       -12.2046
  56   2.0000      -0.441639       -12.0176
  57   2.0000      -0.436918       -11.8892
  58   2.0000      -0.429781       -11.6949
  59   2.0000      -0.426338       -11.6013
  60   2.0000      -0.418453       -11.3867
  61   2.0000      -0.414881       -11.2895
  62   2.0000      -0.404255       -11.0003
  63   2.0000      -0.355821        -9.6824
  64   2.0000      -0.332754        -9.0547
  65   2.0000      -0.328036        -8.9263
  66   2.0000      -0.285568        -7.7707
  67   0.0000       0.018135         0.4935
  68   0.0000       0.071801         1.9538
  69   0.0000       0.104174         2.8347
  70   0.0000       0.118616         3.2277
  71   0.0000       0.140206         3.8152

MULLIKEN ATOMIC CHARGES
-----------------------
   0 S :    0.092594
   1 C :   -0.145149
   2 C :   -0.068244
   3 C :    0.031002
   4 C :   -0.154536
   5 H :    0.008113
   6 C :    0.039469
   7 H :    0.032730
   8 H :    0.034890
   9 C :   -0.066943
  10 H :    0.027244
  11 H :    0.015752
  12 C :   -0.015363
  13 H :    0.018169
  14 H :    0.023434
  15 H :    0.042863
  16 S :    0.095993
  17 C :   -0.086560
  18 C :   -0.030505
  19 C :   -0.048765
  20 C :   -0.141111
  21 H :    0.005233
  22 C :    0.140683
  23 H :   -0.012190
  24 H :    0.026891
  25 C :   -0.086429
  26 H :    0.030523
  27 H :    0.028384
  28 C :   -0.079524
  29 H :    0.043860
  30 H :    0.031475
  31 H :    0.042156
  32 H :    0.062484
  33 H :    0.061375
Sum of atomic charges:   -0.0000000

LOEWDIN ATOMIC CHARGES
----------------------
   0 S :    0.400106
   1 C :   -0.196271
   2 C :   -0.064042
   3 C :   -0.071395
   4 C :   -0.185198
   5 H :    0.025882
   6 C :   -0.032477
   7 H :    0.033289
   8 H :    0.034205
   9 C :   -0.039048
  10 H :    0.025373
  11 H :    0.018975
  12 C :   -0.059415
  13 H :    0.023238
  14 H :    0.025673
  15 H :    0.026793
  16 S :    0.397895
  17 C :   -0.186539
  18 C :   -0.067945
  19 C :   -0.050449
  20 C :   -0.189170
  21 H :    0.022453
  22 C :   -0.021539
  23 H :    0.014080
  24 H :    0.038753
  25 C :   -0.038453
  26 H :    0.025116
  27 H :    0.024044
  28 C :   -0.075773
  29 H :    0.028723
  30 H :    0.024329
  31 H :    0.028758
  32 H :    0.029984
  33 H :    0.030044

  Mayer bond orders larger than 0.100000
B(  0-S ,  1-C ) :   1.1299 B(  0-S ,  4-C ) :   1.1596 B(  1-C ,  2-C ) :   1.5972
B(  1-C ,  4-C ) :   0.1078 B(  1-C , 32-H ) :   0.9706 B(  2-C ,  3-C ) :   1.2720
B(  2-C ,  6-C ) :   1.0027 B(  3-C ,  4-C ) :   1.5440 B(  3-C ,  5-H ) :   0.9882
B(  4-C , 20-C ) :   1.0858 B(  6-C ,  7-H ) :   0.9460 B(  6-C ,  8-H ) :   0.9409
B(  6-C ,  9-C ) :   1.0469 B(  9-C , 10-H ) :   0.9533 B(  9-C , 11-H ) :   0.9599
B(  9-C , 12-C ) :   1.0826 B( 12-C , 13-H ) :   0.9760 B( 12-C , 14-H ) :   0.9723
B( 12-C , 15-H ) :   0.9731 B( 16-S , 17-C ) :   1.1547 B( 16-S , 20-C ) :   1.1384
B( 17-C , 18-C ) :   1.5930 B( 17-C , 20-C ) :   0.1044 B( 17-C , 33-H ) :   0.9718
B( 18-C , 19-C ) :   1.2546 B( 18-C , 21-H ) :   0.9911 B( 19-C , 20-C ) :   1.5601
B( 19-C , 22-C ) :   1.0408 B( 22-C , 23-H ) :   0.9298 B( 22-C , 24-H ) :   0.9270
B( 22-C , 25-C ) :   1.0800 B( 25-C , 26-H ) :   0.9557 B( 25-C , 27-H ) :   0.9568
B( 25-C , 28-C ) :   1.0678 B( 28-C , 29-H ) :   0.9762 B( 28-C , 30-H ) :   0.9755
B( 28-C , 31-H ) :   0.9756

Dispersion correction           -0.014912711
FINAL SINGLE POINT ENERGY     -1339.876082333697

DIPOLE MOMENT
-------------
                                X             Y             Z
Electronic contribution:     13.84713     -20.40031     -11.39484
Nuclear contribution   :    -14.24834      20.68796      11.98621
                        -----------------------------------------
Total Dipole Moment    :     -0.40120       0.28765       0.59137
                        -----------------------------------------
Magnitude (a.u.)       :      0.77034
Magnitude (Debye)      :      1.95804

Rotational constants in cm-1:     0.023747     0.007709     0.006625
Rotational constants in MHz :   711.919079   231.106608   198.599801

                             ****ORCA TERMINATED NORMALLY****
TOTAL RUN TIME: 0 days 0 hours 0 minutes 20 seconds 855 msec
