                         Program Version 4.2.1 -  RELEASE  -
|  1> ! wB97X-D3 SP def2-SVP
|  2> %pal
|  3> nprocs 24
|  4> end
|  5>
|  6> * xyz 0 1
|  7> S 	 -44.9836 	 20.0568 	 27.958
|  8> C 	 -45.1479 	 20.1439 	 26.2125
|  9> C 	 -45.5516 	 18.9385 	 25.7105
| 10> C 	 -45.6259 	 17.9388 	 26.6956
| 11> C 	 -45.5622 	 18.4215 	 27.9789
| 12> H 	 -45.9324 	 16.9161 	 26.5088
| 13> C 	 -45.7106 	 18.5076 	 24.2434
| 14> H 	 -46.1032 	 17.4487 	 24.2266
| 15> H 	 -44.6696 	 18.5705 	 23.8528
| 16> C 	 -46.7093 	 19.4016 	 23.5864
| 17> H 	 -46.3867 	 20.423 	 23.8154
| 18> H 	 -46.5495 	 19.387 	 22.5064
| 19> C 	 -48.1428 	 19.1127 	 23.9295
| 20> H 	 -48.2126 	 19.2736 	 25.057
| 21> H 	 -48.7462 	 19.8507 	 23.506
| 22> H 	 -48.4589 	 18.0759 	 23.6074
| 23> S 	 -44.1294 	 17.7717 	 30.2327
| 24> C 	 -44.7684 	 16.6888 	 31.4644
| 25> C 	 -45.9318 	 16.1002 	 30.99
| 26> C 	 -46.4186 	 16.6308 	 29.7249
| 27> C 	 -45.5107 	 17.5395 	 29.1639
| 28> H 	 -46.5386 	 15.3101 	 31.5268
| 29> C 	 -47.8088 	 16.2399 	 29.2371
| 30> H 	 -47.9243 	 15.1627 	 29.0429
| 31> H 	 -47.8844 	 16.5824 	 28.1906
| 32> C 	 -48.9327 	 16.7679 	 30.0714
| 33> H 	 -49.75 	 17.063 	 29.4671
| 34> H 	 -48.7379 	 17.8439 	 30.4048
| 35> C 	 -49.3775 	 15.9483 	 31.3141
| 36> H 	 -49.584 	 14.9125 	 31.0075
| 37> H 	 -50.2504 	 16.3896 	 31.8417
| 38> H 	 -48.5563 	 15.9027 	 32.0194
| 39> H 	 -45.0133 	 20.9691 	 25.6482
| 40> H 	 -44.2349 	 16.2603 	 32.2896
| 41> *
| 42>
| 43>                          ****END OF INPUT****

CARTESIAN COORDINATES (ANGSTROEM)
---------------------------------
  S    -44.983600   20.056800   27.958000
  C    -45.147900   20.143900   26.212500
  C    -45.551600   18.938500   25.710500
  C    -45.625900   17.938800   26.695600
  C    -45.562200   18.421500   27.978900
  H    -45.932400   16.916100   26.508800
  C    -45.710600   18.507600   24.243400
  H    -46.103200   17.448700   24.226600
  H    -44.669600   18.570500   23.852800
  C    -46.709300   19.401600   23.586400
  H    -46.386700   20.423000   23.815400
  H    -46.549500   19.387000   22.506400
  C    -48.142800   19.112700   23.929500
  H    -48.212600   19.273600   25.057000
  H    -48.746200   19.850700   23.506000
  H    -48.458900   18.075900   23.607400
  S    -44.129400   17.771700   30.232700
  C    -44.768400   16.688800   31.464400
  C    -45.931800   16.100200   30.990000
  C    -46.418600   16.630800   29.724900
  C    -45.510700   17.539500   29.163900
  H    -46.538600   15.310100   31.526800
  C    -47.808800   16.239900   29.237100
  H    -47.924300   15.162700   29.042900
  H    -47.884400   16.582400   28.190600
  C    -48.932700   16.767900   30.071400
  H    -49.750000   17.063000   29.467100
  H    -48.737900   17.843900   30.404800
  C    -49.377500   15.948300   31.314100
  H    -49.584000   14.912500   31.007500
  H    -50.250400   16.389600   31.841700
  H    -48.556300   15.902700   32.019400
  H    -45.013300   20.969100   25.648200
  H    -44.234900   16.260300   32.289600

 Total Charge           Charge          ....    0
 Multiplicity           Mult            ....    1
 Number of Electrons    NEL             ....  134
 Basis Dimension        Dim             ....  322

ORBITAL ENERGIES
----------------

  NO   OCC          E(Eh)            E(eV)
   0   2.0000     -88.968996     -2420.9694
   1   2.0000     -88.964792     -2420.8551
   2   2.0000     -10.332371      -281.1581
   3   2.0000     -10.328038      -281.0402
   4   2.0000     -10.317405      -280.7509
   5   2.0000     -10.307225      -280.4739
   6   2.0000     -10.306427      -280.4521
   7   2.0000     -10.299487      -280.2633
   8   2.0000     -10.296293      -280.1764
   9   2.0000     -10.295471      -280.1540
  10   2.0000     -10.294073      -280.1160
  11   2.0000     -10.287722      -279.9432
  12   2.0000     -10.284745      -279.8621
  13   2.0000     -10.282363      -279.7973
  14   2.0000     -10.282360      -279.7972
  15   2.0000     -10.281990      -279.7872
  16   2.0000      -8.083687      -219.9683
  17   2.0000      -8.079074      -219.8428
  18   2.0000      -6.042238      -164.4176
  19   2.0000      -6.038209      -164.3080
  20   2.0000      -6.037748      -164.2955
  21   2.0000      -6.034380      -164.2038
  22   2.0000      -6.033558      -164.1815
  23   2.0000      -6.029758      -164.0781
  24   2.0000      -1.009126       -27.4597
  25   2.0000      -0.982981       -26.7483
  26   2.0000      -0.920790       -25.0560
  27   2.0000      -0.908495       -24.7214
  28   2.0000      -0.868584       -23.6354
  29   2.0000      -0.851793       -23.1785
  30   2.0000      -0.839958       -22.8564
  31   2.0000      -0.814109       -22.1530
  32   2.0000      -0.784351       -21.3433
  33   2.0000      -0.777057       -21.1448
  34   2.0000      -0.712403       -19.3855
  35   2.0000      -0.700857       -19.0713
  36   2.0000      -0.689345       -18.7580
  37   2.0000      -0.660027       -17.9603
  38   2.0000      -0.644827       -17.5466
  39   2.0000      -0.610288       -16.6068
  40   2.0000      -0.595223       -16.1968
  41   2.0000      -0.576053       -15.6752
  42   2.0000      -0.567045       -15.4301
  43   2.0000      -0.549878       -14.9629
  44   2.0000      -0.541076       -14.7234
  45   2.0000      -0.533980       -14.5303
  46   2.0000      -0.515186       -14.0189
  47   2.0000      -0.511935       -13.9305
  48   2.0000      -0.504350       -13.7241
  49   2.0000      -0.495730       -13.4895
  50   2.0000      -0.487081       -13.2541
  51   2.0000      -0.481515       -13.1027
  52   2.0000      -0.472771       -12.8648
  53   2.0000      -0.469252       -12.7690
  54   2.0000      -0.461475       -12.5574
  55   2.0000      -0.449354       -12.2275
  56   2.0000      -0.444764       -12.1026
  57   2.0000      -0.439737       -11.9659
  58   2.0000      -0.429899       -11.6982
  59   2.0000      -0.423988       -11.5373
  60   2.0000      -0.418337       -11.3835
  61   2.0000      -0.405145       -11.0246
  62   2.0000      -0.402741       -10.9591
  63   2.0000      -0.349729        -9.5166
  64   2.0000      -0.333029        -9.0622
  65   2.0000      -0.328041        -8.9264
  66   2.0000      -0.294019        -8.0007
  67   0.0000       0.028842         0.7848
  68   0.0000       0.069265         1.8848
  69   0.0000       0.108357         2.9486
  70   0.0000       0.124223         3.3803
  71   0.0000       0.132815         3.6141

MULLIKEN ATOMIC CHARGES
-----------------------
   0 S :    0.115193
   1 C :   -0.089473
   2 C :   -0.101245
   3 C :    0.015046
   4 C :   -0.130881
   5 H :    0.018676
   6 C :    0.065483
   7 H :    0.025801
   8 H :    0.055091
   9 C :   -0.078745
  10 H :    0.010792
  11 H :    0.017336
  12 C :   -0.029107
  13 H :    0.046368
  14 H :    0.025855
  15 H :    0.044509
  16 S :    0.094714
  17 C :   -0.080493
  18 C :   -0.057070
  19 C :   -0.064642
  20 C :   -0.157154
  21 H :    0.042754
  22 C :    0.077587
  23 H :    0.031141
  24 H :    0.010054
  25 C :   -0.070085
  26 H :    0.013396
  27 H :    0.029529
  28 C :   -0.042031
  29 H :    0.027904
  30 H :    0.044835
  31 H :    0.026570
  32 H :    0.001971
  33 H :    0.060318
Sum of atomic charges:   -0.0000000

LOEWDIN ATOMIC CHARGES
----------------------
   0 S :    0.416535
   1 C :   -0.182176
   2 C :   -0.063784
   3 C :   -0.063502
   4 C :   -0.200681
   5 H :    0.029567
   6 C :   -0.028477
   7 H :    0.031332
   8 H :    0.041395
   9 C :   -0.052152
  10 H :    0.021417
  11 H :    0.019730
  12 C :   -0.061594
  13 H :    0.037698
  14 H :    0.019198
  15 H :    0.032750
  16 S :    0.395472
  17 C :   -0.190000
  18 C :   -0.073115
  19 C :   -0.059332
  20 C :   -0.187634
  21 H :    0.037830
  22 C :   -0.040264
  23 H :    0.034200
  24 H :    0.033993
  25 C :   -0.051805
  26 H :    0.020821
  27 H :    0.036618
  28 C :   -0.064884
  29 H :    0.023003
  30 H :    0.033617
  31 H :    0.019615
  32 H :    0.003920
  33 H :    0.030691

  Mayer bond orders larger than 0.100000
B(  0-S ,  1-C ) :   1.1347 B(  0-S ,  4-C ) :   1.1617 B(  1-C ,  2-C ) :   1.5937
B(  1-C , 32-H ) :   0.9804 B(  2-C ,  3-C ) :   1.2682 B(  2-C ,  6-C ) :   0.9973
B(  3-C ,  4-C ) :   1.5567 B(  3-C ,  5-H ) :   0.9868 B(  4-C , 20-C ) :   1.0245
B(  6-C ,  7-H ) :   0.9472 B(  6-C ,  8-H ) :   0.9385 B(  6-C ,  9-C ) :   1.0720
B(  9-C , 10-H ) :   0.9524 B(  9-C , 11-H ) :   0.9489 B(  9-C , 12-C ) :   1.0805
B( 12-C , 13-H ) :   0.9708 B( 12-C , 14-H ) :   0.9693 B( 12-C , 15-H ) :   0.9708
B( 16-S , 17-C ) :   1.1380 B( 16-S , 20-C ) :   1.1441 B( 17-C , 18-C ) :   1.6152
B( 17-C , 33-H ) :   0.9666 B( 18-C , 19-C ) :   1.2457 B( 18-C , 21-H ) :   0.9688
B( 19-C , 20-C ) :   1.6105 B( 19-C , 22-C ) :   1.0521 B( 22-C , 23-H ) :   0.9358
B( 22-C , 24-H ) :   0.9206 B( 22-C , 25-C ) :   1.0680 B( 25-C , 26-H ) :   0.9533
B( 25-C , 27-H ) :   0.9482 B( 25-C , 28-C ) :   1.0702 B( 28-C , 29-H ) :   0.9765
B( 28-C , 30-H ) :   0.9709 B( 28-C , 31-H ) :   0.9720

Dispersion correction           -0.014291725
FINAL SINGLE POINT ENERGY     -1339.868564048669

DIPOLE MOMENT
-------------
                                X             Y             Z
Electronic contribution:     22.29213       7.44864      11.23461
Nuclear contribution   :    -22.71798      -7.73650     -11.68206
                        -----------------------------------------
Total Dipole Moment    :     -0.42586      -0.28786      -0.44745
                        -----------------------------------------
Magnitude (a.u.)       :      0.68149
Magnitude (Debye)      :      1.73221

Rotational constants in cm-1:     0.020177     0.008370     0.006513
Rotational constants in MHz :   604.899077   250.931837   195.241997

                             ****ORCA TERMINATED NORMALLY****
TOTAL RUN TIME: 0 days 0 hours 0 minutes 21 seconds 662 msec
