                         Program Version 4.2.1 -  RELEASE  -
|  1> ! wB97X-D3 SP def2-SVP
|  2> %pal
|  3> nprocs 24
|  4> end
|  5>
|  6> * xyz 0 1
|  7> S 	 14.8517 	 -9.93595 	 -126.024
|  8> C 	 13.5503 	 -10.774 	 -125.189
|  9> C 	 13.8363 	 -12.1318 	 -124.993
| 10> C 	 15.135 	 -12.4178 	 -125.499
| 11> C 	 15.8677 	 -11.3246 	 -125.999
| 12> H 	 15.5478 	 -13.4499 	 -125.4
| 13> C 	 12.9878 	 -13.1767 	 -124.325
| 14> H 	 12.6416 	 -12.9096 	 -123.308
| 15> H 	 13.5595 	 -14.1256 	 -124.275
| 16> C 	 11.7493 	 -13.6303 	 -125.132
| 17> H 	 11.3233 	 -14.4702 	 -124.591
| 18> H 	 10.9299 	 -12.9678 	 -125.083
| 19> C 	 12.1506 	 -14.0365 	 -126.653
| 20> H 	 13.0344 	 -14.5705 	 -126.713
| 21> H 	 11.4102 	 -14.6303 	 -127.074
| 22> H 	 12.1613 	 -13.1528 	 -127.217
| 23> S 	 17.3966 	 -11.4287 	 -128.263
| 24> C 	 19.1355 	 -11.3968 	 -128.075
| 25> C 	 19.5177 	 -11.2865 	 -126.712
| 26> C 	 18.3746 	 -11.1045 	 -125.889
| 27> C 	 17.1952 	 -11.3142 	 -126.512
| 28> H 	 20.5444 	 -11.2238 	 -126.251
| 29> C 	 18.5495 	 -10.7822 	 -124.413
| 30> H 	 19.5297 	 -11.108 	 -124.112
| 31> H 	 17.9295 	 -11.4862 	 -123.975
| 32> C 	 18.4092 	 -9.33997 	 -124.138
| 33> H 	 18.5417 	 -9.13529 	 -123.102
| 34> H 	 17.3302 	 -9.0713 	 -124.345
| 35> C 	 19.2491 	 -8.47206 	 -125.033
| 36> H 	 19.0633 	 -8.55355 	 -126.101
| 37> H 	 20.238 	 -8.86045 	 -124.947
| 38> H 	 19.1066 	 -7.44496 	 -124.782
| 39> H 	 12.7205 	 -10.2258 	 -124.843
| 40> H 	 19.836 	 -11.2908 	 -128.938
| 41> *
| 42>
| 43>                          ****END OF INPUT****

CARTESIAN COORDINATES (ANGSTROEM)
---------------------------------
  S     14.851700   -9.935950  -126.024000
  C     13.550300  -10.774000  -125.189000
  C     13.836300  -12.131800  -124.993000
  C     15.135000  -12.417800  -125.499000
  C     15.867700  -11.324600  -125.999000
  H     15.547800  -13.449900  -125.400000
  C     12.987800  -13.176700  -124.325000
  H     12.641600  -12.909600  -123.308000
  H     13.559500  -14.125600  -124.275000
  C     11.749300  -13.630300  -125.132000
  H     11.323300  -14.470200  -124.591000
  H     10.929900  -12.967800  -125.083000
  C     12.150600  -14.036500  -126.653000
  H     13.034400  -14.570500  -126.713000
  H     11.410200  -14.630300  -127.074000
  H     12.161300  -13.152800  -127.217000
  S     17.396600  -11.428700  -128.263000
  C     19.135500  -11.396800  -128.075000
  C     19.517700  -11.286500  -126.712000
  C     18.374600  -11.104500  -125.889000
  C     17.195200  -11.314200  -126.512000
  H     20.544400  -11.223800  -126.251000
  C     18.549500  -10.782200  -124.413000
  H     19.529700  -11.108000  -124.112000
  H     17.929500  -11.486200  -123.975000
  C     18.409200   -9.339970  -124.138000
  H     18.541700   -9.135290  -123.102000
  H     17.330200   -9.071300  -124.345000
  C     19.249100   -8.472060  -125.033000
  H     19.063300   -8.553550  -126.101000
  H     20.238000   -8.860450  -124.947000
  H     19.106600   -7.444960  -124.782000
  H     12.720500  -10.225800  -124.843000
  H     19.836000  -11.290800  -128.938000

 Total Charge           Charge          ....    0
 Multiplicity           Mult            ....    1
 Number of Electrons    NEL             ....  134
 Basis Dimension        Dim             ....  322

ORBITAL ENERGIES
----------------

  NO   OCC          E(Eh)            E(eV)
   0   2.0000     -88.967872     -2420.9389
   1   2.0000     -88.965318     -2420.8694
   2   2.0000     -10.325627      -280.9746
   3   2.0000     -10.324946      -280.9561
   4   2.0000     -10.316390      -280.7232
   5   2.0000     -10.313947      -280.6568
   6   2.0000     -10.302828      -280.3542
   7   2.0000     -10.299491      -280.2634
   8   2.0000     -10.297561      -280.2109
   9   2.0000     -10.297107      -280.1985
  10   2.0000     -10.293954      -280.1127
  11   2.0000     -10.286197      -279.9017
  12   2.0000     -10.275968      -279.6233
  13   2.0000     -10.275749      -279.6173
  14   2.0000     -10.264910      -279.3224
  15   2.0000     -10.264673      -279.3159
  16   2.0000      -8.082536      -219.9370
  17   2.0000      -8.079897      -219.8652
  18   2.0000      -6.040869      -164.3804
  19   2.0000      -6.038360      -164.3121
  20   2.0000      -6.036861      -164.2713
  21   2.0000      -6.034471      -164.2063
  22   2.0000      -6.033678      -164.1847
  23   2.0000      -6.030669      -164.1028
  24   2.0000      -1.008040       -27.4302
  25   2.0000      -0.983124       -26.7522
  26   2.0000      -0.919209       -25.0130
  27   2.0000      -0.908737       -24.7280
  28   2.0000      -0.864984       -23.5374
  29   2.0000      -0.848451       -23.0875
  30   2.0000      -0.842508       -22.9258
  31   2.0000      -0.805925       -21.9303
  32   2.0000      -0.789565       -21.4852
  33   2.0000      -0.777583       -21.1591
  34   2.0000      -0.710675       -19.3384
  35   2.0000      -0.705364       -19.1939
  36   2.0000      -0.688563       -18.7368
  37   2.0000      -0.665623       -18.1125
  38   2.0000      -0.642942       -17.4953
  39   2.0000      -0.609602       -16.5881
  40   2.0000      -0.591429       -16.0936
  41   2.0000      -0.567649       -15.4465
  42   2.0000      -0.566666       -15.4198
  43   2.0000      -0.551711       -15.0128
  44   2.0000      -0.549919       -14.9641
  45   2.0000      -0.536797       -14.6070
  46   2.0000      -0.514533       -14.0012
  47   2.0000      -0.508211       -13.8291
  48   2.0000      -0.503316       -13.6959
  49   2.0000      -0.491307       -13.3692
  50   2.0000      -0.484258       -13.1773
  51   2.0000      -0.480696       -13.0804
  52   2.0000      -0.472484       -12.8569
  53   2.0000      -0.465150       -12.6574
  54   2.0000      -0.461621       -12.5613
  55   2.0000      -0.449458       -12.2304
  56   2.0000      -0.441425       -12.0118
  57   2.0000      -0.439096       -11.9484
  58   2.0000      -0.437361       -11.9012
  59   2.0000      -0.425781       -11.5861
  60   2.0000      -0.417075       -11.3492
  61   2.0000      -0.415693       -11.3116
  62   2.0000      -0.400569       -10.9000
  63   2.0000      -0.336023        -9.1437
  64   2.0000      -0.328314        -8.9339
  65   2.0000      -0.316555        -8.6139
  66   2.0000      -0.309357        -8.4180
  67   0.0000       0.042606         1.1594
  68   0.0000       0.047940         1.3045
  69   0.0000       0.115135         3.1330
  70   0.0000       0.120228         3.2716
  71   0.0000       0.125996         3.4285

MULLIKEN ATOMIC CHARGES
-----------------------
   0 S :    0.127417
   1 C :   -0.128190
   2 C :   -0.062369
   3 C :    0.032365
   4 C :   -0.191372
   5 H :    0.023390
   6 C :    0.051431
   7 H :    0.042893
   8 H :    0.026360
   9 C :   -0.083673
  10 H :    0.019910
  11 H :    0.014847
  12 C :    0.001902
  13 H :    0.016621
  14 H :    0.014941
  15 H :    0.036493
  16 S :    0.117953
  17 C :   -0.113188
  18 C :   -0.042265
  19 C :   -0.097136
  20 C :   -0.180764
  21 H :    0.039372
  22 C :    0.163654
  23 H :   -0.006762
  24 H :    0.008124
  25 C :   -0.050763
  26 H :    0.023690
  27 H :    0.020232
  28 C :   -0.018748
  29 H :    0.042144
  30 H :    0.004717
  31 H :    0.033387
  32 H :    0.035263
  33 H :    0.078124
Sum of atomic charges:   -0.0000000

LOEWDIN ATOMIC CHARGES
----------------------
   0 S :    0.430505
   1 C :   -0.186344
   2 C :   -0.064473
   3 C :   -0.060127
   4 C :   -0.217368
   5 H :    0.035411
   6 C :   -0.034143
   7 H :    0.036088
   8 H :    0.033913
   9 C :   -0.031410
  10 H :    0.020905
  11 H :    0.011975
  12 C :   -0.046572
  13 H :    0.015839
  14 H :    0.018793
  15 H :    0.025206
  16 S :    0.404966
  17 C :   -0.191136
  18 C :   -0.078978
  19 C :   -0.048262
  20 C :   -0.211332
  21 H :    0.040190
  22 C :   -0.022702
  23 H :    0.022240
  24 H :    0.024794
  25 C :   -0.039264
  26 H :    0.020609
  27 H :    0.022766
  28 C :   -0.057756
  29 H :    0.030061
  30 H :    0.016887
  31 H :    0.025771
  32 H :    0.015870
  33 H :    0.037077

  Mayer bond orders larger than 0.100000
B(  0-S ,  1-C ) :   1.1658 B(  0-S ,  4-C ) :   1.1719 B(  1-C ,  2-C ) :   1.5490
B(  1-C ,  4-C ) :   0.1123 B(  1-C , 32-H ) :   0.9804 B(  2-C ,  3-C ) :   1.2885
B(  2-C ,  6-C ) :   1.0263 B(  3-C ,  4-C ) :   1.5476 B(  3-C ,  5-H ) :   0.9821
B(  4-C , 20-C ) :   1.0287 B(  6-C ,  7-H ) :   0.9406 B(  6-C ,  8-H ) :   0.9440
B(  6-C ,  9-C ) :   1.0711 B(  9-C , 10-H ) :   0.9614 B(  9-C , 11-H ) :   0.9605
B(  9-C , 12-C ) :   1.0580 B( 12-C , 13-H ) :   0.9810 B( 12-C , 14-H ) :   0.9755
B( 12-C , 15-H ) :   0.9744 B( 16-S , 17-C ) :   1.1734 B( 16-S , 20-C ) :   1.1293
B( 17-C , 18-C ) :   1.5735 B( 17-C , 20-C ) :   0.1044 B( 17-C , 33-H ) :   0.9618
B( 18-C , 19-C ) :   1.2604 B( 18-C , 21-H ) :   0.9762 B( 19-C , 20-C ) :   1.6350
B( 19-C , 22-C ) :   1.0150 B( 22-C , 23-H ) :   0.9259 B( 22-C , 24-H ) :   0.9205
B( 22-C , 25-C ) :   1.0770 B( 25-C , 26-H ) :   0.9561 B( 25-C , 27-H ) :   0.9467
B( 25-C , 28-C ) :   1.0811 B( 28-C , 29-H ) :   0.9635 B( 28-C , 30-H ) :   0.9731
B( 28-C , 31-H ) :   0.9703

Dispersion correction           -0.015751831
FINAL SINGLE POINT ENERGY     -1339.864110629638

DIPOLE MOMENT
-------------
                                X             Y             Z
Electronic contribution:      4.07159       4.71148     -11.45708
Nuclear contribution   :     -4.14214      -4.87873      11.87024
                        -----------------------------------------
Total Dipole Moment    :     -0.07054      -0.16726       0.41315
                        -----------------------------------------
Magnitude (a.u.)       :      0.45127
Magnitude (Debye)      :      1.14704

Rotational constants in cm-1:     0.024544     0.008222     0.007196
Rotational constants in MHz :   735.800750   246.483701   215.744303

                             ****ORCA TERMINATED NORMALLY****
TOTAL RUN TIME: 0 days 0 hours 0 minutes 21 seconds 219 msec
