                         Program Version 4.2.1 -  RELEASE  -
|  1> ! wB97X-D3 SP def2-SVP
|  2> %pal
|  3> nprocs 24
|  4> end
|  5>
|  6> * xyz 0 1
|  7> S 	 -107.19 	 55.5868 	 -102.576
|  8> C 	 -108.421 	 54.2735 	 -102.696
|  9> C 	 -109.474 	 54.4468 	 -101.755
| 10> C 	 -109.177 	 55.5557 	 -100.899
| 11> C 	 -107.978 	 56.2431 	 -101.181
| 12> H 	 -109.761 	 55.9736 	 -100.103
| 13> C 	 -110.824 	 53.6902 	 -101.703
| 14> H 	 -110.736 	 52.8684 	 -102.418
| 15> H 	 -111.721 	 54.2183 	 -102.124
| 16> C 	 -111.29 	 53.0449 	 -100.404
| 17> H 	 -110.591 	 52.4075 	 -99.9507
| 18> H 	 -111.52 	 53.8408 	 -99.7675
| 19> C 	 -112.535 	 52.2407 	 -100.498
| 20> H 	 -112.402 	 51.4923 	 -101.239
| 21> H 	 -112.715 	 51.6657 	 -99.6731
| 22> H 	 -113.423 	 52.7603 	 -100.756
| 23> S 	 -106.689 	 57.1504 	 -99.0673
| 24> C 	 -105.973 	 58.7585 	 -98.8963
| 25> C 	 -106.282 	 59.4384 	 -100.07
| 26> C 	 -107.09 	 58.7202 	 -101.004
| 27> C 	 -107.404 	 57.4394 	 -100.6
| 28> H 	 -105.921 	 60.4262 	 -100.093
| 29> C 	 -107.324 	 59.3394 	 -102.37
| 30> H 	 -108.066 	 58.7115 	 -102.928
| 31> H 	 -106.311 	 59.3188 	 -102.827
| 32> C 	 -107.791 	 60.8231 	 -102.317
| 33> H 	 -107.825 	 61.3239 	 -103.259
| 34> H 	 -107.113 	 61.3786 	 -101.719
| 35> C 	 -109.164 	 61.057 	 -101.642
| 36> H 	 -109.214 	 62.0202 	 -101.268
| 37> H 	 -109.359 	 60.5679 	 -100.713
| 38> H 	 -109.961 	 60.8594 	 -102.345
| 39> H 	 -108.487 	 53.4452 	 -103.37
| 40> H 	 -105.406 	 59.1937 	 -98.0148
| 41> *
| 42>
| 43>                          ****END OF INPUT****

CARTESIAN COORDINATES (ANGSTROEM)
---------------------------------
  S    -107.190000   55.586800  -102.576000
  C    -108.421000   54.273500  -102.696000
  C    -109.474000   54.446800  -101.755000
  C    -109.177000   55.555700  -100.899000
  C    -107.978000   56.243100  -101.181000
  H    -109.761000   55.973600  -100.103000
  C    -110.824000   53.690200  -101.703000
  H    -110.736000   52.868400  -102.418000
  H    -111.721000   54.218300  -102.124000
  C    -111.290000   53.044900  -100.404000
  H    -110.591000   52.407500  -99.950700
  H    -111.520000   53.840800  -99.767500
  C    -112.535000   52.240700  -100.498000
  H    -112.402000   51.492300  -101.239000
  H    -112.715000   51.665700  -99.673100
  H    -113.423000   52.760300  -100.756000
  S    -106.689000   57.150400  -99.067300
  C    -105.973000   58.758500  -98.896300
  C    -106.282000   59.438400  -100.070000
  C    -107.090000   58.720200  -101.004000
  C    -107.404000   57.439400  -100.600000
  H    -105.921000   60.426200  -100.093000
  C    -107.324000   59.339400  -102.370000
  H    -108.066000   58.711500  -102.928000
  H    -106.311000   59.318800  -102.827000
  C    -107.791000   60.823100  -102.317000
  H    -107.825000   61.323900  -103.259000
  H    -107.113000   61.378600  -101.719000
  C    -109.164000   61.057000  -101.642000
  H    -109.214000   62.020200  -101.268000
  H    -109.359000   60.567900  -100.713000
  H    -109.961000   60.859400  -102.345000
  H    -108.487000   53.445200  -103.370000
  H    -105.406000   59.193700  -98.014800

 Total Charge           Charge          ....    0
 Multiplicity           Mult            ....    1
 Number of Electrons    NEL             ....  134
 Basis Dimension        Dim             ....  322

ORBITAL ENERGIES
----------------

  NO   OCC          E(Eh)            E(eV)
   0   2.0000     -88.972612     -2421.0679
   1   2.0000     -88.959448     -2420.7097
   2   2.0000     -10.331588      -281.1368
   3   2.0000     -10.323926      -280.9283
   4   2.0000     -10.323455      -280.9155
   5   2.0000     -10.322789      -280.8974
   6   2.0000     -10.312868      -280.6274
   7   2.0000     -10.304116      -280.3892
   8   2.0000     -10.299375      -280.2602
   9   2.0000     -10.297660      -280.2136
  10   2.0000     -10.295867      -280.1648
  11   2.0000     -10.290292      -280.0131
  12   2.0000     -10.281504      -279.7740
  13   2.0000     -10.273195      -279.5478
  14   2.0000     -10.262769      -279.2641
  15   2.0000     -10.261953      -279.2419
  16   2.0000      -8.086123      -220.0346
  17   2.0000      -8.074613      -219.7214
  18   2.0000      -6.044653      -164.4834
  19   2.0000      -6.040714      -164.3762
  20   2.0000      -6.037003      -164.2752
  21   2.0000      -6.033194      -164.1716
  22   2.0000      -6.028753      -164.0507
  23   2.0000      -6.025531      -163.9630
  24   2.0000      -1.007870       -27.4255
  25   2.0000      -0.978841       -26.6356
  26   2.0000      -0.918362       -24.9899
  27   2.0000      -0.904552       -24.6141
  28   2.0000      -0.874868       -23.8064
  29   2.0000      -0.849703       -23.1216
  30   2.0000      -0.843455       -22.9516
  31   2.0000      -0.813766       -22.1437
  32   2.0000      -0.787387       -21.4259
  33   2.0000      -0.773835       -21.0571
  34   2.0000      -0.713678       -19.4202
  35   2.0000      -0.703488       -19.1429
  36   2.0000      -0.692527       -18.8446
  37   2.0000      -0.661717       -18.0062
  38   2.0000      -0.642682       -17.4883
  39   2.0000      -0.616556       -16.7774
  40   2.0000      -0.591593       -16.0981
  41   2.0000      -0.582659       -15.8549
  42   2.0000      -0.569006       -15.4834
  43   2.0000      -0.550420       -14.9777
  44   2.0000      -0.540026       -14.6949
  45   2.0000      -0.528590       -14.3837
  46   2.0000      -0.525867       -14.3096
  47   2.0000      -0.510526       -13.8921
  48   2.0000      -0.501665       -13.6510
  49   2.0000      -0.500784       -13.6270
  50   2.0000      -0.491453       -13.3731
  51   2.0000      -0.480457       -13.0739
  52   2.0000      -0.467496       -12.7212
  53   2.0000      -0.463745       -12.6191
  54   2.0000      -0.460454       -12.5296
  55   2.0000      -0.447947       -12.1893
  56   2.0000      -0.439810       -11.9678
  57   2.0000      -0.436719       -11.8837
  58   2.0000      -0.431915       -11.7530
  59   2.0000      -0.426483       -11.6052
  60   2.0000      -0.421555       -11.4711
  61   2.0000      -0.413908       -11.2630
  62   2.0000      -0.409643       -11.1470
  63   2.0000      -0.338159        -9.2018
  64   2.0000      -0.334257        -9.0956
  65   2.0000      -0.322050        -8.7634
  66   2.0000      -0.301216        -8.1965
  67   0.0000       0.034707         0.9444
  68   0.0000       0.060721         1.6523
  69   0.0000       0.103441         2.8148
  70   0.0000       0.124045         3.3754
  71   0.0000       0.126777         3.4498

MULLIKEN ATOMIC CHARGES
-----------------------
   0 S :    0.132589
   1 C :   -0.102250
   2 C :   -0.066422
   3 C :    0.061218
   4 C :   -0.185051
   5 H :    0.006869
   6 C :    0.034141
   7 H :   -0.000921
   8 H :    0.046774
   9 C :   -0.031428
  10 H :    0.020116
  11 H :    0.015890
  12 C :    0.004157
  13 H :    0.000765
  14 H :    0.009245
  15 H :    0.019226
  16 S :    0.099766
  17 C :   -0.126015
  18 C :   -0.052790
  19 C :   -0.015856
  20 C :   -0.164247
  21 H :    0.008645
  22 C :    0.064792
  23 H :    0.038042
  24 H :    0.051829
  25 C :   -0.061678
  26 H :    0.026208
  27 H :    0.009033
  28 C :   -0.025016
  29 H :    0.004648
  30 H :    0.021976
  31 H :    0.033123
  32 H :    0.036415
  33 H :    0.086207
Sum of atomic charges:    0.0000000

LOEWDIN ATOMIC CHARGES
----------------------
   0 S :    0.414396
   1 C :   -0.182824
   2 C :   -0.055606
   3 C :   -0.055451
   4 C :   -0.209260
   5 H :    0.029159
   6 C :   -0.035134
   7 H :    0.024092
   8 H :    0.041051
   9 C :   -0.034205
  10 H :    0.022364
  11 H :    0.017063
  12 C :   -0.051214
  13 H :    0.020588
  14 H :    0.019093
  15 H :    0.020635
  16 S :    0.419984
  17 C :   -0.193818
  18 C :   -0.074877
  19 C :   -0.063062
  20 C :   -0.219342
  21 H :    0.023120
  22 C :   -0.031889
  23 H :    0.031951
  24 H :    0.041178
  25 C :   -0.034904
  26 H :    0.023769
  27 H :    0.014982
  28 C :   -0.062371
  29 H :    0.018406
  30 H :    0.024713
  31 H :    0.024198
  32 H :    0.023785
  33 H :    0.049431

  Mayer bond orders larger than 0.100000
B(  0-S ,  1-C ) :   1.1442 B(  0-S ,  4-C ) :   1.1518 B(  1-C ,  2-C ) :   1.6074
B(  1-C ,  4-C ) :   0.1072 B(  1-C , 32-H ) :   0.9651 B(  2-C ,  3-C ) :   1.2363
B(  2-C ,  6-C ) :   1.0199 B(  3-C ,  4-C ) :   1.5818 B(  3-C ,  5-H ) :   0.9934
B(  4-C , 20-C ) :   1.0012 B(  6-C ,  7-H ) :   0.9360 B(  6-C ,  8-H ) :   0.9441
B(  6-C ,  9-C ) :   1.0659 B(  9-C , 10-H ) :   0.9537 B(  9-C , 11-H ) :   0.9491
B(  9-C , 12-C ) :   1.1042 B( 12-C , 13-H ) :   0.9666 B( 12-C , 14-H ) :   0.9673
B( 12-C , 15-H ) :   0.9708 B( 16-S , 17-C ) :   1.1577 B( 16-S , 20-C ) :   1.1626
B( 17-C , 18-C ) :   1.6010 B( 17-C , 20-C ) :   0.1033 B( 17-C , 33-H ) :   0.9607
B( 18-C , 19-C ) :   1.2237 B( 18-C , 21-H ) :   0.9988 B( 19-C , 20-C ) :   1.5850
B( 19-C , 22-C ) :   1.0336 B( 22-C , 23-H ) :   0.9414 B( 22-C , 24-H ) :   0.9366
B( 22-C , 25-C ) :   1.0679 B( 25-C , 26-H ) :   0.9568 B( 25-C , 27-H ) :   0.9572
B( 25-C , 28-C ) :   1.0815 B( 28-C , 29-H ) :   0.9701 B( 28-C , 30-H ) :   0.9701
B( 28-C , 31-H ) :   0.9787

Dispersion correction           -0.013683073
FINAL SINGLE POINT ENERGY     -1339.851943711532

DIPOLE MOMENT
-------------
                                X             Y             Z
Electronic contribution:     20.32707      -1.85858       3.05815
Nuclear contribution   :    -20.68123       2.05109      -3.11221
                        -----------------------------------------
Total Dipole Moment    :     -0.35416       0.19251      -0.05406
                        -----------------------------------------
Magnitude (a.u.)       :      0.40671
Magnitude (Debye)      :      1.03377

Rotational constants in cm-1:     0.021526     0.006819     0.006507
Rotational constants in MHz :   645.346400   204.439995   195.087109

                             ****ORCA TERMINATED NORMALLY****
TOTAL RUN TIME: 0 days 0 hours 0 minutes 19 seconds 620 msec
