                         Program Version 4.2.1 -  RELEASE  -
|  1> ! wB97X-D3 SP def2-SVP
|  2> %pal
|  3> nprocs 24
|  4> end
|  5>
|  6> * xyz 0 1
|  7> S 	 -125.752 	 60.3432 	 -59.6761
|  8> C 	 -127.038 	 60.7885 	 -60.6885
|  9> C 	 -128.054 	 61.2387 	 -59.9296
| 10> C 	 -127.799 	 61.3316 	 -58.5577
| 11> C 	 -126.522 	 60.9341 	 -58.1989
| 12> H 	 -128.501 	 61.6798 	 -57.8092
| 13> C 	 -129.383 	 61.6514 	 -60.437
| 14> H 	 -130.098 	 61.7003 	 -59.6026
| 15> H 	 -129.65 	 60.8747 	 -61.1469
| 16> C 	 -129.569 	 62.9503 	 -61.1889
| 17> H 	 -130.626 	 63.049 	 -61.3166
| 18> H 	 -129.184 	 63.7275 	 -60.6082
| 19> C 	 -128.926 	 62.9035 	 -62.63
| 20> H 	 -129.228 	 63.7602 	 -63.306
| 21> H 	 -127.852 	 62.8912 	 -62.5908
| 22> H 	 -129.215 	 62.0223 	 -63.218
| 23> S 	 -124.456 	 61.7996 	 -56.7002
| 24> C 	 -124.572 	 61.5835 	 -55.0022
| 25> C 	 -125.777 	 61.171 	 -54.5374
| 26> C 	 -126.599 	 60.7804 	 -55.6087
| 27> C 	 -125.975 	 60.9479 	 -56.8605
| 28> H 	 -126.043 	 61.2002 	 -53.4942
| 29> C 	 -127.863 	 60.0029 	 -55.4273
| 30> H 	 -128.662 	 60.5666 	 -55.9191
| 31> H 	 -128.164 	 60.1028 	 -54.3551
| 32> C 	 -127.846 	 58.5129 	 -55.9038
| 33> H 	 -127.548 	 58.3967 	 -56.9828
| 34> H 	 -128.838 	 58.1234 	 -55.7594
| 35> C 	 -126.741 	 57.6928 	 -55.1913
| 36> H 	 -125.78 	 57.846 	 -55.6399
| 37> H 	 -126.933 	 56.5733 	 -55.215
| 38> H 	 -126.643 	 57.9777 	 -54.1662
| 39> H 	 -127.038 	 60.7852 	 -61.777
| 40> H 	 -123.731 	 61.8497 	 -54.3468
| 41> *
| 42>
| 43>                          ****END OF INPUT****

CARTESIAN COORDINATES (ANGSTROEM)
---------------------------------
  S    -125.752000   60.343200  -59.676100
  C    -127.038000   60.788500  -60.688500
  C    -128.054000   61.238700  -59.929600
  C    -127.799000   61.331600  -58.557700
  C    -126.522000   60.934100  -58.198900
  H    -128.501000   61.679800  -57.809200
  C    -129.383000   61.651400  -60.437000
  H    -130.098000   61.700300  -59.602600
  H    -129.650000   60.874700  -61.146900
  C    -129.569000   62.950300  -61.188900
  H    -130.626000   63.049000  -61.316600
  H    -129.184000   63.727500  -60.608200
  C    -128.926000   62.903500  -62.630000
  H    -129.228000   63.760200  -63.306000
  H    -127.852000   62.891200  -62.590800
  H    -129.215000   62.022300  -63.218000
  S    -124.456000   61.799600  -56.700200
  C    -124.572000   61.583500  -55.002200
  C    -125.777000   61.171000  -54.537400
  C    -126.599000   60.780400  -55.608700
  C    -125.975000   60.947900  -56.860500
  H    -126.043000   61.200200  -53.494200
  C    -127.863000   60.002900  -55.427300
  H    -128.662000   60.566600  -55.919100
  H    -128.164000   60.102800  -54.355100
  C    -127.846000   58.512900  -55.903800
  H    -127.548000   58.396700  -56.982800
  H    -128.838000   58.123400  -55.759400
  C    -126.741000   57.692800  -55.191300
  H    -125.780000   57.846000  -55.639900
  H    -126.933000   56.573300  -55.215000
  H    -126.643000   57.977700  -54.166200
  H    -127.038000   60.785200  -61.777000
  H    -123.731000   61.849700  -54.346800

 Total Charge           Charge          ....    0
 Multiplicity           Mult            ....    1
 Number of Electrons    NEL             ....  134
 Basis Dimension        Dim             ....  322

ORBITAL ENERGIES
----------------

  NO   OCC          E(Eh)            E(eV)
   0   2.0000     -88.966150     -2420.8920
   1   2.0000     -88.963159     -2420.8106
   2   2.0000     -10.326594      -281.0009
   3   2.0000     -10.323306      -280.9114
   4   2.0000     -10.313825      -280.6534
   5   2.0000     -10.305931      -280.4386
   6   2.0000     -10.302263      -280.3388
   7   2.0000     -10.294279      -280.1216
   8   2.0000     -10.290614      -280.0219
   9   2.0000     -10.289410      -279.9891
  10   2.0000     -10.286603      -279.9127
  11   2.0000     -10.286176      -279.9011
  12   2.0000     -10.283217      -279.8206
  13   2.0000     -10.282124      -279.7908
  14   2.0000     -10.281578      -279.7760
  15   2.0000     -10.271855      -279.5114
  16   2.0000      -8.081875      -219.9190
  17   2.0000      -8.078508      -219.8274
  18   2.0000      -6.040088      -164.3592
  19   2.0000      -6.036976      -164.2745
  20   2.0000      -6.036409      -164.2590
  21   2.0000      -6.032804      -164.1610
  22   2.0000      -6.032710      -164.1584
  23   2.0000      -6.029380      -164.0678
  24   2.0000      -1.014242       -27.5989
  25   2.0000      -0.995203       -27.0808
  26   2.0000      -0.914668       -24.8894
  27   2.0000      -0.905607       -24.6428
  28   2.0000      -0.874222       -23.7888
  29   2.0000      -0.851242       -23.1635
  30   2.0000      -0.845555       -23.0087
  31   2.0000      -0.812809       -22.1177
  32   2.0000      -0.781848       -21.2752
  33   2.0000      -0.772750       -21.0276
  34   2.0000      -0.712500       -19.3881
  35   2.0000      -0.702507       -19.1162
  36   2.0000      -0.688930       -18.7467
  37   2.0000      -0.665744       -18.1158
  38   2.0000      -0.640462       -17.4279
  39   2.0000      -0.620255       -16.8780
  40   2.0000      -0.593686       -16.1550
  41   2.0000      -0.576908       -15.6985
  42   2.0000      -0.550180       -14.9712
  43   2.0000      -0.546256       -14.8644
  44   2.0000      -0.544073       -14.8050
  45   2.0000      -0.537368       -14.6225
  46   2.0000      -0.519028       -14.1235
  47   2.0000      -0.509895       -13.8749
  48   2.0000      -0.497902       -13.5486
  49   2.0000      -0.495119       -13.4729
  50   2.0000      -0.488467       -13.2919
  51   2.0000      -0.481821       -13.1110
  52   2.0000      -0.473394       -12.8817
  53   2.0000      -0.472893       -12.8681
  54   2.0000      -0.461817       -12.5667
  55   2.0000      -0.449086       -12.2202
  56   2.0000      -0.438664       -11.9367
  57   2.0000      -0.435754       -11.8575
  58   2.0000      -0.430837       -11.7237
  59   2.0000      -0.427671       -11.6375
  60   2.0000      -0.424322       -11.5464
  61   2.0000      -0.413166       -11.2428
  62   2.0000      -0.409837       -11.1522
  63   2.0000      -0.349330        -9.5058
  64   2.0000      -0.333357        -9.0711
  65   2.0000      -0.327000        -8.8981
  66   2.0000      -0.288339        -7.8461
  67   0.0000       0.023465         0.6385
  68   0.0000       0.077011         2.0956
  69   0.0000       0.108874         2.9626
  70   0.0000       0.118823         3.2333
  71   0.0000       0.143040         3.8923

MULLIKEN ATOMIC CHARGES
-----------------------
   0 S :    0.110283
   1 C :   -0.124372
   2 C :   -0.071139
   3 C :    0.010039
   4 C :   -0.142126
   5 H :    0.008013
   6 C :    0.043796
   7 H :    0.018907
   8 H :    0.018714
   9 C :    0.006906
  10 H :    0.027241
  11 H :    0.018533
  12 C :   -0.105966
  13 H :    0.043048
  14 H :    0.036756
  15 H :    0.025216
  16 S :    0.117841
  17 C :   -0.087331
  18 C :   -0.027184
  19 C :   -0.050263
  20 C :   -0.157372
  21 H :    0.016610
  22 C :    0.052502
  23 H :    0.019021
  24 H :    0.018745
  25 C :   -0.053241
  26 H :    0.054353
  27 H :    0.031357
  28 C :   -0.062587
  29 H :    0.039132
  30 H :    0.041581
  31 H :    0.016122
  32 H :    0.048458
  33 H :    0.058409
Sum of atomic charges:    0.0000000

LOEWDIN ATOMIC CHARGES
----------------------
   0 S :    0.418400
   1 C :   -0.214024
   2 C :   -0.077304
   3 C :   -0.062082
   4 C :   -0.197457
   5 H :    0.029689
   6 C :   -0.033466
   7 H :    0.030800
   8 H :    0.030006
   9 C :   -0.023505
  10 H :    0.024411
  11 H :    0.017071
  12 C :   -0.076495
  13 H :    0.033175
  14 H :    0.019084
  15 H :    0.022492
  16 S :    0.428411
  17 C :   -0.186914
  18 C :   -0.072830
  19 C :   -0.053263
  20 C :   -0.204531
  21 H :    0.034798
  22 C :   -0.037988
  23 H :    0.027823
  24 H :    0.031935
  25 C :   -0.034271
  26 H :    0.036460
  27 H :    0.021476
  28 C :   -0.068746
  29 H :    0.025226
  30 H :    0.033670
  31 H :    0.015245
  32 H :    0.033782
  33 H :    0.028920

  Mayer bond orders larger than 0.100000
B(  0-S ,  1-C ) :   1.1420 B(  0-S ,  4-C ) :   1.1580 B(  1-C ,  2-C ) :   1.5833
B(  1-C , 32-H ) :   0.9663 B(  2-C ,  3-C ) :   1.2848 B(  2-C ,  6-C ) :   1.0246
B(  3-C ,  4-C ) :   1.5340 B(  3-C ,  5-H ) :   0.9968 B(  4-C , 20-C ) :   1.0546
B(  6-C ,  7-H ) :   0.9394 B(  6-C ,  8-H ) :   0.9339 B(  6-C ,  9-C ) :   1.0846
B(  9-C , 10-H ) :   0.9537 B(  9-C , 11-H ) :   0.9535 B(  9-C , 12-C ) :   1.0715
B( 12-C , 13-H ) :   0.9741 B( 12-C , 14-H ) :   0.9751 B( 12-C , 15-H ) :   0.9755
B( 16-S , 17-C ) :   1.1770 B( 16-S , 20-C ) :   1.1560 B( 17-C , 18-C ) :   1.5875
B( 17-C , 20-C ) :   0.1012 B( 17-C , 33-H ) :   0.9618 B( 18-C , 19-C ) :   1.2617
B( 18-C , 21-H ) :   0.9990 B( 19-C , 20-C ) :   1.5510 B( 19-C , 22-C ) :   1.0491
B( 22-C , 23-H ) :   0.9246 B( 22-C , 24-H ) :   0.9350 B( 22-C , 25-C ) :   1.0688
B( 25-C , 26-H ) :   0.9571 B( 25-C , 27-H ) :   0.9592 B( 25-C , 28-C ) :   1.0614
B( 28-C , 29-H ) :   0.9754 B( 28-C , 30-H ) :   0.9755 B( 28-C , 31-H ) :   0.9793

Dispersion correction           -0.015266514
FINAL SINGLE POINT ENERGY     -1339.879366648292

DIPOLE MOMENT
-------------
                                X             Y             Z
Electronic contribution:     19.39332       3.45648       3.71074
Nuclear contribution   :    -19.95147      -3.33451      -3.49434
                        -----------------------------------------
Total Dipole Moment    :     -0.55815       0.12197       0.21639
                        -----------------------------------------
Magnitude (a.u.)       :      0.61093
Magnitude (Debye)      :      1.55286

Rotational constants in cm-1:     0.023259     0.007985     0.007189
Rotational constants in MHz :   697.274793   239.390499   215.532542

                             ****ORCA TERMINATED NORMALLY****
TOTAL RUN TIME: 0 days 0 hours 0 minutes 22 seconds 474 msec
