                         Program Version 4.2.1 -  RELEASE  -
|  1> ! wB97X-D3 SP def2-SVP
|  2> %pal
|  3> nprocs 24
|  4> end
|  5>
|  6> * xyz 0 1
|  7> S 	 -128.251 	 62.6725 	 -57.519
|  8> C 	 -127.723 	 61.147 	 -58.0269
|  9> C 	 -127.987 	 60.2316 	 -57.0705
| 10> C 	 -128.709 	 60.6656 	 -55.9303
| 11> C 	 -128.878 	 61.9988 	 -56.0655
| 12> H 	 -129.11 	 60.1494 	 -55.1272
| 13> C 	 -127.56 	 58.7715 	 -57.1941
| 14> H 	 -127.5 	 58.3025 	 -56.2392
| 15> H 	 -126.617 	 58.6751 	 -57.6046
| 16> C 	 -128.538 	 57.8718 	 -57.946
| 17> H 	 -129.623 	 58.0309 	 -57.6753
| 18> H 	 -128.46 	 57.9954 	 -59.0834
| 19> C 	 -128.297 	 56.4183 	 -57.6606
| 20> H 	 -128.362 	 56.2274 	 -56.576
| 21> H 	 -129.028 	 55.747 	 -58.0002
| 22> H 	 -127.303 	 56.1666 	 -58.0004
| 23> S 	 -130.927 	 63.6583 	 -55.5313
| 24> C 	 -131.329 	 64.2159 	 -53.8942
| 25> C 	 -130.329 	 63.739 	 -53.0865
| 26> C 	 -129.225 	 63.0285 	 -53.6185
| 27> C 	 -129.423 	 62.867 	 -54.9966
| 28> H 	 -130.376 	 63.9841 	 -52.0323
| 29> C 	 -128.158 	 62.3774 	 -52.721
| 30> H 	 -128.119 	 62.9253 	 -51.8019
| 31> H 	 -127.126 	 62.4572 	 -53.2306
| 32> C 	 -128.209 	 60.9075 	 -52.3398
| 33> H 	 -128.308 	 60.1862 	 -53.1588
| 34> H 	 -129.227 	 60.8249 	 -51.8146
| 35> C 	 -127.168 	 60.3793 	 -51.3959
| 36> H 	 -126.195 	 60.3147 	 -51.8027
| 37> H 	 -127.278 	 59.4244 	 -50.8713
| 38> H 	 -127.031 	 61.1001 	 -50.647
| 39> H 	 -127.341 	 60.8584 	 -59.013
| 40> H 	 -132.264 	 64.7335 	 -53.5875
| 41> *
| 42>
| 43>                          ****END OF INPUT****

CARTESIAN COORDINATES (ANGSTROEM)
---------------------------------
  S    -128.251000   62.672500  -57.519000
  C    -127.723000   61.147000  -58.026900
  C    -127.987000   60.231600  -57.070500
  C    -128.709000   60.665600  -55.930300
  C    -128.878000   61.998800  -56.065500
  H    -129.110000   60.149400  -55.127200
  C    -127.560000   58.771500  -57.194100
  H    -127.500000   58.302500  -56.239200
  H    -126.617000   58.675100  -57.604600
  C    -128.538000   57.871800  -57.946000
  H    -129.623000   58.030900  -57.675300
  H    -128.460000   57.995400  -59.083400
  C    -128.297000   56.418300  -57.660600
  H    -128.362000   56.227400  -56.576000
  H    -129.028000   55.747000  -58.000200
  H    -127.303000   56.166600  -58.000400
  S    -130.927000   63.658300  -55.531300
  C    -131.329000   64.215900  -53.894200
  C    -130.329000   63.739000  -53.086500
  C    -129.225000   63.028500  -53.618500
  C    -129.423000   62.867000  -54.996600
  H    -130.376000   63.984100  -52.032300
  C    -128.158000   62.377400  -52.721000
  H    -128.119000   62.925300  -51.801900
  H    -127.126000   62.457200  -53.230600
  C    -128.209000   60.907500  -52.339800
  H    -128.308000   60.186200  -53.158800
  H    -129.227000   60.824900  -51.814600
  C    -127.168000   60.379300  -51.395900
  H    -126.195000   60.314700  -51.802700
  H    -127.278000   59.424400  -50.871300
  H    -127.031000   61.100100  -50.647000
  H    -127.341000   60.858400  -59.013000
  H    -132.264000   64.733500  -53.587500

 Total Charge           Charge          ....    0
 Multiplicity           Mult            ....    1
 Number of Electrons    NEL             ....  134
 Basis Dimension        Dim             ....  322

ORBITAL ENERGIES
----------------

  NO   OCC          E(Eh)            E(eV)
   0   2.0000     -88.965708     -2420.8800
   1   2.0000     -88.961805     -2420.7738
   2   2.0000     -10.332711      -281.1674
   3   2.0000     -10.324612      -280.9470
   4   2.0000     -10.321771      -280.8697
   5   2.0000     -10.311012      -280.5769
   6   2.0000     -10.305952      -280.4392
   7   2.0000     -10.302774      -280.3527
   8   2.0000     -10.294651      -280.1317
   9   2.0000     -10.292589      -280.0756
  10   2.0000     -10.292335      -280.0687
  11   2.0000     -10.289193      -279.9832
  12   2.0000     -10.286344      -279.9057
  13   2.0000     -10.279878      -279.7297
  14   2.0000     -10.271719      -279.5077
  15   2.0000     -10.270311      -279.4694
  16   2.0000      -8.082154      -219.9266
  17   2.0000      -8.075914      -219.7568
  18   2.0000      -6.040477      -164.3697
  19   2.0000      -6.036436      -164.2598
  20   2.0000      -6.034477      -164.2065
  21   2.0000      -6.032980      -164.1657
  22   2.0000      -6.030309      -164.0931
  23   2.0000      -6.026822      -163.9982
  24   2.0000      -1.017853       -27.6972
  25   2.0000      -0.986680       -26.8489
  26   2.0000      -0.915575       -24.9140
  27   2.0000      -0.911721       -24.8092
  28   2.0000      -0.872573       -23.7439
  29   2.0000      -0.859122       -23.3779
  30   2.0000      -0.852169       -23.1887
  31   2.0000      -0.817809       -22.2537
  32   2.0000      -0.786329       -21.3971
  33   2.0000      -0.775072       -21.0908
  34   2.0000      -0.706320       -19.2200
  35   2.0000      -0.693306       -18.8658
  36   2.0000      -0.692788       -18.8517
  37   2.0000      -0.664537       -18.0830
  38   2.0000      -0.650660       -17.7054
  39   2.0000      -0.623093       -16.9552
  40   2.0000      -0.599101       -16.3024
  41   2.0000      -0.571194       -15.5430
  42   2.0000      -0.567873       -15.4526
  43   2.0000      -0.560492       -15.2518
  44   2.0000      -0.531958       -14.4753
  45   2.0000      -0.528026       -14.3683
  46   2.0000      -0.519617       -14.1395
  47   2.0000      -0.516511       -14.0550
  48   2.0000      -0.513584       -13.9753
  49   2.0000      -0.505178       -13.7466
  50   2.0000      -0.498288       -13.5591
  51   2.0000      -0.480277       -13.0690
  52   2.0000      -0.472000       -12.8438
  53   2.0000      -0.466400       -12.6914
  54   2.0000      -0.461962       -12.5706
  55   2.0000      -0.452908       -12.3243
  56   2.0000      -0.450675       -12.2635
  57   2.0000      -0.432925       -11.7805
  58   2.0000      -0.430959       -11.7270
  59   2.0000      -0.419838       -11.4244
  60   2.0000      -0.417224       -11.3532
  61   2.0000      -0.412904       -11.2357
  62   2.0000      -0.402987       -10.9658
  63   2.0000      -0.346177        -9.4200
  64   2.0000      -0.331134        -9.0106
  65   2.0000      -0.328714        -8.9448
  66   2.0000      -0.301453        -8.2030
  67   0.0000       0.034219         0.9312
  68   0.0000       0.068570         1.8659
  69   0.0000       0.116165         3.1610
  70   0.0000       0.121964         3.3188
  71   0.0000       0.133555         3.6342

MULLIKEN ATOMIC CHARGES
-----------------------
   0 S :    0.133847
   1 C :   -0.114175
   2 C :   -0.082979
   3 C :    0.053161
   4 C :   -0.130000
   5 H :   -0.002633
   6 C :    0.127319
   7 H :   -0.005171
   8 H :    0.003651
   9 C :   -0.116954
  10 H :    0.034852
  11 H :    0.034642
  12 C :   -0.026669
  13 H :    0.017624
  14 H :    0.023970
  15 H :    0.023685
  16 S :    0.081111
  17 C :   -0.096922
  18 C :   -0.060764
  19 C :    0.013045
  20 C :   -0.181295
  21 H :    0.014816
  22 C :    0.059788
  23 H :    0.015415
  24 H :    0.043020
  25 C :   -0.087645
  26 H :    0.024536
  27 H :    0.023959
  28 C :   -0.003822
  29 H :    0.012542
  30 H :    0.039026
  31 H :    0.000730
  32 H :    0.050274
  33 H :    0.078016
Sum of atomic charges:    0.0000000

LOEWDIN ATOMIC CHARGES
----------------------
   0 S :    0.442099
   1 C :   -0.220096
   2 C :   -0.058024
   3 C :   -0.048796
   4 C :   -0.201659
   5 H :    0.024355
   6 C :   -0.024992
   7 H :    0.024525
   8 H :    0.019906
   9 C :   -0.047554
  10 H :    0.028061
  11 H :    0.026207
  12 C :   -0.065344
  13 H :    0.023856
  14 H :    0.020041
  15 H :    0.021318
  16 S :    0.385743
  17 C :   -0.189536
  18 C :   -0.075538
  19 C :   -0.062148
  20 C :   -0.174385
  21 H :    0.026917
  22 C :   -0.031235
  23 H :    0.027784
  24 H :    0.042324
  25 C :   -0.049706
  26 H :    0.018973
  27 H :    0.028330
  28 C :   -0.065354
  29 H :    0.020340
  30 H :    0.034872
  31 H :    0.018072
  32 H :    0.036588
  33 H :    0.044057

  Mayer bond orders larger than 0.100000
B(  0-S ,  1-C ) :   1.1286 B(  0-S ,  4-C ) :   1.1835 B(  1-C ,  2-C ) :   1.6294
B(  1-C , 32-H ) :   0.9678 B(  2-C ,  3-C ) :   1.2190 B(  2-C ,  6-C ) :   1.0306
B(  3-C ,  4-C ) :   1.5707 B(  3-C ,  5-H ) :   1.0145 B(  4-C , 20-C ) :   0.9718
B(  6-C ,  7-H ) :   0.9392 B(  6-C ,  8-H ) :   0.9329 B(  6-C ,  9-C ) :   1.0577
B(  9-C , 10-H ) :   0.9587 B(  9-C , 11-H ) :   0.9528 B(  9-C , 12-C ) :   1.0891
B( 12-C , 13-H ) :   0.9702 B( 12-C , 14-H ) :   0.9720 B( 12-C , 15-H ) :   0.9729
B( 16-S , 17-C ) :   1.1325 B( 16-S , 20-C ) :   1.1721 B( 17-C , 18-C ) :   1.6070
B( 17-C , 20-C ) :   0.1058 B( 17-C , 33-H ) :   0.9671 B( 18-C , 19-C ) :   1.2479
B( 18-C , 21-H ) :   0.9799 B( 19-C , 20-C ) :   1.5810 B( 19-C , 22-C ) :   1.0512
B( 22-C , 23-H ) :   0.9266 B( 22-C , 24-H ) :   0.9342 B( 22-C , 25-C ) :   1.0640
B( 25-C , 26-H ) :   0.9497 B( 25-C , 27-H ) :   0.9500 B( 25-C , 28-C ) :   1.0843
B( 28-C , 29-H ) :   0.9690 B( 28-C , 30-H ) :   0.9717 B( 28-C , 31-H ) :   0.9680

Dispersion correction           -0.013886328
FINAL SINGLE POINT ENERGY     -1339.857549973259

DIPOLE MOMENT
-------------
                                X             Y             Z
Electronic contribution:     -9.90554      26.70382     -11.04240
Nuclear contribution   :     10.04882     -27.27520      11.48176
                        -----------------------------------------
Total Dipole Moment    :      0.14329      -0.57138       0.43936
                        -----------------------------------------
Magnitude (a.u.)       :      0.73487
Magnitude (Debye)      :      1.86790

Rotational constants in cm-1:     0.016856     0.008906     0.006746
Rotational constants in MHz :   505.333231   266.992004   202.233916

                             ****ORCA TERMINATED NORMALLY****
TOTAL RUN TIME: 0 days 0 hours 0 minutes 20 seconds 226 msec
