                         Program Version 4.2.1 -  RELEASE  -
|  1> ! wB97X-D3 SP def2-SVP
|  2> %pal
|  3> nprocs 24
|  4> end
|  5>
|  6> * xyz 0 1
|  7> S 	 -107.211 	 67.8671 	 -8.36429
|  8> C 	 -106.63 	 69.446 	 -9.03166
|  9> C 	 -107.065 	 69.6237 	 -10.3839
| 10> C 	 -107.864 	 68.5202 	 -10.8311
| 11> C 	 -108.156 	 67.5887 	 -9.82236
| 12> H 	 -108.191 	 68.3437 	 -11.8038
| 13> C 	 -106.601 	 70.7495 	 -11.3043
| 14> H 	 -105.714 	 70.3171 	 -11.8061
| 15> H 	 -106.373 	 71.6709 	 -10.8722
| 16> C 	 -107.544 	 71.1135 	 -12.4489
| 17> H 	 -107.824 	 70.2489 	 -13.0785
| 18> H 	 -108.335 	 71.5325 	 -11.9052
| 19> C 	 -107.018 	 72.2422 	 -13.3764
| 20> H 	 -107.74 	 72.5477 	 -14.1067
| 21> H 	 -106.784 	 73.1778 	 -12.8611
| 22> H 	 -106.151 	 71.9477 	 -13.9881
| 23> S 	 -107.751 	 64.8253 	 -10.0412
| 24> C 	 -109.182 	 63.7209 	 -10.2231
| 25> C 	 -110.304 	 64.4633 	 -10.4756
| 26> C 	 -110.106 	 65.8914 	 -10.3477
| 27> C 	 -108.739 	 66.2372 	 -10.0913
| 28> H 	 -111.303 	 64.1174 	 -10.5416
| 29> C 	 -111.301 	 66.7928 	 -10.33
| 30> H 	 -111.879 	 66.5875 	 -11.2752
| 31> H 	 -110.918 	 67.8145 	 -10.4648
| 32> C 	 -112.207 	 66.6771 	 -9.18901
| 33> H 	 -112.763 	 65.7052 	 -9.44162
| 34> H 	 -112.88 	 67.5967 	 -9.2144
| 35> C 	 -111.412 	 66.5764 	 -7.86632
| 36> H 	 -110.764 	 65.6829 	 -7.80463
| 37> H 	 -112.07 	 66.5497 	 -6.97808
| 38> H 	 -110.865 	 67.5152 	 -7.67371
| 39> H 	 -105.908 	 70.0229 	 -8.51737
| 40> H 	 -109.275 	 62.6332 	 -10.2253
| 41> *
| 42>
| 43>                          ****END OF INPUT****

CARTESIAN COORDINATES (ANGSTROEM)
---------------------------------
  S    -107.211000   67.867100   -8.364290
  C    -106.630000   69.446000   -9.031660
  C    -107.065000   69.623700  -10.383900
  C    -107.864000   68.520200  -10.831100
  C    -108.156000   67.588700   -9.822360
  H    -108.191000   68.343700  -11.803800
  C    -106.601000   70.749500  -11.304300
  H    -105.714000   70.317100  -11.806100
  H    -106.373000   71.670900  -10.872200
  C    -107.544000   71.113500  -12.448900
  H    -107.824000   70.248900  -13.078500
  H    -108.335000   71.532500  -11.905200
  C    -107.018000   72.242200  -13.376400
  H    -107.740000   72.547700  -14.106700
  H    -106.784000   73.177800  -12.861100
  H    -106.151000   71.947700  -13.988100
  S    -107.751000   64.825300  -10.041200
  C    -109.182000   63.720900  -10.223100
  C    -110.304000   64.463300  -10.475600
  C    -110.106000   65.891400  -10.347700
  C    -108.739000   66.237200  -10.091300
  H    -111.303000   64.117400  -10.541600
  C    -111.301000   66.792800  -10.330000
  H    -111.879000   66.587500  -11.275200
  H    -110.918000   67.814500  -10.464800
  C    -112.207000   66.677100   -9.189010
  H    -112.763000   65.705200   -9.441620
  H    -112.880000   67.596700   -9.214400
  C    -111.412000   66.576400   -7.866320
  H    -110.764000   65.682900   -7.804630
  H    -112.070000   66.549700   -6.978080
  H    -110.865000   67.515200   -7.673710
  H    -105.908000   70.022900   -8.517370
  H    -109.275000   62.633200  -10.225300

 Total Charge           Charge          ....    0
 Multiplicity           Mult            ....    1
 Number of Electrons    NEL             ....  134
 Basis Dimension        Dim             ....  322

ORBITAL ENERGIES
----------------

  NO   OCC          E(Eh)            E(eV)
   0   2.0000     -88.971089     -2421.0264
   1   2.0000     -88.968892     -2420.9666
   2   2.0000     -10.335200      -281.2351
   3   2.0000     -10.330099      -281.0963
   4   2.0000     -10.322896      -280.9003
   5   2.0000     -10.322744      -280.8961
   6   2.0000     -10.313943      -280.6566
   7   2.0000     -10.300981      -280.3039
   8   2.0000     -10.296999      -280.1956
   9   2.0000     -10.292197      -280.0649
  10   2.0000     -10.291854      -280.0556
  11   2.0000     -10.290643      -280.0226
  12   2.0000     -10.286708      -279.9156
  13   2.0000     -10.283038      -279.8157
  14   2.0000     -10.281005      -279.7604
  15   2.0000     -10.274918      -279.5947
  16   2.0000      -8.084362      -219.9867
  17   2.0000      -8.082555      -219.9375
  18   2.0000      -6.042814      -164.4333
  19   2.0000      -6.041342      -164.3933
  20   2.0000      -6.039094      -164.3321
  21   2.0000      -6.037130      -164.2786
  22   2.0000      -6.035233      -164.2270
  23   2.0000      -6.033149      -164.1703
  24   2.0000      -0.996804       -27.1244
  25   2.0000      -0.974284       -26.5116
  26   2.0000      -0.916370       -24.9357
  27   2.0000      -0.913444       -24.8561
  28   2.0000      -0.864962       -23.5368
  29   2.0000      -0.846430       -23.0325
  30   2.0000      -0.836303       -22.7570
  31   2.0000      -0.812774       -22.1167
  32   2.0000      -0.783675       -21.3249
  33   2.0000      -0.770146       -20.9567
  34   2.0000      -0.708371       -19.2758
  35   2.0000      -0.693764       -18.8783
  36   2.0000      -0.684995       -18.6397
  37   2.0000      -0.655848       -17.8465
  38   2.0000      -0.645941       -17.5770
  39   2.0000      -0.623169       -16.9573
  40   2.0000      -0.590039       -16.0558
  41   2.0000      -0.580935       -15.8081
  42   2.0000      -0.563623       -15.3370
  43   2.0000      -0.550811       -14.9883
  44   2.0000      -0.544471       -14.8158
  45   2.0000      -0.518792       -14.1170
  46   2.0000      -0.510541       -13.8925
  47   2.0000      -0.509242       -13.8572
  48   2.0000      -0.501634       -13.6502
  49   2.0000      -0.494034       -13.4433
  50   2.0000      -0.491130       -13.3643
  51   2.0000      -0.476977       -12.9792
  52   2.0000      -0.469065       -12.7639
  53   2.0000      -0.464434       -12.6379
  54   2.0000      -0.455316       -12.3898
  55   2.0000      -0.451841       -12.2952
  56   2.0000      -0.444016       -12.0823
  57   2.0000      -0.438678       -11.9370
  58   2.0000      -0.429283       -11.6814
  59   2.0000      -0.425367       -11.5748
  60   2.0000      -0.416478       -11.3329
  61   2.0000      -0.413288       -11.2461
  62   2.0000      -0.404642       -11.0109
  63   2.0000      -0.343899        -9.3580
  64   2.0000      -0.329325        -8.9614
  65   2.0000      -0.322926        -8.7873
  66   2.0000      -0.294915        -8.0250
  67   0.0000       0.027500         0.7483
  68   0.0000       0.059177         1.6103
  69   0.0000       0.106287         2.8922
  70   0.0000       0.115311         3.1378
  71   0.0000       0.124231         3.3805

MULLIKEN ATOMIC CHARGES
-----------------------
   0 S :    0.102159
   1 C :   -0.117608
   2 C :   -0.066956
   3 C :    0.053125
   4 C :   -0.148111
   5 H :   -0.001869
   6 C :    0.084403
   7 H :    0.042209
   8 H :    0.012282
   9 C :   -0.097766
  10 H :    0.045999
  11 H :    0.024199
  12 C :   -0.052708
  13 H :    0.028118
  14 H :    0.028213
  15 H :    0.031996
  16 S :    0.113284
  17 C :   -0.093851
  18 C :   -0.001893
  19 C :   -0.107480
  20 C :   -0.161189
  21 H :    0.006728
  22 C :    0.068222
  23 H :    0.031762
  24 H :    0.018688
  25 C :   -0.088909
  26 H :    0.033915
  27 H :    0.049795
  28 C :   -0.057917
  29 H :    0.056868
  30 H :    0.026972
  31 H :    0.034555
  32 H :    0.041588
  33 H :    0.061177
Sum of atomic charges:   -0.0000000

LOEWDIN ATOMIC CHARGES
----------------------
   0 S :    0.389861
   1 C :   -0.177549
   2 C :   -0.050360
   3 C :   -0.047876
   4 C :   -0.192221
   5 H :    0.022142
   6 C :   -0.027982
   7 H :    0.038949
   8 H :    0.021973
   9 C :   -0.038005
  10 H :    0.026652
  11 H :    0.019970
  12 C :   -0.067794
  13 H :    0.025510
  14 H :    0.024992
  15 H :    0.025951
  16 S :    0.396793
  17 C :   -0.174152
  18 C :   -0.065900
  19 C :   -0.057604
  20 C :   -0.215970
  21 H :    0.024690
  22 C :   -0.050291
  23 H :    0.035919
  24 H :    0.026700
  25 C :   -0.049409
  26 H :    0.028082
  27 H :    0.037826
  28 C :   -0.072755
  29 H :    0.032572
  30 H :    0.024715
  31 H :    0.029269
  32 H :    0.018179
  33 H :    0.037124

  Mayer bond orders larger than 0.100000
B(  0-S ,  1-C ) :   1.1404 B(  0-S ,  4-C ) :   1.1571 B(  1-C ,  2-C ) :   1.5801
B(  1-C ,  4-C ) :   0.1030 B(  1-C , 32-H ) :   0.9792 B(  2-C ,  3-C ) :   1.2514
B(  2-C ,  6-C ) :   1.0198 B(  3-C ,  4-C ) :   1.5605 B(  3-C ,  5-H ) :   0.9964
B(  4-C , 20-C ) :   1.0100 B(  6-C ,  7-H ) :   0.9322 B(  6-C ,  8-H ) :   0.9507
B(  6-C ,  9-C ) :   1.0654 B(  9-C , 10-H ) :   0.9486 B(  9-C , 11-H ) :   0.9613
B(  9-C , 12-C ) :   1.0933 B( 12-C , 13-H ) :   0.9731 B( 12-C , 14-H ) :   0.9724
B( 12-C , 15-H ) :   0.9747 B( 16-S , 17-C ) :   1.1280 B( 16-S , 20-C ) :   1.1486
B( 17-C , 18-C ) :   1.6204 B( 17-C , 33-H ) :   0.9639 B( 18-C , 19-C ) :   1.2546
B( 18-C , 21-H ) :   0.9852 B( 19-C , 20-C ) :   1.5821 B( 19-C , 22-C ) :   1.0500
B( 22-C , 23-H ) :   0.9342 B( 22-C , 24-H ) :   0.9226 B( 22-C , 25-C ) :   1.0693
B( 25-C , 26-H ) :   0.9501 B( 25-C , 27-H ) :   0.9525 B( 25-C , 28-C ) :   1.0810
B( 28-C , 29-H ) :   0.9657 B( 28-C , 30-H ) :   0.9740 B( 28-C , 31-H ) :   0.9727

Dispersion correction           -0.014758583
FINAL SINGLE POINT ENERGY     -1339.859324746270

DIPOLE MOMENT
-------------
                                X             Y             Z
Electronic contribution:     11.21199     -17.45389       9.41874
Nuclear contribution   :    -11.39665      17.83925      -9.79444
                        -----------------------------------------
Total Dipole Moment    :     -0.18466       0.38536      -0.37570
                        -----------------------------------------
Magnitude (a.u.)       :      0.56900
Magnitude (Debye)      :      1.44627

Rotational constants in cm-1:     0.020403     0.007614     0.007131
Rotational constants in MHz :   611.664014   228.262163   213.777265

                             ****ORCA TERMINATED NORMALLY****
TOTAL RUN TIME: 0 days 0 hours 0 minutes 21 seconds 650 msec
