                         Program Version 4.2.1 -  RELEASE  -
|  1> ! wB97X-D3 SP def2-SVP
|  2> %pal
|  3> nprocs 24
|  4> end
|  5>
|  6> * xyz 0 1
|  7> S 	 -40.1204 	 -41.6423 	 -81.2708
|  8> C 	 -39.9959 	 -40.0483 	 -80.5156
|  9> C 	 -38.7 	 -39.8844 	 -80.0216
| 10> C 	 -37.8528 	 -40.9666 	 -80.3366
| 11> C 	 -38.3768 	 -41.9227 	 -81.1279
| 12> H 	 -36.7898 	 -41.1421 	 -80.0464
| 13> C 	 -38.2781 	 -38.6867 	 -79.2123
| 14> H 	 -38.5709 	 -38.9454 	 -78.1708
| 15> H 	 -38.9134 	 -37.8279 	 -79.5826
| 16> C 	 -36.8078 	 -38.2054 	 -79.0115
| 17> H 	 -36.0675 	 -39.0318 	 -78.8512
| 18> H 	 -36.5558 	 -37.7491 	 -79.9611
| 19> C 	 -36.6407 	 -37.2294 	 -77.8529
| 20> H 	 -37.2482 	 -37.47 	 -76.9977
| 21> H 	 -35.6481 	 -37.234 	 -77.4281
| 22> H 	 -36.9295 	 -36.279 	 -78.1604
| 23> S 	 -38.1768 	 -44.7315 	 -80.8054
| 24> C 	 -37.0836 	 -45.5927 	 -81.8447
| 25> C 	 -36.1866 	 -44.7748 	 -82.452
| 26> C 	 -36.5589 	 -43.3659 	 -82.2854
| 27> C 	 -37.6685 	 -43.1423 	 -81.5153
| 28> H 	 -35.2619 	 -45.0822 	 -82.9499
| 29> C 	 -35.7998 	 -42.3196 	 -82.9343
| 30> H 	 -34.8419 	 -42.6853 	 -83.0801
| 31> H 	 -35.7308 	 -41.4922 	 -82.2462
| 32> C 	 -36.2604 	 -41.8418 	 -84.3146
| 33> H 	 -37.1967 	 -41.399 	 -84.1256
| 34> H 	 -36.5189 	 -42.6742 	 -85.0007
| 35> C 	 -35.2829 	 -40.8333 	 -84.8424
| 36> H 	 -34.3207 	 -41.326 	 -84.7948
| 37> H 	 -35.2271 	 -39.931 	 -84.1583
| 38> H 	 -35.6469 	 -40.5392 	 -85.827
| 39> H 	 -40.7227 	 -39.2494 	 -80.526
| 40> H 	 -37.0526 	 -46.6361 	 -81.8853
| 41> *
| 42>
| 43>                          ****END OF INPUT****

CARTESIAN COORDINATES (ANGSTROEM)
---------------------------------
  S    -40.120400  -41.642300  -81.270800
  C    -39.995900  -40.048300  -80.515600
  C    -38.700000  -39.884400  -80.021600
  C    -37.852800  -40.966600  -80.336600
  C    -38.376800  -41.922700  -81.127900
  H    -36.789800  -41.142100  -80.046400
  C    -38.278100  -38.686700  -79.212300
  H    -38.570900  -38.945400  -78.170800
  H    -38.913400  -37.827900  -79.582600
  C    -36.807800  -38.205400  -79.011500
  H    -36.067500  -39.031800  -78.851200
  H    -36.555800  -37.749100  -79.961100
  C    -36.640700  -37.229400  -77.852900
  H    -37.248200  -37.470000  -76.997700
  H    -35.648100  -37.234000  -77.428100
  H    -36.929500  -36.279000  -78.160400
  S    -38.176800  -44.731500  -80.805400
  C    -37.083600  -45.592700  -81.844700
  C    -36.186600  -44.774800  -82.452000
  C    -36.558900  -43.365900  -82.285400
  C    -37.668500  -43.142300  -81.515300
  H    -35.261900  -45.082200  -82.949900
  C    -35.799800  -42.319600  -82.934300
  H    -34.841900  -42.685300  -83.080100
  H    -35.730800  -41.492200  -82.246200
  C    -36.260400  -41.841800  -84.314600
  H    -37.196700  -41.399000  -84.125600
  H    -36.518900  -42.674200  -85.000700
  C    -35.282900  -40.833300  -84.842400
  H    -34.320700  -41.326000  -84.794800
  H    -35.227100  -39.931000  -84.158300
  H    -35.646900  -40.539200  -85.827000
  H    -40.722700  -39.249400  -80.526000
  H    -37.052600  -46.636100  -81.885300

 Total Charge           Charge          ....    0
 Multiplicity           Mult            ....    1
 Number of Electrons    NEL             ....  134
 Basis Dimension        Dim             ....  322

ORBITAL ENERGIES
----------------

  NO   OCC          E(Eh)            E(eV)
   0   2.0000     -88.966603     -2420.9043
   1   2.0000     -88.958705     -2420.6894
   2   2.0000     -10.328097      -281.0418
   3   2.0000     -10.325935      -280.9830
   4   2.0000     -10.318021      -280.7676
   5   2.0000     -10.312975      -280.6303
   6   2.0000     -10.304254      -280.3930
   7   2.0000     -10.300078      -280.2794
   8   2.0000     -10.297786      -280.2170
   9   2.0000     -10.294462      -280.1266
  10   2.0000     -10.293247      -280.0935
  11   2.0000     -10.292726      -280.0793
  12   2.0000     -10.278437      -279.6905
  13   2.0000     -10.275411      -279.6081
  14   2.0000     -10.273506      -279.5563
  15   2.0000     -10.273270      -279.5499
  16   2.0000      -8.080498      -219.8815
  17   2.0000      -8.073264      -219.6847
  18   2.0000      -6.039132      -164.3331
  19   2.0000      -6.035141      -164.2245
  20   2.0000      -6.031925      -164.1370
  21   2.0000      -6.031119      -164.1151
  22   2.0000      -6.027948      -164.0288
  23   2.0000      -6.023720      -163.9137
  24   2.0000      -1.005151       -27.3516
  25   2.0000      -0.983785       -26.7702
  26   2.0000      -0.918658       -24.9980
  27   2.0000      -0.909899       -24.7596
  28   2.0000      -0.874105       -23.7856
  29   2.0000      -0.854147       -23.2425
  30   2.0000      -0.847315       -23.0566
  31   2.0000      -0.818742       -22.2791
  32   2.0000      -0.780660       -21.2428
  33   2.0000      -0.769574       -20.9412
  34   2.0000      -0.712153       -19.3787
  35   2.0000      -0.699712       -19.0401
  36   2.0000      -0.694400       -18.8956
  37   2.0000      -0.664845       -18.0914
  38   2.0000      -0.640621       -17.4322
  39   2.0000      -0.616765       -16.7830
  40   2.0000      -0.599788       -16.3211
  41   2.0000      -0.572973       -15.5914
  42   2.0000      -0.572266       -15.5721
  43   2.0000      -0.565654       -15.3922
  44   2.0000      -0.531592       -14.4653
  45   2.0000      -0.531099       -14.4519
  46   2.0000      -0.516284       -14.0488
  47   2.0000      -0.510734       -13.8978
  48   2.0000      -0.503295       -13.6954
  49   2.0000      -0.501492       -13.6463
  50   2.0000      -0.494662       -13.4604
  51   2.0000      -0.483052       -13.1445
  52   2.0000      -0.471560       -12.8318
  53   2.0000      -0.466373       -12.6906
  54   2.0000      -0.457268       -12.4429
  55   2.0000      -0.453423       -12.3383
  56   2.0000      -0.445542       -12.1238
  57   2.0000      -0.434744       -11.8300
  58   2.0000      -0.429423       -11.6852
  59   2.0000      -0.422939       -11.5087
  60   2.0000      -0.419321       -11.4103
  61   2.0000      -0.417196       -11.3525
  62   2.0000      -0.412288       -11.2189
  63   2.0000      -0.343501        -9.3471
  64   2.0000      -0.326270        -8.8783
  65   2.0000      -0.323024        -8.7899
  66   2.0000      -0.299269        -8.1435
  67   0.0000       0.031643         0.8610
  68   0.0000       0.060859         1.6561
  69   0.0000       0.105098         2.8599
  70   0.0000       0.125823         3.4238
  71   0.0000       0.131914         3.5896

MULLIKEN ATOMIC CHARGES
-----------------------
   0 S :    0.111418
   1 C :   -0.122200
   2 C :   -0.051001
   3 C :    0.011664
   4 C :   -0.160221
   5 H :    0.035529
   6 C :    0.005207
   7 H :    0.045630
   8 H :    0.037696
   9 C :   -0.079379
  10 H :    0.036087
  11 H :    0.030671
  12 C :   -0.012947
  13 H :    0.017129
  14 H :    0.032197
  15 H :    0.020737
  16 S :    0.085458
  17 C :   -0.056326
  18 C :   -0.017558
  19 C :   -0.067428
  20 C :   -0.160219
  21 H :    0.026429
  22 C :    0.092570
  23 H :   -0.019538
  24 H :    0.004139
  25 C :   -0.058292
  26 H :    0.013480
  27 H :    0.030340
  28 C :   -0.020011
  29 H :    0.024901
  30 H :    0.036440
  31 H :    0.040692
  32 H :    0.048672
  33 H :    0.038032
Sum of atomic charges:   -0.0000000

LOEWDIN ATOMIC CHARGES
----------------------
   0 S :    0.393402
   1 C :   -0.190944
   2 C :   -0.065348
   3 C :   -0.067237
   4 C :   -0.191999
   5 H :    0.040247
   6 C :   -0.042390
   7 H :    0.038154
   8 H :    0.037524
   9 C :   -0.044074
  10 H :    0.026921
  11 H :    0.022733
  12 C :   -0.057307
  13 H :    0.024041
  14 H :    0.029905
  15 H :    0.018027
  16 S :    0.371173
  17 C :   -0.165755
  18 C :   -0.072226
  19 C :   -0.050931
  20 C :   -0.181274
  21 H :    0.035357
  22 C :   -0.033244
  23 H :    0.016473
  24 H :    0.028101
  25 C :   -0.036218
  26 H :    0.017393
  27 H :    0.027737
  28 C :   -0.060876
  29 H :    0.022324
  30 H :    0.033192
  31 H :    0.028588
  32 H :    0.030253
  33 H :    0.018276

  Mayer bond orders larger than 0.100000
B(  0-S ,  1-C ) :   1.1349 B(  0-S ,  4-C ) :   1.1321 B(  1-C ,  2-C ) :   1.5971
B(  1-C ,  4-C ) :   0.1030 B(  1-C , 32-H ) :   0.9715 B(  2-C ,  3-C ) :   1.2362
B(  2-C ,  6-C ) :   1.0175 B(  3-C ,  4-C ) :   1.6010 B(  3-C ,  5-H ) :   0.9770
B(  4-C , 20-C ) :   1.0408 B(  6-C ,  7-H ) :   0.9353 B(  6-C ,  8-H ) :   0.9453
B(  6-C ,  9-C ) :   1.0612 B(  9-C , 10-H ) :   0.9538 B(  9-C , 11-H ) :   0.9589
B(  9-C , 12-C ) :   1.0784 B( 12-C , 13-H ) :   0.9737 B( 12-C , 14-H ) :   0.9750
B( 12-C , 15-H ) :   0.9770 B( 16-S , 17-C ) :   1.1520 B( 16-S , 20-C ) :   1.0988
B( 17-C , 18-C ) :   1.6260 B( 17-C , 33-H ) :   0.9713 B( 18-C , 19-C ) :   1.2087
B( 18-C , 21-H ) :   0.9875 B( 19-C , 20-C ) :   1.6442 B( 19-C , 22-C ) :   1.0769
B( 22-C , 23-H ) :   0.9124 B( 22-C , 24-H ) :   0.9161 B( 22-C , 25-C ) :   1.0683
B( 25-C , 26-H ) :   0.9476 B( 25-C , 27-H ) :   0.9523 B( 25-C , 28-C ) :   1.0826
B( 28-C , 29-H ) :   0.9746 B( 28-C , 30-H ) :   0.9710 B( 28-C , 31-H ) :   0.9710

Dispersion correction           -0.013787938
FINAL SINGLE POINT ENERGY     -1339.863343513022

DIPOLE MOMENT
-------------
                                X             Y             Z
Electronic contribution:    -17.50255     -22.78806       1.48553
Nuclear contribution   :     18.08363      23.27731      -1.43096
                        -----------------------------------------
Total Dipole Moment    :      0.58107       0.48925       0.05457
                        -----------------------------------------
Magnitude (a.u.)       :      0.76157
Magnitude (Debye)      :      1.93576

Rotational constants in cm-1:     0.016812     0.008382     0.006968
Rotational constants in MHz :   504.023228   251.276097   208.897666

                             ****ORCA TERMINATED NORMALLY****
TOTAL RUN TIME: 0 days 0 hours 0 minutes 20 seconds 349 msec
