                         Program Version 4.2.1 -  RELEASE  -
|  1> ! wB97X-D3 SP def2-SVP
|  2> %pal
|  3> nprocs 24
|  4> end
|  5>
|  6> * xyz 0 1
|  7> S 	 -124.06 	 51.5623 	 -37.255
|  8> C 	 -123.441 	 50.3383 	 -38.4431
|  9> C 	 -123.354 	 49.0883 	 -37.8758
| 10> C 	 -123.775 	 49.1445 	 -36.4909
| 11> C 	 -124.301 	 50.3456 	 -36.0547
| 12> H 	 -123.709 	 48.4133 	 -35.718
| 13> C 	 -122.581 	 47.852 	 -38.3445
| 14> H 	 -122.955 	 47.7064 	 -39.3423
| 15> H 	 -122.93 	 46.9875 	 -37.7472
| 16> C 	 -121.053 	 47.9944 	 -38.3445
| 17> H 	 -120.633 	 48.192 	 -37.3631
| 18> H 	 -120.634 	 47.0214 	 -38.6079
| 19> C 	 -120.461 	 49.0185 	 -39.3101
| 20> H 	 -120.562 	 50.1003 	 -38.9686
| 21> H 	 -119.429 	 48.907 	 -39.5321
| 22> H 	 -120.889 	 49.0497 	 -40.2849
| 23> S 	 -126.466 	 50.9806 	 -34.6411
| 24> C 	 -126.396 	 51.3232 	 -32.8774
| 25> C 	 -125.092 	 51.2379 	 -32.4396
| 26> C 	 -124.163 	 50.8107 	 -33.4528
| 27> C 	 -124.798 	 50.6344 	 -34.7144
| 28> H 	 -124.75 	 51.3799 	 -31.4512
| 29> C 	 -122.731 	 50.5552 	 -33.1707
| 30> H 	 -122.366 	 51.4583 	 -32.7247
| 31> H 	 -122.229 	 50.4034 	 -34.1639
| 32> C 	 -122.452 	 49.2682 	 -32.3539
| 33> H 	 -122.916 	 49.478 	 -31.3757
| 34> H 	 -121.422 	 49.0537 	 -32.1565
| 35> C 	 -123.047 	 47.8554 	 -32.8292
| 36> H 	 -122.99 	 47.1201 	 -32.0811
| 37> H 	 -122.552 	 47.4685 	 -33.7179
| 38> H 	 -124.127 	 47.8916 	 -32.9551
| 39> H 	 -122.934 	 50.6056 	 -39.3529
| 40> H 	 -127.175 	 51.6375 	 -32.1988
| 41> *
| 42>
| 43>                          ****END OF INPUT****

CARTESIAN COORDINATES (ANGSTROEM)
---------------------------------
  S    -124.060000   51.562300  -37.255000
  C    -123.441000   50.338300  -38.443100
  C    -123.354000   49.088300  -37.875800
  C    -123.775000   49.144500  -36.490900
  C    -124.301000   50.345600  -36.054700
  H    -123.709000   48.413300  -35.718000
  C    -122.581000   47.852000  -38.344500
  H    -122.955000   47.706400  -39.342300
  H    -122.930000   46.987500  -37.747200
  C    -121.053000   47.994400  -38.344500
  H    -120.633000   48.192000  -37.363100
  H    -120.634000   47.021400  -38.607900
  C    -120.461000   49.018500  -39.310100
  H    -120.562000   50.100300  -38.968600
  H    -119.429000   48.907000  -39.532100
  H    -120.889000   49.049700  -40.284900
  S    -126.466000   50.980600  -34.641100
  C    -126.396000   51.323200  -32.877400
  C    -125.092000   51.237900  -32.439600
  C    -124.163000   50.810700  -33.452800
  C    -124.798000   50.634400  -34.714400
  H    -124.750000   51.379900  -31.451200
  C    -122.731000   50.555200  -33.170700
  H    -122.366000   51.458300  -32.724700
  H    -122.229000   50.403400  -34.163900
  C    -122.452000   49.268200  -32.353900
  H    -122.916000   49.478000  -31.375700
  H    -121.422000   49.053700  -32.156500
  C    -123.047000   47.855400  -32.829200
  H    -122.990000   47.120100  -32.081100
  H    -122.552000   47.468500  -33.717900
  H    -124.127000   47.891600  -32.955100
  H    -122.934000   50.605600  -39.352900
  H    -127.175000   51.637500  -32.198800

 Total Charge           Charge          ....    0
 Multiplicity           Mult            ....    1
 Number of Electrons    NEL             ....  134
 Basis Dimension        Dim             ....  322

ORBITAL ENERGIES
----------------

  NO   OCC          E(Eh)            E(eV)
   0   2.0000     -88.966411     -2420.8991
   1   2.0000     -88.964701     -2420.8526
   2   2.0000     -10.325051      -280.9589
   3   2.0000     -10.324791      -280.9519
   4   2.0000     -10.320257      -280.8285
   5   2.0000     -10.317745      -280.7601
   6   2.0000     -10.304073      -280.3881
   7   2.0000     -10.302579      -280.3474
   8   2.0000     -10.297635      -280.2129
   9   2.0000     -10.292611      -280.0762
  10   2.0000     -10.292408      -280.0707
  11   2.0000     -10.292287      -280.0674
  12   2.0000     -10.291541      -280.0471
  13   2.0000     -10.289226      -279.9841
  14   2.0000     -10.278322      -279.6874
  15   2.0000     -10.277900      -279.6759
  16   2.0000      -8.080989      -219.8949
  17   2.0000      -8.078877      -219.8374
  18   2.0000      -6.039602      -164.3459
  19   2.0000      -6.037510      -164.2890
  20   2.0000      -6.035363      -164.2306
  21   2.0000      -6.033493      -164.1797
  22   2.0000      -6.031786      -164.1332
  23   2.0000      -6.029488      -164.0707
  24   2.0000      -1.004213       -27.3260
  25   2.0000      -0.978938       -26.6383
  26   2.0000      -0.912862       -24.8402
  27   2.0000      -0.904208       -24.6048
  28   2.0000      -0.869717       -23.6662
  29   2.0000      -0.844987       -22.9933
  30   2.0000      -0.841493       -22.8982
  31   2.0000      -0.814501       -22.1637
  32   2.0000      -0.788638       -21.4599
  33   2.0000      -0.774947       -21.0874
  34   2.0000      -0.711808       -19.3693
  35   2.0000      -0.705946       -19.2098
  36   2.0000      -0.694165       -18.8892
  37   2.0000      -0.663593       -18.0573
  38   2.0000      -0.643629       -17.5140
  39   2.0000      -0.612193       -16.6586
  40   2.0000      -0.587846       -15.9961
  41   2.0000      -0.570474       -15.5234
  42   2.0000      -0.554676       -15.0935
  43   2.0000      -0.548005       -14.9120
  44   2.0000      -0.545569       -14.8457
  45   2.0000      -0.538035       -14.6407
  46   2.0000      -0.520029       -14.1507
  47   2.0000      -0.515374       -14.0241
  48   2.0000      -0.500597       -13.6219
  49   2.0000      -0.493229       -13.4215
  50   2.0000      -0.484068       -13.1722
  51   2.0000      -0.479420       -13.0457
  52   2.0000      -0.470523       -12.8036
  53   2.0000      -0.464963       -12.6523
  54   2.0000      -0.458898       -12.4873
  55   2.0000      -0.449996       -12.2450
  56   2.0000      -0.444024       -12.0825
  57   2.0000      -0.441259       -12.0073
  58   2.0000      -0.440415       -11.9843
  59   2.0000      -0.429160       -11.6780
  60   2.0000      -0.419272       -11.4090
  61   2.0000      -0.411187       -11.1890
  62   2.0000      -0.408392       -11.1129
  63   2.0000      -0.340084        -9.2542
  64   2.0000      -0.331385        -9.0175
  65   2.0000      -0.320538        -8.7223
  66   2.0000      -0.301646        -8.2082
  67   0.0000       0.040808         1.1104
  68   0.0000       0.055662         1.5146
  69   0.0000       0.110096         2.9959
  70   0.0000       0.116159         3.1608
  71   0.0000       0.126999         3.4558

MULLIKEN ATOMIC CHARGES
-----------------------
   0 S :    0.110594
   1 C :   -0.133935
   2 C :   -0.066709
   3 C :    0.037704
   4 C :   -0.158245
   5 H :   -0.019903
   6 C :    0.075909
   7 H :    0.024626
   8 H :    0.034114
   9 C :   -0.023434
  10 H :    0.028657
  11 H :    0.028542
  12 C :   -0.074776
  13 H :    0.042761
  14 H :    0.026543
  15 H :    0.015035
  16 S :    0.117921
  17 C :   -0.082518
  18 C :   -0.016551
  19 C :   -0.049313
  20 C :   -0.195712
  21 H :    0.003316
  22 C :    0.090734
  23 H :    0.032162
  24 H :    0.032601
  25 C :   -0.084094
  26 H :    0.019791
  27 H :    0.033224
  28 C :   -0.052401
  29 H :    0.018985
  30 H :    0.041976
  31 H :    0.038817
  32 H :    0.047374
  33 H :    0.056203
Sum of atomic charges:   -0.0000000

LOEWDIN ATOMIC CHARGES
----------------------
   0 S :    0.392155
   1 C :   -0.175889
   2 C :   -0.060513
   3 C :   -0.059611
   4 C :   -0.211826
   5 H :    0.022935
   6 C :   -0.026991
   7 H :    0.030184
   8 H :    0.036597
   9 C :   -0.035357
  10 H :    0.026692
  11 H :    0.027479
  12 C :   -0.073481
  13 H :    0.032759
  14 H :    0.024471
  15 H :    0.017691
  16 S :    0.421493
  17 C :   -0.177641
  18 C :   -0.063993
  19 C :   -0.055861
  20 C :   -0.218215
  21 H :    0.024021
  22 C :   -0.036281
  23 H :    0.032987
  24 H :    0.036165
  25 C :   -0.035286
  26 H :    0.021371
  27 H :    0.021364
  28 C :   -0.065579
  29 H :    0.021956
  30 H :    0.022102
  31 H :    0.027815
  32 H :    0.024154
  33 H :    0.032134

  Mayer bond orders larger than 0.100000
B(  0-S ,  1-C ) :   1.1286 B(  0-S ,  4-C ) :   1.1445 B(  1-C ,  2-C ) :   1.6291
B(  1-C , 32-H ) :   0.9664 B(  2-C ,  3-C ) :   1.2085 B(  2-C ,  6-C ) :   1.0180
B(  3-C ,  4-C ) :   1.6084 B(  3-C ,  5-H ) :   0.9963 B(  4-C , 20-C ) :   1.0108
B(  6-C ,  7-H ) :   0.9347 B(  6-C ,  8-H ) :   0.9431 B(  6-C ,  9-C ) :   1.0721
B(  9-C , 10-H ) :   0.9552 B(  9-C , 11-H ) :   0.9535 B(  9-C , 12-C ) :   1.0764
B( 12-C , 13-H ) :   0.9704 B( 12-C , 14-H ) :   0.9707 B( 12-C , 15-H ) :   0.9741
B( 16-S , 17-C ) :   1.1423 B( 16-S , 20-C ) :   1.1694 B( 17-C , 18-C ) :   1.6004
B( 17-C , 20-C ) :   0.1018 B( 17-C , 33-H ) :   0.9688 B( 18-C , 19-C ) :   1.2553
B( 18-C , 21-H ) :   0.9885 B( 19-C , 20-C ) :   1.5639 B( 19-C , 22-C ) :   1.0505
B( 22-C , 23-H ) :   0.9329 B( 22-C , 24-H ) :   0.9315 B( 22-C , 25-C ) :   1.0569
B( 25-C , 26-H ) :   0.9576 B( 25-C , 27-H ) :   0.9618 B( 25-C , 28-C ) :   1.0755
B( 28-C , 29-H ) :   0.9703 B( 28-C , 30-H ) :   0.9722 B( 28-C , 31-H ) :   0.9714

Dispersion correction           -0.015666122
FINAL SINGLE POINT ENERGY     -1339.871216360779

DIPOLE MOMENT
-------------
                                X             Y             Z
Electronic contribution:    -21.42401      16.37998      -0.79976
Nuclear contribution   :     22.09737     -16.80004       1.07002
                        -----------------------------------------
Total Dipole Moment    :      0.67336      -0.42007       0.27026
                        -----------------------------------------
Magnitude (a.u.)       :      0.83840
Magnitude (Debye)      :      2.13104

Rotational constants in cm-1:     0.021109     0.008911     0.007113
Rotational constants in MHz :   632.820542   267.143541   213.230090

                             ****ORCA TERMINATED NORMALLY****
TOTAL RUN TIME: 0 days 0 hours 0 minutes 22 seconds 242 msec
