                         Program Version 4.2.1 -  RELEASE  -
|  1> ! wB97X-D3 SP def2-SVP
|  2> %pal
|  3> nprocs 24
|  4> end
|  5>
|  6> * xyz 0 1
|  7> S 	 -60.5395 	 9.94228 	 -99.9831
|  8> C 	 -61.2068 	 10.6335 	 -101.455
|  9> C 	 -60.8666 	 11.9564 	 -101.53
| 10> C 	 -60.1495 	 12.4506 	 -100.348
| 11> C 	 -59.9434 	 11.4816 	 -99.4561
| 12> H 	 -59.7193 	 13.4211 	 -100.207
| 13> C 	 -61.1396 	 12.866 	 -102.668
| 14> H 	 -61.3175 	 12.3219 	 -103.6
| 15> H 	 -60.1328 	 13.2871 	 -102.886
| 16> C 	 -62.1228 	 14.0171 	 -102.362
| 17> H 	 -63.0162 	 13.5679 	 -102.064
| 18> H 	 -61.7104 	 14.6196 	 -101.529
| 19> C 	 -62.2828 	 14.9103 	 -103.603
| 20> H 	 -63.0531 	 14.5951 	 -104.275
| 21> H 	 -62.7653 	 15.8543 	 -103.296
| 22> H 	 -61.2628 	 15.059 	 -104.11
| 23> S 	 -60.3582 	 11.6441 	 -96.7054
| 24> C 	 -59.0009 	 11.6786 	 -95.6949
| 25> C 	 -57.8155 	 11.9357 	 -96.4023
| 26> C 	 -57.9755 	 11.7877 	 -97.8602
| 27> C 	 -59.3299 	 11.6031 	 -98.1562
| 28> H 	 -56.8983 	 12.1746 	 -95.7796
| 29> C 	 -56.7294 	 11.811 	 -98.736
| 30> H 	 -55.7876 	 12.1242 	 -98.2532
| 31> H 	 -57.03 	 12.519 	 -99.5967
| 32> C 	 -56.4849 	 10.5017 	 -99.4966
| 33> H 	 -57.4089 	 10.475 	 -100.115
| 34> H 	 -56.4961 	 9.66246 	 -98.7672
| 35> C 	 -55.1806 	 10.3438 	 -100.314
| 36> H 	 -55.1656 	 9.36004 	 -100.603
| 37> H 	 -54.4287 	 10.438 	 -99.6337
| 38> H 	 -55.0151 	 10.9509 	 -101.198
| 39> H 	 -61.5889 	 10.093 	 -102.32
| 40> H 	 -59.1364 	 11.8294 	 -94.6098
| 41> *
| 42>
| 43>                          ****END OF INPUT****

CARTESIAN COORDINATES (ANGSTROEM)
---------------------------------
  S    -60.539500    9.942280  -99.983100
  C    -61.206800   10.633500  -101.455000
  C    -60.866600   11.956400  -101.530000
  C    -60.149500   12.450600  -100.348000
  C    -59.943400   11.481600  -99.456100
  H    -59.719300   13.421100  -100.207000
  C    -61.139600   12.866000  -102.668000
  H    -61.317500   12.321900  -103.600000
  H    -60.132800   13.287100  -102.886000
  C    -62.122800   14.017100  -102.362000
  H    -63.016200   13.567900  -102.064000
  H    -61.710400   14.619600  -101.529000
  C    -62.282800   14.910300  -103.603000
  H    -63.053100   14.595100  -104.275000
  H    -62.765300   15.854300  -103.296000
  H    -61.262800   15.059000  -104.110000
  S    -60.358200   11.644100  -96.705400
  C    -59.000900   11.678600  -95.694900
  C    -57.815500   11.935700  -96.402300
  C    -57.975500   11.787700  -97.860200
  C    -59.329900   11.603100  -98.156200
  H    -56.898300   12.174600  -95.779600
  C    -56.729400   11.811000  -98.736000
  H    -55.787600   12.124200  -98.253200
  H    -57.030000   12.519000  -99.596700
  C    -56.484900   10.501700  -99.496600
  H    -57.408900   10.475000  -100.115000
  H    -56.496100    9.662460  -98.767200
  C    -55.180600   10.343800  -100.314000
  H    -55.165600    9.360040  -100.603000
  H    -54.428700   10.438000  -99.633700
  H    -55.015100   10.950900  -101.198000
  H    -61.588900   10.093000  -102.320000
  H    -59.136400   11.829400  -94.609800

 Total Charge           Charge          ....    0
 Multiplicity           Mult            ....    1
 Number of Electrons    NEL             ....  134
 Basis Dimension        Dim             ....  322

ORBITAL ENERGIES
----------------

  NO   OCC          E(Eh)            E(eV)
   0   2.0000     -88.965409     -2420.8718
   1   2.0000     -88.959835     -2420.7202
   2   2.0000     -10.326040      -280.9858
   3   2.0000     -10.321044      -280.8499
   4   2.0000     -10.315905      -280.7100
   5   2.0000     -10.313284      -280.6387
   6   2.0000     -10.311375      -280.5868
   7   2.0000     -10.301485      -280.3177
   8   2.0000     -10.299136      -280.2537
   9   2.0000     -10.298655      -280.2407
  10   2.0000     -10.290032      -280.0060
  11   2.0000     -10.289574      -279.9935
  12   2.0000     -10.285734      -279.8891
  13   2.0000     -10.285136      -279.8728
  14   2.0000     -10.283664      -279.8327
  15   2.0000     -10.263856      -279.2937
  16   2.0000      -8.080802      -219.8898
  17   2.0000      -8.074953      -219.7306
  18   2.0000      -6.039222      -164.3356
  19   2.0000      -6.035266      -164.2279
  20   2.0000      -6.033554      -164.1814
  21   2.0000      -6.031569      -164.1273
  22   2.0000      -6.029416      -164.0688
  23   2.0000      -6.025551      -163.9636
  24   2.0000      -1.008292       -27.4370
  25   2.0000      -0.983296       -26.7568
  26   2.0000      -0.913630       -24.8611
  27   2.0000      -0.907317       -24.6894
  28   2.0000      -0.870661       -23.6919
  29   2.0000      -0.851283       -23.1646
  30   2.0000      -0.845325       -23.0025
  31   2.0000      -0.812000       -22.0956
  32   2.0000      -0.787963       -21.4416
  33   2.0000      -0.770100       -20.9555
  34   2.0000      -0.708122       -19.2690
  35   2.0000      -0.698590       -19.0096
  36   2.0000      -0.682041       -18.5593
  37   2.0000      -0.654835       -17.8190
  38   2.0000      -0.644471       -17.5370
  39   2.0000      -0.618616       -16.8334
  40   2.0000      -0.591326       -16.0908
  41   2.0000      -0.571675       -15.5561
  42   2.0000      -0.569919       -15.5083
  43   2.0000      -0.554877       -15.0990
  44   2.0000      -0.524309       -14.2672
  45   2.0000      -0.518606       -14.1120
  46   2.0000      -0.515651       -14.0316
  47   2.0000      -0.512093       -13.9347
  48   2.0000      -0.508245       -13.8300
  49   2.0000      -0.502782       -13.6814
  50   2.0000      -0.493935       -13.4407
  51   2.0000      -0.483182       -13.1481
  52   2.0000      -0.470059       -12.7910
  53   2.0000      -0.461310       -12.5529
  54   2.0000      -0.458161       -12.4672
  55   2.0000      -0.448166       -12.1952
  56   2.0000      -0.443727       -12.0744
  57   2.0000      -0.437586       -11.9073
  58   2.0000      -0.432949       -11.7812
  59   2.0000      -0.425642       -11.5823
  60   2.0000      -0.416460       -11.3324
  61   2.0000      -0.411973       -11.2104
  62   2.0000      -0.409620       -11.1463
  63   2.0000      -0.336180        -9.1479
  64   2.0000      -0.328255        -8.9323
  65   2.0000      -0.318248        -8.6600
  66   2.0000      -0.308341        -8.3904
  67   0.0000       0.043752         1.1905
  68   0.0000       0.061632         1.6771
  69   0.0000       0.111994         3.0475
  70   0.0000       0.113978         3.1015
  71   0.0000       0.135706         3.6927

MULLIKEN ATOMIC CHARGES
-----------------------
   0 S :    0.107098
   1 C :   -0.115820
   2 C :   -0.099490
   3 C :    0.056362
   4 C :   -0.186594
   5 H :    0.009804
   6 C :    0.040044
   7 H :    0.014915
   8 H :    0.022017
   9 C :   -0.045608
  10 H :    0.021284
  11 H :    0.037259
  12 C :   -0.055814
  13 H :    0.029578
  14 H :    0.028853
  15 H :    0.048739
  16 S :    0.130825
  17 C :   -0.109002
  18 C :   -0.077666
  19 C :    0.005331
  20 C :   -0.187872
  21 H :    0.044880
  22 C :    0.076496
  23 H :    0.026357
  24 H :    0.033624
  25 C :   -0.151767
  26 H :    0.042658
  27 H :    0.033506
  28 C :    0.051019
  29 H :    0.012182
  30 H :    0.000881
  31 H :    0.033006
  32 H :    0.051049
  33 H :    0.071865
Sum of atomic charges:    0.0000000

LOEWDIN ATOMIC CHARGES
----------------------
   0 S :    0.401200
   1 C :   -0.200439
   2 C :   -0.061282
   3 C :   -0.057257
   4 C :   -0.199839
   5 H :    0.031450
   6 C :   -0.041629
   7 H :    0.027128
   8 H :    0.033005
   9 C :   -0.031220
  10 H :    0.017889
  11 H :    0.028945
  12 C :   -0.073718
  13 H :    0.022859
  14 H :    0.029143
  15 H :    0.036231
  16 S :    0.423460
  17 C :   -0.211162
  18 C :   -0.083439
  19 C :   -0.042094
  20 C :   -0.206491
  21 H :    0.041175
  22 C :   -0.039431
  23 H :    0.028002
  24 H :    0.041487
  25 C :   -0.042388
  26 H :    0.024214
  27 H :    0.025203
  28 C :   -0.050303
  29 H :    0.022040
  30 H :    0.013417
  31 H :    0.026861
  32 H :    0.033471
  33 H :    0.033512

  Mayer bond orders larger than 0.100000
B(  0-S ,  1-C ) :   1.1081 B(  0-S ,  4-C ) :   1.1423 B(  1-C ,  2-C ) :   1.6600
B(  1-C , 32-H ) :   0.9660 B(  2-C ,  3-C ) :   1.1748 B(  2-C ,  6-C ) :   1.0382
B(  3-C ,  4-C ) :   1.6474 B(  3-C ,  5-H ) :   0.9965 B(  4-C , 20-C ) :   1.0059
B(  6-C ,  7-H ) :   0.9443 B(  6-C ,  8-H ) :   0.9291 B(  6-C ,  9-C ) :   1.0524
B(  9-C , 10-H ) :   0.9567 B(  9-C , 11-H ) :   0.9565 B(  9-C , 12-C ) :   1.0812
B( 12-C , 13-H ) :   0.9738 B( 12-C , 14-H ) :   0.9718 B( 12-C , 15-H ) :   0.9727
B( 16-S , 17-C ) :   1.1734 B( 16-S , 20-C ) :   1.1503 B( 17-C , 18-C ) :   1.6128
B( 17-C , 33-H ) :   0.9601 B( 18-C , 19-C ) :   1.2237 B( 18-C , 21-H ) :   0.9789
B( 19-C , 20-C ) :   1.5960 B( 19-C , 22-C ) :   1.0435 B( 22-C , 23-H ) :   0.9423
B( 22-C , 24-H ) :   0.9276 B( 22-C , 25-C ) :   1.0513 B( 25-C , 26-H ) :   0.9584
B( 25-C , 27-H ) :   0.9575 B( 25-C , 28-C ) :   1.0832 B( 28-C , 29-H ) :   0.9679
B( 28-C , 30-H ) :   0.9676 B( 28-C , 31-H ) :   0.9746

Dispersion correction           -0.014262144
FINAL SINGLE POINT ENERGY     -1339.862863808391

DIPOLE MOMENT
-------------
                                X             Y             Z
Electronic contribution:     -9.47223     -10.40819      19.61213
Nuclear contribution   :      9.79853      10.81822     -19.95789
                        -----------------------------------------
Total Dipole Moment    :      0.32630       0.41004      -0.34576
                        -----------------------------------------
Magnitude (a.u.)       :      0.62781
Magnitude (Debye)      :      1.59578

Rotational constants in cm-1:     0.017849     0.008173     0.006994
Rotational constants in MHz :   535.094622   245.008261   209.668195

                             ****ORCA TERMINATED NORMALLY****
TOTAL RUN TIME: 0 days 0 hours 0 minutes 20 seconds 210 msec
