                         Program Version 4.2.1 -  RELEASE  -
|  1> ! wB97X-D3 SP def2-SVP
|  2> %pal
|  3> nprocs 24
|  4> end
|  5>
|  6> * xyz 0 1
|  7> S 	 -99.3378 	 12.7712 	 -115.935
|  8> C 	 -99.1648 	 14.5423 	 -115.874
|  9> C 	 -98.9945 	 15.0209 	 -117.163
| 10> C 	 -99.2142 	 14.0434 	 -118.136
| 11> C 	 -99.3906 	 12.7523 	 -117.668
| 12> H 	 -99.0545 	 14.135 	 -119.219
| 13> C 	 -98.5664 	 16.4607 	 -117.535
| 14> H 	 -98.7236 	 17.1805 	 -116.685
| 15> H 	 -99.2893 	 16.8389 	 -118.27
| 16> C 	 -97.1683 	 16.5563 	 -118.204
| 17> H 	 -96.8432 	 17.631 	 -118.106
| 18> H 	 -96.5006 	 15.9607 	 -117.636
| 19> C 	 -97.1732 	 16.1505 	 -119.691
| 20> H 	 -97.0698 	 15.0407 	 -119.81
| 21> H 	 -97.9983 	 16.5232 	 -120.311
| 22> H 	 -96.1537 	 16.4925 	 -120.048
| 23> S 	 -101.35 	 10.9725 	 -118.486
| 24> C 	 -100.934 	 9.68373 	 -119.551
| 25> C 	 -99.539 	 9.67204 	 -119.867
| 26> C 	 -98.827 	 10.6513 	 -119.104
| 27> C 	 -99.6426 	 11.4929 	 -118.368
| 28> H 	 -99.1433 	 9.00796 	 -120.598
| 29> C 	 -97.35 	 11.0131 	 -119.458
| 30> H 	 -97.0687 	 11.6274 	 -118.604
| 31> H 	 -97.2289 	 11.6267 	 -120.359
| 32> C 	 -96.415 	 9.8485 	 -119.543
| 33> H 	 -96.8422 	 9.15673 	 -120.32
| 34> H 	 -96.5777 	 9.28726 	 -118.615
| 35> C 	 -94.8885 	 10.2225 	 -119.574
| 36> H 	 -94.5639 	 10.684 	 -118.631
| 37> H 	 -94.5976 	 10.8924 	 -120.373
| 38> H 	 -94.4047 	 9.32028 	 -119.901
| 39> H 	 -99.0444 	 15.0925 	 -114.915
| 40> H 	 -101.628 	 9.07951 	 -120.097
| 41> *
| 42>
| 43>                          ****END OF INPUT****

CARTESIAN COORDINATES (ANGSTROEM)
---------------------------------
  S    -99.337800   12.771200  -115.935000
  C    -99.164800   14.542300  -115.874000
  C    -98.994500   15.020900  -117.163000
  C    -99.214200   14.043400  -118.136000
  C    -99.390600   12.752300  -117.668000
  H    -99.054500   14.135000  -119.219000
  C    -98.566400   16.460700  -117.535000
  H    -98.723600   17.180500  -116.685000
  H    -99.289300   16.838900  -118.270000
  C    -97.168300   16.556300  -118.204000
  H    -96.843200   17.631000  -118.106000
  H    -96.500600   15.960700  -117.636000
  C    -97.173200   16.150500  -119.691000
  H    -97.069800   15.040700  -119.810000
  H    -97.998300   16.523200  -120.311000
  H    -96.153700   16.492500  -120.048000
  S    -101.350000   10.972500  -118.486000
  C    -100.934000    9.683730  -119.551000
  C    -99.539000    9.672040  -119.867000
  C    -98.827000   10.651300  -119.104000
  C    -99.642600   11.492900  -118.368000
  H    -99.143300    9.007960  -120.598000
  C    -97.350000   11.013100  -119.458000
  H    -97.068700   11.627400  -118.604000
  H    -97.228900   11.626700  -120.359000
  C    -96.415000    9.848500  -119.543000
  H    -96.842200    9.156730  -120.320000
  H    -96.577700    9.287260  -118.615000
  C    -94.888500   10.222500  -119.574000
  H    -94.563900   10.684000  -118.631000
  H    -94.597600   10.892400  -120.373000
  H    -94.404700    9.320280  -119.901000
  H    -99.044400   15.092500  -114.915000
  H    -101.628000    9.079510  -120.097000

 Total Charge           Charge          ....    0
 Multiplicity           Mult            ....    1
 Number of Electrons    NEL             ....  134
 Basis Dimension        Dim             ....  322

ORBITAL ENERGIES
----------------

  NO   OCC          E(Eh)            E(eV)
   0   2.0000     -88.968328     -2420.9513
   1   2.0000     -88.962594     -2420.7953
   2   2.0000     -10.328826      -281.0617
   3   2.0000     -10.327848      -281.0350
   4   2.0000     -10.320867      -280.8451
   5   2.0000     -10.319690      -280.8131
   6   2.0000     -10.306722      -280.4602
   7   2.0000     -10.302119      -280.3349
   8   2.0000     -10.297407      -280.2067
   9   2.0000     -10.297206      -280.2012
  10   2.0000     -10.292040      -280.0606
  11   2.0000     -10.291915      -280.0572
  12   2.0000     -10.289600      -279.9943
  13   2.0000     -10.288166      -279.9552
  14   2.0000     -10.287938      -279.9490
  15   2.0000     -10.282047      -279.7887
  16   2.0000      -8.082786      -219.9438
  17   2.0000      -8.077298      -219.7945
  18   2.0000      -6.041145      -164.3879
  19   2.0000      -6.037271      -164.2825
  20   2.0000      -6.035699      -164.2397
  21   2.0000      -6.033759      -164.1869
  22   2.0000      -6.031726      -164.1316
  23   2.0000      -6.028254      -164.0371
  24   2.0000      -1.004270       -27.3276
  25   2.0000      -0.981686       -26.7130
  26   2.0000      -0.907677       -24.6992
  27   2.0000      -0.907004       -24.6808
  28   2.0000      -0.865948       -23.5636
  29   2.0000      -0.847481       -23.0611
  30   2.0000      -0.840452       -22.8699
  31   2.0000      -0.810395       -22.0520
  32   2.0000      -0.784715       -21.3532
  33   2.0000      -0.772537       -21.0218
  34   2.0000      -0.701328       -19.0841
  35   2.0000      -0.697190       -18.9715
  36   2.0000      -0.695011       -18.9122
  37   2.0000      -0.656897       -17.8751
  38   2.0000      -0.643421       -17.5084
  39   2.0000      -0.615679       -16.7535
  40   2.0000      -0.594818       -16.1858
  41   2.0000      -0.573011       -15.5924
  42   2.0000      -0.566864       -15.4252
  43   2.0000      -0.541877       -14.7452
  44   2.0000      -0.535028       -14.5589
  45   2.0000      -0.524535       -14.2733
  46   2.0000      -0.514701       -14.0057
  47   2.0000      -0.510001       -13.8778
  48   2.0000      -0.505002       -13.7418
  49   2.0000      -0.498262       -13.5584
  50   2.0000      -0.486088       -13.2271
  51   2.0000      -0.484064       -13.1720
  52   2.0000      -0.476805       -12.9745
  53   2.0000      -0.470968       -12.8157
  54   2.0000      -0.459314       -12.4986
  55   2.0000      -0.446003       -12.1364
  56   2.0000      -0.439154       -11.9500
  57   2.0000      -0.430457       -11.7133
  58   2.0000      -0.427359       -11.6290
  59   2.0000      -0.424854       -11.5609
  60   2.0000      -0.415710       -11.3120
  61   2.0000      -0.414090       -11.2680
  62   2.0000      -0.410254       -11.1636
  63   2.0000      -0.337149        -9.1743
  64   2.0000      -0.329128        -8.9560
  65   2.0000      -0.321668        -8.7530
  66   2.0000      -0.308758        -8.4017
  67   0.0000       0.040214         1.0943
  68   0.0000       0.048961         1.3323
  69   0.0000       0.112252         3.0545
  70   0.0000       0.120165         3.2699
  71   0.0000       0.131229         3.5709

MULLIKEN ATOMIC CHARGES
-----------------------
   0 S :    0.106032
   1 C :   -0.151512
   2 C :   -0.074387
   3 C :    0.051790
   4 C :   -0.202149
   5 H :    0.017442
   6 C :    0.045234
   7 H :    0.027831
   8 H :    0.026016
   9 C :   -0.059885
  10 H :    0.041342
  11 H :    0.028699
  12 C :   -0.090347
  13 H :    0.045275
  14 H :    0.050134
  15 H :    0.038629
  16 S :    0.128380
  17 C :   -0.084463
  18 C :   -0.050794
  19 C :    0.000778
  20 C :   -0.176535
  21 H :    0.018713
  22 C :    0.059931
  23 H :    0.023026
  24 H :    0.042156
  25 C :   -0.132943
  26 H :    0.031913
  27 H :    0.029758
  28 C :   -0.014257
  29 H :    0.049671
  30 H :    0.020410
  31 H :    0.031755
  32 H :    0.067661
  33 H :    0.054697
Sum of atomic charges:   -0.0000000

LOEWDIN ATOMIC CHARGES
----------------------
   0 S :    0.404239
   1 C :   -0.193535
   2 C :   -0.069038
   3 C :   -0.066497
   4 C :   -0.206905
   5 H :    0.035957
   6 C :   -0.036189
   7 H :    0.032221
   8 H :    0.028991
   9 C :   -0.038582
  10 H :    0.031572
  11 H :    0.021193
  12 C :   -0.076694
  13 H :    0.029268
  14 H :    0.027135
  15 H :    0.035285
  16 S :    0.418129
  17 C :   -0.187614
  18 C :   -0.070359
  19 C :   -0.050657
  20 C :   -0.200445
  21 H :    0.025381
  22 C :   -0.034256
  23 H :    0.027855
  24 H :    0.029637
  25 C :   -0.052236
  26 H :    0.024302
  27 H :    0.027501
  28 C :   -0.062186
  29 H :    0.032878
  30 H :    0.021908
  31 H :    0.029453
  32 H :    0.037001
  33 H :    0.025287

  Mayer bond orders larger than 0.100000
B(  0-S ,  1-C ) :   1.1490 B(  0-S ,  4-C ) :   1.1708 B(  1-C ,  2-C ) :   1.5870
B(  1-C ,  4-C ) :   0.1089 B(  1-C , 32-H ) :   0.9677 B(  2-C ,  3-C ) :   1.2593
B(  2-C ,  6-C ) :   1.0175 B(  3-C ,  4-C ) :   1.5728 B(  3-C ,  5-H ) :   0.9878
B(  4-C , 20-C ) :   1.0037 B(  6-C ,  7-H ) :   0.9476 B(  6-C ,  8-H ) :   0.9447
B(  6-C ,  9-C ) :   1.0533 B(  9-C , 10-H ) :   0.9599 B(  9-C , 11-H ) :   0.9556
B(  9-C , 12-C ) :   1.0768 B( 12-C , 13-H ) :   0.9689 B( 12-C , 14-H ) :   0.9750
B( 12-C , 15-H ) :   0.9691 B( 16-S , 17-C ) :   1.1834 B( 16-S , 20-C ) :   1.1460
B( 17-C , 18-C ) :   1.5881 B( 17-C , 20-C ) :   0.1050 B( 17-C , 33-H ) :   0.9675
B( 18-C , 19-C ) :   1.2406 B( 18-C , 21-H ) :   0.9921 B( 19-C , 20-C ) :   1.6019
B( 19-C , 22-C ) :   1.0345 B( 22-C , 23-H ) :   0.9316 B( 22-C , 24-H ) :   0.9441
B( 22-C , 25-C ) :   1.0613 B( 25-C , 26-H ) :   0.9567 B( 25-C , 27-H ) :   0.9566
B( 25-C , 28-C ) :   1.0697 B( 28-C , 29-H ) :   0.9743 B( 28-C , 30-H ) :   0.9750
B( 28-C , 31-H ) :   0.9724

Dispersion correction           -0.014386499
FINAL SINGLE POINT ENERGY     -1339.873530134570

DIPOLE MOMENT
-------------
                                X             Y             Z
Electronic contribution:    -23.78068      -9.12863      12.80766
Nuclear contribution   :     24.29606       9.43920     -13.30462
                        -----------------------------------------
Total Dipole Moment    :      0.51538       0.31058      -0.49696
                        -----------------------------------------
Magnitude (a.u.)       :      0.78042
Magnitude (Debye)      :      1.98366

Rotational constants in cm-1:     0.015803     0.009508     0.007236
Rotational constants in MHz :   473.770497   285.044821   216.938222

                             ****ORCA TERMINATED NORMALLY****
TOTAL RUN TIME: 0 days 0 hours 0 minutes 21 seconds 579 msec
