                         Program Version 4.2.1 -  RELEASE  -
|  1> ! wB97X-D3 SP def2-SVP
|  2> %pal
|  3> nprocs 24
|  4> end
|  5>
|  6> * xyz 0 1
|  7> S 	 -119.487 	 20.2829 	 -25.59
|  8> C 	 -118.74 	 20.2736 	 -27.1744
|  9> C 	 -118.44 	 21.5582 	 -27.5785
| 10> C 	 -118.725 	 22.5499 	 -26.5793
| 11> C 	 -119.317 	 22.0199 	 -25.5066
| 12> H 	 -118.443 	 23.6023 	 -26.5111
| 13> C 	 -117.719 	 21.9331 	 -28.8383
| 14> H 	 -117.799 	 22.9653 	 -29.032
| 15> H 	 -118.083 	 21.4572 	 -29.7703
| 16> C 	 -116.21 	 21.7227 	 -28.8886
| 17> H 	 -115.805 	 22.349 	 -28.1079
| 18> H 	 -116.045 	 20.7347 	 -28.604
| 19> C 	 -115.534 	 21.9737 	 -30.2783
| 20> H 	 -115.508 	 23.005 	 -30.5545
| 21> H 	 -114.499 	 21.6492 	 -30.1341
| 22> H 	 -115.901 	 21.3436 	 -31.0693
| 23> S 	 -119.179 	 22.063 	 -22.709
| 24> C 	 -119.992 	 23.3805 	 -21.8321
| 25> C 	 -120.583 	 24.2275 	 -22.694
| 26> C 	 -120.306 	 23.9512 	 -24.1224
| 27> C 	 -119.672 	 22.7422 	 -24.2895
| 28> H 	 -121.068 	 25.1674 	 -22.2886
| 29> C 	 -120.933 	 24.8266 	 -25.2549
| 30> H 	 -121.784 	 24.279 	 -25.6549
| 31> H 	 -120.337 	 24.8107 	 -26.1278
| 32> C 	 -121.321 	 26.249 	 -24.9033
| 33> H 	 -120.53 	 26.7822 	 -24.3961
| 34> H 	 -122.122 	 26.153 	 -24.1204
| 35> C 	 -121.908 	 26.8849 	 -26.1554
| 36> H 	 -122.216 	 27.8312 	 -25.8323
| 37> H 	 -122.604 	 26.2605 	 -26.715
| 38> H 	 -121.124 	 27.1155 	 -26.8158
| 39> H 	 -118.63 	 19.3465 	 -27.7653
| 40> H 	 -119.978 	 23.5916 	 -20.774
| 41> *
| 42>
| 43>                          ****END OF INPUT****

CARTESIAN COORDINATES (ANGSTROEM)
---------------------------------
  S    -119.487000   20.282900  -25.590000
  C    -118.740000   20.273600  -27.174400
  C    -118.440000   21.558200  -27.578500
  C    -118.725000   22.549900  -26.579300
  C    -119.317000   22.019900  -25.506600
  H    -118.443000   23.602300  -26.511100
  C    -117.719000   21.933100  -28.838300
  H    -117.799000   22.965300  -29.032000
  H    -118.083000   21.457200  -29.770300
  C    -116.210000   21.722700  -28.888600
  H    -115.805000   22.349000  -28.107900
  H    -116.045000   20.734700  -28.604000
  C    -115.534000   21.973700  -30.278300
  H    -115.508000   23.005000  -30.554500
  H    -114.499000   21.649200  -30.134100
  H    -115.901000   21.343600  -31.069300
  S    -119.179000   22.063000  -22.709000
  C    -119.992000   23.380500  -21.832100
  C    -120.583000   24.227500  -22.694000
  C    -120.306000   23.951200  -24.122400
  C    -119.672000   22.742200  -24.289500
  H    -121.068000   25.167400  -22.288600
  C    -120.933000   24.826600  -25.254900
  H    -121.784000   24.279000  -25.654900
  H    -120.337000   24.810700  -26.127800
  C    -121.321000   26.249000  -24.903300
  H    -120.530000   26.782200  -24.396100
  H    -122.122000   26.153000  -24.120400
  C    -121.908000   26.884900  -26.155400
  H    -122.216000   27.831200  -25.832300
  H    -122.604000   26.260500  -26.715000
  H    -121.124000   27.115500  -26.815800
  H    -118.630000   19.346500  -27.765300
  H    -119.978000   23.591600  -20.774000

 Total Charge           Charge          ....    0
 Multiplicity           Mult            ....    1
 Number of Electrons    NEL             ....  134
 Basis Dimension        Dim             ....  322

ORBITAL ENERGIES
----------------

  NO   OCC          E(Eh)            E(eV)
   0   2.0000     -88.965672     -2420.8790
   1   2.0000     -88.962252     -2420.7859
   2   2.0000     -10.327570      -281.0275
   3   2.0000     -10.324458      -280.9428
   4   2.0000     -10.317146      -280.7438
   5   2.0000     -10.315632      -280.7026
   6   2.0000     -10.308636      -280.5122
   7   2.0000     -10.303526      -280.3732
   8   2.0000     -10.297808      -280.2176
   9   2.0000     -10.290940      -280.0307
  10   2.0000     -10.288569      -279.9662
  11   2.0000     -10.287822      -279.9459
  12   2.0000     -10.282135      -279.7911
  13   2.0000     -10.278521      -279.6928
  14   2.0000     -10.278248      -279.6853
  15   2.0000     -10.272222      -279.5214
  16   2.0000      -8.080684      -219.8866
  17   2.0000      -8.076048      -219.7604
  18   2.0000      -6.039205      -164.3351
  19   2.0000      -6.035232      -164.2270
  20   2.0000      -6.034902      -164.2180
  21   2.0000      -6.031322      -164.1206
  22   2.0000      -6.030716      -164.1041
  23   2.0000      -6.026455      -163.9882
  24   2.0000      -1.008001       -27.4291
  25   2.0000      -0.979978       -26.6666
  26   2.0000      -0.913859       -24.8674
  27   2.0000      -0.912403       -24.8278
  28   2.0000      -0.872612       -23.7450
  29   2.0000      -0.852650       -23.2018
  30   2.0000      -0.841471       -22.8976
  31   2.0000      -0.818914       -22.2838
  32   2.0000      -0.783680       -21.3250
  33   2.0000      -0.774858       -21.0849
  34   2.0000      -0.708957       -19.2917
  35   2.0000      -0.702853       -19.1256
  36   2.0000      -0.699297       -19.0288
  37   2.0000      -0.654744       -17.8165
  38   2.0000      -0.640123       -17.4186
  39   2.0000      -0.619109       -16.8468
  40   2.0000      -0.597882       -16.2692
  41   2.0000      -0.574890       -15.6435
  42   2.0000      -0.567614       -15.4456
  43   2.0000      -0.558949       -15.2098
  44   2.0000      -0.537256       -14.6195
  45   2.0000      -0.520217       -14.1558
  46   2.0000      -0.515772       -14.0349
  47   2.0000      -0.510308       -13.8862
  48   2.0000      -0.502869       -13.6838
  49   2.0000      -0.499770       -13.5994
  50   2.0000      -0.488344       -13.2885
  51   2.0000      -0.486515       -13.2387
  52   2.0000      -0.475921       -12.9505
  53   2.0000      -0.465912       -12.6781
  54   2.0000      -0.459506       -12.5038
  55   2.0000      -0.455845       -12.4042
  56   2.0000      -0.445913       -12.1339
  57   2.0000      -0.441382       -12.0106
  58   2.0000      -0.428567       -11.6619
  59   2.0000      -0.425978       -11.5915
  60   2.0000      -0.420470       -11.4416
  61   2.0000      -0.413936       -11.2638
  62   2.0000      -0.410186       -11.1617
  63   2.0000      -0.355994        -9.6871
  64   2.0000      -0.330738        -8.9998
  65   2.0000      -0.327236        -8.9045
  66   2.0000      -0.293685        -7.9916
  67   0.0000       0.032198         0.8761
  68   0.0000       0.073849         2.0095
  69   0.0000       0.109480         2.9791
  70   0.0000       0.120672         3.2836
  71   0.0000       0.135529         3.6879

MULLIKEN ATOMIC CHARGES
-----------------------
   0 S :    0.110620
   1 C :   -0.139695
   2 C :   -0.047627
   3 C :   -0.000145
   4 C :   -0.142911
   5 H :    0.033181
   6 C :    0.069964
   7 H :   -0.003281
   8 H :    0.017711
   9 C :   -0.056067
  10 H :    0.019347
  11 H :    0.004432
  12 C :   -0.038582
  13 H :    0.034108
  14 H :    0.033324
  15 H :    0.031874
  16 S :    0.088406
  17 C :   -0.078095
  18 C :   -0.063008
  19 C :   -0.034239
  20 C :   -0.138561
  21 H :    0.043459
  22 C :    0.064774
  23 H :    0.032552
  24 H :   -0.012013
  25 C :   -0.114673
  26 H :    0.033718
  27 H :    0.034797
  28 C :    0.031862
  29 H :    0.015785
  30 H :    0.038503
  31 H :    0.011815
  32 H :    0.064082
  33 H :    0.054582
Sum of atomic charges:   -0.0000000

LOEWDIN ATOMIC CHARGES
----------------------
   0 S :    0.402635
   1 C :   -0.195668
   2 C :   -0.059004
   3 C :   -0.064847
   4 C :   -0.186921
   5 H :    0.040005
   6 C :   -0.038529
   7 H :    0.020098
   8 H :    0.029993
   9 C :   -0.029708
  10 H :    0.021868
  11 H :    0.010934
  12 C :   -0.060635
  13 H :    0.021607
  14 H :    0.032709
  15 H :    0.023875
  16 S :    0.364652
  17 C :   -0.175625
  18 C :   -0.081824
  19 C :   -0.052603
  20 C :   -0.184904
  21 H :    0.040722
  22 C :   -0.034836
  23 H :    0.037721
  24 H :    0.017561
  25 C :   -0.040827
  26 H :    0.023624
  27 H :    0.025100
  28 C :   -0.051657
  29 H :    0.022285
  30 H :    0.031475
  31 H :    0.020825
  32 H :    0.035929
  33 H :    0.033970

  Mayer bond orders larger than 0.100000
B(  0-S ,  1-C ) :   1.1252 B(  0-S ,  4-C ) :   1.1434 B(  1-C ,  2-C ) :   1.6194
B(  1-C , 32-H ) :   0.9698 B(  2-C ,  3-C ) :   1.2043 B(  2-C ,  6-C ) :   1.0418
B(  3-C ,  4-C ) :   1.6266 B(  3-C ,  5-H ) :   0.9848 B(  4-C , 20-C ) :   1.0328
B(  6-C ,  7-H ) :   0.9368 B(  6-C ,  8-H ) :   0.9375 B(  6-C ,  9-C ) :   1.0647
B(  9-C , 10-H ) :   0.9537 B(  9-C , 11-H ) :   0.9565 B(  9-C , 12-C ) :   1.0821
B( 12-C , 13-H ) :   0.9780 B( 12-C , 14-H ) :   0.9729 B( 12-C , 15-H ) :   0.9736
B( 16-S , 17-C ) :   1.1163 B( 16-S , 20-C ) :   1.1121 B( 17-C , 18-C ) :   1.6869
B( 17-C , 33-H ) :   0.9631 B( 18-C , 19-C ) :   1.1906 B( 18-C , 21-H ) :   0.9686
B( 19-C , 20-C ) :   1.6531 B( 19-C , 22-C ) :   1.0247 B( 22-C , 23-H ) :   0.9262
B( 22-C , 24-H ) :   0.9336 B( 22-C , 25-C ) :   1.0703 B( 25-C , 26-H ) :   0.9597
B( 25-C , 27-H ) :   0.9444 B( 25-C , 28-C ) :   1.0797 B( 28-C , 29-H ) :   0.9664
B( 28-C , 30-H ) :   0.9721 B( 28-C , 31-H ) :   0.9690

Dispersion correction           -0.013274166
FINAL SINGLE POINT ENERGY     -1339.872275841241

DIPOLE MOMENT
-------------
                                X             Y             Z
Electronic contribution:     -3.70614     -18.09073      21.72794
Nuclear contribution   :      3.78437      18.70041     -22.16901
                        -----------------------------------------
Total Dipole Moment    :      0.07823       0.60969      -0.44107
                        -----------------------------------------
Magnitude (a.u.)       :      0.75656
Magnitude (Debye)      :      1.92302

Rotational constants in cm-1:     0.017413     0.007913     0.006078
Rotational constants in MHz :   522.036814   237.231301   182.211095

                             ****ORCA TERMINATED NORMALLY****
TOTAL RUN TIME: 0 days 0 hours 0 minutes 19 seconds 866 msec
