                         Program Version 4.2.1 -  RELEASE  -
|  1> ! wB97X-D3 SP def2-SVP
|  2> %pal
|  3> nprocs 24
|  4> end
|  5>
|  6> * xyz 0 1
|  7> S 	 -31.3361 	 19.0343 	 13.0634
|  8> C 	 -30.0267 	 20.1636 	 12.6668
|  9> C 	 -28.8176 	 19.7197 	 13.2393
| 10> C 	 -28.984 	 18.4255 	 13.8989
| 11> C 	 -30.2411 	 17.8572 	 13.7463
| 12> H 	 -28.2667 	 17.9175 	 14.4083
| 13> C 	 -27.439 	 20.4459 	 13.2535
| 14> H 	 -26.7216 	 19.7859 	 12.8633
| 15> H 	 -27.338 	 20.5229 	 14.2901
| 16> C 	 -27.5638 	 21.833 	 12.6446
| 17> H 	 -28.1402 	 21.7267 	 11.837
| 18> H 	 -28.1585 	 22.5442 	 13.2381
| 19> C 	 -26.3055 	 22.7076 	 12.4719
| 20> H 	 -25.5446 	 22.4225 	 13.2245
| 21> H 	 -25.93 	 22.4569 	 11.5222
| 22> H 	 -26.5088 	 23.7839 	 12.4455
| 23> S 	 -32.0261 	 16.4462 	 15.3486
| 24> C 	 -31.9702 	 14.7366 	 15.3998
| 25> C 	 -30.9786 	 14.2696 	 14.5573
| 26> C 	 -30.2717 	 15.318 	 13.8622
| 27> C 	 -30.6746 	 16.5673 	 14.2637
| 28> H 	 -30.821 	 13.1931 	 14.436
| 29> C 	 -29.2926 	 14.9838 	 12.7417
| 30> H 	 -28.5587 	 14.2443 	 13.0692
| 31> H 	 -28.6744 	 15.8545 	 12.5132
| 32> C 	 -30.0031 	 14.6128 	 11.4911
| 33> H 	 -30.6547 	 13.7478 	 11.6484
| 34> H 	 -29.2466 	 14.4353 	 10.6902
| 35> C 	 -30.9682 	 15.6392 	 10.9029
| 36> H 	 -31.9458 	 15.9103 	 11.4692
| 37> H 	 -31.3986 	 15.4036 	 9.94263
| 38> H 	 -30.3095 	 16.4921 	 10.7884
| 39> H 	 -30.1144 	 21.113 	 12.1572
| 40> H 	 -32.7286 	 14.1224 	 15.8878
| 41> *
| 42>
| 43>                          ****END OF INPUT****

CARTESIAN COORDINATES (ANGSTROEM)
---------------------------------
  S    -31.336100   19.034300   13.063400
  C    -30.026700   20.163600   12.666800
  C    -28.817600   19.719700   13.239300
  C    -28.984000   18.425500   13.898900
  C    -30.241100   17.857200   13.746300
  H    -28.266700   17.917500   14.408300
  C    -27.439000   20.445900   13.253500
  H    -26.721600   19.785900   12.863300
  H    -27.338000   20.522900   14.290100
  C    -27.563800   21.833000   12.644600
  H    -28.140200   21.726700   11.837000
  H    -28.158500   22.544200   13.238100
  C    -26.305500   22.707600   12.471900
  H    -25.544600   22.422500   13.224500
  H    -25.930000   22.456900   11.522200
  H    -26.508800   23.783900   12.445500
  S    -32.026100   16.446200   15.348600
  C    -31.970200   14.736600   15.399800
  C    -30.978600   14.269600   14.557300
  C    -30.271700   15.318000   13.862200
  C    -30.674600   16.567300   14.263700
  H    -30.821000   13.193100   14.436000
  C    -29.292600   14.983800   12.741700
  H    -28.558700   14.244300   13.069200
  H    -28.674400   15.854500   12.513200
  C    -30.003100   14.612800   11.491100
  H    -30.654700   13.747800   11.648400
  H    -29.246600   14.435300   10.690200
  C    -30.968200   15.639200   10.902900
  H    -31.945800   15.910300   11.469200
  H    -31.398600   15.403600    9.942630
  H    -30.309500   16.492100   10.788400
  H    -30.114400   21.113000   12.157200
  H    -32.728600   14.122400   15.887800

 Total Charge           Charge          ....    0
 Multiplicity           Mult            ....    1
 Number of Electrons    NEL             ....  134
 Basis Dimension        Dim             ....  322

ORBITAL ENERGIES
----------------

  NO   OCC          E(Eh)            E(eV)
   0   2.0000     -88.965221     -2420.8667
   1   2.0000     -88.963850     -2420.8294
   2   2.0000     -10.329381      -281.0767
   3   2.0000     -10.323429      -280.9148
   4   2.0000     -10.317137      -280.7436
   5   2.0000     -10.316738      -280.7327
   6   2.0000     -10.308621      -280.5118
   7   2.0000     -10.302446      -280.3438
   8   2.0000     -10.294909      -280.1387
   9   2.0000     -10.290182      -280.0101
  10   2.0000     -10.289186      -279.9830
  11   2.0000     -10.288447      -279.9629
  12   2.0000     -10.282937      -279.8130
  13   2.0000     -10.278457      -279.6910
  14   2.0000     -10.277709      -279.6707
  15   2.0000     -10.272093      -279.5179
  16   2.0000      -8.079610      -219.8574
  17   2.0000      -8.079291      -219.8487
  18   2.0000      -6.038057      -164.3039
  19   2.0000      -6.037951      -164.3010
  20   2.0000      -6.033883      -164.1903
  21   2.0000      -6.033868      -164.1899
  22   2.0000      -6.030487      -164.0979
  23   2.0000      -6.029926      -164.0826
  24   2.0000      -1.008385       -27.4396
  25   2.0000      -0.981179       -26.6992
  26   2.0000      -0.916009       -24.9259
  27   2.0000      -0.914568       -24.8867
  28   2.0000      -0.867581       -23.6081
  29   2.0000      -0.849518       -23.1166
  30   2.0000      -0.842604       -22.9284
  31   2.0000      -0.813726       -22.1426
  32   2.0000      -0.785731       -21.3808
  33   2.0000      -0.775480       -21.1019
  34   2.0000      -0.720440       -19.6042
  35   2.0000      -0.694697       -18.9037
  36   2.0000      -0.686713       -18.6864
  37   2.0000      -0.656916       -17.8756
  38   2.0000      -0.642369       -17.4797
  39   2.0000      -0.614070       -16.7097
  40   2.0000      -0.601386       -16.3645
  41   2.0000      -0.577684       -15.7196
  42   2.0000      -0.565738       -15.3945
  43   2.0000      -0.555704       -15.1215
  44   2.0000      -0.544220       -14.8090
  45   2.0000      -0.532265       -14.4837
  46   2.0000      -0.518978       -14.1221
  47   2.0000      -0.515713       -14.0333
  48   2.0000      -0.505042       -13.7429
  49   2.0000      -0.501455       -13.6453
  50   2.0000      -0.492291       -13.3959
  51   2.0000      -0.482491       -13.1292
  52   2.0000      -0.470291       -12.7973
  53   2.0000      -0.464333       -12.6351
  54   2.0000      -0.454757       -12.3746
  55   2.0000      -0.451826       -12.2948
  56   2.0000      -0.447988       -12.1904
  57   2.0000      -0.439474       -11.9587
  58   2.0000      -0.434376       -11.8200
  59   2.0000      -0.418175       -11.3791
  60   2.0000      -0.410856       -11.1800
  61   2.0000      -0.407606       -11.0915
  62   2.0000      -0.400066       -10.8864
  63   2.0000      -0.342819        -9.3286
  64   2.0000      -0.330517        -8.9938
  65   2.0000      -0.324851        -8.8396
  66   2.0000      -0.298096        -8.1116
  67   0.0000       0.035348         0.9619
  68   0.0000       0.069753         1.8981
  69   0.0000       0.115798         3.1510
  70   0.0000       0.124646         3.3918
  71   0.0000       0.134707         3.6656

MULLIKEN ATOMIC CHARGES
-----------------------
   0 S :    0.114223
   1 C :   -0.134585
   2 C :   -0.150465
   3 C :    0.074060
   4 C :   -0.154985
   5 H :   -0.028995
   6 C :    0.168456
   7 H :    0.032904
   8 H :    0.021824
   9 C :   -0.117343
  10 H :    0.001334
  11 H :    0.025687
  12 C :   -0.009217
  13 H :    0.037527
  14 H :    0.014924
  15 H :    0.039438
  16 S :    0.111390
  17 C :   -0.100073
  18 C :   -0.042153
  19 C :   -0.058012
  20 C :   -0.163088
  21 H :    0.026341
  22 C :    0.115436
  23 H :    0.030345
  24 H :    0.010523
  25 C :   -0.074660
  26 H :    0.024090
  27 H :    0.038910
  28 C :   -0.076610
  29 H :    0.049607
  30 H :    0.026949
  31 H :    0.025844
  32 H :    0.052503
  33 H :    0.067871
Sum of atomic charges:    0.0000000

LOEWDIN ATOMIC CHARGES
----------------------
   0 S :    0.399589
   1 C :   -0.205875
   2 C :   -0.049102
   3 C :   -0.051849
   4 C :   -0.188374
   5 H :    0.012302
   6 C :   -0.014222
   7 H :    0.027081
   8 H :    0.031937
   9 C :   -0.042628
  10 H :    0.001391
  11 H :    0.031736
  12 C :   -0.058176
  13 H :    0.031507
  14 H :    0.016677
  15 H :    0.029875
  16 S :    0.424014
  17 C :   -0.198363
  18 C :   -0.074955
  19 C :   -0.050212
  20 C :   -0.210300
  21 H :    0.033295
  22 C :   -0.033915
  23 H :    0.034102
  24 H :    0.028440
  25 C :   -0.044072
  26 H :    0.020166
  27 H :    0.031893
  28 C :   -0.074357
  29 H :    0.035210
  30 H :    0.022215
  31 H :    0.021580
  32 H :    0.028378
  33 H :    0.035013

  Mayer bond orders larger than 0.100000
B(  0-S ,  1-C ) :   1.1217 B(  0-S ,  4-C ) :   1.1448 B(  1-C ,  2-C ) :   1.6239
B(  1-C , 32-H ) :   0.9632 B(  2-C ,  3-C ) :   1.2292 B(  2-C ,  6-C ) :   0.9810
B(  3-C ,  4-C ) :   1.5842 B(  3-C ,  5-H ) :   1.0068 B(  4-C , 20-C ) :   1.0366
B(  6-C ,  7-H ) :   0.9429 B(  6-C ,  8-H ) :   0.9263 B(  6-C ,  9-C ) :   1.0792
B(  9-C , 10-H ) :   0.9552 B(  9-C , 11-H ) :   0.9587 B(  9-C , 12-C ) :   1.0672
B( 12-C , 13-H ) :   0.9749 B( 12-C , 14-H ) :   0.9750 B( 12-C , 15-H ) :   0.9780
B( 16-S , 17-C ) :   1.1692 B( 16-S , 20-C ) :   1.1429 B( 17-C , 18-C ) :   1.5914
B( 17-C , 33-H ) :   0.9671 B( 18-C , 19-C ) :   1.2488 B( 18-C , 21-H ) :   0.9892
B( 19-C , 20-C ) :   1.5993 B( 19-C , 22-C ) :   1.0415 B( 22-C , 23-H ) :   0.9307
B( 22-C , 24-H ) :   0.9208 B( 22-C , 25-C ) :   1.0849 B( 25-C , 26-H ) :   0.9548
B( 25-C , 27-H ) :   0.9530 B( 25-C , 28-C ) :   1.0699 B( 28-C , 29-H ) :   0.9699
B( 28-C , 30-H ) :   0.9732 B( 28-C , 31-H ) :   0.9754

Dispersion correction           -0.015066278
FINAL SINGLE POINT ENERGY     -1339.858749257384

DIPOLE MOMENT
-------------
                                X             Y             Z
Electronic contribution:    -18.09125      -6.48590      14.18151
Nuclear contribution   :     18.60974       6.40410     -14.38939
                        -----------------------------------------
Total Dipole Moment    :      0.51848      -0.08180      -0.20788
                        -----------------------------------------
Magnitude (a.u.)       :      0.56456
Magnitude (Debye)      :      1.43501

Rotational constants in cm-1:     0.025121     0.007264     0.006643
Rotational constants in MHz :   753.118904   217.762484   199.153240

                             ****ORCA TERMINATED NORMALLY****
TOTAL RUN TIME: 0 days 0 hours 0 minutes 20 seconds 728 msec
