                         Program Version 4.2.1 -  RELEASE  -
|  1> ! wB97X-D3 SP def2-SVP
|  2> %pal
|  3> nprocs 24
|  4> end
|  5>
|  6> * xyz 0 1
|  7> S 	 -68.8219 	 17.856 	 -76.9119
|  8> C 	 -67.4742 	 18.9247 	 -77.1318
|  9> C 	 -66.7887 	 18.9659 	 -75.9469
| 10> C 	 -67.2151 	 18.0497 	 -74.9535
| 11> C 	 -68.2751 	 17.2936 	 -75.381
| 12> H 	 -66.6994 	 17.7847 	 -74.0238
| 13> C 	 -65.5619 	 19.8366 	 -75.795
| 14> H 	 -65.2162 	 20.0325 	 -76.8327
| 15> H 	 -64.7502 	 19.2862 	 -75.3331
| 16> C 	 -65.9475 	 21.1358 	 -74.9989
| 17> H 	 -65.1173 	 21.8887 	 -75.2051
| 18> H 	 -66.7869 	 21.6598 	 -75.5492
| 19> C 	 -66.3055 	 21.0015 	 -73.4884
| 20> H 	 -67.1207 	 20.2741 	 -73.2448
| 21> H 	 -65.5302 	 20.7328 	 -72.7685
| 22> H 	 -66.7425 	 21.9632 	 -73.1485
| 23> S 	 -69.2381 	 14.818 	 -75.7558
| 24> C 	 -70.2917 	 14.0041 	 -74.6162
| 25> C 	 -70.185 	 14.652 	 -73.4259
| 26> C 	 -69.2934 	 15.7872 	 -73.421
| 27> C 	 -68.9824 	 16.1901 	 -74.73
| 28> H 	 -70.6226 	 14.2418 	 -72.5833
| 29> C 	 -68.9611 	 16.6048 	 -72.2145
| 30> H 	 -69.9726 	 16.7396 	 -71.842
| 31> H 	 -68.5497 	 17.5909 	 -72.3773
| 32> C 	 -67.9356 	 15.8451 	 -71.3397
| 33> H 	 -66.9125 	 16.1405 	 -71.6507
| 34> H 	 -68.0766 	 14.7604 	 -71.46
| 35> C 	 -68.1072 	 16.0972 	 -69.8133
| 36> H 	 -69.1253 	 15.8773 	 -69.4701
| 37> H 	 -67.8542 	 17.1631 	 -69.7813
| 38> H 	 -67.4471 	 15.4936 	 -69.1707
| 39> H 	 -67.2208 	 19.5518 	 -78.0318
| 40> H 	 -70.7884 	 13.0436 	 -74.7605
| 41> *
| 42>
| 43>                          ****END OF INPUT****

CARTESIAN COORDINATES (ANGSTROEM)
---------------------------------
  S    -68.821900   17.856000  -76.911900
  C    -67.474200   18.924700  -77.131800
  C    -66.788700   18.965900  -75.946900
  C    -67.215100   18.049700  -74.953500
  C    -68.275100   17.293600  -75.381000
  H    -66.699400   17.784700  -74.023800
  C    -65.561900   19.836600  -75.795000
  H    -65.216200   20.032500  -76.832700
  H    -64.750200   19.286200  -75.333100
  C    -65.947500   21.135800  -74.998900
  H    -65.117300   21.888700  -75.205100
  H    -66.786900   21.659800  -75.549200
  C    -66.305500   21.001500  -73.488400
  H    -67.120700   20.274100  -73.244800
  H    -65.530200   20.732800  -72.768500
  H    -66.742500   21.963200  -73.148500
  S    -69.238100   14.818000  -75.755800
  C    -70.291700   14.004100  -74.616200
  C    -70.185000   14.652000  -73.425900
  C    -69.293400   15.787200  -73.421000
  C    -68.982400   16.190100  -74.730000
  H    -70.622600   14.241800  -72.583300
  C    -68.961100   16.604800  -72.214500
  H    -69.972600   16.739600  -71.842000
  H    -68.549700   17.590900  -72.377300
  C    -67.935600   15.845100  -71.339700
  H    -66.912500   16.140500  -71.650700
  H    -68.076600   14.760400  -71.460000
  C    -68.107200   16.097200  -69.813300
  H    -69.125300   15.877300  -69.470100
  H    -67.854200   17.163100  -69.781300
  H    -67.447100   15.493600  -69.170700
  H    -67.220800   19.551800  -78.031800
  H    -70.788400   13.043600  -74.760500

 Total Charge           Charge          ....    0
 Multiplicity           Mult            ....    1
 Number of Electrons    NEL             ....  134
 Basis Dimension        Dim             ....  322

ORBITAL ENERGIES
----------------

  NO   OCC          E(Eh)            E(eV)
   0   2.0000     -88.963209     -2420.8120
   1   2.0000     -88.956957     -2420.6419
   2   2.0000     -10.328408      -281.0503
   3   2.0000     -10.325404      -280.9685
   4   2.0000     -10.315833      -280.7081
   5   2.0000     -10.313769      -280.6519
   6   2.0000     -10.306311      -280.4490
   7   2.0000     -10.302617      -280.3485
   8   2.0000     -10.295859      -280.1646
   9   2.0000     -10.293973      -280.1132
  10   2.0000     -10.292972      -280.0860
  11   2.0000     -10.292785      -280.0809
  12   2.0000     -10.290454      -280.0175
  13   2.0000     -10.289521      -279.9921
  14   2.0000     -10.287745      -279.9438
  15   2.0000     -10.282530      -279.8019
  16   2.0000      -8.078718      -219.8331
  17   2.0000      -8.072349      -219.6598
  18   2.0000      -6.037155      -164.2793
  19   2.0000      -6.032955      -164.1650
  20   2.0000      -6.030903      -164.1092
  21   2.0000      -6.029617      -164.0742
  22   2.0000      -6.026758      -163.9964
  23   2.0000      -6.022983      -163.8937
  24   2.0000      -1.014143       -27.5962
  25   2.0000      -0.990676       -26.9577
  26   2.0000      -0.911369       -24.7996
  27   2.0000      -0.905874       -24.6501
  28   2.0000      -0.869621       -23.6636
  29   2.0000      -0.848299       -23.0834
  30   2.0000      -0.840253       -22.8644
  31   2.0000      -0.822191       -22.3730
  32   2.0000      -0.781839       -21.2749
  33   2.0000      -0.769662       -20.9436
  34   2.0000      -0.705400       -19.1949
  35   2.0000      -0.697928       -18.9916
  36   2.0000      -0.694246       -18.8914
  37   2.0000      -0.663141       -18.0450
  38   2.0000      -0.639193       -17.3933
  39   2.0000      -0.620342       -16.8804
  40   2.0000      -0.601244       -16.3607
  41   2.0000      -0.572830       -15.5875
  42   2.0000      -0.559534       -15.2257
  43   2.0000      -0.539164       -14.6714
  44   2.0000      -0.534989       -14.5578
  45   2.0000      -0.527576       -14.3561
  46   2.0000      -0.522653       -14.2221
  47   2.0000      -0.514191       -13.9919
  48   2.0000      -0.507790       -13.8177
  49   2.0000      -0.504992       -13.7415
  50   2.0000      -0.491515       -13.3748
  51   2.0000      -0.485985       -13.2243
  52   2.0000      -0.475357       -12.9351
  53   2.0000      -0.470029       -12.7901
  54   2.0000      -0.461622       -12.5614
  55   2.0000      -0.443162       -12.0590
  56   2.0000      -0.439761       -11.9665
  57   2.0000      -0.435895       -11.8613
  58   2.0000      -0.431801       -11.7499
  59   2.0000      -0.428505       -11.6602
  60   2.0000      -0.420614       -11.4455
  61   2.0000      -0.404282       -11.0011
  62   2.0000      -0.402841       -10.9619
  63   2.0000      -0.352795        -9.6000
  64   2.0000      -0.329951        -8.9784
  65   2.0000      -0.320236        -8.7141
  66   2.0000      -0.291008        -7.9187
  67   0.0000       0.024940         0.6786
  68   0.0000       0.081816         2.2263
  69   0.0000       0.111157         3.0247
  70   0.0000       0.120413         3.2766
  71   0.0000       0.126049         3.4300

MULLIKEN ATOMIC CHARGES
-----------------------
   0 S :    0.119641
   1 C :   -0.136472
   2 C :   -0.105989
   3 C :    0.022063
   4 C :   -0.139981
   5 H :    0.017053
   6 C :    0.065736
   7 H :    0.019672
   8 H :    0.029479
   9 C :   -0.089180
  10 H :    0.037966
  11 H :    0.035009
  12 C :   -0.066911
  13 H :    0.038453
  14 H :    0.036426
  15 H :    0.037368
  16 S :    0.086259
  17 C :   -0.075518
  18 C :   -0.009633
  19 C :   -0.045092
  20 C :   -0.141960
  21 H :   -0.011405
  22 C :    0.054216
  23 H :    0.036793
  24 H :    0.021821
  25 C :   -0.099725
  26 H :    0.038466
  27 H :    0.038336
  28 C :   -0.055485
  29 H :    0.034878
  30 H :    0.032819
  31 H :    0.040032
  32 H :    0.070669
  33 H :    0.064196
Sum of atomic charges:    0.0000000

LOEWDIN ATOMIC CHARGES
----------------------
   0 S :    0.429177
   1 C :   -0.216961
   2 C :   -0.067629
   3 C :   -0.074575
   4 C :   -0.200507
   5 H :    0.033958
   6 C :   -0.032895
   7 H :    0.032291
   8 H :    0.026771
   9 C :   -0.047568
  10 H :    0.029337
  11 H :    0.031778
  12 C :   -0.079318
  13 H :    0.029477
  14 H :    0.024270
  15 H :    0.033358
  16 S :    0.405471
  17 C :   -0.182386
  18 C :   -0.068011
  19 C :   -0.051643
  20 C :   -0.202363
  21 H :    0.018014
  22 C :   -0.034967
  23 H :    0.035792
  24 H :    0.027299
  25 C :   -0.037825
  26 H :    0.026574
  27 H :    0.022078
  28 C :   -0.066825
  29 H :    0.023934
  30 H :    0.025850
  31 H :    0.026205
  32 H :    0.045360
  33 H :    0.036480

  Mayer bond orders larger than 0.100000
B(  0-S ,  1-C ) :   1.1313 B(  0-S ,  4-C ) :   1.1816 B(  1-C ,  2-C ) :   1.6074
B(  1-C , 32-H ) :   0.9622 B(  2-C ,  3-C ) :   1.2464 B(  2-C ,  6-C ) :   1.0219
B(  3-C ,  4-C ) :   1.5556 B(  3-C ,  5-H ) :   0.9915 B(  4-C , 20-C ) :   1.0269
B(  6-C ,  7-H ) :   0.9437 B(  6-C ,  8-H ) :   0.9490 B(  6-C ,  9-C ) :   1.0525
B(  9-C , 10-H ) :   0.9578 B(  9-C , 11-H ) :   0.9563 B(  9-C , 12-C ) :   1.0665
B( 12-C , 13-H ) :   0.9704 B( 12-C , 14-H ) :   0.9770 B( 12-C , 15-H ) :   0.9720
B( 16-S , 17-C ) :   1.1425 B( 16-S , 20-C ) :   1.1575 B( 17-C , 18-C ) :   1.6039
B( 17-C , 20-C ) :   0.1017 B( 17-C , 33-H ) :   0.9703 B( 18-C , 19-C ) :   1.2286
B( 18-C , 21-H ) :   0.9982 B( 19-C , 20-C ) :   1.5612 B( 19-C , 22-C ) :   1.0438
B( 22-C , 23-H ) :   0.9492 B( 22-C , 24-H ) :   0.9420 B( 22-C , 25-C ) :   1.0289
B( 25-C , 26-H ) :   0.9561 B( 25-C , 27-H ) :   0.9684 B( 25-C , 28-C ) :   1.0662
B( 28-C , 29-H ) :   0.9797 B( 28-C , 30-H ) :   0.9773 B( 28-C , 31-H ) :   0.9762

Dispersion correction           -0.014492839
FINAL SINGLE POINT ENERGY     -1339.865665012677

DIPOLE MOMENT
-------------
                                X             Y             Z
Electronic contribution:    -11.88983     -13.43360     -23.49089
Nuclear contribution   :     12.19296      13.60207      24.05935
                        -----------------------------------------
Total Dipole Moment    :      0.30313       0.16847       0.56845
                        -----------------------------------------
Magnitude (a.u.)       :      0.66589
Magnitude (Debye)      :      1.69256

Rotational constants in cm-1:     0.017283     0.009859     0.006619
Rotational constants in MHz :   518.139673   295.559706   198.440428

                             ****ORCA TERMINATED NORMALLY****
TOTAL RUN TIME: 0 days 0 hours 0 minutes 21 seconds 864 msec
