                         Program Version 4.2.1 -  RELEASE  -
|  1> ! wB97X-D3 SP def2-SVP
|  2> %pal
|  3> nprocs 24
|  4> end
|  5>
|  6> * xyz 0 1
|  7> S 	 38.8734 	 -21.3063 	 -123.407
|  8> C 	 37.2141 	 -20.7308 	 -123.271
|  9> C 	 36.4176 	 -21.4184 	 -122.339
| 10> C 	 37.2391 	 -22.2579 	 -121.516
| 11> C 	 38.5777 	 -22.3338 	 -121.98
| 12> H 	 36.8979 	 -22.9506 	 -120.768
| 13> C 	 34.9876 	 -21.168 	 -121.986
| 14> H 	 34.4164 	 -22.0564 	 -121.77
| 15> H 	 34.5994 	 -20.8156 	 -122.976
| 16> C 	 34.7274 	 -20.1502 	 -120.89
| 17> H 	 35.1676 	 -19.2664 	 -121.232
| 18> H 	 33.6225 	 -20.0166 	 -120.901
| 19> C 	 35.2177 	 -20.2281 	 -119.45
| 20> H 	 36.3297 	 -20.2993 	 -119.33
| 21> H 	 34.8704 	 -19.317 	 -118.917
| 22> H 	 34.7265 	 -20.9923 	 -118.825
| 23> S 	 40.8626 	 -22.6883 	 -120.595
| 24> C 	 41.6528 	 -24.288 	 -120.683
| 25> C 	 40.749 	 -25.2222 	 -121.09
| 26> C 	 39.507 	 -24.681 	 -121.517
| 27> C 	 39.5286 	 -23.285 	 -121.506
| 28> H 	 41.0041 	 -26.2694 	 -121.14
| 29> C 	 38.313 	 -25.5382 	 -121.972
| 30> H 	 37.4694 	 -25.0671 	 -122.538
| 31> H 	 37.9154 	 -25.8425 	 -120.95
| 32> C 	 38.7759 	 -26.6598 	 -122.852
| 33> H 	 39.3573 	 -27.4648 	 -122.281
| 34> H 	 39.4137 	 -26.3309 	 -123.667
| 35> C 	 37.569 	 -27.2704 	 -123.639
| 36> H 	 37.1656 	 -26.6637 	 -124.481
| 37> H 	 36.7913 	 -27.5101 	 -122.874
| 38> H 	 37.9725 	 -28.1792 	 -124.079
| 39> H 	 36.7276 	 -20.0833 	 -124.005
| 40> H 	 42.6161 	 -24.5452 	 -120.205
| 41> *
| 42>
| 43>                          ****END OF INPUT****

CARTESIAN COORDINATES (ANGSTROEM)
---------------------------------
  S     38.873400  -21.306300  -123.407000
  C     37.214100  -20.730800  -123.271000
  C     36.417600  -21.418400  -122.339000
  C     37.239100  -22.257900  -121.516000
  C     38.577700  -22.333800  -121.980000
  H     36.897900  -22.950600  -120.768000
  C     34.987600  -21.168000  -121.986000
  H     34.416400  -22.056400  -121.770000
  H     34.599400  -20.815600  -122.976000
  C     34.727400  -20.150200  -120.890000
  H     35.167600  -19.266400  -121.232000
  H     33.622500  -20.016600  -120.901000
  C     35.217700  -20.228100  -119.450000
  H     36.329700  -20.299300  -119.330000
  H     34.870400  -19.317000  -118.917000
  H     34.726500  -20.992300  -118.825000
  S     40.862600  -22.688300  -120.595000
  C     41.652800  -24.288000  -120.683000
  C     40.749000  -25.222200  -121.090000
  C     39.507000  -24.681000  -121.517000
  C     39.528600  -23.285000  -121.506000
  H     41.004100  -26.269400  -121.140000
  C     38.313000  -25.538200  -121.972000
  H     37.469400  -25.067100  -122.538000
  H     37.915400  -25.842500  -120.950000
  C     38.775900  -26.659800  -122.852000
  H     39.357300  -27.464800  -122.281000
  H     39.413700  -26.330900  -123.667000
  C     37.569000  -27.270400  -123.639000
  H     37.165600  -26.663700  -124.481000
  H     36.791300  -27.510100  -122.874000
  H     37.972500  -28.179200  -124.079000
  H     36.727600  -20.083300  -124.005000
  H     42.616100  -24.545200  -120.205000

 Total Charge           Charge          ....    0
 Multiplicity           Mult            ....    1
 Number of Electrons    NEL             ....  134
 Basis Dimension        Dim             ....  322

ORBITAL ENERGIES
----------------

  NO   OCC          E(Eh)            E(eV)
   0   2.0000     -88.971942     -2421.0496
   1   2.0000     -88.959158     -2420.7018
   2   2.0000     -10.327220      -281.0179
   3   2.0000     -10.317652      -280.7576
   4   2.0000     -10.317028      -280.7406
   5   2.0000     -10.315762      -280.7062
   6   2.0000     -10.302187      -280.3368
   7   2.0000     -10.301406      -280.3155
   8   2.0000     -10.298738      -280.2429
   9   2.0000     -10.294710      -280.1333
  10   2.0000     -10.293095      -280.0894
  11   2.0000     -10.291259      -280.0394
  12   2.0000     -10.289608      -279.9945
  13   2.0000     -10.283393      -279.8253
  14   2.0000     -10.283317      -279.8233
  15   2.0000     -10.282846      -279.8105
  16   2.0000      -8.085517      -220.0181
  17   2.0000      -8.074180      -219.7096
  18   2.0000      -6.043941      -164.4640
  19   2.0000      -6.040355      -164.3664
  20   2.0000      -6.036272      -164.2553
  21   2.0000      -6.032642      -164.1565
  22   2.0000      -6.028845      -164.0532
  23   2.0000      -6.024769      -163.9423
  24   2.0000      -1.003309       -27.3014
  25   2.0000      -0.977797       -26.6072
  26   2.0000      -0.913593       -24.8601
  27   2.0000      -0.909018       -24.7356
  28   2.0000      -0.869009       -23.6469
  29   2.0000      -0.848597       -23.0915
  30   2.0000      -0.843328       -22.9481
  31   2.0000      -0.810818       -22.0635
  32   2.0000      -0.784230       -21.3400
  33   2.0000      -0.765882       -20.8407
  34   2.0000      -0.701514       -19.0892
  35   2.0000      -0.698264       -19.0007
  36   2.0000      -0.692222       -18.8363
  37   2.0000      -0.652528       -17.7562
  38   2.0000      -0.637941       -17.3593
  39   2.0000      -0.612250       -16.6602
  40   2.0000      -0.597543       -16.2600
  41   2.0000      -0.576035       -15.6747
  42   2.0000      -0.563868       -15.3436
  43   2.0000      -0.543541       -14.7905
  44   2.0000      -0.540627       -14.7112
  45   2.0000      -0.527898       -14.3648
  46   2.0000      -0.513961       -13.9856
  47   2.0000      -0.509312       -13.8591
  48   2.0000      -0.498062       -13.5529
  49   2.0000      -0.489297       -13.3144
  50   2.0000      -0.484859       -13.1937
  51   2.0000      -0.475991       -12.9524
  52   2.0000      -0.474890       -12.9224
  53   2.0000      -0.466023       -12.6811
  54   2.0000      -0.459214       -12.4958
  55   2.0000      -0.448371       -12.2008
  56   2.0000      -0.443509       -12.0685
  57   2.0000      -0.436499       -11.8777
  58   2.0000      -0.434487       -11.8230
  59   2.0000      -0.428853       -11.6697
  60   2.0000      -0.420908       -11.4535
  61   2.0000      -0.408552       -11.1173
  62   2.0000      -0.398557       -10.8453
  63   2.0000      -0.337513        -9.1842
  64   2.0000      -0.330458        -8.9922
  65   2.0000      -0.319548        -8.6953
  66   2.0000      -0.295126        -8.0308
  67   0.0000       0.031497         0.8571
  68   0.0000       0.059795         1.6271
  69   0.0000       0.105793         2.8788
  70   0.0000       0.111091         3.0229
  71   0.0000       0.133627         3.6362

MULLIKEN ATOMIC CHARGES
-----------------------
   0 S :    0.132083
   1 C :   -0.114382
   2 C :   -0.117408
   3 C :    0.050872
   4 C :   -0.169605
   5 H :    0.016372
   6 C :    0.070731
   7 H :    0.021842
   8 H :    0.019688
   9 C :   -0.039935
  10 H :    0.007898
  11 H :    0.032655
  12 C :   -0.070332
  13 H :    0.055756
  14 H :    0.034183
  15 H :    0.023796
  16 S :    0.101126
  17 C :   -0.093501
  18 C :   -0.038122
  19 C :   -0.008652
  20 C :   -0.206973
  21 H :    0.016660
  22 C :    0.055706
  23 H :    0.046477
  24 H :    0.051426
  25 C :   -0.131223
  26 H :    0.044917
  27 H :    0.041398
  28 C :   -0.068612
  29 H :    0.053835
  30 H :    0.036788
  31 H :    0.030053
  32 H :    0.048751
  33 H :    0.065729
Sum of atomic charges:   -0.0000000

LOEWDIN ATOMIC CHARGES
----------------------
   0 S :    0.402135
   1 C :   -0.200712
   2 C :   -0.064360
   3 C :   -0.049700
   4 C :   -0.193781
   5 H :    0.029945
   6 C :   -0.036244
   7 H :    0.027097
   8 H :    0.037459
   9 C :   -0.041353
  10 H :    0.018772
  11 H :    0.031365
  12 C :   -0.074696
  13 H :    0.033425
  14 H :    0.034509
  15 H :    0.021223
  16 S :    0.397798
  17 C :   -0.178293
  18 C :   -0.072269
  19 C :   -0.050974
  20 C :   -0.220436
  21 H :    0.030729
  22 C :   -0.041310
  23 H :    0.039204
  24 H :    0.043748
  25 C :   -0.051785
  26 H :    0.028156
  27 H :    0.027572
  28 C :   -0.071482
  29 H :    0.030830
  30 H :    0.026408
  31 H :    0.024827
  32 H :    0.026614
  33 H :    0.035580

  Mayer bond orders larger than 0.100000
B(  0-S ,  1-C ) :   1.1405 B(  0-S ,  4-C ) :   1.1454 B(  1-C ,  2-C ) :   1.6119
B(  1-C , 32-H ) :   0.9582 B(  2-C ,  3-C ) :   1.2325 B(  2-C ,  6-C ) :   1.0372
B(  3-C ,  4-C ) :   1.5661 B(  3-C ,  5-H ) :   0.9915 B(  4-C , 20-C ) :   1.0570
B(  6-C ,  7-H ) :   0.9384 B(  6-C ,  8-H ) :   0.9307 B(  6-C ,  9-C ) :   1.0727
B(  9-C , 10-H ) :   0.9481 B(  9-C , 11-H ) :   0.9508 B(  9-C , 12-C ) :   1.0901
B( 12-C , 13-H ) :   0.9688 B( 12-C , 14-H ) :   0.9677 B( 12-C , 15-H ) :   0.9733
B( 16-S , 17-C ) :   1.1364 B( 16-S , 20-C ) :   1.1545 B( 17-C , 18-C ) :   1.6150
B( 17-C , 33-H ) :   0.9642 B( 18-C , 19-C ) :   1.2402 B( 18-C , 21-H ) :   0.9901
B( 19-C , 20-C ) :   1.5828 B( 19-C , 22-C ) :   1.0225 B( 22-C , 23-H ) :   0.9465
B( 22-C , 24-H ) :   0.9235 B( 22-C , 25-C ) :   1.0591 B( 25-C , 26-H ) :   0.9469
B( 25-C , 27-H ) :   0.9610 B( 25-C , 28-C ) :   1.0846 B( 28-C , 29-H ) :   0.9741
B( 28-C , 30-H ) :   0.9738 B( 28-C , 31-H ) :   0.9741

Dispersion correction           -0.014324852
FINAL SINGLE POINT ENERGY     -1339.860743752756

DIPOLE MOMENT
-------------
                                X             Y             Z
Electronic contribution:     21.11417       9.72327      -1.71026
Nuclear contribution   :    -21.67011     -10.18761       1.73862
                        -----------------------------------------
Total Dipole Moment    :     -0.55594      -0.46434       0.02837
                        -----------------------------------------
Magnitude (a.u.)       :      0.72490
Magnitude (Debye)      :      1.84255

Rotational constants in cm-1:     0.017446     0.008592     0.007307
Rotational constants in MHz :   523.029289   257.596254   219.047545

                             ****ORCA TERMINATED NORMALLY****
TOTAL RUN TIME: 0 days 0 hours 0 minutes 21 seconds 477 msec
