                         Program Version 4.2.1 -  RELEASE  -
|  1> ! wB97X-D3 SP def2-SVP
|  2> %pal
|  3> nprocs 24
|  4> end
|  5>
|  6> * xyz 0 1
|  7> S 	 45.67 	 -17.9478 	 -109.683
|  8> C 	 47.5015 	 -17.9371 	 -109.74
|  9> C 	 47.9798 	 -19.0856 	 -110.3
| 10> C 	 46.8997 	 -19.9135 	 -110.727
| 11> C 	 45.6404 	 -19.4955 	 -110.468
| 12> H 	 47.0657 	 -20.8029 	 -111.376
| 13> C 	 49.4668 	 -19.4238 	 -110.479
| 14> H 	 49.5767 	 -20.431 	 -110.724
| 15> H 	 49.8393 	 -19.4085 	 -109.458
| 16> C 	 50.3207 	 -18.6091 	 -111.5
| 17> H 	 50.2872 	 -17.531 	 -111.385
| 18> H 	 51.3388 	 -18.8498 	 -111.493
| 19> C 	 49.7966 	 -18.8041 	 -112.946
| 20> H 	 48.8607 	 -18.3645 	 -113.04
| 21> H 	 50.4517 	 -18.2828 	 -113.554
| 22> H 	 49.7631 	 -19.8195 	 -113.265
| 23> S 	 43.2453 	 -20.5862 	 -109.68
| 24> C 	 42.0647 	 -21.094 	 -110.85
| 25> C 	 42.5197 	 -20.8964 	 -112.144
| 26> C 	 43.7473 	 -20.1705 	 -112.16
| 27> C 	 44.3766 	 -20.0334 	 -110.93
| 28> H 	 41.8469 	 -21.1306 	 -113.031
| 29> C 	 44.2696 	 -19.5752 	 -113.492
| 30> H 	 44.8059 	 -20.4014 	 -114.006
| 31> H 	 45.0836 	 -18.7973 	 -113.281
| 32> C 	 43.402 	 -18.6782 	 -114.359
| 33> H 	 42.3791 	 -19.048 	 -114.604
| 34> H 	 43.8745 	 -18.6095 	 -115.397
| 35> C 	 43.0899 	 -17.3326 	 -113.765
| 36> H 	 42.7908 	 -17.2985 	 -112.8
| 37> H 	 42.1975 	 -17.0053 	 -114.227
| 38> H 	 43.9458 	 -16.632 	 -114.07
| 39> H 	 48.1014 	 -17.1038 	 -109.359
| 40> H 	 41.1109 	 -21.5051 	 -110.603
| 41> *
| 42>
| 43>                          ****END OF INPUT****

CARTESIAN COORDINATES (ANGSTROEM)
---------------------------------
  S     45.670000  -17.947800  -109.683000
  C     47.501500  -17.937100  -109.740000
  C     47.979800  -19.085600  -110.300000
  C     46.899700  -19.913500  -110.727000
  C     45.640400  -19.495500  -110.468000
  H     47.065700  -20.802900  -111.376000
  C     49.466800  -19.423800  -110.479000
  H     49.576700  -20.431000  -110.724000
  H     49.839300  -19.408500  -109.458000
  C     50.320700  -18.609100  -111.500000
  H     50.287200  -17.531000  -111.385000
  H     51.338800  -18.849800  -111.493000
  C     49.796600  -18.804100  -112.946000
  H     48.860700  -18.364500  -113.040000
  H     50.451700  -18.282800  -113.554000
  H     49.763100  -19.819500  -113.265000
  S     43.245300  -20.586200  -109.680000
  C     42.064700  -21.094000  -110.850000
  C     42.519700  -20.896400  -112.144000
  C     43.747300  -20.170500  -112.160000
  C     44.376600  -20.033400  -110.930000
  H     41.846900  -21.130600  -113.031000
  C     44.269600  -19.575200  -113.492000
  H     44.805900  -20.401400  -114.006000
  H     45.083600  -18.797300  -113.281000
  C     43.402000  -18.678200  -114.359000
  H     42.379100  -19.048000  -114.604000
  H     43.874500  -18.609500  -115.397000
  C     43.089900  -17.332600  -113.765000
  H     42.790800  -17.298500  -112.800000
  H     42.197500  -17.005300  -114.227000
  H     43.945800  -16.632000  -114.070000
  H     48.101400  -17.103800  -109.359000
  H     41.110900  -21.505100  -110.603000

 Total Charge           Charge          ....    0
 Multiplicity           Mult            ....    1
 Number of Electrons    NEL             ....  134
 Basis Dimension        Dim             ....  322

ORBITAL ENERGIES
----------------

  NO   OCC          E(Eh)            E(eV)
   0   2.0000     -88.962996     -2420.8062
   1   2.0000     -88.962284     -2420.7868
   2   2.0000     -10.326860      -281.0081
   3   2.0000     -10.325354      -280.9672
   4   2.0000     -10.319880      -280.8182
   5   2.0000     -10.317771      -280.7608
   6   2.0000     -10.307788      -280.4892
   7   2.0000     -10.303244      -280.3655
   8   2.0000     -10.298923      -280.2479
   9   2.0000     -10.296048      -280.1697
  10   2.0000     -10.293444      -280.0989
  11   2.0000     -10.292630      -280.0767
  12   2.0000     -10.290377      -280.0154
  13   2.0000     -10.286501      -279.9099
  14   2.0000     -10.266014      -279.3524
  15   2.0000     -10.262627      -279.2603
  16   2.0000      -8.077155      -219.7906
  17   2.0000      -8.077110      -219.7893
  18   2.0000      -6.035760      -164.2414
  19   2.0000      -6.035639      -164.2381
  20   2.0000      -6.031793      -164.1334
  21   2.0000      -6.031540      -164.1266
  22   2.0000      -6.028009      -164.0305
  23   2.0000      -6.027648      -164.0206
  24   2.0000      -1.005170       -27.3521
  25   2.0000      -0.982080       -26.7237
  26   2.0000      -0.911209       -24.7953
  27   2.0000      -0.907272       -24.6881
  28   2.0000      -0.871268       -23.7084
  29   2.0000      -0.849047       -23.1037
  30   2.0000      -0.841488       -22.8981
  31   2.0000      -0.814678       -22.1685
  32   2.0000      -0.788330       -21.4515
  33   2.0000      -0.776674       -21.1344
  34   2.0000      -0.711439       -19.3592
  35   2.0000      -0.704150       -19.1609
  36   2.0000      -0.689273       -18.7561
  37   2.0000      -0.652829       -17.7644
  38   2.0000      -0.640238       -17.4218
  39   2.0000      -0.612953       -16.6793
  40   2.0000      -0.596261       -16.2251
  41   2.0000      -0.575970       -15.6729
  42   2.0000      -0.556402       -15.1405
  43   2.0000      -0.554162       -15.0795
  44   2.0000      -0.545312       -14.8387
  45   2.0000      -0.541163       -14.7258
  46   2.0000      -0.516491       -14.0544
  47   2.0000      -0.512110       -13.9352
  48   2.0000      -0.503462       -13.6999
  49   2.0000      -0.494732       -13.4624
  50   2.0000      -0.493152       -13.4193
  51   2.0000      -0.473752       -12.8915
  52   2.0000      -0.466944       -12.7062
  53   2.0000      -0.464446       -12.6382
  54   2.0000      -0.455005       -12.3813
  55   2.0000      -0.444678       -12.1003
  56   2.0000      -0.442832       -12.0501
  57   2.0000      -0.439909       -11.9705
  58   2.0000      -0.435104       -11.8398
  59   2.0000      -0.425353       -11.5745
  60   2.0000      -0.421359       -11.4658
  61   2.0000      -0.412836       -11.2338
  62   2.0000      -0.396491       -10.7891
  63   2.0000      -0.335640        -9.1332
  64   2.0000      -0.333558        -9.0766
  65   2.0000      -0.326047        -8.8722
  66   2.0000      -0.304624        -8.2892
  67   0.0000       0.038117         1.0372
  68   0.0000       0.059373         1.6156
  69   0.0000       0.109320         2.9748
  70   0.0000       0.125465         3.4141
  71   0.0000       0.130251         3.5443

MULLIKEN ATOMIC CHARGES
-----------------------
   0 S :    0.097623
   1 C :   -0.148103
   2 C :   -0.092972
   3 C :    0.027486
   4 C :   -0.136678
   5 H :    0.020139
   6 C :    0.109466
   7 H :   -0.001251
   8 H :    0.035067
   9 C :   -0.051224
  10 H :    0.023035
  11 H :    0.020287
  12 C :   -0.014289
  13 H :    0.026331
  14 H :    0.011609
  15 H :    0.020103
  16 S :    0.099032
  17 C :   -0.088450
  18 C :   -0.050725
  19 C :   -0.030298
  20 C :   -0.172227
  21 H :    0.050951
  22 C :    0.042411
  23 H :    0.044467
  24 H :    0.034517
  25 C :   -0.111846
  26 H :    0.017038
  27 H :    0.040901
  28 C :   -0.002640
  29 H :    0.019374
  30 H :    0.008128
  31 H :    0.045351
  32 H :    0.055017
  33 H :    0.052368
Sum of atomic charges:   -0.0000000

LOEWDIN ATOMIC CHARGES
----------------------
   0 S :    0.377351
   1 C :   -0.165539
   2 C :   -0.064866
   3 C :   -0.063782
   4 C :   -0.204760
   5 H :    0.037161
   6 C :   -0.025454
   7 H :    0.021856
   8 H :    0.036498
   9 C :   -0.026683
  10 H :    0.023342
  11 H :    0.017360
  12 C :   -0.048110
  13 H :    0.018579
  14 H :    0.017715
  15 H :    0.018595
  16 S :    0.401890
  17 C :   -0.179688
  18 C :   -0.083929
  19 C :   -0.055858
  20 C :   -0.200275
  21 H :    0.045949
  22 C :   -0.044440
  23 H :    0.034722
  24 H :    0.040662
  25 C :   -0.054038
  26 H :    0.016919
  27 H :    0.036610
  28 C :   -0.059353
  29 H :    0.014809
  30 H :    0.024377
  31 H :    0.036736
  32 H :    0.030499
  33 H :    0.025146

  Mayer bond orders larger than 0.100000
B(  0-S ,  1-C ) :   1.1229 B(  0-S ,  4-C ) :   1.1378 B(  1-C ,  2-C ) :   1.6365
B(  1-C , 32-H ) :   0.9702 B(  2-C ,  3-C ) :   1.2202 B(  2-C ,  6-C ) :   1.0027
B(  3-C ,  4-C ) :   1.6249 B(  3-C ,  5-H ) :   0.9913 B(  4-C , 20-C ) :   1.0075
B(  6-C ,  7-H ) :   0.9396 B(  6-C ,  8-H ) :   0.9381 B(  6-C ,  9-C ) :   1.0662
B(  9-C , 10-H ) :   0.9614 B(  9-C , 11-H ) :   0.9593 B(  9-C , 12-C ) :   1.0756
B( 12-C , 13-H ) :   0.9774 B( 12-C , 14-H ) :   0.9719 B( 12-C , 15-H ) :   0.9778
B( 16-S , 17-C ) :   1.1723 B( 16-S , 20-C ) :   1.1313 B( 17-C , 18-C ) :   1.5979
B( 17-C , 20-C ) :   0.1048 B( 17-C , 33-H ) :   0.9707 B( 18-C , 19-C ) :   1.2414
B( 18-C , 21-H ) :   0.9786 B( 19-C , 20-C ) :   1.6105 B( 19-C , 22-C ) :   1.0275
B( 22-C , 23-H ) :   0.9392 B( 22-C , 24-H ) :   0.9416 B( 22-C , 25-C ) :   1.0558
B( 25-C , 26-H ) :   0.9630 B( 25-C , 27-H ) :   0.9525 B( 25-C , 28-C ) :   1.0775
B( 28-C , 29-H ) :   0.9729 B( 28-C , 30-H ) :   0.9702 B( 28-C , 31-H ) :   0.9719

Dispersion correction           -0.014679472
FINAL SINGLE POINT ENERGY     -1339.854022970433

DIPOLE MOMENT
-------------
                                X             Y             Z
Electronic contribution:    -13.40206      -6.07027      21.28852
Nuclear contribution   :     13.72671       6.09326     -21.88654
                        -----------------------------------------
Total Dipole Moment    :      0.32466       0.02299      -0.59803
                        -----------------------------------------
Magnitude (a.u.)       :      0.68086
Magnitude (Debye)      :      1.73060

Rotational constants in cm-1:     0.019668     0.008511     0.007148
Rotational constants in MHz :   589.639804   255.158011   214.282351

                             ****ORCA TERMINATED NORMALLY****
TOTAL RUN TIME: 0 days 0 hours 0 minutes 21 seconds 692 msec
