                         Program Version 4.2.1 -  RELEASE  -
|  1> ! wB97X-D3 SP def2-SVP
|  2> %pal
|  3> nprocs 24
|  4> end
|  5>
|  6> * xyz 0 1
|  7> S 	 44.7308 	 -16.3207 	 -116.321
|  8> C 	 46.0835 	 -17.2883 	 -115.848
|  9> C 	 46.9943 	 -17.6157 	 -116.844
| 10> C 	 46.689 	 -16.8204 	 -117.998
| 11> C 	 45.5138 	 -16.0698 	 -117.894
| 12> H 	 47.2426 	 -16.8257 	 -118.896
| 13> C 	 48.1879 	 -18.5762 	 -116.71
| 14> H 	 48.3777 	 -19.0367 	 -117.656
| 15> H 	 47.8519 	 -19.3685 	 -115.965
| 16> C 	 49.5481 	 -17.8969 	 -116.144
| 17> H 	 49.4262 	 -17.4157 	 -115.165
| 18> H 	 50.3646 	 -18.6399 	 -116.072
| 19> C 	 50.0623 	 -16.7971 	 -117.128
| 20> H 	 51.1704 	 -16.6102 	 -116.91
| 21> H 	 50.0629 	 -17.1189 	 -118.105
| 22> H 	 49.5841 	 -15.811 	 -117.09
| 23> S 	 43.6741 	 -15.7171 	 -120.012
| 24> C 	 43.6751 	 -14.2888 	 -120.95
| 25> C 	 44.8562 	 -13.5783 	 -120.744
| 26> C 	 45.5311 	 -14.0283 	 -119.57
| 27> C 	 45.0155 	 -15.1808 	 -118.978
| 28> H 	 45.0493 	 -12.6862 	 -121.32
| 29> C 	 46.7558 	 -13.2853 	 -119.096
| 30> H 	 46.9758 	 -13.6944 	 -118.114
| 31> H 	 46.52 	 -12.1898 	 -119.039
| 32> C 	 47.9312 	 -13.3952 	 -120.064
| 33> H 	 47.7664 	 -12.8549 	 -121.022
| 34> H 	 48.0644 	 -14.4676 	 -120.273
| 35> C 	 49.2118 	 -12.8232 	 -119.414
| 36> H 	 49.0746 	 -11.7947 	 -119.105
| 37> H 	 50.0898 	 -12.8398 	 -119.922
| 38> H 	 49.3991 	 -13.4224 	 -118.59
| 39> H 	 46.1381 	 -17.648 	 -114.838
| 40> H 	 43.0165 	 -14.0475 	 -121.795
| 41> *
| 42>
| 43>                          ****END OF INPUT****

CARTESIAN COORDINATES (ANGSTROEM)
---------------------------------
  S     44.730800  -16.320700  -116.321000
  C     46.083500  -17.288300  -115.848000
  C     46.994300  -17.615700  -116.844000
  C     46.689000  -16.820400  -117.998000
  C     45.513800  -16.069800  -117.894000
  H     47.242600  -16.825700  -118.896000
  C     48.187900  -18.576200  -116.710000
  H     48.377700  -19.036700  -117.656000
  H     47.851900  -19.368500  -115.965000
  C     49.548100  -17.896900  -116.144000
  H     49.426200  -17.415700  -115.165000
  H     50.364600  -18.639900  -116.072000
  C     50.062300  -16.797100  -117.128000
  H     51.170400  -16.610200  -116.910000
  H     50.062900  -17.118900  -118.105000
  H     49.584100  -15.811000  -117.090000
  S     43.674100  -15.717100  -120.012000
  C     43.675100  -14.288800  -120.950000
  C     44.856200  -13.578300  -120.744000
  C     45.531100  -14.028300  -119.570000
  C     45.015500  -15.180800  -118.978000
  H     45.049300  -12.686200  -121.320000
  C     46.755800  -13.285300  -119.096000
  H     46.975800  -13.694400  -118.114000
  H     46.520000  -12.189800  -119.039000
  C     47.931200  -13.395200  -120.064000
  H     47.766400  -12.854900  -121.022000
  H     48.064400  -14.467600  -120.273000
  C     49.211800  -12.823200  -119.414000
  H     49.074600  -11.794700  -119.105000
  H     50.089800  -12.839800  -119.922000
  H     49.399100  -13.422400  -118.590000
  H     46.138100  -17.648000  -114.838000
  H     43.016500  -14.047500  -121.795000

 Total Charge           Charge          ....    0
 Multiplicity           Mult            ....    1
 Number of Electrons    NEL             ....  134
 Basis Dimension        Dim             ....  322

ORBITAL ENERGIES
----------------

  NO   OCC          E(Eh)            E(eV)
   0   2.0000     -88.971924     -2421.0491
   1   2.0000     -88.959866     -2420.7210
   2   2.0000     -10.333752      -281.1957
   3   2.0000     -10.326770      -281.0057
   4   2.0000     -10.316170      -280.7173
   5   2.0000     -10.315488      -280.6987
   6   2.0000     -10.307758      -280.4884
   7   2.0000     -10.306182      -280.4455
   8   2.0000     -10.301415      -280.3157
   9   2.0000     -10.300589      -280.2933
  10   2.0000     -10.297113      -280.1987
  11   2.0000     -10.289797      -279.9996
  12   2.0000     -10.288115      -279.9538
  13   2.0000     -10.287620      -279.9404
  14   2.0000     -10.279173      -279.7105
  15   2.0000     -10.261885      -279.2401
  16   2.0000      -8.086440      -220.0432
  17   2.0000      -8.075076      -219.7340
  18   2.0000      -6.044802      -164.4874
  19   2.0000      -6.041072      -164.3859
  20   2.0000      -6.037279      -164.2827
  21   2.0000      -6.033495      -164.1798
  22   2.0000      -6.029503      -164.0711
  23   2.0000      -6.025904      -163.9732
  24   2.0000      -1.002359       -27.2756
  25   2.0000      -0.984623       -26.7930
  26   2.0000      -0.909460       -24.7477
  27   2.0000      -0.900284       -24.4980
  28   2.0000      -0.864301       -23.5188
  29   2.0000      -0.849915       -23.1274
  30   2.0000      -0.847437       -23.0599
  31   2.0000      -0.811650       -22.0861
  32   2.0000      -0.781711       -21.2714
  33   2.0000      -0.770411       -20.9640
  34   2.0000      -0.705064       -19.1858
  35   2.0000      -0.701475       -19.0881
  36   2.0000      -0.692644       -18.8478
  37   2.0000      -0.656133       -17.8543
  38   2.0000      -0.646718       -17.5981
  39   2.0000      -0.614272       -16.7152
  40   2.0000      -0.590570       -16.0702
  41   2.0000      -0.573709       -15.6114
  42   2.0000      -0.569870       -15.5069
  43   2.0000      -0.543839       -14.7986
  44   2.0000      -0.536121       -14.5886
  45   2.0000      -0.521280       -14.1847
  46   2.0000      -0.517075       -14.0703
  47   2.0000      -0.512054       -13.9337
  48   2.0000      -0.506496       -13.7825
  49   2.0000      -0.492619       -13.4049
  50   2.0000      -0.485433       -13.2093
  51   2.0000      -0.479628       -13.0513
  52   2.0000      -0.470295       -12.7974
  53   2.0000      -0.464589       -12.6421
  54   2.0000      -0.462152       -12.5758
  55   2.0000      -0.449527       -12.2322
  56   2.0000      -0.445901       -12.1336
  57   2.0000      -0.437776       -11.9125
  58   2.0000      -0.431629       -11.7452
  59   2.0000      -0.427360       -11.6291
  60   2.0000      -0.424744       -11.5579
  61   2.0000      -0.422537       -11.4978
  62   2.0000      -0.412416       -11.2224
  63   2.0000      -0.338672        -9.2157
  64   2.0000      -0.326839        -8.8937
  65   2.0000      -0.323402        -8.8002
  66   2.0000      -0.302648        -8.2355
  67   0.0000       0.036577         0.9953
  68   0.0000       0.057380         1.5614
  69   0.0000       0.110867         3.0168
  70   0.0000       0.115849         3.1524
  71   0.0000       0.125642         3.4189

MULLIKEN ATOMIC CHARGES
-----------------------
   0 S :    0.135357
   1 C :   -0.127935
   2 C :   -0.070802
   3 C :    0.049772
   4 C :   -0.182164
   5 H :   -0.002051
   6 C :    0.052188
   7 H :    0.031197
   8 H :    0.044377
   9 C :   -0.065643
  10 H :    0.039527
  11 H :    0.041612
  12 C :   -0.082346
  13 H :    0.034346
  14 H :    0.011082
  15 H :    0.055257
  16 S :    0.099454
  17 C :   -0.095169
  18 C :   -0.041087
  19 C :   -0.044000
  20 C :   -0.151123
  21 H :    0.021719
  22 C :    0.058035
  23 H :    0.026214
  24 H :    0.033134
  25 C :   -0.104228
  26 H :    0.037290
  27 H :    0.027809
  28 C :    0.031421
  29 H :    0.019617
  30 H :    0.006137
  31 H :    0.001776
  32 H :    0.042121
  33 H :    0.067104
Sum of atomic charges:   -0.0000000

LOEWDIN ATOMIC CHARGES
----------------------
   0 S :    0.414750
   1 C :   -0.189791
   2 C :   -0.067661
   3 C :   -0.042933
   4 C :   -0.201354
   5 H :    0.023831
   6 C :   -0.028328
   7 H :    0.027064
   8 H :    0.039979
   9 C :   -0.033724
  10 H :    0.026743
  11 H :    0.027373
  12 C :   -0.072437
  13 H :    0.034659
  14 H :    0.008249
  15 H :    0.026937
  16 S :    0.408409
  17 C :   -0.195225
  18 C :   -0.078212
  19 C :   -0.054059
  20 C :   -0.204738
  21 H :    0.030259
  22 C :   -0.032182
  23 H :    0.028396
  24 H :    0.035146
  25 C :   -0.035835
  26 H :    0.024723
  27 H :    0.022210
  28 C :   -0.054252
  29 H :    0.025910
  30 H :    0.012053
  31 H :    0.017311
  32 H :    0.020687
  33 H :    0.036040

  Mayer bond orders larger than 0.100000
B(  0-S ,  1-C ) :   1.1706 B(  0-S ,  4-C ) :   1.1383 B(  1-C ,  2-C ) :   1.5974
B(  1-C , 32-H ) :   0.9658 B(  2-C ,  3-C ) :   1.2385 B(  2-C ,  6-C ) :   1.0190
B(  3-C ,  4-C ) :   1.5788 B(  3-C ,  5-H ) :   1.0001 B(  4-C , 20-C ) :   1.0218
B(  6-C ,  7-H ) :   0.9458 B(  6-C ,  8-H ) :   0.9441 B(  6-C ,  9-C ) :   1.0581
B(  9-C , 10-H ) :   0.9610 B(  9-C , 11-H ) :   0.9612 B(  9-C , 12-C ) :   1.0673
B( 12-C , 13-H ) :   0.9739 B( 12-C , 14-H ) :   0.9769 B( 12-C , 15-H ) :   0.9749
B( 16-S , 17-C ) :   1.1848 B( 16-S , 20-C ) :   1.1295 B( 17-C , 18-C ) :   1.5856
B( 17-C , 33-H ) :   0.9626 B( 18-C , 19-C ) :   1.2498 B( 18-C , 21-H ) :   0.9901
B( 19-C , 20-C ) :   1.5937 B( 19-C , 22-C ) :   1.0547 B( 22-C , 23-H ) :   0.9367
B( 22-C , 24-H ) :   0.9312 B( 22-C , 25-C ) :   1.0621 B( 25-C , 26-H ) :   0.9534
B( 25-C , 27-H ) :   0.9567 B( 25-C , 28-C ) :   1.0837 B( 28-C , 29-H ) :   0.9691
B( 28-C , 30-H ) :   0.9707 B( 28-C , 31-H ) :   0.9731

Dispersion correction           -0.015294567
FINAL SINGLE POINT ENERGY     -1339.873110251996

DIPOLE MOMENT
-------------
                                X             Y             Z
Electronic contribution:    -30.61722      -4.96838      -0.01440
Nuclear contribution   :     31.34708       4.98669      -0.04409
                        -----------------------------------------
Total Dipole Moment    :      0.72986       0.01831      -0.05850
                        -----------------------------------------
Magnitude (a.u.)       :      0.73243
Magnitude (Debye)      :      1.86170

Rotational constants in cm-1:     0.016913     0.010013     0.007079
Rotational constants in MHz :   507.053337   300.176873   212.230112

                             ****ORCA TERMINATED NORMALLY****
TOTAL RUN TIME: 0 days 0 hours 0 minutes 22 seconds 210 msec
