                         Program Version 4.2.1 -  RELEASE  -
|  1> ! wB97X-D3 SP def2-SVP
|  2> %pal
|  3> nprocs 24
|  4> end
|  5>
|  6> * xyz 0 1
|  7> S 	 -105.918 	 37.572 	 -18.5521
|  8> C 	 -105.359 	 36.9404 	 -17.0658
|  9> C 	 -105.288 	 35.5845 	 -17.0418
| 10> C 	 -105.612 	 34.9937 	 -18.29
| 11> C 	 -105.982 	 35.924 	 -19.2294
| 12> H 	 -105.709 	 33.9076 	 -18.5228
| 13> C 	 -104.77 	 34.8383 	 -15.8117
| 14> H 	 -105.38 	 33.9486 	 -15.665
| 15> H 	 -105.05 	 35.4319 	 -14.9584
| 16> C 	 -103.278 	 34.5688 	 -15.9281
| 17> H 	 -103.204 	 33.8205 	 -16.6019
| 18> H 	 -102.69 	 35.4629 	 -16.2844
| 19> C 	 -102.743 	 34.1734 	 -14.5574
| 20> H 	 -101.694 	 33.8836 	 -14.5476
| 21> H 	 -102.836 	 34.9944 	 -13.8322
| 22> H 	 -103.406 	 33.3419 	 -14.1855
| 23> S 	 -107.805 	 36.292 	 -21.1958
| 24> C 	 -107.534 	 35.8081 	 -22.8094
| 25> C 	 -106.412 	 35.0076 	 -22.9445
| 26> C 	 -105.681 	 34.9557 	 -21.6513
| 27> C 	 -106.295 	 35.6208 	 -20.6152
| 28> H 	 -106.108 	 34.6087 	 -23.9124
| 29> C 	 -104.291 	 34.4171 	 -21.5222
| 30> H 	 -103.924 	 33.816 	 -22.3591
| 31> H 	 -104.401 	 33.8331 	 -20.6815
| 32> C 	 -103.216 	 35.5256 	 -21.1941
| 33> H 	 -103.526 	 36.1484 	 -20.4255
| 34> H 	 -103.127 	 36.1905 	 -22.106
| 35> C 	 -101.812 	 34.9796 	 -20.739
| 36> H 	 -101.26 	 35.8191 	 -20.314
| 37> H 	 -101.281 	 34.6069 	 -21.5986
| 38> H 	 -101.867 	 34.2518 	 -19.978
| 39> H 	 -105.115 	 37.5533 	 -16.2462
| 40> H 	 -108.141 	 36.0602 	 -23.7293
| 41> *
| 42>
| 43>                          ****END OF INPUT****

CARTESIAN COORDINATES (ANGSTROEM)
---------------------------------
  S    -105.918000   37.572000  -18.552100
  C    -105.359000   36.940400  -17.065800
  C    -105.288000   35.584500  -17.041800
  C    -105.612000   34.993700  -18.290000
  C    -105.982000   35.924000  -19.229400
  H    -105.709000   33.907600  -18.522800
  C    -104.770000   34.838300  -15.811700
  H    -105.380000   33.948600  -15.665000
  H    -105.050000   35.431900  -14.958400
  C    -103.278000   34.568800  -15.928100
  H    -103.204000   33.820500  -16.601900
  H    -102.690000   35.462900  -16.284400
  C    -102.743000   34.173400  -14.557400
  H    -101.694000   33.883600  -14.547600
  H    -102.836000   34.994400  -13.832200
  H    -103.406000   33.341900  -14.185500
  S    -107.805000   36.292000  -21.195800
  C    -107.534000   35.808100  -22.809400
  C    -106.412000   35.007600  -22.944500
  C    -105.681000   34.955700  -21.651300
  C    -106.295000   35.620800  -20.615200
  H    -106.108000   34.608700  -23.912400
  C    -104.291000   34.417100  -21.522200
  H    -103.924000   33.816000  -22.359100
  H    -104.401000   33.833100  -20.681500
  C    -103.216000   35.525600  -21.194100
  H    -103.526000   36.148400  -20.425500
  H    -103.127000   36.190500  -22.106000
  C    -101.812000   34.979600  -20.739000
  H    -101.260000   35.819100  -20.314000
  H    -101.281000   34.606900  -21.598600
  H    -101.867000   34.251800  -19.978000
  H    -105.115000   37.553300  -16.246200
  H    -108.141000   36.060200  -23.729300

 Total Charge           Charge          ....    0
 Multiplicity           Mult            ....    1
 Number of Electrons    NEL             ....  134
 Basis Dimension        Dim             ....  322

ORBITAL ENERGIES
----------------

  NO   OCC          E(Eh)            E(eV)
   0   2.0000     -88.968430     -2420.9541
   1   2.0000     -88.959598     -2420.7137
   2   2.0000     -10.330860      -281.1170
   3   2.0000     -10.321230      -280.8549
   4   2.0000     -10.318136      -280.7708
   5   2.0000     -10.306725      -280.4602
   6   2.0000     -10.305504      -280.4270
   7   2.0000     -10.297624      -280.2126
   8   2.0000     -10.297274      -280.2031
   9   2.0000     -10.296730      -280.1883
  10   2.0000     -10.290011      -280.0054
  11   2.0000     -10.282596      -279.8037
  12   2.0000     -10.282282      -279.7951
  13   2.0000     -10.281978      -279.7869
  14   2.0000     -10.281869      -279.7839
  15   2.0000     -10.271553      -279.5032
  16   2.0000      -8.083301      -219.9578
  17   2.0000      -8.075362      -219.7418
  18   2.0000      -6.041705      -164.4031
  19   2.0000      -6.037838      -164.2979
  20   2.0000      -6.034098      -164.1962
  21   2.0000      -6.033918      -164.1913
  22   2.0000      -6.029596      -164.0736
  23   2.0000      -6.026142      -163.9797
  24   2.0000      -1.010042       -27.4846
  25   2.0000      -0.987668       -26.8758
  26   2.0000      -0.917639       -24.9702
  27   2.0000      -0.902707       -24.5639
  28   2.0000      -0.871986       -23.7279
  29   2.0000      -0.852886       -23.2082
  30   2.0000      -0.842902       -22.9365
  31   2.0000      -0.817555       -22.2468
  32   2.0000      -0.779399       -21.2085
  33   2.0000      -0.767710       -20.8905
  34   2.0000      -0.710546       -19.3349
  35   2.0000      -0.702878       -19.1263
  36   2.0000      -0.691735       -18.8231
  37   2.0000      -0.661679       -18.0052
  38   2.0000      -0.644810       -17.5462
  39   2.0000      -0.619538       -16.8585
  40   2.0000      -0.586645       -15.9634
  41   2.0000      -0.576078       -15.6759
  42   2.0000      -0.566414       -15.4129
  43   2.0000      -0.557404       -15.1677
  44   2.0000      -0.530455       -14.4344
  45   2.0000      -0.519499       -14.1363
  46   2.0000      -0.516486       -14.0543
  47   2.0000      -0.511660       -13.9230
  48   2.0000      -0.503884       -13.7114
  49   2.0000      -0.501821       -13.6552
  50   2.0000      -0.490147       -13.3376
  51   2.0000      -0.487193       -13.2572
  52   2.0000      -0.473471       -12.8838
  53   2.0000      -0.469089       -12.7646
  54   2.0000      -0.458879       -12.4867
  55   2.0000      -0.444897       -12.1063
  56   2.0000      -0.442868       -12.0510
  57   2.0000      -0.434559       -11.8250
  58   2.0000      -0.433921       -11.8076
  59   2.0000      -0.427381       -11.6296
  60   2.0000      -0.422413       -11.4945
  61   2.0000      -0.417036       -11.3481
  62   2.0000      -0.413641       -11.2558
  63   2.0000      -0.348048        -9.4709
  64   2.0000      -0.333467        -9.0741
  65   2.0000      -0.323357        -8.7990
  66   2.0000      -0.294421        -8.0116
  67   0.0000       0.032290         0.8787
  68   0.0000       0.072530         1.9736
  69   0.0000       0.114150         3.1062
  70   0.0000       0.125314         3.4100
  71   0.0000       0.133488         3.6324

MULLIKEN ATOMIC CHARGES
-----------------------
   0 S :    0.128176
   1 C :   -0.105045
   2 C :   -0.091926
   3 C :    0.008477
   4 C :   -0.152157
   5 H :    0.040470
   6 C :    0.066328
   7 H :    0.023396
   8 H :    0.007593
   9 C :   -0.019914
  10 H :    0.004363
  11 H :    0.041238
  12 C :   -0.055028
  13 H :    0.037750
  14 H :    0.030992
  15 H :    0.030558
  16 S :    0.102812
  17 C :   -0.104300
  18 C :   -0.043621
  19 C :   -0.050164
  20 C :   -0.181174
  21 H :    0.023299
  22 C :    0.121803
  23 H :    0.021045
  24 H :   -0.011201
  25 C :   -0.089542
  26 H :    0.022004
  27 H :    0.033958
  28 C :   -0.028899
  29 H :    0.032437
  30 H :    0.030463
  31 H :    0.019825
  32 H :    0.028380
  33 H :    0.077604
Sum of atomic charges:   -0.0000000

LOEWDIN ATOMIC CHARGES
----------------------
   0 S :    0.411263
   1 C :   -0.196653
   2 C :   -0.065090
   3 C :   -0.063581
   4 C :   -0.189996
   5 H :    0.042622
   6 C :   -0.026319
   7 H :    0.030309
   8 H :    0.024077
   9 C :   -0.031825
  10 H :    0.009117
  11 H :    0.032965
  12 C :   -0.066564
  13 H :    0.023897
  14 H :    0.024438
  15 H :    0.029295
  16 S :    0.415188
  17 C :   -0.205926
  18 C :   -0.079353
  19 C :   -0.047514
  20 C :   -0.205869
  21 H :    0.033102
  22 C :   -0.030141
  23 H :    0.029890
  24 H :    0.017358
  25 C :   -0.028786
  26 H :    0.010994
  27 H :    0.029024
  28 C :   -0.058908
  29 H :    0.029879
  30 H :    0.021716
  31 H :    0.016439
  32 H :    0.019540
  33 H :    0.045413

  Mayer bond orders larger than 0.100000
B(  0-S ,  1-C ) :   1.1411 B(  0-S ,  4-C ) :   1.1401 B(  1-C ,  2-C ) :   1.6233
B(  1-C , 32-H ) :   0.9704 B(  2-C ,  3-C ) :   1.2352 B(  2-C ,  6-C ) :   1.0235
B(  3-C ,  4-C ) :   1.5862 B(  3-C ,  5-H ) :   0.9869 B(  4-C , 20-C ) :   1.0385
B(  6-C ,  7-H ) :   0.9322 B(  6-C ,  8-H ) :   0.9443 B(  6-C ,  9-C ) :   1.0494
B(  9-C , 10-H ) :   0.9522 B(  9-C , 11-H ) :   0.9587 B(  9-C , 12-C ) :   1.0834
B( 12-C , 13-H ) :   0.9738 B( 12-C , 14-H ) :   0.9777 B( 12-C , 15-H ) :   0.9701
B( 16-S , 17-C ) :   1.1685 B( 16-S , 20-C ) :   1.1237 B( 17-C , 18-C ) :   1.6205
B( 17-C , 33-H ) :   0.9563 B( 18-C , 19-C ) :   1.2118 B( 18-C , 21-H ) :   0.9924
B( 19-C , 20-C ) :   1.6163 B( 19-C , 22-C ) :   1.0481 B( 22-C , 23-H ) :   0.9407
B( 22-C , 24-H ) :   0.9171 B( 22-C , 25-C ) :   1.0636 B( 25-C , 26-H ) :   0.9589
B( 25-C , 27-H ) :   0.9573 B( 25-C , 28-C ) :   1.0795 B( 28-C , 29-H ) :   0.9756
B( 28-C , 30-H ) :   0.9787 B( 28-C , 31-H ) :   0.9764

Dispersion correction           -0.014961582
FINAL SINGLE POINT ENERGY     -1339.876889617747

DIPOLE MOMENT
-------------
                                X             Y             Z
Electronic contribution:    -24.77556      12.81500     -11.64874
Nuclear contribution   :     25.25897     -13.15120      11.82850
                        -----------------------------------------
Total Dipole Moment    :      0.48341      -0.33620       0.17976
                        -----------------------------------------
Magnitude (a.u.)       :      0.61565
Magnitude (Debye)      :      1.56486

Rotational constants in cm-1:     0.021103     0.008695     0.007015
Rotational constants in MHz :   632.645229   260.664298   210.315220

                             ****ORCA TERMINATED NORMALLY****
TOTAL RUN TIME: 0 days 0 hours 0 minutes 22 seconds 469 msec
