                         Program Version 4.2.1 -  RELEASE  -
|  1> ! wB97X-D3 SP def2-SVP
|  2> %pal
|  3> nprocs 24
|  4> end
|  5>
|  6> * xyz 0 1
|  7> S 	 -49.8044 	 15.346 	 -100.623
|  8> C 	 -51.2187 	 16.2577 	 -100.956
|  9> C 	 -50.9477 	 17.5677 	 -101.191
| 10> C 	 -49.5134 	 17.7901 	 -101.18
| 11> C 	 -48.7857 	 16.6483 	 -101.151
| 12> H 	 -49.124 	 18.7731 	 -101.314
| 13> C 	 -51.9188 	 18.7276 	 -101.492
| 14> H 	 -52.6033 	 18.4153 	 -102.305
| 15> H 	 -51.3042 	 19.5707 	 -101.908
| 16> C 	 -52.7166 	 19.3066 	 -100.34
| 17> H 	 -52.014 	 19.8946 	 -99.7761
| 18> H 	 -53.4782 	 20.0273 	 -100.622
| 19> C 	 -53.4236 	 18.3278 	 -99.4337
| 20> H 	 -54.0717 	 17.727 	 -100.003
| 21> H 	 -52.6432 	 17.8578 	 -98.8468
| 22> H 	 -53.8475 	 18.8149 	 -98.6404
| 23> S 	 -46.6955 	 15.2508 	 -100.19
| 24> C 	 -45.1347 	 15.4476 	 -101.069
| 25> C 	 -45.1949 	 16.384 	 -102.062
| 26> C 	 -46.471 	 17.0247 	 -102.093
| 27> C 	 -47.3872 	 16.4064 	 -101.275
| 28> H 	 -44.2373 	 16.6114 	 -102.677
| 29> C 	 -46.7541 	 18.051 	 -103.173
| 30> H 	 -47.7055 	 18.4824 	 -102.949
| 31> H 	 -46.8334 	 17.5733 	 -104.13
| 32> C 	 -45.6946 	 19.1382 	 -103.41
| 33> H 	 -46.1985 	 19.8556 	 -104.087
| 34> H 	 -44.8539 	 18.7038 	 -103.866
| 35> C 	 -45.1967 	 19.9413 	 -102.133
| 36> H 	 -44.7483 	 19.1682 	 -101.421
| 37> H 	 -45.9206 	 20.5471 	 -101.528
| 38> H 	 -44.349 	 20.5891 	 -102.465
| 39> H 	 -52.2185 	 15.8848 	 -100.867
| 40> H 	 -44.1694 	 14.9578 	 -100.895
| 41> *
| 42>
| 43>                          ****END OF INPUT****

CARTESIAN COORDINATES (ANGSTROEM)
---------------------------------
  S    -49.804400   15.346000  -100.623000
  C    -51.218700   16.257700  -100.956000
  C    -50.947700   17.567700  -101.191000
  C    -49.513400   17.790100  -101.180000
  C    -48.785700   16.648300  -101.151000
  H    -49.124000   18.773100  -101.314000
  C    -51.918800   18.727600  -101.492000
  H    -52.603300   18.415300  -102.305000
  H    -51.304200   19.570700  -101.908000
  C    -52.716600   19.306600  -100.340000
  H    -52.014000   19.894600  -99.776100
  H    -53.478200   20.027300  -100.622000
  C    -53.423600   18.327800  -99.433700
  H    -54.071700   17.727000  -100.003000
  H    -52.643200   17.857800  -98.846800
  H    -53.847500   18.814900  -98.640400
  S    -46.695500   15.250800  -100.190000
  C    -45.134700   15.447600  -101.069000
  C    -45.194900   16.384000  -102.062000
  C    -46.471000   17.024700  -102.093000
  C    -47.387200   16.406400  -101.275000
  H    -44.237300   16.611400  -102.677000
  C    -46.754100   18.051000  -103.173000
  H    -47.705500   18.482400  -102.949000
  H    -46.833400   17.573300  -104.130000
  C    -45.694600   19.138200  -103.410000
  H    -46.198500   19.855600  -104.087000
  H    -44.853900   18.703800  -103.866000
  C    -45.196700   19.941300  -102.133000
  H    -44.748300   19.168200  -101.421000
  H    -45.920600   20.547100  -101.528000
  H    -44.349000   20.589100  -102.465000
  H    -52.218500   15.884800  -100.867000
  H    -44.169400   14.957800  -100.895000

 Total Charge           Charge          ....    0
 Multiplicity           Mult            ....    1
 Number of Electrons    NEL             ....  134
 Basis Dimension        Dim             ....  322

ORBITAL ENERGIES
----------------

  NO   OCC          E(Eh)            E(eV)
   0   2.0000     -88.969054     -2420.9710
   1   2.0000     -88.961344     -2420.7612
   2   2.0000     -10.322462      -280.8885
   3   2.0000     -10.322183      -280.8809
   4   2.0000     -10.319388      -280.8048
   5   2.0000     -10.306125      -280.4439
   6   2.0000     -10.300376      -280.2875
   7   2.0000     -10.299990      -280.2770
   8   2.0000     -10.298707      -280.2421
   9   2.0000     -10.297698      -280.2146
  10   2.0000     -10.290202      -280.0106
  11   2.0000     -10.289007      -279.9781
  12   2.0000     -10.288965      -279.9770
  13   2.0000     -10.284540      -279.8566
  14   2.0000     -10.278838      -279.7014
  15   2.0000     -10.262339      -279.2524
  16   2.0000      -8.083377      -219.9599
  17   2.0000      -8.077512      -219.8003
  18   2.0000      -6.042038      -164.4122
  19   2.0000      -6.038190      -164.3075
  20   2.0000      -6.036088      -164.2503
  21   2.0000      -6.033740      -164.1864
  22   2.0000      -6.032021      -164.1396
  23   2.0000      -6.027908      -164.0277
  24   2.0000      -1.016004       -27.6469
  25   2.0000      -0.987486       -26.8708
  26   2.0000      -0.914782       -24.8925
  27   2.0000      -0.905983       -24.6530
  28   2.0000      -0.876068       -23.8390
  29   2.0000      -0.852121       -23.1874
  30   2.0000      -0.840920       -22.8826
  31   2.0000      -0.815726       -22.1970
  32   2.0000      -0.788544       -21.4574
  33   2.0000      -0.776114       -21.1191
  34   2.0000      -0.710505       -19.3338
  35   2.0000      -0.696804       -18.9610
  36   2.0000      -0.692302       -18.8385
  37   2.0000      -0.658480       -17.9182
  38   2.0000      -0.637339       -17.3429
  39   2.0000      -0.623426       -16.9643
  40   2.0000      -0.593507       -16.1501
  41   2.0000      -0.570538       -15.5251
  42   2.0000      -0.560206       -15.2440
  43   2.0000      -0.553729       -15.0677
  44   2.0000      -0.544610       -14.8196
  45   2.0000      -0.533151       -14.5078
  46   2.0000      -0.521144       -14.1810
  47   2.0000      -0.512206       -13.9378
  48   2.0000      -0.504150       -13.7186
  49   2.0000      -0.500037       -13.6067
  50   2.0000      -0.494479       -13.4555
  51   2.0000      -0.480394       -13.0722
  52   2.0000      -0.470390       -12.8000
  53   2.0000      -0.460379       -12.5275
  54   2.0000      -0.458276       -12.4703
  55   2.0000      -0.450063       -12.2468
  56   2.0000      -0.440214       -11.9788
  57   2.0000      -0.437277       -11.8989
  58   2.0000      -0.430408       -11.7120
  59   2.0000      -0.426877       -11.6159
  60   2.0000      -0.419951       -11.4274
  61   2.0000      -0.412953       -11.2370
  62   2.0000      -0.408732       -11.1222
  63   2.0000      -0.358934        -9.7671
  64   2.0000      -0.335606        -9.1323
  65   2.0000      -0.325679        -8.8622
  66   2.0000      -0.284558        -7.7432
  67   0.0000       0.025071         0.6822
  68   0.0000       0.074850         2.0368
  69   0.0000       0.097354         2.6491
  70   0.0000       0.118941         3.2366
  71   0.0000       0.130061         3.5391

MULLIKEN ATOMIC CHARGES
-----------------------
   0 S :    0.095534
   1 C :   -0.097263
   2 C :   -0.108908
   3 C :    0.024205
   4 C :   -0.141808
   5 H :    0.004464
   6 C :    0.055669
   7 H :    0.039055
   8 H :    0.025848
   9 C :   -0.079138
  10 H :    0.009755
  11 H :    0.025130
  12 C :    0.015574
  13 H :    0.029550
  14 H :    0.025847
  15 H :    0.002357
  16 S :    0.107042
  17 C :   -0.089474
  18 C :   -0.073740
  19 C :   -0.068540
  20 C :   -0.105988
  21 H :    0.057462
  22 C :    0.124950
  23 H :   -0.009615
  24 H :    0.036018
  25 C :   -0.085241
  26 H :    0.039170
  27 H :    0.023812
  28 C :   -0.108343
  29 H :    0.046789
  30 H :    0.047746
  31 H :    0.042808
  32 H :    0.035762
  33 H :    0.053507
Sum of atomic charges:    0.0000000

LOEWDIN ATOMIC CHARGES
----------------------
   0 S :    0.412174
   1 C :   -0.197012
   2 C :   -0.063867
   3 C :   -0.062177
   4 C :   -0.188984
   5 H :    0.022486
   6 C :   -0.034215
   7 H :    0.033464
   8 H :    0.035579
   9 C :   -0.043502
  10 H :    0.019516
  11 H :    0.023333
  12 C :   -0.056839
  13 H :    0.018310
  14 H :    0.031610
  15 H :    0.017942
  16 S :    0.388637
  17 C :   -0.174553
  18 C :   -0.077860
  19 C :   -0.059434
  20 C :   -0.199389
  21 H :    0.051292
  22 C :   -0.027817
  23 H :    0.020277
  24 H :    0.035997
  25 C :   -0.035499
  26 H :    0.031229
  27 H :    0.014757
  28 C :   -0.082755
  29 H :    0.032231
  30 H :    0.028174
  31 H :    0.029404
  32 H :    0.024093
  33 H :    0.033398

  Mayer bond orders larger than 0.100000
B(  0-S ,  1-C ) :   1.1344 B(  0-S ,  4-C ) :   1.1367 B(  1-C ,  2-C ) :   1.6367
B(  1-C , 32-H ) :   0.9707 B(  2-C ,  3-C ) :   1.2340 B(  2-C ,  6-C ) :   1.0054
B(  3-C ,  4-C ) :   1.5768 B(  3-C ,  5-H ) :   0.9897 B(  4-C , 20-C ) :   1.0702
B(  6-C ,  7-H ) :   0.9442 B(  6-C ,  8-H ) :   0.9437 B(  6-C ,  9-C ) :   1.0735
B(  9-C , 10-H ) :   0.9513 B(  9-C , 11-H ) :   0.9553 B(  9-C , 12-C ) :   1.1015
B( 12-C , 13-H ) :   0.9770 B( 12-C , 14-H ) :   0.9608 B( 12-C , 15-H ) :   0.9614
B( 16-S , 17-C ) :   1.1151 B( 16-S , 20-C ) :   1.1243 B( 17-C , 18-C ) :   1.6801
B( 17-C , 33-H ) :   0.9612 B( 18-C , 19-C ) :   1.1962 B( 18-C , 21-H ) :   0.9683
B( 19-C , 20-C ) :   1.6277 B( 19-C , 22-C ) :   1.0484 B( 22-C , 23-H ) :   0.9244
B( 22-C , 24-H ) :   0.9322 B( 22-C , 25-C ) :   1.0715 B( 25-C , 26-H ) :   0.9572
B( 25-C , 27-H ) :   0.9532 B( 25-C , 28-C ) :   1.0723 B( 28-C , 29-H ) :   0.9701
B( 28-C , 30-H ) :   0.9779 B( 28-C , 31-H ) :   0.9758

Dispersion correction           -0.014442570
FINAL SINGLE POINT ENERGY     -1339.860450324907

DIPOLE MOMENT
-------------
                                X             Y             Z
Electronic contribution:      6.36365     -23.46267       5.64978
Nuclear contribution   :     -6.36807      24.04797      -5.94055
                        -----------------------------------------
Total Dipole Moment    :     -0.00441       0.58530      -0.29077
                        -----------------------------------------
Magnitude (a.u.)       :      0.65356
Magnitude (Debye)      :      1.66123

Rotational constants in cm-1:     0.021498     0.008298     0.006445
Rotational constants in MHz :   644.488206   248.780051   193.215900

                             ****ORCA TERMINATED NORMALLY****
TOTAL RUN TIME: 0 days 0 hours 0 minutes 21 seconds 875 msec
