                         Program Version 4.2.1 -  RELEASE  -
|  1> ! wB97X-D3 SP def2-SVP
|  2> %pal
|  3> nprocs 24
|  4> end
|  5>
|  6> * xyz 0 1
|  7> S 	 -108.486 	 58.4594 	 -92.806
|  8> C 	 -108.445 	 59.2062 	 -91.2233
|  9> C 	 -107.228 	 59.9103 	 -91.0658
| 10> C 	 -106.373 	 59.74 	 -92.2151
| 11> C 	 -106.839 	 58.9552 	 -93.2177
| 12> H 	 -105.38 	 60.2069 	 -92.352
| 13> C 	 -106.834 	 60.6601 	 -89.8976
| 14> H 	 -105.763 	 60.487 	 -89.7455
| 15> H 	 -107.279 	 60.4197 	 -88.9266
| 16> C 	 -107.094 	 62.1586 	 -89.9714
| 17> H 	 -106.718 	 62.587 	 -89.0141
| 18> H 	 -106.604 	 62.708 	 -90.7461
| 19> C 	 -108.644 	 62.5881 	 -90.0753
| 20> H 	 -109.082 	 62.3523 	 -91.0708
| 21> H 	 -109.29 	 62.381 	 -89.2643
| 22> H 	 -108.686 	 63.611 	 -90.1651
| 23> S 	 -105.943 	 59.7421 	 -95.6206
| 24> C 	 -105.024 	 58.7027 	 -96.6587
| 25> C 	 -104.751 	 57.4843 	 -96.0251
| 26> C 	 -105.452 	 57.3388 	 -94.7916
| 27> C 	 -106.015 	 58.5032 	 -94.3184
| 28> H 	 -104.227 	 56.7651 	 -96.4918
| 29> C 	 -105.438 	 56.0139 	 -93.9803
| 30> H 	 -105.518 	 56.3255 	 -92.902
| 31> H 	 -104.48 	 55.4556 	 -94.2433
| 32> C 	 -106.663 	 55.0648 	 -94.3099
| 33> H 	 -106.622 	 54.7832 	 -95.4075
| 34> H 	 -107.671 	 55.5217 	 -94.154
| 35> C 	 -106.598 	 53.8464 	 -93.4241
| 36> H 	 -105.971 	 53.0627 	 -93.7883
| 37> H 	 -107.598 	 53.4075 	 -93.3699
| 38> H 	 -106.334 	 54.115 	 -92.4485
| 39> H 	 -109.128 	 59.0573 	 -90.3996
| 40> H 	 -104.801 	 58.8477 	 -97.6927
| 41> *
| 42>
| 43>                          ****END OF INPUT****

CARTESIAN COORDINATES (ANGSTROEM)
---------------------------------
  S    -108.486000   58.459400  -92.806000
  C    -108.445000   59.206200  -91.223300
  C    -107.228000   59.910300  -91.065800
  C    -106.373000   59.740000  -92.215100
  C    -106.839000   58.955200  -93.217700
  H    -105.380000   60.206900  -92.352000
  C    -106.834000   60.660100  -89.897600
  H    -105.763000   60.487000  -89.745500
  H    -107.279000   60.419700  -88.926600
  C    -107.094000   62.158600  -89.971400
  H    -106.718000   62.587000  -89.014100
  H    -106.604000   62.708000  -90.746100
  C    -108.644000   62.588100  -90.075300
  H    -109.082000   62.352300  -91.070800
  H    -109.290000   62.381000  -89.264300
  H    -108.686000   63.611000  -90.165100
  S    -105.943000   59.742100  -95.620600
  C    -105.024000   58.702700  -96.658700
  C    -104.751000   57.484300  -96.025100
  C    -105.452000   57.338800  -94.791600
  C    -106.015000   58.503200  -94.318400
  H    -104.227000   56.765100  -96.491800
  C    -105.438000   56.013900  -93.980300
  H    -105.518000   56.325500  -92.902000
  H    -104.480000   55.455600  -94.243300
  C    -106.663000   55.064800  -94.309900
  H    -106.622000   54.783200  -95.407500
  H    -107.671000   55.521700  -94.154000
  C    -106.598000   53.846400  -93.424100
  H    -105.971000   53.062700  -93.788300
  H    -107.598000   53.407500  -93.369900
  H    -106.334000   54.115000  -92.448500
  H    -109.128000   59.057300  -90.399600
  H    -104.801000   58.847700  -97.692700

 Total Charge           Charge          ....    0
 Multiplicity           Mult            ....    1
 Number of Electrons    NEL             ....  134
 Basis Dimension        Dim             ....  322

ORBITAL ENERGIES
----------------

  NO   OCC          E(Eh)            E(eV)
   0   2.0000     -88.966236     -2420.8944
   1   2.0000     -88.961633     -2420.7691
   2   2.0000     -10.327433      -281.0237
   3   2.0000     -10.326652      -281.0025
   4   2.0000     -10.318419      -280.7785
   5   2.0000     -10.318214      -280.7729
   6   2.0000     -10.306801      -280.4623
   7   2.0000     -10.303762      -280.3796
   8   2.0000     -10.301008      -280.3047
   9   2.0000     -10.293927      -280.1120
  10   2.0000     -10.291260      -280.0394
  11   2.0000     -10.290535      -280.0197
  12   2.0000     -10.288233      -279.9571
  13   2.0000     -10.287488      -279.9368
  14   2.0000     -10.270197      -279.4663
  15   2.0000     -10.265582      -279.3407
  16   2.0000      -8.080204      -219.8735
  17   2.0000      -8.076180      -219.7640
  18   2.0000      -6.038831      -164.3249
  19   2.0000      -6.034699      -164.2125
  20   2.0000      -6.034680      -164.2120
  21   2.0000      -6.030978      -164.1113
  22   2.0000      -6.030532      -164.0991
  23   2.0000      -6.027129      -164.0065
  24   2.0000      -1.003882       -27.3170
  25   2.0000      -0.981616       -26.7111
  26   2.0000      -0.913697       -24.8630
  27   2.0000      -0.900203       -24.4958
  28   2.0000      -0.869902       -23.6712
  29   2.0000      -0.850698       -23.1487
  30   2.0000      -0.842479       -22.9250
  31   2.0000      -0.814285       -22.1578
  32   2.0000      -0.783877       -21.3304
  33   2.0000      -0.769409       -20.9367
  34   2.0000      -0.707279       -19.2460
  35   2.0000      -0.700047       -19.0492
  36   2.0000      -0.687930       -18.7195
  37   2.0000      -0.670552       -18.2466
  38   2.0000      -0.640068       -17.4171
  39   2.0000      -0.620805       -16.8930
  40   2.0000      -0.589318       -16.0362
  41   2.0000      -0.575688       -15.6653
  42   2.0000      -0.562262       -15.2999
  43   2.0000      -0.549678       -14.9575
  44   2.0000      -0.536111       -14.5883
  45   2.0000      -0.522238       -14.2108
  46   2.0000      -0.520189       -14.1551
  47   2.0000      -0.512807       -13.9542
  48   2.0000      -0.504416       -13.7259
  49   2.0000      -0.502819       -13.6824
  50   2.0000      -0.488747       -13.2995
  51   2.0000      -0.478391       -13.0177
  52   2.0000      -0.469442       -12.7742
  53   2.0000      -0.463455       -12.6113
  54   2.0000      -0.460516       -12.5313
  55   2.0000      -0.443189       -12.0598
  56   2.0000      -0.439941       -11.9714
  57   2.0000      -0.434509       -11.8236
  58   2.0000      -0.429371       -11.6838
  59   2.0000      -0.426933       -11.6175
  60   2.0000      -0.417968       -11.3735
  61   2.0000      -0.410886       -11.1808
  62   2.0000      -0.408427       -11.1139
  63   2.0000      -0.336478        -9.1560
  64   2.0000      -0.330490        -8.9931
  65   2.0000      -0.319380        -8.6908
  66   2.0000      -0.303899        -8.2695
  67   0.0000       0.035758         0.9730
  68   0.0000       0.054135         1.4731
  69   0.0000       0.112390         3.0583
  70   0.0000       0.117573         3.1993
  71   0.0000       0.129413         3.5215

MULLIKEN ATOMIC CHARGES
-----------------------
   0 S :    0.114277
   1 C :   -0.111197
   2 C :   -0.069290
   3 C :    0.017235
   4 C :   -0.125225
   5 H :    0.026087
   6 C :    0.074309
   7 H :    0.027363
   8 H :    0.019502
   9 C :   -0.086747
  10 H :    0.029868
  11 H :    0.026290
  12 C :   -0.040643
  13 H :    0.039646
  14 H :    0.026392
  15 H :    0.003168
  16 S :    0.094823
  17 C :   -0.073485
  18 C :    0.004111
  19 C :   -0.011618
  20 C :   -0.193888
  21 H :   -0.030041
  22 C :    0.006428
  23 H :    0.051454
  24 H :    0.041763
  25 C :   -0.111088
  26 H :    0.034177
  27 H :    0.037843
  28 C :    0.006048
  29 H :    0.025646
  30 H :    0.025540
  31 H :    0.014390
  32 H :    0.052293
  33 H :    0.054569
Sum of atomic charges:   -0.0000000

LOEWDIN ATOMIC CHARGES
----------------------
   0 S :    0.397920
   1 C :   -0.193392
   2 C :   -0.064212
   3 C :   -0.057701
   4 C :   -0.209305
   5 H :    0.037372
   6 C :   -0.044071
   7 H :    0.035877
   8 H :    0.034390
   9 C :   -0.028279
  10 H :    0.026523
  11 H :    0.018454
  12 C :   -0.069909
  13 H :    0.033711
  14 H :    0.017961
  15 H :    0.016781
  16 S :    0.398603
  17 C :   -0.177671
  18 C :   -0.062977
  19 C :   -0.047402
  20 C :   -0.186573
  21 H :    0.009477
  22 C :   -0.033402
  23 H :    0.037864
  24 H :    0.037904
  25 C :   -0.046168
  26 H :    0.027265
  27 H :    0.025156
  28 C :   -0.061609
  29 H :    0.021292
  30 H :    0.029515
  31 H :    0.016967
  32 H :    0.031670
  33 H :    0.027969

  Mayer bond orders larger than 0.100000
B(  0-S ,  1-C ) :   1.1425 B(  0-S ,  4-C ) :   1.1166 B(  1-C ,  2-C ) :   1.5864
B(  1-C , 32-H ) :   0.9694 B(  2-C ,  3-C ) :   1.2346 B(  2-C ,  6-C ) :   1.0551
B(  3-C ,  4-C ) :   1.5950 B(  3-C ,  5-H ) :   0.9850 B(  4-C , 20-C ) :   1.0219
B(  6-C ,  7-H ) :   0.9315 B(  6-C ,  8-H ) :   0.9405 B(  6-C ,  9-C ) :   1.0697
B(  9-C , 10-H ) :   0.9579 B(  9-C , 11-H ) :   0.9598 B(  9-C , 12-C ) :   1.0735
B( 12-C , 13-H ) :   0.9713 B( 12-C , 14-H ) :   0.9781 B( 12-C , 15-H ) :   0.9688
B( 16-S , 17-C ) :   1.1759 B( 16-S , 20-C ) :   1.1248 B( 17-C , 18-C ) :   1.5863
B( 17-C , 20-C ) :   0.1044 B( 17-C , 33-H ) :   0.9686 B( 18-C , 19-C ) :   1.2423
B( 18-C , 21-H ) :   1.0051 B( 19-C , 20-C ) :   1.6200 B( 19-C , 22-C ) :   1.0295
B( 22-C , 23-H ) :   0.9399 B( 22-C , 24-H ) :   0.9439 B( 22-C , 25-C ) :   1.0594
B( 25-C , 26-H ) :   0.9557 B( 25-C , 27-H ) :   0.9574 B( 25-C , 28-C ) :   1.0841
B( 28-C , 29-H ) :   0.9742 B( 28-C , 30-H ) :   0.9731 B( 28-C , 31-H ) :   0.9705

Dispersion correction           -0.014439695
FINAL SINGLE POINT ENERGY     -1339.857969432833

DIPOLE MOMENT
-------------
                                X             Y             Z
Electronic contribution:      0.39926       4.20398     -14.62783
Nuclear contribution   :     -0.17251      -4.35847      14.91876
                        -----------------------------------------
Total Dipole Moment    :      0.22675      -0.15449       0.29093
                        -----------------------------------------
Magnitude (a.u.)       :      0.39990
Magnitude (Debye)      :      1.01647

Rotational constants in cm-1:     0.020669     0.008147     0.006571
Rotational constants in MHz :   619.644265   244.242662   197.004345

                             ****ORCA TERMINATED NORMALLY****
TOTAL RUN TIME: 0 days 0 hours 0 minutes 21 seconds 215 msec
