                         Program Version 4.2.1 -  RELEASE  -
|  1> ! wB97X-D3 SP def2-SVP
|  2> %pal
|  3> nprocs 24
|  4> end
|  5>
|  6> * xyz 0 1
|  7> S 	 -45.1081 	 -51.84 	 -69.4189
|  8> C 	 -45.1785 	 -53.5999 	 -69.6223
|  9> C 	 -44.4681 	 -54.2504 	 -68.6238
| 10> C 	 -43.7697 	 -53.2844 	 -67.8068
| 11> C 	 -43.9501 	 -51.981 	 -68.1415
| 12> H 	 -43.3053 	 -53.4986 	 -66.8946
| 13> C 	 -44.362 	 -55.7587 	 -68.4168
| 14> H 	 -44.1615 	 -56.016 	 -67.3325
| 15> H 	 -43.4607 	 -56.0575 	 -68.9051
| 16> C 	 -45.4132 	 -56.7053 	 -69.0316
| 17> H 	 -45.3494 	 -56.5278 	 -70.1058
| 18> H 	 -45.1089 	 -57.7634 	 -69.0422
| 19> C 	 -46.7711 	 -56.6095 	 -68.327
| 20> H 	 -47.2562 	 -55.674 	 -68.4093
| 21> H 	 -47.4299 	 -57.2982 	 -68.8574
| 22> H 	 -46.7501 	 -56.8609 	 -67.275
| 23> S 	 -44.7088 	 -50.0111 	 -66.3597
| 24> C 	 -43.4877 	 -48.9835 	 -65.6963
| 25> C 	 -42.2259 	 -49.4278 	 -65.9858
| 26> C 	 -42.1793 	 -50.6032 	 -66.8631
| 27> C 	 -43.453 	 -50.7961 	 -67.4119
| 28> H 	 -41.4205 	 -48.9011 	 -65.5604
| 29> C 	 -40.9006 	 -51.2825 	 -67.2948
| 30> H 	 -41.0778 	 -51.9597 	 -68.1004
| 31> H 	 -40.5812 	 -51.8892 	 -66.4657
| 32> C 	 -39.8055 	 -50.2811 	 -67.8014
| 33> H 	 -39.519 	 -49.5772 	 -67.0767
| 34> H 	 -40.2443 	 -49.6602 	 -68.6907
| 35> C 	 -38.5128 	 -50.9672 	 -68.2644
| 36> H 	 -38.5183 	 -51.3931 	 -69.1807
| 37> H 	 -38.2001 	 -51.802 	 -67.5568
| 38> H 	 -37.6156 	 -50.3194 	 -68.2963
| 39> H 	 -45.7288 	 -54.1292 	 -70.4463
| 40> H 	 -43.653 	 -48.0568 	 -65.1714
| 41> *
| 42>
| 43>                          ****END OF INPUT****

CARTESIAN COORDINATES (ANGSTROEM)
---------------------------------
  S    -45.108100  -51.840000  -69.418900
  C    -45.178500  -53.599900  -69.622300
  C    -44.468100  -54.250400  -68.623800
  C    -43.769700  -53.284400  -67.806800
  C    -43.950100  -51.981000  -68.141500
  H    -43.305300  -53.498600  -66.894600
  C    -44.362000  -55.758700  -68.416800
  H    -44.161500  -56.016000  -67.332500
  H    -43.460700  -56.057500  -68.905100
  C    -45.413200  -56.705300  -69.031600
  H    -45.349400  -56.527800  -70.105800
  H    -45.108900  -57.763400  -69.042200
  C    -46.771100  -56.609500  -68.327000
  H    -47.256200  -55.674000  -68.409300
  H    -47.429900  -57.298200  -68.857400
  H    -46.750100  -56.860900  -67.275000
  S    -44.708800  -50.011100  -66.359700
  C    -43.487700  -48.983500  -65.696300
  C    -42.225900  -49.427800  -65.985800
  C    -42.179300  -50.603200  -66.863100
  C    -43.453000  -50.796100  -67.411900
  H    -41.420500  -48.901100  -65.560400
  C    -40.900600  -51.282500  -67.294800
  H    -41.077800  -51.959700  -68.100400
  H    -40.581200  -51.889200  -66.465700
  C    -39.805500  -50.281100  -67.801400
  H    -39.519000  -49.577200  -67.076700
  H    -40.244300  -49.660200  -68.690700
  C    -38.512800  -50.967200  -68.264400
  H    -38.518300  -51.393100  -69.180700
  H    -38.200100  -51.802000  -67.556800
  H    -37.615600  -50.319400  -68.296300
  H    -45.728800  -54.129200  -70.446300
  H    -43.653000  -48.056800  -65.171400

 Total Charge           Charge          ....    0
 Multiplicity           Mult            ....    1
 Number of Electrons    NEL             ....  134
 Basis Dimension        Dim             ....  322

ORBITAL ENERGIES
----------------

  NO   OCC          E(Eh)            E(eV)
   0   2.0000     -88.962481     -2420.7922
   1   2.0000     -88.960375     -2420.7349
   2   2.0000     -10.329353      -281.0760
   3   2.0000     -10.323432      -280.9149
   4   2.0000     -10.318185      -280.7721
   5   2.0000     -10.313738      -280.6511
   6   2.0000     -10.312807      -280.6258
   7   2.0000     -10.305608      -280.4298
   8   2.0000     -10.295352      -280.1508
   9   2.0000     -10.294475      -280.1269
  10   2.0000     -10.293605      -280.1032
  11   2.0000     -10.291703      -280.0515
  12   2.0000     -10.291250      -280.0391
  13   2.0000     -10.287037      -279.9245
  14   2.0000     -10.275883      -279.6210
  15   2.0000     -10.272206      -279.5209
  16   2.0000      -8.077306      -219.7947
  17   2.0000      -8.074907      -219.7294
  18   2.0000      -6.035826      -164.2432
  19   2.0000      -6.033512      -164.1802
  20   2.0000      -6.031814      -164.1340
  21   2.0000      -6.029758      -164.0781
  22   2.0000      -6.028030      -164.0310
  23   2.0000      -6.025246      -163.9553
  24   2.0000      -1.002984       -27.2926
  25   2.0000      -0.979644       -26.6575
  26   2.0000      -0.909799       -24.7569
  27   2.0000      -0.906255       -24.6605
  28   2.0000      -0.865578       -23.5536
  29   2.0000      -0.850042       -23.1308
  30   2.0000      -0.843079       -22.9413
  31   2.0000      -0.811564       -22.0838
  32   2.0000      -0.786969       -21.4145
  33   2.0000      -0.775138       -21.0926
  34   2.0000      -0.709170       -19.2975
  35   2.0000      -0.706741       -19.2314
  36   2.0000      -0.693335       -18.8666
  37   2.0000      -0.652906       -17.7665
  38   2.0000      -0.637591       -17.3497
  39   2.0000      -0.612141       -16.6572
  40   2.0000      -0.596393       -16.2287
  41   2.0000      -0.572311       -15.5734
  42   2.0000      -0.565359       -15.3842
  43   2.0000      -0.552250       -15.0275
  44   2.0000      -0.538917       -14.6647
  45   2.0000      -0.521549       -14.1921
  46   2.0000      -0.515199       -14.0193
  47   2.0000      -0.508424       -13.8349
  48   2.0000      -0.503982       -13.7141
  49   2.0000      -0.493997       -13.4423
  50   2.0000      -0.489709       -13.3257
  51   2.0000      -0.482089       -13.1183
  52   2.0000      -0.476159       -12.9569
  53   2.0000      -0.463525       -12.6132
  54   2.0000      -0.461244       -12.5511
  55   2.0000      -0.447972       -12.1899
  56   2.0000      -0.440255       -11.9799
  57   2.0000      -0.435217       -11.8429
  58   2.0000      -0.428781       -11.6677
  59   2.0000      -0.426869       -11.6157
  60   2.0000      -0.425098       -11.5675
  61   2.0000      -0.418746       -11.3946
  62   2.0000      -0.410526       -11.1710
  63   2.0000      -0.339215        -9.2305
  64   2.0000      -0.327850        -8.9213
  65   2.0000      -0.322511        -8.7760
  66   2.0000      -0.300348        -8.1729
  67   0.0000       0.031272         0.8509
  68   0.0000       0.066129         1.7995
  69   0.0000       0.102864         2.7991
  70   0.0000       0.116864         3.1800
  71   0.0000       0.131448         3.5769

MULLIKEN ATOMIC CHARGES
-----------------------
   0 S :    0.106618
   1 C :   -0.151576
   2 C :   -0.073663
   3 C :    0.042274
   4 C :   -0.161609
   5 H :   -0.007302
   6 C :    0.044915
   7 H :    0.032585
   8 H :    0.031138
   9 C :   -0.086728
  10 H :    0.020701
  11 H :    0.027195
  12 C :   -0.016975
  13 H :    0.027642
  14 H :    0.025892
  15 H :    0.033456
  16 S :    0.087536
  17 C :   -0.072937
  18 C :   -0.025571
  19 C :   -0.048503
  20 C :   -0.129981
  21 H :    0.000930
  22 C :    0.100779
  23 H :    0.025871
  24 H :    0.031558
  25 C :   -0.097153
  26 H :    0.026001
  27 H :    0.053330
  28 C :   -0.038308
  29 H :    0.012807
  30 H :    0.025549
  31 H :    0.030211
  32 H :    0.068564
  33 H :    0.054753
Sum of atomic charges:    0.0000000

LOEWDIN ATOMIC CHARGES
----------------------
   0 S :    0.402222
   1 C :   -0.202374
   2 C :   -0.059625
   3 C :   -0.058251
   4 C :   -0.206825
   5 H :    0.021860
   6 C :   -0.037724
   7 H :    0.034864
   8 H :    0.032630
   9 C :   -0.046248
  10 H :    0.023353
  11 H :    0.030223
  12 C :   -0.061931
  13 H :    0.020257
  14 H :    0.027193
  15 H :    0.027698
  16 S :    0.377583
  17 C :   -0.181330
  18 C :   -0.068581
  19 C :   -0.037777
  20 C :   -0.181927
  21 H :    0.021941
  22 C :   -0.027240
  23 H :    0.030133
  24 H :    0.033289
  25 C :   -0.038006
  26 H :    0.014160
  27 H :    0.040580
  28 C :   -0.067993
  29 H :    0.007916
  30 H :    0.031140
  31 H :    0.030771
  32 H :    0.038024
  33 H :    0.029995

  Mayer bond orders larger than 0.100000
B(  0-S ,  1-C ) :   1.1326 B(  0-S ,  4-C ) :   1.1462 B(  1-C ,  2-C ) :   1.6253
B(  1-C , 32-H ) :   0.9582 B(  2-C ,  3-C ) :   1.2318 B(  2-C ,  6-C ) :   1.0050
B(  3-C ,  4-C ) :   1.5949 B(  3-C ,  5-H ) :   1.0024 B(  4-C , 20-C ) :   1.0016
B(  6-C ,  7-H ) :   0.9461 B(  6-C ,  8-H ) :   0.9317 B(  6-C ,  9-C ) :   1.0892
B(  9-C , 10-H ) :   0.9468 B(  9-C , 11-H ) :   0.9529 B(  9-C , 12-C ) :   1.0733
B( 12-C , 13-H ) :   0.9776 B( 12-C , 14-H ) :   0.9737 B( 12-C , 15-H ) :   0.9736
B( 16-S , 17-C ) :   1.1436 B( 16-S , 20-C ) :   1.1234 B( 17-C , 18-C ) :   1.6561
B( 17-C , 33-H ) :   0.9641 B( 18-C , 19-C ) :   1.1759 B( 18-C , 21-H ) :   0.9979
B( 19-C , 20-C ) :   1.6178 B( 19-C , 22-C ) :   1.0558 B( 22-C , 23-H ) :   0.9411
B( 22-C , 24-H ) :   0.9205 B( 22-C , 25-C ) :   1.0584 B( 25-C , 26-H ) :   0.9573
B( 25-C , 27-H ) :   0.9570 B( 25-C , 28-C ) :   1.0787 B( 28-C , 29-H ) :   0.9772
B( 28-C , 30-H ) :   0.9717 B( 28-C , 31-H ) :   0.9745

Dispersion correction           -0.013816355
FINAL SINGLE POINT ENERGY     -1339.860574565608

DIPOLE MOMENT
-------------
                                X             Y             Z
Electronic contribution:    -13.79838      17.54244       2.29966
Nuclear contribution   :     14.35504     -18.03434      -2.12223
                        -----------------------------------------
Total Dipole Moment    :      0.55666      -0.49191       0.17743
                        -----------------------------------------
Magnitude (a.u.)       :      0.76375
Magnitude (Debye)      :      1.94131

Rotational constants in cm-1:     0.019781     0.007507     0.006196
Rotational constants in MHz :   593.032594   225.065161   185.746320

                             ****ORCA TERMINATED NORMALLY****
TOTAL RUN TIME: 0 days 0 hours 0 minutes 20 seconds 831 msec
