                         Program Version 4.2.1 -  RELEASE  -
|  1> ! wB97X-D3 SP def2-SVP
|  2> %pal
|  3> nprocs 24
|  4> end
|  5>
|  6> * xyz 0 1
|  7> S 	 -68.9315 	 3.65877 	 -72.3671
|  8> C 	 -68.5114 	 4.20478 	 -73.9435
|  9> C 	 -67.4371 	 3.59964 	 -74.5685
| 10> C 	 -66.8589 	 2.65375 	 -73.6244
| 11> C 	 -67.5372 	 2.58462 	 -72.4224
| 12> H 	 -65.9683 	 2.15853 	 -73.7948
| 13> C 	 -66.9151 	 3.79857 	 -75.971
| 14> H 	 -66.1212 	 3.08445 	 -76.1742
| 15> H 	 -66.408 	 4.74751 	 -75.9078
| 16> C 	 -67.968 	 3.81218 	 -77.1467
| 17> H 	 -68.5231 	 4.70238 	 -76.9918
| 18> H 	 -67.392 	 4.02412 	 -78.1177
| 19> C 	 -68.819 	 2.55714 	 -77.1723
| 20> H 	 -68.861 	 2.0591 	 -76.2856
| 21> H 	 -69.8586 	 2.64256 	 -77.4535
| 22> H 	 -68.4364 	 1.84946 	 -77.8954
| 23> S 	 -65.8947 	 2.35469 	 -70.3078
| 24> C 	 -65.9288 	 0.932958 	 -69.3553
| 25> C 	 -66.7321 	 -0.0265633 	 -69.9264
| 26> C 	 -67.3475 	 0.400475 	 -71.1332
| 27> C 	 -67.1255 	 1.73198 	 -71.3715
| 28> H 	 -66.8977 	 -0.916668 	 -69.4809
| 29> C 	 -68.3096 	 -0.401435 	 -71.8939
| 30> H 	 -68.839 	 0.231806 	 -72.4614
| 31> H 	 -68.9423 	 -0.925193 	 -71.174
| 32> C 	 -67.7218 	 -1.42684 	 -72.8881
| 33> H 	 -68.5465 	 -1.85879 	 -73.5401
| 34> H 	 -67.2673 	 -2.31296 	 -72.3853
| 35> C 	 -66.6217 	 -0.832476 	 -73.7667
| 36> H 	 -66.5143 	 -1.42761 	 -74.6956
| 37> H 	 -65.6289 	 -0.766524 	 -73.3033
| 38> H 	 -66.9602 	 0.044937 	 -74.3267
| 39> H 	 -69.0635 	 5.06205 	 -74.3686
| 40> H 	 -65.4123 	 0.878634 	 -68.405
| 41> *
| 42>
| 43>                          ****END OF INPUT****

CARTESIAN COORDINATES (ANGSTROEM)
---------------------------------
  S    -68.931500    3.658770  -72.367100
  C    -68.511400    4.204780  -73.943500
  C    -67.437100    3.599640  -74.568500
  C    -66.858900    2.653750  -73.624400
  C    -67.537200    2.584620  -72.422400
  H    -65.968300    2.158530  -73.794800
  C    -66.915100    3.798570  -75.971000
  H    -66.121200    3.084450  -76.174200
  H    -66.408000    4.747510  -75.907800
  C    -67.968000    3.812180  -77.146700
  H    -68.523100    4.702380  -76.991800
  H    -67.392000    4.024120  -78.117700
  C    -68.819000    2.557140  -77.172300
  H    -68.861000    2.059100  -76.285600
  H    -69.858600    2.642560  -77.453500
  H    -68.436400    1.849460  -77.895400
  S    -65.894700    2.354690  -70.307800
  C    -65.928800    0.932958  -69.355300
  C    -66.732100   -0.026563  -69.926400
  C    -67.347500    0.400475  -71.133200
  C    -67.125500    1.731980  -71.371500
  H    -66.897700   -0.916668  -69.480900
  C    -68.309600   -0.401435  -71.893900
  H    -68.839000    0.231806  -72.461400
  H    -68.942300   -0.925193  -71.174000
  C    -67.721800   -1.426840  -72.888100
  H    -68.546500   -1.858790  -73.540100
  H    -67.267300   -2.312960  -72.385300
  C    -66.621700   -0.832476  -73.766700
  H    -66.514300   -1.427610  -74.695600
  H    -65.628900   -0.766524  -73.303300
  H    -66.960200    0.044937  -74.326700
  H    -69.063500    5.062050  -74.368600
  H    -65.412300    0.878634  -68.405000

 Total Charge           Charge          ....    0
 Multiplicity           Mult            ....    1
 Number of Electrons    NEL             ....  134
 Basis Dimension        Dim             ....  322

ORBITAL ENERGIES
----------------

  NO   OCC          E(Eh)            E(eV)
   0   2.0000     -88.968311     -2420.9508
   1   2.0000     -88.957042     -2420.6442
   2   2.0000     -10.319760      -280.8149
   3   2.0000     -10.312471      -280.6166
   4   2.0000     -10.311181      -280.5815
   5   2.0000     -10.310829      -280.5719
   6   2.0000     -10.301690      -280.3232
   7   2.0000     -10.294651      -280.1317
   8   2.0000     -10.294152      -280.1181
   9   2.0000     -10.291723      -280.0520
  10   2.0000     -10.290774      -280.0262
  11   2.0000     -10.289261      -279.9850
  12   2.0000     -10.280904      -279.7576
  13   2.0000     -10.274624      -279.5867
  14   2.0000     -10.273932      -279.5679
  15   2.0000     -10.266065      -279.3538
  16   2.0000      -8.083255      -219.9565
  17   2.0000      -8.073167      -219.6821
  18   2.0000      -6.041588      -164.4000
  19   2.0000      -6.037821      -164.2975
  20   2.0000      -6.034116      -164.1966
  21   2.0000      -6.031482      -164.1250
  22   2.0000      -6.027463      -164.0156
  23   2.0000      -6.024074      -163.9234
  24   2.0000      -1.010731       -27.5034
  25   2.0000      -0.985612       -26.8199
  26   2.0000      -0.912149       -24.8208
  27   2.0000      -0.909858       -24.7585
  28   2.0000      -0.871582       -23.7170
  29   2.0000      -0.852572       -23.1997
  30   2.0000      -0.847645       -23.0656
  31   2.0000      -0.811479       -22.0815
  32   2.0000      -0.787623       -21.4323
  33   2.0000      -0.773623       -21.0514
  34   2.0000      -0.711712       -19.3667
  35   2.0000      -0.703199       -19.1350
  36   2.0000      -0.691735       -18.8231
  37   2.0000      -0.663087       -18.0435
  38   2.0000      -0.646824       -17.6010
  39   2.0000      -0.610502       -16.6126
  40   2.0000      -0.597298       -16.2533
  41   2.0000      -0.572271       -15.5723
  42   2.0000      -0.556627       -15.1466
  43   2.0000      -0.554858       -15.0984
  44   2.0000      -0.547528       -14.8990
  45   2.0000      -0.537082       -14.6147
  46   2.0000      -0.517740       -14.0884
  47   2.0000      -0.506770       -13.7899
  48   2.0000      -0.500268       -13.6130
  49   2.0000      -0.496430       -13.5085
  50   2.0000      -0.490146       -13.3376
  51   2.0000      -0.474844       -12.9212
  52   2.0000      -0.470754       -12.8099
  53   2.0000      -0.468828       -12.7575
  54   2.0000      -0.466313       -12.6890
  55   2.0000      -0.448453       -12.2030
  56   2.0000      -0.441134       -12.0039
  57   2.0000      -0.439439       -11.9578
  58   2.0000      -0.428900       -11.6710
  59   2.0000      -0.426839       -11.6149
  60   2.0000      -0.418594       -11.3905
  61   2.0000      -0.417930       -11.3724
  62   2.0000      -0.411398       -11.1947
  63   2.0000      -0.335451        -9.1281
  64   2.0000      -0.324589        -8.8325
  65   2.0000      -0.315870        -8.5953
  66   2.0000      -0.307942        -8.3795
  67   0.0000       0.047279         1.2865
  68   0.0000       0.057489         1.5644
  69   0.0000       0.112533         3.0622
  70   0.0000       0.120296         3.2734
  71   0.0000       0.130430         3.5492

MULLIKEN ATOMIC CHARGES
-----------------------
   0 S :    0.134968
   1 C :   -0.143080
   2 C :   -0.102512
   3 C :    0.076093
   4 C :   -0.196254
   5 H :   -0.011072
   6 C :    0.069731
   7 H :    0.020287
   8 H :    0.036404
   9 C :   -0.064943
  10 H :    0.019871
  11 H :    0.042031
  12 C :   -0.004439
  13 H :    0.017763
  14 H :    0.024920
  15 H :    0.022116
  16 S :    0.109313
  17 C :   -0.087183
  18 C :    0.012084
  19 C :   -0.022596
  20 C :   -0.200986
  21 H :   -0.033384
  22 C :    0.164461
  23 H :   -0.012624
  24 H :    0.023769
  25 C :   -0.104793
  26 H :    0.038907
  27 H :    0.029592
  28 C :   -0.067224
  29 H :    0.017307
  30 H :    0.057901
  31 H :    0.022578
  32 H :    0.052840
  33 H :    0.058154
Sum of atomic charges:    0.0000000

LOEWDIN ATOMIC CHARGES
----------------------
   0 S :    0.416210
   1 C :   -0.206822
   2 C :   -0.065147
   3 C :   -0.036092
   4 C :   -0.208021
   5 H :    0.017945
   6 C :   -0.032167
   7 H :    0.027497
   8 H :    0.036276
   9 C :   -0.035133
  10 H :    0.015872
  11 H :    0.035476
  12 C :   -0.064356
  13 H :    0.014926
  14 H :    0.029259
  15 H :    0.028958
  16 S :    0.421243
  17 C :   -0.188843
  18 C :   -0.060505
  19 C :   -0.049068
  20 C :   -0.207330
  21 H :    0.010961
  22 C :   -0.022110
  23 H :    0.013092
  24 H :    0.034765
  25 C :   -0.040843
  26 H :    0.031414
  27 H :    0.022937
  28 C :   -0.082628
  29 H :    0.029946
  30 H :    0.030975
  31 H :    0.026082
  32 H :    0.026727
  33 H :    0.028504

  Mayer bond orders larger than 0.100000
B(  0-S ,  1-C ) :   1.1539 B(  0-S ,  4-C ) :   1.1313 B(  1-C ,  2-C ) :   1.6146
B(  1-C , 32-H ) :   0.9612 B(  2-C ,  3-C ) :   1.2289 B(  2-C ,  6-C ) :   1.0096
B(  3-C ,  4-C ) :   1.5983 B(  3-C ,  5-H ) :   0.9975 B(  4-C , 20-C ) :   1.0270
B(  6-C ,  7-H ) :   0.9469 B(  6-C ,  8-H ) :   0.9285 B(  6-C ,  9-C ) :   1.0749
B(  9-C , 10-H ) :   0.9586 B(  9-C , 11-H ) :   0.9600 B(  9-C , 12-C ) :   1.0598
B( 12-C , 13-H ) :   0.9785 B( 12-C , 14-H ) :   0.9727 B( 12-C , 15-H ) :   0.9729
B( 16-S , 17-C ) :   1.1694 B( 16-S , 20-C ) :   1.1524 B( 17-C , 18-C ) :   1.5812
B( 17-C , 20-C ) :   0.1006 B( 17-C , 33-H ) :   0.9704 B( 18-C , 19-C ) :   1.2253
B( 18-C , 21-H ) :   1.0140 B( 19-C , 20-C ) :   1.5924 B( 19-C , 22-C ) :   1.0658
B( 22-C , 23-H ) :   0.9134 B( 22-C , 24-H ) :   0.9332 B( 22-C , 25-C ) :   1.0630
B( 25-C , 26-H ) :   0.9585 B( 25-C , 27-H ) :   0.9567 B( 25-C , 28-C ) :   1.0854
B( 28-C , 29-H ) :   0.9624 B( 28-C , 30-H ) :   0.9696 B( 28-C , 31-H ) :   0.9631

Dispersion correction           -0.016231407
FINAL SINGLE POINT ENERGY     -1339.864683258307

DIPOLE MOMENT
-------------
                                X             Y             Z
Electronic contribution:      1.88919      11.67140      24.04369
Nuclear contribution   :     -1.87853     -11.90958     -24.50299
                        -----------------------------------------
Total Dipole Moment    :      0.01065      -0.23817      -0.45930
                        -----------------------------------------
Magnitude (a.u.)       :      0.51749
Magnitude (Debye)      :      1.31537

Rotational constants in cm-1:     0.021672     0.009231     0.007671
Rotational constants in MHz :   649.718649   276.728250   229.967610

                             ****ORCA TERMINATED NORMALLY****
TOTAL RUN TIME: 0 days 0 hours 0 minutes 24 seconds 281 msec
