                         Program Version 4.2.1 -  RELEASE  -
|  1> ! wB97X-D3 SP def2-SVP
|  2> %pal
|  3> nprocs 24
|  4> end
|  5>
|  6> * xyz 0 1
|  7> S 	 -56.7016 	 2.45976 	 -19.6091
|  8> C 	 -58.1588 	 2.35705 	 -18.5945
|  9> C 	 -58.1136 	 3.05052 	 -17.4314
| 10> C 	 -56.8495 	 3.76853 	 -17.4123
| 11> C 	 -56.0505 	 3.61613 	 -18.5175
| 12> H 	 -56.6026 	 4.39607 	 -16.5091
| 13> C 	 -59.2687 	 3.12389 	 -16.4524
| 14> H 	 -58.7845 	 3.01421 	 -15.4434
| 15> H 	 -59.8111 	 2.15162 	 -16.4879
| 16> C 	 -60.1376 	 4.34698 	 -16.5482
| 17> H 	 -59.464 	 5.13549 	 -16.2552
| 18> H 	 -60.4221 	 4.51998 	 -17.5541
| 19> C 	 -61.2865 	 4.2221 	 -15.564
| 20> H 	 -62.06 	 4.99267 	 -15.8021
| 21> H 	 -61.7619 	 3.24177 	 -15.6169
| 22> H 	 -60.9902 	 4.32098 	 -14.5477
| 23> S 	 -53.4275 	 3.94562 	 -19.566
| 24> C 	 -52.5659 	 5.54461 	 -19.5172
| 25> C 	 -53.5303 	 6.41055 	 -18.9953
| 26> C 	 -54.8559 	 5.90902 	 -18.6964
| 27> C 	 -54.9694 	 4.52487 	 -18.9358
| 28> H 	 -53.1947 	 7.45504 	 -18.9341
| 29> C 	 -55.8943 	 6.8756 	 -18.1914
| 30> H 	 -55.542 	 7.82661 	 -18.3829
| 31> H 	 -55.9624 	 6.76703 	 -17.0593
| 32> C 	 -57.1711 	 6.8765 	 -19.0182
| 33> H 	 -57.8 	 5.97934 	 -18.9078
| 34> H 	 -56.8444 	 6.90467 	 -20.0368
| 35> C 	 -58.0457 	 8.16704 	 -18.8103
| 36> H 	 -58.8215 	 8.44083 	 -19.5948
| 37> H 	 -57.345 	 9.07598 	 -18.8121
| 38> H 	 -58.5809 	 8.16231 	 -17.8846
| 39> H 	 -58.9038 	 1.61098 	 -18.6362
| 40> H 	 -51.5319 	 5.81076 	 -19.5745
| 41> *
| 42>
| 43>                          ****END OF INPUT****

CARTESIAN COORDINATES (ANGSTROEM)
---------------------------------
  S    -56.701600    2.459760  -19.609100
  C    -58.158800    2.357050  -18.594500
  C    -58.113600    3.050520  -17.431400
  C    -56.849500    3.768530  -17.412300
  C    -56.050500    3.616130  -18.517500
  H    -56.602600    4.396070  -16.509100
  C    -59.268700    3.123890  -16.452400
  H    -58.784500    3.014210  -15.443400
  H    -59.811100    2.151620  -16.487900
  C    -60.137600    4.346980  -16.548200
  H    -59.464000    5.135490  -16.255200
  H    -60.422100    4.519980  -17.554100
  C    -61.286500    4.222100  -15.564000
  H    -62.060000    4.992670  -15.802100
  H    -61.761900    3.241770  -15.616900
  H    -60.990200    4.320980  -14.547700
  S    -53.427500    3.945620  -19.566000
  C    -52.565900    5.544610  -19.517200
  C    -53.530300    6.410550  -18.995300
  C    -54.855900    5.909020  -18.696400
  C    -54.969400    4.524870  -18.935800
  H    -53.194700    7.455040  -18.934100
  C    -55.894300    6.875600  -18.191400
  H    -55.542000    7.826610  -18.382900
  H    -55.962400    6.767030  -17.059300
  C    -57.171100    6.876500  -19.018200
  H    -57.800000    5.979340  -18.907800
  H    -56.844400    6.904670  -20.036800
  C    -58.045700    8.167040  -18.810300
  H    -58.821500    8.440830  -19.594800
  H    -57.345000    9.075980  -18.812100
  H    -58.580900    8.162310  -17.884600
  H    -58.903800    1.610980  -18.636200
  H    -51.531900    5.810760  -19.574500

 Total Charge           Charge          ....    0
 Multiplicity           Mult            ....    1
 Number of Electrons    NEL             ....  134
 Basis Dimension        Dim             ....  322

ORBITAL ENERGIES
----------------

  NO   OCC          E(Eh)            E(eV)
   0   2.0000     -88.967722     -2420.9348
   1   2.0000     -88.964520     -2420.8477
   2   2.0000     -10.335295      -281.2377
   3   2.0000     -10.331577      -281.1365
   4   2.0000     -10.325220      -280.9635
   5   2.0000     -10.309208      -280.5278
   6   2.0000     -10.307427      -280.4794
   7   2.0000     -10.301680      -280.3230
   8   2.0000     -10.300752      -280.2977
   9   2.0000     -10.300622      -280.2942
  10   2.0000     -10.298799      -280.2446
  11   2.0000     -10.290421      -280.0166
  12   2.0000     -10.286239      -279.9028
  13   2.0000     -10.285765      -279.8899
  14   2.0000     -10.284629      -279.8590
  15   2.0000     -10.281678      -279.7787
  16   2.0000      -8.082756      -219.9430
  17   2.0000      -8.077883      -219.8104
  18   2.0000      -6.041322      -164.3927
  19   2.0000      -6.037373      -164.2853
  20   2.0000      -6.036663      -164.2660
  21   2.0000      -6.033272      -164.1737
  22   2.0000      -6.032385      -164.1495
  23   2.0000      -6.028574      -164.0458
  24   2.0000      -1.006373       -27.3848
  25   2.0000      -0.979357       -26.6497
  26   2.0000      -0.923233       -25.1224
  27   2.0000      -0.908467       -24.7207
  28   2.0000      -0.873657       -23.7734
  29   2.0000      -0.847808       -23.0700
  30   2.0000      -0.838513       -22.8171
  31   2.0000      -0.815690       -22.1961
  32   2.0000      -0.784067       -21.3355
  33   2.0000      -0.769725       -20.9453
  34   2.0000      -0.715108       -19.4591
  35   2.0000      -0.707761       -19.2592
  36   2.0000      -0.691962       -18.8292
  37   2.0000      -0.658115       -17.9082
  38   2.0000      -0.638401       -17.3718
  39   2.0000      -0.619444       -16.8559
  40   2.0000      -0.587129       -15.9766
  41   2.0000      -0.576475       -15.6867
  42   2.0000      -0.568605       -15.4725
  43   2.0000      -0.565872       -15.3982
  44   2.0000      -0.533023       -14.5043
  45   2.0000      -0.526142       -14.3171
  46   2.0000      -0.520699       -14.1689
  47   2.0000      -0.512374       -13.9424
  48   2.0000      -0.504691       -13.7334
  49   2.0000      -0.497030       -13.5249
  50   2.0000      -0.486674       -13.2431
  51   2.0000      -0.485158       -13.2018
  52   2.0000      -0.467159       -12.7120
  53   2.0000      -0.463029       -12.5997
  54   2.0000      -0.456134       -12.4120
  55   2.0000      -0.445916       -12.1340
  56   2.0000      -0.445183       -12.1140
  57   2.0000      -0.439135       -11.9495
  58   2.0000      -0.430924       -11.7260
  59   2.0000      -0.426509       -11.6059
  60   2.0000      -0.420064       -11.4305
  61   2.0000      -0.418035       -11.3753
  62   2.0000      -0.407281       -11.0827
  63   2.0000      -0.350867        -9.5476
  64   2.0000      -0.333464        -9.0740
  65   2.0000      -0.325566        -8.8591
  66   2.0000      -0.295418        -8.0387
  67   0.0000       0.021604         0.5879
  68   0.0000       0.069862         1.9011
  69   0.0000       0.102616         2.7923
  70   0.0000       0.121276         3.3001
  71   0.0000       0.125926         3.4266

MULLIKEN ATOMIC CHARGES
-----------------------
   0 S :    0.114381
   1 C :   -0.088086
   2 C :   -0.120658
   3 C :   -0.020535
   4 C :   -0.114034
   5 H :    0.026113
   6 C :    0.010476
   7 H :    0.028737
   8 H :    0.021144
   9 C :   -0.009263
  10 H :    0.023595
  11 H :    0.028451
  12 C :   -0.030169
  13 H :    0.042689
  14 H :    0.025790
  15 H :    0.025249
  16 S :    0.078337
  17 C :   -0.087593
  18 C :   -0.058816
  19 C :   -0.084975
  20 C :   -0.102364
  21 H :    0.029068
  22 C :    0.118122
  23 H :   -0.019109
  24 H :    0.049197
  25 C :   -0.067075
  26 H :    0.050788
  27 H :    0.030286
  28 C :   -0.092751
  29 H :    0.046786
  30 H :    0.028353
  31 H :    0.029819
  32 H :    0.024511
  33 H :    0.063534
Sum of atomic charges:   -0.0000000

LOEWDIN ATOMIC CHARGES
----------------------
   0 S :    0.406352
   1 C :   -0.179858
   2 C :   -0.064614
   3 C :   -0.063150
   4 C :   -0.204110
   5 H :    0.036568
   6 C :   -0.036004
   7 H :    0.035415
   8 H :    0.029585
   9 C :   -0.034350
  10 H :    0.027670
  11 H :    0.022522
  12 C :   -0.061022
  13 H :    0.033294
  14 H :    0.025048
  15 H :    0.022302
  16 S :    0.374442
  17 C :   -0.173907
  18 C :   -0.073359
  19 C :   -0.059193
  20 C :   -0.192749
  21 H :    0.031551
  22 C :   -0.031281
  23 H :    0.018689
  24 H :    0.038031
  25 C :   -0.035895
  26 H :    0.026172
  27 H :    0.027251
  28 C :   -0.076770
  29 H :    0.033505
  30 H :    0.027322
  31 H :    0.016947
  32 H :    0.017343
  33 H :    0.036253

  Mayer bond orders larger than 0.100000
B(  0-S ,  1-C ) :   1.1277 B(  0-S ,  4-C ) :   1.1427 B(  1-C ,  2-C ) :   1.6623
B(  1-C , 32-H ) :   0.9571 B(  2-C ,  3-C ) :   1.2289 B(  2-C ,  6-C ) :   1.0197
B(  3-C ,  4-C ) :   1.5868 B(  3-C ,  5-H ) :   0.9906 B(  4-C , 20-C ) :   1.0166
B(  6-C ,  7-H ) :   0.9370 B(  6-C ,  8-H ) :   0.9396 B(  6-C ,  9-C ) :   1.0560
B(  9-C , 10-H ) :   0.9478 B(  9-C , 11-H ) :   0.9563 B(  9-C , 12-C ) :   1.0810
B( 12-C , 13-H ) :   0.9741 B( 12-C , 14-H ) :   0.9744 B( 12-C , 15-H ) :   0.9737
B( 16-S , 17-C ) :   1.1341 B( 16-S , 20-C ) :   1.1354 B( 17-C , 18-C ) :   1.6186
B( 17-C , 20-C ) :   0.1028 B( 17-C , 33-H ) :   0.9692 B( 18-C , 19-C ) :   1.2606
B( 18-C , 21-H ) :   0.9780 B( 19-C , 20-C ) :   1.5606 B( 19-C , 22-C ) :   1.0512
B( 22-C , 23-H ) :   0.9198 B( 22-C , 24-H ) :   0.9243 B( 22-C , 25-C ) :   1.0569
B( 25-C , 26-H ) :   0.9543 B( 25-C , 27-H ) :   0.9532 B( 25-C , 28-C ) :   1.0780
B( 28-C , 29-H ) :   0.9775 B( 28-C , 30-H ) :   0.9733 B( 28-C , 31-H ) :   0.9777

Dispersion correction           -0.015065445
FINAL SINGLE POINT ENERGY     -1339.858763782311

DIPOLE MOMENT
-------------
                                X             Y             Z
Electronic contribution:     24.91526     -16.83910     -13.82960
Nuclear contribution   :    -25.37794      17.35872      14.41488
                        -----------------------------------------
Total Dipole Moment    :     -0.46268       0.51961       0.58528
                        -----------------------------------------
Magnitude (a.u.)       :      0.90918
Magnitude (Debye)      :      2.31096

Rotational constants in cm-1:     0.020072     0.008933     0.006832
Rotational constants in MHz :   601.734294   267.806831   204.831114

                             ****ORCA TERMINATED NORMALLY****
TOTAL RUN TIME: 0 days 0 hours 0 minutes 22 seconds 415 msec
