                         Program Version 4.2.1 -  RELEASE  -
|  1> ! wB97X-D3 SP def2-SVP
|  2> %pal
|  3> nprocs 24
|  4> end
|  5>
|  6> * xyz 0 1
|  7> S 	 39.9857 	 -27.0764 	 -127.04
|  8> C 	 39.5042 	 -25.4083 	 -127.509
|  9> C 	 40.427 	 -24.7536 	 -128.267
| 10> C 	 41.6175 	 -25.591 	 -128.396
| 11> C 	 41.5593 	 -26.8564 	 -127.816
| 12> H 	 42.4306 	 -25.313 	 -129.048
| 13> C 	 40.1591 	 -23.4833 	 -129.091
| 14> H 	 41.0257 	 -22.988 	 -129.25
| 15> H 	 39.6707 	 -22.7503 	 -128.492
| 16> C 	 39.4416 	 -23.6885 	 -130.458
| 17> H 	 40.1264 	 -24.1991 	 -131.037
| 18> H 	 38.6866 	 -24.4878 	 -130.34
| 19> C 	 38.8421 	 -22.4804 	 -131.135
| 20> H 	 38.4828 	 -22.8452 	 -132.048
| 21> H 	 37.9544 	 -22.0017 	 -130.668
| 22> H 	 39.5836 	 -21.7516 	 -131.428
| 23> S 	 42.0423 	 -29.3678 	 -128.617
| 24> C 	 43.7288 	 -29.9528 	 -128.76
| 25> C 	 44.5982 	 -29.0993 	 -128.112
| 26> C 	 44.0002 	 -27.8359 	 -127.839
| 27> C 	 42.6096 	 -27.8549 	 -127.9
| 28> H 	 45.7114 	 -29.332 	 -128.045
| 29> C 	 44.7757 	 -26.6993 	 -127.167
| 30> H 	 45.5922 	 -27.163 	 -126.575
| 31> H 	 44.2493 	 -26.0936 	 -126.399
| 32> C 	 45.5447 	 -25.8927 	 -128.197
| 33> H 	 45.0012 	 -25.6069 	 -129.118
| 34> H 	 46.1726 	 -26.7003 	 -128.668
| 35> C 	 46.2425 	 -24.6809 	 -127.523
| 36> H 	 47.0306 	 -24.9582 	 -126.792
| 37> H 	 45.3614 	 -24.0138 	 -127.176
| 38> H 	 46.7257 	 -24.2253 	 -128.39
| 39> H 	 38.5216 	 -24.9975 	 -127.278
| 40> H 	 44.0625 	 -30.8833 	 -129.195
| 41> *
| 42>
| 43>                          ****END OF INPUT****

CARTESIAN COORDINATES (ANGSTROEM)
---------------------------------
  S     39.985700  -27.076400  -127.040000
  C     39.504200  -25.408300  -127.509000
  C     40.427000  -24.753600  -128.267000
  C     41.617500  -25.591000  -128.396000
  C     41.559300  -26.856400  -127.816000
  H     42.430600  -25.313000  -129.048000
  C     40.159100  -23.483300  -129.091000
  H     41.025700  -22.988000  -129.250000
  H     39.670700  -22.750300  -128.492000
  C     39.441600  -23.688500  -130.458000
  H     40.126400  -24.199100  -131.037000
  H     38.686600  -24.487800  -130.340000
  C     38.842100  -22.480400  -131.135000
  H     38.482800  -22.845200  -132.048000
  H     37.954400  -22.001700  -130.668000
  H     39.583600  -21.751600  -131.428000
  S     42.042300  -29.367800  -128.617000
  C     43.728800  -29.952800  -128.760000
  C     44.598200  -29.099300  -128.112000
  C     44.000200  -27.835900  -127.839000
  C     42.609600  -27.854900  -127.900000
  H     45.711400  -29.332000  -128.045000
  C     44.775700  -26.699300  -127.167000
  H     45.592200  -27.163000  -126.575000
  H     44.249300  -26.093600  -126.399000
  C     45.544700  -25.892700  -128.197000
  H     45.001200  -25.606900  -129.118000
  H     46.172600  -26.700300  -128.668000
  C     46.242500  -24.680900  -127.523000
  H     47.030600  -24.958200  -126.792000
  H     45.361400  -24.013800  -127.176000
  H     46.725700  -24.225300  -128.390000
  H     38.521600  -24.997500  -127.278000
  H     44.062500  -30.883300  -129.195000

 Total Charge           Charge          ....    0
 Multiplicity           Mult            ....    1
 Number of Electrons    NEL             ....  134
 Basis Dimension        Dim             ....  322

ORBITAL ENERGIES
----------------

  NO   OCC          E(Eh)            E(eV)
   0   2.0000     -88.967899     -2420.9396
   1   2.0000     -88.964692     -2420.8524
   2   2.0000     -10.332936      -281.1735
   3   2.0000     -10.329252      -281.0732
   4   2.0000     -10.321806      -280.8706
   5   2.0000     -10.316195      -280.7179
   6   2.0000     -10.306481      -280.4536
   7   2.0000     -10.303492      -280.3723
   8   2.0000     -10.302501      -280.3453
   9   2.0000     -10.295101      -280.1440
  10   2.0000     -10.291212      -280.0381
  11   2.0000     -10.290564      -280.0205
  12   2.0000     -10.289064      -279.9797
  13   2.0000     -10.284309      -279.8503
  14   2.0000     -10.282729      -279.8073
  15   2.0000     -10.277020      -279.6519
  16   2.0000      -8.081512      -219.9091
  17   2.0000      -8.078797      -219.8352
  18   2.0000      -6.040242      -164.3633
  19   2.0000      -6.037422      -164.2866
  20   2.0000      -6.036277      -164.2555
  21   2.0000      -6.033396      -164.1771
  22   2.0000      -6.032005      -164.1392
  23   2.0000      -6.029442      -164.0695
  24   2.0000      -1.001566       -27.2540
  25   2.0000      -0.977082       -26.5878
  26   2.0000      -0.911643       -24.8071
  27   2.0000      -0.907738       -24.7008
  28   2.0000      -0.871955       -23.7271
  29   2.0000      -0.846437       -23.0327
  30   2.0000      -0.843889       -22.9634
  31   2.0000      -0.811726       -22.0882
  32   2.0000      -0.787720       -21.4350
  33   2.0000      -0.770019       -20.9533
  34   2.0000      -0.710801       -19.3419
  35   2.0000      -0.702637       -19.1197
  36   2.0000      -0.689794       -18.7702
  37   2.0000      -0.662307       -18.0223
  38   2.0000      -0.638048       -17.3622
  39   2.0000      -0.615969       -16.7614
  40   2.0000      -0.596232       -16.2243
  41   2.0000      -0.569442       -15.4953
  42   2.0000      -0.559166       -15.2157
  43   2.0000      -0.552981       -15.0474
  44   2.0000      -0.524793       -14.2804
  45   2.0000      -0.522104       -14.2072
  46   2.0000      -0.515400       -14.0247
  47   2.0000      -0.510449       -13.8900
  48   2.0000      -0.507869       -13.8198
  49   2.0000      -0.501950       -13.6588
  50   2.0000      -0.493800       -13.4370
  51   2.0000      -0.473458       -12.8834
  52   2.0000      -0.472776       -12.8649
  53   2.0000      -0.464142       -12.6299
  54   2.0000      -0.460374       -12.5274
  55   2.0000      -0.451587       -12.2883
  56   2.0000      -0.445729       -12.1289
  57   2.0000      -0.435534       -11.8515
  58   2.0000      -0.432923       -11.7804
  59   2.0000      -0.427074       -11.6213
  60   2.0000      -0.416989       -11.3468
  61   2.0000      -0.413732       -11.2582
  62   2.0000      -0.400194       -10.8898
  63   2.0000      -0.350239        -9.5305
  64   2.0000      -0.331190        -9.0121
  65   2.0000      -0.329371        -8.9626
  66   2.0000      -0.289699        -7.8831
  67   0.0000       0.027875         0.7585
  68   0.0000       0.064386         1.7520
  69   0.0000       0.104847         2.8530
  70   0.0000       0.119041         3.2393
  71   0.0000       0.127148         3.4599

MULLIKEN ATOMIC CHARGES
-----------------------
   0 S :    0.101545
   1 C :   -0.132373
   2 C :   -0.089956
   3 C :    0.016918
   4 C :   -0.125204
   5 H :    0.003891
   6 C :    0.131644
   7 H :   -0.016468
   8 H :    0.006258
   9 C :   -0.052718
  10 H :    0.003116
  11 H :    0.022318
  12 C :   -0.010178
  13 H :    0.014983
  14 H :    0.042913
  15 H :    0.028828
  16 S :    0.087679
  17 C :   -0.091288
  18 C :   -0.037208
  19 C :   -0.044886
  20 C :   -0.127527
  21 H :    0.050789
  22 C :    0.038488
  23 H :    0.021275
  24 H :    0.040915
  25 C :   -0.146275
  26 H :    0.031965
  27 H :    0.018325
  28 C :   -0.039359
  29 H :    0.051557
  30 H :    0.059640
  31 H :    0.035939
  32 H :    0.049504
  33 H :    0.054950
Sum of atomic charges:    0.0000000

LOEWDIN ATOMIC CHARGES
----------------------
   0 S :    0.373994
   1 C :   -0.174904
   2 C :   -0.059514
   3 C :   -0.060751
   4 C :   -0.194499
   5 H :    0.025800
   6 C :   -0.022935
   7 H :    0.013677
   8 H :    0.027161
   9 C :   -0.033591
  10 H :    0.016027
  11 H :    0.028208
  12 C :   -0.062723
  13 H :    0.024861
  14 H :    0.032691
  15 H :    0.025351
  16 S :    0.383358
  17 C :   -0.170338
  18 C :   -0.076747
  19 C :   -0.056484
  20 C :   -0.184703
  21 H :    0.045585
  22 C :   -0.037921
  23 H :    0.032929
  24 H :    0.029887
  25 C :   -0.057090
  26 H :    0.020245
  27 H :    0.024339
  28 C :   -0.071792
  29 H :    0.031321
  30 H :    0.043423
  31 H :    0.027898
  32 H :    0.028258
  33 H :    0.028983

  Mayer bond orders larger than 0.100000
B(  0-S ,  1-C ) :   1.1201 B(  0-S ,  4-C ) :   1.1237 B(  1-C ,  2-C ) :   1.6473
B(  1-C , 32-H ) :   0.9641 B(  2-C ,  3-C ) :   1.2242 B(  2-C ,  6-C ) :   1.0347
B(  3-C ,  4-C ) :   1.5929 B(  3-C ,  5-H ) :   0.9925 B(  4-C , 20-C ) :   1.0385
B(  6-C ,  7-H ) :   0.9252 B(  6-C ,  8-H ) :   0.9354 B(  6-C ,  9-C ) :   1.0466
B(  9-C , 10-H ) :   0.9506 B(  9-C , 11-H ) :   0.9574 B(  9-C , 12-C ) :   1.0896
B( 12-C , 13-H ) :   0.9655 B( 12-C , 14-H ) :   0.9733 B( 12-C , 15-H ) :   0.9723
B( 16-S , 17-C ) :   1.1491 B( 16-S , 20-C ) :   1.1227 B( 17-C , 18-C ) :   1.6246
B( 17-C , 20-C ) :   0.1023 B( 17-C , 33-H ) :   0.9665 B( 18-C , 19-C ) :   1.2337
B( 18-C , 21-H ) :   0.9688 B( 19-C , 20-C ) :   1.6151 B( 19-C , 22-C ) :   1.0268
B( 22-C , 23-H ) :   0.9442 B( 22-C , 24-H ) :   0.9581 B( 22-C , 25-C ) :   1.0223
B( 25-C , 26-H ) :   0.9599 B( 25-C , 27-H ) :   0.9542 B( 25-C , 28-C ) :   1.0632
B( 28-C , 29-H ) :   0.9727 B( 28-C , 30-H ) :   0.9706 B( 28-C , 31-H ) :   0.9746

Dispersion correction           -0.013894585
FINAL SINGLE POINT ENERGY     -1339.851835866526

DIPOLE MOMENT
-------------
                                X             Y             Z
Electronic contribution:     -8.87996     -24.84650       9.22191
Nuclear contribution   :      9.27238      25.32535      -9.64936
                        -----------------------------------------
Total Dipole Moment    :      0.39242       0.47885      -0.42745
                        -----------------------------------------
Magnitude (a.u.)       :      0.75234
Magnitude (Debye)      :      1.91228

Rotational constants in cm-1:     0.017128     0.008265     0.006572
Rotational constants in MHz :   513.491469   247.792029   197.010907

                             ****ORCA TERMINATED NORMALLY****
TOTAL RUN TIME: 0 days 0 hours 0 minutes 21 seconds 143 msec
