                         Program Version 4.2.1 -  RELEASE  -
|  1> ! wB97X-D3 SP def2-SVP
|  2> %pal
|  3> nprocs 24
|  4> end
|  5>
|  6> * xyz 0 1
|  7> S 	 -109.868 	 21.5772 	 -112.701
|  8> C 	 -109.833 	 19.8476 	 -112.356
|  9> C 	 -109.481 	 19.1331 	 -113.507
| 10> C 	 -109.341 	 19.9299 	 -114.623
| 11> C 	 -109.549 	 21.2573 	 -114.358
| 12> H 	 -109.178 	 19.6754 	 -115.647
| 13> C 	 -109.279 	 17.6454 	 -113.528
| 14> H 	 -110.298 	 17.1074 	 -113.444
| 15> H 	 -108.85 	 17.3769 	 -112.58
| 16> C 	 -108.335 	 17.0176 	 -114.431
| 17> H 	 -108.415 	 15.8919 	 -114.252
| 18> H 	 -108.536 	 17.1985 	 -115.509
| 19> C 	 -106.874 	 17.4736 	 -114.253
| 20> H 	 -106.248 	 16.9848 	 -114.978
| 21> H 	 -106.772 	 18.5564 	 -114.463
| 22> H 	 -106.616 	 17.2403 	 -113.147
| 23> S 	 -108.435 	 23.7599 	 -115.031
| 24> C 	 -108.949 	 24.5632 	 -116.469
| 25> C 	 -109.821 	 23.7436 	 -117.166
| 26> C 	 -110.159 	 22.5165 	 -116.57
| 27> C 	 -109.517 	 22.3504 	 -115.311
| 28> H 	 -110.186 	 24.0806 	 -118.156
| 29> C 	 -111.06 	 21.5168 	 -117.17
| 30> H 	 -110.917 	 20.5531 	 -116.781
| 31> H 	 -110.892 	 21.382 	 -118.236
| 32> C 	 -112.538 	 21.9274 	 -116.981
| 33> H 	 -112.771 	 22.8747 	 -117.512
| 34> H 	 -112.831 	 22.0584 	 -115.934
| 35> C 	 -113.415 	 20.7357 	 -117.569
| 36> H 	 -114.487 	 21.0536 	 -117.519
| 37> H 	 -113.287 	 19.8345 	 -116.987
| 38> H 	 -113.167 	 20.5031 	 -118.596
| 39> H 	 -109.736 	 19.4021 	 -111.416
| 40> H 	 -108.607 	 25.5559 	 -116.815
| 41> *
| 42>
| 43>                          ****END OF INPUT****

CARTESIAN COORDINATES (ANGSTROEM)
---------------------------------
  S    -109.868000   21.577200  -112.701000
  C    -109.833000   19.847600  -112.356000
  C    -109.481000   19.133100  -113.507000
  C    -109.341000   19.929900  -114.623000
  C    -109.549000   21.257300  -114.358000
  H    -109.178000   19.675400  -115.647000
  C    -109.279000   17.645400  -113.528000
  H    -110.298000   17.107400  -113.444000
  H    -108.850000   17.376900  -112.580000
  C    -108.335000   17.017600  -114.431000
  H    -108.415000   15.891900  -114.252000
  H    -108.536000   17.198500  -115.509000
  C    -106.874000   17.473600  -114.253000
  H    -106.248000   16.984800  -114.978000
  H    -106.772000   18.556400  -114.463000
  H    -106.616000   17.240300  -113.147000
  S    -108.435000   23.759900  -115.031000
  C    -108.949000   24.563200  -116.469000
  C    -109.821000   23.743600  -117.166000
  C    -110.159000   22.516500  -116.570000
  C    -109.517000   22.350400  -115.311000
  H    -110.186000   24.080600  -118.156000
  C    -111.060000   21.516800  -117.170000
  H    -110.917000   20.553100  -116.781000
  H    -110.892000   21.382000  -118.236000
  C    -112.538000   21.927400  -116.981000
  H    -112.771000   22.874700  -117.512000
  H    -112.831000   22.058400  -115.934000
  C    -113.415000   20.735700  -117.569000
  H    -114.487000   21.053600  -117.519000
  H    -113.287000   19.834500  -116.987000
  H    -113.167000   20.503100  -118.596000
  H    -109.736000   19.402100  -111.416000
  H    -108.607000   25.555900  -116.815000

 Total Charge           Charge          ....    0
 Multiplicity           Mult            ....    1
 Number of Electrons    NEL             ....  134
 Basis Dimension        Dim             ....  322

ORBITAL ENERGIES
----------------

  NO   OCC          E(Eh)            E(eV)
   0   2.0000     -88.969571     -2420.9851
   1   2.0000     -88.965718     -2420.8803
   2   2.0000     -10.329303      -281.0746
   3   2.0000     -10.325450      -280.9698
   4   2.0000     -10.319470      -280.8071
   5   2.0000     -10.308590      -280.5110
   6   2.0000     -10.303163      -280.3633
   7   2.0000     -10.298764      -280.2436
   8   2.0000     -10.293423      -280.0983
   9   2.0000     -10.290635      -280.0224
  10   2.0000     -10.290236      -280.0116
  11   2.0000     -10.289834      -280.0006
  12   2.0000     -10.287077      -279.9256
  13   2.0000     -10.285113      -279.8722
  14   2.0000     -10.283985      -279.8415
  15   2.0000     -10.279455      -279.7182
  16   2.0000      -8.084377      -219.9871
  17   2.0000      -8.079954      -219.8667
  18   2.0000      -6.042744      -164.4314
  19   2.0000      -6.038830      -164.3249
  20   2.0000      -6.038468      -164.3151
  21   2.0000      -6.035327      -164.2296
  22   2.0000      -6.034350      -164.2030
  23   2.0000      -6.030924      -164.1098
  24   2.0000      -1.010535       -27.4980
  25   2.0000      -0.985851       -26.8264
  26   2.0000      -0.924008       -25.1435
  27   2.0000      -0.910557       -24.7775
  28   2.0000      -0.869013       -23.6470
  29   2.0000      -0.852439       -23.1960
  30   2.0000      -0.843894       -22.9635
  31   2.0000      -0.813716       -22.1423
  32   2.0000      -0.784410       -21.3449
  33   2.0000      -0.770119       -20.9560
  34   2.0000      -0.708372       -19.2758
  35   2.0000      -0.699968       -19.0471
  36   2.0000      -0.690051       -18.7772
  37   2.0000      -0.653895       -17.7934
  38   2.0000      -0.643791       -17.5185
  39   2.0000      -0.629313       -17.1245
  40   2.0000      -0.602921       -16.4063
  41   2.0000      -0.569496       -15.4968
  42   2.0000      -0.563243       -15.3266
  43   2.0000      -0.556263       -15.1367
  44   2.0000      -0.537577       -14.6282
  45   2.0000      -0.523220       -14.2375
  46   2.0000      -0.514535       -14.0012
  47   2.0000      -0.512931       -13.9576
  48   2.0000      -0.504595       -13.7307
  49   2.0000      -0.498464       -13.5639
  50   2.0000      -0.491949       -13.3866
  51   2.0000      -0.477272       -12.9872
  52   2.0000      -0.475563       -12.9407
  53   2.0000      -0.464065       -12.6279
  54   2.0000      -0.458308       -12.4712
  55   2.0000      -0.450136       -12.2488
  56   2.0000      -0.445271       -12.1164
  57   2.0000      -0.441900       -12.0247
  58   2.0000      -0.433232       -11.7888
  59   2.0000      -0.428535       -11.6610
  60   2.0000      -0.418523       -11.3886
  61   2.0000      -0.413911       -11.2631
  62   2.0000      -0.409915       -11.1543
  63   2.0000      -0.342445        -9.3184
  64   2.0000      -0.333936        -9.0869
  65   2.0000      -0.329522        -8.9667
  66   2.0000      -0.289526        -7.8784
  67   0.0000       0.025256         0.6872
  68   0.0000       0.067210         1.8289
  69   0.0000       0.116581         3.1723
  70   0.0000       0.123659         3.3649
  71   0.0000       0.126499         3.4422

MULLIKEN ATOMIC CHARGES
-----------------------
   0 S :    0.127003
   1 C :   -0.094172
   2 C :   -0.094967
   3 C :    0.038176
   4 C :   -0.168586
   5 H :    0.004164
   6 C :    0.081556
   7 H :    0.055609
   8 H :   -0.003949
   9 C :   -0.102529
  10 H :    0.043565
  11 H :    0.026235
  12 C :   -0.073557
  13 H :    0.037293
  14 H :    0.048887
  15 H :    0.040673
  16 S :    0.105180
  17 C :   -0.100426
  18 C :   -0.055475
  19 C :    0.007052
  20 C :   -0.175440
  21 H :    0.022175
  22 C :    0.102359
  23 H :   -0.011526
  24 H :    0.020903
  25 C :   -0.102781
  26 H :    0.037136
  27 H :    0.042362
  28 C :   -0.057197
  29 H :    0.041735
  30 H :    0.035422
  31 H :    0.025845
  32 H :    0.026860
  33 H :    0.070417
Sum of atomic charges:    0.0000000

LOEWDIN ATOMIC CHARGES
----------------------
   0 S :    0.428888
   1 C :   -0.195603
   2 C :   -0.058279
   3 C :   -0.066370
   4 C :   -0.199356
   5 H :    0.029249
   6 C :   -0.048291
   7 H :    0.047044
   8 H :    0.027545
   9 C :   -0.055433
  10 H :    0.037494
  11 H :    0.019289
  12 C :   -0.067195
  13 H :    0.023941
  14 H :    0.030036
  15 H :    0.032482
  16 S :    0.399298
  17 C :   -0.198844
  18 C :   -0.079948
  19 C :   -0.051103
  20 C :   -0.193591
  21 H :    0.033694
  22 C :   -0.031399
  23 H :    0.019852
  24 H :    0.033250
  25 C :   -0.028945
  26 H :    0.024910
  27 H :    0.027476
  28 C :   -0.067945
  29 H :    0.030097
  30 H :    0.022928
  31 H :    0.019310
  32 H :    0.016001
  33 H :    0.039517

  Mayer bond orders larger than 0.100000
B(  0-S ,  1-C ) :   1.1412 B(  0-S ,  4-C ) :   1.1812 B(  1-C ,  2-C ) :   1.5827
B(  1-C ,  4-C ) :   0.1112 B(  1-C , 32-H ) :   0.9727 B(  2-C ,  3-C ) :   1.2680
B(  2-C ,  6-C ) :   1.0130 B(  3-C ,  4-C ) :   1.5437 B(  3-C ,  5-H ) :   0.9972
B(  4-C , 20-C ) :   1.0398 B(  6-C ,  7-H ) :   0.9273 B(  6-C ,  8-H ) :   0.9275
B(  6-C ,  9-C ) :   1.0887 B(  9-C , 10-H ) :   0.9483 B(  9-C , 11-H ) :   0.9432
B(  9-C , 12-C ) :   1.0780 B( 12-C , 13-H ) :   0.9735 B( 12-C , 14-H ) :   0.9718
B( 12-C , 15-H ) :   0.9725 B( 16-S , 17-C ) :   1.1658 B( 16-S , 20-C ) :   1.1460
B( 17-C , 18-C ) :   1.5738 B( 17-C , 20-C ) :   0.1115 B( 17-C , 33-H ) :   0.9648
B( 18-C , 19-C ) :   1.2740 B( 18-C , 21-H ) :   0.9850 B( 19-C , 20-C ) :   1.5371
B( 19-C , 22-C ) :   1.0633 B( 22-C , 23-H ) :   0.9254 B( 22-C , 24-H ) :   0.9274
B( 22-C , 25-C ) :   1.0564 B( 25-C , 26-H ) :   0.9601 B( 25-C , 27-H ) :   0.9583
B( 25-C , 28-C ) :   1.0734 B( 28-C , 29-H ) :   0.9764 B( 28-C , 30-H ) :   0.9769
B( 28-C , 31-H ) :   0.9753

Dispersion correction           -0.014315562
FINAL SINGLE POINT ENERGY     -1339.879475574203

DIPOLE MOMENT
-------------
                                X             Y             Z
Electronic contribution:      6.66671      21.34388      11.47618
Nuclear contribution   :     -6.75952     -21.77412     -11.90860
                        -----------------------------------------
Total Dipole Moment    :     -0.09281      -0.43024      -0.43243
                        -----------------------------------------
Magnitude (a.u.)       :      0.61702
Magnitude (Debye)      :      1.56835

Rotational constants in cm-1:     0.017044     0.009129     0.007569
Rotational constants in MHz :   510.974519   273.673944   226.908948

                             ****ORCA TERMINATED NORMALLY****
TOTAL RUN TIME: 0 days 0 hours 0 minutes 20 seconds 655 msec
