                         Program Version 4.2.1 -  RELEASE  -
|  1> ! wB97X-D3 SP def2-SVP
|  2> %pal
|  3> nprocs 24
|  4> end
|  5>
|  6> * xyz 0 1
|  7> S 	 -75.0053 	 7.67225 	 -109.981
|  8> C 	 -76.0739 	 8.29948 	 -108.768
|  9> C 	 -75.3967 	 8.52277 	 -107.535
| 10> C 	 -74.0013 	 8.34458 	 -107.756
| 11> C 	 -73.6224 	 7.88204 	 -108.973
| 12> H 	 -73.1831 	 8.38999 	 -107.099
| 13> C 	 -76.0433 	 8.99171 	 -106.22
| 14> H 	 -76.3832 	 8.14218 	 -105.619
| 15> H 	 -77.0172 	 9.41796 	 -106.459
| 16> C 	 -75.1858 	 9.93609 	 -105.266
| 17> H 	 -74.1455 	 9.58857 	 -105.06
| 18> H 	 -75.1211 	 10.9123 	 -105.798
| 19> C 	 -75.9086 	 10.2577 	 -103.919
| 20> H 	 -75.9812 	 9.41036 	 -103.175
| 21> H 	 -75.4668 	 11.1654 	 -103.43
| 22> H 	 -76.9155 	 10.6078 	 -103.975
| 23> S 	 -71.8867 	 5.6883 	 -109.084
| 24> C 	 -70.3899 	 5.93744 	 -109.898
| 25> C 	 -70.1864 	 7.25737 	 -110.278
| 26> C 	 -71.284 	 8.14369 	 -109.956
| 27> C 	 -72.3039 	 7.43197 	 -109.313
| 28> H 	 -69.248 	 7.652 	 -110.713
| 29> C 	 -71.1347 	 9.6724 	 -110.208
| 30> H 	 -71.9856 	 9.89042 	 -110.836
| 31> H 	 -70.2224 	 9.78486 	 -110.792
| 32> C 	 -71.12 	 10.5278 	 -108.915
| 33> H 	 -70.2797 	 10.0193 	 -108.306
| 34> H 	 -72.0915 	 10.5519 	 -108.459
| 35> C 	 -70.7621 	 12.0474 	 -108.977
| 36> H 	 -71.3958 	 12.6095 	 -109.615
| 37> H 	 -69.7809 	 12.2795 	 -109.307
| 38> H 	 -70.8701 	 12.5646 	 -108.026
| 39> H 	 -77.1158 	 8.26771 	 -108.905
| 40> H 	 -69.662 	 5.16052 	 -109.895
| 41> *
| 42>
| 43>                          ****END OF INPUT****

CARTESIAN COORDINATES (ANGSTROEM)
---------------------------------
  S    -75.005300    7.672250  -109.981000
  C    -76.073900    8.299480  -108.768000
  C    -75.396700    8.522770  -107.535000
  C    -74.001300    8.344580  -107.756000
  C    -73.622400    7.882040  -108.973000
  H    -73.183100    8.389990  -107.099000
  C    -76.043300    8.991710  -106.220000
  H    -76.383200    8.142180  -105.619000
  H    -77.017200    9.417960  -106.459000
  C    -75.185800    9.936090  -105.266000
  H    -74.145500    9.588570  -105.060000
  H    -75.121100   10.912300  -105.798000
  C    -75.908600   10.257700  -103.919000
  H    -75.981200    9.410360  -103.175000
  H    -75.466800   11.165400  -103.430000
  H    -76.915500   10.607800  -103.975000
  S    -71.886700    5.688300  -109.084000
  C    -70.389900    5.937440  -109.898000
  C    -70.186400    7.257370  -110.278000
  C    -71.284000    8.143690  -109.956000
  C    -72.303900    7.431970  -109.313000
  H    -69.248000    7.652000  -110.713000
  C    -71.134700    9.672400  -110.208000
  H    -71.985600    9.890420  -110.836000
  H    -70.222400    9.784860  -110.792000
  C    -71.120000   10.527800  -108.915000
  H    -70.279700   10.019300  -108.306000
  H    -72.091500   10.551900  -108.459000
  C    -70.762100   12.047400  -108.977000
  H    -71.395800   12.609500  -109.615000
  H    -69.780900   12.279500  -109.307000
  H    -70.870100   12.564600  -108.026000
  H    -77.115800    8.267710  -108.905000
  H    -69.662000    5.160520  -109.895000

 Total Charge           Charge          ....    0
 Multiplicity           Mult            ....    1
 Number of Electrons    NEL             ....  134
 Basis Dimension        Dim             ....  322

ORBITAL ENERGIES
----------------

  NO   OCC          E(Eh)            E(eV)
   0   2.0000     -88.966194     -2420.8932
   1   2.0000     -88.963790     -2420.8278
   2   2.0000     -10.325603      -280.9739
   3   2.0000     -10.316725      -280.7324
   4   2.0000     -10.315737      -280.7055
   5   2.0000     -10.313571      -280.6465
   6   2.0000     -10.309170      -280.5268
   7   2.0000     -10.308027      -280.4957
   8   2.0000     -10.302716      -280.3512
   9   2.0000     -10.300354      -280.2869
  10   2.0000     -10.296932      -280.1938
  11   2.0000     -10.296914      -280.1933
  12   2.0000     -10.294368      -280.1240
  13   2.0000     -10.286421      -279.9077
  14   2.0000     -10.283977      -279.8412
  15   2.0000     -10.272038      -279.5164
  16   2.0000      -8.080730      -219.8878
  17   2.0000      -8.079228      -219.8470
  18   2.0000      -6.039174      -164.3343
  19   2.0000      -6.037555      -164.2902
  20   2.0000      -6.035299      -164.2288
  21   2.0000      -6.033518      -164.1804
  22   2.0000      -6.031543      -164.1266
  23   2.0000      -6.030257      -164.0916
  24   2.0000      -1.005923       -27.3726
  25   2.0000      -0.980079       -26.6693
  26   2.0000      -0.901466       -24.5301
  27   2.0000      -0.899455       -24.4754
  28   2.0000      -0.868019       -23.6200
  29   2.0000      -0.848710       -23.0946
  30   2.0000      -0.846487       -23.0341
  31   2.0000      -0.810052       -22.0426
  32   2.0000      -0.787667       -21.4335
  33   2.0000      -0.770311       -20.9612
  34   2.0000      -0.709803       -19.3147
  35   2.0000      -0.701118       -19.0784
  36   2.0000      -0.687171       -18.6989
  37   2.0000      -0.661170       -17.9914
  38   2.0000      -0.650417       -17.6987
  39   2.0000      -0.613940       -16.7062
  40   2.0000      -0.591057       -16.0835
  41   2.0000      -0.569240       -15.4898
  42   2.0000      -0.561228       -15.2718
  43   2.0000      -0.554018       -15.0756
  44   2.0000      -0.521485       -14.1903
  45   2.0000      -0.517258       -14.0753
  46   2.0000      -0.512438       -13.9442
  47   2.0000      -0.505141       -13.7456
  48   2.0000      -0.502959       -13.6862
  49   2.0000      -0.498248       -13.5580
  50   2.0000      -0.490917       -13.3585
  51   2.0000      -0.481654       -13.1065
  52   2.0000      -0.470868       -12.8130
  53   2.0000      -0.464521       -12.6403
  54   2.0000      -0.457386       -12.4461
  55   2.0000      -0.451363       -12.2822
  56   2.0000      -0.446530       -12.1507
  57   2.0000      -0.433500       -11.7961
  58   2.0000      -0.431022       -11.7287
  59   2.0000      -0.428636       -11.6638
  60   2.0000      -0.422049       -11.4845
  61   2.0000      -0.420725       -11.4485
  62   2.0000      -0.410392       -11.1673
  63   2.0000      -0.336165        -9.1475
  64   2.0000      -0.329684        -8.9711
  65   2.0000      -0.315057        -8.5731
  66   2.0000      -0.309874        -8.4321
  67   0.0000       0.045741         1.2447
  68   0.0000       0.047912         1.3038
  69   0.0000       0.110068         2.9951
  70   0.0000       0.130133         3.5411
  71   0.0000       0.131351         3.5742

MULLIKEN ATOMIC CHARGES
-----------------------
   0 S :    0.124886
   1 C :   -0.117472
   2 C :   -0.058416
   3 C :    0.053398
   4 C :   -0.185153
   5 H :   -0.011906
   6 C :    0.072970
   7 H :    0.034888
   8 H :    0.014978
   9 C :   -0.093874
  10 H :    0.056317
  11 H :    0.043742
  12 C :   -0.081149
  13 H :    0.043685
  14 H :    0.036986
  15 H :    0.019191
  16 S :    0.117772
  17 C :   -0.080827
  18 C :   -0.040324
  19 C :   -0.046444
  20 C :   -0.219742
  21 H :    0.026820
  22 C :    0.131309
  23 H :    0.032185
  24 H :    0.014737
  25 C :   -0.105644
  26 H :    0.046966
  27 H :    0.045994
  28 C :   -0.022723
  29 H :    0.014101
  30 H :    0.014393
  31 H :    0.029396
  32 H :    0.036589
  33 H :    0.052369
Sum of atomic charges:   -0.0000000

LOEWDIN ATOMIC CHARGES
----------------------
   0 S :    0.429074
   1 C :   -0.196077
   2 C :   -0.057564
   3 C :   -0.058891
   4 C :   -0.217386
   5 H :    0.022977
   6 C :   -0.036650
   7 H :    0.033219
   8 H :    0.031105
   9 C :   -0.041419
  10 H :    0.031128
  11 H :    0.031103
  12 C :   -0.080470
  13 H :    0.029521
  14 H :    0.033854
  15 H :    0.019635
  16 S :    0.399660
  17 C :   -0.184921
  18 C :   -0.079558
  19 C :   -0.041212
  20 C :   -0.196002
  21 H :    0.033469
  22 C :   -0.024402
  23 H :    0.032290
  24 H :    0.028317
  25 C :   -0.040719
  26 H :    0.036417
  27 H :    0.026725
  28 C :   -0.066569
  29 H :    0.018845
  30 H :    0.016342
  31 H :    0.030223
  32 H :    0.015779
  33 H :    0.022155

  Mayer bond orders larger than 0.100000
B(  0-S ,  1-C ) :   1.1740 B(  0-S ,  4-C ) :   1.1505 B(  1-C ,  2-C ) :   1.5671
B(  1-C , 32-H ) :   0.9753 B(  2-C ,  3-C ) :   1.2455 B(  2-C ,  6-C ) :   1.0183
B(  3-C ,  4-C ) :   1.5944 B(  3-C ,  5-H ) :   0.9933 B(  4-C , 20-C ) :   1.0477
B(  6-C ,  7-H ) :   0.9363 B(  6-C ,  8-H ) :   0.9411 B(  6-C ,  9-C ) :   1.0514
B(  9-C , 10-H ) :   0.9556 B(  9-C , 11-H ) :   0.9602 B(  9-C , 12-C ) :   1.0748
B( 12-C , 13-H ) :   0.9764 B( 12-C , 14-H ) :   0.9745 B( 12-C , 15-H ) :   0.9739
B( 16-S , 17-C ) :   1.1676 B( 16-S , 20-C ) :   1.1348 B( 17-C , 18-C ) :   1.5948
B( 17-C , 33-H ) :   0.9692 B( 18-C , 19-C ) :   1.2552 B( 18-C , 21-H ) :   0.9793
B( 19-C , 20-C ) :   1.6006 B( 19-C , 22-C ) :   1.0295 B( 22-C , 23-H ) :   0.9195
B( 22-C , 24-H ) :   0.9366 B( 22-C , 25-C ) :   1.0629 B( 25-C , 26-H ) :   0.9595
B( 25-C , 27-H ) :   0.9524 B( 25-C , 28-C ) :   1.0833 B( 28-C , 29-H ) :   0.9722
B( 28-C , 30-H ) :   0.9753 B( 28-C , 31-H ) :   0.9744

Dispersion correction           -0.014158428
FINAL SINGLE POINT ENERGY     -1339.870318580075

DIPOLE MOMENT
-------------
                                X             Y             Z
Electronic contribution:     -0.51627     -24.46144     -16.97625
Nuclear contribution   :      0.59414      24.89541      17.33246
                        -----------------------------------------
Total Dipole Moment    :      0.07786       0.43396       0.35621
                        -----------------------------------------
Magnitude (a.u.)       :      0.56681
Magnitude (Debye)      :      1.44072

Rotational constants in cm-1:     0.016442     0.008601     0.006996
Rotational constants in MHz :   492.913711   257.854893   209.719883

                             ****ORCA TERMINATED NORMALLY****
TOTAL RUN TIME: 0 days 0 hours 0 minutes 21 seconds 90 msec
