                         Program Version 4.2.1 -  RELEASE  -
|  1> ! wB97X-D3 SP def2-SVP
|  2> %pal
|  3> nprocs 24
|  4> end
|  5>
|  6> * xyz 0 1
|  7> S 	 -63.9843 	 8.53165 	 18.5788
|  8> C 	 -62.2772 	 9.03404 	 18.6751
|  9> C 	 -61.7841 	 8.80782 	 19.9419
| 10> C 	 -62.776 	 8.42625 	 20.8444
| 11> C 	 -64.0055 	 8.21424 	 20.2924
| 12> H 	 -62.7167 	 8.32086 	 21.8883
| 13> C 	 -60.3546 	 9.26583 	 20.4002
| 14> H 	 -59.8111 	 8.339 	 20.5904
| 15> H 	 -60.4016 	 9.76899 	 21.3769
| 16> C 	 -59.5182 	 10.0583 	 19.3944
| 17> H 	 -59.4074 	 9.53822 	 18.4286
| 18> H 	 -59.9549 	 11.0106 	 19.2481
| 19> C 	 -58.1096 	 10.4437 	 19.8143
| 20> H 	 -57.6976 	 11.2323 	 19.2129
| 21> H 	 -58.0179 	 10.84 	 20.8766
| 22> H 	 -57.4504 	 9.60775 	 19.6097
| 23> S 	 -65.9883 	 8.64308 	 22.1379
| 24> C 	 -67.2234 	 7.46211 	 22.446
| 25> C 	 -66.9451 	 6.33711 	 21.7065
| 26> C 	 -65.8689 	 6.45176 	 20.8079
| 27> C 	 -65.1932 	 7.69149 	 20.9487
| 28> H 	 -67.6327 	 5.49909 	 21.8018
| 29> C 	 -65.3753 	 5.37781 	 19.8026
| 30> H 	 -64.317 	 5.41491 	 19.6773
| 31> H 	 -65.769 	 5.62453 	 18.8018
| 32> C 	 -65.6628 	 3.95778 	 20.1522
| 33> H 	 -66.4747 	 3.86718 	 20.8575
| 34> H 	 -64.8844 	 3.72664 	 20.9282
| 35> C 	 -65.6114 	 2.91594 	 19.0612
| 36> H 	 -66.5791 	 2.99612 	 18.4512
| 37> H 	 -65.5848 	 1.9085 	 19.4639
| 38> H 	 -64.6812 	 3.05137 	 18.4585
| 39> H 	 -61.7125 	 9.49604 	 17.8426
| 40> H 	 -68.0087 	 7.63671 	 23.1636
| 41> *
| 42>
| 43>                          ****END OF INPUT****

CARTESIAN COORDINATES (ANGSTROEM)
---------------------------------
  S    -63.984300    8.531650   18.578800
  C    -62.277200    9.034040   18.675100
  C    -61.784100    8.807820   19.941900
  C    -62.776000    8.426250   20.844400
  C    -64.005500    8.214240   20.292400
  H    -62.716700    8.320860   21.888300
  C    -60.354600    9.265830   20.400200
  H    -59.811100    8.339000   20.590400
  H    -60.401600    9.768990   21.376900
  C    -59.518200   10.058300   19.394400
  H    -59.407400    9.538220   18.428600
  H    -59.954900   11.010600   19.248100
  C    -58.109600   10.443700   19.814300
  H    -57.697600   11.232300   19.212900
  H    -58.017900   10.840000   20.876600
  H    -57.450400    9.607750   19.609700
  S    -65.988300    8.643080   22.137900
  C    -67.223400    7.462110   22.446000
  C    -66.945100    6.337110   21.706500
  C    -65.868900    6.451760   20.807900
  C    -65.193200    7.691490   20.948700
  H    -67.632700    5.499090   21.801800
  C    -65.375300    5.377810   19.802600
  H    -64.317000    5.414910   19.677300
  H    -65.769000    5.624530   18.801800
  C    -65.662800    3.957780   20.152200
  H    -66.474700    3.867180   20.857500
  H    -64.884400    3.726640   20.928200
  C    -65.611400    2.915940   19.061200
  H    -66.579100    2.996120   18.451200
  H    -65.584800    1.908500   19.463900
  H    -64.681200    3.051370   18.458500
  H    -61.712500    9.496040   17.842600
  H    -68.008700    7.636710   23.163600

 Total Charge           Charge          ....    0
 Multiplicity           Mult            ....    1
 Number of Electrons    NEL             ....  134
 Basis Dimension        Dim             ....  322

ORBITAL ENERGIES
----------------

  NO   OCC          E(Eh)            E(eV)
   0   2.0000     -88.965385     -2420.8712
   1   2.0000     -88.963906     -2420.8310
   2   2.0000     -10.325578      -280.9733
   3   2.0000     -10.323930      -280.9284
   4   2.0000     -10.317679      -280.7583
   5   2.0000     -10.315628      -280.7025
   6   2.0000     -10.305870      -280.4370
   7   2.0000     -10.302539      -280.3463
   8   2.0000     -10.298115      -280.2259
   9   2.0000     -10.293579      -280.1025
  10   2.0000     -10.286969      -279.9226
  11   2.0000     -10.286242      -279.9029
  12   2.0000     -10.285690      -279.8878
  13   2.0000     -10.285678      -279.8875
  14   2.0000     -10.280786      -279.7544
  15   2.0000     -10.278461      -279.6911
  16   2.0000      -8.079583      -219.8566
  17   2.0000      -8.079387      -219.8513
  18   2.0000      -6.038083      -164.3046
  19   2.0000      -6.037655      -164.2929
  20   2.0000      -6.034174      -164.1982
  21   2.0000      -6.033532      -164.1807
  22   2.0000      -6.030618      -164.1015
  23   2.0000      -6.030379      -164.0950
  24   2.0000      -1.009708       -27.4756
  25   2.0000      -0.987540       -26.8723
  26   2.0000      -0.911463       -24.8022
  27   2.0000      -0.910964       -24.7886
  28   2.0000      -0.871553       -23.7162
  29   2.0000      -0.852289       -23.1920
  30   2.0000      -0.845971       -23.0201
  31   2.0000      -0.815932       -22.2026
  32   2.0000      -0.784655       -21.3516
  33   2.0000      -0.772369       -21.0172
  34   2.0000      -0.708363       -19.2755
  35   2.0000      -0.698540       -19.0082
  36   2.0000      -0.694178       -18.8895
  37   2.0000      -0.652344       -17.7512
  38   2.0000      -0.640618       -17.4321
  39   2.0000      -0.615957       -16.7611
  40   2.0000      -0.604041       -16.4368
  41   2.0000      -0.578454       -15.7405
  42   2.0000      -0.568621       -15.4730
  43   2.0000      -0.557215       -15.1626
  44   2.0000      -0.530754       -14.4426
  45   2.0000      -0.519531       -14.1372
  46   2.0000      -0.516204       -14.0466
  47   2.0000      -0.513120       -13.9627
  48   2.0000      -0.508264       -13.8306
  49   2.0000      -0.499651       -13.5962
  50   2.0000      -0.493357       -13.4249
  51   2.0000      -0.480061       -13.0631
  52   2.0000      -0.476483       -12.9658
  53   2.0000      -0.465751       -12.6737
  54   2.0000      -0.463690       -12.6176
  55   2.0000      -0.450303       -12.2534
  56   2.0000      -0.446456       -12.1487
  57   2.0000      -0.433734       -11.8025
  58   2.0000      -0.431590       -11.7442
  59   2.0000      -0.428201       -11.6519
  60   2.0000      -0.418553       -11.3894
  61   2.0000      -0.411731       -11.2038
  62   2.0000      -0.396345       -10.7851
  63   2.0000      -0.340805        -9.2738
  64   2.0000      -0.335545        -9.1307
  65   2.0000      -0.327029        -8.8989
  66   2.0000      -0.298037        -8.1100
  67   0.0000       0.039199         1.0667
  68   0.0000       0.062464         1.6997
  69   0.0000       0.118499         3.2245
  70   0.0000       0.124702         3.3933
  71   0.0000       0.138183         3.7602

MULLIKEN ATOMIC CHARGES
-----------------------
   0 S :    0.113955
   1 C :   -0.152687
   2 C :   -0.046417
   3 C :    0.043065
   4 C :   -0.170213
   5 H :   -0.009767
   6 C :    0.074586
   7 H :    0.029642
   8 H :    0.034809
   9 C :   -0.099481
  10 H :    0.038430
  11 H :    0.026573
  12 C :   -0.053522
  13 H :    0.025272
  14 H :    0.039785
  15 H :    0.028875
  16 S :    0.115789
  17 C :   -0.102171
  18 C :   -0.055274
  19 C :   -0.018556
  20 C :   -0.179343
  21 H :    0.025979
  22 C :    0.121371
  23 H :    0.026258
  24 H :    0.031094
  25 C :   -0.121907
  26 H :    0.008304
  27 H :    0.018262
  28 C :   -0.040602
  29 H :    0.047049
  30 H :    0.034033
  31 H :    0.041838
  32 H :    0.064936
  33 H :    0.060032
Sum of atomic charges:   -0.0000000

LOEWDIN ATOMIC CHARGES
----------------------
   0 S :    0.399618
   1 C :   -0.191917
   2 C :   -0.063891
   3 C :   -0.058023
   4 C :   -0.194352
   5 H :    0.025732
   6 C :   -0.027152
   7 H :    0.032672
   8 H :    0.033274
   9 C :   -0.048713
  10 H :    0.028653
  11 H :    0.019885
  12 C :   -0.066140
  13 H :    0.024558
  14 H :    0.031995
  15 H :    0.022295
  16 S :    0.434706
  17 C :   -0.191417
  18 C :   -0.079257
  19 C :   -0.053054
  20 C :   -0.216466
  21 H :    0.032668
  22 C :   -0.031438
  23 H :    0.028373
  24 H :    0.030539
  25 C :   -0.061919
  26 H :    0.016531
  27 H :    0.029354
  28 C :   -0.065793
  29 H :    0.034750
  30 H :    0.027190
  31 H :    0.031721
  32 H :    0.035213
  33 H :    0.029807

  Mayer bond orders larger than 0.100000
B(  0-S ,  1-C ) :   1.1323 B(  0-S ,  4-C ) :   1.1462 B(  1-C ,  2-C ) :   1.6255
B(  1-C ,  4-C ) :   0.1003 B(  1-C , 32-H ) :   0.9563 B(  2-C ,  3-C ) :   1.2371
B(  2-C ,  6-C ) :   0.9957 B(  3-C ,  4-C ) :   1.6022 B(  3-C ,  5-H ) :   1.0059
B(  4-C , 20-C ) :   1.0037 B(  6-C ,  7-H ) :   0.9306 B(  6-C ,  8-H ) :   0.9494
B(  6-C ,  9-C ) :   1.0836 B(  9-C , 10-H ) :   0.9475 B(  9-C , 11-H ) :   0.9548
B(  9-C , 12-C ) :   1.0896 B( 12-C , 13-H ) :   0.9728 B( 12-C , 14-H ) :   0.9728
B( 12-C , 15-H ) :   0.9761 B( 16-S , 17-C ) :   1.1774 B( 16-S , 20-C ) :   1.1859
B( 17-C , 18-C ) :   1.5581 B( 17-C , 20-C ) :   0.1124 B( 17-C , 33-H ) :   0.9724
B( 18-C , 19-C ) :   1.2900 B( 18-C , 21-H ) :   0.9877 B( 19-C , 20-C ) :   1.5360
B( 19-C , 22-C ) :   1.0239 B( 22-C , 23-H ) :   0.9320 B( 22-C , 24-H ) :   0.9357
B( 22-C , 25-C ) :   1.0483 B( 25-C , 26-H ) :   0.9582 B( 25-C , 27-H ) :   0.9492
B( 25-C , 28-C ) :   1.0835 B( 28-C , 29-H ) :   0.9735 B( 28-C , 30-H ) :   0.9714
B( 28-C , 31-H ) :   0.9723

Dispersion correction           -0.013454539
FINAL SINGLE POINT ENERGY     -1339.880018174286

DIPOLE MOMENT
-------------
                                X             Y             Z
Electronic contribution:    -17.84474      10.31654       4.54748
Nuclear contribution   :     18.22397     -10.49847      -4.43597
                        -----------------------------------------
Total Dipole Moment    :      0.37923      -0.18192       0.11151
                        -----------------------------------------
Magnitude (a.u.)       :      0.43514
Magnitude (Debye)      :      1.10603

Rotational constants in cm-1:     0.021273     0.006842     0.005810
Rotational constants in MHz :   637.748011   205.131777   174.175837

                             ****ORCA TERMINATED NORMALLY****
TOTAL RUN TIME: 0 days 0 hours 0 minutes 20 seconds 655 msec
