                         Program Version 4.2.1 -  RELEASE  -
|  1> ! wB97X-D3 SP def2-SVP
|  2> %pal
|  3> nprocs 24
|  4> end
|  5>
|  6> * xyz 0 1
|  7> S 	 -98.9507 	 3.18859 	 -121.084
|  8> C 	 -99.85 	 2.99391 	 -122.546
|  9> C 	 -101.18 	 2.63705 	 -122.28
| 10> C 	 -101.36 	 2.46603 	 -120.833
| 11> C 	 -100.232 	 2.738 	 -120.046
| 12> H 	 -102.236 	 2.09365 	 -120.353
| 13> C 	 -102.261 	 2.23787 	 -123.225
| 14> H 	 -102.083 	 2.6844 	 -124.135
| 15> H 	 -103.123 	 2.65356 	 -122.772
| 16> C 	 -102.534 	 0.732117 	 -123.421
| 17> H 	 -101.596 	 0.224833 	 -123.67
| 18> H 	 -102.769 	 0.475615 	 -122.41
| 19> C 	 -103.653 	 0.431649 	 -124.373
| 20> H 	 -104.556 	 1.03356 	 -124.181
| 21> H 	 -103.283 	 0.656978 	 -125.35
| 22> H 	 -103.846 	 -0.608462 	 -124.334
| 23> S 	 -99.5977 	 4.18953 	 -117.822
| 24> C 	 -99.8953 	 3.48451 	 -116.216
| 25> C 	 -100.15 	 2.13054 	 -116.361
| 26> C 	 -100.34 	 1.67591 	 -117.706
| 27> C 	 -100.014 	 2.65653 	 -118.584
| 28> H 	 -100.204 	 1.53786 	 -115.465
| 29> C 	 -100.675 	 0.229965 	 -117.979
| 30> H 	 -101.4 	 0.0697523 	 -118.766
| 31> H 	 -101.388 	 0.00973344 	 -117.186
| 32> C 	 -99.4247 	 -0.738354 	 -118.032
| 33> H 	 -98.8833 	 -0.705397 	 -117.078
| 34> H 	 -98.8349 	 -0.396545 	 -118.824
| 35> C 	 -99.8713 	 -2.03355 	 -118.62
| 36> H 	 -100.493 	 -2.49218 	 -117.912
| 37> H 	 -99.0594 	 -2.72438 	 -118.693
| 38> H 	 -100.572 	 -1.88026 	 -119.374
| 39> H 	 -99.3615 	 3.15917 	 -123.461
| 40> H 	 -99.7822 	 3.93516 	 -115.258
| 41> *
| 42>
| 43>                          ****END OF INPUT****

CARTESIAN COORDINATES (ANGSTROEM)
---------------------------------
  S    -98.950700    3.188590  -121.084000
  C    -99.850000    2.993910  -122.546000
  C    -101.180000    2.637050  -122.280000
  C    -101.360000    2.466030  -120.833000
  C    -100.232000    2.738000  -120.046000
  H    -102.236000    2.093650  -120.353000
  C    -102.261000    2.237870  -123.225000
  H    -102.083000    2.684400  -124.135000
  H    -103.123000    2.653560  -122.772000
  C    -102.534000    0.732117  -123.421000
  H    -101.596000    0.224833  -123.670000
  H    -102.769000    0.475615  -122.410000
  C    -103.653000    0.431649  -124.373000
  H    -104.556000    1.033560  -124.181000
  H    -103.283000    0.656978  -125.350000
  H    -103.846000   -0.608462  -124.334000
  S    -99.597700    4.189530  -117.822000
  C    -99.895300    3.484510  -116.216000
  C    -100.150000    2.130540  -116.361000
  C    -100.340000    1.675910  -117.706000
  C    -100.014000    2.656530  -118.584000
  H    -100.204000    1.537860  -115.465000
  C    -100.675000    0.229965  -117.979000
  H    -101.400000    0.069752  -118.766000
  H    -101.388000    0.009733  -117.186000
  C    -99.424700   -0.738354  -118.032000
  H    -98.883300   -0.705397  -117.078000
  H    -98.834900   -0.396545  -118.824000
  C    -99.871300   -2.033550  -118.620000
  H    -100.493000   -2.492180  -117.912000
  H    -99.059400   -2.724380  -118.693000
  H    -100.572000   -1.880260  -119.374000
  H    -99.361500    3.159170  -123.461000
  H    -99.782200    3.935160  -115.258000

 Total Charge           Charge          ....    0
 Multiplicity           Mult            ....    1
 Number of Electrons    NEL             ....  134
 Basis Dimension        Dim             ....  322

ORBITAL ENERGIES
----------------

  NO   OCC          E(Eh)            E(eV)
   0   2.0000     -88.964758     -2420.8541
   1   2.0000     -88.960666     -2420.7428
   2   2.0000     -10.327098      -281.0146
   3   2.0000     -10.325888      -280.9817
   4   2.0000     -10.317828      -280.7624
   5   2.0000     -10.311178      -280.5814
   6   2.0000     -10.304974      -280.4126
   7   2.0000     -10.300993      -280.3043
   8   2.0000     -10.293710      -280.1061
   9   2.0000     -10.292782      -280.0808
  10   2.0000     -10.291847      -280.0554
  11   2.0000     -10.282652      -279.8052
  12   2.0000     -10.281728      -279.7800
  13   2.0000     -10.278618      -279.6954
  14   2.0000     -10.275231      -279.6033
  15   2.0000     -10.263039      -279.2715
  16   2.0000      -8.078922      -219.8387
  17   2.0000      -8.076709      -219.7784
  18   2.0000      -6.037635      -164.2924
  19   2.0000      -6.035093      -164.2232
  20   2.0000      -6.033512      -164.1802
  21   2.0000      -6.030828      -164.1072
  22   2.0000      -6.029493      -164.0708
  23   2.0000      -6.027739      -164.0231
  24   2.0000      -1.005666       -27.3656
  25   2.0000      -0.983043       -26.7500
  26   2.0000      -0.919086       -25.0096
  27   2.0000      -0.913402       -24.8549
  28   2.0000      -0.869011       -23.6470
  29   2.0000      -0.858714       -23.3668
  30   2.0000      -0.848107       -23.0782
  31   2.0000      -0.814048       -22.1514
  32   2.0000      -0.784223       -21.3398
  33   2.0000      -0.775461       -21.1014
  34   2.0000      -0.711514       -19.3613
  35   2.0000      -0.705055       -19.1855
  36   2.0000      -0.694365       -18.8946
  37   2.0000      -0.663828       -18.0637
  38   2.0000      -0.648835       -17.6557
  39   2.0000      -0.620438       -16.8830
  40   2.0000      -0.598997       -16.2995
  41   2.0000      -0.575409       -15.6577
  42   2.0000      -0.567103       -15.4316
  43   2.0000      -0.561928       -15.2908
  44   2.0000      -0.542802       -14.7704
  45   2.0000      -0.528697       -14.3866
  46   2.0000      -0.519814       -14.1449
  47   2.0000      -0.514210       -13.9924
  48   2.0000      -0.509907       -13.8753
  49   2.0000      -0.502573       -13.6757
  50   2.0000      -0.493813       -13.4373
  51   2.0000      -0.482065       -13.1177
  52   2.0000      -0.468986       -12.7618
  53   2.0000      -0.465997       -12.6804
  54   2.0000      -0.459637       -12.5074
  55   2.0000      -0.449973       -12.2444
  56   2.0000      -0.439922       -11.9709
  57   2.0000      -0.439554       -11.9609
  58   2.0000      -0.435734       -11.8569
  59   2.0000      -0.425330       -11.5738
  60   2.0000      -0.420647       -11.4464
  61   2.0000      -0.417359       -11.3569
  62   2.0000      -0.408704       -11.1214
  63   2.0000      -0.343133        -9.3371
  64   2.0000      -0.329736        -8.9726
  65   2.0000      -0.323522        -8.8035
  66   2.0000      -0.296850        -8.0777
  67   0.0000       0.038668         1.0522
  68   0.0000       0.067538         1.8378
  69   0.0000       0.114242         3.1087
  70   0.0000       0.118262         3.2181
  71   0.0000       0.127998         3.4830

MULLIKEN ATOMIC CHARGES
-----------------------
   0 S :    0.102143
   1 C :   -0.114832
   2 C :   -0.087731
   3 C :    0.021855
   4 C :   -0.160152
   5 H :   -0.000340
   6 C :    0.107657
   7 H :   -0.007607
   8 H :    0.012527
   9 C :   -0.070036
  10 H :    0.029214
  11 H :    0.003748
  12 C :    0.003646
  13 H :    0.033340
  14 H :    0.021402
  15 H :    0.031653
  16 S :    0.102339
  17 C :   -0.080945
  18 C :   -0.043916
  19 C :   -0.031655
  20 C :   -0.131896
  21 H :    0.014126
  22 C :    0.043507
  23 H :    0.002830
  24 H :    0.010036
  25 C :   -0.030935
  26 H :    0.038739
  27 H :    0.025671
  28 C :    0.040792
  29 H :   -0.012926
  30 H :    0.031424
  31 H :    0.013470
  32 H :    0.035002
  33 H :    0.047847
Sum of atomic charges:    0.0000000

LOEWDIN ATOMIC CHARGES
----------------------
   0 S :    0.431081
   1 C :   -0.198678
   2 C :   -0.054776
   3 C :   -0.066407
   4 C :   -0.210239
   5 H :    0.021382
   6 C :   -0.026094
   7 H :    0.014522
   8 H :    0.028851
   9 C :   -0.033977
  10 H :    0.025330
  11 H :    0.014990
  12 C :   -0.055486
  13 H :    0.030084
  14 H :    0.023501
  15 H :    0.025383
  16 S :    0.389811
  17 C :   -0.172935
  18 C :   -0.065399
  19 C :   -0.059397
  20 C :   -0.192702
  21 H :    0.027898
  22 C :   -0.035322
  23 H :    0.026706
  24 H :    0.030467
  25 C :   -0.024389
  26 H :    0.029033
  27 H :    0.022786
  28 C :   -0.056453
  29 H :    0.016962
  30 H :    0.027339
  31 H :    0.022620
  32 H :    0.016901
  33 H :    0.026607

  Mayer bond orders larger than 0.100000
B(  0-S ,  1-C ) :   1.1594 B(  0-S ,  4-C ) :   1.1774 B(  1-C ,  2-C ) :   1.5653
B(  1-C , 32-H ) :   0.9842 B(  2-C ,  3-C ) :   1.2380 B(  2-C ,  6-C ) :   1.0430
B(  3-C ,  4-C ) :   1.5744 B(  3-C ,  5-H ) :   0.9967 B(  4-C , 20-C ) :   0.9805
B(  6-C ,  7-H ) :   0.9351 B(  6-C ,  8-H ) :   0.9277 B(  6-C ,  9-C ) :   1.0619
B(  9-C , 10-H ) :   0.9547 B(  9-C , 11-H ) :   0.9526 B(  9-C , 12-C ) :   1.0876
B( 12-C , 13-H ) :   0.9720 B( 12-C , 14-H ) :   0.9729 B( 12-C , 15-H ) :   0.9711
B( 16-S , 17-C ) :   1.1351 B( 16-S , 20-C ) :   1.1346 B( 17-C , 18-C ) :   1.6409
B( 17-C , 33-H ) :   0.9709 B( 18-C , 19-C ) :   1.2110 B( 18-C , 21-H ) :   0.9873
B( 19-C , 20-C ) :   1.6418 B( 19-C , 22-C ) :   1.0454 B( 22-C , 23-H ) :   0.9341
B( 22-C , 24-H ) :   0.9206 B( 22-C , 25-C ) :   1.0475 B( 25-C , 26-H ) :   0.9561
B( 25-C , 27-H ) :   0.9583 B( 25-C , 28-C ) :   1.0827 B( 28-C , 29-H ) :   0.9625
B( 28-C , 30-H ) :   0.9687 B( 28-C , 31-H ) :   0.9662

Dispersion correction           -0.013787124
FINAL SINGLE POINT ENERGY     -1339.856160533617

DIPOLE MOMENT
-------------
                                X             Y             Z
Electronic contribution:     13.96222      24.45523      10.23488
Nuclear contribution   :    -14.36440     -25.11310     -10.23673
                        -----------------------------------------
Total Dipole Moment    :     -0.40218      -0.65787      -0.00185
                        -----------------------------------------
Magnitude (a.u.)       :      0.77107
Magnitude (Debye)      :      1.95989

Rotational constants in cm-1:     0.017743     0.008572     0.006715
Rotational constants in MHz :   531.926811   256.994579   201.318380

                             ****ORCA TERMINATED NORMALLY****
TOTAL RUN TIME: 0 days 0 hours 0 minutes 21 seconds 554 msec
