                         Program Version 4.2.1 -  RELEASE  -
|  1> ! wB97X-D3 SP def2-SVP
|  2> %pal
|  3> nprocs 24
|  4> end
|  5>
|  6> * xyz 0 1
|  7> S 	 -127.223 	 66.9849 	 -49.6314
|  8> C 	 -127.367 	 68.6773 	 -49.2732
|  9> C 	 -128.723 	 69.1285 	 -49.3937
| 10> C 	 -129.629 	 68.0799 	 -49.6987
| 11> C 	 -128.99 	 66.8339 	 -49.8582
| 12> H 	 -130.688 	 68.2043 	 -49.8599
| 13> C 	 -129.245 	 70.6162 	 -49.2265
| 14> H 	 -130.358 	 70.6211 	 -49.2238
| 15> H 	 -128.994 	 71.2845 	 -50.053
| 16> C 	 -128.907 	 71.2965 	 -47.8872
| 17> H 	 -129.134 	 70.7066 	 -46.9582
| 18> H 	 -127.838 	 71.2769 	 -47.7251
| 19> C 	 -129.382 	 72.7572 	 -47.7094
| 20> H 	 -128.873 	 73.4408 	 -48.4422
| 21> H 	 -130.483 	 72.765 	 -47.8335
| 22> H 	 -129.245 	 73.0363 	 -46.7086
| 23> S 	 -128.924 	 65.1137 	 -51.9101
| 24> C 	 -129.895 	 63.6762 	 -51.9027
| 25> C 	 -130.78 	 63.7283 	 -50.873
| 26> C 	 -130.61 	 64.7601 	 -49.9644
| 27> C 	 -129.586 	 65.601 	 -50.3716
| 28> H 	 -131.47 	 62.8866 	 -50.7701
| 29> C 	 -131.312 	 65.0972 	 -48.6415
| 30> H 	 -131.048 	 66.1328 	 -48.3422
| 31> H 	 -130.829 	 64.49 	 -47.8502
| 32> C 	 -132.785 	 64.8215 	 -48.5779
| 33> H 	 -132.984 	 63.8471 	 -49.0472
| 34> H 	 -133.235 	 65.5729 	 -49.2005
| 35> C 	 -133.285 	 64.7532 	 -47.1179
| 36> H 	 -133.116 	 65.6241 	 -46.5111
| 37> H 	 -132.842 	 63.8905 	 -46.6453
| 38> H 	 -134.36 	 64.5301 	 -47.0784
| 39> H 	 -126.564 	 69.3639 	 -49.0876
| 40> H 	 -129.776 	 62.8416 	 -52.5928
| 41> *
| 42>
| 43>                          ****END OF INPUT****

CARTESIAN COORDINATES (ANGSTROEM)
---------------------------------
  S    -127.223000   66.984900  -49.631400
  C    -127.367000   68.677300  -49.273200
  C    -128.723000   69.128500  -49.393700
  C    -129.629000   68.079900  -49.698700
  C    -128.990000   66.833900  -49.858200
  H    -130.688000   68.204300  -49.859900
  C    -129.245000   70.616200  -49.226500
  H    -130.358000   70.621100  -49.223800
  H    -128.994000   71.284500  -50.053000
  C    -128.907000   71.296500  -47.887200
  H    -129.134000   70.706600  -46.958200
  H    -127.838000   71.276900  -47.725100
  C    -129.382000   72.757200  -47.709400
  H    -128.873000   73.440800  -48.442200
  H    -130.483000   72.765000  -47.833500
  H    -129.245000   73.036300  -46.708600
  S    -128.924000   65.113700  -51.910100
  C    -129.895000   63.676200  -51.902700
  C    -130.780000   63.728300  -50.873000
  C    -130.610000   64.760100  -49.964400
  C    -129.586000   65.601000  -50.371600
  H    -131.470000   62.886600  -50.770100
  C    -131.312000   65.097200  -48.641500
  H    -131.048000   66.132800  -48.342200
  H    -130.829000   64.490000  -47.850200
  C    -132.785000   64.821500  -48.577900
  H    -132.984000   63.847100  -49.047200
  H    -133.235000   65.572900  -49.200500
  C    -133.285000   64.753200  -47.117900
  H    -133.116000   65.624100  -46.511100
  H    -132.842000   63.890500  -46.645300
  H    -134.360000   64.530100  -47.078400
  H    -126.564000   69.363900  -49.087600
  H    -129.776000   62.841600  -52.592800

 Total Charge           Charge          ....    0
 Multiplicity           Mult            ....    1
 Number of Electrons    NEL             ....  134
 Basis Dimension        Dim             ....  322

ORBITAL ENERGIES
----------------

  NO   OCC          E(Eh)            E(eV)
   0   2.0000     -88.973818     -2421.1007
   1   2.0000     -88.961014     -2420.7522
   2   2.0000     -10.333846      -281.1982
   3   2.0000     -10.320948      -280.8473
   4   2.0000     -10.319845      -280.8172
   5   2.0000     -10.312535      -280.6183
   6   2.0000     -10.311084      -280.5789
   7   2.0000     -10.301932      -280.3298
   8   2.0000     -10.299571      -280.2656
   9   2.0000     -10.298516      -280.2369
  10   2.0000     -10.290039      -280.0062
  11   2.0000     -10.289474      -279.9908
  12   2.0000     -10.287277      -279.9310
  13   2.0000     -10.284280      -279.8495
  14   2.0000     -10.282170      -279.7921
  15   2.0000     -10.277577      -279.6671
  16   2.0000      -8.087541      -220.0732
  17   2.0000      -8.076427      -219.7707
  18   2.0000      -6.045995      -164.5199
  19   2.0000      -6.042082      -164.4134
  20   2.0000      -6.038521      -164.3165
  21   2.0000      -6.034721      -164.2131
  22   2.0000      -6.030802      -164.1065
  23   2.0000      -6.027395      -164.0137
  24   2.0000      -1.008322       -27.4378
  25   2.0000      -0.981152       -26.6985
  26   2.0000      -0.911337       -24.7987
  27   2.0000      -0.902358       -24.5544
  28   2.0000      -0.867801       -23.6141
  29   2.0000      -0.853229       -23.2175
  30   2.0000      -0.847850       -23.0712
  31   2.0000      -0.810216       -22.0471
  32   2.0000      -0.781648       -21.2697
  33   2.0000      -0.770371       -20.9629
  34   2.0000      -0.703760       -19.1503
  35   2.0000      -0.703291       -19.1375
  36   2.0000      -0.694574       -18.9003
  37   2.0000      -0.654274       -17.8037
  38   2.0000      -0.641851       -17.4656
  39   2.0000      -0.618004       -16.8167
  40   2.0000      -0.599459       -16.3121
  41   2.0000      -0.568637       -15.4734
  42   2.0000      -0.564116       -15.3504
  43   2.0000      -0.554164       -15.0796
  44   2.0000      -0.528177       -14.3724
  45   2.0000      -0.524527       -14.2731
  46   2.0000      -0.512536       -13.9468
  47   2.0000      -0.510634       -13.8951
  48   2.0000      -0.500050       -13.6071
  49   2.0000      -0.494204       -13.4480
  50   2.0000      -0.489589       -13.3224
  51   2.0000      -0.483404       -13.1541
  52   2.0000      -0.478274       -13.0145
  53   2.0000      -0.466190       -12.6857
  54   2.0000      -0.460873       -12.5410
  55   2.0000      -0.446454       -12.1486
  56   2.0000      -0.445699       -12.1281
  57   2.0000      -0.438536       -11.9332
  58   2.0000      -0.433954       -11.8085
  59   2.0000      -0.426096       -11.5947
  60   2.0000      -0.424035       -11.5386
  61   2.0000      -0.416259       -11.3270
  62   2.0000      -0.403899       -10.9906
  63   2.0000      -0.345276        -9.3954
  64   2.0000      -0.332087        -9.0365
  65   2.0000      -0.328272        -8.9327
  66   2.0000      -0.291488        -7.9318
  67   0.0000       0.028006         0.7621
  68   0.0000       0.063649         1.7320
  69   0.0000       0.116164         3.1610
  70   0.0000       0.126813         3.4508
  71   0.0000       0.128843         3.5060

MULLIKEN ATOMIC CHARGES
-----------------------
   0 S :    0.134793
   1 C :   -0.112230
   2 C :   -0.085118
   3 C :    0.057604
   4 C :   -0.186842
   5 H :    0.020747
   6 C :    0.066322
   7 H :    0.020535
   8 H :    0.041751
   9 C :   -0.122133
  10 H :    0.029327
  11 H :    0.012180
  12 C :   -0.034930
  13 H :    0.047321
  14 H :    0.029092
  15 H :    0.025277
  16 S :    0.107733
  17 C :   -0.097122
  18 C :   -0.066495
  19 C :    0.023445
  20 C :   -0.192768
  21 H :    0.017326
  22 C :    0.067521
  23 H :    0.027025
  24 H :    0.027354
  25 C :   -0.075502
  26 H :    0.028499
  27 H :    0.028256
  28 C :   -0.038852
  29 H :    0.034988
  30 H :    0.025975
  31 H :    0.030862
  32 H :    0.048870
  33 H :    0.059190
Sum of atomic charges:    0.0000000

LOEWDIN ATOMIC CHARGES
----------------------
   0 S :    0.417739
   1 C :   -0.205111
   2 C :   -0.058868
   3 C :   -0.055438
   4 C :   -0.195301
   5 H :    0.033458
   6 C :   -0.031972
   7 H :    0.030148
   8 H :    0.032293
   9 C :   -0.057435
  10 H :    0.030234
  11 H :    0.015079
  12 C :   -0.062540
  13 H :    0.031922
  14 H :    0.026209
  15 H :    0.021010
  16 S :    0.414959
  17 C :   -0.190144
  18 C :   -0.080017
  19 C :   -0.059378
  20 C :   -0.201178
  21 H :    0.032138
  22 C :   -0.032032
  23 H :    0.032384
  24 H :    0.032957
  25 C :   -0.041153
  26 H :    0.025508
  27 H :    0.021491
  28 C :   -0.062360
  29 H :    0.023057
  30 H :    0.025232
  31 H :    0.028435
  32 H :    0.025951
  33 H :    0.032723

  Mayer bond orders larger than 0.100000
B(  0-S ,  1-C ) :   1.1604 B(  0-S ,  4-C ) :   1.1627 B(  1-C ,  2-C ) :   1.5639
B(  1-C ,  4-C ) :   0.1117 B(  1-C , 32-H ) :   0.9710 B(  2-C ,  3-C ) :   1.2985
B(  2-C ,  6-C ) :   1.0028 B(  3-C ,  4-C ) :   1.5280 B(  3-C ,  5-H ) :   0.9875
B(  4-C , 20-C ) :   1.0274 B(  6-C ,  7-H ) :   0.9514 B(  6-C ,  8-H ) :   0.9445
B(  6-C ,  9-C ) :   1.0490 B(  9-C , 10-H ) :   0.9552 B(  9-C , 11-H ) :   0.9537
B(  9-C , 12-C ) :   1.0851 B( 12-C , 13-H ) :   0.9742 B( 12-C , 14-H ) :   0.9761
B( 12-C , 15-H ) :   0.9722 B( 16-S , 17-C ) :   1.1583 B( 16-S , 20-C ) :   1.1699
B( 17-C , 18-C ) :   1.5951 B( 17-C , 20-C ) :   0.1061 B( 17-C , 33-H ) :   0.9678
B( 18-C , 19-C ) :   1.2570 B( 18-C , 21-H ) :   0.9884 B( 19-C , 20-C ) :   1.5712
B( 19-C , 22-C ) :   1.0250 B( 22-C , 23-H ) :   0.9323 B( 22-C , 24-H ) :   0.9316
B( 22-C , 25-C ) :   1.0576 B( 25-C , 26-H ) :   0.9543 B( 25-C , 27-H ) :   0.9585
B( 25-C , 28-C ) :   1.0819 B( 28-C , 29-H ) :   0.9772 B( 28-C , 30-H ) :   0.9727
B( 28-C , 31-H ) :   0.9734

Dispersion correction           -0.013275664
FINAL SINGLE POINT ENERGY     -1339.879803117385

DIPOLE MOMENT
-------------
                                X             Y             Z
Electronic contribution:     17.92158     -15.11980     -18.10592
Nuclear contribution   :    -18.31611      15.31146      18.38672
                        -----------------------------------------
Total Dipole Moment    :     -0.39453       0.19166       0.28080
                        -----------------------------------------
Magnitude (a.u.)       :      0.52080
Magnitude (Debye)      :      1.32378

Rotational constants in cm-1:     0.017773     0.007802     0.005910
Rotational constants in MHz :   532.817000   233.896121   177.178292

                             ****ORCA TERMINATED NORMALLY****
TOTAL RUN TIME: 0 days 0 hours 0 minutes 20 seconds 707 msec
