                         Program Version 4.2.1 -  RELEASE  -
|  1> ! wB97X-D3 SP def2-SVP
|  2> %pal
|  3> nprocs 24
|  4> end
|  5>
|  6> * xyz 0 1
|  7> S 	 -133.552 	 26.5113 	 -19.6344
|  8> C 	 -133.773 	 25.2743 	 -18.4314
|  9> C 	 -132.794 	 24.2593 	 -18.5901
| 10> C 	 -131.848 	 24.6027 	 -19.6558
| 11> C 	 -132.154 	 25.7922 	 -20.3482
| 12> H 	 -131.023 	 24.0673 	 -20.0417
| 13> C 	 -132.894 	 22.9105 	 -17.8551
| 14> H 	 -132.809 	 22.1145 	 -18.6557
| 15> H 	 -133.898 	 22.7718 	 -17.5011
| 16> C 	 -131.847 	 22.5212 	 -16.805
| 17> H 	 -132.005 	 21.5568 	 -16.5097
| 18> H 	 -130.896 	 22.3927 	 -17.2148
| 19> C 	 -131.841 	 23.5889 	 -15.7121
| 20> H 	 -132.846 	 23.9839 	 -15.3952
| 21> H 	 -131.337 	 23.3311 	 -14.8069
| 22> H 	 -131.256 	 24.4594 	 -16.0253
| 23> S 	 -132.937 	 26.5863 	 -22.8876
| 24> C 	 -131.681 	 27.0776 	 -23.9785
| 25> C 	 -130.352 	 26.8802 	 -23.511
| 26> C 	 -130.393 	 26.2624 	 -22.2209
| 27> C 	 -131.673 	 26.2156 	 -21.6567
| 28> H 	 -129.519 	 26.8879 	 -24.1572
| 29> C 	 -129.099 	 25.798 	 -21.6668
| 30> H 	 -129.176 	 25.4483 	 -20.6224
| 31> H 	 -128.508 	 26.7454 	 -21.7399
| 32> C 	 -128.305 	 24.6439 	 -22.395
| 33> H 	 -127.479 	 24.532 	 -21.7874
| 34> H 	 -128.024 	 25.0162 	 -23.3723
| 35> C 	 -128.937 	 23.2005 	 -22.2848
| 36> H 	 -128.961 	 22.7914 	 -21.2845
| 37> H 	 -128.451 	 22.5359 	 -22.9868
| 38> H 	 -129.92 	 23.273 	 -22.7892
| 39> H 	 -134.649 	 25.1464 	 -17.8259
| 40> H 	 -131.92 	 27.6006 	 -24.8434
| 41> *
| 42>
| 43>                          ****END OF INPUT****

CARTESIAN COORDINATES (ANGSTROEM)
---------------------------------
  S    -133.552000   26.511300  -19.634400
  C    -133.773000   25.274300  -18.431400
  C    -132.794000   24.259300  -18.590100
  C    -131.848000   24.602700  -19.655800
  C    -132.154000   25.792200  -20.348200
  H    -131.023000   24.067300  -20.041700
  C    -132.894000   22.910500  -17.855100
  H    -132.809000   22.114500  -18.655700
  H    -133.898000   22.771800  -17.501100
  C    -131.847000   22.521200  -16.805000
  H    -132.005000   21.556800  -16.509700
  H    -130.896000   22.392700  -17.214800
  C    -131.841000   23.588900  -15.712100
  H    -132.846000   23.983900  -15.395200
  H    -131.337000   23.331100  -14.806900
  H    -131.256000   24.459400  -16.025300
  S    -132.937000   26.586300  -22.887600
  C    -131.681000   27.077600  -23.978500
  C    -130.352000   26.880200  -23.511000
  C    -130.393000   26.262400  -22.220900
  C    -131.673000   26.215600  -21.656700
  H    -129.519000   26.887900  -24.157200
  C    -129.099000   25.798000  -21.666800
  H    -129.176000   25.448300  -20.622400
  H    -128.508000   26.745400  -21.739900
  C    -128.305000   24.643900  -22.395000
  H    -127.479000   24.532000  -21.787400
  H    -128.024000   25.016200  -23.372300
  C    -128.937000   23.200500  -22.284800
  H    -128.961000   22.791400  -21.284500
  H    -128.451000   22.535900  -22.986800
  H    -129.920000   23.273000  -22.789200
  H    -134.649000   25.146400  -17.825900
  H    -131.920000   27.600600  -24.843400

 Total Charge           Charge          ....    0
 Multiplicity           Mult            ....    1
 Number of Electrons    NEL             ....  134
 Basis Dimension        Dim             ....  322

ORBITAL ENERGIES
----------------

  NO   OCC          E(Eh)            E(eV)
   0   2.0000     -88.969151     -2420.9737
   1   2.0000     -88.964173     -2420.8382
   2   2.0000     -10.330364      -281.1035
   3   2.0000     -10.328991      -281.0661
   4   2.0000     -10.318317      -280.7757
   5   2.0000     -10.314767      -280.6791
   6   2.0000     -10.311609      -280.5931
   7   2.0000     -10.303699      -280.3779
   8   2.0000     -10.296299      -280.1765
   9   2.0000     -10.295959      -280.1673
  10   2.0000     -10.295484      -280.1544
  11   2.0000     -10.295094      -280.1438
  12   2.0000     -10.289915      -280.0028
  13   2.0000     -10.284376      -279.8521
  14   2.0000     -10.276336      -279.6333
  15   2.0000     -10.273761      -279.5632
  16   2.0000      -8.083317      -219.9582
  17   2.0000      -8.079321      -219.8495
  18   2.0000      -6.041760      -164.4047
  19   2.0000      -6.038050      -164.3037
  20   2.0000      -6.037760      -164.2958
  21   2.0000      -6.034017      -164.1940
  22   2.0000      -6.033535      -164.1808
  23   2.0000      -6.030352      -164.0942
  24   2.0000      -1.001570       -27.2541
  25   2.0000      -0.977863       -26.6090
  26   2.0000      -0.911348       -24.7990
  27   2.0000      -0.907372       -24.6909
  28   2.0000      -0.865561       -23.5531
  29   2.0000      -0.853984       -23.2381
  30   2.0000      -0.840312       -22.8660
  31   2.0000      -0.808851       -22.0100
  32   2.0000      -0.783803       -21.3284
  33   2.0000      -0.773478       -21.0474
  34   2.0000      -0.718073       -19.5398
  35   2.0000      -0.705847       -19.2071
  36   2.0000      -0.692892       -18.8545
  37   2.0000      -0.664450       -18.0806
  38   2.0000      -0.644463       -17.5367
  39   2.0000      -0.613629       -16.6977
  40   2.0000      -0.596855       -16.2413
  41   2.0000      -0.565693       -15.3933
  42   2.0000      -0.554673       -15.0934
  43   2.0000      -0.550628       -14.9834
  44   2.0000      -0.545412       -14.8414
  45   2.0000      -0.539323       -14.6757
  46   2.0000      -0.519497       -14.1362
  47   2.0000      -0.508673       -13.8417
  48   2.0000      -0.501214       -13.6387
  49   2.0000      -0.494881       -13.4664
  50   2.0000      -0.489911       -13.3312
  51   2.0000      -0.478522       -13.0213
  52   2.0000      -0.473944       -12.8967
  53   2.0000      -0.463191       -12.6041
  54   2.0000      -0.460081       -12.5194
  55   2.0000      -0.450879       -12.2690
  56   2.0000      -0.447514       -12.1775
  57   2.0000      -0.441729       -12.0201
  58   2.0000      -0.431372       -11.7382
  59   2.0000      -0.424181       -11.5425
  60   2.0000      -0.419566       -11.4170
  61   2.0000      -0.415741       -11.3129
  62   2.0000      -0.409845       -11.1524
  63   2.0000      -0.345886        -9.4120
  64   2.0000      -0.330493        -8.9932
  65   2.0000      -0.323464        -8.8019
  66   2.0000      -0.284138        -7.7318
  67   0.0000       0.022864         0.6222
  68   0.0000       0.067742         1.8434
  69   0.0000       0.097646         2.6571
  70   0.0000       0.113480         3.0879
  71   0.0000       0.128792         3.5046

MULLIKEN ATOMIC CHARGES
-----------------------
   0 S :    0.102351
   1 C :   -0.112633
   2 C :   -0.086786
   3 C :    0.058456
   4 C :   -0.158272
   5 H :   -0.023063
   6 C :    0.015527
   7 H :    0.033676
   8 H :    0.019105
   9 C :    0.040648
  10 H :   -0.001389
  11 H :    0.002052
  12 C :   -0.063917
  13 H :    0.030216
  14 H :    0.018771
  15 H :    0.038456
  16 S :    0.113356
  17 C :   -0.077316
  18 C :   -0.020364
  19 C :   -0.026320
  20 C :   -0.146681
  21 H :    0.015502
  22 C :   -0.003132
  23 H :    0.020587
  24 H :    0.047534
  25 C :   -0.032640
  26 H :    0.018857
  27 H :    0.025584
  28 C :   -0.069562
  29 H :    0.052557
  30 H :    0.033704
  31 H :    0.042447
  32 H :    0.051850
  33 H :    0.040839
Sum of atomic charges:   -0.0000000

LOEWDIN ATOMIC CHARGES
----------------------
   0 S :    0.421111
   1 C :   -0.207435
   2 C :   -0.054298
   3 C :   -0.060941
   4 C :   -0.204403
   5 H :    0.019051
   6 C :   -0.029323
   7 H :    0.037555
   8 H :    0.025615
   9 C :   -0.031830
  10 H :    0.014285
  11 H :    0.019496
  12 C :   -0.069251
  13 H :    0.028164
  14 H :    0.018543
  15 H :    0.031283
  16 S :    0.398743
  17 C :   -0.168402
  18 C :   -0.066541
  19 C :   -0.055131
  20 C :   -0.191092
  21 H :    0.025447
  22 C :   -0.039379
  23 H :    0.027450
  24 H :    0.043613
  25 C :   -0.025558
  26 H :    0.017011
  27 H :    0.019885
  28 C :   -0.069330
  29 H :    0.025960
  30 H :    0.029121
  31 H :    0.032324
  32 H :    0.026811
  33 H :    0.011446

  Mayer bond orders larger than 0.100000
B(  0-S ,  1-C ) :   1.1490 B(  0-S ,  4-C ) :   1.1636 B(  1-C ,  2-C ) :   1.5755
B(  1-C , 32-H ) :   0.9700 B(  2-C ,  3-C ) :   1.2491 B(  2-C ,  6-C ) :   1.0203
B(  3-C ,  4-C ) :   1.5430 B(  3-C ,  5-H ) :   0.9962 B(  4-C , 20-C ) :   1.0629
B(  6-C ,  7-H ) :   0.9417 B(  6-C ,  8-H ) :   0.9497 B(  6-C ,  9-C ) :   1.0780
B(  9-C , 10-H ) :   0.9498 B(  9-C , 11-H ) :   0.9477 B(  9-C , 12-C ) :   1.0640
B( 12-C , 13-H ) :   0.9800 B( 12-C , 14-H ) :   0.9751 B( 12-C , 15-H ) :   0.9717
B( 16-S , 17-C ) :   1.1773 B( 16-S , 20-C ) :   1.1216 B( 17-C , 18-C ) :   1.5897
B( 17-C , 33-H ) :   0.9712 B( 18-C , 19-C ) :   1.2390 B( 18-C , 21-H ) :   0.9903
B( 19-C , 20-C ) :   1.5863 B( 19-C , 22-C ) :   1.0488 B( 22-C , 23-H ) :   0.9352
B( 22-C , 24-H ) :   0.9325 B( 22-C , 25-C ) :   1.0750 B( 25-C , 26-H ) :   0.9545
B( 25-C , 27-H ) :   0.9570 B( 25-C , 28-C ) :   1.0694 B( 28-C , 29-H ) :   0.9706
B( 28-C , 30-H ) :   0.9712 B( 28-C , 31-H ) :   0.9764

Dispersion correction           -0.014613433
FINAL SINGLE POINT ENERGY     -1339.848294728040

DIPOLE MOMENT
-------------
                                X             Y             Z
Electronic contribution:    -16.85521      18.73309     -11.85053
Nuclear contribution   :     17.33384     -19.33571      11.75715
                        -----------------------------------------
Total Dipole Moment    :      0.47863      -0.60262      -0.09338
                        -----------------------------------------
Magnitude (a.u.)       :      0.77521
Magnitude (Debye)      :      1.97043

Rotational constants in cm-1:     0.019438     0.008861     0.006637
Rotational constants in MHz :   582.745070   265.633427   198.960998

                             ****ORCA TERMINATED NORMALLY****
TOTAL RUN TIME: 0 days 0 hours 0 minutes 21 seconds 828 msec
