                         Program Version 4.2.1 -  RELEASE  -
|  1> ! wB97X-D3 SP def2-SVP
|  2> %pal
|  3> nprocs 24
|  4> end
|  5>
|  6> * xyz 0 1
|  7> S 	 -133.004 	 26.9885 	 -16.4859
|  8> C 	 -133.877 	 25.5406 	 -16.8289
|  9> C 	 -134.838 	 25.6895 	 -17.8059
| 10> C 	 -135.041 	 27.0883 	 -18.0536
| 11> C 	 -134.043 	 27.923 	 -17.5166
| 12> H 	 -135.839 	 27.4732 	 -18.6056
| 13> C 	 -135.558 	 24.5464 	 -18.5474
| 14> H 	 -136.545 	 24.7197 	 -18.2222
| 15> H 	 -135.165 	 23.5158 	 -18.2232
| 16> C 	 -135.515 	 24.6238 	 -20.0696
| 17> H 	 -136.071 	 25.4994 	 -20.2583
| 18> H 	 -134.509 	 24.916 	 -20.2822
| 19> C 	 -136.027 	 23.3552 	 -20.8076
| 20> H 	 -135.396 	 22.5771 	 -20.6082
| 21> H 	 -137.077 	 23.1921 	 -20.6249
| 22> H 	 -136.004 	 23.6293 	 -21.8835
| 23> S 	 -134.566 	 30.2704 	 -16.1328
| 24> C 	 -134.31 	 31.8296 	 -16.9287
| 25> C 	 -133.743 	 31.6336 	 -18.2024
| 26> C 	 -133.494 	 30.2759 	 -18.5398
| 27> C 	 -133.948 	 29.4092 	 -17.5266
| 28> H 	 -133.548 	 32.5262 	 -18.8229
| 29> C 	 -132.935 	 29.8657 	 -19.8612
| 30> H 	 -132.293 	 28.9255 	 -19.6728
| 31> H 	 -132.327 	 30.6537 	 -20.1906
| 32> C 	 -133.936 	 29.56 	 -20.9771
| 33> H 	 -134.381 	 30.5797 	 -21.2162
| 34> H 	 -134.647 	 28.9275 	 -20.471
| 35> C 	 -133.435 	 28.8044 	 -22.1745
| 36> H 	 -133.033 	 27.7784 	 -21.9698
| 37> H 	 -132.714 	 29.474 	 -22.7091
| 38> H 	 -134.151 	 28.6906 	 -22.9403
| 39> H 	 -133.587 	 24.5587 	 -16.3497
| 40> H 	 -134.547 	 32.8229 	 -16.6089
| 41> *
| 42>
| 43>                          ****END OF INPUT****

CARTESIAN COORDINATES (ANGSTROEM)
---------------------------------
  S    -133.004000   26.988500  -16.485900
  C    -133.877000   25.540600  -16.828900
  C    -134.838000   25.689500  -17.805900
  C    -135.041000   27.088300  -18.053600
  C    -134.043000   27.923000  -17.516600
  H    -135.839000   27.473200  -18.605600
  C    -135.558000   24.546400  -18.547400
  H    -136.545000   24.719700  -18.222200
  H    -135.165000   23.515800  -18.223200
  C    -135.515000   24.623800  -20.069600
  H    -136.071000   25.499400  -20.258300
  H    -134.509000   24.916000  -20.282200
  C    -136.027000   23.355200  -20.807600
  H    -135.396000   22.577100  -20.608200
  H    -137.077000   23.192100  -20.624900
  H    -136.004000   23.629300  -21.883500
  S    -134.566000   30.270400  -16.132800
  C    -134.310000   31.829600  -16.928700
  C    -133.743000   31.633600  -18.202400
  C    -133.494000   30.275900  -18.539800
  C    -133.948000   29.409200  -17.526600
  H    -133.548000   32.526200  -18.822900
  C    -132.935000   29.865700  -19.861200
  H    -132.293000   28.925500  -19.672800
  H    -132.327000   30.653700  -20.190600
  C    -133.936000   29.560000  -20.977100
  H    -134.381000   30.579700  -21.216200
  H    -134.647000   28.927500  -20.471000
  C    -133.435000   28.804400  -22.174500
  H    -133.033000   27.778400  -21.969800
  H    -132.714000   29.474000  -22.709100
  H    -134.151000   28.690600  -22.940300
  H    -133.587000   24.558700  -16.349700
  H    -134.547000   32.822900  -16.608900

 Total Charge           Charge          ....    0
 Multiplicity           Mult            ....    1
 Number of Electrons    NEL             ....  134
 Basis Dimension        Dim             ....  322

ORBITAL ENERGIES
----------------

  NO   OCC          E(Eh)            E(eV)
   0   2.0000     -88.969150     -2420.9736
   1   2.0000     -88.965003     -2420.8608
   2   2.0000     -10.331383      -281.1312
   3   2.0000     -10.328581      -281.0550
   4   2.0000     -10.319104      -280.7971
   5   2.0000     -10.315272      -280.6928
   6   2.0000     -10.303264      -280.3661
   7   2.0000     -10.302823      -280.3541
   8   2.0000     -10.296353      -280.1780
   9   2.0000     -10.296194      -280.1737
  10   2.0000     -10.294744      -280.1342
  11   2.0000     -10.287035      -279.9245
  12   2.0000     -10.285650      -279.8868
  13   2.0000     -10.281490      -279.7736
  14   2.0000     -10.279940      -279.7314
  15   2.0000     -10.279383      -279.7162
  16   2.0000      -8.083059      -219.9512
  17   2.0000      -8.080431      -219.8797
  18   2.0000      -6.041632      -164.4012
  19   2.0000      -6.038756      -164.3229
  20   2.0000      -6.037533      -164.2896
  21   2.0000      -6.034773      -164.2145
  22   2.0000      -6.033947      -164.1920
  23   2.0000      -6.031408      -164.1230
  24   2.0000      -1.003966       -27.3193
  25   2.0000      -0.982145       -26.7255
  26   2.0000      -0.913987       -24.8709
  27   2.0000      -0.910769       -24.7833
  28   2.0000      -0.864630       -23.5278
  29   2.0000      -0.852002       -23.1841
  30   2.0000      -0.848143       -23.0791
  31   2.0000      -0.812186       -22.1007
  32   2.0000      -0.786999       -21.4153
  33   2.0000      -0.773081       -21.0366
  34   2.0000      -0.710052       -19.3215
  35   2.0000      -0.695786       -18.9333
  36   2.0000      -0.685099       -18.6425
  37   2.0000      -0.658655       -17.9229
  38   2.0000      -0.642869       -17.4934
  39   2.0000      -0.619342       -16.8531
  40   2.0000      -0.588482       -16.0134
  41   2.0000      -0.578388       -15.7387
  42   2.0000      -0.572414       -15.5762
  43   2.0000      -0.561149       -15.2696
  44   2.0000      -0.520262       -14.1571
  45   2.0000      -0.518572       -14.1111
  46   2.0000      -0.515575       -14.0295
  47   2.0000      -0.513961       -13.9856
  48   2.0000      -0.509765       -13.8714
  49   2.0000      -0.503907       -13.7120
  50   2.0000      -0.489737       -13.3264
  51   2.0000      -0.481919       -13.1137
  52   2.0000      -0.477508       -12.9937
  53   2.0000      -0.466121       -12.6838
  54   2.0000      -0.461605       -12.5609
  55   2.0000      -0.449107       -12.2208
  56   2.0000      -0.443357       -12.0643
  57   2.0000      -0.433763       -11.8033
  58   2.0000      -0.431655       -11.7459
  59   2.0000      -0.427037       -11.6203
  60   2.0000      -0.420837       -11.4516
  61   2.0000      -0.419302       -11.4098
  62   2.0000      -0.408553       -11.1173
  63   2.0000      -0.338011        -9.1977
  64   2.0000      -0.326407        -8.8820
  65   2.0000      -0.317797        -8.6477
  66   2.0000      -0.306839        -8.3495
  67   0.0000       0.039829         1.0838
  68   0.0000       0.055208         1.5023
  69   0.0000       0.118359         3.2207
  70   0.0000       0.120625         3.2824
  71   0.0000       0.129609         3.5268

MULLIKEN ATOMIC CHARGES
-----------------------
   0 S :    0.123242
   1 C :   -0.155762
   2 C :   -0.100210
   3 C :    0.059441
   4 C :   -0.187672
   5 H :    0.001108
   6 C :    0.076201
   7 H :    0.022849
   8 H :    0.027959
   9 C :   -0.083486
  10 H :    0.009557
  11 H :    0.024088
  12 C :    0.001662
  13 H :    0.027877
  14 H :    0.033303
  15 H :    0.037500
  16 S :    0.130380
  17 C :   -0.086154
  18 C :   -0.067338
  19 C :   -0.007821
  20 C :   -0.185941
  21 H :    0.028550
  22 C :    0.072285
  23 H :    0.037292
  24 H :    0.004681
  25 C :   -0.066997
  26 H :    0.031615
  27 H :    0.012362
  28 C :   -0.025301
  29 H :    0.047332
  30 H :    0.023047
  31 H :    0.019858
  32 H :    0.067596
  33 H :    0.046897
Sum of atomic charges:   -0.0000000

LOEWDIN ATOMIC CHARGES
----------------------
   0 S :    0.424277
   1 C :   -0.211465
   2 C :   -0.066696
   3 C :   -0.050762
   4 C :   -0.208936
   5 H :    0.019388
   6 C :   -0.028103
   7 H :    0.024281
   8 H :    0.032922
   9 C :   -0.038504
  10 H :    0.015603
  11 H :    0.020954
  12 C :   -0.048753
  13 H :    0.014383
  14 H :    0.028062
  15 H :    0.036508
  16 S :    0.413565
  17 C :   -0.185108
  18 C :   -0.074519
  19 C :   -0.053934
  20 C :   -0.209727
  21 H :    0.035170
  22 C :   -0.033962
  23 H :    0.040698
  24 H :    0.019130
  25 C :   -0.043656
  26 H :    0.030859
  27 H :    0.017984
  28 C :   -0.068794
  29 H :    0.034311
  30 H :    0.029027
  31 H :    0.021254
  32 H :    0.037096
  33 H :    0.027447

  Mayer bond orders larger than 0.100000
B(  0-S ,  1-C ) :   1.1624 B(  0-S ,  4-C ) :   1.1672 B(  1-C ,  2-C ) :   1.6099
B(  1-C , 32-H ) :   0.9573 B(  2-C ,  3-C ) :   1.2416 B(  2-C ,  6-C ) :   1.0080
B(  3-C ,  4-C ) :   1.5731 B(  3-C ,  5-H ) :   0.9951 B(  4-C , 20-C ) :   1.0010
B(  6-C ,  7-H ) :   0.9331 B(  6-C ,  8-H ) :   0.9498 B(  6-C ,  9-C ) :   1.0585
B(  9-C , 10-H ) :   0.9502 B(  9-C , 11-H ) :   0.9614 B(  9-C , 12-C ) :   1.0826
B( 12-C , 13-H ) :   0.9774 B( 12-C , 14-H ) :   0.9740 B( 12-C , 15-H ) :   0.9734
B( 16-S , 17-C ) :   1.1557 B( 16-S , 20-C ) :   1.1607 B( 17-C , 18-C ) :   1.6047
B( 17-C , 20-C ) :   0.1064 B( 17-C , 33-H ) :   0.9687 B( 18-C , 19-C ) :   1.2592
B( 18-C , 21-H ) :   0.9814 B( 19-C , 20-C ) :   1.5698 B( 19-C , 22-C ) :   1.0610
B( 22-C , 23-H ) :   0.9246 B( 22-C , 24-H ) :   0.9250 B( 22-C , 25-C ) :   1.0639
B( 25-C , 26-H ) :   0.9496 B( 25-C , 27-H ) :   0.9531 B( 25-C , 28-C ) :   1.0964
B( 28-C , 29-H ) :   0.9693 B( 28-C , 30-H ) :   0.9693 B( 28-C , 31-H ) :   0.9689

Dispersion correction           -0.014461511
FINAL SINGLE POINT ENERGY     -1339.866219010861

DIPOLE MOMENT
-------------
                                X             Y             Z
Electronic contribution:      5.43547      12.87862      28.21200
Nuclear contribution   :     -5.70495     -13.03751     -28.86521
                        -----------------------------------------
Total Dipole Moment    :     -0.26948      -0.15890      -0.65321
                        -----------------------------------------
Magnitude (a.u.)       :      0.72426
Magnitude (Debye)      :      1.84092

Rotational constants in cm-1:     0.018004     0.009020     0.006782
Rotational constants in MHz :   539.757325   270.422704   203.319928

                             ****ORCA TERMINATED NORMALLY****
TOTAL RUN TIME: 0 days 0 hours 0 minutes 21 seconds 839 msec
