                         Program Version 4.2.1 -  RELEASE  -
|  1> ! wB97X-D3 SP def2-SVP
|  2> %pal
|  3> nprocs 24
|  4> end
|  5>
|  6> * xyz 0 1
|  7> S 	 -51.9746 	 14.0841 	 28.1137
|  8> C 	 -53.1411 	 15.3546 	 27.6994
|  9> C 	 -53.2414 	 15.433 	 26.324
| 10> C 	 -52.5308 	 14.4584 	 25.6117
| 11> C 	 -51.7598 	 13.6394 	 26.4173
| 12> H 	 -52.4774 	 14.3137 	 24.5451
| 13> C 	 -54.2142 	 16.3774 	 25.5579
| 14> H 	 -55.0345 	 16.723 	 26.2668
| 15> H 	 -54.8006 	 15.737 	 24.9204
| 16> C 	 -53.4911 	 17.3835 	 24.6853
| 17> H 	 -52.8874 	 16.7783 	 23.9614
| 18> H 	 -54.2441 	 17.9404 	 24.0706
| 19> C 	 -52.5839 	 18.3245 	 25.4973
| 20> H 	 -52.0302 	 18.9402 	 24.8005
| 21> H 	 -53.1223 	 18.8994 	 26.2161
| 22> H 	 -51.8424 	 17.6912 	 26.0034
| 23> S 	 -51.0312 	 10.9103 	 26.6265
| 24> C 	 -49.9606 	 10.2724 	 25.4204
| 25> C 	 -49.4536 	 11.2307 	 24.5637
| 26> C 	 -50.0628 	 12.5686 	 24.7752
| 27> C 	 -50.8599 	 12.602 	 25.9433
| 28> H 	 -48.7178 	 11.0053 	 23.7992
| 29> C 	 -49.7038 	 13.8191 	 23.9371
| 30> H 	 -50.6335 	 14.1142 	 23.4671
| 31> H 	 -49.052 	 13.5379 	 23.1073
| 32> C 	 -49.0907 	 14.9989 	 24.6705
| 33> H 	 -49.7829 	 15.2655 	 25.5595
| 34> H 	 -49.038 	 15.9273 	 24.0709
| 35> C 	 -47.6844 	 14.6371 	 25.0579
| 36> H 	 -47.1587 	 15.6389 	 25.4185
| 37> H 	 -47.1392 	 14.2418 	 24.1731
| 38> H 	 -47.541 	 14.0408 	 25.9084
| 39> H 	 -53.6515 	 15.8498 	 28.4637
| 40> H 	 -49.5974 	 9.30815 	 25.2854
| 41> *
| 42>
| 43>                          ****END OF INPUT****

CARTESIAN COORDINATES (ANGSTROEM)
---------------------------------
  S    -51.974600   14.084100   28.113700
  C    -53.141100   15.354600   27.699400
  C    -53.241400   15.433000   26.324000
  C    -52.530800   14.458400   25.611700
  C    -51.759800   13.639400   26.417300
  H    -52.477400   14.313700   24.545100
  C    -54.214200   16.377400   25.557900
  H    -55.034500   16.723000   26.266800
  H    -54.800600   15.737000   24.920400
  C    -53.491100   17.383500   24.685300
  H    -52.887400   16.778300   23.961400
  H    -54.244100   17.940400   24.070600
  C    -52.583900   18.324500   25.497300
  H    -52.030200   18.940200   24.800500
  H    -53.122300   18.899400   26.216100
  H    -51.842400   17.691200   26.003400
  S    -51.031200   10.910300   26.626500
  C    -49.960600   10.272400   25.420400
  C    -49.453600   11.230700   24.563700
  C    -50.062800   12.568600   24.775200
  C    -50.859900   12.602000   25.943300
  H    -48.717800   11.005300   23.799200
  C    -49.703800   13.819100   23.937100
  H    -50.633500   14.114200   23.467100
  H    -49.052000   13.537900   23.107300
  C    -49.090700   14.998900   24.670500
  H    -49.782900   15.265500   25.559500
  H    -49.038000   15.927300   24.070900
  C    -47.684400   14.637100   25.057900
  H    -47.158700   15.638900   25.418500
  H    -47.139200   14.241800   24.173100
  H    -47.541000   14.040800   25.908400
  H    -53.651500   15.849800   28.463700
  H    -49.597400    9.308150   25.285400

 Total Charge           Charge          ....    0
 Multiplicity           Mult            ....    1
 Number of Electrons    NEL             ....  134
 Basis Dimension        Dim             ....  322

ORBITAL ENERGIES
----------------

  NO   OCC          E(Eh)            E(eV)
   0   2.0000     -88.968818     -2420.9646
   1   2.0000     -88.965840     -2420.8836
   2   2.0000     -10.335351      -281.2392
   3   2.0000     -10.332551      -281.1630
   4   2.0000     -10.317603      -280.7563
   5   2.0000     -10.316483      -280.7258
   6   2.0000     -10.315581      -280.7012
   7   2.0000     -10.303621      -280.3758
   8   2.0000     -10.300492      -280.2906
   9   2.0000     -10.295040      -280.1423
  10   2.0000     -10.294612      -280.1306
  11   2.0000     -10.293608      -280.1033
  12   2.0000     -10.292491      -280.0729
  13   2.0000     -10.290018      -280.0056
  14   2.0000     -10.278785      -279.7000
  15   2.0000     -10.273298      -279.5506
  16   2.0000      -8.082450      -219.9347
  17   2.0000      -8.080075      -219.8700
  18   2.0000      -6.041164      -164.3884
  19   2.0000      -6.038523      -164.3166
  20   2.0000      -6.037127      -164.2786
  21   2.0000      -6.034630      -164.2106
  22   2.0000      -6.033033      -164.1672
  23   2.0000      -6.030945      -164.1104
  24   2.0000      -1.001733       -27.2585
  25   2.0000      -0.977070       -26.5874
  26   2.0000      -0.911966       -24.8159
  27   2.0000      -0.910017       -24.7628
  28   2.0000      -0.869558       -23.6619
  29   2.0000      -0.847775       -23.0691
  30   2.0000      -0.840610       -22.8742
  31   2.0000      -0.812772       -22.1166
  32   2.0000      -0.784236       -21.3401
  33   2.0000      -0.773877       -21.0583
  34   2.0000      -0.711869       -19.3709
  35   2.0000      -0.693652       -18.8752
  36   2.0000      -0.685915       -18.6647
  37   2.0000      -0.659466       -17.9450
  38   2.0000      -0.647136       -17.6095
  39   2.0000      -0.620878       -16.8949
  40   2.0000      -0.589544       -16.0423
  41   2.0000      -0.567143       -15.4327
  42   2.0000      -0.559360       -15.2209
  43   2.0000      -0.549059       -14.9407
  44   2.0000      -0.547553       -14.8997
  45   2.0000      -0.538422       -14.6512
  46   2.0000      -0.524674       -14.2771
  47   2.0000      -0.507777       -13.8173
  48   2.0000      -0.506296       -13.7770
  49   2.0000      -0.491390       -13.3714
  50   2.0000      -0.488395       -13.2899
  51   2.0000      -0.479808       -13.0562
  52   2.0000      -0.471809       -12.8386
  53   2.0000      -0.465899       -12.6777
  54   2.0000      -0.457924       -12.4607
  55   2.0000      -0.446507       -12.1501
  56   2.0000      -0.438585       -11.9345
  57   2.0000      -0.434166       -11.8143
  58   2.0000      -0.428305       -11.6548
  59   2.0000      -0.421567       -11.4714
  60   2.0000      -0.419235       -11.4080
  61   2.0000      -0.412039       -11.2121
  62   2.0000      -0.410527       -11.1710
  63   2.0000      -0.348533        -9.4841
  64   2.0000      -0.334614        -9.1053
  65   2.0000      -0.330324        -8.9886
  66   2.0000      -0.291513        -7.9325
  67   0.0000       0.020702         0.5633
  68   0.0000       0.068879         1.8743
  69   0.0000       0.110623         3.0102
  70   0.0000       0.116768         3.1774
  71   0.0000       0.125458         3.4139

MULLIKEN ATOMIC CHARGES
-----------------------
   0 S :    0.093276
   1 C :   -0.116366
   2 C :   -0.067352
   3 C :    0.016702
   4 C :   -0.149602
   5 H :    0.008635
   6 C :    0.054113
   7 H :    0.029776
   8 H :    0.021334
   9 C :   -0.095653
  10 H :    0.027868
  11 H :    0.037571
  12 C :   -0.022472
  13 H :    0.029192
  14 H :    0.029831
  15 H :    0.041560
  16 S :    0.103859
  17 C :   -0.046034
  18 C :   -0.040303
  19 C :   -0.067276
  20 C :   -0.136481
  21 H :    0.022505
  22 C :    0.067679
  23 H :    0.022101
  24 H :    0.014288
  25 C :   -0.080535
  26 H :    0.062486
  27 H :    0.034273
  28 C :   -0.068654
  29 H :    0.034576
  30 H :    0.032992
  31 H :    0.038613
  32 H :    0.034378
  33 H :    0.033120
Sum of atomic charges:   -0.0000000

LOEWDIN ATOMIC CHARGES
----------------------
   0 S :    0.386576
   1 C :   -0.177443
   2 C :   -0.062306
   3 C :   -0.063548
   4 C :   -0.187627
   5 H :    0.030508
   6 C :   -0.036366
   7 H :    0.033008
   8 H :    0.027711
   9 C :   -0.044734
  10 H :    0.026028
  11 H :    0.026940
  12 C :   -0.059974
  13 H :    0.024507
  14 H :    0.021056
  15 H :    0.029580
  16 S :    0.383025
  17 C :   -0.177487
  18 C :   -0.071968
  19 C :   -0.039054
  20 C :   -0.182955
  21 H :    0.031336
  22 C :   -0.035273
  23 H :    0.026093
  24 H :    0.027257
  25 C :   -0.051419
  26 H :    0.038126
  27 H :    0.028253
  28 C :   -0.069806
  29 H :    0.036229
  30 H :    0.026348
  31 H :    0.018506
  32 H :    0.017536
  33 H :    0.021337

  Mayer bond orders larger than 0.100000
B(  0-S ,  1-C ) :   1.1323 B(  0-S ,  4-C ) :   1.1506 B(  1-C ,  2-C ) :   1.5793
B(  1-C ,  4-C ) :   0.1004 B(  1-C , 32-H ) :   0.9874 B(  2-C ,  3-C ) :   1.2471
B(  2-C ,  6-C ) :   1.0033 B(  3-C ,  4-C ) :   1.5591 B(  3-C ,  5-H ) :   0.9971
B(  4-C , 20-C ) :   1.0553 B(  6-C ,  7-H ) :   0.9505 B(  6-C ,  8-H ) :   0.9435
B(  6-C ,  9-C ) :   1.0648 B(  9-C , 10-H ) :   0.9543 B(  9-C , 11-H ) :   0.9553
B(  9-C , 12-C ) :   1.0736 B( 12-C , 13-H ) :   0.9733 B( 12-C , 14-H ) :   0.9767
B( 12-C , 15-H ) :   0.9712 B( 16-S , 17-C ) :   1.1502 B( 16-S , 20-C ) :   1.1061
B( 17-C , 18-C ) :   1.6392 B( 17-C , 33-H ) :   0.9670 B( 18-C , 19-C ) :   1.2176
B( 18-C , 21-H ) :   0.9846 B( 19-C , 20-C ) :   1.6036 B( 19-C , 22-C ) :   1.0280
B( 22-C , 23-H ) :   0.9271 B( 22-C , 24-H ) :   0.9386 B( 22-C , 25-C ) :   1.0776
B( 25-C , 26-H ) :   0.9450 B( 25-C , 27-H ) :   0.9536 B( 25-C , 28-C ) :   1.0693
B( 28-C , 29-H ) :   0.9732 B( 28-C , 30-H ) :   0.9731 B( 28-C , 31-H ) :   0.9776

Dispersion correction           -0.015923590
FINAL SINGLE POINT ENERGY     -1339.877453781276

DIPOLE MOMENT
-------------
                                X             Y             Z
Electronic contribution:     -4.58771     -22.97166      14.68015
Nuclear contribution   :      4.59226      23.29583     -15.29097
                        -----------------------------------------
Total Dipole Moment    :      0.00455       0.32417      -0.61082
                        -----------------------------------------
Magnitude (a.u.)       :      0.69152
Magnitude (Debye)      :      1.75771

Rotational constants in cm-1:     0.019964     0.009587     0.007674
Rotational constants in MHz :   598.494123   287.410865   230.066121

                             ****ORCA TERMINATED NORMALLY****
TOTAL RUN TIME: 0 days 0 hours 0 minutes 22 seconds 975 msec
