                         Program Version 4.2.1 -  RELEASE  -
|  1> ! wB97X-D3 SP def2-SVP
|  2> %pal
|  3> nprocs 24
|  4> end
|  5>
|  6> * xyz 0 1
|  7> S 	 -110.943 	 46.1321 	 -74.9464
|  8> C 	 -110.909 	 45.6684 	 -76.6363
|  9> C 	 -110.783 	 46.7729 	 -77.4312
| 10> C 	 -110.505 	 47.9595 	 -76.6503
| 11> C 	 -110.53 	 47.7985 	 -75.2604
| 12> H 	 -110.357 	 48.9338 	 -77.1506
| 13> C 	 -110.846 	 46.7672 	 -78.9765
| 14> H 	 -110.513 	 45.7877 	 -79.3095
| 15> H 	 -110.195 	 47.5627 	 -79.3738
| 16> C 	 -112.2 	 47.0721 	 -79.607
| 17> H 	 -112.147 	 47.0076 	 -80.7195
| 18> H 	 -112.845 	 46.2326 	 -79.3296
| 19> C 	 -112.831 	 48.4451 	 -79.3012
| 20> H 	 -112.26 	 49.3054 	 -79.4099
| 21> H 	 -113.726 	 48.4322 	 -79.9436
| 22> H 	 -113.211 	 48.3821 	 -78.2331
| 23> S 	 -109.946 	 48.1073 	 -72.5226
| 24> C 	 -109.402 	 49.6343 	 -71.918
| 25> C 	 -109.59 	 50.5962 	 -72.8755
| 26> C 	 -109.904 	 50.09 	 -74.1896
| 27> C 	 -110.143 	 48.7093 	 -74.2219
| 28> H 	 -109.479 	 51.5827 	 -72.4799
| 29> C 	 -110.096 	 51.0963 	 -75.2893
| 30> H 	 -110.306 	 52.0079 	 -74.7893
| 31> H 	 -110.916 	 50.8819 	 -75.9576
| 32> C 	 -108.805 	 51.3022 	 -76.0557
| 33> H 	 -108.374 	 50.3535 	 -76.4533
| 34> H 	 -108.119 	 51.7131 	 -75.328
| 35> C 	 -108.764 	 52.3296 	 -77.2066
| 36> H 	 -107.958 	 52.2528 	 -77.9487
| 37> H 	 -108.867 	 53.3687 	 -76.7646
| 38> H 	 -109.696 	 52.2644 	 -77.6669
| 39> H 	 -111.197 	 44.7554 	 -77.0441
| 40> H 	 -109.124 	 49.8391 	 -70.906
| 41> *
| 42>
| 43>                          ****END OF INPUT****

CARTESIAN COORDINATES (ANGSTROEM)
---------------------------------
  S    -110.943000   46.132100  -74.946400
  C    -110.909000   45.668400  -76.636300
  C    -110.783000   46.772900  -77.431200
  C    -110.505000   47.959500  -76.650300
  C    -110.530000   47.798500  -75.260400
  H    -110.357000   48.933800  -77.150600
  C    -110.846000   46.767200  -78.976500
  H    -110.513000   45.787700  -79.309500
  H    -110.195000   47.562700  -79.373800
  C    -112.200000   47.072100  -79.607000
  H    -112.147000   47.007600  -80.719500
  H    -112.845000   46.232600  -79.329600
  C    -112.831000   48.445100  -79.301200
  H    -112.260000   49.305400  -79.409900
  H    -113.726000   48.432200  -79.943600
  H    -113.211000   48.382100  -78.233100
  S    -109.946000   48.107300  -72.522600
  C    -109.402000   49.634300  -71.918000
  C    -109.590000   50.596200  -72.875500
  C    -109.904000   50.090000  -74.189600
  C    -110.143000   48.709300  -74.221900
  H    -109.479000   51.582700  -72.479900
  C    -110.096000   51.096300  -75.289300
  H    -110.306000   52.007900  -74.789300
  H    -110.916000   50.881900  -75.957600
  C    -108.805000   51.302200  -76.055700
  H    -108.374000   50.353500  -76.453300
  H    -108.119000   51.713100  -75.328000
  C    -108.764000   52.329600  -77.206600
  H    -107.958000   52.252800  -77.948700
  H    -108.867000   53.368700  -76.764600
  H    -109.696000   52.264400  -77.666900
  H    -111.197000   44.755400  -77.044100
  H    -109.124000   49.839100  -70.906000

 Total Charge           Charge          ....    0
 Multiplicity           Mult            ....    1
 Number of Electrons    NEL             ....  134
 Basis Dimension        Dim             ....  322

ORBITAL ENERGIES
----------------

  NO   OCC          E(Eh)            E(eV)
   0   2.0000     -88.966761     -2420.9086
   1   2.0000     -88.964096     -2420.8361
   2   2.0000     -10.338013      -281.3116
   3   2.0000     -10.336863      -281.2803
   4   2.0000     -10.317383      -280.7503
   5   2.0000     -10.311196      -280.5819
   6   2.0000     -10.310830      -280.5719
   7   2.0000     -10.303407      -280.3700
   8   2.0000     -10.299722      -280.2697
   9   2.0000     -10.295908      -280.1659
  10   2.0000     -10.294208      -280.1196
  11   2.0000     -10.290123      -280.0085
  12   2.0000     -10.289774      -279.9990
  13   2.0000     -10.284975      -279.8684
  14   2.0000     -10.279520      -279.7200
  15   2.0000     -10.278661      -279.6966
  16   2.0000      -8.081498      -219.9087
  17   2.0000      -8.078471      -219.8264
  18   2.0000      -6.040259      -164.3638
  19   2.0000      -6.037163      -164.2796
  20   2.0000      -6.035988      -164.2476
  21   2.0000      -6.033029      -164.1671
  22   2.0000      -6.031996      -164.1390
  23   2.0000      -6.029045      -164.0586
  24   2.0000      -1.007030       -27.4027
  25   2.0000      -0.985194       -26.8085
  26   2.0000      -0.916143       -24.9295
  27   2.0000      -0.911799       -24.8113
  28   2.0000      -0.875978       -23.8366
  29   2.0000      -0.851634       -23.1742
  30   2.0000      -0.840028       -22.8583
  31   2.0000      -0.818122       -22.2622
  32   2.0000      -0.787694       -21.4342
  33   2.0000      -0.779567       -21.2131
  34   2.0000      -0.714186       -19.4340
  35   2.0000      -0.697682       -18.9849
  36   2.0000      -0.694407       -18.8958
  37   2.0000      -0.665116       -18.0987
  38   2.0000      -0.636287       -17.3142
  39   2.0000      -0.621686       -16.9169
  40   2.0000      -0.597922       -16.2703
  41   2.0000      -0.575956       -15.6726
  42   2.0000      -0.570365       -15.5204
  43   2.0000      -0.549971       -14.9655
  44   2.0000      -0.546196       -14.8627
  45   2.0000      -0.528576       -14.3833
  46   2.0000      -0.522367       -14.2143
  47   2.0000      -0.518492       -14.1089
  48   2.0000      -0.512116       -13.9354
  49   2.0000      -0.509116       -13.8538
  50   2.0000      -0.491145       -13.3647
  51   2.0000      -0.481898       -13.1131
  52   2.0000      -0.478857       -13.0304
  53   2.0000      -0.465730       -12.6732
  54   2.0000      -0.458652       -12.4805
  55   2.0000      -0.447726       -12.1832
  56   2.0000      -0.440541       -11.9877
  57   2.0000      -0.435108       -11.8399
  58   2.0000      -0.431951       -11.7540
  59   2.0000      -0.426035       -11.5930
  60   2.0000      -0.415689       -11.3115
  61   2.0000      -0.410067       -11.1585
  62   2.0000      -0.406115       -11.0510
  63   2.0000      -0.369500       -10.0546
  64   2.0000      -0.333217        -9.0673
  65   2.0000      -0.325611        -8.8603
  66   2.0000      -0.282967        -7.6999
  67   0.0000       0.013064         0.3555
  68   0.0000       0.083264         2.2657
  69   0.0000       0.097569         2.6550
  70   0.0000       0.117888         3.2079
  71   0.0000       0.128371         3.4932

MULLIKEN ATOMIC CHARGES
-----------------------
   0 S :    0.098695
   1 C :   -0.082475
   2 C :   -0.106772
   3 C :   -0.019309
   4 C :   -0.104420
   5 H :    0.010977
   6 C :    0.083531
   7 H :    0.023485
   8 H :    0.025740
   9 C :   -0.101451
  10 H :    0.033833
  11 H :    0.023598
  12 C :   -0.052680
  13 H :    0.028672
  14 H :    0.039355
  15 H :    0.049535
  16 S :    0.084870
  17 C :   -0.081203
  18 C :   -0.034437
  19 C :   -0.064734
  20 C :   -0.091942
  21 H :    0.015054
  22 C :    0.105855
  23 H :    0.005996
  24 H :    0.025176
  25 C :   -0.124115
  26 H :    0.040839
  27 H :    0.023691
  28 C :   -0.004584
  29 H :    0.052928
  30 H :    0.022559
  31 H :   -0.003365
  32 H :    0.022155
  33 H :    0.054942
Sum of atomic charges:    0.0000000

LOEWDIN ATOMIC CHARGES
----------------------
   0 S :    0.405214
   1 C :   -0.185361
   2 C :   -0.061478
   3 C :   -0.072091
   4 C :   -0.188421
   5 H :    0.029695
   6 C :   -0.030101
   7 H :    0.030422
   8 H :    0.030844
   9 C :   -0.046186
  10 H :    0.025650
  11 H :    0.022651
  12 C :   -0.066220
  13 H :    0.012576
  14 H :    0.033480
  15 H :    0.036297
  16 S :    0.381837
  17 C :   -0.178843
  18 C :   -0.074648
  19 C :   -0.045179
  20 C :   -0.173183
  21 H :    0.030837
  22 C :   -0.026669
  23 H :    0.028373
  24 H :    0.023855
  25 C :   -0.045872
  26 H :    0.026479
  27 H :    0.023096
  28 C :   -0.069166
  29 H :    0.032271
  30 H :    0.030728
  31 H :    0.011406
  32 H :    0.017640
  33 H :    0.030066

  Mayer bond orders larger than 0.100000
B(  0-S ,  1-C ) :   1.1324 B(  0-S ,  4-C ) :   1.1376 B(  1-C ,  2-C ) :   1.6247
B(  1-C , 32-H ) :   0.9687 B(  2-C ,  3-C ) :   1.2576 B(  2-C ,  6-C ) :   1.0159
B(  3-C ,  4-C ) :   1.5411 B(  3-C ,  5-H ) :   0.9824 B(  4-C , 20-C ) :   1.1292
B(  6-C ,  7-H ) :   0.9413 B(  6-C ,  8-H ) :   0.9425 B(  6-C ,  9-C ) :   1.0772
B(  9-C , 10-H ) :   0.9585 B(  9-C , 11-H ) :   0.9531 B(  9-C , 12-C ) :   1.0737
B( 12-C , 13-H ) :   0.9785 B( 12-C , 14-H ) :   0.9731 B( 12-C , 15-H ) :   0.9721
B( 16-S , 17-C ) :   1.1574 B( 16-S , 20-C ) :   1.1134 B( 17-C , 18-C ) :   1.6227
B( 17-C , 33-H ) :   0.9673 B( 18-C , 19-C ) :   1.2295 B( 18-C , 21-H ) :   0.9930
B( 19-C , 20-C ) :   1.5747 B( 19-C , 22-C ) :   1.0526 B( 22-C , 23-H ) :   0.9239
B( 22-C , 24-H ) :   0.9328 B( 22-C , 25-C ) :   1.0619 B( 25-C , 26-H ) :   0.9593
B( 25-C , 27-H ) :   0.9561 B( 25-C , 28-C ) :   1.0748 B( 28-C , 29-H ) :   0.9760
B( 28-C , 30-H ) :   0.9709 B( 28-C , 31-H ) :   0.9687

Dispersion correction           -0.014363096
FINAL SINGLE POINT ENERGY     -1339.869018673902

DIPOLE MOMENT
-------------
                                X             Y             Z
Electronic contribution:      1.76366     -16.63816      26.22679
Nuclear contribution   :     -1.86057      17.17186     -26.69833
                        -----------------------------------------
Total Dipole Moment    :     -0.09692       0.53370      -0.47153
                        -----------------------------------------
Magnitude (a.u.)       :      0.71873
Magnitude (Debye)      :      1.82687

Rotational constants in cm-1:     0.017227     0.009794     0.006692
Rotational constants in MHz :   516.441384   293.628683   200.618216

                             ****ORCA TERMINATED NORMALLY****
TOTAL RUN TIME: 0 days 0 hours 0 minutes 22 seconds 142 msec
