                         Program Version 4.2.1 -  RELEASE  -
|  1> ! wB97X-D3 SP def2-SVP
|  2> %pal
|  3> nprocs 24
|  4> end
|  5>
|  6> * xyz 0 1
|  7> S 	 -107.461 	 50.3434 	 -80.2156
|  8> C 	 -107.387 	 50.6128 	 -81.9418
|  9> C 	 -108.598 	 50.4991 	 -82.5464
| 10> C 	 -109.604 	 50.3452 	 -81.5629
| 11> C 	 -109.251 	 50.1509 	 -80.228
| 12> H 	 -110.649 	 50.2259 	 -81.8871
| 13> C 	 -108.979 	 50.6184 	 -84.0426
| 14> H 	 -110.054 	 50.8545 	 -84.1287
| 15> H 	 -108.817 	 49.6778 	 -84.4844
| 16> C 	 -108.354 	 51.7576 	 -84.8905
| 17> H 	 -108.508 	 52.6849 	 -84.4222
| 18> H 	 -107.29 	 51.473 	 -84.9809
| 19> C 	 -108.94 	 51.7572 	 -86.2915
| 20> H 	 -108.738 	 52.7211 	 -86.7852
| 21> H 	 -108.413 	 51.015 	 -86.8932
| 22> H 	 -110.002 	 51.5175 	 -86.2114
| 23> S 	 -111.48 	 50.4369 	 -78.6444
| 24> C 	 -111.556 	 49.5862 	 -77.09
| 25> C 	 -110.52 	 48.713 	 -76.9818
| 26> C 	 -109.676 	 48.665 	 -78.0844
| 27> C 	 -109.945 	 49.6626 	 -79.046
| 28> H 	 -110.377 	 48.1853 	 -76.0582
| 29> C 	 -108.519 	 47.7074 	 -78.0496
| 30> H 	 -108.175 	 47.6407 	 -77.0237
| 31> H 	 -107.579 	 48.2229 	 -78.4199
| 32> C 	 -108.697 	 46.3156 	 -78.6996
| 33> H 	 -107.715 	 46.0798 	 -79.104
| 34> H 	 -109.392 	 46.3235 	 -79.5866
| 35> C 	 -109.019 	 45.0944 	 -77.7876
| 36> H 	 -109.976 	 45.163 	 -77.2814
| 37> H 	 -108.271 	 44.9773 	 -77.0243
| 38> H 	 -108.981 	 44.2476 	 -78.3836
| 39> H 	 -106.409 	 50.8293 	 -82.4421
| 40> H 	 -112.315 	 49.7481 	 -76.2417
| 41> *
| 42>
| 43>                          ****END OF INPUT****

CARTESIAN COORDINATES (ANGSTROEM)
---------------------------------
  S    -107.461000   50.343400  -80.215600
  C    -107.387000   50.612800  -81.941800
  C    -108.598000   50.499100  -82.546400
  C    -109.604000   50.345200  -81.562900
  C    -109.251000   50.150900  -80.228000
  H    -110.649000   50.225900  -81.887100
  C    -108.979000   50.618400  -84.042600
  H    -110.054000   50.854500  -84.128700
  H    -108.817000   49.677800  -84.484400
  C    -108.354000   51.757600  -84.890500
  H    -108.508000   52.684900  -84.422200
  H    -107.290000   51.473000  -84.980900
  C    -108.940000   51.757200  -86.291500
  H    -108.738000   52.721100  -86.785200
  H    -108.413000   51.015000  -86.893200
  H    -110.002000   51.517500  -86.211400
  S    -111.480000   50.436900  -78.644400
  C    -111.556000   49.586200  -77.090000
  C    -110.520000   48.713000  -76.981800
  C    -109.676000   48.665000  -78.084400
  C    -109.945000   49.662600  -79.046000
  H    -110.377000   48.185300  -76.058200
  C    -108.519000   47.707400  -78.049600
  H    -108.175000   47.640700  -77.023700
  H    -107.579000   48.222900  -78.419900
  C    -108.697000   46.315600  -78.699600
  H    -107.715000   46.079800  -79.104000
  H    -109.392000   46.323500  -79.586600
  C    -109.019000   45.094400  -77.787600
  H    -109.976000   45.163000  -77.281400
  H    -108.271000   44.977300  -77.024300
  H    -108.981000   44.247600  -78.383600
  H    -106.409000   50.829300  -82.442100
  H    -112.315000   49.748100  -76.241700

 Total Charge           Charge          ....    0
 Multiplicity           Mult            ....    1
 Number of Electrons    NEL             ....  134
 Basis Dimension        Dim             ....  322

ORBITAL ENERGIES
----------------

  NO   OCC          E(Eh)            E(eV)
   0   2.0000     -88.965617     -2420.8775
   1   2.0000     -88.963276     -2420.8138
   2   2.0000     -10.336149      -281.2609
   3   2.0000     -10.333392      -281.1859
   4   2.0000     -10.321897      -280.8731
   5   2.0000     -10.317829      -280.7624
   6   2.0000     -10.301458      -280.3169
   7   2.0000     -10.300489      -280.2906
   8   2.0000     -10.296063      -280.1701
   9   2.0000     -10.294242      -280.1206
  10   2.0000     -10.289621      -279.9948
  11   2.0000     -10.288459      -279.9632
  12   2.0000     -10.285981      -279.8958
  13   2.0000     -10.284365      -279.8518
  14   2.0000     -10.280404      -279.7440
  15   2.0000     -10.269679      -279.4522
  16   2.0000      -8.079726      -219.8605
  17   2.0000      -8.077226      -219.7925
  18   2.0000      -6.038297      -164.3104
  19   2.0000      -6.035847      -164.2438
  20   2.0000      -6.034292      -164.2014
  21   2.0000      -6.031796      -164.1335
  22   2.0000      -6.030482      -164.0977
  23   2.0000      -6.027959      -164.0291
  24   2.0000      -1.003506       -27.3068
  25   2.0000      -0.984471       -26.7888
  26   2.0000      -0.912761       -24.8375
  27   2.0000      -0.900713       -24.5097
  28   2.0000      -0.872820       -23.7506
  29   2.0000      -0.851667       -23.1750
  30   2.0000      -0.843697       -22.9582
  31   2.0000      -0.812487       -22.1089
  32   2.0000      -0.783537       -21.3211
  33   2.0000      -0.771281       -20.9876
  34   2.0000      -0.709030       -19.2937
  35   2.0000      -0.700881       -19.0719
  36   2.0000      -0.687985       -18.7210
  37   2.0000      -0.661346       -17.9961
  38   2.0000      -0.633598       -17.2411
  39   2.0000      -0.618382       -16.8270
  40   2.0000      -0.593499       -16.1499
  41   2.0000      -0.581493       -15.8232
  42   2.0000      -0.568062       -15.4578
  43   2.0000      -0.545944       -14.8559
  44   2.0000      -0.531617       -14.4660
  45   2.0000      -0.526572       -14.3287
  46   2.0000      -0.517192       -14.0735
  47   2.0000      -0.512583       -13.9481
  48   2.0000      -0.504924       -13.7397
  49   2.0000      -0.500818       -13.6279
  50   2.0000      -0.484224       -13.1764
  51   2.0000      -0.478251       -13.0139
  52   2.0000      -0.471597       -12.8328
  53   2.0000      -0.469197       -12.7675
  54   2.0000      -0.457402       -12.4465
  55   2.0000      -0.446435       -12.1481
  56   2.0000      -0.442240       -12.0340
  57   2.0000      -0.437532       -11.9058
  58   2.0000      -0.434502       -11.8234
  59   2.0000      -0.423661       -11.5284
  60   2.0000      -0.417865       -11.3707
  61   2.0000      -0.411483       -11.1970
  62   2.0000      -0.401474       -10.9247
  63   2.0000      -0.352225        -9.5845
  64   2.0000      -0.332298        -9.0423
  65   2.0000      -0.330625        -8.9968
  66   2.0000      -0.286789        -7.8039
  67   0.0000       0.022519         0.6128
  68   0.0000       0.069867         1.9012
  69   0.0000       0.113550         3.0898
  70   0.0000       0.117901         3.2082
  71   0.0000       0.134473         3.6592

MULLIKEN ATOMIC CHARGES
-----------------------
   0 S :    0.087370
   1 C :   -0.159043
   2 C :   -0.053195
   3 C :    0.015220
   4 C :   -0.130825
   5 H :    0.012328
   6 C :    0.047489
   7 H :    0.022451
   8 H :    0.032800
   9 C :   -0.077128
  10 H :    0.032493
  11 H :    0.031189
  12 C :   -0.046492
  13 H :    0.041493
  14 H :    0.030223
  15 H :    0.032347
  16 S :    0.099930
  17 C :   -0.115497
  18 C :   -0.034736
  19 C :   -0.018451
  20 C :   -0.144233
  21 H :    0.015421
  22 C :    0.036097
  23 H :    0.009107
  24 H :    0.027574
  25 C :   -0.071534
  26 H :    0.024965
  27 H :    0.045376
  28 C :   -0.014600
  29 H :    0.032461
  30 H :    0.018137
  31 H :    0.020343
  32 H :    0.067125
  33 H :    0.083796
Sum of atomic charges:    0.0000000

LOEWDIN ATOMIC CHARGES
----------------------
   0 S :    0.393117
   1 C :   -0.194059
   2 C :   -0.073688
   3 C :   -0.063682
   4 C :   -0.182483
   5 H :    0.029347
   6 C :   -0.024105
   7 H :    0.029610
   8 H :    0.026167
   9 C :   -0.036363
  10 H :    0.018528
  11 H :    0.024598
  12 C :   -0.063420
  13 H :    0.031055
  14 H :    0.026369
  15 H :    0.023902
  16 S :    0.395344
  17 C :   -0.189894
  18 C :   -0.075458
  19 C :   -0.060325
  20 C :   -0.192352
  21 H :    0.032260
  22 C :   -0.046487
  23 H :    0.029043
  24 H :    0.030007
  25 C :   -0.039355
  26 H :    0.027080
  27 H :    0.032751
  28 C :   -0.056706
  29 H :    0.022933
  30 H :    0.020699
  31 H :    0.018482
  32 H :    0.036944
  33 H :    0.050143

  Mayer bond orders larger than 0.100000
B(  0-S ,  1-C ) :   1.1522 B(  0-S ,  4-C ) :   1.1298 B(  1-C ,  2-C ) :   1.6041
B(  1-C , 32-H ) :   0.9616 B(  2-C ,  3-C ) :   1.2877 B(  2-C ,  6-C ) :   0.9953
B(  3-C ,  4-C ) :   1.5653 B(  3-C ,  5-H ) :   0.9821 B(  4-C , 20-C ) :   1.0561
B(  6-C ,  7-H ) :   0.9489 B(  6-C ,  8-H ) :   0.9385 B(  6-C ,  9-C ) :   1.0678
B(  9-C , 10-H ) :   0.9642 B(  9-C , 11-H ) :   0.9532 B(  9-C , 12-C ) :   1.0857
B( 12-C , 13-H ) :   0.9738 B( 12-C , 14-H ) :   0.9758 B( 12-C , 15-H ) :   0.9744
B( 16-S , 17-C ) :   1.1468 B( 16-S , 20-C ) :   1.1415 B( 17-C , 18-C ) :   1.6082
B( 17-C , 20-C ) :   0.1064 B( 17-C , 33-H ) :   0.9547 B( 18-C , 19-C ) :   1.2649
B( 18-C , 21-H ) :   0.9911 B( 19-C , 20-C ) :   1.5508 B( 19-C , 22-C ) :   1.0432
B( 22-C , 23-H ) :   0.9343 B( 22-C , 24-H ) :   0.9360 B( 22-C , 25-C ) :   1.0405
B( 25-C , 26-H ) :   0.9553 B( 25-C , 27-H ) :   0.9620 B( 25-C , 28-C ) :   1.0862
B( 28-C , 29-H ) :   0.9771 B( 28-C , 30-H ) :   0.9740 B( 28-C , 31-H ) :   0.9734

Dispersion correction           -0.013446504
FINAL SINGLE POINT ENERGY     -1339.868205074772

DIPOLE MOMENT
-------------
                                X             Y             Z
Electronic contribution:     -4.67046      10.54650      14.97137
Nuclear contribution   :      4.80769     -10.85799     -15.23420
                        -----------------------------------------
Total Dipole Moment    :      0.13724      -0.31149      -0.26283
                        -----------------------------------------
Magnitude (a.u.)       :      0.43004
Magnitude (Debye)      :      1.09308

Rotational constants in cm-1:     0.022412     0.006729     0.005908
Rotational constants in MHz :   671.907072   201.722607   177.132122

                             ****ORCA TERMINATED NORMALLY****
TOTAL RUN TIME: 0 days 0 hours 0 minutes 20 seconds 431 msec
