                         Program Version 4.2.1 -  RELEASE  -
|  1> ! wB97X-D3 SP def2-SVP
|  2> %pal
|  3> nprocs 24
|  4> end
|  5>
|  6> * xyz 0 1
|  7> S 	 -131.253 	 28.5005 	 -16.6123
|  8> C 	 -130.683 	 27.0235 	 -17.4045
|  9> C 	 -130.863 	 25.8758 	 -16.6731
| 10> C 	 -131.483 	 26.1188 	 -15.4367
| 11> C 	 -131.803 	 27.4687 	 -15.2189
| 12> H 	 -131.648 	 25.353 	 -14.7036
| 13> C 	 -130.372 	 24.4868 	 -17.1536
| 14> H 	 -129.85 	 24.5666 	 -18.1204
| 15> H 	 -131.195 	 23.8533 	 -17.4329
| 16> C 	 -129.52 	 23.6803 	 -16.1153
| 17> H 	 -130.093 	 23.4357 	 -15.2339
| 18> H 	 -129.394 	 22.643 	 -16.583
| 19> C 	 -128.194 	 24.3253 	 -15.8032
| 20> H 	 -127.828 	 24.7026 	 -16.7759
| 21> H 	 -128.264 	 25.2927 	 -15.2311
| 22> H 	 -127.635 	 23.71 	 -15.0912
| 23> S 	 -131.208 	 29.0317 	 -12.9861
| 24> C 	 -132.212 	 29.0175 	 -11.6261
| 25> C 	 -133.422 	 28.4398 	 -11.9143
| 26> C 	 -133.418 	 27.7465 	 -13.1655
| 27> C 	 -132.331 	 28.0861 	 -13.9469
| 28> H 	 -134.252 	 28.3337 	 -11.2038
| 29> C 	 -134.541 	 26.8494 	 -13.5587
| 30> H 	 -134.334 	 26.6987 	 -14.6133
| 31> H 	 -135.51 	 27.3878 	 -13.549
| 32> C 	 -134.691 	 25.5395 	 -12.8599
| 33> H 	 -134.997 	 25.779 	 -11.8413
| 34> H 	 -133.786 	 24.9955 	 -12.7221
| 35> C 	 -135.846 	 24.6158 	 -13.4736
| 36> H 	 -135.931 	 23.7149 	 -12.8905
| 37> H 	 -135.525 	 24.3386 	 -14.4252
| 38> H 	 -136.843 	 25.0746 	 -13.6959
| 39> H 	 -130.238 	 26.96 	 -18.4381
| 40> H 	 -132.027 	 29.6444 	 -10.7332
| 41> *
| 42>
| 43>                          ****END OF INPUT****

CARTESIAN COORDINATES (ANGSTROEM)
---------------------------------
  S    -131.253000   28.500500  -16.612300
  C    -130.683000   27.023500  -17.404500
  C    -130.863000   25.875800  -16.673100
  C    -131.483000   26.118800  -15.436700
  C    -131.803000   27.468700  -15.218900
  H    -131.648000   25.353000  -14.703600
  C    -130.372000   24.486800  -17.153600
  H    -129.850000   24.566600  -18.120400
  H    -131.195000   23.853300  -17.432900
  C    -129.520000   23.680300  -16.115300
  H    -130.093000   23.435700  -15.233900
  H    -129.394000   22.643000  -16.583000
  C    -128.194000   24.325300  -15.803200
  H    -127.828000   24.702600  -16.775900
  H    -128.264000   25.292700  -15.231100
  H    -127.635000   23.710000  -15.091200
  S    -131.208000   29.031700  -12.986100
  C    -132.212000   29.017500  -11.626100
  C    -133.422000   28.439800  -11.914300
  C    -133.418000   27.746500  -13.165500
  C    -132.331000   28.086100  -13.946900
  H    -134.252000   28.333700  -11.203800
  C    -134.541000   26.849400  -13.558700
  H    -134.334000   26.698700  -14.613300
  H    -135.510000   27.387800  -13.549000
  C    -134.691000   25.539500  -12.859900
  H    -134.997000   25.779000  -11.841300
  H    -133.786000   24.995500  -12.722100
  C    -135.846000   24.615800  -13.473600
  H    -135.931000   23.714900  -12.890500
  H    -135.525000   24.338600  -14.425200
  H    -136.843000   25.074600  -13.695900
  H    -130.238000   26.960000  -18.438100
  H    -132.027000   29.644400  -10.733200

 Total Charge           Charge          ....    0
 Multiplicity           Mult            ....    1
 Number of Electrons    NEL             ....  134
 Basis Dimension        Dim             ....  322

ORBITAL ENERGIES
----------------

  NO   OCC          E(Eh)            E(eV)
   0   2.0000     -88.970923     -2421.0219
   1   2.0000     -88.962409     -2420.7902
   2   2.0000     -10.341178      -281.3978
   3   2.0000     -10.327278      -281.0195
   4   2.0000     -10.318686      -280.7857
   5   2.0000     -10.315867      -280.7090
   6   2.0000     -10.300347      -280.2867
   7   2.0000     -10.300053      -280.2787
   8   2.0000     -10.298229      -280.2291
   9   2.0000     -10.297855      -280.2189
  10   2.0000     -10.293177      -280.0916
  11   2.0000     -10.291297      -280.0404
  12   2.0000     -10.286997      -279.9234
  13   2.0000     -10.284600      -279.8582
  14   2.0000     -10.280626      -279.7501
  15   2.0000     -10.279212      -279.7116
  16   2.0000      -8.084062      -219.9785
  17   2.0000      -8.078477      -219.8265
  18   2.0000      -6.042622      -164.4281
  19   2.0000      -6.038922      -164.3274
  20   2.0000      -6.036924      -164.2730
  21   2.0000      -6.034745      -164.2138
  22   2.0000      -6.032681      -164.1576
  23   2.0000      -6.029319      -164.0661
  24   2.0000      -1.006795       -27.3963
  25   2.0000      -0.982767       -26.7424
  26   2.0000      -0.912613       -24.8335
  27   2.0000      -0.906338       -24.6627
  28   2.0000      -0.863546       -23.4983
  29   2.0000      -0.850250       -23.1365
  30   2.0000      -0.845052       -22.9950
  31   2.0000      -0.812368       -22.1057
  32   2.0000      -0.784100       -21.3364
  33   2.0000      -0.773043       -21.0356
  34   2.0000      -0.710173       -19.3248
  35   2.0000      -0.700463       -19.0606
  36   2.0000      -0.687417       -18.7056
  37   2.0000      -0.658410       -17.9163
  38   2.0000      -0.634854       -17.2752
  39   2.0000      -0.622960       -16.9516
  40   2.0000      -0.599249       -16.3064
  41   2.0000      -0.564659       -15.3652
  42   2.0000      -0.561761       -15.2863
  43   2.0000      -0.558715       -15.2034
  44   2.0000      -0.529527       -14.4092
  45   2.0000      -0.526110       -14.3162
  46   2.0000      -0.515617       -14.0307
  47   2.0000      -0.510411       -13.8890
  48   2.0000      -0.505352       -13.7513
  49   2.0000      -0.489106       -13.3092
  50   2.0000      -0.485856       -13.2208
  51   2.0000      -0.477055       -12.9813
  52   2.0000      -0.471900       -12.8410
  53   2.0000      -0.461349       -12.5539
  54   2.0000      -0.457975       -12.4621
  55   2.0000      -0.452397       -12.3103
  56   2.0000      -0.447276       -12.1710
  57   2.0000      -0.443637       -12.0720
  58   2.0000      -0.438719       -11.9381
  59   2.0000      -0.430566       -11.7163
  60   2.0000      -0.420731       -11.4487
  61   2.0000      -0.407039       -11.0761
  62   2.0000      -0.402876       -10.9628
  63   2.0000      -0.343815        -9.3557
  64   2.0000      -0.333799        -9.0831
  65   2.0000      -0.328628        -8.9424
  66   2.0000      -0.298646        -8.1266
  67   0.0000       0.034262         0.9323
  68   0.0000       0.062833         1.7098
  69   0.0000       0.110503         3.0069
  70   0.0000       0.119688         3.2569
  71   0.0000       0.128994         3.5101

MULLIKEN ATOMIC CHARGES
-----------------------
   0 S :    0.106405
   1 C :   -0.141815
   2 C :   -0.075472
   3 C :    0.053446
   4 C :   -0.173738
   5 H :    0.006734
   6 C :    0.060160
   7 H :    0.017954
   8 H :    0.030297
   9 C :   -0.105826
  10 H :    0.024574
  11 H :    0.035540
  12 C :   -0.037751
  13 H :    0.031320
  14 H :    0.039467
  15 H :    0.043820
  16 S :    0.108374
  17 C :   -0.096136
  18 C :   -0.024577
  19 C :   -0.073880
  20 C :   -0.125064
  21 H :    0.024111
  22 C :    0.054507
  23 H :    0.015331
  24 H :    0.034382
  25 C :   -0.057407
  26 H :    0.016727
  27 H :    0.022317
  28 C :   -0.034809
  29 H :    0.036049
  30 H :    0.011587
  31 H :    0.037510
  32 H :    0.062680
  33 H :    0.073179
Sum of atomic charges:   -0.0000000

LOEWDIN ATOMIC CHARGES
----------------------
   0 S :    0.373137
   1 C :   -0.197099
   2 C :   -0.071752
   3 C :   -0.051371
   4 C :   -0.171681
   5 H :    0.030149
   6 C :   -0.030206
   7 H :    0.029241
   8 H :    0.029942
   9 C :   -0.047893
  10 H :    0.016901
  11 H :    0.032456
  12 C :   -0.076675
  13 H :    0.031404
  14 H :    0.033995
  15 H :    0.030937
  16 S :    0.429209
  17 C :   -0.204115
  18 C :   -0.077269
  19 C :   -0.054366
  20 C :   -0.208015
  21 H :    0.032251
  22 C :   -0.041351
  23 H :    0.027916
  24 H :    0.037957
  25 C :   -0.032762
  26 H :    0.020145
  27 H :    0.019940
  28 C :   -0.060788
  29 H :    0.025686
  30 H :    0.014710
  31 H :    0.032524
  32 H :    0.038892
  33 H :    0.037949

  Mayer bond orders larger than 0.100000
B(  0-S ,  1-C ) :   1.1324 B(  0-S ,  4-C ) :   1.1397 B(  1-C ,  2-C ) :   1.6393
B(  1-C , 32-H ) :   0.9511 B(  2-C ,  3-C ) :   1.2489 B(  2-C ,  6-C ) :   1.0086
B(  3-C ,  4-C ) :   1.5766 B(  3-C ,  5-H ) :   0.9943 B(  4-C , 20-C ) :   0.9935
B(  6-C ,  7-H ) :   0.9440 B(  6-C ,  8-H ) :   0.9368 B(  6-C ,  9-C ) :   1.0786
B(  9-C , 10-H ) :   0.9527 B(  9-C , 11-H ) :   0.9515 B(  9-C , 12-C ) :   1.0725
B( 12-C , 13-H ) :   0.9720 B( 12-C , 14-H ) :   0.9695 B( 12-C , 15-H ) :   0.9711
B( 16-S , 17-C ) :   1.1862 B( 16-S , 20-C ) :   1.1418 B( 17-C , 18-C ) :   1.5834
B( 17-C , 33-H ) :   0.9591 B( 18-C , 19-C ) :   1.2509 B( 18-C , 21-H ) :   0.9863
B( 19-C , 20-C ) :   1.6049 B( 19-C , 22-C ) :   1.0525 B( 22-C , 23-H ) :   0.9303
B( 22-C , 24-H ) :   0.9336 B( 22-C , 25-C ) :   1.0641 B( 25-C , 26-H ) :   0.9520
B( 25-C , 27-H ) :   0.9551 B( 25-C , 28-C ) :   1.0729 B( 28-C , 29-H ) :   0.9761
B( 28-C , 30-H ) :   0.9760 B( 28-C , 31-H ) :   0.9758

Dispersion correction           -0.014437392
FINAL SINGLE POINT ENERGY     -1339.874222675408

DIPOLE MOMENT
-------------
                                X             Y             Z
Electronic contribution:      4.98599      25.70498      -0.25914
Nuclear contribution   :     -5.16329     -26.36057       0.40816
                        -----------------------------------------
Total Dipole Moment    :     -0.17730      -0.65559       0.14902
                        -----------------------------------------
Magnitude (a.u.)       :      0.69530
Magnitude (Debye)      :      1.76731

Rotational constants in cm-1:     0.016106     0.009132     0.007349
Rotational constants in MHz :   482.852493   273.779412   220.325039

                             ****ORCA TERMINATED NORMALLY****
TOTAL RUN TIME: 0 days 0 hours 0 minutes 21 seconds 491 msec
