                         Program Version 4.2.1 -  RELEASE  -
|  1> ! wB97X-D3 SP def2-SVP
|  2> %pal
|  3> nprocs 24
|  4> end
|  5>
|  6> * xyz 0 1
|  7> S 	 -52.3684 	 -50.059 	 -77.4491
|  8> C 	 -53.8618 	 -49.3131 	 -76.9424
|  9> C 	 -53.7763 	 -47.9046 	 -77.0667
| 10> C 	 -52.5131 	 -47.5317 	 -77.6327
| 11> C 	 -51.6659 	 -48.5942 	 -77.9256
| 12> H 	 -52.2051 	 -46.5433 	 -77.8479
| 13> C 	 -54.829 	 -46.831 	 -76.621
| 14> H 	 -54.6061 	 -45.9807 	 -77.2638
| 15> H 	 -54.4451 	 -46.5696 	 -75.6002
| 16> C 	 -56.3621 	 -47.1467 	 -76.7471
| 17> H 	 -56.4964 	 -47.2039 	 -77.8172
| 18> H 	 -56.6118 	 -48.0385 	 -76.2716
| 19> C 	 -57.2072 	 -46.0374 	 -76.1007
| 20> H 	 -57.1233 	 -45.0143 	 -76.5718
| 21> H 	 -58.3067 	 -46.2122 	 -76.2664
| 22> H 	 -57.0778 	 -45.9979 	 -75.0586
| 23> S 	 -49.1173 	 -49.47 	 -77.2445
| 24> C 	 -47.8849 	 -49.3014 	 -78.4113
| 25> C 	 -48.2374 	 -48.3349 	 -79.3982
| 26> C 	 -49.6308 	 -47.9505 	 -79.4092
| 27> C 	 -50.2442 	 -48.605 	 -78.3411
| 28> H 	 -47.4693 	 -47.8585 	 -80.0014
| 29> C 	 -50.1548 	 -47.0598 	 -80.5255
| 30> H 	 -50.4742 	 -46.0799 	 -80.0083
| 31> H 	 -51.0431 	 -47.5218 	 -80.8676
| 32> C 	 -49.2251 	 -46.8487 	 -81.7297
| 33> H 	 -48.3305 	 -46.4041 	 -81.4299
| 34> H 	 -49.7196 	 -46.007 	 -82.2733
| 35> C 	 -48.9726 	 -48.0871 	 -82.5951
| 36> H 	 -48.0918 	 -47.9398 	 -83.207
| 37> H 	 -49.8084 	 -48.3712 	 -83.1931
| 38> H 	 -48.639 	 -49.0012 	 -82.0653
| 39> H 	 -54.7613 	 -49.7428 	 -76.5484
| 40> H 	 -46.8133 	 -49.2908 	 -78.1856
| 41> *
| 42>
| 43>                          ****END OF INPUT****

CARTESIAN COORDINATES (ANGSTROEM)
---------------------------------
  S    -52.368400  -50.059000  -77.449100
  C    -53.861800  -49.313100  -76.942400
  C    -53.776300  -47.904600  -77.066700
  C    -52.513100  -47.531700  -77.632700
  C    -51.665900  -48.594200  -77.925600
  H    -52.205100  -46.543300  -77.847900
  C    -54.829000  -46.831000  -76.621000
  H    -54.606100  -45.980700  -77.263800
  H    -54.445100  -46.569600  -75.600200
  C    -56.362100  -47.146700  -76.747100
  H    -56.496400  -47.203900  -77.817200
  H    -56.611800  -48.038500  -76.271600
  C    -57.207200  -46.037400  -76.100700
  H    -57.123300  -45.014300  -76.571800
  H    -58.306700  -46.212200  -76.266400
  H    -57.077800  -45.997900  -75.058600
  S    -49.117300  -49.470000  -77.244500
  C    -47.884900  -49.301400  -78.411300
  C    -48.237400  -48.334900  -79.398200
  C    -49.630800  -47.950500  -79.409200
  C    -50.244200  -48.605000  -78.341100
  H    -47.469300  -47.858500  -80.001400
  C    -50.154800  -47.059800  -80.525500
  H    -50.474200  -46.079900  -80.008300
  H    -51.043100  -47.521800  -80.867600
  C    -49.225100  -46.848700  -81.729700
  H    -48.330500  -46.404100  -81.429900
  H    -49.719600  -46.007000  -82.273300
  C    -48.972600  -48.087100  -82.595100
  H    -48.091800  -47.939800  -83.207000
  H    -49.808400  -48.371200  -83.193100
  H    -48.639000  -49.001200  -82.065300
  H    -54.761300  -49.742800  -76.548400
  H    -46.813300  -49.290800  -78.185600

 Total Charge           Charge          ....    0
 Multiplicity           Mult            ....    1
 Number of Electrons    NEL             ....  134
 Basis Dimension        Dim             ....  322

ORBITAL ENERGIES
----------------

  NO   OCC          E(Eh)            E(eV)
   0   2.0000     -88.969215     -2420.9754
   1   2.0000     -88.964979     -2420.8601
   2   2.0000     -10.331935      -281.1462
   3   2.0000     -10.323378      -280.9134
   4   2.0000     -10.311691      -280.5954
   5   2.0000     -10.310056      -280.5509
   6   2.0000     -10.306035      -280.4415
   7   2.0000     -10.304665      -280.4042
   8   2.0000     -10.300533      -280.2917
   9   2.0000     -10.299528      -280.2644
  10   2.0000     -10.295591      -280.1573
  11   2.0000     -10.290553      -280.0202
  12   2.0000     -10.290071      -280.0071
  13   2.0000     -10.288702      -279.9698
  14   2.0000     -10.284391      -279.8525
  15   2.0000     -10.277274      -279.6588
  16   2.0000      -8.083590      -219.9657
  17   2.0000      -8.080333      -219.8770
  18   2.0000      -6.042075      -164.4132
  19   2.0000      -6.038754      -164.3228
  20   2.0000      -6.038300      -164.3105
  21   2.0000      -6.034521      -164.2077
  22   2.0000      -6.034232      -164.1998
  23   2.0000      -6.031375      -164.1220
  24   2.0000      -1.005173       -27.3521
  25   2.0000      -0.980541       -26.6819
  26   2.0000      -0.913304       -24.8523
  27   2.0000      -0.905357       -24.6360
  28   2.0000      -0.863012       -23.4837
  29   2.0000      -0.852863       -23.2076
  30   2.0000      -0.841321       -22.8935
  31   2.0000      -0.805904       -21.9298
  32   2.0000      -0.788164       -21.4470
  33   2.0000      -0.771949       -21.0058
  34   2.0000      -0.711903       -19.3719
  35   2.0000      -0.710751       -19.3405
  36   2.0000      -0.688870       -18.7451
  37   2.0000      -0.653885       -17.7931
  38   2.0000      -0.636846       -17.3295
  39   2.0000      -0.610361       -16.6088
  40   2.0000      -0.594032       -16.1644
  41   2.0000      -0.577555       -15.7161
  42   2.0000      -0.562831       -15.3154
  43   2.0000      -0.550799       -14.9880
  44   2.0000      -0.531727       -14.4690
  45   2.0000      -0.520655       -14.1677
  46   2.0000      -0.516289       -14.0489
  47   2.0000      -0.505156       -13.7460
  48   2.0000      -0.504191       -13.7197
  49   2.0000      -0.497553       -13.5391
  50   2.0000      -0.489562       -13.3217
  51   2.0000      -0.472113       -12.8468
  52   2.0000      -0.469876       -12.7860
  53   2.0000      -0.467862       -12.7312
  54   2.0000      -0.461578       -12.5602
  55   2.0000      -0.451756       -12.2929
  56   2.0000      -0.443067       -12.0565
  57   2.0000      -0.441054       -12.0017
  58   2.0000      -0.438443       -11.9307
  59   2.0000      -0.424586       -11.5536
  60   2.0000      -0.421134       -11.4596
  61   2.0000      -0.418684       -11.3930
  62   2.0000      -0.416380       -11.3303
  63   2.0000      -0.342729        -9.3261
  64   2.0000      -0.331810        -9.0290
  65   2.0000      -0.322137        -8.7658
  66   2.0000      -0.288300        -7.8450
  67   0.0000       0.029593         0.8053
  68   0.0000       0.065270         1.7761
  69   0.0000       0.105780         2.8784
  70   0.0000       0.126626         3.4457
  71   0.0000       0.131537         3.5793

MULLIKEN ATOMIC CHARGES
-----------------------
   0 S :    0.123016
   1 C :   -0.116824
   2 C :   -0.112441
   3 C :    0.042189
   4 C :   -0.162212
   5 H :   -0.014900
   6 C :    0.026834
   7 H :    0.025123
   8 H :    0.051657
   9 C :   -0.028272
  10 H :    0.038491
  11 H :    0.023722
  12 C :   -0.074845
  13 H :    0.037782
  14 H :    0.034414
  15 H :    0.032210
  16 S :    0.127087
  17 C :   -0.067451
  18 C :   -0.099797
  19 C :   -0.034157
  20 C :   -0.184593
  21 H :    0.024020
  22 C :    0.079856
  23 H :    0.052691
  24 H :    0.025042
  25 C :   -0.056410
  26 H :    0.011344
  27 H :    0.034841
  28 C :   -0.045820
  29 H :    0.027532
  30 H :    0.036227
  31 H :    0.043202
  32 H :    0.034885
  33 H :    0.065558
Sum of atomic charges:    0.0000000

LOEWDIN ATOMIC CHARGES
----------------------
   0 S :    0.442428
   1 C :   -0.217089
   2 C :   -0.059554
   3 C :   -0.069604
   4 C :   -0.217330
   5 H :    0.020141
   6 C :   -0.032937
   7 H :    0.028558
   8 H :    0.038347
   9 C :   -0.029741
  10 H :    0.030002
  11 H :    0.015417
  12 C :   -0.069131
  13 H :    0.031207
  14 H :    0.031972
  15 H :    0.018504
  16 S :    0.415052
  17 C :   -0.227309
  18 C :   -0.064782
  19 C :   -0.054632
  20 C :   -0.186653
  21 H :    0.026457
  22 C :   -0.030085
  23 H :    0.044877
  24 H :    0.029679
  25 C :   -0.040662
  26 H :    0.012858
  27 H :    0.036537
  28 C :   -0.068123
  29 H :    0.029359
  30 H :    0.024114
  31 H :    0.034305
  32 H :    0.024073
  33 H :    0.033741

  Mayer bond orders larger than 0.100000
B(  0-S ,  1-C ) :   1.1476 B(  0-S ,  4-C ) :   1.1851 B(  1-C ,  2-C ) :   1.5803
B(  1-C , 32-H ) :   0.9735 B(  2-C ,  3-C ) :   1.2803 B(  2-C ,  6-C ) :   0.9934
B(  3-C ,  4-C ) :   1.5419 B(  3-C ,  5-H ) :   1.0007 B(  4-C , 20-C ) :   1.0157
B(  6-C ,  7-H ) :   0.9499 B(  6-C ,  8-H ) :   0.9427 B(  6-C ,  9-C ) :   1.0532
B(  9-C , 10-H ) :   0.9593 B(  9-C , 11-H ) :   0.9564 B(  9-C , 12-C ) :   1.0876
B( 12-C , 13-H ) :   0.9751 B( 12-C , 14-H ) :   0.9732 B( 12-C , 15-H ) :   0.9772
B( 16-S , 17-C ) :   1.1517 B( 16-S , 20-C ) :   1.1641 B( 17-C , 18-C ) :   1.5995
B( 17-C , 33-H ) :   0.9514 B( 18-C , 19-C ) :   1.2650 B( 18-C , 21-H ) :   0.9694
B( 19-C , 20-C ) :   1.5884 B( 19-C , 22-C ) :   1.0174 B( 22-C , 23-H ) :   0.9264
B( 22-C , 24-H ) :   0.9282 B( 22-C , 25-C ) :   1.0885 B( 25-C , 26-H ) :   0.9491
B( 25-C , 27-H ) :   0.9482 B( 25-C , 28-C ) :   1.0709 B( 28-C , 29-H ) :   0.9717
B( 28-C , 30-H ) :   0.9752 B( 28-C , 31-H ) :   0.9721

Dispersion correction           -0.013529000
FINAL SINGLE POINT ENERGY     -1339.858311193868

DIPOLE MOMENT
-------------
                                X             Y             Z
Electronic contribution:     13.31817     -17.34470      10.96089
Nuclear contribution   :    -13.50507      18.10466     -11.18443
                        -----------------------------------------
Total Dipole Moment    :     -0.18690       0.75996      -0.22354
                        -----------------------------------------
Magnitude (a.u.)       :      0.81390
Magnitude (Debye)      :      2.06877

Rotational constants in cm-1:     0.022766     0.006692     0.005647
Rotational constants in MHz :   682.513991   200.619252   169.292925

                             ****ORCA TERMINATED NORMALLY****
TOTAL RUN TIME: 0 days 0 hours 0 minutes 19 seconds 525 msec
