                         Program Version 4.2.1 -  RELEASE  -
|  1> ! wB97X-D3 SP def2-SVP
|  2> %pal
|  3> nprocs 24
|  4> end
|  5>
|  6> * xyz 0 1
|  7> S 	 29.7775 	 1.40586 	 -115.456
|  8> C 	 28.2095 	 2.16384 	 -115.923
|  9> C 	 27.0957 	 1.4425 	 -115.487
| 10> C 	 27.5307 	 0.353911 	 -114.656
| 11> C 	 28.9009 	 0.383203 	 -114.31
| 12> H 	 26.8986 	 -0.363639 	 -114.048
| 13> C 	 25.643 	 1.55953 	 -115.878
| 14> H 	 25.2435 	 0.812902 	 -116.563
| 15> H 	 25.5726 	 2.43835 	 -116.477
| 16> C 	 24.658 	 1.69789 	 -114.705
| 17> H 	 24.4723 	 0.683854 	 -114.274
| 18> H 	 24.9911 	 2.418 	 -113.885
| 19> C 	 23.2173 	 1.97587 	 -115.138
| 20> H 	 22.9619 	 2.89075 	 -115.66
| 21> H 	 22.8289 	 1.09285 	 -115.759
| 22> H 	 22.6511 	 1.796 	 -114.178
| 23> S 	 30.9033 	 -1.39194 	 -113.977
| 24> C 	 31.1786 	 -1.99081 	 -112.444
| 25> C 	 30.5429 	 -1.33277 	 -111.385
| 26> C 	 29.6529 	 -0.429689 	 -111.948
| 27> C 	 29.6019 	 -0.437458 	 -113.368
| 28> H 	 30.819 	 -1.47813 	 -110.35
| 29> C 	 28.8969 	 0.612004 	 -111.189
| 30> H 	 28.2546 	 1.13613 	 -111.805
| 31> H 	 29.6999 	 1.32724 	 -110.825
| 32> C 	 28.2589 	 -0.0104407 	 -109.899
| 33> H 	 28.9813 	 -0.639673 	 -109.417
| 34> H 	 27.4924 	 -0.747025 	 -110.238
| 35> C 	 27.7423 	 0.946604 	 -108.93
| 36> H 	 28.6027 	 1.40222 	 -108.466
| 37> H 	 27.1582 	 0.51282 	 -108.144
| 38> H 	 27.1018 	 1.73083 	 -109.461
| 39> H 	 28.0804 	 2.99861 	 -116.609
| 40> H 	 31.9748 	 -2.64263 	 -112.353
| 41> *
| 42>
| 43>                          ****END OF INPUT****

CARTESIAN COORDINATES (ANGSTROEM)
---------------------------------
  S     29.777500    1.405860  -115.456000
  C     28.209500    2.163840  -115.923000
  C     27.095700    1.442500  -115.487000
  C     27.530700    0.353911  -114.656000
  C     28.900900    0.383203  -114.310000
  H     26.898600   -0.363639  -114.048000
  C     25.643000    1.559530  -115.878000
  H     25.243500    0.812902  -116.563000
  H     25.572600    2.438350  -116.477000
  C     24.658000    1.697890  -114.705000
  H     24.472300    0.683854  -114.274000
  H     24.991100    2.418000  -113.885000
  C     23.217300    1.975870  -115.138000
  H     22.961900    2.890750  -115.660000
  H     22.828900    1.092850  -115.759000
  H     22.651100    1.796000  -114.178000
  S     30.903300   -1.391940  -113.977000
  C     31.178600   -1.990810  -112.444000
  C     30.542900   -1.332770  -111.385000
  C     29.652900   -0.429689  -111.948000
  C     29.601900   -0.437458  -113.368000
  H     30.819000   -1.478130  -110.350000
  C     28.896900    0.612004  -111.189000
  H     28.254600    1.136130  -111.805000
  H     29.699900    1.327240  -110.825000
  C     28.258900   -0.010441  -109.899000
  H     28.981300   -0.639673  -109.417000
  H     27.492400   -0.747025  -110.238000
  C     27.742300    0.946604  -108.930000
  H     28.602700    1.402220  -108.466000
  H     27.158200    0.512820  -108.144000
  H     27.101800    1.730830  -109.461000
  H     28.080400    2.998610  -116.609000
  H     31.974800   -2.642630  -112.353000

 Total Charge           Charge          ....    0
 Multiplicity           Mult            ....    1
 Number of Electrons    NEL             ....  134
 Basis Dimension        Dim             ....  322

ORBITAL ENERGIES
----------------

  NO   OCC          E(Eh)            E(eV)
   0   2.0000     -88.966426     -2420.8995
   1   2.0000     -88.966292     -2420.8959
   2   2.0000     -10.328678      -281.0576
   3   2.0000     -10.319270      -280.8016
   4   2.0000     -10.316529      -280.7270
   5   2.0000     -10.308902      -280.5195
   6   2.0000     -10.304975      -280.4126
   7   2.0000     -10.301493      -280.3179
   8   2.0000     -10.297555      -280.2107
   9   2.0000     -10.296197      -280.1738
  10   2.0000     -10.293661      -280.1048
  11   2.0000     -10.291535      -280.0469
  12   2.0000     -10.288171      -279.9554
  13   2.0000     -10.285410      -279.8802
  14   2.0000     -10.279923      -279.7309
  15   2.0000     -10.273804      -279.5644
  16   2.0000      -8.083286      -219.9574
  17   2.0000      -8.080067      -219.8698
  18   2.0000      -6.041194      -164.3893
  19   2.0000      -6.038690      -164.3211
  20   2.0000      -6.037595      -164.2913
  21   2.0000      -6.035003      -164.2208
  22   2.0000      -6.034435      -164.2053
  23   2.0000      -6.030505      -164.0984
  24   2.0000      -1.013908       -27.5898
  25   2.0000      -0.979795       -26.6616
  26   2.0000      -0.916146       -24.9296
  27   2.0000      -0.912058       -24.8184
  28   2.0000      -0.870765       -23.6947
  29   2.0000      -0.862981       -23.4829
  30   2.0000      -0.842366       -22.9219
  31   2.0000      -0.809755       -22.0346
  32   2.0000      -0.784986       -21.3606
  33   2.0000      -0.769100       -20.9283
  34   2.0000      -0.702314       -19.1109
  35   2.0000      -0.701269       -19.0825
  36   2.0000      -0.687424       -18.7058
  37   2.0000      -0.657385       -17.8884
  38   2.0000      -0.638566       -17.3763
  39   2.0000      -0.612775       -16.6745
  40   2.0000      -0.604350       -16.4452
  41   2.0000      -0.574340       -15.6286
  42   2.0000      -0.567465       -15.4415
  43   2.0000      -0.559351       -15.2207
  44   2.0000      -0.530964       -14.4483
  45   2.0000      -0.526669       -14.3314
  46   2.0000      -0.517722       -14.0879
  47   2.0000      -0.511721       -13.9246
  48   2.0000      -0.497323       -13.5328
  49   2.0000      -0.493728       -13.4350
  50   2.0000      -0.491077       -13.3629
  51   2.0000      -0.481994       -13.1157
  52   2.0000      -0.472324       -12.8526
  53   2.0000      -0.468109       -12.7379
  54   2.0000      -0.461605       -12.5609
  55   2.0000      -0.455058       -12.3828
  56   2.0000      -0.441611       -12.0169
  57   2.0000      -0.432899       -11.7798
  58   2.0000      -0.428749       -11.6669
  59   2.0000      -0.425502       -11.5785
  60   2.0000      -0.420174       -11.4335
  61   2.0000      -0.413912       -11.2631
  62   2.0000      -0.412766       -11.2319
  63   2.0000      -0.337797        -9.1919
  64   2.0000      -0.330794        -9.0014
  65   2.0000      -0.328761        -8.9461
  66   2.0000      -0.284827        -7.7505
  67   0.0000       0.029544         0.8039
  68   0.0000       0.053664         1.4603
  69   0.0000       0.099692         2.7127
  70   0.0000       0.114936         3.1276
  71   0.0000       0.134827         3.6688

MULLIKEN ATOMIC CHARGES
-----------------------
   0 S :    0.099443
   1 C :   -0.108155
   2 C :   -0.079729
   3 C :    0.026395
   4 C :   -0.188890
   5 H :    0.036918
   6 C :    0.111343
   7 H :    0.036670
   8 H :   -0.003718
   9 C :   -0.130584
  10 H :    0.034941
  11 H :    0.054994
  12 C :   -0.081840
  13 H :    0.046616
  14 H :    0.031324
  15 H :    0.040874
  16 S :    0.125064
  17 C :   -0.055455
  18 C :   -0.046019
  19 C :   -0.031644
  20 C :   -0.177206
  21 H :    0.027378
  22 C :    0.107882
  23 H :    0.010647
  24 H :    0.038241
  25 C :   -0.109679
  26 H :    0.011938
  27 H :    0.027405
  28 C :   -0.011188
  29 H :    0.022745
  30 H :    0.029807
  31 H :    0.036226
  32 H :    0.041785
  33 H :    0.025471
Sum of atomic charges:   -0.0000000

LOEWDIN ATOMIC CHARGES
----------------------
   0 S :    0.369212
   1 C :   -0.181538
   2 C :   -0.062173
   3 C :   -0.065982
   4 C :   -0.190895
   5 H :    0.038992
   6 C :   -0.036516
   7 H :    0.037968
   8 H :    0.023585
   9 C :   -0.050283
  10 H :    0.029829
  11 H :    0.033683
  12 C :   -0.076718
  13 H :    0.018964
  14 H :    0.030654
  15 H :    0.036116
  16 S :    0.462357
  17 C :   -0.185109
  18 C :   -0.074427
  19 C :   -0.042976
  20 C :   -0.231827
  21 H :    0.036079
  22 C :   -0.019100
  23 H :    0.016561
  24 H :    0.041642
  25 C :   -0.047714
  26 H :    0.016701
  27 H :    0.025108
  28 C :   -0.065654
  29 H :    0.024145
  30 H :    0.024045
  31 H :    0.032887
  32 H :    0.026105
  33 H :    0.006281

  Mayer bond orders larger than 0.100000
B(  0-S ,  1-C ) :   1.1179 B(  0-S ,  4-C ) :   1.1242 B(  1-C ,  2-C ) :   1.6386
B(  1-C ,  4-C ) :   0.1022 B(  1-C , 32-H ) :   0.9625 B(  2-C ,  3-C ) :   1.2078
B(  2-C ,  6-C ) :   1.0317 B(  3-C ,  4-C ) :   1.5952 B(  3-C ,  5-H ) :   0.9781
B(  4-C , 20-C ) :   1.0745 B(  6-C ,  7-H ) :   0.9356 B(  6-C ,  8-H ) :   0.9324
B(  6-C ,  9-C ) :   1.0582 B(  9-C , 10-H ) :   0.9523 B(  9-C , 11-H ) :   0.9595
B(  9-C , 12-C ) :   1.0743 B( 12-C , 13-H ) :   0.9764 B( 12-C , 14-H ) :   0.9714
B( 12-C , 15-H ) :   0.9751 B( 16-S , 17-C ) :   1.2328 B( 16-S , 20-C ) :   1.1579
B( 17-C , 18-C ) :   1.5186 B( 17-C , 20-C ) :   0.1090 B( 17-C , 33-H ) :   0.9732
B( 18-C , 19-C ) :   1.2966 B( 18-C , 21-H ) :   0.9984 B( 19-C , 20-C ) :   1.5196
B( 19-C , 22-C ) :   1.0516 B( 22-C , 23-H ) :   0.9284 B( 22-C , 24-H ) :   0.9296
B( 22-C , 25-C ) :   1.0489 B( 25-C , 26-H ) :   0.9552 B( 25-C , 27-H ) :   0.9527
B( 25-C , 28-C ) :   1.0982 B( 28-C , 29-H ) :   0.9702 B( 28-C , 30-H ) :   0.9688
B( 28-C , 31-H ) :   0.9701

Dispersion correction           -0.013536991
FINAL SINGLE POINT ENERGY     -1339.847230849839

DIPOLE MOMENT
-------------
                                X             Y             Z
Electronic contribution:     26.75901      -7.72414     -14.54412
Nuclear contribution   :    -27.11376       7.75046      14.90447
                        -----------------------------------------
Total Dipole Moment    :     -0.35475       0.02632       0.36035
                        -----------------------------------------
Magnitude (a.u.)       :      0.50635
Magnitude (Debye)      :      1.28705

Rotational constants in cm-1:     0.016394     0.008907     0.006421
Rotational constants in MHz :   491.474503   267.014866   192.502759

                             ****ORCA TERMINATED NORMALLY****
TOTAL RUN TIME: 0 days 0 hours 0 minutes 21 seconds 245 msec
