                         Program Version 4.2.1 -  RELEASE  -
|  1> ! wB97X-D3 SP def2-SVP
|  2> %pal
|  3> nprocs 24
|  4> end
|  5>
|  6> * xyz 0 1
|  7> S 	 26.3173 	 -8.55503 	 -120.687
|  8> C 	 26.2458 	 -8.28273 	 -122.483
|  9> C 	 27.3494 	 -7.57164 	 -122.886
| 10> C 	 28.2712 	 -7.31225 	 -121.785
| 11> C 	 27.9234 	 -7.83807 	 -120.598
| 12> H 	 29.2144 	 -6.73396 	 -121.931
| 13> C 	 27.7013 	 -7.05809 	 -124.327
| 14> H 	 26.9726 	 -7.37048 	 -124.935
| 15> H 	 28.4676 	 -7.6566 	 -124.796
| 16> C 	 28.0763 	 -5.59025 	 -124.532
| 17> H 	 29.0856 	 -5.43587 	 -124.267
| 18> H 	 28.0991 	 -5.37683 	 -125.548
| 19> C 	 27.1456 	 -4.62937 	 -123.81
| 20> H 	 27.1708 	 -4.77874 	 -122.714
| 21> H 	 27.5201 	 -3.63431 	 -124.022
| 22> H 	 26.0818 	 -4.61989 	 -124.123
| 23> S 	 29.0627 	 -6.36074 	 -118.531
| 24> C 	 29.6891 	 -7.20373 	 -117.185
| 25> C 	 29.8224 	 -8.55519 	 -117.444
| 26> C 	 29.1854 	 -8.97951 	 -118.637
| 27> C 	 28.6931 	 -7.89492 	 -119.387
| 28> H 	 30.3504 	 -9.14666 	 -116.685
| 29> C 	 29.1874 	 -10.409 	 -119.103
| 30> H 	 30.2704 	 -10.7709 	 -119.101
| 31> H 	 28.9293 	 -10.502 	 -120.115
| 32> C 	 28.2559 	 -11.3394 	 -118.316
| 33> H 	 27.3042 	 -10.785 	 -118.123
| 34> H 	 28.6817 	 -11.5185 	 -117.312
| 35> C 	 27.9047 	 -12.6516 	 -118.999
| 36> H 	 26.9616 	 -12.9684 	 -118.566
| 37> H 	 28.5598 	 -13.4582 	 -118.677
| 38> H 	 27.6105 	 -12.5205 	 -120.078
| 39> H 	 25.5245 	 -8.66779 	 -123.202
| 40> H 	 30.0085 	 -6.77409 	 -116.264
| 41> *
| 42>
| 43>                          ****END OF INPUT****

CARTESIAN COORDINATES (ANGSTROEM)
---------------------------------
  S     26.317300   -8.555030  -120.687000
  C     26.245800   -8.282730  -122.483000
  C     27.349400   -7.571640  -122.886000
  C     28.271200   -7.312250  -121.785000
  C     27.923400   -7.838070  -120.598000
  H     29.214400   -6.733960  -121.931000
  C     27.701300   -7.058090  -124.327000
  H     26.972600   -7.370480  -124.935000
  H     28.467600   -7.656600  -124.796000
  C     28.076300   -5.590250  -124.532000
  H     29.085600   -5.435870  -124.267000
  H     28.099100   -5.376830  -125.548000
  C     27.145600   -4.629370  -123.810000
  H     27.170800   -4.778740  -122.714000
  H     27.520100   -3.634310  -124.022000
  H     26.081800   -4.619890  -124.123000
  S     29.062700   -6.360740  -118.531000
  C     29.689100   -7.203730  -117.185000
  C     29.822400   -8.555190  -117.444000
  C     29.185400   -8.979510  -118.637000
  C     28.693100   -7.894920  -119.387000
  H     30.350400   -9.146660  -116.685000
  C     29.187400  -10.409000  -119.103000
  H     30.270400  -10.770900  -119.101000
  H     28.929300  -10.502000  -120.115000
  C     28.255900  -11.339400  -118.316000
  H     27.304200  -10.785000  -118.123000
  H     28.681700  -11.518500  -117.312000
  C     27.904700  -12.651600  -118.999000
  H     26.961600  -12.968400  -118.566000
  H     28.559800  -13.458200  -118.677000
  H     27.610500  -12.520500  -120.078000
  H     25.524500   -8.667790  -123.202000
  H     30.008500   -6.774090  -116.264000

 Total Charge           Charge          ....    0
 Multiplicity           Mult            ....    1
 Number of Electrons    NEL             ....  134
 Basis Dimension        Dim             ....  322

ORBITAL ENERGIES
----------------

  NO   OCC          E(Eh)            E(eV)
   0   2.0000     -88.965514     -2420.8747
   1   2.0000     -88.964623     -2420.8505
   2   2.0000     -10.327402      -281.0229
   3   2.0000     -10.326429      -280.9964
   4   2.0000     -10.319340      -280.8035
   5   2.0000     -10.313548      -280.6459
   6   2.0000     -10.306395      -280.4513
   7   2.0000     -10.306185      -280.4456
   8   2.0000     -10.293319      -280.0955
   9   2.0000     -10.292454      -280.0719
  10   2.0000     -10.286546      -279.9112
  11   2.0000     -10.284522      -279.8561
  12   2.0000     -10.283408      -279.8258
  13   2.0000     -10.278701      -279.6977
  14   2.0000     -10.276667      -279.6423
  15   2.0000     -10.274503      -279.5834
  16   2.0000      -8.080329      -219.8769
  17   2.0000      -8.078085      -219.8159
  18   2.0000      -6.038700      -164.3214
  19   2.0000      -6.036942      -164.2735
  20   2.0000      -6.034827      -164.2160
  21   2.0000      -6.032889      -164.1633
  22   2.0000      -6.031232      -164.1182
  23   2.0000      -6.028405      -164.0412
  24   2.0000      -1.003632       -27.3102
  25   2.0000      -0.979801       -26.6617
  26   2.0000      -0.912117       -24.8200
  27   2.0000      -0.907243       -24.6873
  28   2.0000      -0.870617       -23.6907
  29   2.0000      -0.851120       -23.1602
  30   2.0000      -0.836981       -22.7754
  31   2.0000      -0.813349       -22.1324
  32   2.0000      -0.788431       -21.4543
  33   2.0000      -0.774777       -21.0827
  34   2.0000      -0.711271       -19.3547
  35   2.0000      -0.700209       -19.0537
  36   2.0000      -0.690870       -18.7995
  37   2.0000      -0.659127       -17.9357
  38   2.0000      -0.631793       -17.1920
  39   2.0000      -0.620117       -16.8742
  40   2.0000      -0.600458       -16.3393
  41   2.0000      -0.565291       -15.3823
  42   2.0000      -0.561974       -15.2921
  43   2.0000      -0.549158       -14.9434
  44   2.0000      -0.543718       -14.7953
  45   2.0000      -0.522323       -14.2131
  46   2.0000      -0.514394       -13.9974
  47   2.0000      -0.511615       -13.9218
  48   2.0000      -0.505102       -13.7445
  49   2.0000      -0.499023       -13.5791
  50   2.0000      -0.488244       -13.2858
  51   2.0000      -0.475417       -12.9367
  52   2.0000      -0.473577       -12.8867
  53   2.0000      -0.463922       -12.6240
  54   2.0000      -0.456768       -12.4293
  55   2.0000      -0.447959       -12.1896
  56   2.0000      -0.442425       -12.0390
  57   2.0000      -0.432352       -11.7649
  58   2.0000      -0.426761       -11.6128
  59   2.0000      -0.425753       -11.5853
  60   2.0000      -0.419684       -11.4202
  61   2.0000      -0.413496       -11.2518
  62   2.0000      -0.406487       -11.0611
  63   2.0000      -0.339525        -9.2389
  64   2.0000      -0.332368        -9.0442
  65   2.0000      -0.326367        -8.8809
  66   2.0000      -0.298956        -8.1350
  67   0.0000       0.034727         0.9450
  68   0.0000       0.062723         1.7068
  69   0.0000       0.106798         2.9061
  70   0.0000       0.110343         3.0026
  71   0.0000       0.132874         3.6157

MULLIKEN ATOMIC CHARGES
-----------------------
   0 S :    0.099899
   1 C :   -0.133957
   2 C :   -0.110757
   3 C :    0.014221
   4 C :   -0.139630
   5 H :    0.027732
   6 C :    0.143093
   7 H :   -0.036013
   8 H :    0.020846
   9 C :   -0.027483
  10 H :    0.014035
  11 H :    0.009112
  12 C :   -0.060733
  13 H :    0.048147
  14 H :    0.024023
  15 H :    0.036663
  16 S :    0.117501
  17 C :   -0.081952
  18 C :   -0.050588
  19 C :   -0.002288
  20 C :   -0.182039
  21 H :    0.025242
  22 C :    0.086538
  23 H :    0.040239
  24 H :    0.001742
  25 C :   -0.114171
  26 H :    0.033445
  27 H :    0.026600
  28 C :   -0.029327
  29 H :    0.017144
  30 H :    0.038288
  31 H :    0.047190
  32 H :    0.049764
  33 H :    0.047473
Sum of atomic charges:   -0.0000000

LOEWDIN ATOMIC CHARGES
----------------------
   0 S :    0.369534
   1 C :   -0.182358
   2 C :   -0.054878
   3 C :   -0.068614
   4 C :   -0.190701
   5 H :    0.037994
   6 C :   -0.025304
   7 H :    0.009839
   8 H :    0.035423
   9 C :   -0.033099
  10 H :    0.019571
  11 H :    0.021225
  12 C :   -0.066477
  13 H :    0.030487
  14 H :    0.023852
  15 H :    0.028793
  16 S :    0.410162
  17 C :   -0.189125
  18 C :   -0.077491
  19 C :   -0.044638
  20 C :   -0.194686
  21 H :    0.035041
  22 C :   -0.035251
  23 H :    0.041083
  24 H :    0.018870
  25 C :   -0.046805
  26 H :    0.026931
  27 H :    0.023411
  28 C :   -0.074618
  29 H :    0.028085
  30 H :    0.028127
  31 H :    0.036505
  32 H :    0.033139
  33 H :    0.025975

  Mayer bond orders larger than 0.100000
B(  0-S ,  1-C ) :   1.1028 B(  0-S ,  4-C ) :   1.1122 B(  1-C ,  2-C ) :   1.6775
B(  1-C , 32-H ) :   0.9612 B(  2-C ,  3-C ) :   1.1892 B(  2-C ,  6-C ) :   1.0102
B(  3-C ,  4-C ) :   1.6378 B(  3-C ,  5-H ) :   0.9881 B(  4-C , 20-C ) :   1.0406
B(  6-C ,  7-H ) :   0.9225 B(  6-C ,  8-H ) :   0.9315 B(  6-C ,  9-C ) :   1.0764
B(  9-C , 10-H ) :   0.9482 B(  9-C , 11-H ) :   0.9471 B(  9-C , 12-C ) :   1.0882
B( 12-C , 13-H ) :   0.9700 B( 12-C , 14-H ) :   0.9729 B( 12-C , 15-H ) :   0.9768
B( 16-S , 17-C ) :   1.1757 B( 16-S , 20-C ) :   1.1332 B( 17-C , 18-C ) :   1.5977
B( 17-C , 20-C ) :   0.1039 B( 17-C , 33-H ) :   0.9685 B( 18-C , 19-C ) :   1.2377
B( 18-C , 21-H ) :   0.9899 B( 19-C , 20-C ) :   1.5684 B( 19-C , 22-C ) :   1.0573
B( 22-C , 23-H ) :   0.9353 B( 22-C , 24-H ) :   0.9285 B( 22-C , 25-C ) :   1.0478
B( 25-C , 26-H ) :   0.9592 B( 25-C , 27-H ) :   0.9529 B( 25-C , 28-C ) :   1.0950
B( 28-C , 29-H ) :   0.9707 B( 28-C , 30-H ) :   0.9731 B( 28-C , 31-H ) :   0.9683

Dispersion correction           -0.014730114
FINAL SINGLE POINT ENERGY     -1339.867154434208

DIPOLE MOMENT
-------------
                                X             Y             Z
Electronic contribution:     -0.72274       7.09189      11.56348
Nuclear contribution   :      1.01660      -7.28006     -11.85383
                        -----------------------------------------
Total Dipole Moment    :      0.29386      -0.18817      -0.29035
                        -----------------------------------------
Magnitude (a.u.)       :      0.45394
Magnitude (Debye)      :      1.15384

Rotational constants in cm-1:     0.019838     0.008687     0.006712
Rotational constants in MHz :   594.735342   260.427652   201.230292

                             ****ORCA TERMINATED NORMALLY****
TOTAL RUN TIME: 0 days 0 hours 0 minutes 20 seconds 348 msec
