                         Program Version 4.2.1 -  RELEASE  -
|  1> ! wB97X-D3 SP def2-SVP
|  2> %pal
|  3> nprocs 24
|  4> end
|  5>
|  6> * xyz 0 1
|  7> S 	 -129.847 	 27.707 	 -16.1816
|  8> C 	 -128.129 	 27.9997 	 -16.1671
|  9> C 	 -127.607 	 28.6695 	 -17.245
| 10> C 	 -128.681 	 28.9163 	 -18.1871
| 11> C 	 -129.903 	 28.3988 	 -17.7962
| 12> H 	 -128.523 	 29.3178 	 -19.2277
| 13> C 	 -126.232 	 29.1933 	 -17.3974
| 14> H 	 -125.872 	 29.0399 	 -18.4143
| 15> H 	 -125.675 	 28.6507 	 -16.6759
| 16> C 	 -126.037 	 30.6997 	 -17.104
| 17> H 	 -124.994 	 31.0666 	 -17.145
| 18> H 	 -126.542 	 31.2968 	 -17.8642
| 19> C 	 -126.491 	 30.9645 	 -15.6773
| 20> H 	 -126.348 	 32.0768 	 -15.4953
| 21> H 	 -127.566 	 30.7578 	 -15.5179
| 22> H 	 -125.978 	 30.2958 	 -14.9538
| 23> S 	 -131.739 	 26.6482 	 -18.7556
| 24> C 	 -132.92 	 27.1581 	 -19.8434
| 25> C 	 -132.906 	 28.5488 	 -19.8969
| 26> C 	 -131.892 	 29.1748 	 -19.1667
| 27> C 	 -131.043 	 28.2214 	 -18.6305
| 28> H 	 -133.789 	 29.0307 	 -20.4068
| 29> C 	 -131.853 	 30.7024 	 -18.9617
| 30> H 	 -131.685 	 30.956 	 -17.8815
| 31> H 	 -132.892 	 31.0382 	 -19.1067
| 32> C 	 -130.931 	 31.4294 	 -19.9673
| 33> H 	 -131.188 	 31.1666 	 -21.0092
| 34> H 	 -129.912 	 31.0476 	 -19.7695
| 35> C 	 -130.96 	 32.9427 	 -19.777
| 36> H 	 -130.803 	 33.1307 	 -18.7246
| 37> H 	 -131.774 	 33.5394 	 -20.2367
| 38> H 	 -130.021 	 33.383 	 -20.2875
| 39> H 	 -127.498 	 27.6905 	 -15.3741
| 40> H 	 -133.592 	 26.4972 	 -20.3189
| 41> *
| 42>
| 43>                          ****END OF INPUT****

CARTESIAN COORDINATES (ANGSTROEM)
---------------------------------
  S    -129.847000   27.707000  -16.181600
  C    -128.129000   27.999700  -16.167100
  C    -127.607000   28.669500  -17.245000
  C    -128.681000   28.916300  -18.187100
  C    -129.903000   28.398800  -17.796200
  H    -128.523000   29.317800  -19.227700
  C    -126.232000   29.193300  -17.397400
  H    -125.872000   29.039900  -18.414300
  H    -125.675000   28.650700  -16.675900
  C    -126.037000   30.699700  -17.104000
  H    -124.994000   31.066600  -17.145000
  H    -126.542000   31.296800  -17.864200
  C    -126.491000   30.964500  -15.677300
  H    -126.348000   32.076800  -15.495300
  H    -127.566000   30.757800  -15.517900
  H    -125.978000   30.295800  -14.953800
  S    -131.739000   26.648200  -18.755600
  C    -132.920000   27.158100  -19.843400
  C    -132.906000   28.548800  -19.896900
  C    -131.892000   29.174800  -19.166700
  C    -131.043000   28.221400  -18.630500
  H    -133.789000   29.030700  -20.406800
  C    -131.853000   30.702400  -18.961700
  H    -131.685000   30.956000  -17.881500
  H    -132.892000   31.038200  -19.106700
  C    -130.931000   31.429400  -19.967300
  H    -131.188000   31.166600  -21.009200
  H    -129.912000   31.047600  -19.769500
  C    -130.960000   32.942700  -19.777000
  H    -130.803000   33.130700  -18.724600
  H    -131.774000   33.539400  -20.236700
  H    -130.021000   33.383000  -20.287500
  H    -127.498000   27.690500  -15.374100
  H    -133.592000   26.497200  -20.318900

 Total Charge           Charge          ....    0
 Multiplicity           Mult            ....    1
 Number of Electrons    NEL             ....  134
 Basis Dimension        Dim             ....  322

ORBITAL ENERGIES
----------------

  NO   OCC          E(Eh)            E(eV)
   0   2.0000     -88.968943     -2420.9680
   1   2.0000     -88.963478     -2420.8193
   2   2.0000     -10.325210      -280.9632
   3   2.0000     -10.317509      -280.7537
   4   2.0000     -10.309562      -280.5374
   5   2.0000     -10.308868      -280.5186
   6   2.0000     -10.299501      -280.2637
   7   2.0000     -10.299074      -280.2520
   8   2.0000     -10.297647      -280.2132
   9   2.0000     -10.296844      -280.1914
  10   2.0000     -10.292155      -280.0638
  11   2.0000     -10.290283      -280.0128
  12   2.0000     -10.289001      -279.9779
  13   2.0000     -10.288696      -279.9697
  14   2.0000     -10.283654      -279.8324
  15   2.0000     -10.280302      -279.7412
  16   2.0000      -8.083739      -219.9697
  17   2.0000      -8.079985      -219.8676
  18   2.0000      -6.042196      -164.4165
  19   2.0000      -6.038462      -164.3149
  20   2.0000      -6.038146      -164.3063
  21   2.0000      -6.034329      -164.2024
  22   2.0000      -6.034255      -164.2004
  23   2.0000      -6.030975      -164.1112
  24   2.0000      -1.015665       -27.6377
  25   2.0000      -0.989082       -26.9143
  26   2.0000      -0.918335       -24.9892
  27   2.0000      -0.906477       -24.6665
  28   2.0000      -0.870636       -23.6912
  29   2.0000      -0.853566       -23.2267
  30   2.0000      -0.845973       -23.0201
  31   2.0000      -0.809851       -22.0372
  32   2.0000      -0.780661       -21.2429
  33   2.0000      -0.772502       -21.0209
  34   2.0000      -0.708790       -19.2871
  35   2.0000      -0.696461       -18.9517
  36   2.0000      -0.691914       -18.8279
  37   2.0000      -0.660113       -17.9626
  38   2.0000      -0.639139       -17.3919
  39   2.0000      -0.618780       -16.8378
  40   2.0000      -0.597642       -16.2627
  41   2.0000      -0.562774       -15.3139
  42   2.0000      -0.560514       -15.2524
  43   2.0000      -0.553037       -15.0489
  44   2.0000      -0.547036       -14.8856
  45   2.0000      -0.526521       -14.3274
  46   2.0000      -0.518493       -14.1089
  47   2.0000      -0.510257       -13.8848
  48   2.0000      -0.506192       -13.7742
  49   2.0000      -0.496853       -13.5200
  50   2.0000      -0.487750       -13.2724
  51   2.0000      -0.477202       -12.9853
  52   2.0000      -0.471151       -12.8207
  53   2.0000      -0.463342       -12.6082
  54   2.0000      -0.455897       -12.4056
  55   2.0000      -0.447286       -12.1713
  56   2.0000      -0.442836       -12.0502
  57   2.0000      -0.439554       -11.9609
  58   2.0000      -0.434356       -11.8194
  59   2.0000      -0.424704       -11.5568
  60   2.0000      -0.422528       -11.4976
  61   2.0000      -0.415256       -11.2997
  62   2.0000      -0.410778       -11.1778
  63   2.0000      -0.344530        -9.3751
  64   2.0000      -0.332748        -9.0545
  65   2.0000      -0.327526        -8.9124
  66   2.0000      -0.291399        -7.9294
  67   0.0000       0.033571         0.9135
  68   0.0000       0.065383         1.7792
  69   0.0000       0.112617         3.0645
  70   0.0000       0.120538         3.2800
  71   0.0000       0.124164         3.3787

MULLIKEN ATOMIC CHARGES
-----------------------
   0 S :    0.122112
   1 C :   -0.113180
   2 C :   -0.102352
   3 C :    0.004121
   4 C :   -0.163385
   5 H :    0.042279
   6 C :    0.107829
   7 H :    0.029473
   8 H :    0.006041
   9 C :   -0.067334
  10 H :    0.037334
  11 H :    0.027443
  12 C :   -0.093968
  13 H :    0.042578
  14 H :    0.051837
  15 H :    0.030639
  16 S :    0.123768
  17 C :   -0.087607
  18 C :   -0.063523
  19 C :   -0.014416
  20 C :   -0.182539
  21 H :    0.033337
  22 C :    0.062894
  23 H :    0.040540
  24 H :    0.015524
  25 C :   -0.068137
  26 H :    0.033945
  27 H :    0.022592
  28 C :   -0.059763
  29 H :    0.029530
  30 H :    0.049248
  31 H :    0.032728
  32 H :    0.026168
  33 H :    0.044244
Sum of atomic charges:    0.0000000

LOEWDIN ATOMIC CHARGES
----------------------
   0 S :    0.401086
   1 C :   -0.190053
   2 C :   -0.062326
   3 C :   -0.062488
   4 C :   -0.192955
   5 H :    0.038176
   6 C :   -0.028007
   7 H :    0.032532
   8 H :    0.025023
   9 C :   -0.041675
  10 H :    0.029234
  11 H :    0.021549
  12 C :   -0.074849
  13 H :    0.031866
  14 H :    0.027371
  15 H :    0.025377
  16 S :    0.449945
  17 C :   -0.204741
  18 C :   -0.082105
  19 C :   -0.057594
  20 C :   -0.215876
  21 H :    0.037793
  22 C :   -0.031068
  23 H :    0.036115
  24 H :    0.029503
  25 C :   -0.042491
  26 H :    0.027466
  27 H :    0.024000
  28 C :   -0.075886
  29 H :    0.023475
  30 H :    0.028919
  31 H :    0.034489
  32 H :    0.016047
  33 H :    0.022150

  Mayer bond orders larger than 0.100000
B(  0-S ,  1-C ) :   1.1276 B(  0-S ,  4-C ) :   1.1334 B(  1-C ,  2-C ) :   1.6405
B(  1-C , 32-H ) :   0.9621 B(  2-C ,  3-C ) :   1.2093 B(  2-C ,  6-C ) :   1.0406
B(  3-C ,  4-C ) :   1.6098 B(  3-C ,  5-H ) :   0.9709 B(  4-C , 20-C ) :   1.0656
B(  6-C ,  7-H ) :   0.9330 B(  6-C ,  8-H ) :   0.9339 B(  6-C ,  9-C ) :   1.0690
B(  9-C , 10-H ) :   0.9577 B(  9-C , 11-H ) :   0.9535 B(  9-C , 12-C ) :   1.0704
B( 12-C , 13-H ) :   0.9727 B( 12-C , 14-H ) :   0.9729 B( 12-C , 15-H ) :   0.9742
B( 16-S , 17-C ) :   1.1879 B( 16-S , 20-C ) :   1.1703 B( 17-C , 18-C ) :   1.5508
B( 17-C , 20-C ) :   0.1077 B( 17-C , 33-H ) :   0.9783 B( 18-C , 19-C ) :   1.3015
B( 18-C , 21-H ) :   0.9814 B( 19-C , 20-C ) :   1.5351 B( 19-C , 22-C ) :   1.0312
B( 22-C , 23-H ) :   0.9330 B( 22-C , 24-H ) :   0.9375 B( 22-C , 25-C ) :   1.0614
B( 25-C , 26-H ) :   0.9549 B( 25-C , 27-H ) :   0.9509 B( 25-C , 28-C ) :   1.0833
B( 28-C , 29-H ) :   0.9712 B( 28-C , 30-H ) :   0.9763 B( 28-C , 31-H ) :   0.9729

Dispersion correction           -0.014757835
FINAL SINGLE POINT ENERGY     -1339.882469007996

DIPOLE MOMENT
-------------
                                X             Y             Z
Electronic contribution:    -13.11985     -26.22018       2.89543
Nuclear contribution   :     13.25873      26.64908      -3.07737
                        -----------------------------------------
Total Dipole Moment    :      0.13888       0.42891      -0.18195
                        -----------------------------------------
Magnitude (a.u.)       :      0.48616
Magnitude (Debye)      :      1.23572

Rotational constants in cm-1:     0.018114     0.009846     0.007038
Rotational constants in MHz :   543.036886   295.160750   210.991889

                             ****ORCA TERMINATED NORMALLY****
TOTAL RUN TIME: 0 days 0 hours 0 minutes 21 seconds 59 msec
