                         Program Version 4.2.1 -  RELEASE  -
|  1> ! wB97X-D3 SP def2-SVP
|  2> %pal
|  3> nprocs 24
|  4> end
|  5>
|  6> * xyz 0 1
|  7> S 	 -105.749 	 42.3356 	 -95.1646
|  8> C 	 -104.614 	 40.9927 	 -95.2586
|  9> C 	 -103.335 	 41.2474 	 -94.6522
| 10> C 	 -103.386 	 42.5291 	 -93.9676
| 11> C 	 -104.523 	 43.3054 	 -94.2998
| 12> H 	 -102.58 	 42.8287 	 -93.3828
| 13> C 	 -102.144 	 40.3179 	 -94.7398
| 14> H 	 -102.483 	 39.2722 	 -94.7267
| 15> H 	 -101.59 	 40.4515 	 -93.7591
| 16> C 	 -101.285 	 40.5838 	 -96.0467
| 17> H 	 -102.005 	 40.4204 	 -96.8923
| 18> H 	 -100.815 	 41.5322 	 -96.0184
| 19> C 	 -100.311 	 39.3998 	 -96.2375
| 20> H 	 -99.5813 	 39.3592 	 -95.476
| 21> H 	 -100.748 	 38.4411 	 -96.1056
| 22> H 	 -99.7753 	 39.4423 	 -97.228
| 23> S 	 -106.208 	 45.0486 	 -93.2009
| 24> C 	 -105.816 	 46.7521 	 -93.1405
| 25> C 	 -104.443 	 46.9264 	 -93.3494
| 26> C 	 -103.774 	 45.7579 	 -93.8259
| 27> C 	 -104.699 	 44.7255 	 -93.9012
| 28> H 	 -103.983 	 47.9153 	 -93.3869
| 29> C 	 -102.399 	 45.7954 	 -94.4074
| 30> H 	 -102.102 	 44.7621 	 -94.468
| 31> H 	 -101.724 	 46.3122 	 -93.722
| 32> C 	 -102.295 	 46.3788 	 -95.7693
| 33> H 	 -101.237 	 46.1938 	 -96.0165
| 34> H 	 -102.501 	 47.4319 	 -95.8181
| 35> C 	 -103.133 	 45.6521 	 -96.7992
| 36> H 	 -102.826 	 44.5777 	 -96.7772
| 37> H 	 -102.95 	 46.0069 	 -97.8457
| 38> H 	 -104.186 	 45.7549 	 -96.6471
| 39> H 	 -104.83 	 39.9715 	 -95.7173
| 40> H 	 -106.529 	 47.6381 	 -92.9359
| 41> *
| 42>
| 43>                          ****END OF INPUT****

CARTESIAN COORDINATES (ANGSTROEM)
---------------------------------
  S    -105.749000   42.335600  -95.164600
  C    -104.614000   40.992700  -95.258600
  C    -103.335000   41.247400  -94.652200
  C    -103.386000   42.529100  -93.967600
  C    -104.523000   43.305400  -94.299800
  H    -102.580000   42.828700  -93.382800
  C    -102.144000   40.317900  -94.739800
  H    -102.483000   39.272200  -94.726700
  H    -101.590000   40.451500  -93.759100
  C    -101.285000   40.583800  -96.046700
  H    -102.005000   40.420400  -96.892300
  H    -100.815000   41.532200  -96.018400
  C    -100.311000   39.399800  -96.237500
  H    -99.581300   39.359200  -95.476000
  H    -100.748000   38.441100  -96.105600
  H    -99.775300   39.442300  -97.228000
  S    -106.208000   45.048600  -93.200900
  C    -105.816000   46.752100  -93.140500
  C    -104.443000   46.926400  -93.349400
  C    -103.774000   45.757900  -93.825900
  C    -104.699000   44.725500  -93.901200
  H    -103.983000   47.915300  -93.386900
  C    -102.399000   45.795400  -94.407400
  H    -102.102000   44.762100  -94.468000
  H    -101.724000   46.312200  -93.722000
  C    -102.295000   46.378800  -95.769300
  H    -101.237000   46.193800  -96.016500
  H    -102.501000   47.431900  -95.818100
  C    -103.133000   45.652100  -96.799200
  H    -102.826000   44.577700  -96.777200
  H    -102.950000   46.006900  -97.845700
  H    -104.186000   45.754900  -96.647100
  H    -104.830000   39.971500  -95.717300
  H    -106.529000   47.638100  -92.935900

 Total Charge           Charge          ....    0
 Multiplicity           Mult            ....    1
 Number of Electrons    NEL             ....  134
 Basis Dimension        Dim             ....  322

ORBITAL ENERGIES
----------------

  NO   OCC          E(Eh)            E(eV)
   0   2.0000     -88.974072     -2421.1076
   1   2.0000     -88.966026     -2420.8886
   2   2.0000     -10.335608      -281.2462
   3   2.0000     -10.322718      -280.8954
   4   2.0000     -10.322356      -280.8856
   5   2.0000     -10.321894      -280.8730
   6   2.0000     -10.307310      -280.4762
   7   2.0000     -10.303848      -280.3819
   8   2.0000     -10.297796      -280.2173
   9   2.0000     -10.296091      -280.1709
  10   2.0000     -10.296077      -280.1705
  11   2.0000     -10.293819      -280.1091
  12   2.0000     -10.284540      -279.8566
  13   2.0000     -10.279071      -279.7078
  14   2.0000     -10.276662      -279.6422
  15   2.0000     -10.271084      -279.4904
  16   2.0000      -8.087226      -220.0646
  17   2.0000      -8.081693      -219.9141
  18   2.0000      -6.045794      -164.5144
  19   2.0000      -6.041965      -164.4102
  20   2.0000      -6.040076      -164.3588
  21   2.0000      -6.038025      -164.3030
  22   2.0000      -6.036141      -164.2517
  23   2.0000      -6.032461      -164.1516
  24   2.0000      -1.006939       -27.4002
  25   2.0000      -0.974658       -26.5218
  26   2.0000      -0.920429       -25.0462
  27   2.0000      -0.906652       -24.6712
  28   2.0000      -0.861132       -23.4326
  29   2.0000      -0.850732       -23.1496
  30   2.0000      -0.846259       -23.0279
  31   2.0000      -0.806501       -21.9460
  32   2.0000      -0.781945       -21.2778
  33   2.0000      -0.764862       -20.8130
  34   2.0000      -0.706891       -19.2355
  35   2.0000      -0.698369       -19.0036
  36   2.0000      -0.685949       -18.6656
  37   2.0000      -0.660249       -17.9663
  38   2.0000      -0.631771       -17.1914
  39   2.0000      -0.620260       -16.8781
  40   2.0000      -0.595255       -16.1977
  41   2.0000      -0.568524       -15.4703
  42   2.0000      -0.558132       -15.1875
  43   2.0000      -0.551741       -15.0136
  44   2.0000      -0.544646       -14.8206
  45   2.0000      -0.522982       -14.2311
  46   2.0000      -0.516878       -14.0650
  47   2.0000      -0.509448       -13.8628
  48   2.0000      -0.495891       -13.4939
  49   2.0000      -0.494775       -13.4635
  50   2.0000      -0.484902       -13.1948
  51   2.0000      -0.476704       -12.9718
  52   2.0000      -0.466021       -12.6811
  53   2.0000      -0.462404       -12.5826
  54   2.0000      -0.454975       -12.3805
  55   2.0000      -0.448597       -12.2069
  56   2.0000      -0.445854       -12.1323
  57   2.0000      -0.440353       -11.9826
  58   2.0000      -0.433772       -11.8035
  59   2.0000      -0.428737       -11.6665
  60   2.0000      -0.421850       -11.4791
  61   2.0000      -0.418847       -11.3974
  62   2.0000      -0.414534       -11.2800
  63   2.0000      -0.342724        -9.3260
  64   2.0000      -0.331233        -9.0133
  65   2.0000      -0.326854        -8.8941
  66   2.0000      -0.283800        -7.7226
  67   0.0000       0.021936         0.5969
  68   0.0000       0.073975         2.0130
  69   0.0000       0.101558         2.7635
  70   0.0000       0.114496         3.1156
  71   0.0000       0.129587         3.5262

MULLIKEN ATOMIC CHARGES
-----------------------
   0 S :    0.127671
   1 C :   -0.142370
   2 C :   -0.117224
   3 C :    0.058685
   4 C :   -0.152841
   5 H :   -0.000426
   6 C :    0.013162
   7 H :    0.027331
   8 H :    0.038328
   9 C :   -0.049284
  10 H :    0.043202
  11 H :    0.037649
  12 C :   -0.031922
  13 H :    0.008676
  14 H :    0.015176
  15 H :    0.046252
  16 S :    0.119861
  17 C :   -0.128288
  18 C :   -0.045554
  19 C :   -0.060610
  20 C :   -0.160836
  21 H :    0.021757
  22 C :    0.108240
  23 H :   -0.007548
  24 H :    0.025986
  25 C :   -0.046156
  26 H :    0.028005
  27 H :    0.023920
  28 C :   -0.070146
  29 H :    0.034898
  30 H :    0.032686
  31 H :    0.045230
  32 H :    0.070204
  33 H :    0.086285
Sum of atomic charges:   -0.0000000

LOEWDIN ATOMIC CHARGES
----------------------
   0 S :    0.396531
   1 C :   -0.216935
   2 C :   -0.060619
   3 C :   -0.054204
   4 C :   -0.189802
   5 H :    0.018672
   6 C :   -0.038863
   7 H :    0.031019
   8 H :    0.035571
   9 C :   -0.026568
  10 H :    0.035036
  11 H :    0.020963
  12 C :   -0.068993
  13 H :    0.015638
  14 H :    0.019957
  15 H :    0.033296
  16 S :    0.430312
  17 C :   -0.208697
  18 C :   -0.069637
  19 C :   -0.061605
  20 C :   -0.212145
  21 H :    0.030602
  22 C :   -0.032670
  23 H :    0.025696
  24 H :    0.034310
  25 C :   -0.038562
  26 H :    0.029663
  27 H :    0.018368
  28 C :   -0.066089
  29 H :    0.030258
  30 H :    0.028888
  31 H :    0.022270
  32 H :    0.039655
  33 H :    0.048683

  Mayer bond orders larger than 0.100000
B(  0-S ,  1-C ) :   1.1407 B(  0-S ,  4-C ) :   1.1466 B(  1-C ,  2-C ) :   1.5898
B(  1-C ,  4-C ) :   0.1028 B(  1-C , 32-H ) :   0.9555 B(  2-C ,  3-C ) :   1.2653
B(  2-C ,  6-C ) :   1.0330 B(  3-C ,  4-C ) :   1.5409 B(  3-C ,  5-H ) :   0.9879
B(  4-C , 20-C ) :   1.0307 B(  6-C ,  7-H ) :   0.9444 B(  6-C ,  8-H ) :   0.9413
B(  6-C ,  9-C ) :   1.0450 B(  9-C , 10-H ) :   0.9594 B(  9-C , 11-H ) :   0.9609
B(  9-C , 12-C ) :   1.0741 B( 12-C , 13-H ) :   0.9717 B( 12-C , 14-H ) :   0.9729
B( 12-C , 15-H ) :   0.9752 B( 16-S , 17-C ) :   1.1452 B( 16-S , 20-C ) :   1.1741
B( 17-C , 18-C ) :   1.6038 B( 17-C , 33-H ) :   0.9590 B( 18-C , 19-C ) :   1.2436
B( 18-C , 21-H ) :   0.9843 B( 19-C , 20-C ) :   1.5736 B( 19-C , 22-C ) :   1.0554
B( 22-C , 23-H ) :   0.9181 B( 22-C , 24-H ) :   0.9209 B( 22-C , 25-C ) :   1.0887
B( 25-C , 26-H ) :   0.9513 B( 25-C , 27-H ) :   0.9532 B( 25-C , 28-C ) :   1.0811
B( 28-C , 29-H ) :   0.9723 B( 28-C , 30-H ) :   0.9722 B( 28-C , 31-H ) :   0.9736

Dispersion correction           -0.015329621
FINAL SINGLE POINT ENERGY     -1339.867263326330

DIPOLE MOMENT
-------------
                                X             Y             Z
Electronic contribution:    -25.74859       5.98223      12.35094
Nuclear contribution   :     26.42017      -6.02077     -12.50538
                        -----------------------------------------
Total Dipole Moment    :      0.67158      -0.03854      -0.15445
                        -----------------------------------------
Magnitude (a.u.)       :      0.69019
Magnitude (Debye)      :      1.75431

Rotational constants in cm-1:     0.021586     0.008665     0.007020
Rotational constants in MHz :   647.120576   259.768974   210.451901

                             ****ORCA TERMINATED NORMALLY****
TOTAL RUN TIME: 0 days 0 hours 0 minutes 21 seconds 388 msec
