                         Program Version 4.2.1 -  RELEASE  -
|  1> ! wB97X-D3 SP def2-SVP
|  2> %pal
|  3> nprocs 24
|  4> end
|  5>
|  6> * xyz 0 1
|  7> S 	 -54.8351 	 5.82808 	 -100.351
|  8> C 	 -56.4935 	 5.82455 	 -100.933
|  9> C 	 -57.3655 	 6.23027 	 -99.8694
| 10> C 	 -56.6381 	 6.68235 	 -98.6928
| 11> C 	 -55.3174 	 6.78515 	 -98.9264
| 12> H 	 -57.0643 	 6.94099 	 -97.7555
| 13> C 	 -58.8763 	 6.21649 	 -99.8935
| 14> H 	 -59.2933 	 6.72807 	 -98.9955
| 15> H 	 -59.2979 	 5.1891 	 -99.9182
| 16> C 	 -59.5701 	 6.9609 	 -101.12
| 17> H 	 -59.3101 	 7.99268 	 -101.03
| 18> H 	 -59.2673 	 6.64089 	 -102.136
| 19> C 	 -61.1484 	 6.95612 	 -101.14
| 20> H 	 -61.5969 	 7.18872 	 -102.115
| 21> H 	 -61.5582 	 5.99913 	 -100.861
| 22> H 	 -61.544 	 7.75846 	 -100.568
| 23> S 	 -53.0028 	 6.00962 	 -97.5807
| 24> C 	 -52.3772 	 7.07288 	 -96.2913
| 25> C 	 -53.0678 	 8.2881 	 -96.3234
| 26> C 	 -54.2137 	 8.32349 	 -97.2081
| 27> C 	 -54.2976 	 7.13 	 -97.926
| 28> H 	 -52.7569 	 9.04358 	 -95.5509
| 29> C 	 -55.1023 	 9.53484 	 -97.3532
| 30> H 	 -54.749 	 10.136 	 -96.5987
| 31> H 	 -56.0613 	 9.21221 	 -96.9778
| 32> C 	 -55.0138 	 10.265 	 -98.6819
| 33> H 	 -55.2807 	 9.54455 	 -99.5388
| 34> H 	 -53.9385 	 10.483 	 -98.7773
| 35> C 	 -55.9292 	 11.544 	 -98.813
| 36> H 	 -56.9381 	 11.3318 	 -98.9016
| 37> H 	 -55.735 	 12.2102 	 -99.7525
| 38> H 	 -55.769 	 12.3246 	 -98.1053
| 39> H 	 -56.8399 	 5.34545 	 -101.829
| 40> H 	 -51.4664 	 6.88329 	 -95.8189
| 41> *
| 42>
| 43>                          ****END OF INPUT****

CARTESIAN COORDINATES (ANGSTROEM)
---------------------------------
  S    -54.835100    5.828080  -100.351000
  C    -56.493500    5.824550  -100.933000
  C    -57.365500    6.230270  -99.869400
  C    -56.638100    6.682350  -98.692800
  C    -55.317400    6.785150  -98.926400
  H    -57.064300    6.940990  -97.755500
  C    -58.876300    6.216490  -99.893500
  H    -59.293300    6.728070  -98.995500
  H    -59.297900    5.189100  -99.918200
  C    -59.570100    6.960900  -101.120000
  H    -59.310100    7.992680  -101.030000
  H    -59.267300    6.640890  -102.136000
  C    -61.148400    6.956120  -101.140000
  H    -61.596900    7.188720  -102.115000
  H    -61.558200    5.999130  -100.861000
  H    -61.544000    7.758460  -100.568000
  S    -53.002800    6.009620  -97.580700
  C    -52.377200    7.072880  -96.291300
  C    -53.067800    8.288100  -96.323400
  C    -54.213700    8.323490  -97.208100
  C    -54.297600    7.130000  -97.926000
  H    -52.756900    9.043580  -95.550900
  C    -55.102300    9.534840  -97.353200
  H    -54.749000   10.136000  -96.598700
  H    -56.061300    9.212210  -96.977800
  C    -55.013800   10.265000  -98.681900
  H    -55.280700    9.544550  -99.538800
  H    -53.938500   10.483000  -98.777300
  C    -55.929200   11.544000  -98.813000
  H    -56.938100   11.331800  -98.901600
  H    -55.735000   12.210200  -99.752500
  H    -55.769000   12.324600  -98.105300
  H    -56.839900    5.345450  -101.829000
  H    -51.466400    6.883290  -95.818900

 Total Charge           Charge          ....    0
 Multiplicity           Mult            ....    1
 Number of Electrons    NEL             ....  134
 Basis Dimension        Dim             ....  322

ORBITAL ENERGIES
----------------

  NO   OCC          E(Eh)            E(eV)
   0   2.0000     -88.966990     -2420.9149
   1   2.0000     -88.965797     -2420.8824
   2   2.0000     -10.328847      -281.0622
   3   2.0000     -10.326669      -281.0029
   4   2.0000     -10.320837      -280.8443
   5   2.0000     -10.317186      -280.7449
   6   2.0000     -10.311727      -280.5964
   7   2.0000     -10.304360      -280.3959
   8   2.0000     -10.302962      -280.3578
   9   2.0000     -10.302775      -280.3528
  10   2.0000     -10.296025      -280.1691
  11   2.0000     -10.294918      -280.1390
  12   2.0000     -10.292415      -280.0709
  13   2.0000     -10.283756      -279.8352
  14   2.0000     -10.279844      -279.7288
  15   2.0000     -10.277675      -279.6697
  16   2.0000      -8.081113      -219.8983
  17   2.0000      -8.080119      -219.8712
  18   2.0000      -6.039721      -164.3492
  19   2.0000      -6.038674      -164.3207
  20   2.0000      -6.035971      -164.2471
  21   2.0000      -6.034686      -164.2122
  22   2.0000      -6.031537      -164.1265
  23   2.0000      -6.030858      -164.1080
  24   2.0000      -1.003595       -27.3092
  25   2.0000      -0.977653       -26.6033
  26   2.0000      -0.908004       -24.7080
  27   2.0000      -0.899891       -24.4873
  28   2.0000      -0.864766       -23.5315
  29   2.0000      -0.850290       -23.1376
  30   2.0000      -0.842600       -22.9283
  31   2.0000      -0.815235       -22.1837
  32   2.0000      -0.783981       -21.3332
  33   2.0000      -0.768997       -20.9255
  34   2.0000      -0.710892       -19.3443
  35   2.0000      -0.704606       -19.1733
  36   2.0000      -0.691624       -18.8200
  37   2.0000      -0.661676       -18.0051
  38   2.0000      -0.644063       -17.5259
  39   2.0000      -0.617388       -16.8000
  40   2.0000      -0.589386       -16.0380
  41   2.0000      -0.565013       -15.3748
  42   2.0000      -0.564181       -15.3521
  43   2.0000      -0.556593       -15.1457
  44   2.0000      -0.522646       -14.2219
  45   2.0000      -0.521585       -14.1931
  46   2.0000      -0.512893       -13.9565
  47   2.0000      -0.509649       -13.8682
  48   2.0000      -0.508131       -13.8269
  49   2.0000      -0.497763       -13.5448
  50   2.0000      -0.492144       -13.3919
  51   2.0000      -0.484333       -13.1794
  52   2.0000      -0.476567       -12.9680
  53   2.0000      -0.459459       -12.5025
  54   2.0000      -0.457744       -12.4558
  55   2.0000      -0.444587       -12.0978
  56   2.0000      -0.444457       -12.0943
  57   2.0000      -0.431149       -11.7322
  58   2.0000      -0.427999       -11.6464
  59   2.0000      -0.427016       -11.6197
  60   2.0000      -0.423927       -11.5357
  61   2.0000      -0.418365       -11.3843
  62   2.0000      -0.412904       -11.2357
  63   2.0000      -0.350097        -9.5266
  64   2.0000      -0.332602        -9.0505
  65   2.0000      -0.323320        -8.7980
  66   2.0000      -0.290208        -7.8970
  67   0.0000       0.023478         0.6389
  68   0.0000       0.059824         1.6279
  69   0.0000       0.097249         2.6463
  70   0.0000       0.119766         3.2590
  71   0.0000       0.132452         3.6042

MULLIKEN ATOMIC CHARGES
-----------------------
   0 S :    0.091842
   1 C :   -0.095410
   2 C :   -0.085475
   3 C :    0.039134
   4 C :   -0.136024
   5 H :    0.012851
   6 C :    0.041777
   7 H :    0.030601
   8 H :    0.045377
   9 C :   -0.097870
  10 H :    0.026936
  11 H :    0.035290
  12 C :   -0.050282
  13 H :    0.027357
  14 H :    0.027978
  15 H :    0.024741
  16 S :    0.098172
  17 C :   -0.085525
  18 C :   -0.053251
  19 C :   -0.107933
  20 C :   -0.150001
  21 H :    0.042695
  22 C :    0.181370
  23 H :   -0.021093
  24 H :    0.014497
  25 C :   -0.084960
  26 H :    0.062744
  27 H :    0.036187
  28 C :   -0.043713
  29 H :    0.024497
  30 H :    0.032063
  31 H :    0.022080
  32 H :    0.049476
  33 H :    0.043871
Sum of atomic charges:    0.0000000

LOEWDIN ATOMIC CHARGES
----------------------
   0 S :    0.385590
   1 C :   -0.192337
   2 C :   -0.056026
   3 C :   -0.051468
   4 C :   -0.176540
   5 H :    0.029814
   6 C :   -0.038049
   7 H :    0.033742
   8 H :    0.034641
   9 C :   -0.038699
  10 H :    0.020193
  11 H :    0.022899
  12 C :   -0.068536
  13 H :    0.030099
  14 H :    0.020412
  15 H :    0.020022
  16 S :    0.389890
  17 C :   -0.172924
  18 C :   -0.072842
  19 C :   -0.059209
  20 C :   -0.196037
  21 H :    0.040311
  22 C :   -0.030045
  23 H :    0.019655
  24 H :    0.028543
  25 C :   -0.037113
  26 H :    0.038677
  27 H :    0.030206
  28 C :   -0.071910
  29 H :    0.014880
  30 H :    0.039727
  31 H :    0.019289
  32 H :    0.025995
  33 H :    0.017149

  Mayer bond orders larger than 0.100000
B(  0-S ,  1-C ) :   1.1319 B(  0-S ,  4-C ) :   1.1287 B(  1-C ,  2-C ) :   1.5948
B(  1-C , 32-H ) :   0.9738 B(  2-C ,  3-C ) :   1.2255 B(  2-C ,  6-C ) :   1.0344
B(  3-C ,  4-C ) :   1.5931 B(  3-C ,  5-H ) :   0.9969 B(  4-C , 20-C ) :   1.0438
B(  6-C ,  7-H ) :   0.9515 B(  6-C ,  8-H ) :   0.9352 B(  6-C ,  9-C ) :   1.0488
B(  9-C , 10-H ) :   0.9632 B(  9-C , 11-H ) :   0.9643 B(  9-C , 12-C ) :   1.0724
B( 12-C , 13-H ) :   0.9753 B( 12-C , 14-H ) :   0.9779 B( 12-C , 15-H ) :   0.9793
B( 16-S , 17-C ) :   1.1373 B( 16-S , 20-C ) :   1.1497 B( 17-C , 18-C ) :   1.6219
B( 17-C , 33-H ) :   0.9737 B( 18-C , 19-C ) :   1.2464 B( 18-C , 21-H ) :   0.9737
B( 19-C , 20-C ) :   1.5895 B( 19-C , 22-C ) :   1.0337 B( 22-C , 23-H ) :   0.9099
B( 22-C , 24-H ) :   0.9160 B( 22-C , 25-C ) :   1.0524 B( 25-C , 26-H ) :   0.9584
B( 25-C , 27-H ) :   0.9543 B( 25-C , 28-C ) :   1.0690 B( 28-C , 29-H ) :   0.9784
B( 28-C , 30-H ) :   0.9740 B( 28-C , 31-H ) :   0.9766

Dispersion correction           -0.014053569
FINAL SINGLE POINT ENERGY     -1339.853483179535

DIPOLE MOMENT
-------------
                                X             Y             Z
Electronic contribution:     25.24284     -18.13323       5.42494
Nuclear contribution   :    -25.76421      18.51921      -5.24339
                        -----------------------------------------
Total Dipole Moment    :     -0.52137       0.38598       0.18155
                        -----------------------------------------
Magnitude (a.u.)       :      0.67362
Magnitude (Debye)      :      1.71221

Rotational constants in cm-1:     0.019236     0.008264     0.006450
Rotational constants in MHz :   576.679419   247.743278   193.351701

                             ****ORCA TERMINATED NORMALLY****
TOTAL RUN TIME: 0 days 0 hours 0 minutes 21 seconds 186 msec
