                         Program Version 4.2.1 -  RELEASE  -
|  1> ! wB97X-D3 SP def2-SVP
|  2> %pal
|  3> nprocs 24
|  4> end
|  5>
|  6> * xyz 0 1
|  7> S 	 44.4958 	 -20.6733 	 -112.802
|  8> C 	 45.7214 	 -21.8552 	 -112.298
|  9> C 	 45.1635 	 -23.0631 	 -112.071
| 10> C 	 43.8027 	 -23.1174 	 -112.429
| 11> C 	 43.3656 	 -21.9616 	 -113.065
| 12> H 	 43.1312 	 -23.9556 	 -112.331
| 13> C 	 45.8801 	 -24.3215 	 -111.56
| 14> H 	 45.2643 	 -25.2541 	 -111.447
| 15> H 	 46.0906 	 -24.0573 	 -110.582
| 16> C 	 47.2 	 -24.7029 	 -112.359
| 17> H 	 48.13 	 -24.1719 	 -112.196
| 18> H 	 47.6174 	 -25.677 	 -112.12
| 19> C 	 47.0755 	 -24.5988 	 -113.904
| 20> H 	 46.3188 	 -25.3448 	 -114.227
| 21> H 	 46.6755 	 -23.6763 	 -114.222
| 22> H 	 47.9626 	 -24.8081 	 -114.474
| 23> S 	 41.1898 	 -20.1934 	 -113.105
| 24> C 	 39.8923 	 -20.4927 	 -114.104
| 25> C 	 39.9777 	 -21.7881 	 -114.639
| 26> C 	 41.2267 	 -22.459 	 -114.324
| 27> C 	 42.0248 	 -21.7041 	 -113.531
| 28> H 	 39.2839 	 -22.155 	 -115.317
| 29> C 	 41.4927 	 -23.7701 	 -115.064
| 30> H 	 42.5998 	 -23.7955 	 -115.177
| 31> H 	 41.128 	 -23.7559 	 -116.085
| 32> C 	 40.9784 	 -25.0938 	 -114.481
| 33> H 	 39.9427 	 -24.975 	 -114.284
| 34> H 	 41.4812 	 -25.2178 	 -113.525
| 35> C 	 41.2383 	 -26.3816 	 -115.264
| 36> H 	 42.3176 	 -26.6269 	 -115.439
| 37> H 	 40.6962 	 -26.1771 	 -116.207
| 38> H 	 40.7049 	 -27.2419 	 -114.809
| 39> H 	 46.7042 	 -21.5416 	 -112.223
| 40> H 	 39.2163 	 -19.6663 	 -114.321
| 41> *
| 42>
| 43>                          ****END OF INPUT****

CARTESIAN COORDINATES (ANGSTROEM)
---------------------------------
  S     44.495800  -20.673300  -112.802000
  C     45.721400  -21.855200  -112.298000
  C     45.163500  -23.063100  -112.071000
  C     43.802700  -23.117400  -112.429000
  C     43.365600  -21.961600  -113.065000
  H     43.131200  -23.955600  -112.331000
  C     45.880100  -24.321500  -111.560000
  H     45.264300  -25.254100  -111.447000
  H     46.090600  -24.057300  -110.582000
  C     47.200000  -24.702900  -112.359000
  H     48.130000  -24.171900  -112.196000
  H     47.617400  -25.677000  -112.120000
  C     47.075500  -24.598800  -113.904000
  H     46.318800  -25.344800  -114.227000
  H     46.675500  -23.676300  -114.222000
  H     47.962600  -24.808100  -114.474000
  S     41.189800  -20.193400  -113.105000
  C     39.892300  -20.492700  -114.104000
  C     39.977700  -21.788100  -114.639000
  C     41.226700  -22.459000  -114.324000
  C     42.024800  -21.704100  -113.531000
  H     39.283900  -22.155000  -115.317000
  C     41.492700  -23.770100  -115.064000
  H     42.599800  -23.795500  -115.177000
  H     41.128000  -23.755900  -116.085000
  C     40.978400  -25.093800  -114.481000
  H     39.942700  -24.975000  -114.284000
  H     41.481200  -25.217800  -113.525000
  C     41.238300  -26.381600  -115.264000
  H     42.317600  -26.626900  -115.439000
  H     40.696200  -26.177100  -116.207000
  H     40.704900  -27.241900  -114.809000
  H     46.704200  -21.541600  -112.223000
  H     39.216300  -19.666300  -114.321000

 Total Charge           Charge          ....    0
 Multiplicity           Mult            ....    1
 Number of Electrons    NEL             ....  134
 Basis Dimension        Dim             ....  322

ORBITAL ENERGIES
----------------

  NO   OCC          E(Eh)            E(eV)
   0   2.0000     -88.964465     -2420.8462
   1   2.0000     -88.961430     -2420.7636
   2   2.0000     -10.327480      -281.0250
   3   2.0000     -10.323665      -280.9212
   4   2.0000     -10.315512      -280.6993
   5   2.0000     -10.310000      -280.5494
   6   2.0000     -10.302575      -280.3473
   7   2.0000     -10.302335      -280.3408
   8   2.0000     -10.300083      -280.2795
   9   2.0000     -10.292813      -280.0817
  10   2.0000     -10.292723      -280.0792
  11   2.0000     -10.290581      -280.0209
  12   2.0000     -10.290137      -280.0089
  13   2.0000     -10.287041      -279.9246
  14   2.0000     -10.282740      -279.8076
  15   2.0000     -10.269876      -279.4575
  16   2.0000      -8.079549      -219.8557
  17   2.0000      -8.077904      -219.8109
  18   2.0000      -6.038011      -164.3026
  19   2.0000      -6.036348      -164.2574
  20   2.0000      -6.034212      -164.1992
  21   2.0000      -6.032052      -164.1405
  22   2.0000      -6.030128      -164.0881
  23   2.0000      -6.028743      -164.0504
  24   2.0000      -1.012819       -27.5602
  25   2.0000      -0.990744       -26.9595
  26   2.0000      -0.910405       -24.7734
  27   2.0000      -0.906567       -24.6690
  28   2.0000      -0.870874       -23.6977
  29   2.0000      -0.855378       -23.2760
  30   2.0000      -0.845353       -23.0032
  31   2.0000      -0.810444       -22.0533
  32   2.0000      -0.785746       -21.3812
  33   2.0000      -0.779347       -21.2071
  34   2.0000      -0.708527       -19.2800
  35   2.0000      -0.703165       -19.1341
  36   2.0000      -0.693637       -18.8748
  37   2.0000      -0.669649       -18.2221
  38   2.0000      -0.647587       -17.6217
  39   2.0000      -0.614539       -16.7225
  40   2.0000      -0.599592       -16.3157
  41   2.0000      -0.570598       -15.5268
  42   2.0000      -0.568209       -15.4618
  43   2.0000      -0.559275       -15.2186
  44   2.0000      -0.538165       -14.6442
  45   2.0000      -0.523188       -14.2367
  46   2.0000      -0.522895       -14.2287
  47   2.0000      -0.510642       -13.8953
  48   2.0000      -0.509265       -13.8578
  49   2.0000      -0.497670       -13.5423
  50   2.0000      -0.489158       -13.3107
  51   2.0000      -0.478878       -13.0309
  52   2.0000      -0.475646       -12.9430
  53   2.0000      -0.466550       -12.6955
  54   2.0000      -0.461001       -12.5445
  55   2.0000      -0.453369       -12.3368
  56   2.0000      -0.446419       -12.1477
  57   2.0000      -0.441465       -12.0129
  58   2.0000      -0.428369       -11.6565
  59   2.0000      -0.421796       -11.4777
  60   2.0000      -0.419027       -11.4023
  61   2.0000      -0.411964       -11.2101
  62   2.0000      -0.406729       -11.0677
  63   2.0000      -0.352997        -9.6055
  64   2.0000      -0.332682        -9.0527
  65   2.0000      -0.327967        -8.9244
  66   2.0000      -0.290055        -7.8928
  67   0.0000       0.022953         0.6246
  68   0.0000       0.075664         2.0589
  69   0.0000       0.104926         2.8552
  70   0.0000       0.123469         3.3598
  71   0.0000       0.129130         3.5138

MULLIKEN ATOMIC CHARGES
-----------------------
   0 S :    0.092327
   1 C :   -0.110449
   2 C :   -0.057031
   3 C :    0.014188
   4 C :   -0.146222
   5 H :    0.004701
   6 C :    0.119425
   7 H :    0.039748
   8 H :    0.024455
   9 C :   -0.082742
  10 H :    0.016199
  11 H :    0.018818
  12 C :   -0.050464
  13 H :    0.018064
  14 H :    0.031067
  15 H :    0.030839
  16 S :    0.105643
  17 C :   -0.102991
  18 C :   -0.004964
  19 C :   -0.029012
  20 C :   -0.142893
  21 H :   -0.007159
  22 C :    0.037097
  23 H :    0.028948
  24 H :    0.014692
  25 C :   -0.051343
  26 H :    0.018517
  27 H :    0.015131
  28 C :   -0.064013
  29 H :    0.050875
  30 H :    0.027613
  31 H :    0.045349
  32 H :    0.022571
  33 H :    0.073015
Sum of atomic charges:   -0.0000000

LOEWDIN ATOMIC CHARGES
----------------------
   0 S :    0.398278
   1 C :   -0.168391
   2 C :   -0.059355
   3 C :   -0.057190
   4 C :   -0.188888
   5 H :    0.028856
   6 C :   -0.020713
   7 H :    0.039799
   8 H :    0.027043
   9 C :   -0.047707
  10 H :    0.021333
  11 H :    0.024309
  12 C :   -0.065071
  13 H :    0.023591
  14 H :    0.017484
  15 H :    0.023623
  16 S :    0.421181
  17 C :   -0.207768
  18 C :   -0.065405
  19 C :   -0.054962
  20 C :   -0.193537
  21 H :    0.015899
  22 C :   -0.033158
  23 H :    0.032848
  24 H :    0.026170
  25 C :   -0.042122
  26 H :    0.019542
  27 H :    0.016599
  28 C :   -0.068964
  29 H :    0.031933
  30 H :    0.025906
  31 H :    0.033043
  32 H :    0.012470
  33 H :    0.033322

  Mayer bond orders larger than 0.100000
B(  0-S ,  1-C ) :   1.1284 B(  0-S ,  4-C ) :   1.1544 B(  1-C ,  2-C ) :   1.5966
B(  1-C , 32-H ) :   0.9903 B(  2-C ,  3-C ) :   1.2398 B(  2-C ,  6-C ) :   0.9992
B(  3-C ,  4-C ) :   1.5472 B(  3-C ,  5-H ) :   1.0001 B(  4-C , 20-C ) :   1.0634
B(  6-C ,  7-H ) :   0.9542 B(  6-C ,  8-H ) :   0.9330 B(  6-C ,  9-C ) :   1.0462
B(  9-C , 10-H ) :   0.9588 B(  9-C , 11-H ) :   0.9598 B(  9-C , 12-C ) :   1.0775
B( 12-C , 13-H ) :   0.9772 B( 12-C , 14-H ) :   0.9716 B( 12-C , 15-H ) :   0.9759
B( 16-S , 17-C ) :   1.1864 B( 16-S , 20-C ) :   1.1258 B( 17-C , 18-C ) :   1.5607
B( 17-C , 33-H ) :   0.9699 B( 18-C , 19-C ) :   1.2435 B( 18-C , 21-H ) :   1.0042
B( 19-C , 20-C ) :   1.6220 B( 19-C , 22-C ) :   1.0429 B( 22-C , 23-H ) :   0.9303
B( 22-C , 24-H ) :   0.9383 B( 22-C , 25-C ) :   1.0642 B( 25-C , 26-H ) :   0.9510
B( 25-C , 27-H ) :   0.9484 B( 25-C , 28-C ) :   1.0871 B( 28-C , 29-H ) :   0.9747
B( 28-C , 30-H ) :   0.9729 B( 28-C , 31-H ) :   0.9719

Dispersion correction           -0.014510118
FINAL SINGLE POINT ENERGY     -1339.862102233657

DIPOLE MOMENT
-------------
                                X             Y             Z
Electronic contribution:     -7.95070      28.93820       7.41012
Nuclear contribution   :      8.03848     -29.51280      -7.52195
                        -----------------------------------------
Total Dipole Moment    :      0.08778      -0.57460      -0.11183
                        -----------------------------------------
Magnitude (a.u.)       :      0.59193
Magnitude (Debye)      :      1.50456

Rotational constants in cm-1:     0.017230     0.009817     0.006701
Rotational constants in MHz :   516.547159   294.318662   200.902845

                             ****ORCA TERMINATED NORMALLY****
TOTAL RUN TIME: 0 days 0 hours 0 minutes 22 seconds 5 msec
