                         Program Version 4.2.1 -  RELEASE  -
|  1> ! wB97X-D3 SP def2-SVP
|  2> %pal
|  3> nprocs 24
|  4> end
|  5>
|  6> * xyz 0 1
|  7> S 	 28.5346 	 -24.6621 	 -130.084
|  8> C 	 27.2757 	 -24.9156 	 -131.224
|  9> C 	 26.6575 	 -26.1087 	 -131.057
| 10> C 	 27.1675 	 -26.8222 	 -129.883
| 11> C 	 28.0464 	 -26.0429 	 -129.151
| 12> H 	 26.6918 	 -27.7694 	 -129.473
| 13> C 	 25.5398 	 -26.6859 	 -131.931
| 14> H 	 25.0107 	 -26.0766 	 -132.655
| 15> H 	 24.7583 	 -26.9644 	 -131.212
| 16> C 	 25.8596 	 -28.0662 	 -132.509
| 17> H 	 26.7468 	 -27.8768 	 -133.121
| 18> H 	 26.2314 	 -28.7266 	 -131.678
| 19> C 	 24.6871 	 -28.8424 	 -133.206
| 20> H 	 24.0564 	 -29.2335 	 -132.441
| 21> H 	 24.0366 	 -28.1857 	 -133.794
| 22> H 	 25.0766 	 -29.6975 	 -133.774
| 23> S 	 30.2921 	 -26.4064 	 -127.649
| 24> C 	 30.1748 	 -26.5271 	 -125.94
| 25> C 	 28.8847 	 -26.3268 	 -125.47
| 26> C 	 27.9904 	 -26.1874 	 -126.56
| 27> C 	 28.5674 	 -26.297 	 -127.851
| 28> H 	 28.559 	 -26.2251 	 -124.472
| 29> C 	 26.5087 	 -25.9577 	 -126.249
| 30> H 	 25.9186 	 -26.9128 	 -126.05
| 31> H 	 26.1258 	 -25.6014 	 -127.164
| 32> C 	 26.0067 	 -25.0002 	 -125.085
| 33> H 	 26.505 	 -25.2266 	 -124.141
| 34> H 	 24.991 	 -25.1369 	 -124.839
| 35> C 	 26.2811 	 -23.5674 	 -125.417
| 36> H 	 25.9457 	 -22.9559 	 -124.592
| 37> H 	 25.7313 	 -23.3243 	 -126.31
| 38> H 	 27.2803 	 -23.2426 	 -125.531
| 39> H 	 27.0321 	 -24.2867 	 -132.017
| 40> H 	 31.037 	 -26.7552 	 -125.311
| 41> *
| 42>
| 43>                          ****END OF INPUT****

CARTESIAN COORDINATES (ANGSTROEM)
---------------------------------
  S     28.534600  -24.662100  -130.084000
  C     27.275700  -24.915600  -131.224000
  C     26.657500  -26.108700  -131.057000
  C     27.167500  -26.822200  -129.883000
  C     28.046400  -26.042900  -129.151000
  H     26.691800  -27.769400  -129.473000
  C     25.539800  -26.685900  -131.931000
  H     25.010700  -26.076600  -132.655000
  H     24.758300  -26.964400  -131.212000
  C     25.859600  -28.066200  -132.509000
  H     26.746800  -27.876800  -133.121000
  H     26.231400  -28.726600  -131.678000
  C     24.687100  -28.842400  -133.206000
  H     24.056400  -29.233500  -132.441000
  H     24.036600  -28.185700  -133.794000
  H     25.076600  -29.697500  -133.774000
  S     30.292100  -26.406400  -127.649000
  C     30.174800  -26.527100  -125.940000
  C     28.884700  -26.326800  -125.470000
  C     27.990400  -26.187400  -126.560000
  C     28.567400  -26.297000  -127.851000
  H     28.559000  -26.225100  -124.472000
  C     26.508700  -25.957700  -126.249000
  H     25.918600  -26.912800  -126.050000
  H     26.125800  -25.601400  -127.164000
  C     26.006700  -25.000200  -125.085000
  H     26.505000  -25.226600  -124.141000
  H     24.991000  -25.136900  -124.839000
  C     26.281100  -23.567400  -125.417000
  H     25.945700  -22.955900  -124.592000
  H     25.731300  -23.324300  -126.310000
  H     27.280300  -23.242600  -125.531000
  H     27.032100  -24.286700  -132.017000
  H     31.037000  -26.755200  -125.311000

 Total Charge           Charge          ....    0
 Multiplicity           Mult            ....    1
 Number of Electrons    NEL             ....  134
 Basis Dimension        Dim             ....  322

ORBITAL ENERGIES
----------------

  NO   OCC          E(Eh)            E(eV)
   0   2.0000     -88.966624     -2420.9049
   1   2.0000     -88.963102     -2420.8091
   2   2.0000     -10.327549      -281.0269
   3   2.0000     -10.324474      -280.9432
   4   2.0000     -10.319050      -280.7956
   5   2.0000     -10.306550      -280.4555
   6   2.0000     -10.304819      -280.4084
   7   2.0000     -10.303035      -280.3598
   8   2.0000     -10.302371      -280.3418
   9   2.0000     -10.292636      -280.0769
  10   2.0000     -10.290644      -280.0227
  11   2.0000     -10.290190      -280.0103
  12   2.0000     -10.289701      -279.9970
  13   2.0000     -10.284721      -279.8615
  14   2.0000     -10.282815      -279.8096
  15   2.0000     -10.263582      -279.2863
  16   2.0000      -8.082152      -219.9265
  17   2.0000      -8.079022      -219.8414
  18   2.0000      -6.040515      -164.3708
  19   2.0000      -6.037534      -164.2897
  20   2.0000      -6.036452      -164.2602
  21   2.0000      -6.033470      -164.1791
  22   2.0000      -6.033120      -164.1695
  23   2.0000      -6.029584      -164.0733
  24   2.0000      -1.012127       -27.5414
  25   2.0000      -0.988864       -26.9084
  26   2.0000      -0.910157       -24.7666
  27   2.0000      -0.905279       -24.6339
  28   2.0000      -0.874908       -23.8075
  29   2.0000      -0.853686       -23.2300
  30   2.0000      -0.843078       -22.9413
  31   2.0000      -0.814577       -22.1658
  32   2.0000      -0.784063       -21.3354
  33   2.0000      -0.772070       -21.0091
  34   2.0000      -0.712065       -19.3763
  35   2.0000      -0.699985       -19.0476
  36   2.0000      -0.692599       -18.8466
  37   2.0000      -0.661356       -17.9964
  38   2.0000      -0.643937       -17.5224
  39   2.0000      -0.619808       -16.8658
  40   2.0000      -0.598853       -16.2956
  41   2.0000      -0.570477       -15.5235
  42   2.0000      -0.557714       -15.1762
  43   2.0000      -0.545850       -14.8533
  44   2.0000      -0.542266       -14.7558
  45   2.0000      -0.524217       -14.2647
  46   2.0000      -0.519948       -14.1485
  47   2.0000      -0.511314       -13.9136
  48   2.0000      -0.508627       -13.8405
  49   2.0000      -0.503933       -13.7127
  50   2.0000      -0.496564       -13.5122
  51   2.0000      -0.480532       -13.0759
  52   2.0000      -0.466222       -12.6866
  53   2.0000      -0.463454       -12.6112
  54   2.0000      -0.458722       -12.4825
  55   2.0000      -0.454297       -12.3620
  56   2.0000      -0.450447       -12.2573
  57   2.0000      -0.437459       -11.9039
  58   2.0000      -0.431535       -11.7427
  59   2.0000      -0.421548       -11.4709
  60   2.0000      -0.415923       -11.3178
  61   2.0000      -0.414217       -11.2714
  62   2.0000      -0.411096       -11.1865
  63   2.0000      -0.342324        -9.3151
  64   2.0000      -0.330250        -8.9865
  65   2.0000      -0.326013        -8.8713
  66   2.0000      -0.296315        -8.0632
  67   0.0000       0.036382         0.9900
  68   0.0000       0.060122         1.6360
  69   0.0000       0.115319         3.1380
  70   0.0000       0.122323         3.3286
  71   0.0000       0.128835         3.5058

MULLIKEN ATOMIC CHARGES
-----------------------
   0 S :    0.121209
   1 C :   -0.094911
   2 C :   -0.072939
   3 C :    0.014680
   4 C :   -0.171315
   5 H :    0.044191
   6 C :    0.075233
   7 H :    0.022995
   8 H :    0.016761
   9 C :   -0.138510
  10 H :    0.032359
  11 H :    0.035376
  12 C :   -0.024343
  13 H :    0.023478
  14 H :    0.031211
  15 H :    0.048093
  16 S :    0.114289
  17 C :   -0.089998
  18 C :    0.002516
  19 C :   -0.035056
  20 C :   -0.167475
  21 H :    0.002574
  22 C :    0.044670
  23 H :    0.046471
  24 H :    0.007215
  25 C :   -0.048589
  26 H :    0.013859
  27 H :    0.018240
  28 C :   -0.028448
  29 H :    0.019904
  30 H :    0.026256
  31 H :    0.028516
  32 H :    0.017302
  33 H :    0.064187
Sum of atomic charges:   -0.0000000

LOEWDIN ATOMIC CHARGES
----------------------
   0 S :    0.415857
   1 C :   -0.195624
   2 C :   -0.060241
   3 C :   -0.063036
   4 C :   -0.203386
   5 H :    0.042752
   6 C :   -0.037619
   7 H :    0.026720
   8 H :    0.030965
   9 C :   -0.047109
  10 H :    0.020027
  11 H :    0.026813
  12 C :   -0.062883
  13 H :    0.022072
  14 H :    0.024403
  15 H :    0.034030
  16 S :    0.432650
  17 C :   -0.188404
  18 C :   -0.068132
  19 C :   -0.044885
  20 C :   -0.219078
  21 H :    0.026205
  22 C :   -0.035408
  23 H :    0.039616
  24 H :    0.019525
  25 C :   -0.034425
  26 H :    0.018621
  27 H :    0.022348
  28 C :   -0.061847
  29 H :    0.024741
  30 H :    0.024076
  31 H :    0.021787
  32 H :    0.018071
  33 H :    0.030798

  Mayer bond orders larger than 0.100000
B(  0-S ,  1-C ) :   1.1244 B(  0-S ,  4-C ) :   1.1439 B(  1-C ,  2-C ) :   1.6530
B(  1-C , 32-H ) :   0.9765 B(  2-C ,  3-C ) :   1.2025 B(  2-C ,  6-C ) :   1.0219
B(  3-C ,  4-C ) :   1.6009 B(  3-C ,  5-H ) :   0.9786 B(  4-C , 20-C ) :   1.0562
B(  6-C ,  7-H ) :   0.9522 B(  6-C ,  8-H ) :   0.9349 B(  6-C ,  9-C ) :   1.0458
B(  9-C , 10-H ) :   0.9619 B(  9-C , 11-H ) :   0.9562 B(  9-C , 12-C ) :   1.0662
B( 12-C , 13-H ) :   0.9742 B( 12-C , 14-H ) :   0.9776 B( 12-C , 15-H ) :   0.9748
B( 16-S , 17-C ) :   1.1919 B( 16-S , 20-C ) :   1.1477 B( 17-C , 18-C ) :   1.5422
B( 17-C , 20-C ) :   0.1057 B( 17-C , 33-H ) :   0.9657 B( 18-C , 19-C ) :   1.2934
B( 18-C , 21-H ) :   1.0011 B( 19-C , 20-C ) :   1.5453 B( 19-C , 22-C ) :   1.0334
B( 22-C , 23-H ) :   0.9394 B( 22-C , 24-H ) :   0.9343 B( 22-C , 25-C ) :   1.0714
B( 25-C , 26-H ) :   0.9519 B( 25-C , 27-H ) :   0.9514 B( 25-C , 28-C ) :   1.0849
B( 28-C , 29-H ) :   0.9701 B( 28-C , 30-H ) :   0.9748 B( 28-C , 31-H ) :   0.9770

Dispersion correction           -0.013870029
FINAL SINGLE POINT ENERGY     -1339.867472622879

DIPOLE MOMENT
-------------
                                X             Y             Z
Electronic contribution:     23.68333       4.60258       1.40872
Nuclear contribution   :    -24.28630      -4.72682      -1.20751
                        -----------------------------------------
Total Dipole Moment    :     -0.60297      -0.12424       0.20120
                        -----------------------------------------
Magnitude (a.u.)       :      0.64768
Magnitude (Debye)      :      1.64627

Rotational constants in cm-1:     0.019938     0.007458     0.006723
Rotational constants in MHz :   597.724619   223.581624   201.558400

                             ****ORCA TERMINATED NORMALLY****
TOTAL RUN TIME: 0 days 0 hours 0 minutes 21 seconds 223 msec
