                         Program Version 4.2.1 -  RELEASE  -
|  1> ! wB97X-D3 SP def2-SVP
|  2> %pal
|  3> nprocs 24
|  4> end
|  5>
|  6> * xyz 0 1
|  7> S 	 37.7744 	 -6.25958 	 -119.023
|  8> C 	 37.5582 	 -7.39129 	 -120.252
|  9> C 	 37.8015 	 -6.92071 	 -121.511
| 10> C 	 38.1083 	 -5.51191 	 -121.416
| 11> C 	 38.2099 	 -4.93807 	 -120.179
| 12> H 	 38.4689 	 -4.82362 	 -122.185
| 13> C 	 37.7793 	 -7.74383 	 -122.795
| 14> H 	 37.0889 	 -7.32799 	 -123.493
| 15> H 	 37.429 	 -8.76811 	 -122.734
| 16> C 	 39.1274 	 -7.74601 	 -123.451
| 17> H 	 39.4199 	 -6.7525 	 -123.585
| 18> H 	 39.854 	 -8.25381 	 -122.801
| 19> C 	 39.138 	 -8.53849 	 -124.832
| 20> H 	 38.9076 	 -9.60305 	 -124.852
| 21> H 	 38.4462 	 -8.00231 	 -125.395
| 22> H 	 40.1363 	 -8.27547 	 -125.347
| 23> S 	 39.1979 	 -2.40211 	 -121.012
| 24> C 	 39.3176 	 -1.1437 	 -119.76
| 25> C 	 38.7707 	 -1.55853 	 -118.533
| 26> C 	 38.2057 	 -2.88012 	 -118.552
| 27> C 	 38.5134 	 -3.53429 	 -119.765
| 28> H 	 38.6743 	 -0.902333 	 -117.721
| 29> C 	 37.4214 	 -3.46402 	 -117.332
| 30> H 	 37.6287 	 -2.93545 	 -116.405
| 31> H 	 37.7284 	 -4.46016 	 -117.119
| 32> C 	 35.9474 	 -3.25849 	 -117.371
| 33> H 	 35.5275 	 -3.79915 	 -118.262
| 34> H 	 35.789 	 -2.22271 	 -117.417
| 35> C 	 35.1316 	 -3.8063 	 -116.147
| 36> H 	 34.1028 	 -3.32717 	 -116.104
| 37> H 	 35.5681 	 -3.37602 	 -115.296
| 38> H 	 35.0165 	 -4.87322 	 -116.074
| 39> H 	 37.4288 	 -8.46743 	 -119.975
| 40> H 	 39.8001 	 -0.178921 	 -119.967
| 41> *
| 42>
| 43>                          ****END OF INPUT****

CARTESIAN COORDINATES (ANGSTROEM)
---------------------------------
  S     37.774400   -6.259580  -119.023000
  C     37.558200   -7.391290  -120.252000
  C     37.801500   -6.920710  -121.511000
  C     38.108300   -5.511910  -121.416000
  C     38.209900   -4.938070  -120.179000
  H     38.468900   -4.823620  -122.185000
  C     37.779300   -7.743830  -122.795000
  H     37.088900   -7.327990  -123.493000
  H     37.429000   -8.768110  -122.734000
  C     39.127400   -7.746010  -123.451000
  H     39.419900   -6.752500  -123.585000
  H     39.854000   -8.253810  -122.801000
  C     39.138000   -8.538490  -124.832000
  H     38.907600   -9.603050  -124.852000
  H     38.446200   -8.002310  -125.395000
  H     40.136300   -8.275470  -125.347000
  S     39.197900   -2.402110  -121.012000
  C     39.317600   -1.143700  -119.760000
  C     38.770700   -1.558530  -118.533000
  C     38.205700   -2.880120  -118.552000
  C     38.513400   -3.534290  -119.765000
  H     38.674300   -0.902333  -117.721000
  C     37.421400   -3.464020  -117.332000
  H     37.628700   -2.935450  -116.405000
  H     37.728400   -4.460160  -117.119000
  C     35.947400   -3.258490  -117.371000
  H     35.527500   -3.799150  -118.262000
  H     35.789000   -2.222710  -117.417000
  C     35.131600   -3.806300  -116.147000
  H     34.102800   -3.327170  -116.104000
  H     35.568100   -3.376020  -115.296000
  H     35.016500   -4.873220  -116.074000
  H     37.428800   -8.467430  -119.975000
  H     39.800100   -0.178921  -119.967000

 Total Charge           Charge          ....    0
 Multiplicity           Mult            ....    1
 Number of Electrons    NEL             ....  134
 Basis Dimension        Dim             ....  322

ORBITAL ENERGIES
----------------

  NO   OCC          E(Eh)            E(eV)
   0   2.0000     -88.973921     -2421.1035
   1   2.0000     -88.962030     -2420.7799
   2   2.0000     -10.343880      -281.4713
   3   2.0000     -10.335752      -281.2501
   4   2.0000     -10.328932      -281.0645
   5   2.0000     -10.315134      -280.6891
   6   2.0000     -10.313081      -280.6332
   7   2.0000     -10.305034      -280.4142
   8   2.0000     -10.299504      -280.2638
   9   2.0000     -10.296308      -280.1768
  10   2.0000     -10.291123      -280.0357
  11   2.0000     -10.288119      -279.9540
  12   2.0000     -10.281883      -279.7843
  13   2.0000     -10.281653      -279.7780
  14   2.0000     -10.281591      -279.7763
  15   2.0000     -10.277157      -279.6557
  16   2.0000      -8.086800      -220.0530
  17   2.0000      -8.077011      -219.7866
  18   2.0000      -6.045497      -164.5063
  19   2.0000      -6.041741      -164.4041
  20   2.0000      -6.037346      -164.2845
  21   2.0000      -6.035623      -164.2377
  22   2.0000      -6.031408      -164.1229
  23   2.0000      -6.027718      -164.0225
  24   2.0000      -1.002899       -27.2903
  25   2.0000      -0.979391       -26.6506
  26   2.0000      -0.913839       -24.8668
  27   2.0000      -0.911173       -24.7943
  28   2.0000      -0.868538       -23.6341
  29   2.0000      -0.850085       -23.1320
  30   2.0000      -0.841578       -22.9005
  31   2.0000      -0.812712       -22.1150
  32   2.0000      -0.786319       -21.3968
  33   2.0000      -0.773274       -21.0418
  34   2.0000      -0.706029       -19.2120
  35   2.0000      -0.696962       -18.9653
  36   2.0000      -0.685596       -18.6560
  37   2.0000      -0.672786       -18.3074
  38   2.0000      -0.639518       -17.4022
  39   2.0000      -0.620138       -16.8748
  40   2.0000      -0.599743       -16.3198
  41   2.0000      -0.577397       -15.7118
  42   2.0000      -0.570989       -15.5374
  43   2.0000      -0.562628       -15.3099
  44   2.0000      -0.519964       -14.1489
  45   2.0000      -0.518934       -14.1209
  46   2.0000      -0.513962       -13.9856
  47   2.0000      -0.509405       -13.8616
  48   2.0000      -0.504597       -13.7308
  49   2.0000      -0.500677       -13.6241
  50   2.0000      -0.489346       -13.3158
  51   2.0000      -0.481208       -13.0943
  52   2.0000      -0.475625       -12.9424
  53   2.0000      -0.471421       -12.8280
  54   2.0000      -0.461089       -12.5469
  55   2.0000      -0.452254       -12.3065
  56   2.0000      -0.441505       -12.0140
  57   2.0000      -0.438365       -11.9285
  58   2.0000      -0.432681       -11.7738
  59   2.0000      -0.425373       -11.5750
  60   2.0000      -0.418201       -11.3798
  61   2.0000      -0.409764       -11.1503
  62   2.0000      -0.404289       -11.0013
  63   2.0000      -0.365018        -9.9326
  64   2.0000      -0.337942        -9.1959
  65   2.0000      -0.328452        -8.9376
  66   2.0000      -0.283091        -7.7033
  67   0.0000       0.017074         0.4646
  68   0.0000       0.082152         2.2355
  69   0.0000       0.093610         2.5473
  70   0.0000       0.120216         3.2712
  71   0.0000       0.129337         3.5194

MULLIKEN ATOMIC CHARGES
-----------------------
   0 S :    0.069422
   1 C :   -0.124533
   2 C :   -0.057862
   3 C :   -0.019990
   4 C :   -0.125253
   5 H :    0.015780
   6 C :    0.109277
   7 H :    0.015855
   8 H :    0.010944
   9 C :   -0.095258
  10 H :    0.019728
  11 H :    0.033117
  12 C :   -0.051315
  13 H :    0.049672
  14 H :    0.008796
  15 H :    0.043949
  16 S :    0.085410
  17 C :   -0.097697
  18 C :    0.005716
  19 C :   -0.066242
  20 C :   -0.115361
  21 H :    0.002380
  22 C :    0.076210
  23 H :    0.001707
  24 H :    0.028243
  25 C :   -0.065174
  26 H :    0.038571
  27 H :    0.015926
  28 C :   -0.041808
  29 H :    0.036721
  30 H :    0.006529
  31 H :    0.045200
  32 H :    0.068831
  33 H :    0.072507
Sum of atomic charges:    0.0000000

LOEWDIN ATOMIC CHARGES
----------------------
   0 S :    0.405755
   1 C :   -0.211542
   2 C :   -0.064037
   3 C :   -0.074156
   4 C :   -0.170043
   5 H :    0.024650
   6 C :   -0.029799
   7 H :    0.026881
   8 H :    0.029021
   9 C :   -0.031459
  10 H :    0.015060
  11 H :    0.024413
  12 C :   -0.067630
  13 H :    0.026824
  14 H :    0.012303
  15 H :    0.038902
  16 S :    0.369623
  17 C :   -0.174862
  18 C :   -0.059359
  19 C :   -0.047297
  20 C :   -0.167522
  21 H :    0.023213
  22 C :   -0.035088
  23 H :    0.029667
  24 H :    0.013400
  25 C :   -0.035715
  26 H :    0.026569
  27 H :    0.017653
  28 C :   -0.062926
  29 H :    0.036967
  30 H :    0.012629
  31 H :    0.024605
  32 H :    0.039140
  33 H :    0.034160

  Mayer bond orders larger than 0.100000
B(  0-S ,  1-C ) :   1.1592 B(  0-S ,  4-C ) :   1.1174 B(  1-C ,  2-C ) :   1.6267
B(  1-C , 32-H ) :   0.9559 B(  2-C ,  3-C ) :   1.2177 B(  2-C ,  6-C ) :   1.0249
B(  3-C ,  4-C ) :   1.6285 B(  3-C ,  5-H ) :   0.9738 B(  4-C , 20-C ) :   1.0718
B(  6-C ,  7-H ) :   0.9321 B(  6-C ,  8-H ) :   0.9437 B(  6-C ,  9-C ) :   1.0624
B(  9-C , 10-H ) :   0.9589 B(  9-C , 11-H ) :   0.9575 B(  9-C , 12-C ) :   1.0731
B( 12-C , 13-H ) :   0.9778 B( 12-C , 14-H ) :   0.9741 B( 12-C , 15-H ) :   0.9746
B( 16-S , 17-C ) :   1.1380 B( 16-S , 20-C ) :   1.1275 B( 17-C , 18-C ) :   1.6086
B( 17-C , 33-H ) :   0.9654 B( 18-C , 19-C ) :   1.2459 B( 18-C , 21-H ) :   0.9920
B( 19-C , 20-C ) :   1.5833 B( 19-C , 22-C ) :   1.0307 B( 22-C , 23-H ) :   0.9298
B( 22-C , 24-H ) :   0.9364 B( 22-C , 25-C ) :   1.0606 B( 25-C , 26-H ) :   0.9549
B( 25-C , 27-H ) :   0.9548 B( 25-C , 28-C ) :   1.0848 B( 28-C , 29-H ) :   0.9737
B( 28-C , 30-H ) :   0.9709 B( 28-C , 31-H ) :   0.9782

Dispersion correction           -0.013604347
FINAL SINGLE POINT ENERGY     -1339.860109357056

DIPOLE MOMENT
-------------
                                X             Y             Z
Electronic contribution:      7.31496       9.73227       2.53081
Nuclear contribution   :     -7.42037      -9.71165      -2.51203
                        -----------------------------------------
Total Dipole Moment    :     -0.10541       0.02062       0.01878
                        -----------------------------------------
Magnitude (a.u.)       :      0.10904
Magnitude (Debye)      :      0.27716

Rotational constants in cm-1:     0.020488     0.007850     0.005944
Rotational constants in MHz :   614.201941   235.328893   178.205853

                             ****ORCA TERMINATED NORMALLY****
TOTAL RUN TIME: 0 days 0 hours 0 minutes 20 seconds 806 msec
