                         Program Version 4.2.1 -  RELEASE  -
|  1> ! wB97X-D3 SP def2-SVP
|  2> %pal
|  3> nprocs 24
|  4> end
|  5>
|  6> * xyz 0 1
|  7> S 	 -51.7221 	 -52.6056 	 -83.3607
|  8> C 	 -52.7256 	 -51.2934 	 -82.8694
|  9> C 	 -52.6696 	 -51.1316 	 -81.4625
| 10> C 	 -51.8246 	 -52.0859 	 -80.8538
| 11> C 	 -51.1856 	 -52.968 	 -81.7242
| 12> H 	 -51.7814 	 -52.2074 	 -79.8342
| 13> C 	 -53.4705 	 -50.1252 	 -80.6993
| 14> H 	 -53.7986 	 -49.3762 	 -81.431
| 15> H 	 -52.8317 	 -49.7059 	 -79.8949
| 16> C 	 -54.7813 	 -50.5852 	 -80.0753
| 17> H 	 -55.4626 	 -50.8642 	 -80.8752
| 18> H 	 -54.5238 	 -51.4152 	 -79.3833
| 19> C 	 -55.5173 	 -49.4004 	 -79.3399
| 20> H 	 -55.4327 	 -48.5004 	 -79.9053
| 21> H 	 -56.529 	 -49.5899 	 -79.0969
| 22> H 	 -54.9815 	 -49.0855 	 -78.4524
| 23> S 	 -51.2996 	 -55.5778 	 -80.904
| 24> C 	 -49.9078 	 -56.5621 	 -80.9185
| 25> C 	 -48.7659 	 -55.8589 	 -81.2617
| 26> C 	 -49.0844 	 -54.48 	 -81.6307
| 27> C 	 -50.4207 	 -54.1533 	 -81.3819
| 28> H 	 -47.8216 	 -56.313 	 -81.203
| 29> C 	 -48.0722 	 -53.5611 	 -82.2113
| 30> H 	 -48.5183 	 -53.3028 	 -83.1702
| 31> H 	 -47.1865 	 -54.148 	 -82.379
| 32> C 	 -47.7279 	 -52.2523 	 -81.4713
| 33> H 	 -48.6921 	 -51.8692 	 -81.1829
| 34> H 	 -47.2832 	 -51.563 	 -82.1035
| 35> C 	 -46.9409 	 -52.5343 	 -80.1884
| 36> H 	 -45.9646 	 -52.8462 	 -80.4516
| 37> H 	 -47.3477 	 -53.4268 	 -79.6061
| 38> H 	 -46.825 	 -51.6369 	 -79.5274
| 39> H 	 -53.2776 	 -50.7027 	 -83.5355
| 40> H 	 -49.9124 	 -57.6461 	 -80.7934
| 41> *
| 42>
| 43>                          ****END OF INPUT****

CARTESIAN COORDINATES (ANGSTROEM)
---------------------------------
  S    -51.722100  -52.605600  -83.360700
  C    -52.725600  -51.293400  -82.869400
  C    -52.669600  -51.131600  -81.462500
  C    -51.824600  -52.085900  -80.853800
  C    -51.185600  -52.968000  -81.724200
  H    -51.781400  -52.207400  -79.834200
  C    -53.470500  -50.125200  -80.699300
  H    -53.798600  -49.376200  -81.431000
  H    -52.831700  -49.705900  -79.894900
  C    -54.781300  -50.585200  -80.075300
  H    -55.462600  -50.864200  -80.875200
  H    -54.523800  -51.415200  -79.383300
  C    -55.517300  -49.400400  -79.339900
  H    -55.432700  -48.500400  -79.905300
  H    -56.529000  -49.589900  -79.096900
  H    -54.981500  -49.085500  -78.452400
  S    -51.299600  -55.577800  -80.904000
  C    -49.907800  -56.562100  -80.918500
  C    -48.765900  -55.858900  -81.261700
  C    -49.084400  -54.480000  -81.630700
  C    -50.420700  -54.153300  -81.381900
  H    -47.821600  -56.313000  -81.203000
  C    -48.072200  -53.561100  -82.211300
  H    -48.518300  -53.302800  -83.170200
  H    -47.186500  -54.148000  -82.379000
  C    -47.727900  -52.252300  -81.471300
  H    -48.692100  -51.869200  -81.182900
  H    -47.283200  -51.563000  -82.103500
  C    -46.940900  -52.534300  -80.188400
  H    -45.964600  -52.846200  -80.451600
  H    -47.347700  -53.426800  -79.606100
  H    -46.825000  -51.636900  -79.527400
  H    -53.277600  -50.702700  -83.535500
  H    -49.912400  -57.646100  -80.793400

 Total Charge           Charge          ....    0
 Multiplicity           Mult            ....    1
 Number of Electrons    NEL             ....  134
 Basis Dimension        Dim             ....  322

ORBITAL ENERGIES
----------------

  NO   OCC          E(Eh)            E(eV)
   0   2.0000     -88.967924     -2420.9403
   1   2.0000     -88.964569     -2420.8490
   2   2.0000     -10.329961      -281.0925
   3   2.0000     -10.321656      -280.8665
   4   2.0000     -10.316016      -280.7131
   5   2.0000     -10.314024      -280.6589
   6   2.0000     -10.305524      -280.4276
   7   2.0000     -10.300724      -280.2970
   8   2.0000     -10.292448      -280.0717
   9   2.0000     -10.291645      -280.0499
  10   2.0000     -10.290174      -280.0099
  11   2.0000     -10.288785      -279.9721
  12   2.0000     -10.283667      -279.8328
  13   2.0000     -10.276038      -279.6252
  14   2.0000     -10.274826      -279.5922
  15   2.0000     -10.274008      -279.5700
  16   2.0000      -8.082517      -219.9365
  17   2.0000      -8.080230      -219.8742
  18   2.0000      -6.040869      -164.3804
  19   2.0000      -6.038632      -164.3195
  20   2.0000      -6.036837      -164.2707
  21   2.0000      -6.034468      -164.2062
  22   2.0000      -6.033662      -164.1843
  23   2.0000      -6.031179      -164.1167
  24   2.0000      -1.007588       -27.4179
  25   2.0000      -0.985980       -26.8299
  26   2.0000      -0.912961       -24.8429
  27   2.0000      -0.910552       -24.7774
  28   2.0000      -0.869543       -23.6615
  29   2.0000      -0.850865       -23.1532
  30   2.0000      -0.846730       -23.0407
  31   2.0000      -0.815837       -22.2001
  32   2.0000      -0.781895       -21.2764
  33   2.0000      -0.768966       -20.9246
  34   2.0000      -0.712787       -19.3959
  35   2.0000      -0.699700       -19.0398
  36   2.0000      -0.690375       -18.7860
  37   2.0000      -0.664862       -18.0918
  38   2.0000      -0.648738       -17.6530
  39   2.0000      -0.622485       -16.9387
  40   2.0000      -0.588952       -16.0262
  41   2.0000      -0.575773       -15.6676
  42   2.0000      -0.566529       -15.4160
  43   2.0000      -0.552221       -15.0267
  44   2.0000      -0.547585       -14.9006
  45   2.0000      -0.526120       -14.3165
  46   2.0000      -0.519330       -14.1317
  47   2.0000      -0.512881       -13.9562
  48   2.0000      -0.506907       -13.7936
  49   2.0000      -0.498120       -13.5545
  50   2.0000      -0.486978       -13.2513
  51   2.0000      -0.475341       -12.9347
  52   2.0000      -0.472914       -12.8686
  53   2.0000      -0.469012       -12.7625
  54   2.0000      -0.461918       -12.5694
  55   2.0000      -0.447391       -12.1741
  56   2.0000      -0.437227       -11.8975
  57   2.0000      -0.435700       -11.8560
  58   2.0000      -0.432862       -11.7788
  59   2.0000      -0.428630       -11.6636
  60   2.0000      -0.424215       -11.5435
  61   2.0000      -0.417324       -11.3560
  62   2.0000      -0.413423       -11.2498
  63   2.0000      -0.335011        -9.1161
  64   2.0000      -0.331224        -9.0131
  65   2.0000      -0.320966        -8.7339
  66   2.0000      -0.303397        -8.2559
  67   0.0000       0.040741         1.1086
  68   0.0000       0.051948         1.4136
  69   0.0000       0.116362         3.1664
  70   0.0000       0.120572         3.2809
  71   0.0000       0.128523         3.4973

MULLIKEN ATOMIC CHARGES
-----------------------
   0 S :    0.124974
   1 C :   -0.105694
   2 C :   -0.080348
   3 C :    0.070486
   4 C :   -0.165554
   5 H :   -0.020868
   6 C :    0.033938
   7 H :    0.016186
   8 H :    0.035038
   9 C :   -0.072182
  10 H :    0.030589
  11 H :    0.037610
  12 C :   -0.016801
  13 H :    0.011086
  14 H :    0.036173
  15 H :    0.017107
  16 S :    0.128379
  17 C :   -0.098915
  18 C :   -0.017920
  19 C :   -0.073631
  20 C :   -0.170975
  21 H :    0.003817
  22 C :    0.082108
  23 H :    0.028267
  24 H :    0.004401
  25 C :    0.003605
  26 H :    0.025529
  27 H :    0.016065
  28 C :   -0.076167
  29 H :    0.010249
  30 H :    0.044278
  31 H :    0.044371
  32 H :    0.030212
  33 H :    0.064586
Sum of atomic charges:   -0.0000000

LOEWDIN ATOMIC CHARGES
----------------------
   0 S :    0.424693
   1 C :   -0.196106
   2 C :   -0.063543
   3 C :   -0.049219
   4 C :   -0.201553
   5 H :    0.017625
   6 C :   -0.039446
   7 H :    0.030577
   8 H :    0.033895
   9 C :   -0.034623
  10 H :    0.024392
  11 H :    0.025355
  12 C :   -0.062615
  13 H :    0.021077
  14 H :    0.022137
  15 H :    0.024026
  16 S :    0.436597
  17 C :   -0.196500
  18 C :   -0.072629
  19 C :   -0.043168
  20 C :   -0.223591
  21 H :    0.023454
  22 C :   -0.031608
  23 H :    0.035505
  24 H :    0.023571
  25 C :   -0.027409
  26 H :    0.024420
  27 H :    0.015870
  28 C :   -0.070724
  29 H :    0.013323
  30 H :    0.035141
  31 H :    0.030289
  32 H :    0.016960
  33 H :    0.033825

  Mayer bond orders larger than 0.100000
B(  0-S ,  1-C ) :   1.1714 B(  0-S ,  4-C ) :   1.1598 B(  1-C ,  2-C ) :   1.5476
B(  1-C ,  4-C ) :   0.1069 B(  1-C , 32-H ) :   0.9768 B(  2-C ,  3-C ) :   1.2825
B(  2-C ,  6-C ) :   1.0410 B(  3-C ,  4-C ) :   1.5291 B(  3-C ,  5-H ) :   1.0092
B(  4-C , 20-C ) :   1.0394 B(  6-C ,  7-H ) :   0.9335 B(  6-C ,  8-H ) :   0.9399
B(  6-C ,  9-C ) :   1.0724 B(  9-C , 10-H ) :   0.9551 B(  9-C , 11-H ) :   0.9580
B(  9-C , 12-C ) :   1.0742 B( 12-C , 13-H ) :   0.9711 B( 12-C , 14-H ) :   0.9776
B( 12-C , 15-H ) :   0.9726 B( 16-S , 17-C ) :   1.1882 B( 16-S , 20-C ) :   1.1444
B( 17-C , 18-C ) :   1.5881 B( 17-C , 33-H ) :   0.9630 B( 18-C , 19-C ) :   1.2410
B( 18-C , 21-H ) :   1.0000 B( 19-C , 20-C ) :   1.5703 B( 19-C , 22-C ) :   1.0574
B( 22-C , 23-H ) :   0.9129 B( 22-C , 24-H ) :   0.9321 B( 22-C , 25-C ) :   1.0746
B( 25-C , 26-H ) :   0.9540 B( 25-C , 27-H ) :   0.9537 B( 25-C , 28-C ) :   1.0675
B( 28-C , 29-H ) :   0.9745 B( 28-C , 30-H ) :   0.9759 B( 28-C , 31-H ) :   0.9747

Dispersion correction           -0.014535375
FINAL SINGLE POINT ENERGY     -1339.883180656760

DIPOLE MOMENT
-------------
                                X             Y             Z
Electronic contribution:     -1.30987     -17.74705     -11.03147
Nuclear contribution   :      1.35160      17.95996      11.13443
                        -----------------------------------------
Total Dipole Moment    :      0.04173       0.21291       0.10297
                        -----------------------------------------
Magnitude (a.u.)       :      0.24016
Magnitude (Debye)      :      0.61044

Rotational constants in cm-1:     0.020962     0.007568     0.006921
Rotational constants in MHz :   628.410798   226.897864   207.483518

                             ****ORCA TERMINATED NORMALLY****
TOTAL RUN TIME: 0 days 0 hours 0 minutes 20 seconds 382 msec
