                         Program Version 4.2.1 -  RELEASE  -
|  1> ! wB97X-D3 SP def2-SVP
|  2> %pal
|  3> nprocs 24
|  4> end
|  5>
|  6> * xyz 0 1
|  7> S 	 -44.8548 	 -51.1172 	 -74.1448
|  8> C 	 -44.0842 	 -49.5767 	 -74.5031
|  9> C 	 -42.8606 	 -49.4679 	 -73.8345
| 10> C 	 -42.7729 	 -50.5234 	 -72.9185
| 11> C 	 -43.8048 	 -51.4891 	 -72.8941
| 12> H 	 -42.0137 	 -50.5656 	 -72.1594
| 13> C 	 -41.7637 	 -48.3769 	 -74.0846
| 14> H 	 -42.0953 	 -47.5648 	 -74.6928
| 15> H 	 -41.0154 	 -48.8182 	 -74.7796
| 16> C 	 -41.0584 	 -47.7978 	 -72.8356
| 17> H 	 -40.3573 	 -48.4557 	 -72.276
| 18> H 	 -40.4522 	 -47.0006 	 -73.2103
| 19> C 	 -42.0232 	 -47.1755 	 -71.8907
| 20> H 	 -42.7393 	 -46.5697 	 -72.4795
| 21> H 	 -42.5564 	 -47.8723 	 -71.2041
| 22> H 	 -41.6017 	 -46.4877 	 -71.0716
| 23> S 	 -44.7872 	 -54.0543 	 -72.7121
| 24> C 	 -44.8079 	 -54.8183 	 -71.1454
| 25> C 	 -44.4035 	 -53.9634 	 -70.144
| 26> C 	 -43.7647 	 -52.7928 	 -70.6741
| 27> C 	 -44.0464 	 -52.6091 	 -72.0228
| 28> H 	 -44.4426 	 -54.1917 	 -69.0815
| 29> C 	 -43.1414 	 -51.7907 	 -69.7158
| 30> H 	 -43.7924 	 -51.8537 	 -68.8294
| 31> H 	 -43.262 	 -50.743 	 -70.1671
| 32> C 	 -41.6737 	 -52.1089 	 -69.4335
| 33> H 	 -41.1389 	 -52.2198 	 -70.4296
| 34> H 	 -41.5476 	 -53.0821 	 -68.8735
| 35> C 	 -41.0006 	 -51.0467 	 -68.5694
| 36> H 	 -41.5471 	 -50.9926 	 -67.6267
| 37> H 	 -40.9548 	 -50.0609 	 -69.0979
| 38> H 	 -39.9351 	 -51.2506 	 -68.3293
| 39> H 	 -44.4222 	 -48.8719 	 -75.219
| 40> H 	 -45.3181 	 -55.7628 	 -70.8903
| 41> *
| 42>
| 43>                          ****END OF INPUT****

CARTESIAN COORDINATES (ANGSTROEM)
---------------------------------
  S    -44.854800  -51.117200  -74.144800
  C    -44.084200  -49.576700  -74.503100
  C    -42.860600  -49.467900  -73.834500
  C    -42.772900  -50.523400  -72.918500
  C    -43.804800  -51.489100  -72.894100
  H    -42.013700  -50.565600  -72.159400
  C    -41.763700  -48.376900  -74.084600
  H    -42.095300  -47.564800  -74.692800
  H    -41.015400  -48.818200  -74.779600
  C    -41.058400  -47.797800  -72.835600
  H    -40.357300  -48.455700  -72.276000
  H    -40.452200  -47.000600  -73.210300
  C    -42.023200  -47.175500  -71.890700
  H    -42.739300  -46.569700  -72.479500
  H    -42.556400  -47.872300  -71.204100
  H    -41.601700  -46.487700  -71.071600
  S    -44.787200  -54.054300  -72.712100
  C    -44.807900  -54.818300  -71.145400
  C    -44.403500  -53.963400  -70.144000
  C    -43.764700  -52.792800  -70.674100
  C    -44.046400  -52.609100  -72.022800
  H    -44.442600  -54.191700  -69.081500
  C    -43.141400  -51.790700  -69.715800
  H    -43.792400  -51.853700  -68.829400
  H    -43.262000  -50.743000  -70.167100
  C    -41.673700  -52.108900  -69.433500
  H    -41.138900  -52.219800  -70.429600
  H    -41.547600  -53.082100  -68.873500
  C    -41.000600  -51.046700  -68.569400
  H    -41.547100  -50.992600  -67.626700
  H    -40.954800  -50.060900  -69.097900
  H    -39.935100  -51.250600  -68.329300
  H    -44.422200  -48.871900  -75.219000
  H    -45.318100  -55.762800  -70.890300

 Total Charge           Charge          ....    0
 Multiplicity           Mult            ....    1
 Number of Electrons    NEL             ....  134
 Basis Dimension        Dim             ....  322

ORBITAL ENERGIES
----------------

  NO   OCC          E(Eh)            E(eV)
   0   2.0000     -88.967526     -2420.9295
   1   2.0000     -88.966229     -2420.8942
   2   2.0000     -10.329260      -281.0734
   3   2.0000     -10.326576      -281.0004
   4   2.0000     -10.318637      -280.7844
   5   2.0000     -10.312254      -280.6107
   6   2.0000     -10.305980      -280.4400
   7   2.0000     -10.303724      -280.3786
   8   2.0000     -10.302413      -280.3429
   9   2.0000     -10.298814      -280.2450
  10   2.0000     -10.296053      -280.1699
  11   2.0000     -10.295086      -280.1435
  12   2.0000     -10.290898      -280.0296
  13   2.0000     -10.289835      -280.0006
  14   2.0000     -10.283510      -279.8285
  15   2.0000     -10.283473      -279.8275
  16   2.0000      -8.082237      -219.9289
  17   2.0000      -8.082126      -219.9258
  18   2.0000      -6.040864      -164.3803
  19   2.0000      -6.040486      -164.3700
  20   2.0000      -6.036868      -164.2715
  21   2.0000      -6.036374      -164.2581
  22   2.0000      -6.033067      -164.1681
  23   2.0000      -6.032744      -164.1593
  24   2.0000      -1.013391       -27.5758
  25   2.0000      -0.987368       -26.8677
  26   2.0000      -0.915837       -24.9212
  27   2.0000      -0.909417       -24.7465
  28   2.0000      -0.874017       -23.7832
  29   2.0000      -0.852628       -23.2012
  30   2.0000      -0.843061       -22.9409
  31   2.0000      -0.810966       -22.0675
  32   2.0000      -0.786334       -21.3972
  33   2.0000      -0.772066       -21.0090
  34   2.0000      -0.707083       -19.2407
  35   2.0000      -0.695950       -18.9378
  36   2.0000      -0.687984       -18.7210
  37   2.0000      -0.664096       -18.0710
  38   2.0000      -0.640542       -17.4300
  39   2.0000      -0.624602       -16.9963
  40   2.0000      -0.591253       -16.0888
  41   2.0000      -0.570663       -15.5285
  42   2.0000      -0.565106       -15.3773
  43   2.0000      -0.559243       -15.2178
  44   2.0000      -0.537182       -14.6175
  45   2.0000      -0.523480       -14.2446
  46   2.0000      -0.518450       -14.1077
  47   2.0000      -0.509993       -13.8776
  48   2.0000      -0.506058       -13.7706
  49   2.0000      -0.499186       -13.5836
  50   2.0000      -0.498878       -13.5752
  51   2.0000      -0.475777       -12.9465
  52   2.0000      -0.468172       -12.7396
  53   2.0000      -0.466986       -12.7073
  54   2.0000      -0.457076       -12.4377
  55   2.0000      -0.453566       -12.3422
  56   2.0000      -0.445181       -12.1140
  57   2.0000      -0.433738       -11.8026
  58   2.0000      -0.430457       -11.7133
  59   2.0000      -0.427314       -11.6278
  60   2.0000      -0.419935       -11.4270
  61   2.0000      -0.416706       -11.3392
  62   2.0000      -0.410671       -11.1749
  63   2.0000      -0.355970        -9.6864
  64   2.0000      -0.333046        -9.0627
  65   2.0000      -0.330693        -8.9986
  66   2.0000      -0.281658        -7.6643
  67   0.0000       0.023866         0.6494
  68   0.0000       0.073706         2.0056
  69   0.0000       0.111132         3.0241
  70   0.0000       0.114195         3.1074
  71   0.0000       0.121811         3.3147

MULLIKEN ATOMIC CHARGES
-----------------------
   0 S :    0.112614
   1 C :   -0.124367
   2 C :   -0.066855
   3 C :    0.014776
   4 C :   -0.139107
   5 H :   -0.019106
   6 C :    0.071961
   7 H :    0.012096
   8 H :    0.049433
   9 C :   -0.052468
  10 H :    0.037857
  11 H :    0.025213
  12 C :   -0.094678
  13 H :    0.031969
  14 H :    0.039378
  15 H :    0.036886
  16 S :    0.105241
  17 C :   -0.087440
  18 C :   -0.031069
  19 C :   -0.065273
  20 C :   -0.111560
  21 H :    0.024521
  22 C :    0.016251
  23 H :    0.029204
  24 H :    0.045637
  25 C :   -0.104711
  26 H :    0.046773
  27 H :    0.038082
  28 C :   -0.045546
  29 H :    0.033110
  30 H :    0.032912
  31 H :    0.039001
  32 H :    0.032321
  33 H :    0.066944
Sum of atomic charges:    0.0000000

LOEWDIN ATOMIC CHARGES
----------------------
   0 S :    0.441462
   1 C :   -0.194341
   2 C :   -0.057920
   3 C :   -0.073325
   4 C :   -0.217492
   5 H :    0.018610
   6 C :   -0.025496
   7 H :    0.027060
   8 H :    0.042642
   9 C :   -0.049362
  10 H :    0.026843
  11 H :    0.027136
  12 C :   -0.079489
  13 H :    0.026719
  14 H :    0.026062
  15 H :    0.032681
  16 S :    0.398049
  17 C :   -0.192129
  18 C :   -0.067780
  19 C :   -0.055065
  20 C :   -0.191970
  21 H :    0.032852
  22 C :   -0.037824
  23 H :    0.031440
  24 H :    0.037756
  25 C :   -0.050669
  26 H :    0.029887
  27 H :    0.030495
  28 C :   -0.072881
  29 H :    0.025431
  30 H :    0.026281
  31 H :    0.028772
  32 H :    0.019215
  33 H :    0.036349

  Mayer bond orders larger than 0.100000
B(  0-S ,  1-C ) :   1.1621 B(  0-S ,  4-C ) :   1.1807 B(  1-C ,  2-C ) :   1.5571
B(  1-C ,  4-C ) :   0.1126 B(  1-C , 32-H ) :   0.9746 B(  2-C ,  3-C ) :   1.3045
B(  2-C ,  6-C ) :   1.0057 B(  3-C ,  4-C ) :   1.5008 B(  3-C ,  5-H ) :   0.9963
B(  4-C , 20-C ) :   1.0705 B(  6-C ,  7-H ) :   0.9413 B(  6-C ,  8-H ) :   0.9375
B(  6-C ,  9-C ) :   1.0779 B(  9-C , 10-H ) :   0.9515 B(  9-C , 11-H ) :   0.9491
B(  9-C , 12-C ) :   1.0802 B( 12-C , 13-H ) :   0.9734 B( 12-C , 14-H ) :   0.9699
B( 12-C , 15-H ) :   0.9724 B( 16-S , 17-C ) :   1.1438 B( 16-S , 20-C ) :   1.1261
B( 17-C , 18-C ) :   1.6274 B( 17-C , 33-H ) :   0.9602 B( 18-C , 19-C ) :   1.2371
B( 18-C , 21-H ) :   0.9817 B( 19-C , 20-C ) :   1.5941 B( 19-C , 22-C ) :   1.0418
B( 22-C , 23-H ) :   0.9352 B( 22-C , 24-H ) :   0.9402 B( 22-C , 25-C ) :   1.0500
B( 25-C , 26-H ) :   0.9539 B( 25-C , 27-H ) :   0.9520 B( 25-C , 28-C ) :   1.0856
B( 28-C , 29-H ) :   0.9711 B( 28-C , 30-H ) :   0.9730 B( 28-C , 31-H ) :   0.9741

Dispersion correction           -0.014877140
FINAL SINGLE POINT ENERGY     -1339.880272526049

DIPOLE MOMENT
-------------
                                X             Y             Z
Electronic contribution:    -19.79143     -19.77107     -16.68688
Nuclear contribution   :     20.20081      20.16187      17.11048
                        -----------------------------------------
Total Dipole Moment    :      0.40939       0.39080       0.42359
                        -----------------------------------------
Magnitude (a.u.)       :      0.70693
Magnitude (Debye)      :      1.79688

Rotational constants in cm-1:     0.017211     0.010497     0.006877
Rotational constants in MHz :   515.986829   314.703691   206.169555

                             ****ORCA TERMINATED NORMALLY****
TOTAL RUN TIME: 0 days 0 hours 0 minutes 22 seconds 366 msec
