                         Program Version 4.2.1 -  RELEASE  -
|  1> ! wB97X-D3 SP def2-SVP
|  2> %pal
|  3> nprocs 24
|  4> end
|  5>
|  6> * xyz 0 1
|  7> S 	 -102.71 	 15.7762 	 -119.971
|  8> C 	 -101.337 	 16.516 	 -119.152
|  9> C 	 -100.852 	 15.6304 	 -118.149
| 10> C 	 -101.538 	 14.4275 	 -118.13
| 11> C 	 -102.616 	 14.3219 	 -118.981
| 12> H 	 -101.399 	 13.6005 	 -117.528
| 13> C 	 -99.7916 	 15.902 	 -117.121
| 14> H 	 -100.155 	 16.3306 	 -116.224
| 15> H 	 -99.1494 	 16.6259 	 -117.585
| 16> C 	 -98.7805 	 14.7763 	 -116.878
| 17> H 	 -99.3123 	 13.9066 	 -116.487
| 18> H 	 -98.1858 	 14.4056 	 -117.653
| 19> C 	 -97.6902 	 15.2252 	 -115.869
| 20> H 	 -97.3218 	 16.2373 	 -115.986
| 21> H 	 -98.024 	 15.1829 	 -114.826
| 22> H 	 -96.8025 	 14.58 	 -115.906
| 23> S 	 -105.067 	 13.6806 	 -119.75
| 24> C 	 -105.66 	 12.0633 	 -119.665
| 25> C 	 -104.624 	 11.1533 	 -119.528
| 26> C 	 -103.358 	 11.8159 	 -119.288
| 27> C 	 -103.484 	 13.185 	 -119.249
| 28> H 	 -104.851 	 10.1422 	 -119.62
| 29> C 	 -102.105 	 11.0562 	 -119.168
| 30> H 	 -102.341 	 10.0405 	 -118.887
| 31> H 	 -101.472 	 11.466 	 -118.34
| 32> C 	 -101.295 	 10.9133 	 -120.417
| 33> H 	 -100.422 	 10.2554 	 -120.253
| 34> H 	 -101.026 	 11.9026 	 -120.88
| 35> C 	 -102.141 	 10.0998 	 -121.452
| 36> H 	 -102.362 	 9.12764 	 -121.04
| 37> H 	 -101.698 	 10.0085 	 -122.464
| 38> H 	 -103.115 	 10.5818 	 -121.675
| 39> H 	 -100.924 	 17.5434 	 -119.273
| 40> H 	 -106.684 	 11.7312 	 -119.923
| 41> *
| 42>
| 43>                          ****END OF INPUT****

CARTESIAN COORDINATES (ANGSTROEM)
---------------------------------
  S    -102.710000   15.776200  -119.971000
  C    -101.337000   16.516000  -119.152000
  C    -100.852000   15.630400  -118.149000
  C    -101.538000   14.427500  -118.130000
  C    -102.616000   14.321900  -118.981000
  H    -101.399000   13.600500  -117.528000
  C    -99.791600   15.902000  -117.121000
  H    -100.155000   16.330600  -116.224000
  H    -99.149400   16.625900  -117.585000
  C    -98.780500   14.776300  -116.878000
  H    -99.312300   13.906600  -116.487000
  H    -98.185800   14.405600  -117.653000
  C    -97.690200   15.225200  -115.869000
  H    -97.321800   16.237300  -115.986000
  H    -98.024000   15.182900  -114.826000
  H    -96.802500   14.580000  -115.906000
  S    -105.067000   13.680600  -119.750000
  C    -105.660000   12.063300  -119.665000
  C    -104.624000   11.153300  -119.528000
  C    -103.358000   11.815900  -119.288000
  C    -103.484000   13.185000  -119.249000
  H    -104.851000   10.142200  -119.620000
  C    -102.105000   11.056200  -119.168000
  H    -102.341000   10.040500  -118.887000
  H    -101.472000   11.466000  -118.340000
  C    -101.295000   10.913300  -120.417000
  H    -100.422000   10.255400  -120.253000
  H    -101.026000   11.902600  -120.880000
  C    -102.141000   10.099800  -121.452000
  H    -102.362000    9.127640  -121.040000
  H    -101.698000   10.008500  -122.464000
  H    -103.115000   10.581800  -121.675000
  H    -100.924000   17.543400  -119.273000
  H    -106.684000   11.731200  -119.923000

 Total Charge           Charge          ....    0
 Multiplicity           Mult            ....    1
 Number of Electrons    NEL             ....  134
 Basis Dimension        Dim             ....  322

ORBITAL ENERGIES
----------------

  NO   OCC          E(Eh)            E(eV)
   0   2.0000     -88.969509     -2420.9834
   1   2.0000     -88.964072     -2420.8355
   2   2.0000     -10.329561      -281.0817
   3   2.0000     -10.326318      -280.9934
   4   2.0000     -10.321276      -280.8562
   5   2.0000     -10.317652      -280.7576
   6   2.0000     -10.304379      -280.3964
   7   2.0000     -10.300444      -280.2893
   8   2.0000     -10.292981      -280.0863
   9   2.0000     -10.289666      -279.9960
  10   2.0000     -10.288468      -279.9634
  11   2.0000     -10.287220      -279.9295
  12   2.0000     -10.284545      -279.8567
  13   2.0000     -10.282003      -279.7875
  14   2.0000     -10.278327      -279.6875
  15   2.0000     -10.275691      -279.6158
  16   2.0000      -8.083397      -219.9604
  17   2.0000      -8.079884      -219.8648
  18   2.0000      -6.041973      -164.4104
  19   2.0000      -6.038381      -164.3127
  20   2.0000      -6.037912      -164.2999
  21   2.0000      -6.034294      -164.2015
  22   2.0000      -6.034244      -164.2001
  23   2.0000      -6.030540      -164.0993
  24   2.0000      -1.012841       -27.5608
  25   2.0000      -0.986379       -26.8407
  26   2.0000      -0.919531       -25.0217
  27   2.0000      -0.914586       -24.8871
  28   2.0000      -0.871393       -23.7118
  29   2.0000      -0.852539       -23.1988
  30   2.0000      -0.843377       -22.9495
  31   2.0000      -0.817819       -22.2540
  32   2.0000      -0.782338       -21.2885
  33   2.0000      -0.771163       -20.9844
  34   2.0000      -0.714438       -19.4408
  35   2.0000      -0.701324       -19.0840
  36   2.0000      -0.686412       -18.6782
  37   2.0000      -0.671507       -18.2726
  38   2.0000      -0.643540       -17.5116
  39   2.0000      -0.626047       -17.0356
  40   2.0000      -0.597254       -16.2521
  41   2.0000      -0.575352       -15.6561
  42   2.0000      -0.566543       -15.4164
  43   2.0000      -0.553985       -15.0747
  44   2.0000      -0.546738       -14.8775
  45   2.0000      -0.528998       -14.3948
  46   2.0000      -0.522268       -14.2116
  47   2.0000      -0.508327       -13.8323
  48   2.0000      -0.501509       -13.6467
  49   2.0000      -0.496603       -13.5133
  50   2.0000      -0.490121       -13.3369
  51   2.0000      -0.479719       -13.0538
  52   2.0000      -0.470886       -12.8134
  53   2.0000      -0.470139       -12.7931
  54   2.0000      -0.462031       -12.5725
  55   2.0000      -0.447519       -12.1776
  56   2.0000      -0.443200       -12.0601
  57   2.0000      -0.438801       -11.9404
  58   2.0000      -0.434967       -11.8360
  59   2.0000      -0.424501       -11.5513
  60   2.0000      -0.420008       -11.4290
  61   2.0000      -0.412735       -11.2311
  62   2.0000      -0.409983       -11.1562
  63   2.0000      -0.355108        -9.6630
  64   2.0000      -0.337025        -9.1709
  65   2.0000      -0.327946        -8.9239
  66   2.0000      -0.284000        -7.7280
  67   0.0000       0.022308         0.6070
  68   0.0000       0.070286         1.9126
  69   0.0000       0.104464         2.8426
  70   0.0000       0.120101         3.2681
  71   0.0000       0.135536         3.6881

MULLIKEN ATOMIC CHARGES
-----------------------
   0 S :    0.105466
   1 C :   -0.131453
   2 C :   -0.065230
   3 C :    0.021085
   4 C :   -0.105928
   5 H :   -0.028613
   6 C :    0.096886
   7 H :    0.042789
   8 H :    0.008090
   9 C :   -0.073954
  10 H :    0.028362
  11 H :    0.023896
  12 C :   -0.070191
  13 H :    0.025214
  14 H :    0.028232
  15 H :    0.031567
  16 S :    0.096293
  17 C :   -0.087960
  18 C :   -0.027313
  19 C :   -0.051176
  20 C :   -0.140284
  21 H :   -0.003382
  22 C :    0.072516
  23 H :    0.003792
  24 H :    0.033174
  25 C :   -0.053756
  26 H :    0.039299
  27 H :    0.050380
  28 C :   -0.096428
  29 H :    0.017615
  30 H :    0.038645
  31 H :    0.045004
  32 H :    0.062379
  33 H :    0.064983
Sum of atomic charges:    0.0000000

LOEWDIN ATOMIC CHARGES
----------------------
   0 S :    0.400459
   1 C :   -0.208405
   2 C :   -0.060343
   3 C :   -0.064734
   4 C :   -0.184566
   5 H :    0.016732
   6 C :   -0.026809
   7 H :    0.031534
   8 H :    0.030135
   9 C :   -0.034119
  10 H :    0.020797
  11 H :    0.021030
  12 C :   -0.067855
  13 H :    0.021899
  14 H :    0.023809
  15 H :    0.026812
  16 S :    0.419418
  17 C :   -0.194394
  18 C :   -0.061919
  19 C :   -0.057039
  20 C :   -0.194722
  21 H :    0.021695
  22 C :   -0.040210
  23 H :    0.027785
  24 H :    0.034172
  25 C :   -0.035930
  26 H :    0.029358
  27 H :    0.031865
  28 C :   -0.074069
  29 H :    0.016740
  30 H :    0.027777
  31 H :    0.027596
  32 H :    0.039573
  33 H :    0.035930

  Mayer bond orders larger than 0.100000
B(  0-S ,  1-C ) :   1.1434 B(  0-S ,  4-C ) :   1.1469 B(  1-C ,  2-C ) :   1.5746
B(  1-C ,  4-C ) :   0.1148 B(  1-C , 32-H ) :   0.9646 B(  2-C ,  3-C ) :   1.2596
B(  2-C ,  6-C ) :   1.0171 B(  3-C ,  4-C ) :   1.5746 B(  3-C ,  5-H ) :   1.0110
B(  4-C , 20-C ) :   1.0426 B(  6-C ,  7-H ) :   0.9443 B(  6-C ,  8-H ) :   0.9343
B(  6-C ,  9-C ) :   1.0606 B(  9-C , 10-H ) :   0.9520 B(  9-C , 11-H ) :   0.9642
B(  9-C , 12-C ) :   1.0765 B( 12-C , 13-H ) :   0.9749 B( 12-C , 14-H ) :   0.9766
B( 12-C , 15-H ) :   0.9782 B( 16-S , 17-C ) :   1.1617 B( 16-S , 20-C ) :   1.1366
B( 17-C , 18-C ) :   1.6110 B( 17-C , 33-H ) :   0.9624 B( 18-C , 19-C ) :   1.2164
B( 18-C , 21-H ) :   1.0039 B( 19-C , 20-C ) :   1.5898 B( 19-C , 22-C ) :   1.0595
B( 22-C , 23-H ) :   0.9213 B( 22-C , 24-H ) :   0.9294 B( 22-C , 25-C ) :   1.0771
B( 25-C , 26-H ) :   0.9551 B( 25-C , 27-H ) :   0.9554 B( 25-C , 28-C ) :   1.0670
B( 28-C , 29-H ) :   0.9744 B( 28-C , 30-H ) :   0.9735 B( 28-C , 31-H ) :   0.9730

Dispersion correction           -0.014316683
FINAL SINGLE POINT ENERGY     -1339.868996280780

DIPOLE MOMENT
-------------
                                X             Y             Z
Electronic contribution:    -23.68115      11.54677      -7.66145
Nuclear contribution   :     24.11145     -11.94195       7.85894
                        -----------------------------------------
Total Dipole Moment    :      0.43030      -0.39518       0.19749
                        -----------------------------------------
Magnitude (a.u.)       :      0.61670
Magnitude (Debye)      :      1.56754

Rotational constants in cm-1:     0.020033     0.008491     0.006783
Rotational constants in MHz :   600.560365   254.540044   203.350182

                             ****ORCA TERMINATED NORMALLY****
TOTAL RUN TIME: 0 days 0 hours 0 minutes 20 seconds 829 msec
