                         Program Version 4.2.1 -  RELEASE  -
|  1> ! wB97X-D3 SP def2-SVP
|  2> %pal
|  3> nprocs 24
|  4> end
|  5>
|  6> * xyz 0 1
|  7> S 	 -32.4757 	 18.0474 	 14.2841
|  8> C 	 -31.0918 	 19.0789 	 14.3706
|  9> C 	 -29.9261 	 18.346 	 14.3143
| 10> C 	 -30.1417 	 16.9745 	 14.1217
| 11> C 	 -31.4672 	 16.6324 	 13.9398
| 12> H 	 -29.2786 	 16.2647 	 14.0885
| 13> C 	 -28.567 	 18.9063 	 14.472
| 14> H 	 -27.9435 	 18.9025 	 13.5565
| 15> H 	 -28.1243 	 18.2587 	 15.2441
| 16> C 	 -28.5193 	 20.3914 	 14.8504
| 17> H 	 -29.0807 	 21.156 	 14.3062
| 18> H 	 -29.0275 	 20.572 	 15.8576
| 19> C 	 -27.0204 	 20.7474 	 15.0422
| 20> H 	 -26.5544 	 20.0686 	 15.7378
| 21> H 	 -26.4683 	 20.7076 	 14.1129
| 22> H 	 -26.9163 	 21.7148 	 15.4117
| 23> S 	 -33.2494 	 14.7158 	 14.8653
| 24> C 	 -33.2926 	 13.1403 	 13.9476
| 25> C 	 -32.3464 	 13.0987 	 12.977
| 26> C 	 -31.6634 	 14.2874 	 12.8406
| 27> C 	 -31.9493 	 15.2809 	 13.7696
| 28> H 	 -32.3222 	 12.2803 	 12.2828
| 29> C 	 -30.631 	 14.4537 	 11.8019
| 30> H 	 -30.2098 	 13.5466 	 11.4211
| 31> H 	 -29.7698 	 14.7682 	 12.3412
| 32> C 	 -31.0531 	 15.5816 	 10.867
| 33> H 	 -31.5941 	 16.4841 	 11.3154
| 34> H 	 -31.9419 	 15.1976 	 10.3371
| 35> C 	 -29.9893 	 15.9837 	 9.83802
| 36> H 	 -29.1469 	 15.2975 	 9.80094
| 37> H 	 -29.6256 	 16.9565 	 9.95727
| 38> H 	 -30.464 	 15.8151 	 8.88453
| 39> H 	 -31.1739 	 20.1008 	 14.6476
| 40> H 	 -33.9092 	 12.3359 	 14.2326
| 41> *
| 42>
| 43>                          ****END OF INPUT****

CARTESIAN COORDINATES (ANGSTROEM)
---------------------------------
  S    -32.475700   18.047400   14.284100
  C    -31.091800   19.078900   14.370600
  C    -29.926100   18.346000   14.314300
  C    -30.141700   16.974500   14.121700
  C    -31.467200   16.632400   13.939800
  H    -29.278600   16.264700   14.088500
  C    -28.567000   18.906300   14.472000
  H    -27.943500   18.902500   13.556500
  H    -28.124300   18.258700   15.244100
  C    -28.519300   20.391400   14.850400
  H    -29.080700   21.156000   14.306200
  H    -29.027500   20.572000   15.857600
  C    -27.020400   20.747400   15.042200
  H    -26.554400   20.068600   15.737800
  H    -26.468300   20.707600   14.112900
  H    -26.916300   21.714800   15.411700
  S    -33.249400   14.715800   14.865300
  C    -33.292600   13.140300   13.947600
  C    -32.346400   13.098700   12.977000
  C    -31.663400   14.287400   12.840600
  C    -31.949300   15.280900   13.769600
  H    -32.322200   12.280300   12.282800
  C    -30.631000   14.453700   11.801900
  H    -30.209800   13.546600   11.421100
  H    -29.769800   14.768200   12.341200
  C    -31.053100   15.581600   10.867000
  H    -31.594100   16.484100   11.315400
  H    -31.941900   15.197600   10.337100
  C    -29.989300   15.983700    9.838020
  H    -29.146900   15.297500    9.800940
  H    -29.625600   16.956500    9.957270
  H    -30.464000   15.815100    8.884530
  H    -31.173900   20.100800   14.647600
  H    -33.909200   12.335900   14.232600

 Total Charge           Charge          ....    0
 Multiplicity           Mult            ....    1
 Number of Electrons    NEL             ....  134
 Basis Dimension        Dim             ....  322

ORBITAL ENERGIES
----------------

  NO   OCC          E(Eh)            E(eV)
   0   2.0000     -88.966570     -2420.9034
   1   2.0000     -88.962627     -2420.7962
   2   2.0000     -10.330107      -281.0965
   3   2.0000     -10.324629      -280.9474
   4   2.0000     -10.316370      -280.7227
   5   2.0000     -10.308984      -280.5217
   6   2.0000     -10.295054      -280.1427
   7   2.0000     -10.293807      -280.1087
   8   2.0000     -10.293633      -280.1040
   9   2.0000     -10.293580      -280.1026
  10   2.0000     -10.293213      -280.0926
  11   2.0000     -10.286251      -279.9031
  12   2.0000     -10.283700      -279.8337
  13   2.0000     -10.278755      -279.6991
  14   2.0000     -10.272918      -279.5403
  15   2.0000     -10.265924      -279.3500
  16   2.0000      -8.081170      -219.8998
  17   2.0000      -8.075839      -219.7547
  18   2.0000      -6.039724      -164.3493
  19   2.0000      -6.035680      -164.2392
  20   2.0000      -6.034440      -164.2054
  21   2.0000      -6.031908      -164.1366
  22   2.0000      -6.030641      -164.1021
  23   2.0000      -6.026520      -163.9899
  24   2.0000      -1.006950       -27.4005
  25   2.0000      -0.985233       -26.8096
  26   2.0000      -0.916028       -24.9264
  27   2.0000      -0.908324       -24.7168
  28   2.0000      -0.871915       -23.7260
  29   2.0000      -0.854449       -23.2507
  30   2.0000      -0.846560       -23.0361
  31   2.0000      -0.816847       -22.2275
  32   2.0000      -0.780223       -21.2309
  33   2.0000      -0.767018       -20.8716
  34   2.0000      -0.719342       -19.5743
  35   2.0000      -0.705473       -19.1969
  36   2.0000      -0.692469       -18.8430
  37   2.0000      -0.666412       -18.1340
  38   2.0000      -0.640285       -17.4230
  39   2.0000      -0.620101       -16.8738
  40   2.0000      -0.600055       -16.3283
  41   2.0000      -0.573941       -15.6177
  42   2.0000      -0.568374       -15.4662
  43   2.0000      -0.554613       -15.0918
  44   2.0000      -0.529887       -14.4189
  45   2.0000      -0.524007       -14.2589
  46   2.0000      -0.521023       -14.1778
  47   2.0000      -0.510096       -13.8804
  48   2.0000      -0.506098       -13.7716
  49   2.0000      -0.502350       -13.6697
  50   2.0000      -0.490452       -13.3459
  51   2.0000      -0.486919       -13.2497
  52   2.0000      -0.477888       -13.0040
  53   2.0000      -0.459595       -12.5062
  54   2.0000      -0.458750       -12.4832
  55   2.0000      -0.451987       -12.2992
  56   2.0000      -0.445514       -12.1230
  57   2.0000      -0.437466       -11.9041
  58   2.0000      -0.431770       -11.7490
  59   2.0000      -0.422858       -11.5066
  60   2.0000      -0.415179       -11.2976
  61   2.0000      -0.413669       -11.2565
  62   2.0000      -0.396817       -10.7979
  63   2.0000      -0.348678        -9.4880
  64   2.0000      -0.332308        -9.0426
  65   2.0000      -0.325274        -8.8512
  66   2.0000      -0.286279        -7.7900
  67   0.0000       0.024261         0.6602
  68   0.0000       0.069592         1.8937
  69   0.0000       0.103823         2.8252
  70   0.0000       0.129872         3.5340
  71   0.0000       0.132411         3.6031

MULLIKEN ATOMIC CHARGES
-----------------------
   0 S :    0.114796
   1 C :   -0.116861
   2 C :   -0.068004
   3 C :    0.007990
   4 C :   -0.148599
   5 H :    0.032551
   6 C :    0.058898
   7 H :    0.045798
   8 H :    0.042727
   9 C :   -0.152617
  10 H :    0.039469
  11 H :    0.026413
  12 C :    0.009579
  13 H :    0.023895
  14 H :    0.026103
  15 H :    0.013229
  16 S :    0.079056
  17 C :   -0.081779
  18 C :   -0.013407
  19 C :   -0.056433
  20 C :   -0.151752
  21 H :    0.015596
  22 C :    0.147926
  23 H :    0.006564
  24 H :   -0.005827
  25 C :   -0.143135
  26 H :    0.062247
  27 H :    0.018539
  28 C :    0.014825
  29 H :    0.014819
  30 H :    0.033599
  31 H :    0.023420
  32 H :    0.039191
  33 H :    0.041184
Sum of atomic charges:   -0.0000000

LOEWDIN ATOMIC CHARGES
----------------------
   0 S :    0.407278
   1 C :   -0.200366
   2 C :   -0.071242
   3 C :   -0.061202
   4 C :   -0.190971
   5 H :    0.038647
   6 C :   -0.034851
   7 H :    0.038536
   8 H :    0.041394
   9 C :   -0.051485
  10 H :    0.024118
  11 H :    0.026282
  12 C :   -0.054129
  13 H :    0.024903
  14 H :    0.022810
  15 H :    0.016566
  16 S :    0.355408
  17 C :   -0.144256
  18 C :   -0.070913
  19 C :   -0.053414
  20 C :   -0.182842
  21 H :    0.034696
  22 C :   -0.034726
  23 H :    0.027801
  24 H :    0.024631
  25 C :   -0.048306
  26 H :    0.041706
  27 H :    0.022527
  28 C :   -0.061314
  29 H :    0.023285
  30 H :    0.019666
  31 H :    0.029642
  32 H :    0.021326
  33 H :    0.018795

  Mayer bond orders larger than 0.100000
B(  0-S ,  1-C ) :   1.1331 B(  0-S ,  4-C ) :   1.1419 B(  1-C ,  2-C ) :   1.5960
B(  1-C , 32-H ) :   0.9623 B(  2-C ,  3-C ) :   1.2849 B(  2-C ,  6-C ) :   1.0119
B(  3-C ,  4-C ) :   1.5372 B(  3-C ,  5-H ) :   0.9860 B(  4-C , 20-C ) :   1.0705
B(  6-C ,  7-H ) :   0.9397 B(  6-C ,  8-H ) :   0.9347 B(  6-C ,  9-C ) :   1.0724
B(  9-C , 10-H ) :   0.9529 B(  9-C , 11-H ) :   0.9502 B(  9-C , 12-C ) :   1.0848
B( 12-C , 13-H ) :   0.9742 B( 12-C , 14-H ) :   0.9743 B( 12-C , 15-H ) :   0.9697
B( 16-S , 17-C ) :   1.1442 B( 16-S , 20-C ) :   1.1167 B( 17-C , 18-C ) :   1.6049
B( 17-C , 20-C ) :   0.1105 B( 17-C , 33-H ) :   0.9703 B( 18-C , 19-C ) :   1.2621
B( 18-C , 21-H ) :   0.9912 B( 19-C , 20-C ) :   1.5912 B( 19-C , 22-C ) :   1.0371
B( 22-C , 23-H ) :   0.9288 B( 22-C , 24-H ) :   0.9189 B( 22-C , 25-C ) :   1.0306
B( 25-C , 26-H ) :   0.9577 B( 25-C , 27-H ) :   0.9631 B( 25-C , 28-C ) :   1.0565
B( 28-C , 29-H ) :   0.9754 B( 28-C , 30-H ) :   0.9779 B( 28-C , 31-H ) :   0.9764

Dispersion correction           -0.014426924
FINAL SINGLE POINT ENERGY     -1339.856762562758

DIPOLE MOMENT
-------------
                                X             Y             Z
Electronic contribution:    -23.64186     -10.68100      11.20693
Nuclear contribution   :     24.29637      10.66856     -11.44010
                        -----------------------------------------
Total Dipole Moment    :      0.65451      -0.01245      -0.23316
                        -----------------------------------------
Magnitude (a.u.)       :      0.69491
Magnitude (Debye)      :      1.76632

Rotational constants in cm-1:     0.021536     0.008065     0.006646
Rotational constants in MHz :   645.636910   241.782499   199.256807

                             ****ORCA TERMINATED NORMALLY****
TOTAL RUN TIME: 0 days 0 hours 0 minutes 22 seconds 199 msec
