                         Program Version 4.2.1 -  RELEASE  -
|  1> ! wB97X-D3 SP def2-SVP
|  2> %pal
|  3> nprocs 24
|  4> end
|  5>
|  6> * xyz 0 1
|  7> S 	 -102.081 	 -5.16474 	 -105.968
|  8> C 	 -101.495 	 -5.83923 	 -107.495
|  9> C 	 -101.849 	 -5.08794 	 -108.592
| 10> C 	 -102.354 	 -3.84768 	 -108.246
| 11> C 	 -102.526 	 -3.70221 	 -106.878
| 12> H 	 -102.59 	 -3.05702 	 -108.895
| 13> C 	 -101.474 	 -5.43832 	 -110.048
| 14> H 	 -102.319 	 -5.85556 	 -110.505
| 15> H 	 -100.721 	 -6.24893 	 -109.909
| 16> C 	 -100.821 	 -4.22023 	 -110.717
| 17> H 	 -101.419 	 -3.358 	 -110.679
| 18> H 	 -99.8754 	 -4.22476 	 -110.302
| 19> C 	 -100.416 	 -4.59956 	 -112.174
| 20> H 	 -100.017 	 -5.676 	 -112.303
| 21> H 	 -101.175 	 -4.58129 	 -112.96
| 22> H 	 -99.6662 	 -3.93385 	 -112.496
| 23> S 	 -101.984 	 -1.83324 	 -104.882
| 24> C 	 -103.24 	 -0.784427 	 -104.283
| 25> C 	 -104.333 	 -0.830812 	 -105.078
| 26> C 	 -104.194 	 -1.76647 	 -106.147
| 27> C 	 -103.001 	 -2.46658 	 -106.184
| 28> H 	 -105.278 	 -0.258597 	 -104.952
| 29> C 	 -105.35 	 -1.99799 	 -107.051
| 30> H 	 -104.943 	 -2.50234 	 -107.935
| 31> H 	 -105.891 	 -1.05578 	 -107.319
| 32> C 	 -106.362 	 -2.9733 	 -106.388
| 33> H 	 -106.606 	 -2.57695 	 -105.374
| 34> H 	 -105.808 	 -3.90177 	 -106.121
| 35> C 	 -107.585 	 -3.23393 	 -107.339
| 36> H 	 -107.18 	 -3.8891 	 -108.125
| 37> H 	 -108 	 -2.37009 	 -107.785
| 38> H 	 -108.34 	 -3.73147 	 -106.753
| 39> H 	 -100.967 	 -6.7924 	 -107.492
| 40> H 	 -103.091 	 -0.0470532 	 -103.498
| 41> *
| 42>
| 43>                          ****END OF INPUT****

CARTESIAN COORDINATES (ANGSTROEM)
---------------------------------
  S    -102.081000   -5.164740  -105.968000
  C    -101.495000   -5.839230  -107.495000
  C    -101.849000   -5.087940  -108.592000
  C    -102.354000   -3.847680  -108.246000
  C    -102.526000   -3.702210  -106.878000
  H    -102.590000   -3.057020  -108.895000
  C    -101.474000   -5.438320  -110.048000
  H    -102.319000   -5.855560  -110.505000
  H    -100.721000   -6.248930  -109.909000
  C    -100.821000   -4.220230  -110.717000
  H    -101.419000   -3.358000  -110.679000
  H    -99.875400   -4.224760  -110.302000
  C    -100.416000   -4.599560  -112.174000
  H    -100.017000   -5.676000  -112.303000
  H    -101.175000   -4.581290  -112.960000
  H    -99.666200   -3.933850  -112.496000
  S    -101.984000   -1.833240  -104.882000
  C    -103.240000   -0.784427  -104.283000
  C    -104.333000   -0.830812  -105.078000
  C    -104.194000   -1.766470  -106.147000
  C    -103.001000   -2.466580  -106.184000
  H    -105.278000   -0.258597  -104.952000
  C    -105.350000   -1.997990  -107.051000
  H    -104.943000   -2.502340  -107.935000
  H    -105.891000   -1.055780  -107.319000
  C    -106.362000   -2.973300  -106.388000
  H    -106.606000   -2.576950  -105.374000
  H    -105.808000   -3.901770  -106.121000
  C    -107.585000   -3.233930  -107.339000
  H    -107.180000   -3.889100  -108.125000
  H    -108.000000   -2.370090  -107.785000
  H    -108.340000   -3.731470  -106.753000
  H    -100.967000   -6.792400  -107.492000
  H    -103.091000   -0.047053  -103.498000

 Total Charge           Charge          ....    0
 Multiplicity           Mult            ....    1
 Number of Electrons    NEL             ....  134
 Basis Dimension        Dim             ....  322

ORBITAL ENERGIES
----------------

  NO   OCC          E(Eh)            E(eV)
   0   2.0000     -88.969016     -2420.9700
   1   2.0000     -88.959141     -2420.7013
   2   2.0000     -10.334008      -281.2027
   3   2.0000     -10.325729      -280.9774
   4   2.0000     -10.315436      -280.6973
   5   2.0000     -10.314032      -280.6591
   6   2.0000     -10.297630      -280.2128
   7   2.0000     -10.295989      -280.1681
   8   2.0000     -10.291784      -280.0537
   9   2.0000     -10.291608      -280.0489
  10   2.0000     -10.288828      -279.9732
  11   2.0000     -10.288453      -279.9630
  12   2.0000     -10.287964      -279.9497
  13   2.0000     -10.283906      -279.8393
  14   2.0000     -10.280832      -279.7557
  15   2.0000     -10.276050      -279.6255
  16   2.0000      -8.082900      -219.9469
  17   2.0000      -8.074060      -219.7064
  18   2.0000      -6.041300      -164.3921
  19   2.0000      -6.037704      -164.2943
  20   2.0000      -6.033652      -164.1840
  21   2.0000      -6.032622      -164.1560
  22   2.0000      -6.028452      -164.0425
  23   2.0000      -6.024830      -163.9440
  24   2.0000      -1.004459       -27.3327
  25   2.0000      -0.986109       -26.8334
  26   2.0000      -0.914621       -24.8881
  27   2.0000      -0.904889       -24.6233
  28   2.0000      -0.865769       -23.5588
  29   2.0000      -0.851352       -23.1665
  30   2.0000      -0.842795       -22.9336
  31   2.0000      -0.815742       -22.1975
  32   2.0000      -0.778473       -21.1833
  33   2.0000      -0.766699       -20.8629
  34   2.0000      -0.712637       -19.3918
  35   2.0000      -0.696222       -18.9452
  36   2.0000      -0.690659       -18.7938
  37   2.0000      -0.661120       -17.9900
  38   2.0000      -0.644658       -17.5420
  39   2.0000      -0.624442       -16.9919
  40   2.0000      -0.595212       -16.1965
  41   2.0000      -0.581384       -15.8203
  42   2.0000      -0.562611       -15.3094
  43   2.0000      -0.556058       -15.1311
  44   2.0000      -0.528634       -14.3849
  45   2.0000      -0.520857       -14.1732
  46   2.0000      -0.517285       -14.0761
  47   2.0000      -0.511225       -13.9111
  48   2.0000      -0.504890       -13.7388
  49   2.0000      -0.497862       -13.5475
  50   2.0000      -0.488988       -13.3060
  51   2.0000      -0.475782       -12.9467
  52   2.0000      -0.466795       -12.7021
  53   2.0000      -0.462387       -12.5822
  54   2.0000      -0.454682       -12.3725
  55   2.0000      -0.451538       -12.2870
  56   2.0000      -0.445205       -12.1146
  57   2.0000      -0.439097       -11.9484
  58   2.0000      -0.433791       -11.8040
  59   2.0000      -0.433755       -11.8031
  60   2.0000      -0.416958       -11.3460
  61   2.0000      -0.414969       -11.2919
  62   2.0000      -0.410815       -11.1789
  63   2.0000      -0.343123        -9.3368
  64   2.0000      -0.333602        -9.0778
  65   2.0000      -0.325678        -8.8622
  66   2.0000      -0.294769        -8.0211
  67   0.0000       0.030703         0.8355
  68   0.0000       0.067517         1.8372
  69   0.0000       0.111813         3.0426
  70   0.0000       0.121104         3.2954
  71   0.0000       0.140784         3.8309

MULLIKEN ATOMIC CHARGES
-----------------------
   0 S :    0.121153
   1 C :   -0.157071
   2 C :   -0.057153
   3 C :    0.032048
   4 C :   -0.145703
   5 H :   -0.000835
   6 C :    0.086584
   7 H :    0.029733
   8 H :    0.019830
   9 C :   -0.038305
  10 H :    0.042823
  11 H :    0.028883
  12 C :   -0.072724
  13 H :    0.033274
  14 H :    0.025886
  15 H :    0.025262
  16 S :    0.086041
  17 C :   -0.080797
  18 C :   -0.030483
  19 C :   -0.053335
  20 C :   -0.173117
  21 H :    0.031796
  22 C :    0.059181
  23 H :    0.010891
  24 H :    0.032578
  25 C :   -0.124892
  26 H :    0.022429
  27 H :    0.035615
  28 C :    0.000238
  29 H :    0.037829
  30 H :    0.023664
  31 H :    0.035741
  32 H :    0.051529
  33 H :    0.061410
Sum of atomic charges:    0.0000000

LOEWDIN ATOMIC CHARGES
----------------------
   0 S :    0.390499
   1 C :   -0.192251
   2 C :   -0.065218
   3 C :   -0.058428
   4 C :   -0.179083
   5 H :    0.024927
   6 C :   -0.018146
   7 H :    0.021341
   8 H :    0.033997
   9 C :   -0.023283
  10 H :    0.020407
  11 H :    0.027936
  12 C :   -0.069623
  13 H :    0.034125
  14 H :    0.019671
  15 H :    0.017082
  16 S :    0.394230
  17 C :   -0.180186
  18 C :   -0.080679
  19 C :   -0.057342
  20 C :   -0.202046
  21 H :    0.038900
  22 C :   -0.037768
  23 H :    0.026560
  24 H :    0.032314
  25 C :   -0.041083
  26 H :    0.019274
  27 H :    0.028771
  28 C :   -0.059136
  29 H :    0.031932
  30 H :    0.017706
  31 H :    0.026242
  32 H :    0.025902
  33 H :    0.032458

  Mayer bond orders larger than 0.100000
B(  0-S ,  1-C ) :   1.1359 B(  0-S ,  4-C ) :   1.1516 B(  1-C ,  2-C ) :   1.6123
B(  1-C ,  4-C ) :   0.1001 B(  1-C , 32-H ) :   0.9659 B(  2-C ,  3-C ) :   1.2451
B(  2-C ,  6-C ) :   1.0003 B(  3-C ,  4-C ) :   1.5794 B(  3-C ,  5-H ) :   0.9968
B(  4-C , 20-C ) :   1.0213 B(  6-C ,  7-H ) :   0.9340 B(  6-C ,  8-H ) :   0.9471
B(  6-C ,  9-C ) :   1.0755 B(  9-C , 10-H ) :   0.9572 B(  9-C , 11-H ) :   0.9553
B(  9-C , 12-C ) :   1.0745 B( 12-C , 13-H ) :   0.9730 B( 12-C , 14-H ) :   0.9767
B( 12-C , 15-H ) :   0.9781 B( 16-S , 17-C ) :   1.1620 B( 16-S , 20-C ) :   1.1250
B( 17-C , 18-C ) :   1.5915 B( 17-C , 33-H ) :   0.9646 B( 18-C , 19-C ) :   1.2563
B( 18-C , 21-H ) :   0.9834 B( 19-C , 20-C ) :   1.6006 B( 19-C , 22-C ) :   1.0592
B( 22-C , 23-H ) :   0.9289 B( 22-C , 24-H ) :   0.9350 B( 22-C , 25-C ) :   1.0560
B( 25-C , 26-H ) :   0.9608 B( 25-C , 27-H ) :   0.9546 B( 25-C , 28-C ) :   1.0618
B( 28-C , 29-H ) :   0.9753 B( 28-C , 30-H ) :   0.9768 B( 28-C , 31-H ) :   0.9756

Dispersion correction           -0.013881377
FINAL SINGLE POINT ENERGY     -1339.867959050988

DIPOLE MOMENT
-------------
                                X             Y             Z
Electronic contribution:     10.14826       2.75277      23.25750
Nuclear contribution   :    -10.40918      -2.71288     -23.77260
                        -----------------------------------------
Total Dipole Moment    :     -0.26093       0.03990      -0.51510
                        -----------------------------------------
Magnitude (a.u.)       :      0.57880
Magnitude (Debye)      :      1.47119

Rotational constants in cm-1:     0.017861     0.008061     0.006953
Rotational constants in MHz :   535.447214   241.669770   208.430876

                             ****ORCA TERMINATED NORMALLY****
TOTAL RUN TIME: 0 days 0 hours 0 minutes 21 seconds 374 msec
