                         Program Version 4.2.1 -  RELEASE  -
|  1> ! wB97X-D3 SP def2-SVP
|  2> %pal
|  3> nprocs 24
|  4> end
|  5>
|  6> * xyz 0 1
|  7> S 	 -17.4337 	 -30.8838 	 -93.4797
|  8> C 	 -16.2279 	 -32.1076 	 -93.8428
|  9> C 	 -16.4624 	 -32.672 	 -95.1033
| 10> C 	 -17.8315 	 -32.4417 	 -95.5422
| 11> C 	 -18.5311 	 -31.6625 	 -94.6024
| 12> H 	 -18.2649 	 -32.7684 	 -96.4896
| 13> C 	 -15.537 	 -33.6194 	 -95.887
| 14> H 	 -14.6645 	 -32.9902 	 -96.029
| 15> H 	 -15.8702 	 -33.8386 	 -96.9009
| 16> C 	 -15.1964 	 -35.0078 	 -95.1949
| 17> H 	 -14.5648 	 -35.4978 	 -95.8854
| 18> H 	 -14.5073 	 -34.9688 	 -94.3458
| 19> C 	 -16.5124 	 -35.8474 	 -94.8799
| 20> H 	 -16.2868 	 -36.915 	 -94.7257
| 21> H 	 -17.0579 	 -35.5319 	 -94.0917
| 22> H 	 -17.2583 	 -35.682 	 -95.7178
| 23> S 	 -20.9965 	 -32.8521 	 -94.2782
| 24> C 	 -22.4663 	 -31.8697 	 -94.2018
| 25> C 	 -22.1325 	 -30.5533 	 -94.2817
| 26> C 	 -20.7749 	 -30.2792 	 -94.5981
| 27> C 	 -19.9994 	 -31.443 	 -94.5677
| 28> H 	 -22.8336 	 -29.6725 	 -94.0728
| 29> C 	 -20.1508 	 -28.8845 	 -94.7868
| 30> H 	 -19.731 	 -28.7256 	 -95.8035
| 31> H 	 -19.351 	 -28.8268 	 -94.1417
| 32> C 	 -20.9679 	 -27.6703 	 -94.5255
| 33> H 	 -21.475 	 -27.7182 	 -93.5399
| 34> H 	 -21.7299 	 -27.6535 	 -95.2797
| 35> C 	 -20.2901 	 -26.3263 	 -94.624
| 36> H 	 -19.3419 	 -26.429 	 -95.1464
| 37> H 	 -20.0031 	 -25.9219 	 -93.6368
| 38> H 	 -20.958 	 -25.5645 	 -95.0943
| 39> H 	 -15.2247 	 -32.152 	 -93.4098
| 40> H 	 -23.3585 	 -32.1752 	 -93.9929
| 41> *
| 42>
| 43>                          ****END OF INPUT****

CARTESIAN COORDINATES (ANGSTROEM)
---------------------------------
  S    -17.433700  -30.883800  -93.479700
  C    -16.227900  -32.107600  -93.842800
  C    -16.462400  -32.672000  -95.103300
  C    -17.831500  -32.441700  -95.542200
  C    -18.531100  -31.662500  -94.602400
  H    -18.264900  -32.768400  -96.489600
  C    -15.537000  -33.619400  -95.887000
  H    -14.664500  -32.990200  -96.029000
  H    -15.870200  -33.838600  -96.900900
  C    -15.196400  -35.007800  -95.194900
  H    -14.564800  -35.497800  -95.885400
  H    -14.507300  -34.968800  -94.345800
  C    -16.512400  -35.847400  -94.879900
  H    -16.286800  -36.915000  -94.725700
  H    -17.057900  -35.531900  -94.091700
  H    -17.258300  -35.682000  -95.717800
  S    -20.996500  -32.852100  -94.278200
  C    -22.466300  -31.869700  -94.201800
  C    -22.132500  -30.553300  -94.281700
  C    -20.774900  -30.279200  -94.598100
  C    -19.999400  -31.443000  -94.567700
  H    -22.833600  -29.672500  -94.072800
  C    -20.150800  -28.884500  -94.786800
  H    -19.731000  -28.725600  -95.803500
  H    -19.351000  -28.826800  -94.141700
  C    -20.967900  -27.670300  -94.525500
  H    -21.475000  -27.718200  -93.539900
  H    -21.729900  -27.653500  -95.279700
  C    -20.290100  -26.326300  -94.624000
  H    -19.341900  -26.429000  -95.146400
  H    -20.003100  -25.921900  -93.636800
  H    -20.958000  -25.564500  -95.094300
  H    -15.224700  -32.152000  -93.409800
  H    -23.358500  -32.175200  -93.992900

 Total Charge           Charge          ....    0
 Multiplicity           Mult            ....    1
 Number of Electrons    NEL             ....  134
 Basis Dimension        Dim             ....  322

ORBITAL ENERGIES
----------------

  NO   OCC          E(Eh)            E(eV)
   0   2.0000     -88.968210     -2420.9481
   1   2.0000     -88.965872     -2420.8845
   2   2.0000     -10.333396      -281.1860
   3   2.0000     -10.327281      -281.0196
   4   2.0000     -10.315828      -280.7079
   5   2.0000     -10.307353      -280.4773
   6   2.0000     -10.305302      -280.4215
   7   2.0000     -10.302594      -280.3478
   8   2.0000     -10.300602      -280.2936
   9   2.0000     -10.298215      -280.2287
  10   2.0000     -10.296138      -280.1722
  11   2.0000     -10.292939      -280.0851
  12   2.0000     -10.285594      -279.8852
  13   2.0000     -10.280115      -279.7362
  14   2.0000     -10.279563      -279.7211
  15   2.0000     -10.276322      -279.6329
  16   2.0000      -8.082480      -219.9355
  17   2.0000      -8.080082      -219.8702
  18   2.0000      -6.041082      -164.3862
  19   2.0000      -6.038648      -164.3200
  20   2.0000      -6.037408      -164.2862
  21   2.0000      -6.034631      -164.2106
  22   2.0000      -6.032831      -164.1617
  23   2.0000      -6.030834      -164.1073
  24   2.0000      -1.002410       -27.2770
  25   2.0000      -0.981395       -26.7051
  26   2.0000      -0.916669       -24.9438
  27   2.0000      -0.899982       -24.4898
  28   2.0000      -0.863916       -23.5083
  29   2.0000      -0.849513       -23.1164
  30   2.0000      -0.840784       -22.8789
  31   2.0000      -0.811676       -22.0868
  32   2.0000      -0.783728       -21.3263
  33   2.0000      -0.774992       -21.0886
  34   2.0000      -0.712472       -19.3873
  35   2.0000      -0.703995       -19.1567
  36   2.0000      -0.698866       -19.0171
  37   2.0000      -0.650422       -17.6989
  38   2.0000      -0.635357       -17.2890
  39   2.0000      -0.610820       -16.6213
  40   2.0000      -0.600083       -16.3291
  41   2.0000      -0.576582       -15.6896
  42   2.0000      -0.570424       -15.5220
  43   2.0000      -0.548112       -14.9149
  44   2.0000      -0.536697       -14.6043
  45   2.0000      -0.529575       -14.4105
  46   2.0000      -0.510086       -13.8801
  47   2.0000      -0.505646       -13.7593
  48   2.0000      -0.498129       -13.5548
  49   2.0000      -0.494316       -13.4510
  50   2.0000      -0.483529       -13.1575
  51   2.0000      -0.480179       -13.0663
  52   2.0000      -0.472587       -12.8597
  53   2.0000      -0.468782       -12.7562
  54   2.0000      -0.463695       -12.6178
  55   2.0000      -0.453602       -12.3431
  56   2.0000      -0.447827       -12.1860
  57   2.0000      -0.432144       -11.7592
  58   2.0000      -0.426087       -11.5944
  59   2.0000      -0.423999       -11.5376
  60   2.0000      -0.420492       -11.4422
  61   2.0000      -0.416918       -11.3449
  62   2.0000      -0.413274       -11.2457
  63   2.0000      -0.337414        -9.1815
  64   2.0000      -0.330677        -8.9982
  65   2.0000      -0.325292        -8.8516
  66   2.0000      -0.292830        -7.9683
  67   0.0000       0.026421         0.7190
  68   0.0000       0.056707         1.5431
  69   0.0000       0.092568         2.5189
  70   0.0000       0.118708         3.2302
  71   0.0000       0.137257         3.7350

MULLIKEN ATOMIC CHARGES
-----------------------
   0 S :    0.114989
   1 C :   -0.114894
   2 C :   -0.103235
   3 C :    0.025253
   4 C :   -0.165575
   5 H :    0.027078
   6 C :    0.041304
   7 H :    0.032160
   8 H :    0.027006
   9 C :   -0.042898
  10 H :    0.016831
  11 H :    0.025228
  12 C :   -0.043463
  13 H :    0.042978
  14 H :    0.022854
  15 H :    0.028541
  16 S :    0.112230
  17 C :    0.004139
  18 C :   -0.066731
  19 C :   -0.055932
  20 C :   -0.157658
  21 H :    0.046701
  22 C :    0.123328
  23 H :    0.037840
  24 H :   -0.003764
  25 C :   -0.118496
  26 H :    0.032883
  27 H :    0.022408
  28 C :   -0.041884
  29 H :    0.025356
  30 H :    0.032351
  31 H :    0.044148
  32 H :    0.053387
  33 H :   -0.024463
Sum of atomic charges:   -0.0000000

LOEWDIN ATOMIC CHARGES
----------------------
   0 S :    0.403999
   1 C :   -0.202605
   2 C :   -0.057897
   3 C :   -0.060297
   4 C :   -0.191899
   5 H :    0.035067
   6 C :   -0.033351
   7 H :    0.032477
   8 H :    0.030290
   9 C :   -0.032475
  10 H :    0.018371
  11 H :    0.022423
  12 C :   -0.060524
  13 H :    0.030605
  14 H :    0.011015
  15 H :    0.032758
  16 S :    0.410022
  17 C :   -0.157151
  18 C :   -0.071947
  19 C :   -0.060795
  20 C :   -0.197141
  21 H :    0.044247
  22 C :   -0.031416
  23 H :    0.039797
  24 H :    0.011515
  25 C :   -0.052725
  26 H :    0.025494
  27 H :    0.019259
  28 C :   -0.065178
  29 H :    0.024548
  30 H :    0.027524
  31 H :    0.034503
  32 H :    0.029555
  33 H :   -0.008065

  Mayer bond orders larger than 0.100000
B(  0-S ,  1-C ) :   1.1296 B(  0-S ,  4-C ) :   1.1500 B(  1-C ,  2-C ) :   1.6164
B(  1-C , 32-H ) :   0.9661 B(  2-C ,  3-C ) :   1.2149 B(  2-C ,  6-C ) :   1.0185
B(  3-C ,  4-C ) :   1.5643 B(  3-C ,  5-H ) :   0.9967 B(  4-C , 20-C ) :   1.0306
B(  6-C ,  7-H ) :   0.9355 B(  6-C ,  8-H ) :   0.9505 B(  6-C ,  9-C ) :   1.0724
B(  9-C , 10-H ) :   0.9583 B(  9-C , 11-H ) :   0.9587 B(  9-C , 12-C ) :   1.0528
B( 12-C , 13-H ) :   0.9772 B( 12-C , 14-H ) :   0.9775 B( 12-C , 15-H ) :   0.9770
B( 16-S , 17-C ) :   1.1415 B( 16-S , 20-C ) :   1.1596 B( 17-C , 18-C ) :   1.5962
B( 17-C , 20-C ) :   0.1019 B( 17-C , 33-H ) :   0.9837 B( 18-C , 19-C ) :   1.2841
B( 18-C , 21-H ) :   0.9644 B( 19-C , 20-C ) :   1.5787 B( 19-C , 22-C ) :   1.0195
B( 22-C , 23-H ) :   0.9177 B( 22-C , 24-H ) :   0.9239 B( 22-C , 25-C ) :   1.1041
B( 25-C , 26-H ) :   0.9495 B( 25-C , 27-H ) :   0.9529 B( 25-C , 28-C ) :   1.0781
B( 28-C , 29-H ) :   0.9731 B( 28-C , 30-H ) :   0.9742 B( 28-C , 31-H ) :   0.9760

Dispersion correction           -0.014209042
FINAL SINGLE POINT ENERGY     -1339.837746283154

DIPOLE MOMENT
-------------
                                X             Y             Z
Electronic contribution:     -6.64490      -4.40822       5.90133
Nuclear contribution   :      6.86814       4.56416      -6.13290
                        -----------------------------------------
Total Dipole Moment    :      0.22324       0.15595      -0.23156
                        -----------------------------------------
Magnitude (a.u.)       :      0.35746
Magnitude (Debye)      :      0.90858

Rotational constants in cm-1:     0.022565     0.007731     0.006187
Rotational constants in MHz :   676.482155   231.775111   185.482888

                             ****ORCA TERMINATED NORMALLY****
TOTAL RUN TIME: 0 days 0 hours 0 minutes 21 seconds 80 msec
