                         Program Version 4.2.1 -  RELEASE  -
|  1> ! wB97X-D3 SP def2-SVP
|  2> %pal
|  3> nprocs 24
|  4> end
|  5>
|  6> * xyz 0 1
|  7> S 	 -119.946 	 52.0091 	 -31.6788
|  8> C 	 -119.264 	 51.3274 	 -33.1083
|  9> C 	 -118.333 	 52.1625 	 -33.6943
| 10> C 	 -118.118 	 53.3795 	 -32.9196
| 11> C 	 -119.013 	 53.5069 	 -31.8586
| 12> H 	 -117.425 	 54.1625 	 -33.0667
| 13> C 	 -117.481 	 51.8304 	 -34.9015
| 14> H 	 -117.744 	 50.8243 	 -35.3007
| 15> H 	 -116.48 	 51.66 	 -34.5276
| 16> C 	 -117.577 	 52.8806 	 -36.0019
| 17> H 	 -118.67 	 52.9777 	 -36.3072
| 18> H 	 -117.441 	 53.9128 	 -35.6091
| 19> C 	 -116.645 	 52.5546 	 -37.2357
| 20> H 	 -116.931 	 53.0634 	 -38.1075
| 21> H 	 -115.588 	 52.6163 	 -37.1361
| 22> H 	 -116.941 	 51.5454 	 -37.4949
| 23> S 	 -117.395 	 54.8677 	 -30.1332
| 24> C 	 -117.928 	 56.1491 	 -29.1659
| 25> C 	 -119.324 	 56.1728 	 -29.2417
| 26> C 	 -119.946 	 55.2549 	 -30.0945
| 27> C 	 -118.961 	 54.5554 	 -30.8094
| 28> H 	 -119.813 	 56.9377 	 -28.6338
| 29> C 	 -121.454 	 55.2048 	 -30.2579
| 30> H 	 -121.815 	 54.1461 	 -30.2064
| 31> H 	 -121.621 	 55.6999 	 -31.1804
| 32> C 	 -122.212 	 55.9662 	 -29.0895
| 33> H 	 -122.02 	 57.0275 	 -29.065
| 34> H 	 -121.815 	 55.5172 	 -28.1794
| 35> C 	 -123.693 	 55.8332 	 -29.1263
| 36> H 	 -124.096 	 56.4168 	 -28.294
| 37> H 	 -123.947 	 54.806 	 -29.2314
| 38> H 	 -124.088 	 56.1749 	 -30.0965
| 39> H 	 -119.594 	 50.3695 	 -33.5574
| 40> H 	 -117.398 	 56.7457 	 -28.4933
| 41> *
| 42>
| 43>                          ****END OF INPUT****

CARTESIAN COORDINATES (ANGSTROEM)
---------------------------------
  S    -119.946000   52.009100  -31.678800
  C    -119.264000   51.327400  -33.108300
  C    -118.333000   52.162500  -33.694300
  C    -118.118000   53.379500  -32.919600
  C    -119.013000   53.506900  -31.858600
  H    -117.425000   54.162500  -33.066700
  C    -117.481000   51.830400  -34.901500
  H    -117.744000   50.824300  -35.300700
  H    -116.480000   51.660000  -34.527600
  C    -117.577000   52.880600  -36.001900
  H    -118.670000   52.977700  -36.307200
  H    -117.441000   53.912800  -35.609100
  C    -116.645000   52.554600  -37.235700
  H    -116.931000   53.063400  -38.107500
  H    -115.588000   52.616300  -37.136100
  H    -116.941000   51.545400  -37.494900
  S    -117.395000   54.867700  -30.133200
  C    -117.928000   56.149100  -29.165900
  C    -119.324000   56.172800  -29.241700
  C    -119.946000   55.254900  -30.094500
  C    -118.961000   54.555400  -30.809400
  H    -119.813000   56.937700  -28.633800
  C    -121.454000   55.204800  -30.257900
  H    -121.815000   54.146100  -30.206400
  H    -121.621000   55.699900  -31.180400
  C    -122.212000   55.966200  -29.089500
  H    -122.020000   57.027500  -29.065000
  H    -121.815000   55.517200  -28.179400
  C    -123.693000   55.833200  -29.126300
  H    -124.096000   56.416800  -28.294000
  H    -123.947000   54.806000  -29.231400
  H    -124.088000   56.174900  -30.096500
  H    -119.594000   50.369500  -33.557400
  H    -117.398000   56.745700  -28.493300

 Total Charge           Charge          ....    0
 Multiplicity           Mult            ....    1
 Number of Electrons    NEL             ....  134
 Basis Dimension        Dim             ....  322

ORBITAL ENERGIES
----------------

  NO   OCC          E(Eh)            E(eV)
   0   2.0000     -88.966118     -2420.8912
   1   2.0000     -88.964324     -2420.8423
   2   2.0000     -10.332191      -281.1532
   3   2.0000     -10.326270      -280.9921
   4   2.0000     -10.315397      -280.6962
   5   2.0000     -10.307749      -280.4881
   6   2.0000     -10.303083      -280.3611
   7   2.0000     -10.302053      -280.3331
   8   2.0000     -10.295905      -280.1658
   9   2.0000     -10.295645      -280.1587
  10   2.0000     -10.294919      -280.1390
  11   2.0000     -10.292972      -280.0860
  12   2.0000     -10.287592      -279.9396
  13   2.0000     -10.283235      -279.8210
  14   2.0000     -10.274337      -279.5789
  15   2.0000     -10.273444      -279.5546
  16   2.0000      -8.081564      -219.9105
  17   2.0000      -8.079040      -219.8418
  18   2.0000      -6.039840      -164.3524
  19   2.0000      -6.037631      -164.2923
  20   2.0000      -6.035773      -164.2417
  21   2.0000      -6.033533      -164.1808
  22   2.0000      -6.032715      -164.1585
  23   2.0000      -6.029741      -164.0776
  24   2.0000      -1.008823       -27.4515
  25   2.0000      -0.985732       -26.8231
  26   2.0000      -0.912334       -24.8259
  27   2.0000      -0.906849       -24.6766
  28   2.0000      -0.867277       -23.5998
  29   2.0000      -0.858249       -23.3541
  30   2.0000      -0.843627       -22.9563
  31   2.0000      -0.811390       -22.0791
  32   2.0000      -0.782876       -21.3032
  33   2.0000      -0.772412       -21.0184
  34   2.0000      -0.707785       -19.2598
  35   2.0000      -0.703340       -19.1389
  36   2.0000      -0.691422       -18.8145
  37   2.0000      -0.656284       -17.8584
  38   2.0000      -0.637261       -17.3407
  39   2.0000      -0.615223       -16.7411
  40   2.0000      -0.597665       -16.2633
  41   2.0000      -0.579037       -15.7564
  42   2.0000      -0.567812       -15.4510
  43   2.0000      -0.552890       -15.0449
  44   2.0000      -0.538342       -14.6490
  45   2.0000      -0.522480       -14.2174
  46   2.0000      -0.515058       -14.0155
  47   2.0000      -0.509429       -13.8623
  48   2.0000      -0.508034       -13.8243
  49   2.0000      -0.504246       -13.7212
  50   2.0000      -0.493586       -13.4312
  51   2.0000      -0.480389       -13.0721
  52   2.0000      -0.472403       -12.8547
  53   2.0000      -0.465039       -12.6544
  54   2.0000      -0.459035       -12.4910
  55   2.0000      -0.448947       -12.2165
  56   2.0000      -0.447252       -12.1704
  57   2.0000      -0.440911       -11.9978
  58   2.0000      -0.426711       -11.6114
  59   2.0000      -0.421652       -11.4737
  60   2.0000      -0.418810       -11.3964
  61   2.0000      -0.412288       -11.2189
  62   2.0000      -0.411712       -11.2033
  63   2.0000      -0.344300        -9.3689
  64   2.0000      -0.332048        -9.0355
  65   2.0000      -0.327086        -8.9005
  66   2.0000      -0.292046        -7.9470
  67   0.0000       0.029953         0.8151
  68   0.0000       0.075737         2.0609
  69   0.0000       0.111596         3.0367
  70   0.0000       0.124952         3.4001
  71   0.0000       0.132004         3.5920

MULLIKEN ATOMIC CHARGES
-----------------------
   0 S :    0.100360
   1 C :   -0.128084
   2 C :   -0.085842
   3 C :    0.008187
   4 C :   -0.119893
   5 H :    0.006777
   6 C :    0.086370
   7 H :    0.011283
   8 H :    0.036541
   9 C :   -0.128984
  10 H :    0.037316
  11 H :    0.035509
  12 C :    0.003741
  13 H :    0.017403
  14 H :    0.039229
  15 H :    0.011814
  16 S :    0.129169
  17 C :   -0.054833
  18 C :   -0.086588
  19 C :   -0.029047
  20 C :   -0.187301
  21 H :    0.018074
  22 C :    0.086822
  23 H :    0.041993
  24 H :    0.041045
  25 C :   -0.140723
  26 H :    0.032267
  27 H :    0.032536
  28 C :    0.023027
  29 H :    0.046786
  30 H :    0.010279
  31 H :    0.013824
  32 H :    0.059994
  33 H :    0.030950
Sum of atomic charges:   -0.0000000

LOEWDIN ATOMIC CHARGES
----------------------
   0 S :    0.400629
   1 C :   -0.208703
   2 C :   -0.062660
   3 C :   -0.058582
   4 C :   -0.188276
   5 H :    0.022688
   6 C :   -0.035199
   7 H :    0.029057
   8 H :    0.032574
   9 C :   -0.046589
  10 H :    0.034495
  11 H :    0.022964
  12 C :   -0.060912
  13 H :    0.021255
  14 H :    0.023286
  15 H :    0.025835
  16 S :    0.455254
  17 C :   -0.206163
  18 C :   -0.077751
  19 C :   -0.061766
  20 C :   -0.209638
  21 H :    0.029567
  22 C :   -0.024672
  23 H :    0.036101
  24 H :    0.032712
  25 C :   -0.043225
  26 H :    0.019862
  27 H :    0.023875
  28 C :   -0.062442
  29 H :    0.033323
  30 H :    0.019683
  31 H :    0.026285
  32 H :    0.036363
  33 H :    0.020770

  Mayer bond orders larger than 0.100000
B(  0-S ,  1-C ) :   1.1382 B(  0-S ,  4-C ) :   1.1389 B(  1-C ,  2-C ) :   1.6278
B(  1-C , 32-H ) :   0.9607 B(  2-C ,  3-C ) :   1.2062 B(  2-C ,  6-C ) :   1.0291
B(  3-C ,  4-C ) :   1.5778 B(  3-C ,  5-H ) :   1.0023 B(  4-C , 20-C ) :   1.0450
B(  6-C ,  7-H ) :   0.9393 B(  6-C ,  8-H ) :   0.9388 B(  6-C ,  9-C ) :   1.0466
B(  9-C , 10-H ) :   0.9545 B(  9-C , 11-H ) :   0.9616 B(  9-C , 12-C ) :   1.0658
B( 12-C , 13-H ) :   0.9740 B( 12-C , 14-H ) :   0.9798 B( 12-C , 15-H ) :   0.9711
B( 16-S , 17-C ) :   1.1792 B( 16-S , 20-C ) :   1.1844 B( 17-C , 18-C ) :   1.5445
B( 17-C , 20-C ) :   0.1096 B( 17-C , 33-H ) :   0.9741 B( 18-C , 19-C ) :   1.3091
B( 18-C , 21-H ) :   0.9834 B( 19-C , 20-C ) :   1.5157 B( 19-C , 22-C ) :   1.0232
B( 22-C , 23-H ) :   0.9343 B( 22-C , 24-H ) :   0.9241 B( 22-C , 25-C ) :   1.0918
B( 25-C , 26-H ) :   0.9446 B( 25-C , 27-H ) :   0.9563 B( 25-C , 28-C ) :   1.0943
B( 28-C , 29-H ) :   0.9696 B( 28-C , 30-H ) :   0.9672 B( 28-C , 31-H ) :   0.9657

Dispersion correction           -0.013233693
FINAL SINGLE POINT ENERGY     -1339.874977436527

DIPOLE MOMENT
-------------
                                X             Y             Z
Electronic contribution:      8.12245      -3.93579      12.37796
Nuclear contribution   :     -8.19778       4.09065     -12.56477
                        -----------------------------------------
Total Dipole Moment    :     -0.07533       0.15487      -0.18681
                        -----------------------------------------
Magnitude (a.u.)       :      0.25408
Magnitude (Debye)      :      0.64582

Rotational constants in cm-1:     0.022357     0.006732     0.005887
Rotational constants in MHz :   670.242625   201.823668   176.487658

                             ****ORCA TERMINATED NORMALLY****
TOTAL RUN TIME: 0 days 0 hours 0 minutes 20 seconds 588 msec
