                         Program Version 4.2.1 -  RELEASE  -
|  1> ! wB97X-D3 SP def2-SVP
|  2> %pal
|  3> nprocs 24
|  4> end
|  5>
|  6> * xyz 0 1
|  7> S 	 -138.623 	 67.9653 	 -63.5172
|  8> C 	 -139.391 	 69.2282 	 -64.3893
|  9> C 	 -139.088 	 70.4716 	 -63.8265
| 10> C 	 -138.579 	 70.3164 	 -62.5022
| 11> C 	 -138.351 	 69.0086 	 -62.0779
| 12> H 	 -138.323 	 71.1577 	 -61.8601
| 13> C 	 -139.154 	 71.7284 	 -64.6437
| 14> H 	 -138.652 	 71.4946 	 -65.5984
| 15> H 	 -138.414 	 72.5021 	 -64.253
| 16> C 	 -140.574 	 72.3043 	 -64.8019
| 17> H 	 -140.918 	 72.6252 	 -63.7963
| 18> H 	 -140.518 	 73.2958 	 -65.2935
| 19> C 	 -141.593 	 71.3848 	 -65.567
| 20> H 	 -142.079 	 70.6106 	 -64.989
| 21> H 	 -142.464 	 72.004 	 -65.9099
| 22> H 	 -141.087 	 70.9172 	 -66.401
| 23> S 	 -138.57 	 67.0043 	 -60.2082
| 24> C 	 -137.544 	 67.0431 	 -58.7846
| 25> C 	 -136.769 	 68.2042 	 -58.7428
| 26> C 	 -136.99 	 69.0201 	 -59.8869
| 27> C 	 -137.923 	 68.5138 	 -60.7897
| 28> H 	 -136.076 	 68.3622 	 -57.9455
| 29> C 	 -136.226 	 70.3431 	 -59.9803
| 30> H 	 -135.815 	 70.4314 	 -58.9913
| 31> H 	 -136.957 	 71.1638 	 -60.0023
| 32> C 	 -135.185 	 70.5707 	 -61.0605
| 33> H 	 -134.844 	 71.5987 	 -60.9974
| 34> H 	 -135.616 	 70.219 	 -61.9652
| 35> C 	 -133.95 	 69.7393 	 -60.7731
| 36> H 	 -134.375 	 68.7056 	 -60.8151
| 37> H 	 -133.549 	 69.8475 	 -59.7797
| 38> H 	 -133.125 	 69.8117 	 -61.4087
| 39> H 	 -139.663 	 69.0794 	 -65.3986
| 40> H 	 -137.535 	 66.2778 	 -58.009
| 41> *
| 42>
| 43>                          ****END OF INPUT****

CARTESIAN COORDINATES (ANGSTROEM)
---------------------------------
  S    -138.623000   67.965300  -63.517200
  C    -139.391000   69.228200  -64.389300
  C    -139.088000   70.471600  -63.826500
  C    -138.579000   70.316400  -62.502200
  C    -138.351000   69.008600  -62.077900
  H    -138.323000   71.157700  -61.860100
  C    -139.154000   71.728400  -64.643700
  H    -138.652000   71.494600  -65.598400
  H    -138.414000   72.502100  -64.253000
  C    -140.574000   72.304300  -64.801900
  H    -140.918000   72.625200  -63.796300
  H    -140.518000   73.295800  -65.293500
  C    -141.593000   71.384800  -65.567000
  H    -142.079000   70.610600  -64.989000
  H    -142.464000   72.004000  -65.909900
  H    -141.087000   70.917200  -66.401000
  S    -138.570000   67.004300  -60.208200
  C    -137.544000   67.043100  -58.784600
  C    -136.769000   68.204200  -58.742800
  C    -136.990000   69.020100  -59.886900
  C    -137.923000   68.513800  -60.789700
  H    -136.076000   68.362200  -57.945500
  C    -136.226000   70.343100  -59.980300
  H    -135.815000   70.431400  -58.991300
  H    -136.957000   71.163800  -60.002300
  C    -135.185000   70.570700  -61.060500
  H    -134.844000   71.598700  -60.997400
  H    -135.616000   70.219000  -61.965200
  C    -133.950000   69.739300  -60.773100
  H    -134.375000   68.705600  -60.815100
  H    -133.549000   69.847500  -59.779700
  H    -133.125000   69.811700  -61.408700
  H    -139.663000   69.079400  -65.398600
  H    -137.535000   66.277800  -58.009000

 Total Charge           Charge          ....    0
 Multiplicity           Mult            ....    1
 Number of Electrons    NEL             ....  134
 Basis Dimension        Dim             ....  322

ORBITAL ENERGIES
----------------

  NO   OCC          E(Eh)            E(eV)
   0   2.0000     -88.969098     -2420.9722
   1   2.0000     -88.964888     -2420.8577
   2   2.0000     -10.334215      -281.2083
   3   2.0000     -10.328560      -281.0544
   4   2.0000     -10.321660      -280.8666
   5   2.0000     -10.309201      -280.5276
   6   2.0000     -10.305046      -280.4146
   7   2.0000     -10.301161      -280.3088
   8   2.0000     -10.299232      -280.2563
   9   2.0000     -10.296499      -280.1820
  10   2.0000     -10.295722      -280.1608
  11   2.0000     -10.295198      -280.1466
  12   2.0000     -10.288552      -279.9657
  13   2.0000     -10.283249      -279.8214
  14   2.0000     -10.279622      -279.7227
  15   2.0000     -10.265900      -279.3493
  16   2.0000      -8.083685      -219.9682
  17   2.0000      -8.079460      -219.8533
  18   2.0000      -6.042125      -164.4146
  19   2.0000      -6.038081      -164.3045
  20   2.0000      -6.037972      -164.3016
  21   2.0000      -6.034640      -164.2109
  22   2.0000      -6.034073      -164.1955
  23   2.0000      -6.030138      -164.0884
  24   2.0000      -1.006294       -27.3827
  25   2.0000      -0.984857       -26.7993
  26   2.0000      -0.914457       -24.8836
  27   2.0000      -0.906777       -24.6747
  28   2.0000      -0.869265       -23.6539
  29   2.0000      -0.852828       -23.2066
  30   2.0000      -0.842435       -22.9238
  31   2.0000      -0.813444       -22.1349
  32   2.0000      -0.783103       -21.3093
  33   2.0000      -0.772724       -21.0269
  34   2.0000      -0.713498       -19.4153
  35   2.0000      -0.700410       -19.0591
  36   2.0000      -0.689275       -18.7561
  37   2.0000      -0.667666       -18.1681
  38   2.0000      -0.641442       -17.4545
  39   2.0000      -0.618803       -16.8385
  40   2.0000      -0.595977       -16.2174
  41   2.0000      -0.569370       -15.4933
  42   2.0000      -0.556375       -15.1397
  43   2.0000      -0.552771       -15.0417
  44   2.0000      -0.543173       -14.7805
  45   2.0000      -0.536924       -14.6104
  46   2.0000      -0.523946       -14.2573
  47   2.0000      -0.509732       -13.8705
  48   2.0000      -0.502670       -13.6784
  49   2.0000      -0.490755       -13.3541
  50   2.0000      -0.487743       -13.2722
  51   2.0000      -0.475938       -12.9509
  52   2.0000      -0.469449       -12.7744
  53   2.0000      -0.468598       -12.7512
  54   2.0000      -0.462456       -12.5841
  55   2.0000      -0.448813       -12.2128
  56   2.0000      -0.443627       -12.0717
  57   2.0000      -0.441637       -12.0175
  58   2.0000      -0.433235       -11.7889
  59   2.0000      -0.424948       -11.5634
  60   2.0000      -0.416227       -11.3261
  61   2.0000      -0.413909       -11.2630
  62   2.0000      -0.408021       -11.1028
  63   2.0000      -0.353794        -9.6272
  64   2.0000      -0.334648        -9.1062
  65   2.0000      -0.324984        -8.8433
  66   2.0000      -0.284457        -7.7405
  67   0.0000       0.017813         0.4847
  68   0.0000       0.071286         1.9398
  69   0.0000       0.097953         2.6654
  70   0.0000       0.115344         3.1387
  71   0.0000       0.137756         3.7485

MULLIKEN ATOMIC CHARGES
-----------------------
   0 S :    0.109925
   1 C :   -0.101862
   2 C :   -0.090210
   3 C :    0.029596
   4 C :   -0.152350
   5 H :    0.003661
   6 C :    0.008805
   7 H :    0.036903
   8 H :    0.033407
   9 C :   -0.059848
  10 H :    0.029075
  11 H :    0.031245
  12 C :   -0.057995
  13 H :    0.044615
  14 H :    0.041237
  15 H :    0.029433
  16 S :    0.120621
  17 C :   -0.101290
  18 C :   -0.024186
  19 C :   -0.059468
  20 C :   -0.144812
  21 H :    0.016822
  22 C :    0.047753
  23 H :   -0.004906
  24 H :    0.033545
  25 C :    0.003465
  26 H :    0.027771
  27 H :    0.036641
  28 C :   -0.055782
  29 H :    0.032285
  30 H :    0.011764
  31 H :    0.024136
  32 H :    0.039749
  33 H :    0.060256
Sum of atomic charges:   -0.0000000

LOEWDIN ATOMIC CHARGES
----------------------
   0 S :    0.401155
   1 C :   -0.198266
   2 C :   -0.064478
   3 C :   -0.063066
   4 C :   -0.183130
   5 H :    0.029559
   6 C :   -0.043801
   7 H :    0.032073
   8 H :    0.039167
   9 C :   -0.042973
  10 H :    0.027431
  11 H :    0.026248
  12 C :   -0.069535
  13 H :    0.026470
  14 H :    0.035088
  15 H :    0.021336
  16 S :    0.419721
  17 C :   -0.182428
  18 C :   -0.068749
  19 C :   -0.055197
  20 C :   -0.207948
  21 H :    0.030467
  22 C :   -0.030719
  23 H :    0.024488
  24 H :    0.029994
  25 C :   -0.031151
  26 H :    0.025549
  27 H :    0.024981
  28 C :   -0.064719
  29 H :    0.032694
  30 H :    0.017940
  31 H :    0.014550
  32 H :    0.016759
  33 H :    0.030492

  Mayer bond orders larger than 0.100000
B(  0-S ,  1-C ) :   1.1583 B(  0-S ,  4-C ) :   1.1450 B(  1-C ,  2-C ) :   1.5706
B(  1-C ,  4-C ) :   0.1058 B(  1-C , 32-H ) :   0.9678 B(  2-C ,  3-C ) :   1.2809
B(  2-C ,  6-C ) :   1.0093 B(  3-C ,  4-C ) :   1.5348 B(  3-C ,  5-H ) :   0.9938
B(  4-C , 20-C ) :   1.0933 B(  6-C ,  7-H ) :   0.9470 B(  6-C ,  8-H ) :   0.9447
B(  6-C ,  9-C ) :   1.0728 B(  9-C , 10-H ) :   0.9541 B(  9-C , 11-H ) :   0.9577
B(  9-C , 12-C ) :   1.0665 B( 12-C , 13-H ) :   0.9732 B( 12-C , 14-H ) :   0.9735
B( 12-C , 15-H ) :   0.9759 B( 16-S , 17-C ) :   1.1686 B( 16-S , 20-C ) :   1.1439
B( 17-C , 18-C ) :   1.5795 B( 17-C , 33-H ) :   0.9663 B( 18-C , 19-C ) :   1.2730
B( 18-C , 21-H ) :   0.9920 B( 19-C , 20-C ) :   1.5535 B( 19-C , 22-C ) :   1.0275
B( 22-C , 23-H ) :   0.9288 B( 22-C , 24-H ) :   0.9336 B( 22-C , 25-C ) :   1.0675
B( 25-C , 26-H ) :   0.9507 B( 25-C , 27-H ) :   0.9561 B( 25-C , 28-C ) :   1.0741
B( 28-C , 29-H ) :   0.9782 B( 28-C , 30-H ) :   0.9745 B( 28-C , 31-H ) :   0.9761

Dispersion correction           -0.014918893
FINAL SINGLE POINT ENERGY     -1339.875186286514

DIPOLE MOMENT
-------------
                                X             Y             Z
Electronic contribution:     -5.24684     -20.90956       7.21691
Nuclear contribution   :      5.52667      21.49317      -7.19313
                        -----------------------------------------
Total Dipole Moment    :      0.27983       0.58362       0.02378
                        -----------------------------------------
Magnitude (a.u.)       :      0.64767
Magnitude (Debye)      :      1.64625

Rotational constants in cm-1:     0.021933     0.008127     0.006740
Rotational constants in MHz :   657.532754   243.654204   202.070437

                             ****ORCA TERMINATED NORMALLY****
TOTAL RUN TIME: 0 days 0 hours 0 minutes 22 seconds 47 msec
