                         Program Version 4.2.1 -  RELEASE  -
|  1> ! wB97X-D3 SP def2-SVP
|  2> %pal
|  3> nprocs 24
|  4> end
|  5>
|  6> * xyz 0 1
|  7> S 	 -65.4044 	 9.68658 	 -75.2924
|  8> C 	 -64.3911 	 8.45178 	 -75.9439
|  9> C 	 -65.2255 	 7.33357 	 -76.3666
| 10> C 	 -66.6105 	 7.6674 	 -76.381
| 11> C 	 -66.9468 	 8.88643 	 -75.8017
| 12> H 	 -67.2985 	 6.94958 	 -76.8481
| 13> C 	 -64.772 	 6.06699 	 -76.9993
| 14> H 	 -65.6045 	 5.37221 	 -76.9878
| 15> H 	 -64.0799 	 5.577 	 -76.3757
| 16> C 	 -64.1206 	 6.11013 	 -78.3736
| 17> H 	 -64.1602 	 5.10345 	 -78.8354
| 18> H 	 -64.6874 	 6.74778 	 -79.0753
| 19> C 	 -62.8083 	 6.82972 	 -78.375
| 20> H 	 -62.3421 	 6.78403 	 -79.3622
| 21> H 	 -62.9128 	 7.87496 	 -78.2044
| 22> H 	 -62.2481 	 6.24693 	 -77.6609
| 23> S 	 -68.3141 	 11.3098 	 -75.8102
| 24> C 	 -70.0615 	 11.1968 	 -75.5421
| 25> C 	 -70.5529 	 9.95229 	 -75.4054
| 26> C 	 -69.5395 	 8.95675 	 -75.5616
| 27> C 	 -68.2538 	 9.50802 	 -75.6538
| 28> H 	 -71.6147 	 9.82564 	 -75.2756
| 29> C 	 -69.7073 	 7.50307 	 -75.2894
| 30> H 	 -68.7826 	 7.0281 	 -75.2129
| 31> H 	 -70.208 	 7.0772 	 -76.1268
| 32> C 	 -70.4376 	 7.14163 	 -73.9876
| 33> H 	 -71.4661 	 7.52898 	 -74.0677
| 34> H 	 -69.902 	 7.67219 	 -73.1631
| 35> C 	 -70.476 	 5.64269 	 -73.6405
| 36> H 	 -71.1638 	 5.0982 	 -74.3097
| 37> H 	 -70.9309 	 5.58918 	 -72.6477
| 38> H 	 -69.4854 	 5.20223 	 -73.6183
| 39> H 	 -63.2771 	 8.54604 	 -75.8609
| 40> H 	 -70.7135 	 12.0377 	 -75.4054
| 41> *
| 42>
| 43>                          ****END OF INPUT****

CARTESIAN COORDINATES (ANGSTROEM)
---------------------------------
  S    -65.404400    9.686580  -75.292400
  C    -64.391100    8.451780  -75.943900
  C    -65.225500    7.333570  -76.366600
  C    -66.610500    7.667400  -76.381000
  C    -66.946800    8.886430  -75.801700
  H    -67.298500    6.949580  -76.848100
  C    -64.772000    6.066990  -76.999300
  H    -65.604500    5.372210  -76.987800
  H    -64.079900    5.577000  -76.375700
  C    -64.120600    6.110130  -78.373600
  H    -64.160200    5.103450  -78.835400
  H    -64.687400    6.747780  -79.075300
  C    -62.808300    6.829720  -78.375000
  H    -62.342100    6.784030  -79.362200
  H    -62.912800    7.874960  -78.204400
  H    -62.248100    6.246930  -77.660900
  S    -68.314100   11.309800  -75.810200
  C    -70.061500   11.196800  -75.542100
  C    -70.552900    9.952290  -75.405400
  C    -69.539500    8.956750  -75.561600
  C    -68.253800    9.508020  -75.653800
  H    -71.614700    9.825640  -75.275600
  C    -69.707300    7.503070  -75.289400
  H    -68.782600    7.028100  -75.212900
  H    -70.208000    7.077200  -76.126800
  C    -70.437600    7.141630  -73.987600
  H    -71.466100    7.528980  -74.067700
  H    -69.902000    7.672190  -73.163100
  C    -70.476000    5.642690  -73.640500
  H    -71.163800    5.098200  -74.309700
  H    -70.930900    5.589180  -72.647700
  H    -69.485400    5.202230  -73.618300
  H    -63.277100    8.546040  -75.860900
  H    -70.713500   12.037700  -75.405400

 Total Charge           Charge          ....    0
 Multiplicity           Mult            ....    1
 Number of Electrons    NEL             ....  134
 Basis Dimension        Dim             ....  322

ORBITAL ENERGIES
----------------

  NO   OCC          E(Eh)            E(eV)
   0   2.0000     -88.968487     -2420.9556
   1   2.0000     -88.965270     -2420.8681
   2   2.0000     -10.335952      -281.2555
   3   2.0000     -10.331888      -281.1450
   4   2.0000     -10.326287      -280.9925
   5   2.0000     -10.314275      -280.6657
   6   2.0000     -10.306731      -280.4604
   7   2.0000     -10.304611      -280.4027
   8   2.0000     -10.297302      -280.2038
   9   2.0000     -10.292213      -280.0654
  10   2.0000     -10.288464      -279.9633
  11   2.0000     -10.283749      -279.8350
  12   2.0000     -10.283525      -279.8289
  13   2.0000     -10.280685      -279.7517
  14   2.0000     -10.278447      -279.6908
  15   2.0000     -10.271019      -279.4886
  16   2.0000      -8.082409      -219.9335
  17   2.0000      -8.078991      -219.8405
  18   2.0000      -6.040977      -164.3833
  19   2.0000      -6.037590      -164.2912
  20   2.0000      -6.036802      -164.2697
  21   2.0000      -6.033919      -164.1913
  22   2.0000      -6.033383      -164.1767
  23   2.0000      -6.029438      -164.0694
  24   2.0000      -0.999599       -27.2005
  25   2.0000      -0.978605       -26.6292
  26   2.0000      -0.918330       -24.9890
  27   2.0000      -0.910349       -24.7719
  28   2.0000      -0.869220       -23.6527
  29   2.0000      -0.855909       -23.2905
  30   2.0000      -0.847773       -23.0691
  31   2.0000      -0.815046       -22.1785
  32   2.0000      -0.784863       -21.3572
  33   2.0000      -0.769524       -20.9398
  34   2.0000      -0.703971       -19.1560
  35   2.0000      -0.697224       -18.9724
  36   2.0000      -0.692650       -18.8480
  37   2.0000      -0.655424       -17.8350
  38   2.0000      -0.638225       -17.3670
  39   2.0000      -0.627275       -17.0690
  40   2.0000      -0.599061       -16.3013
  41   2.0000      -0.575042       -15.6477
  42   2.0000      -0.571118       -15.5409
  43   2.0000      -0.554899       -15.0996
  44   2.0000      -0.542498       -14.7621
  45   2.0000      -0.523543       -14.2463
  46   2.0000      -0.518634       -14.1127
  47   2.0000      -0.511115       -13.9081
  48   2.0000      -0.500429       -13.6174
  49   2.0000      -0.496593       -13.5130
  50   2.0000      -0.489101       -13.3091
  51   2.0000      -0.485848       -13.2206
  52   2.0000      -0.472874       -12.8676
  53   2.0000      -0.467366       -12.7177
  54   2.0000      -0.454308       -12.3623
  55   2.0000      -0.452351       -12.3091
  56   2.0000      -0.449802       -12.2397
  57   2.0000      -0.435504       -11.8507
  58   2.0000      -0.430043       -11.7021
  59   2.0000      -0.422897       -11.5076
  60   2.0000      -0.420738       -11.4489
  61   2.0000      -0.413146       -11.2423
  62   2.0000      -0.404318       -11.0020
  63   2.0000      -0.358428        -9.7533
  64   2.0000      -0.334155        -9.0928
  65   2.0000      -0.328070        -8.9272
  66   2.0000      -0.279342        -7.6013
  67   0.0000       0.016369         0.4454
  68   0.0000       0.074633         2.0309
  69   0.0000       0.097275         2.6470
  70   0.0000       0.117920         3.2088
  71   0.0000       0.137124         3.7313

MULLIKEN ATOMIC CHARGES
-----------------------
   0 S :    0.107354
   1 C :   -0.152536
   2 C :   -0.111191
   3 C :   -0.000731
   4 C :   -0.120601
   5 H :    0.028696
   6 C :    0.089699
   7 H :    0.007380
   8 H :    0.008596
   9 C :   -0.075971
  10 H :    0.036380
  11 H :    0.017321
  12 C :   -0.032283
  13 H :    0.031151
  14 H :    0.039913
  15 H :    0.018796
  16 S :    0.090578
  17 C :   -0.066530
  18 C :   -0.034168
  19 C :   -0.031484
  20 C :   -0.136969
  21 H :    0.019571
  22 C :    0.100542
  23 H :    0.000173
  24 H :    0.016237
  25 C :   -0.123302
  26 H :    0.028403
  27 H :    0.043265
  28 C :   -0.036547
  29 H :    0.032328
  30 H :    0.036509
  31 H :    0.039087
  32 H :    0.085914
  33 H :    0.044420
Sum of atomic charges:    0.0000000

LOEWDIN ATOMIC CHARGES
----------------------
   0 S :    0.401024
   1 C :   -0.217583
   2 C :   -0.061482
   3 C :   -0.066428
   4 C :   -0.181844
   5 H :    0.036233
   6 C :   -0.037815
   7 H :    0.029761
   8 H :    0.024379
   9 C :   -0.043094
  10 H :    0.028203
  11 H :    0.023454
  12 C :   -0.061565
  13 H :    0.029877
  14 H :    0.023992
  15 H :    0.019666
  16 S :    0.363589
  17 C :   -0.164269
  18 C :   -0.070008
  19 C :   -0.046121
  20 C :   -0.174158
  21 H :    0.034886
  22 C :   -0.032841
  23 H :    0.020396
  24 H :    0.026892
  25 C :   -0.039777
  26 H :    0.020419
  27 H :    0.030483
  28 C :   -0.063969
  29 H :    0.025907
  30 H :    0.030994
  31 H :    0.024703
  32 H :    0.040407
  33 H :    0.025690

  Mayer bond orders larger than 0.100000
B(  0-S ,  1-C ) :   1.1695 B(  0-S ,  4-C ) :   1.1460 B(  1-C ,  2-C ) :   1.5165
B(  1-C ,  4-C ) :   0.1108 B(  1-C , 32-H ) :   0.9618 B(  2-C ,  3-C ) :   1.3083
B(  2-C ,  6-C ) :   1.0474 B(  3-C ,  4-C ) :   1.5142 B(  3-C ,  5-H ) :   0.9793
B(  4-C , 20-C ) :   1.0890 B(  6-C ,  7-H ) :   0.9321 B(  6-C ,  8-H ) :   0.9283
B(  6-C ,  9-C ) :   1.0680 B(  9-C , 10-H ) :   0.9545 B(  9-C , 11-H ) :   0.9533
B(  9-C , 12-C ) :   1.0792 B( 12-C , 13-H ) :   0.9677 B( 12-C , 14-H ) :   0.9667
B( 12-C , 15-H ) :   0.9789 B( 16-S , 17-C ) :   1.1289 B( 16-S , 20-C ) :   1.1082
B( 17-C , 18-C ) :   1.6720 B( 17-C , 33-H ) :   0.9609 B( 18-C , 19-C ) :   1.1950
B( 18-C , 21-H ) :   0.9903 B( 19-C , 20-C ) :   1.6065 B( 19-C , 22-C ) :   1.0582
B( 22-C , 23-H ) :   0.9342 B( 22-C , 24-H ) :   0.9124 B( 22-C , 25-C ) :   1.0683
B( 25-C , 26-H ) :   0.9494 B( 25-C , 27-H ) :   0.9576 B( 25-C , 28-C ) :   1.0919
B( 28-C , 29-H ) :   0.9740 B( 28-C , 30-H ) :   0.9728 B( 28-C , 31-H ) :   0.9742

Dispersion correction           -0.013859134
FINAL SINGLE POINT ENERGY     -1339.872205081773

DIPOLE MOMENT
-------------
                                X             Y             Z
Electronic contribution:     -0.15670      25.11649       3.31081
Nuclear contribution   :     -0.09509     -25.74244      -3.41061
                        -----------------------------------------
Total Dipole Moment    :     -0.25179      -0.62595      -0.09980
                        -----------------------------------------
Magnitude (a.u.)       :      0.68204
Magnitude (Debye)      :      1.73360

Rotational constants in cm-1:     0.019009     0.008266     0.006386
Rotational constants in MHz :   569.886281   247.797080   191.452457

                             ****ORCA TERMINATED NORMALLY****
TOTAL RUN TIME: 0 days 0 hours 0 minutes 22 seconds 699 msec
