                         Program Version 4.2.1 -  RELEASE  -
|  1> ! wB97X-D3 SP def2-SVP
|  2> %pal
|  3> nprocs 24
|  4> end
|  5>
|  6> * xyz 0 1
|  7> S 	 -56.395 	 13.9236 	 -90.2848
|  8> C 	 -56.1562 	 12.5344 	 -89.258
|  9> C 	 -56.8533 	 12.7076 	 -88.0556
| 10> C 	 -57.5659 	 13.9688 	 -87.9968
| 11> C 	 -57.3898 	 14.7821 	 -89.1357
| 12> H 	 -58.0938 	 14.342 	 -87.0909
| 13> C 	 -56.8566 	 11.7106 	 -86.8886
| 14> H 	 -57.4578 	 12.2603 	 -86.1034
| 15> H 	 -55.9042 	 11.6146 	 -86.4355
| 16> C 	 -57.4296 	 10.2853 	 -87.2264
| 17> H 	 -58.4982 	 10.3212 	 -87.3434
| 18> H 	 -56.9165 	 9.88146 	 -88.1352
| 19> C 	 -57.038 	 9.33219 	 -86.1183
| 20> H 	 -57.3763 	 9.69554 	 -85.1992
| 21> H 	 -57.3726 	 8.31156 	 -86.3725
| 22> H 	 -55.9069 	 9.20036 	 -86.0619
| 23> S 	 -59.6356 	 16.3238 	 -89.2336
| 24> C 	 -59.514 	 18.0317 	 -89.4362
| 25> C 	 -58.2705 	 18.4158 	 -89.7435
| 26> C 	 -57.3071 	 17.3359 	 -89.6311
| 27> C 	 -57.8805 	 16.1186 	 -89.2556
| 28> H 	 -58.0937 	 19.3635 	 -90.1447
| 29> C 	 -55.783 	 17.6385 	 -89.8222
| 30> H 	 -55.6357 	 18.6423 	 -89.9091
| 31> H 	 -55.3749 	 17.0635 	 -90.5997
| 32> C 	 -54.9164 	 17.2664 	 -88.6179
| 33> H 	 -54.8419 	 16.1931 	 -88.3679
| 34> H 	 -55.2824 	 17.8619 	 -87.7725
| 35> C 	 -53.4312 	 17.8571 	 -88.7513
| 36> H 	 -53.0603 	 17.4699 	 -89.6821
| 37> H 	 -52.8513 	 17.4275 	 -87.9199
| 38> H 	 -53.4613 	 18.9359 	 -88.8281
| 39> H 	 -55.5378 	 11.6321 	 -89.4607
| 40> H 	 -60.214 	 18.7448 	 -89.0343
| 41> *
| 42>
| 43>                          ****END OF INPUT****

CARTESIAN COORDINATES (ANGSTROEM)
---------------------------------
  S    -56.395000   13.923600  -90.284800
  C    -56.156200   12.534400  -89.258000
  C    -56.853300   12.707600  -88.055600
  C    -57.565900   13.968800  -87.996800
  C    -57.389800   14.782100  -89.135700
  H    -58.093800   14.342000  -87.090900
  C    -56.856600   11.710600  -86.888600
  H    -57.457800   12.260300  -86.103400
  H    -55.904200   11.614600  -86.435500
  C    -57.429600   10.285300  -87.226400
  H    -58.498200   10.321200  -87.343400
  H    -56.916500    9.881460  -88.135200
  C    -57.038000    9.332190  -86.118300
  H    -57.376300    9.695540  -85.199200
  H    -57.372600    8.311560  -86.372500
  H    -55.906900    9.200360  -86.061900
  S    -59.635600   16.323800  -89.233600
  C    -59.514000   18.031700  -89.436200
  C    -58.270500   18.415800  -89.743500
  C    -57.307100   17.335900  -89.631100
  C    -57.880500   16.118600  -89.255600
  H    -58.093700   19.363500  -90.144700
  C    -55.783000   17.638500  -89.822200
  H    -55.635700   18.642300  -89.909100
  H    -55.374900   17.063500  -90.599700
  C    -54.916400   17.266400  -88.617900
  H    -54.841900   16.193100  -88.367900
  H    -55.282400   17.861900  -87.772500
  C    -53.431200   17.857100  -88.751300
  H    -53.060300   17.469900  -89.682100
  H    -52.851300   17.427500  -87.919900
  H    -53.461300   18.935900  -88.828100
  H    -55.537800   11.632100  -89.460700
  H    -60.214000   18.744800  -89.034300

 Total Charge           Charge          ....    0
 Multiplicity           Mult            ....    1
 Number of Electrons    NEL             ....  134
 Basis Dimension        Dim             ....  322

ORBITAL ENERGIES
----------------

  NO   OCC          E(Eh)            E(eV)
   0   2.0000     -88.971124     -2421.0274
   1   2.0000     -88.959752     -2420.7179
   2   2.0000     -10.331328      -281.1297
   3   2.0000     -10.326463      -280.9974
   4   2.0000     -10.321275      -280.8562
   5   2.0000     -10.308102      -280.4977
   6   2.0000     -10.307887      -280.4919
   7   2.0000     -10.305635      -280.4306
   8   2.0000     -10.302202      -280.3372
   9   2.0000     -10.296266      -280.1756
  10   2.0000     -10.291257      -280.0393
  11   2.0000     -10.286942      -279.9219
  12   2.0000     -10.282387      -279.7980
  13   2.0000     -10.281559      -279.7755
  14   2.0000     -10.279334      -279.7149
  15   2.0000     -10.276466      -279.6369
  16   2.0000      -8.085264      -220.0112
  17   2.0000      -8.075085      -219.7342
  18   2.0000      -6.043784      -164.4597
  19   2.0000      -6.039620      -164.3464
  20   2.0000      -6.036272      -164.2553
  21   2.0000      -6.033670      -164.1845
  22   2.0000      -6.029515      -164.0715
  23   2.0000      -6.025701      -163.9677
  24   2.0000      -1.005917       -27.3724
  25   2.0000      -0.983599       -26.7651
  26   2.0000      -0.910106       -24.7653
  27   2.0000      -0.903842       -24.5948
  28   2.0000      -0.875419       -23.8214
  29   2.0000      -0.850022       -23.1303
  30   2.0000      -0.839606       -22.8468
  31   2.0000      -0.813026       -22.1236
  32   2.0000      -0.780255       -21.2318
  33   2.0000      -0.768365       -20.9083
  34   2.0000      -0.707701       -19.2575
  35   2.0000      -0.699645       -19.0383
  36   2.0000      -0.684752       -18.6331
  37   2.0000      -0.662422       -18.0254
  38   2.0000      -0.636512       -17.3204
  39   2.0000      -0.614401       -16.7187
  40   2.0000      -0.594299       -16.1717
  41   2.0000      -0.578342       -15.7375
  42   2.0000      -0.573370       -15.6022
  43   2.0000      -0.564402       -15.3582
  44   2.0000      -0.526105       -14.3160
  45   2.0000      -0.523122       -14.2349
  46   2.0000      -0.516058       -14.0427
  47   2.0000      -0.510436       -13.8897
  48   2.0000      -0.504444       -13.7266
  49   2.0000      -0.499889       -13.6027
  50   2.0000      -0.489411       -13.3175
  51   2.0000      -0.487373       -13.2621
  52   2.0000      -0.477881       -13.0038
  53   2.0000      -0.467054       -12.7092
  54   2.0000      -0.455562       -12.3965
  55   2.0000      -0.443525       -12.0689
  56   2.0000      -0.439836       -11.9685
  57   2.0000      -0.436713       -11.8836
  58   2.0000      -0.431291       -11.7360
  59   2.0000      -0.426299       -11.6002
  60   2.0000      -0.422259       -11.4903
  61   2.0000      -0.414106       -11.2684
  62   2.0000      -0.399805       -10.8792
  63   2.0000      -0.339573        -9.2403
  64   2.0000      -0.332085        -9.0365
  65   2.0000      -0.325168        -8.8483
  66   2.0000      -0.297568        -8.0972
  67   0.0000       0.022785         0.6200
  68   0.0000       0.072534         1.9737
  69   0.0000       0.107344         2.9210
  70   0.0000       0.117344         3.1931
  71   0.0000       0.126907         3.4533

MULLIKEN ATOMIC CHARGES
-----------------------
   0 S :    0.127506
   1 C :   -0.141947
   2 C :   -0.091253
   3 C :    0.008721
   4 C :   -0.152880
   5 H :    0.034401
   6 C :    0.050895
   7 H :    0.023649
   8 H :    0.025350
   9 C :   -0.070701
  10 H :    0.041040
  11 H :    0.033623
  12 C :   -0.049362
  13 H :    0.023999
  14 H :    0.036066
  15 H :    0.031651
  16 S :    0.101186
  17 C :   -0.078348
  18 C :   -0.033079
  19 C :   -0.051851
  20 C :   -0.162295
  21 H :    0.005858
  22 C :    0.166478
  23 H :   -0.016644
  24 H :    0.017842
  25 C :   -0.142394
  26 H :    0.052635
  27 H :    0.028154
  28 C :   -0.051897
  29 H :    0.018429
  30 H :    0.046740
  31 H :    0.033440
  32 H :    0.067815
  33 H :    0.067173
Sum of atomic charges:   -0.0000000

LOEWDIN ATOMIC CHARGES
----------------------
   0 S :    0.422026
   1 C :   -0.209476
   2 C :   -0.067426
   3 C :   -0.062022
   4 C :   -0.211644
   5 H :    0.038001
   6 C :   -0.033835
   7 H :    0.034902
   8 H :    0.024385
   9 C :   -0.034598
  10 H :    0.025216
  11 H :    0.027505
  12 C :   -0.064570
  13 H :    0.013793
  14 H :    0.028121
  15 H :    0.029855
  16 S :    0.407262
  17 C :   -0.192389
  18 C :   -0.068241
  19 C :   -0.045346
  20 C :   -0.196455
  21 H :    0.024535
  22 C :   -0.018493
  23 H :    0.015693
  24 H :    0.023102
  25 C :   -0.037193
  26 H :    0.024824
  27 H :    0.021299
  28 C :   -0.062465
  29 H :    0.016459
  30 H :    0.031358
  31 H :    0.020936
  32 H :    0.040259
  33 H :    0.034623

  Mayer bond orders larger than 0.100000
B(  0-S ,  1-C ) :   1.1515 B(  0-S ,  4-C ) :   1.1457 B(  1-C ,  2-C ) :   1.5791
B(  1-C , 32-H ) :   0.9653 B(  2-C ,  3-C ) :   1.2816 B(  2-C ,  6-C ) :   1.0136
B(  3-C ,  4-C ) :   1.5259 B(  3-C ,  5-H ) :   0.9818 B(  4-C , 20-C ) :   1.0779
B(  6-C ,  7-H ) :   0.9403 B(  6-C ,  8-H ) :   0.9456 B(  6-C ,  9-C ) :   1.0536
B(  9-C , 10-H ) :   0.9571 B(  9-C , 11-H ) :   0.9603 B(  9-C , 12-C ) :   1.0841
B( 12-C , 13-H ) :   0.9748 B( 12-C , 14-H ) :   0.9721 B( 12-C , 15-H ) :   0.9747
B( 16-S , 17-C ) :   1.1559 B( 16-S , 20-C ) :   1.1349 B( 17-C , 18-C ) :   1.6239
B( 17-C , 33-H ) :   0.9554 B( 18-C , 19-C ) :   1.2478 B( 18-C , 21-H ) :   0.9979
B( 19-C , 20-C ) :   1.5754 B( 19-C , 22-C ) :   1.0427 B( 22-C , 23-H ) :   0.9329
B( 22-C , 24-H ) :   0.9269 B( 22-C , 25-C ) :   1.0671 B( 25-C , 26-H ) :   0.9572
B( 25-C , 27-H ) :   0.9604 B( 25-C , 28-C ) :   1.0752 B( 28-C , 29-H ) :   0.9775
B( 28-C , 30-H ) :   0.9763 B( 28-C , 31-H ) :   0.9775

Dispersion correction           -0.013976001
FINAL SINGLE POINT ENERGY     -1339.860547371056

DIPOLE MOMENT
-------------
                                X             Y             Z
Electronic contribution:    -15.09594       8.46964     -13.29790
Nuclear contribution   :     15.42687      -8.52197      13.68815
                        -----------------------------------------
Total Dipole Moment    :      0.33092      -0.05233       0.39025
                        -----------------------------------------
Magnitude (a.u.)       :      0.51434
Magnitude (Debye)      :      1.30735

Rotational constants in cm-1:     0.020289     0.007583     0.006253
Rotational constants in MHz :   608.252769   227.325679   187.447853

                             ****ORCA TERMINATED NORMALLY****
TOTAL RUN TIME: 0 days 0 hours 0 minutes 22 seconds 113 msec
