                         Program Version 4.2.1 -  RELEASE  -
|  1> ! wB97X-D3 SP def2-SVP
|  2> %pal
|  3> nprocs 24
|  4> end
|  5>
|  6> * xyz 0 1
|  7> S 	 44.7752 	 -15.7632 	 -117.868
|  8> C 	 45.5515 	 -16.8011 	 -116.677
|  9> C 	 46.8924 	 -17.0264 	 -117.088
| 10> C 	 47.1353 	 -16.6097 	 -118.41
| 11> C 	 46.1846 	 -15.7481 	 -118.919
| 12> H 	 48.051 	 -16.7699 	 -118.965
| 13> C 	 47.8443 	 -17.734 	 -116.159
| 14> H 	 48.4035 	 -18.4053 	 -116.777
| 15> H 	 47.1326 	 -18.4544 	 -115.575
| 16> C 	 48.6825 	 -16.8148 	 -115.238
| 17> H 	 49.4276 	 -16.22 	 -115.825
| 18> H 	 47.9719 	 -16.0661 	 -114.769
| 19> C 	 49.3418 	 -17.5529 	 -114.04
| 20> H 	 49.6934 	 -16.7618 	 -113.393
| 21> H 	 48.5954 	 -18.0151 	 -113.423
| 22> H 	 50.2003 	 -18.185 	 -114.209
| 23> S 	 46.8036 	 -15.8315 	 -121.616
| 24> C 	 46.7704 	 -14.3769 	 -122.549
| 25> C 	 46.4946 	 -13.2741 	 -121.733
| 26> C 	 46.3831 	 -13.6058 	 -120.334
| 27> C 	 46.2979 	 -14.987 	 -120.117
| 28> H 	 46.508 	 -12.2912 	 -122.098
| 29> C 	 46.0463 	 -12.5704 	 -119.28
| 30> H 	 46.9483 	 -12.5247 	 -118.698
| 31> H 	 45.2628 	 -13.1698 	 -118.761
| 32> C 	 45.4829 	 -11.2546 	 -119.802
| 33> H 	 44.5145 	 -11.3665 	 -120.126
| 34> H 	 45.9996 	 -10.8837 	 -120.588
| 35> C 	 45.3751 	 -10.2428 	 -118.575
| 36> H 	 44.7422 	 -10.5814 	 -117.725
| 37> H 	 44.9957 	 -9.3086 	 -118.947
| 38> H 	 46.3932 	 -10.0002 	 -118.162
| 39> H 	 45.1642 	 -17.1466 	 -115.717
| 40> H 	 46.9548 	 -14.4407 	 -123.581
| 41> *
| 42>
| 43>                          ****END OF INPUT****

CARTESIAN COORDINATES (ANGSTROEM)
---------------------------------
  S     44.775200  -15.763200  -117.868000
  C     45.551500  -16.801100  -116.677000
  C     46.892400  -17.026400  -117.088000
  C     47.135300  -16.609700  -118.410000
  C     46.184600  -15.748100  -118.919000
  H     48.051000  -16.769900  -118.965000
  C     47.844300  -17.734000  -116.159000
  H     48.403500  -18.405300  -116.777000
  H     47.132600  -18.454400  -115.575000
  C     48.682500  -16.814800  -115.238000
  H     49.427600  -16.220000  -115.825000
  H     47.971900  -16.066100  -114.769000
  C     49.341800  -17.552900  -114.040000
  H     49.693400  -16.761800  -113.393000
  H     48.595400  -18.015100  -113.423000
  H     50.200300  -18.185000  -114.209000
  S     46.803600  -15.831500  -121.616000
  C     46.770400  -14.376900  -122.549000
  C     46.494600  -13.274100  -121.733000
  C     46.383100  -13.605800  -120.334000
  C     46.297900  -14.987000  -120.117000
  H     46.508000  -12.291200  -122.098000
  C     46.046300  -12.570400  -119.280000
  H     46.948300  -12.524700  -118.698000
  H     45.262800  -13.169800  -118.761000
  C     45.482900  -11.254600  -119.802000
  H     44.514500  -11.366500  -120.126000
  H     45.999600  -10.883700  -120.588000
  C     45.375100  -10.242800  -118.575000
  H     44.742200  -10.581400  -117.725000
  H     44.995700   -9.308600  -118.947000
  H     46.393200  -10.000200  -118.162000
  H     45.164200  -17.146600  -115.717000
  H     46.954800  -14.440700  -123.581000

 Total Charge           Charge          ....    0
 Multiplicity           Mult            ....    1
 Number of Electrons    NEL             ....  134
 Basis Dimension        Dim             ....  322

ORBITAL ENERGIES
----------------

  NO   OCC          E(Eh)            E(eV)
   0   2.0000     -88.968667     -2420.9605
   1   2.0000     -88.962207     -2420.7847
   2   2.0000     -10.327503      -281.0256
   3   2.0000     -10.323584      -280.9190
   4   2.0000     -10.316756      -280.7332
   5   2.0000     -10.316648      -280.7303
   6   2.0000     -10.303485      -280.3721
   7   2.0000     -10.300895      -280.3016
   8   2.0000     -10.299642      -280.2675
   9   2.0000     -10.296425      -280.1800
  10   2.0000     -10.292347      -280.0690
  11   2.0000     -10.291656      -280.0502
  12   2.0000     -10.288081      -279.9529
  13   2.0000     -10.283853      -279.8379
  14   2.0000     -10.278484      -279.6918
  15   2.0000     -10.276598      -279.6404
  16   2.0000      -8.082317      -219.9310
  17   2.0000      -8.076743      -219.7794
  18   2.0000      -6.040868      -164.3804
  19   2.0000      -6.036802      -164.2697
  20   2.0000      -6.035218      -164.2266
  21   2.0000      -6.033277      -164.1738
  22   2.0000      -6.031213      -164.1177
  23   2.0000      -6.027633      -164.0202
  24   2.0000      -1.004112       -27.3233
  25   2.0000      -0.980177       -26.6720
  26   2.0000      -0.910572       -24.7779
  27   2.0000      -0.906600       -24.6698
  28   2.0000      -0.869773       -23.6677
  29   2.0000      -0.849589       -23.1185
  30   2.0000      -0.845423       -23.0051
  31   2.0000      -0.812093       -22.0982
  32   2.0000      -0.780287       -21.2327
  33   2.0000      -0.766620       -20.8608
  34   2.0000      -0.719829       -19.5875
  35   2.0000      -0.704392       -19.1675
  36   2.0000      -0.696394       -18.9498
  37   2.0000      -0.661108       -17.9897
  38   2.0000      -0.635713       -17.2986
  39   2.0000      -0.612044       -16.6546
  40   2.0000      -0.597272       -16.2526
  41   2.0000      -0.573780       -15.6133
  42   2.0000      -0.566967       -15.4280
  43   2.0000      -0.555558       -15.1175
  44   2.0000      -0.533771       -14.5247
  45   2.0000      -0.522521       -14.2185
  46   2.0000      -0.519689       -14.1414
  47   2.0000      -0.510791       -13.8993
  48   2.0000      -0.507713       -13.8156
  49   2.0000      -0.500267       -13.6129
  50   2.0000      -0.497200       -13.5295
  51   2.0000      -0.474638       -12.9156
  52   2.0000      -0.467322       -12.7165
  53   2.0000      -0.463065       -12.6006
  54   2.0000      -0.458557       -12.4780
  55   2.0000      -0.447695       -12.1824
  56   2.0000      -0.443120       -12.0579
  57   2.0000      -0.437417       -11.9027
  58   2.0000      -0.435117       -11.8401
  59   2.0000      -0.430266       -11.7081
  60   2.0000      -0.423816       -11.5326
  61   2.0000      -0.412261       -11.2182
  62   2.0000      -0.407497       -11.0886
  63   2.0000      -0.341627        -9.2961
  64   2.0000      -0.329463        -8.9651
  65   2.0000      -0.327587        -8.9141
  66   2.0000      -0.286099        -7.7851
  67   0.0000       0.026768         0.7284
  68   0.0000       0.062350         1.6966
  69   0.0000       0.108388         2.9494
  70   0.0000       0.121820         3.3149
  71   0.0000       0.130411         3.5487

MULLIKEN ATOMIC CHARGES
-----------------------
   0 S :    0.113741
   1 C :   -0.118815
   2 C :   -0.122011
   3 C :    0.038872
   4 C :   -0.157401
   5 H :    0.012958
   6 C :    0.050674
   7 H :    0.018166
   8 H :    0.030389
   9 C :   -0.084549
  10 H :    0.041918
  11 H :    0.036553
  12 C :   -0.027169
  13 H :    0.022411
  14 H :    0.024487
  15 H :    0.041123
  16 S :    0.092963
  17 C :   -0.069394
  18 C :   -0.011352
  19 C :   -0.071707
  20 C :   -0.163970
  21 H :   -0.000677
  22 C :    0.080829
  23 H :    0.039118
  24 H :    0.031614
  25 C :   -0.010397
  26 H :    0.013902
  27 H :    0.012074
  28 C :   -0.071416
  29 H :    0.047522
  30 H :    0.024654
  31 H :    0.033032
  32 H :    0.054534
  33 H :    0.047322
Sum of atomic charges:    0.0000000

LOEWDIN ATOMIC CHARGES
----------------------
   0 S :    0.410254
   1 C :   -0.206549
   2 C :   -0.062572
   3 C :   -0.064851
   4 C :   -0.195398
   5 H :    0.030004
   6 C :   -0.040008
   7 H :    0.023800
   8 H :    0.039695
   9 C :   -0.041157
  10 H :    0.029821
  11 H :    0.032871
  12 C :   -0.067185
  13 H :    0.028243
  14 H :    0.023474
  15 H :    0.024194
  16 S :    0.400203
  17 C :   -0.174851
  18 C :   -0.073641
  19 C :   -0.044842
  20 C :   -0.200537
  21 H :    0.020151
  22 C :   -0.032678
  23 H :    0.034896
  24 H :    0.034123
  25 C :   -0.021095
  26 H :    0.020688
  27 H :    0.007960
  28 C :   -0.062708
  29 H :    0.031279
  30 H :    0.019258
  31 H :    0.026794
  32 H :    0.031356
  33 H :    0.019008

  Mayer bond orders larger than 0.100000
B(  0-S ,  1-C ) :   1.1422 B(  0-S ,  4-C ) :   1.1508 B(  1-C ,  2-C ) :   1.5716
B(  1-C ,  4-C ) :   0.1084 B(  1-C , 32-H ) :   0.9680 B(  2-C ,  3-C ) :   1.2797
B(  2-C ,  6-C ) :   1.0206 B(  3-C ,  4-C ) :   1.5499 B(  3-C ,  5-H ) :   0.9890
B(  4-C , 20-C ) :   1.0601 B(  6-C ,  7-H ) :   0.9393 B(  6-C ,  8-H ) :   0.9479
B(  6-C ,  9-C ) :   1.0462 B(  9-C , 10-H ) :   0.9551 B(  9-C , 11-H ) :   0.9573
B(  9-C , 12-C ) :   1.0817 B( 12-C , 13-H ) :   0.9725 B( 12-C , 14-H ) :   0.9730
B( 12-C , 15-H ) :   0.9772 B( 16-S , 17-C ) :   1.1800 B( 16-S , 20-C ) :   1.1260
B( 17-C , 18-C ) :   1.5567 B( 17-C , 20-C ) :   0.1059 B( 17-C , 33-H ) :   0.9759
B( 18-C , 19-C ) :   1.2618 B( 18-C , 21-H ) :   0.9955 B( 19-C , 20-C ) :   1.5735
B( 19-C , 22-C ) :   1.0061 B( 22-C , 23-H ) :   0.9198 B( 22-C , 24-H ) :   0.9390
B( 22-C , 25-C ) :   1.0930 B( 25-C , 26-H ) :   0.9471 B( 25-C , 27-H ) :   0.9496
B( 25-C , 28-C ) :   1.0801 B( 28-C , 29-H ) :   0.9772 B( 28-C , 30-H ) :   0.9752
B( 28-C , 31-H ) :   0.9796

Dispersion correction           -0.013536127
FINAL SINGLE POINT ENERGY     -1339.858013146105

DIPOLE MOMENT
-------------
                                X             Y             Z
Electronic contribution:     -8.59518     -10.21395     -18.70975
Nuclear contribution   :      8.96067      10.54079      18.99200
                        -----------------------------------------
Total Dipole Moment    :      0.36549       0.32684       0.28224
                        -----------------------------------------
Magnitude (a.u.)       :      0.56574
Magnitude (Debye)      :      1.43801

Rotational constants in cm-1:     0.018409     0.007526     0.006373
Rotational constants in MHz :   551.889330   225.611275   191.069323

                             ****ORCA TERMINATED NORMALLY****
TOTAL RUN TIME: 0 days 0 hours 0 minutes 19 seconds 687 msec
