                         Program Version 4.2.1 -  RELEASE  -
|  1> ! wB97X-D3 SP def2-SVP
|  2> %pal
|  3> nprocs 24
|  4> end
|  5>
|  6> * xyz 0 1
|  7> S 	 -38.9039 	 -48.1119 	 -74.5084
|  8> C 	 -39.1509 	 -46.5804 	 -73.621
|  9> C 	 -39.4039 	 -46.8187 	 -72.2875
| 10> C 	 -39.4098 	 -48.2477 	 -71.9587
| 11> C 	 -38.9702 	 -49.0765 	 -72.9507
| 12> H 	 -39.7104 	 -48.7548 	 -71.0931
| 13> C 	 -39.6209 	 -45.7308 	 -71.232
| 14> H 	 -39.4248 	 -44.6869 	 -71.5839
| 15> H 	 -38.7785 	 -45.8923 	 -70.5485
| 16> C 	 -40.9858 	 -45.8846 	 -70.4519
| 17> H 	 -41.0033 	 -46.9024 	 -70.0286
| 18> H 	 -41.1896 	 -45.1652 	 -69.6618
| 19> C 	 -42.1571 	 -45.8707 	 -71.3973
| 20> H 	 -42.9815 	 -46.2636 	 -70.8412
| 21> H 	 -42.311 	 -44.8957 	 -71.8917
| 22> H 	 -41.984 	 -46.6164 	 -72.1141
| 23> S 	 -38.578 	 -51.4272 	 -74.3897
| 24> C 	 -38.4828 	 -52.9564 	 -73.4774
| 25> C 	 -38.1843 	 -52.6648 	 -72.1809
| 26> C 	 -38.189 	 -51.2653 	 -71.8292
| 27> C 	 -38.5251 	 -50.457 	 -72.8926
| 28> H 	 -37.9926 	 -53.426 	 -71.4336
| 29> C 	 -37.9609 	 -50.8275 	 -70.402
| 30> H 	 -37.5535 	 -51.6325 	 -69.8367
| 31> H 	 -39.0062 	 -50.7103 	 -70.0687
| 32> C 	 -37.0276 	 -49.5609 	 -70.1346
| 33> H 	 -37.3896 	 -49.0002 	 -69.2835
| 34> H 	 -36.9469 	 -48.9271 	 -71.0934
| 35> C 	 -35.4855 	 -49.9384 	 -70.0618
| 36> H 	 -34.9211 	 -49.0672 	 -70.0678
| 37> H 	 -35.3478 	 -50.4918 	 -70.9889
| 38> H 	 -35.2462 	 -50.6228 	 -69.2177
| 39> H 	 -38.8589 	 -45.5758 	 -74.0568
| 40> H 	 -38.6834 	 -53.9636 	 -73.7438
| 41> *
| 42>
| 43>                          ****END OF INPUT****

CARTESIAN COORDINATES (ANGSTROEM)
---------------------------------
  S    -38.903900  -48.111900  -74.508400
  C    -39.150900  -46.580400  -73.621000
  C    -39.403900  -46.818700  -72.287500
  C    -39.409800  -48.247700  -71.958700
  C    -38.970200  -49.076500  -72.950700
  H    -39.710400  -48.754800  -71.093100
  C    -39.620900  -45.730800  -71.232000
  H    -39.424800  -44.686900  -71.583900
  H    -38.778500  -45.892300  -70.548500
  C    -40.985800  -45.884600  -70.451900
  H    -41.003300  -46.902400  -70.028600
  H    -41.189600  -45.165200  -69.661800
  C    -42.157100  -45.870700  -71.397300
  H    -42.981500  -46.263600  -70.841200
  H    -42.311000  -44.895700  -71.891700
  H    -41.984000  -46.616400  -72.114100
  S    -38.578000  -51.427200  -74.389700
  C    -38.482800  -52.956400  -73.477400
  C    -38.184300  -52.664800  -72.180900
  C    -38.189000  -51.265300  -71.829200
  C    -38.525100  -50.457000  -72.892600
  H    -37.992600  -53.426000  -71.433600
  C    -37.960900  -50.827500  -70.402000
  H    -37.553500  -51.632500  -69.836700
  H    -39.006200  -50.710300  -70.068700
  C    -37.027600  -49.560900  -70.134600
  H    -37.389600  -49.000200  -69.283500
  H    -36.946900  -48.927100  -71.093400
  C    -35.485500  -49.938400  -70.061800
  H    -34.921100  -49.067200  -70.067800
  H    -35.347800  -50.491800  -70.988900
  H    -35.246200  -50.622800  -69.217700
  H    -38.858900  -45.575800  -74.056800
  H    -38.683400  -53.963600  -73.743800

 Total Charge           Charge          ....    0
 Multiplicity           Mult            ....    1
 Number of Electrons    NEL             ....  134
 Basis Dimension        Dim             ....  322

ORBITAL ENERGIES
----------------

  NO   OCC          E(Eh)            E(eV)
   0   2.0000     -88.967119     -2420.9184
   1   2.0000     -88.959873     -2420.7212
   2   2.0000     -10.338308      -281.3197
   3   2.0000     -10.333327      -281.1841
   4   2.0000     -10.322054      -280.8774
   5   2.0000     -10.321657      -280.8666
   6   2.0000     -10.311001      -280.5766
   7   2.0000     -10.309139      -280.5259
   8   2.0000     -10.300236      -280.2837
   9   2.0000     -10.299464      -280.2627
  10   2.0000     -10.298010      -280.2231
  11   2.0000     -10.296467      -280.1811
  12   2.0000     -10.296244      -280.1750
  13   2.0000     -10.288415      -279.9620
  14   2.0000     -10.277484      -279.6646
  15   2.0000     -10.263504      -279.2842
  16   2.0000      -8.080954      -219.8939
  17   2.0000      -8.073338      -219.6867
  18   2.0000      -6.039872      -164.3533
  19   2.0000      -6.035705      -164.2399
  20   2.0000      -6.032238      -164.1455
  21   2.0000      -6.031189      -164.1170
  22   2.0000      -6.028249      -164.0370
  23   2.0000      -6.023534      -163.9087
  24   2.0000      -1.003110       -27.2960
  25   2.0000      -0.976856       -26.5816
  26   2.0000      -0.908278       -24.7155
  27   2.0000      -0.902925       -24.5698
  28   2.0000      -0.872660       -23.7463
  29   2.0000      -0.848695       -23.0942
  30   2.0000      -0.839093       -22.8329
  31   2.0000      -0.821941       -22.3662
  32   2.0000      -0.781853       -21.2753
  33   2.0000      -0.771427       -20.9916
  34   2.0000      -0.713285       -19.4095
  35   2.0000      -0.695317       -18.9205
  36   2.0000      -0.687389       -18.7048
  37   2.0000      -0.665582       -18.1114
  38   2.0000      -0.642085       -17.4720
  39   2.0000      -0.618556       -16.8318
  40   2.0000      -0.591602       -16.0983
  41   2.0000      -0.564188       -15.3523
  42   2.0000      -0.560924       -15.2635
  43   2.0000      -0.551701       -15.0126
  44   2.0000      -0.545560       -14.8454
  45   2.0000      -0.538484       -14.6529
  46   2.0000      -0.522938       -14.2299
  47   2.0000      -0.516524       -14.0553
  48   2.0000      -0.507049       -13.7975
  49   2.0000      -0.499571       -13.5940
  50   2.0000      -0.489955       -13.3324
  51   2.0000      -0.476853       -12.9758
  52   2.0000      -0.475129       -12.9289
  53   2.0000      -0.460655       -12.5351
  54   2.0000      -0.454780       -12.3752
  55   2.0000      -0.443984       -12.0814
  56   2.0000      -0.440685       -11.9917
  57   2.0000      -0.433512       -11.7965
  58   2.0000      -0.429463       -11.6863
  59   2.0000      -0.422971       -11.5096
  60   2.0000      -0.421336       -11.4651
  61   2.0000      -0.414143       -11.2694
  62   2.0000      -0.407517       -11.0891
  63   2.0000      -0.362826        -9.8730
  64   2.0000      -0.332501        -9.0478
  65   2.0000      -0.322557        -8.7772
  66   2.0000      -0.284045        -7.7292
  67   0.0000       0.011944         0.3250
  68   0.0000       0.071727         1.9518
  69   0.0000       0.088049         2.3959
  70   0.0000       0.116710         3.1758
  71   0.0000       0.128979         3.5097

MULLIKEN ATOMIC CHARGES
-----------------------
   0 S :    0.061040
   1 C :   -0.131712
   2 C :   -0.101338
   3 C :    0.020182
   4 C :   -0.114624
   5 H :   -0.012491
   6 C :    0.067618
   7 H :    0.027739
   8 H :    0.036082
   9 C :   -0.099937
  10 H :    0.027079
  11 H :    0.037211
  12 C :   -0.016943
  13 H :    0.021292
  14 H :    0.038243
  15 H :    0.024426
  16 S :    0.090227
  17 C :   -0.056390
  18 C :   -0.031279
  19 C :   -0.100247
  20 C :   -0.109603
  21 H :    0.017517
  22 C :    0.056599
  23 H :    0.010535
  24 H :    0.052688
  25 C :   -0.117408
  26 H :    0.035777
  27 H :    0.075033
  28 C :   -0.041415
  29 H :    0.033860
  30 H :    0.036699
  31 H :    0.035058
  32 H :    0.079972
  33 H :    0.048508
Sum of atomic charges:    0.0000000

LOEWDIN ATOMIC CHARGES
----------------------
   0 S :    0.330874
   1 C :   -0.193719
   2 C :   -0.059818
   3 C :   -0.061836
   4 C :   -0.148567
   5 H :    0.021717
   6 C :   -0.034625
   7 H :    0.031926
   8 H :    0.032927
   9 C :   -0.040234
  10 H :    0.024877
  11 H :    0.023877
  12 C :   -0.061027
  13 H :    0.024438
  14 H :    0.027080
  15 H :    0.019251
  16 S :    0.373478
  17 C :   -0.163673
  18 C :   -0.070383
  19 C :   -0.056903
  20 C :   -0.186036
  21 H :    0.030562
  22 C :   -0.036439
  23 H :    0.025174
  24 H :    0.038701
  25 C :   -0.042113
  26 H :    0.018560
  27 H :    0.043847
  28 C :   -0.058443
  29 H :    0.017254
  30 H :    0.029214
  31 H :    0.022323
  32 H :    0.045912
  33 H :    0.031825

  Mayer bond orders larger than 0.100000
B(  0-S ,  1-C ) :   1.1033 B(  0-S ,  4-C ) :   1.0971 B(  1-C ,  2-C ) :   1.6727
B(  1-C , 32-H ) :   0.9556 B(  2-C ,  3-C ) :   1.1564 B(  2-C ,  6-C ) :   1.0128
B(  3-C ,  4-C ) :   1.6528 B(  3-C ,  5-H ) :   0.9897 B(  4-C , 20-C ) :   1.0862
B(  6-C ,  7-H ) :   0.9506 B(  6-C ,  8-H ) :   0.9415 B(  6-C ,  9-C ) :   1.0542
B(  9-C , 10-H ) :   0.9564 B(  9-C , 11-H ) :   0.9613 B(  9-C , 12-C ) :   1.0825
B( 12-C , 13-H ) :   0.9703 B( 12-C , 14-H ) :   0.9755 B( 12-C , 15-H ) :   0.9693
B( 16-S , 17-C ) :   1.1294 B( 16-S , 20-C ) :   1.0982 B( 17-C , 18-C ) :   1.6375
B( 17-C , 33-H ) :   0.9698 B( 18-C , 19-C ) :   1.2328 B( 18-C , 21-H ) :   0.9842
B( 19-C , 20-C ) :   1.6016 B( 19-C , 22-C ) :   1.0341 B( 22-C , 23-H ) :   0.9326
B( 22-C , 24-H ) :   0.9326 B( 22-C , 25-C ) :   1.0381 B( 25-C , 26-H ) :   0.9605
B( 25-C , 27-H ) :   0.9642 B( 25-C , 28-C ) :   1.0531 B( 28-C , 29-H ) :   0.9787
B( 28-C , 30-H ) :   0.9814 B( 28-C , 31-H ) :   0.9757

Dispersion correction           -0.015265709
FINAL SINGLE POINT ENERGY     -1339.849788406487

DIPOLE MOMENT
-------------
                                X             Y             Z
Electronic contribution:      0.82206     -11.50695     -23.31931
Nuclear contribution   :     -0.78118      11.45035      24.23098
                        -----------------------------------------
Total Dipole Moment    :      0.04088      -0.05660       0.91167
                        -----------------------------------------
Magnitude (a.u.)       :      0.91434
Magnitude (Debye)      :      2.32406

Rotational constants in cm-1:     0.018974     0.009261     0.007483
Rotational constants in MHz :   568.835337   277.644589   224.329556

                             ****ORCA TERMINATED NORMALLY****
TOTAL RUN TIME: 0 days 0 hours 0 minutes 21 seconds 570 msec
