                         Program Version 4.2.1 -  RELEASE  -
|  1> ! wB97X-D3 SP def2-SVP
|  2> %pal
|  3> nprocs 24
|  4> end
|  5>
|  6> * xyz 0 1
|  7> S 	 -45.8165 	 9.36429 	 -16.8587
|  8> C 	 -46.4168 	 8.47862 	 -15.5355
|  9> C 	 -46.9153 	 9.30316 	 -14.5415
| 10> C 	 -46.8133 	 10.7378 	 -14.8309
| 11> C 	 -46.2086 	 10.9082 	 -16.0774
| 12> H 	 -47.1954 	 11.5735 	 -14.2311
| 13> C 	 -47.4569 	 8.90219 	 -13.2091
| 14> H 	 -47.0934 	 9.65339 	 -12.4513
| 15> H 	 -47.1379 	 7.90954 	 -12.8909
| 16> C 	 -48.9035 	 8.9517 	 -13.1906
| 17> H 	 -49.1543 	 9.8668 	 -13.6376
| 18> H 	 -49.4976 	 8.24808 	 -13.7417
| 19> C 	 -49.4983 	 8.79543 	 -11.7209
| 20> H 	 -48.7847 	 9.23973 	 -11.0213
| 21> H 	 -50.4009 	 9.30591 	 -11.6078
| 22> H 	 -49.6897 	 7.79804 	 -11.4117
| 23> S 	 -44.2101 	 12.4338 	 -17.1045
| 24> C 	 -44.468 	 14.079 	 -17.5471
| 25> C 	 -45.6171 	 14.5551 	 -17.014
| 26> C 	 -46.4968 	 13.5016 	 -16.4432
| 27> C 	 -45.8587 	 12.2461 	 -16.5637
| 28> H 	 -45.9125 	 15.5969 	 -16.9132
| 29> C 	 -47.8402 	 13.8389 	 -15.8445
| 30> H 	 -47.8407 	 13.2506 	 -14.8822
| 31> H 	 -48.6666 	 13.4871 	 -16.4095
| 32> C 	 -48.1766 	 15.3871 	 -15.702
| 33> H 	 -48.3095 	 16.0405 	 -16.5826
| 34> H 	 -47.365 	 15.7604 	 -15.1349
| 35> C 	 -49.4566 	 15.5513 	 -14.8382
| 36> H 	 -50.3104 	 15.0298 	 -15.3603
| 37> H 	 -49.5967 	 16.6119 	 -14.6786
| 38> H 	 -49.4452 	 14.9464 	 -13.9199
| 39> H 	 -46.2293 	 7.41614 	 -15.404
| 40> H 	 -43.7298 	 14.66 	 -18.1085
| 41> *
| 42>
| 43>                          ****END OF INPUT****

CARTESIAN COORDINATES (ANGSTROEM)
---------------------------------
  S    -45.816500    9.364290  -16.858700
  C    -46.416800    8.478620  -15.535500
  C    -46.915300    9.303160  -14.541500
  C    -46.813300   10.737800  -14.830900
  C    -46.208600   10.908200  -16.077400
  H    -47.195400   11.573500  -14.231100
  C    -47.456900    8.902190  -13.209100
  H    -47.093400    9.653390  -12.451300
  H    -47.137900    7.909540  -12.890900
  C    -48.903500    8.951700  -13.190600
  H    -49.154300    9.866800  -13.637600
  H    -49.497600    8.248080  -13.741700
  C    -49.498300    8.795430  -11.720900
  H    -48.784700    9.239730  -11.021300
  H    -50.400900    9.305910  -11.607800
  H    -49.689700    7.798040  -11.411700
  S    -44.210100   12.433800  -17.104500
  C    -44.468000   14.079000  -17.547100
  C    -45.617100   14.555100  -17.014000
  C    -46.496800   13.501600  -16.443200
  C    -45.858700   12.246100  -16.563700
  H    -45.912500   15.596900  -16.913200
  C    -47.840200   13.838900  -15.844500
  H    -47.840700   13.250600  -14.882200
  H    -48.666600   13.487100  -16.409500
  C    -48.176600   15.387100  -15.702000
  H    -48.309500   16.040500  -16.582600
  H    -47.365000   15.760400  -15.134900
  C    -49.456600   15.551300  -14.838200
  H    -50.310400   15.029800  -15.360300
  H    -49.596700   16.611900  -14.678600
  H    -49.445200   14.946400  -13.919900
  H    -46.229300    7.416140  -15.404000
  H    -43.729800   14.660000  -18.108500

 Total Charge           Charge          ....    0
 Multiplicity           Mult            ....    1
 Number of Electrons    NEL             ....  134
 Basis Dimension        Dim             ....  322

ORBITAL ENERGIES
----------------

  NO   OCC          E(Eh)            E(eV)
   0   2.0000     -88.969408     -2420.9807
   1   2.0000     -88.960050     -2420.7260
   2   2.0000     -10.332851      -281.1712
   3   2.0000     -10.326905      -281.0094
   4   2.0000     -10.313001      -280.6310
   5   2.0000     -10.312317      -280.6124
   6   2.0000     -10.308724      -280.5147
   7   2.0000     -10.302500      -280.3453
   8   2.0000     -10.301047      -280.3058
   9   2.0000     -10.300879      -280.3012
  10   2.0000     -10.294748      -280.1343
  11   2.0000     -10.293662      -280.1048
  12   2.0000     -10.287741      -279.9437
  13   2.0000     -10.286025      -279.8970
  14   2.0000     -10.275456      -279.6094
  15   2.0000     -10.271060      -279.4897
  16   2.0000      -8.084333      -219.9859
  17   2.0000      -8.075771      -219.7529
  18   2.0000      -6.042964      -164.4374
  19   2.0000      -6.038738      -164.3224
  20   2.0000      -6.035028      -164.2214
  21   2.0000      -6.034310      -164.2019
  22   2.0000      -6.030227      -164.0908
  23   2.0000      -6.026356      -163.9855
  24   2.0000      -1.005233       -27.3538
  25   2.0000      -0.984175       -26.7808
  26   2.0000      -0.922509       -25.1028
  27   2.0000      -0.907980       -24.7074
  28   2.0000      -0.872194       -23.7336
  29   2.0000      -0.850347       -23.1391
  30   2.0000      -0.844114       -22.9695
  31   2.0000      -0.812551       -22.1106
  32   2.0000      -0.780442       -21.2369
  33   2.0000      -0.769598       -20.9418
  34   2.0000      -0.712333       -19.3836
  35   2.0000      -0.703276       -19.1371
  36   2.0000      -0.694544       -18.8995
  37   2.0000      -0.656529       -17.8651
  38   2.0000      -0.640517       -17.4293
  39   2.0000      -0.622976       -16.9520
  40   2.0000      -0.602178       -16.3861
  41   2.0000      -0.572855       -15.5882
  42   2.0000      -0.568659       -15.4740
  43   2.0000      -0.558904       -15.2086
  44   2.0000      -0.538798       -14.6614
  45   2.0000      -0.523215       -14.2374
  46   2.0000      -0.519394       -14.1334
  47   2.0000      -0.512189       -13.9374
  48   2.0000      -0.502096       -13.6627
  49   2.0000      -0.498859       -13.5746
  50   2.0000      -0.492086       -13.3903
  51   2.0000      -0.479325       -13.0431
  52   2.0000      -0.477112       -12.9829
  53   2.0000      -0.466892       -12.7048
  54   2.0000      -0.459184       -12.4950
  55   2.0000      -0.454474       -12.3669
  56   2.0000      -0.449871       -12.2416
  57   2.0000      -0.442217       -12.0333
  58   2.0000      -0.436709       -11.8835
  59   2.0000      -0.424172       -11.5423
  60   2.0000      -0.418800       -11.3961
  61   2.0000      -0.413368       -11.2483
  62   2.0000      -0.405818       -11.0429
  63   2.0000      -0.351281        -9.5588
  64   2.0000      -0.326984        -8.8977
  65   2.0000      -0.323724        -8.8090
  66   2.0000      -0.289571        -7.8796
  67   0.0000       0.025825         0.7027
  68   0.0000       0.081845         2.2271
  69   0.0000       0.104446         2.8421
  70   0.0000       0.118018         3.2114
  71   0.0000       0.127459         3.4683

MULLIKEN ATOMIC CHARGES
-----------------------
   0 S :    0.126131
   1 C :   -0.117942
   2 C :   -0.092098
   3 C :   -0.003711
   4 C :   -0.138000
   5 H :    0.032053
   6 C :    0.074897
   7 H :    0.034100
   8 H :    0.013654
   9 C :   -0.055465
  10 H :   -0.000505
  11 H :    0.023417
  12 C :   -0.022689
  13 H :    0.016358
  14 H :    0.018427
  15 H :    0.028093
  16 S :    0.098496
  17 C :   -0.078330
  18 C :   -0.030053
  19 C :   -0.067325
  20 C :   -0.151160
  21 H :    0.022589
  22 C :    0.059654
  23 H :    0.027291
  24 H :    0.036124
  25 C :   -0.114759
  26 H :    0.055641
  27 H :    0.028048
  28 C :   -0.042972
  29 H :    0.029669
  30 H :    0.045022
  31 H :    0.026806
  32 H :    0.055792
  33 H :    0.062746
Sum of atomic charges:   -0.0000000

LOEWDIN ATOMIC CHARGES
----------------------
   0 S :    0.418080
   1 C :   -0.218055
   2 C :   -0.057423
   3 C :   -0.058818
   4 C :   -0.191153
   5 H :    0.034025
   6 C :   -0.036226
   7 H :    0.038194
   8 H :    0.025919
   9 C :   -0.036668
  10 H :    0.014052
  11 H :    0.024021
  12 C :   -0.056352
  13 H :    0.022007
  14 H :    0.018432
  15 H :    0.020525
  16 S :    0.411634
  17 C :   -0.194946
  18 C :   -0.073282
  19 C :   -0.056853
  20 C :   -0.200323
  21 H :    0.031044
  22 C :   -0.033203
  23 H :    0.037006
  24 H :    0.030588
  25 C :   -0.041148
  26 H :    0.032236
  27 H :    0.016331
  28 C :   -0.066570
  29 H :    0.029221
  30 H :    0.026756
  31 H :    0.024533
  32 H :    0.033055
  33 H :    0.033361

  Mayer bond orders larger than 0.100000
B(  0-S ,  1-C ) :   1.1306 B(  0-S ,  4-C ) :   1.1550 B(  1-C ,  2-C ) :   1.6278
B(  1-C , 32-H ) :   0.9641 B(  2-C ,  3-C ) :   1.2284 B(  2-C ,  6-C ) :   1.0361
B(  3-C ,  4-C ) :   1.5666 B(  3-C ,  5-H ) :   0.9785 B(  4-C , 20-C ) :   1.0565
B(  6-C ,  7-H ) :   0.9342 B(  6-C ,  8-H ) :   0.9387 B(  6-C ,  9-C ) :   1.0747
B(  9-C , 10-H ) :   0.9545 B(  9-C , 11-H ) :   0.9525 B(  9-C , 12-C ) :   1.0673
B( 12-C , 13-H ) :   0.9766 B( 12-C , 14-H ) :   0.9749 B( 12-C , 15-H ) :   0.9786
B( 16-S , 17-C ) :   1.1468 B( 16-S , 20-C ) :   1.1522 B( 17-C , 18-C ) :   1.5987
B( 17-C , 33-H ) :   0.9651 B( 18-C , 19-C ) :   1.2503 B( 18-C , 21-H ) :   0.9819
B( 19-C , 20-C ) :   1.5902 B( 19-C , 22-C ) :   1.0299 B( 22-C , 23-H ) :   0.9314
B( 22-C , 24-H ) :   0.9284 B( 22-C , 25-C ) :   1.0672 B( 25-C , 26-H ) :   0.9537
B( 25-C , 27-H ) :   0.9515 B( 25-C , 28-C ) :   1.0845 B( 28-C , 29-H ) :   0.9728
B( 28-C , 30-H ) :   0.9732 B( 28-C , 31-H ) :   0.9738

Dispersion correction           -0.013309090
FINAL SINGLE POINT ENERGY     -1339.855638081193

DIPOLE MOMENT
-------------
                                X             Y             Z
Electronic contribution:     24.23927      -7.08157     -20.73061
Nuclear contribution   :    -24.68108       7.38246      21.23093
                        -----------------------------------------
Total Dipole Moment    :     -0.44180       0.30089       0.50032
                        -----------------------------------------
Magnitude (a.u.)       :      0.73215
Magnitude (Debye)      :      1.86099

Rotational constants in cm-1:     0.015825     0.009151     0.006104
Rotational constants in MHz :   474.410677   274.345492   182.990525

                             ****ORCA TERMINATED NORMALLY****
TOTAL RUN TIME: 0 days 0 hours 0 minutes 21 seconds 284 msec
