                         Program Version 4.2.1 -  RELEASE  -
|  1> ! wB97X-D3 SP def2-SVP
|  2> %pal
|  3> nprocs 24
|  4> end
|  5>
|  6> * xyz 0 1
|  7> S 	 -145.292 	 25.3052 	 -18.1847
|  8> C 	 -145.014 	 23.6211 	 -18.5069
|  9> C 	 -143.598 	 23.3717 	 -18.5153
| 10> C 	 -142.826 	 24.5235 	 -18.212
| 11> C 	 -143.559 	 25.6848 	 -17.9327
| 12> H 	 -141.774 	 24.5557 	 -18.1373
| 13> C 	 -143.043 	 22.0314 	 -18.8446
| 14> H 	 -143.273 	 21.3457 	 -18.0086
| 15> H 	 -141.938 	 22.1539 	 -18.7681
| 16> C 	 -143.45 	 21.4649 	 -20.2204
| 17> H 	 -144.556 	 21.5764 	 -20.3823
| 18> H 	 -142.857 	 21.8505 	 -21.0915
| 19> C 	 -143.351 	 19.9463 	 -20.1967
| 20> H 	 -143.849 	 19.4165 	 -19.412
| 21> H 	 -143.85 	 19.6001 	 -21.0874
| 22> H 	 -142.285 	 19.7062 	 -20.3958
| 23> S 	 -144.349 	 27.9301 	 -16.6558
| 24> C 	 -143.192 	 29.1281 	 -16.2521
| 25> C 	 -141.882 	 28.7881 	 -16.6853
| 26> C 	 -141.806 	 27.544 	 -17.2912
| 27> C 	 -143.096 	 26.9478 	 -17.399
| 28> H 	 -141.062 	 29.3593 	 -16.4239
| 29> C 	 -140.459 	 27.0419 	 -17.6998
| 30> H 	 -140.289 	 26.0765 	 -17.2165
| 31> H 	 -139.596 	 27.5701 	 -17.2719
| 32> C 	 -140.223 	 27.1053 	 -19.1875
| 33> H 	 -140.353 	 28.1575 	 -19.567
| 34> H 	 -140.838 	 26.5194 	 -19.8109
| 35> C 	 -138.825 	 26.675 	 -19.5616
| 36> H 	 -138.728 	 25.5968 	 -19.5302
| 37> H 	 -138.095 	 27.0981 	 -18.9456
| 38> H 	 -138.697 	 26.9529 	 -20.6065
| 39> H 	 -145.814 	 22.881 	 -18.6222
| 40> H 	 -143.435 	 29.9883 	 -15.6748
| 41> *
| 42>
| 43>                          ****END OF INPUT****

CARTESIAN COORDINATES (ANGSTROEM)
---------------------------------
  S    -145.292000   25.305200  -18.184700
  C    -145.014000   23.621100  -18.506900
  C    -143.598000   23.371700  -18.515300
  C    -142.826000   24.523500  -18.212000
  C    -143.559000   25.684800  -17.932700
  H    -141.774000   24.555700  -18.137300
  C    -143.043000   22.031400  -18.844600
  H    -143.273000   21.345700  -18.008600
  H    -141.938000   22.153900  -18.768100
  C    -143.450000   21.464900  -20.220400
  H    -144.556000   21.576400  -20.382300
  H    -142.857000   21.850500  -21.091500
  C    -143.351000   19.946300  -20.196700
  H    -143.849000   19.416500  -19.412000
  H    -143.850000   19.600100  -21.087400
  H    -142.285000   19.706200  -20.395800
  S    -144.349000   27.930100  -16.655800
  C    -143.192000   29.128100  -16.252100
  C    -141.882000   28.788100  -16.685300
  C    -141.806000   27.544000  -17.291200
  C    -143.096000   26.947800  -17.399000
  H    -141.062000   29.359300  -16.423900
  C    -140.459000   27.041900  -17.699800
  H    -140.289000   26.076500  -17.216500
  H    -139.596000   27.570100  -17.271900
  C    -140.223000   27.105300  -19.187500
  H    -140.353000   28.157500  -19.567000
  H    -140.838000   26.519400  -19.810900
  C    -138.825000   26.675000  -19.561600
  H    -138.728000   25.596800  -19.530200
  H    -138.095000   27.098100  -18.945600
  H    -138.697000   26.952900  -20.606500
  H    -145.814000   22.881000  -18.622200
  H    -143.435000   29.988300  -15.674800

 Total Charge           Charge          ....    0
 Multiplicity           Mult            ....    1
 Number of Electrons    NEL             ....  134
 Basis Dimension        Dim             ....  322

ORBITAL ENERGIES
----------------

  NO   OCC          E(Eh)            E(eV)
   0   2.0000     -88.971732     -2421.0439
   1   2.0000     -88.965271     -2420.8681
   2   2.0000     -10.332711      -281.1674
   3   2.0000     -10.331901      -281.1453
   4   2.0000     -10.315901      -280.7099
   5   2.0000     -10.315448      -280.6976
   6   2.0000     -10.303936      -280.3843
   7   2.0000     -10.301211      -280.3102
   8   2.0000     -10.294171      -280.1186
   9   2.0000     -10.292516      -280.0736
  10   2.0000     -10.291897      -280.0567
  11   2.0000     -10.290066      -280.0069
  12   2.0000     -10.287910      -279.9483
  13   2.0000     -10.281121      -279.7635
  14   2.0000     -10.273317      -279.5512
  15   2.0000     -10.269721      -279.4533
  16   2.0000      -8.086669      -220.0494
  17   2.0000      -8.079208      -219.8464
  18   2.0000      -6.044965      -164.4919
  19   2.0000      -6.041065      -164.3857
  20   2.0000      -6.037808      -164.2971
  21   2.0000      -6.037739      -164.2952
  22   2.0000      -6.033678      -164.1847
  23   2.0000      -6.030090      -164.0871
  24   2.0000      -1.005214       -27.3533
  25   2.0000      -0.978929       -26.6380
  26   2.0000      -0.921139       -25.0655
  27   2.0000      -0.910384       -24.7728
  28   2.0000      -0.867799       -23.6140
  29   2.0000      -0.862466       -23.4689
  30   2.0000      -0.849479       -23.1155
  31   2.0000      -0.810831       -22.0638
  32   2.0000      -0.786156       -21.3924
  33   2.0000      -0.762657       -20.7530
  34   2.0000      -0.706216       -19.2171
  35   2.0000      -0.697694       -18.9852
  36   2.0000      -0.691547       -18.8179
  37   2.0000      -0.671856       -18.2821
  38   2.0000      -0.638386       -17.3714
  39   2.0000      -0.619633       -16.8611
  40   2.0000      -0.604257       -16.4427
  41   2.0000      -0.573658       -15.6100
  42   2.0000      -0.571207       -15.5433
  43   2.0000      -0.555668       -15.1205
  44   2.0000      -0.534752       -14.5513
  45   2.0000      -0.520955       -14.1759
  46   2.0000      -0.519889       -14.1469
  47   2.0000      -0.514480       -13.9997
  48   2.0000      -0.512331       -13.9412
  49   2.0000      -0.502101       -13.6629
  50   2.0000      -0.494075       -13.4445
  51   2.0000      -0.483278       -13.1507
  52   2.0000      -0.476425       -12.9642
  53   2.0000      -0.464054       -12.6275
  54   2.0000      -0.455619       -12.3980
  55   2.0000      -0.451326       -12.2812
  56   2.0000      -0.444977       -12.1084
  57   2.0000      -0.440079       -11.9752
  58   2.0000      -0.429876       -11.6975
  59   2.0000      -0.420922       -11.4539
  60   2.0000      -0.420224       -11.4349
  61   2.0000      -0.412527       -11.2254
  62   2.0000      -0.405423       -11.0321
  63   2.0000      -0.357218        -9.7204
  64   2.0000      -0.339877        -9.2485
  65   2.0000      -0.326525        -8.8852
  66   2.0000      -0.268602        -7.3090
  67   0.0000       0.013076         0.3558
  68   0.0000       0.080707         2.1962
  69   0.0000       0.097867         2.6631
  70   0.0000       0.121040         3.2937
  71   0.0000       0.132593         3.6080

MULLIKEN ATOMIC CHARGES
-----------------------
   0 S :    0.095981
   1 C :   -0.132696
   2 C :   -0.089169
   3 C :    0.018418
   4 C :   -0.112729
   5 H :   -0.021252
   6 C :    0.059146
   7 H :    0.041953
   8 H :    0.018766
   9 C :   -0.094548
  10 H :    0.034157
  11 H :    0.049548
  12 C :   -0.048065
  13 H :    0.036116
  14 H :    0.016395
  15 H :    0.031521
  16 S :    0.123282
  17 C :   -0.085455
  18 C :   -0.008666
  19 C :   -0.018139
  20 C :   -0.139310
  21 H :   -0.012562
  22 C :    0.048833
  23 H :    0.032141
  24 H :    0.009515
  25 C :   -0.076482
  26 H :    0.032735
  27 H :    0.022653
  28 C :   -0.009044
  29 H :    0.020778
  30 H :    0.013172
  31 H :    0.030483
  32 H :    0.063364
  33 H :    0.049157
Sum of atomic charges:    0.0000000

LOEWDIN ATOMIC CHARGES
----------------------
   0 S :    0.392569
   1 C :   -0.212434
   2 C :   -0.062222
   3 C :   -0.070923
   4 C :   -0.178507
   5 H :    0.020811
   6 C :   -0.043079
   7 H :    0.037731
   8 H :    0.032266
   9 C :   -0.040829
  10 H :    0.027057
  11 H :    0.035218
  12 C :   -0.069045
  13 H :    0.021482
  14 H :    0.022490
  15 H :    0.027237
  16 S :    0.437052
  17 C :   -0.193977
  18 C :   -0.059020
  19 C :   -0.050709
  20 C :   -0.193895
  21 H :    0.019138
  22 C :   -0.037223
  23 H :    0.031230
  24 H :    0.034111
  25 C :   -0.038729
  26 H :    0.032088
  27 H :    0.018166
  28 C :   -0.055561
  29 H :    0.022114
  30 H :    0.011966
  31 H :    0.029805
  32 H :    0.032129
  33 H :    0.021491

  Mayer bond orders larger than 0.100000
B(  0-S ,  1-C ) :   1.1506 B(  0-S ,  4-C ) :   1.1490 B(  1-C ,  2-C ) :   1.5353
B(  1-C ,  4-C ) :   0.1089 B(  1-C , 32-H ) :   0.9702 B(  2-C ,  3-C ) :   1.3020
B(  2-C ,  6-C ) :   1.0288 B(  3-C ,  4-C ) :   1.5186 B(  3-C ,  5-H ) :   0.9941
B(  4-C , 20-C ) :   1.1137 B(  6-C ,  7-H ) :   0.9408 B(  6-C ,  8-H ) :   0.9373
B(  6-C ,  9-C ) :   1.0519 B(  9-C , 10-H ) :   0.9653 B(  9-C , 11-H ) :   0.9557
B(  9-C , 12-C ) :   1.0782 B( 12-C , 13-H ) :   0.9766 B( 12-C , 14-H ) :   0.9733
B( 12-C , 15-H ) :   0.9746 B( 16-S , 17-C ) :   1.1886 B( 16-S , 20-C ) :   1.1622
B( 17-C , 18-C ) :   1.5244 B( 17-C , 20-C ) :   0.1141 B( 17-C , 33-H ) :   0.9737
B( 18-C , 19-C ) :   1.3254 B( 18-C , 21-H ) :   1.0000 B( 19-C , 20-C ) :   1.4951
B( 19-C , 22-C ) :   1.0430 B( 22-C , 23-H ) :   0.9263 B( 22-C , 24-H ) :   0.9296
B( 22-C , 25-C ) :   1.0634 B( 25-C , 26-H ) :   0.9524 B( 25-C , 27-H ) :   0.9549
B( 25-C , 28-C ) :   1.0925 B( 28-C , 29-H ) :   0.9736 B( 28-C , 30-H ) :   0.9725
B( 28-C , 31-H ) :   0.9724

Dispersion correction           -0.013592264
FINAL SINGLE POINT ENERGY     -1339.867649148540

DIPOLE MOMENT
-------------
                                X             Y             Z
Electronic contribution:    -20.93862      18.29302      13.61306
Nuclear contribution   :     21.52263     -18.54328     -13.65134
                        -----------------------------------------
Total Dipole Moment    :      0.58401      -0.25027      -0.03828
                        -----------------------------------------
Magnitude (a.u.)       :      0.63653
Magnitude (Debye)      :      1.61793

Rotational constants in cm-1:     0.019095     0.008348     0.006047
Rotational constants in MHz :   572.455240   250.281501   181.277607

                             ****ORCA TERMINATED NORMALLY****
TOTAL RUN TIME: 0 days 0 hours 0 minutes 20 seconds 177 msec
