                         Program Version 4.2.1 -  RELEASE  -
|  1> ! wB97X-D3 SP def2-SVP
|  2> %pal
|  3> nprocs 24
|  4> end
|  5>
|  6> * xyz 0 1
|  7> S 	 -123.105 	 68.0357 	 -59.6113
|  8> C 	 -124.736 	 68.3421 	 -60.0505
|  9> C 	 -125.485 	 67.2128 	 -60.1248
| 10> C 	 -124.711 	 66.0946 	 -59.739
| 11> C 	 -123.35 	 66.3701 	 -59.5039
| 12> H 	 -124.942 	 65.0722 	 -59.7337
| 13> C 	 -126.944 	 67.1623 	 -60.5428
| 14> H 	 -127.345 	 68.1532 	 -60.5391
| 15> H 	 -127.486 	 66.5997 	 -59.8048
| 16> C 	 -127.213 	 66.6165 	 -61.9196
| 17> H 	 -128.315 	 66.8282 	 -62.0934
| 18> H 	 -126.763 	 67.243 	 -62.6698
| 19> C 	 -126.924 	 65.1255 	 -61.9108
| 20> H 	 -127.397 	 64.7083 	 -61.0595
| 21> H 	 -127.304 	 64.6373 	 -62.7473
| 22> H 	 -125.885 	 64.9152 	 -61.8782
| 23> S 	 -120.64 	 66.026 	 -59.8397
| 24> C 	 -119.855 	 64.4995 	 -59.5639
| 25> C 	 -120.777 	 63.5066 	 -59.3806
| 26> C 	 -122.094 	 64.0391 	 -59.3195
| 27> C 	 -122.209 	 65.4065 	 -59.4189
| 28> H 	 -120.451 	 62.461 	 -59.1555
| 29> C 	 -123.171 	 63.0937 	 -58.9325
| 30> H 	 -123.925 	 63.709 	 -58.5254
| 31> H 	 -122.721 	 62.5507 	 -58.0948
| 32> C 	 -123.702 	 62.2325 	 -59.9981
| 33> H 	 -124.138 	 62.9586 	 -60.7123
| 34> H 	 -124.554 	 61.6437 	 -59.6981
| 35> C 	 -122.728 	 61.2551 	 -60.8052
| 36> H 	 -123.33 	 60.7591 	 -61.5605
| 37> H 	 -122.388 	 60.486 	 -60.1457
| 38> H 	 -121.94 	 61.8204 	 -61.3383
| 39> H 	 -125.081 	 69.3233 	 -60.3005
| 40> H 	 -118.834 	 64.2779 	 -59.5434
| 41> *
| 42>
| 43>                          ****END OF INPUT****

CARTESIAN COORDINATES (ANGSTROEM)
---------------------------------
  S    -123.105000   68.035700  -59.611300
  C    -124.736000   68.342100  -60.050500
  C    -125.485000   67.212800  -60.124800
  C    -124.711000   66.094600  -59.739000
  C    -123.350000   66.370100  -59.503900
  H    -124.942000   65.072200  -59.733700
  C    -126.944000   67.162300  -60.542800
  H    -127.345000   68.153200  -60.539100
  H    -127.486000   66.599700  -59.804800
  C    -127.213000   66.616500  -61.919600
  H    -128.315000   66.828200  -62.093400
  H    -126.763000   67.243000  -62.669800
  C    -126.924000   65.125500  -61.910800
  H    -127.397000   64.708300  -61.059500
  H    -127.304000   64.637300  -62.747300
  H    -125.885000   64.915200  -61.878200
  S    -120.640000   66.026000  -59.839700
  C    -119.855000   64.499500  -59.563900
  C    -120.777000   63.506600  -59.380600
  C    -122.094000   64.039100  -59.319500
  C    -122.209000   65.406500  -59.418900
  H    -120.451000   62.461000  -59.155500
  C    -123.171000   63.093700  -58.932500
  H    -123.925000   63.709000  -58.525400
  H    -122.721000   62.550700  -58.094800
  C    -123.702000   62.232500  -59.998100
  H    -124.138000   62.958600  -60.712300
  H    -124.554000   61.643700  -59.698100
  C    -122.728000   61.255100  -60.805200
  H    -123.330000   60.759100  -61.560500
  H    -122.388000   60.486000  -60.145700
  H    -121.940000   61.820400  -61.338300
  H    -125.081000   69.323300  -60.300500
  H    -118.834000   64.277900  -59.543400

 Total Charge           Charge          ....    0
 Multiplicity           Mult            ....    1
 Number of Electrons    NEL             ....  134
 Basis Dimension        Dim             ....  322

ORBITAL ENERGIES
----------------

  NO   OCC          E(Eh)            E(eV)
   0   2.0000     -88.966386     -2420.8984
   1   2.0000     -88.962799     -2420.8008
   2   2.0000     -10.331435      -281.1326
   3   2.0000     -10.330044      -281.0948
   4   2.0000     -10.311132      -280.5802
   5   2.0000     -10.307746      -280.4880
   6   2.0000     -10.298637      -280.2402
   7   2.0000     -10.295740      -280.1613
   8   2.0000     -10.292550      -280.0745
   9   2.0000     -10.289775      -279.9990
  10   2.0000     -10.286538      -279.9109
  11   2.0000     -10.286420      -279.9077
  12   2.0000     -10.285944      -279.8948
  13   2.0000     -10.280890      -279.7572
  14   2.0000     -10.279070      -279.7077
  15   2.0000     -10.265798      -279.3466
  16   2.0000      -8.082885      -219.9465
  17   2.0000      -8.078080      -219.8157
  18   2.0000      -6.041145      -164.3879
  19   2.0000      -6.037069      -164.2770
  20   2.0000      -6.036720      -164.2675
  21   2.0000      -6.033876      -164.1901
  22   2.0000      -6.032493      -164.1525
  23   2.0000      -6.028696      -164.0492
  24   2.0000      -1.017471       -27.6868
  25   2.0000      -0.995581       -27.0911
  26   2.0000      -0.923105       -25.1190
  27   2.0000      -0.916331       -24.9346
  28   2.0000      -0.873952       -23.7814
  29   2.0000      -0.850912       -23.1545
  30   2.0000      -0.842171       -22.9166
  31   2.0000      -0.821382       -22.3509
  32   2.0000      -0.791395       -21.5350
  33   2.0000      -0.781351       -21.2616
  34   2.0000      -0.709394       -19.3036
  35   2.0000      -0.705714       -19.2035
  36   2.0000      -0.692038       -18.8313
  37   2.0000      -0.669936       -18.2299
  38   2.0000      -0.646344       -17.5879
  39   2.0000      -0.620417       -16.8824
  40   2.0000      -0.591873       -16.1057
  41   2.0000      -0.581083       -15.8121
  42   2.0000      -0.562035       -15.2937
  43   2.0000      -0.555548       -15.1172
  44   2.0000      -0.545412       -14.8414
  45   2.0000      -0.543282       -14.7834
  46   2.0000      -0.516417       -14.0524
  47   2.0000      -0.515134       -14.0175
  48   2.0000      -0.506764       -13.7898
  49   2.0000      -0.503160       -13.6917
  50   2.0000      -0.493238       -13.4217
  51   2.0000      -0.486509       -13.2386
  52   2.0000      -0.475623       -12.9424
  53   2.0000      -0.471205       -12.8222
  54   2.0000      -0.468913       -12.7598
  55   2.0000      -0.450604       -12.2616
  56   2.0000      -0.449113       -12.2210
  57   2.0000      -0.443448       -12.0668
  58   2.0000      -0.431246       -11.7348
  59   2.0000      -0.425210       -11.5705
  60   2.0000      -0.414118       -11.2687
  61   2.0000      -0.412783       -11.2324
  62   2.0000      -0.407220       -11.0810
  63   2.0000      -0.362560        -9.8658
  64   2.0000      -0.335772        -9.1368
  65   2.0000      -0.327361        -8.9080
  66   2.0000      -0.285895        -7.7796
  67   0.0000       0.024333         0.6621
  68   0.0000       0.089664         2.4399
  69   0.0000       0.109436         2.9779
  70   0.0000       0.117668         3.2019
  71   0.0000       0.134415         3.6576

MULLIKEN ATOMIC CHARGES
-----------------------
   0 S :    0.113998
   1 C :   -0.118763
   2 C :   -0.063950
   3 C :    0.027544
   4 C :   -0.133739
   5 H :   -0.039627
   6 C :    0.085983
   7 H :    0.002635
   8 H :    0.025909
   9 C :   -0.075717
  10 H :    0.030259
  11 H :    0.023450
  12 C :    0.011243
  13 H :    0.011613
  14 H :    0.014982
  15 H :    0.039579
  16 S :    0.083210
  17 C :   -0.052651
  18 C :   -0.051689
  19 C :   -0.112415
  20 C :   -0.080951
  21 H :    0.038890
  22 C :    0.087232
  23 H :    0.007693
  24 H :    0.023856
  25 C :   -0.079694
  26 H :    0.022766
  27 H :    0.026665
  28 C :   -0.049050
  29 H :    0.029789
  30 H :    0.030419
  31 H :    0.054575
  32 H :    0.034386
  33 H :    0.031569
Sum of atomic charges:   -0.0000000

LOEWDIN ATOMIC CHARGES
----------------------
   0 S :    0.445911
   1 C :   -0.200532
   2 C :   -0.060583
   3 C :   -0.067002
   4 C :   -0.207674
   5 H :    0.013709
   6 C :   -0.025364
   7 H :    0.025609
   8 H :    0.028371
   9 C :   -0.035749
  10 H :    0.030000
  11 H :    0.021246
  12 C :   -0.052575
  13 H :    0.022028
  14 H :    0.018415
  15 H :    0.023816
  16 S :    0.403893
  17 C :   -0.175898
  18 C :   -0.074480
  19 C :   -0.064926
  20 C :   -0.194404
  21 H :    0.042013
  22 C :   -0.037075
  23 H :    0.024114
  24 H :    0.031398
  25 C :   -0.041080
  26 H :    0.025382
  27 H :    0.022701
  28 C :   -0.063273
  29 H :    0.027446
  30 H :    0.019638
  31 H :    0.031113
  32 H :    0.023073
  33 H :    0.020741

  Mayer bond orders larger than 0.100000
B(  0-S ,  1-C ) :   1.1540 B(  0-S ,  4-C ) :   1.1866 B(  1-C ,  2-C ) :   1.5967
B(  1-C , 32-H ) :   0.9709 B(  2-C ,  3-C ) :   1.2663 B(  2-C ,  6-C ) :   1.0181
B(  3-C ,  4-C ) :   1.5319 B(  3-C ,  5-H ) :   0.9935 B(  4-C , 20-C ) :   1.0365
B(  6-C ,  7-H ) :   0.9310 B(  6-C ,  8-H ) :   0.9407 B(  6-C ,  9-C ) :   1.0867
B(  9-C , 10-H ) :   0.9535 B(  9-C , 11-H ) :   0.9521 B(  9-C , 12-C ) :   1.0777
B( 12-C , 13-H ) :   0.9692 B( 12-C , 14-H ) :   0.9665 B( 12-C , 15-H ) :   0.9698
B( 16-S , 17-C ) :   1.1557 B( 16-S , 20-C ) :   1.1234 B( 17-C , 18-C ) :   1.6138
B( 17-C , 33-H ) :   0.9714 B( 18-C , 19-C ) :   1.2427 B( 18-C , 21-H ) :   0.9820
B( 19-C , 20-C ) :   1.6183 B( 19-C , 22-C ) :   1.0232 B( 22-C , 23-H ) :   0.9304
B( 22-C , 24-H ) :   0.9366 B( 22-C , 25-C ) :   1.0796 B( 25-C , 26-H ) :   0.9433
B( 25-C , 27-H ) :   0.9548 B( 25-C , 28-C ) :   1.0853 B( 28-C , 29-H ) :   0.9727
B( 28-C , 30-H ) :   0.9762 B( 28-C , 31-H ) :   0.9697

Dispersion correction           -0.015104461
FINAL SINGLE POINT ENERGY     -1339.872495574148

DIPOLE MOMENT
-------------
                                X             Y             Z
Electronic contribution:     19.92130      19.48269       8.39190
Nuclear contribution   :    -20.38667     -19.95869      -8.57840
                        -----------------------------------------
Total Dipole Moment    :     -0.46537      -0.47601      -0.18650
                        -----------------------------------------
Magnitude (a.u.)       :      0.69133
Magnitude (Debye)      :      1.75722

Rotational constants in cm-1:     0.018352     0.010338     0.007098
Rotational constants in MHz :   550.193634   309.911904   212.806862

                             ****ORCA TERMINATED NORMALLY****
TOTAL RUN TIME: 0 days 0 hours 0 minutes 23 seconds 61 msec
