                         Program Version 4.2.1 -  RELEASE  -
|  1> ! wB97X-D3 SP def2-SVP
|  2> %pal
|  3> nprocs 24
|  4> end
|  5>
|  6> * xyz 0 1
|  7> S 	 -87.1114 	 -44.6544 	 -85.8066
|  8> C 	 -88.6413 	 -43.7566 	 -85.9522
|  9> C 	 -89.7342 	 -44.6106 	 -85.7619
| 10> C 	 -89.2715 	 -45.7861 	 -85.0379
| 11> C 	 -87.8868 	 -45.9315 	 -84.8995
| 12> H 	 -89.9243 	 -46.6194 	 -84.7886
| 13> C 	 -91.1846 	 -44.1934 	 -85.8874
| 14> H 	 -91.2539 	 -43.76 	 -86.9235
| 15> H 	 -91.3619 	 -43.35 	 -85.1473
| 16> C 	 -92.2326 	 -45.2088 	 -85.5129
| 17> H 	 -92.0494 	 -46.2062 	 -85.9455
| 18> H 	 -92.2987 	 -45.3808 	 -84.4751
| 19> C 	 -93.5973 	 -44.8737 	 -86.0169
| 20> H 	 -93.7611 	 -44.7993 	 -87.0873
| 21> H 	 -94.3735 	 -45.5014 	 -85.6018
| 22> H 	 -93.9455 	 -43.9053 	 -85.636
| 23> S 	 -85.8362 	 -47.7143 	 -85.4804
| 24> C 	 -85.6672 	 -49.0736 	 -84.4506
| 25> C 	 -86.4427 	 -49.023 	 -83.4137
| 26> C 	 -87.3004 	 -47.8757 	 -83.3364
| 27> C 	 -87.0991 	 -47.024 	 -84.3718
| 28> H 	 -86.5092 	 -49.8109 	 -82.6927
| 29> C 	 -88.3404 	 -47.8631 	 -82.2659
| 30> H 	 -88.4033 	 -48.8515 	 -81.8585
| 31> H 	 -89.2544 	 -47.4434 	 -82.7192
| 32> C 	 -88.0173 	 -46.7854 	 -81.2146
| 33> H 	 -87.5851 	 -45.9046 	 -81.719
| 34> H 	 -87.2028 	 -47.1063 	 -80.5719
| 35> C 	 -89.089 	 -46.5516 	 -80.1676
| 36> H 	 -88.8365 	 -45.8133 	 -79.3555
| 37> H 	 -89.3343 	 -47.4329 	 -79.6414
| 38> H 	 -90.0591 	 -46.2399 	 -80.5623
| 39> H 	 -88.5936 	 -42.743 	 -86.3722
| 40> H 	 -85.0549 	 -49.8867 	 -84.7331
| 41> *
| 42>
| 43>                          ****END OF INPUT****

CARTESIAN COORDINATES (ANGSTROEM)
---------------------------------
  S    -87.111400  -44.654400  -85.806600
  C    -88.641300  -43.756600  -85.952200
  C    -89.734200  -44.610600  -85.761900
  C    -89.271500  -45.786100  -85.037900
  C    -87.886800  -45.931500  -84.899500
  H    -89.924300  -46.619400  -84.788600
  C    -91.184600  -44.193400  -85.887400
  H    -91.253900  -43.760000  -86.923500
  H    -91.361900  -43.350000  -85.147300
  C    -92.232600  -45.208800  -85.512900
  H    -92.049400  -46.206200  -85.945500
  H    -92.298700  -45.380800  -84.475100
  C    -93.597300  -44.873700  -86.016900
  H    -93.761100  -44.799300  -87.087300
  H    -94.373500  -45.501400  -85.601800
  H    -93.945500  -43.905300  -85.636000
  S    -85.836200  -47.714300  -85.480400
  C    -85.667200  -49.073600  -84.450600
  C    -86.442700  -49.023000  -83.413700
  C    -87.300400  -47.875700  -83.336400
  C    -87.099100  -47.024000  -84.371800
  H    -86.509200  -49.810900  -82.692700
  C    -88.340400  -47.863100  -82.265900
  H    -88.403300  -48.851500  -81.858500
  H    -89.254400  -47.443400  -82.719200
  C    -88.017300  -46.785400  -81.214600
  H    -87.585100  -45.904600  -81.719000
  H    -87.202800  -47.106300  -80.571900
  C    -89.089000  -46.551600  -80.167600
  H    -88.836500  -45.813300  -79.355500
  H    -89.334300  -47.432900  -79.641400
  H    -90.059100  -46.239900  -80.562300
  H    -88.593600  -42.743000  -86.372200
  H    -85.054900  -49.886700  -84.733100

 Total Charge           Charge          ....    0
 Multiplicity           Mult            ....    1
 Number of Electrons    NEL             ....  134
 Basis Dimension        Dim             ....  322

ORBITAL ENERGIES
----------------

  NO   OCC          E(Eh)            E(eV)
   0   2.0000     -88.961352     -2420.7614
   1   2.0000     -88.958505     -2420.6840
   2   2.0000     -10.330643      -281.1111
   3   2.0000     -10.326019      -280.9853
   4   2.0000     -10.318492      -280.7804
   5   2.0000     -10.309041      -280.5233
   6   2.0000     -10.304916      -280.4110
   7   2.0000     -10.302549      -280.3466
   8   2.0000     -10.297841      -280.2185
   9   2.0000     -10.297573      -280.2112
  10   2.0000     -10.291889      -280.0565
  11   2.0000     -10.285280      -279.8767
  12   2.0000     -10.282983      -279.8142
  13   2.0000     -10.281265      -279.7675
  14   2.0000     -10.275712      -279.6163
  15   2.0000     -10.275444      -279.6091
  16   2.0000      -8.076069      -219.7610
  17   2.0000      -8.073845      -219.7005
  18   2.0000      -6.034598      -164.2098
  19   2.0000      -6.032533      -164.1536
  20   2.0000      -6.030713      -164.1040
  21   2.0000      -6.028413      -164.0415
  22   2.0000      -6.026680      -163.9943
  23   2.0000      -6.024232      -163.9277
  24   2.0000      -1.009141       -27.4601
  25   2.0000      -0.983858       -26.7721
  26   2.0000      -0.919578       -25.0230
  27   2.0000      -0.914431       -24.8829
  28   2.0000      -0.875949       -23.8358
  29   2.0000      -0.854356       -23.2482
  30   2.0000      -0.843266       -22.9464
  31   2.0000      -0.815024       -22.1779
  32   2.0000      -0.785343       -21.3703
  33   2.0000      -0.774849       -21.0847
  34   2.0000      -0.716070       -19.4853
  35   2.0000      -0.701808       -19.0972
  36   2.0000      -0.689547       -18.7635
  37   2.0000      -0.664595       -18.0845
  38   2.0000      -0.640181       -17.4202
  39   2.0000      -0.618743       -16.8368
  40   2.0000      -0.603630       -16.4256
  41   2.0000      -0.576628       -15.6908
  42   2.0000      -0.569853       -15.5065
  43   2.0000      -0.563365       -15.3299
  44   2.0000      -0.533096       -14.5063
  45   2.0000      -0.522923       -14.2295
  46   2.0000      -0.515695       -14.0328
  47   2.0000      -0.510933       -13.9032
  48   2.0000      -0.500789       -13.6272
  49   2.0000      -0.497749       -13.5444
  50   2.0000      -0.493885       -13.4393
  51   2.0000      -0.488670       -13.2974
  52   2.0000      -0.476655       -12.9704
  53   2.0000      -0.467522       -12.7219
  54   2.0000      -0.456387       -12.4189
  55   2.0000      -0.451147       -12.2763
  56   2.0000      -0.445853       -12.1323
  57   2.0000      -0.440429       -11.9847
  58   2.0000      -0.432739       -11.7754
  59   2.0000      -0.424241       -11.5442
  60   2.0000      -0.415479       -11.3058
  61   2.0000      -0.413599       -11.2546
  62   2.0000      -0.409492       -11.1428
  63   2.0000      -0.355289        -9.6679
  64   2.0000      -0.330145        -8.9837
  65   2.0000      -0.324687        -8.8352
  66   2.0000      -0.285907        -7.7799
  67   0.0000       0.025271         0.6876
  68   0.0000       0.063811         1.7364
  69   0.0000       0.104385         2.8405
  70   0.0000       0.117010         3.1840
  71   0.0000       0.129995         3.5373

MULLIKEN ATOMIC CHARGES
-----------------------
   0 S :    0.088920
   1 C :   -0.142632
   2 C :   -0.062296
   3 C :   -0.017837
   4 C :   -0.132104
   5 H :    0.026560
   6 C :    0.019399
   7 H :    0.048100
   8 H :    0.056446
   9 C :   -0.060337
  10 H :    0.033330
  11 H :    0.024313
  12 C :   -0.037987
  13 H :    0.034976
  14 H :    0.023277
  15 H :    0.007586
  16 S :    0.073897
  17 C :   -0.052306
  18 C :   -0.012456
  19 C :   -0.083600
  20 C :   -0.114019
  21 H :    0.000757
  22 C :    0.124695
  23 H :    0.016917
  24 H :    0.018233
  25 C :   -0.087774
  26 H :    0.046472
  27 H :    0.016348
  28 C :   -0.029015
  29 H :    0.041318
  30 H :    0.011307
  31 H :    0.016371
  32 H :    0.061996
  33 H :    0.041143
Sum of atomic charges:   -0.0000000

LOEWDIN ATOMIC CHARGES
----------------------
   0 S :    0.388975
   1 C :   -0.185806
   2 C :   -0.060431
   3 C :   -0.073195
   4 C :   -0.191041
   5 H :    0.027920
   6 C :   -0.039565
   7 H :    0.040986
   8 H :    0.047793
   9 C :   -0.047349
  10 H :    0.027201
  11 H :    0.023511
  12 C :   -0.065193
  13 H :    0.024803
  14 H :    0.026512
  15 H :    0.021251
  16 S :    0.375913
  17 C :   -0.173243
  18 C :   -0.074730
  19 C :   -0.050631
  20 C :   -0.178898
  21 H :    0.027277
  22 C :   -0.022353
  23 H :    0.027626
  24 H :    0.034906
  25 C :   -0.043334
  26 H :    0.031597
  27 H :    0.023738
  28 C :   -0.069746
  29 H :    0.035221
  30 H :    0.018310
  31 H :    0.018070
  32 H :    0.028561
  33 H :    0.025347

  Mayer bond orders larger than 0.100000
B(  0-S ,  1-C ) :   1.1430 B(  0-S ,  4-C ) :   1.1464 B(  1-C ,  2-C ) :   1.5852
B(  1-C ,  4-C ) :   0.1091 B(  1-C , 32-H ) :   0.9739 B(  2-C ,  3-C ) :   1.2447
B(  2-C ,  6-C ) :   1.0190 B(  3-C ,  4-C ) :   1.5651 B(  3-C ,  5-H ) :   0.9760
B(  4-C , 20-C ) :   1.0449 B(  6-C ,  7-H ) :   0.9434 B(  6-C ,  8-H ) :   0.9353
B(  6-C ,  9-C ) :   1.0801 B(  9-C , 10-H ) :   0.9529 B(  9-C , 11-H ) :   0.9400
B(  9-C , 12-C ) :   1.0952 B( 12-C , 13-H ) :   0.9771 B( 12-C , 14-H ) :   0.9688
B( 12-C , 15-H ) :   0.9667 B( 16-S , 17-C ) :   1.1403 B( 16-S , 20-C ) :   1.0970
B( 17-C , 18-C ) :   1.6513 B( 17-C , 33-H ) :   0.9677 B( 18-C , 19-C ) :   1.2092
B( 18-C , 21-H ) :   0.9954 B( 19-C , 20-C ) :   1.6636 B( 19-C , 22-C ) :   1.0493
B( 22-C , 23-H ) :   0.9278 B( 22-C , 24-H ) :   0.9271 B( 22-C , 25-C ) :   1.0597
B( 25-C , 26-H ) :   0.9623 B( 25-C , 27-H ) :   0.9484 B( 25-C , 28-C ) :   1.0783
B( 28-C , 29-H ) :   0.9740 B( 28-C , 30-H ) :   0.9685 B( 28-C , 31-H ) :   0.9741

Dispersion correction           -0.013613621
FINAL SINGLE POINT ENERGY     -1339.862113239906

DIPOLE MOMENT
-------------
                                X             Y             Z
Electronic contribution:     27.02354      -2.33385     -14.08475
Nuclear contribution   :    -27.73436       2.08558      14.39498
                        -----------------------------------------
Total Dipole Moment    :     -0.71082      -0.24827       0.31023
                        -----------------------------------------
Magnitude (a.u.)       :      0.81434
Magnitude (Debye)      :      2.06988

Rotational constants in cm-1:     0.016734     0.008791     0.006881
Rotational constants in MHz :   501.666292   263.538496   206.277764

                             ****ORCA TERMINATED NORMALLY****
TOTAL RUN TIME: 0 days 0 hours 0 minutes 21 seconds 537 msec
