                         Program Version 4.2.1 -  RELEASE  -
|  1> ! wB97X-D3 SP def2-SVP
|  2> %pal
|  3> nprocs 24
|  4> end
|  5>
|  6> * xyz 0 1
|  7> S 	 -45.3144 	 27.0338 	 26.7944
|  8> C 	 -46.878 	 27.1057 	 26.057
|  9> C 	 -47.9077 	 27.1951 	 26.9841
| 10> C 	 -47.4431 	 26.9458 	 28.3111
| 11> C 	 -46.0639 	 26.9624 	 28.3717
| 12> H 	 -48.0269 	 27.1348 	 29.1495
| 13> C 	 -49.3683 	 27.6042 	 26.6699
| 14> H 	 -49.514 	 27.7154 	 25.5916
| 15> H 	 -49.4509 	 28.6072 	 27.0896
| 16> C 	 -50.4673 	 26.5768 	 27.0713
| 17> H 	 -50.1844 	 25.5415 	 26.6117
| 18> H 	 -50.377 	 26.474 	 28.1866
| 19> C 	 -51.9175 	 27.0589 	 26.8754
| 20> H 	 -52.6611 	 26.3915 	 27.2443
| 21> H 	 -52.1677 	 27.9343 	 27.4631
| 22> H 	 -52.1449 	 27.3138 	 25.8231
| 23> S 	 -43.9747 	 28.2557 	 29.6201
| 24> C 	 -43.6626 	 27.9571 	 31.2686
| 25> C 	 -44.7308 	 27.2785 	 31.8633
| 26> C 	 -45.6554 	 26.7796 	 30.9176
| 27> C 	 -45.3106 	 27.2219 	 29.6278
| 28> H 	 -44.7732 	 27.1736 	 32.9302
| 29> C 	 -46.8485 	 25.8755 	 31.4281
| 30> H 	 -47.7372 	 26.4517 	 31.1393
| 31> H 	 -46.7622 	 25.8597 	 32.5144
| 32> C 	 -46.8636 	 24.4661 	 30.7271
| 33> H 	 -45.9139 	 23.8822 	 30.9184
| 34> H 	 -47.0404 	 24.6797 	 29.656
| 35> C 	 -47.9157 	 23.4475 	 31.1891
| 36> H 	 -48.9715 	 23.7318 	 31.3671
| 37> H 	 -47.5343 	 23.1658 	 32.1387
| 38> H 	 -47.8428 	 22.6542 	 30.4509
| 39> H 	 -47.2182 	 27.3128 	 25.0902
| 40> H 	 -42.8346 	 28.453 	 31.7877
| 41> *
| 42>
| 43>                          ****END OF INPUT****

CARTESIAN COORDINATES (ANGSTROEM)
---------------------------------
  S    -45.314400   27.033800   26.794400
  C    -46.878000   27.105700   26.057000
  C    -47.907700   27.195100   26.984100
  C    -47.443100   26.945800   28.311100
  C    -46.063900   26.962400   28.371700
  H    -48.026900   27.134800   29.149500
  C    -49.368300   27.604200   26.669900
  H    -49.514000   27.715400   25.591600
  H    -49.450900   28.607200   27.089600
  C    -50.467300   26.576800   27.071300
  H    -50.184400   25.541500   26.611700
  H    -50.377000   26.474000   28.186600
  C    -51.917500   27.058900   26.875400
  H    -52.661100   26.391500   27.244300
  H    -52.167700   27.934300   27.463100
  H    -52.144900   27.313800   25.823100
  S    -43.974700   28.255700   29.620100
  C    -43.662600   27.957100   31.268600
  C    -44.730800   27.278500   31.863300
  C    -45.655400   26.779600   30.917600
  C    -45.310600   27.221900   29.627800
  H    -44.773200   27.173600   32.930200
  C    -46.848500   25.875500   31.428100
  H    -47.737200   26.451700   31.139300
  H    -46.762200   25.859700   32.514400
  C    -46.863600   24.466100   30.727100
  H    -45.913900   23.882200   30.918400
  H    -47.040400   24.679700   29.656000
  C    -47.915700   23.447500   31.189100
  H    -48.971500   23.731800   31.367100
  H    -47.534300   23.165800   32.138700
  H    -47.842800   22.654200   30.450900
  H    -47.218200   27.312800   25.090200
  H    -42.834600   28.453000   31.787700

 Total Charge           Charge          ....    0
 Multiplicity           Mult            ....    1
 Number of Electrons    NEL             ....  134
 Basis Dimension        Dim             ....  322

ORBITAL ENERGIES
----------------

  NO   OCC          E(Eh)            E(eV)
   0   2.0000     -88.972774     -2421.0723
   1   2.0000     -88.968351     -2420.9519
   2   2.0000     -10.331994      -281.1478
   3   2.0000     -10.324861      -280.9538
   4   2.0000     -10.312695      -280.6227
   5   2.0000     -10.304772      -280.4071
   6   2.0000     -10.303072      -280.3608
   7   2.0000     -10.302692      -280.3505
   8   2.0000     -10.301430      -280.3162
   9   2.0000     -10.300866      -280.3008
  10   2.0000     -10.298133      -280.2264
  11   2.0000     -10.291558      -280.0475
  12   2.0000     -10.289766      -279.9988
  13   2.0000     -10.287093      -279.9260
  14   2.0000     -10.281188      -279.7654
  15   2.0000     -10.272807      -279.5373
  16   2.0000      -8.087280      -220.0661
  17   2.0000      -8.084795      -219.9984
  18   2.0000      -6.045874      -164.5166
  19   2.0000      -6.042982      -164.4379
  20   2.0000      -6.041904      -164.4086
  21   2.0000      -6.038998      -164.3295
  22   2.0000      -6.037882      -164.2991
  23   2.0000      -6.035882      -164.2447
  24   2.0000      -1.013563       -27.5804
  25   2.0000      -0.989803       -26.9339
  26   2.0000      -0.905283       -24.6340
  27   2.0000      -0.900106       -24.4931
  28   2.0000      -0.866307       -23.5734
  29   2.0000      -0.856192       -23.2982
  30   2.0000      -0.849552       -23.1175
  31   2.0000      -0.813112       -22.1259
  32   2.0000      -0.784472       -21.3466
  33   2.0000      -0.773821       -21.0567
  34   2.0000      -0.703300       -19.1378
  35   2.0000      -0.694855       -18.9080
  36   2.0000      -0.682540       -18.5729
  37   2.0000      -0.664962       -18.0945
  38   2.0000      -0.635834       -17.3019
  39   2.0000      -0.624074       -16.9819
  40   2.0000      -0.589875       -16.0513
  41   2.0000      -0.566707       -15.4209
  42   2.0000      -0.565330       -15.3834
  43   2.0000      -0.559386       -15.2217
  44   2.0000      -0.526478       -14.3262
  45   2.0000      -0.523000       -14.2315
  46   2.0000      -0.512724       -13.9519
  47   2.0000      -0.507478       -13.8092
  48   2.0000      -0.501766       -13.6537
  49   2.0000      -0.499640       -13.5959
  50   2.0000      -0.490862       -13.3570
  51   2.0000      -0.488818       -13.3014
  52   2.0000      -0.476522       -12.9668
  53   2.0000      -0.465940       -12.6789
  54   2.0000      -0.460853       -12.5405
  55   2.0000      -0.455844       -12.4042
  56   2.0000      -0.442928       -12.0527
  57   2.0000      -0.432950       -11.7812
  58   2.0000      -0.428203       -11.6520
  59   2.0000      -0.425770       -11.5858
  60   2.0000      -0.418519       -11.3885
  61   2.0000      -0.415449       -11.3049
  62   2.0000      -0.411625       -11.2009
  63   2.0000      -0.353425        -9.6172
  64   2.0000      -0.334042        -9.0898
  65   2.0000      -0.332280        -9.0418
  66   2.0000      -0.281793        -7.6680
  67   0.0000       0.024949         0.6789
  68   0.0000       0.081545         2.2190
  69   0.0000       0.106910         2.9092
  70   0.0000       0.126148         3.4327
  71   0.0000       0.128696         3.5020

MULLIKEN ATOMIC CHARGES
-----------------------
   0 S :    0.123870
   1 C :   -0.056580
   2 C :   -0.154096
   3 C :    0.053850
   4 C :   -0.129437
   5 H :   -0.013553
   6 C :    0.060505
   7 H :    0.014456
   8 H :    0.044501
   9 C :   -0.122490
  10 H :    0.058363
  11 H :    0.031986
  12 C :   -0.029176
  13 H :    0.030378
  14 H :    0.022873
  15 H :    0.033542
  16 S :    0.129816
  17 C :   -0.117017
  18 C :   -0.038071
  19 C :   -0.059642
  20 C :   -0.148199
  21 H :    0.013213
  22 C :    0.090650
  23 H :    0.034223
  24 H :    0.017071
  25 C :   -0.125349
  26 H :    0.045872
  27 H :    0.053910
  28 C :   -0.028619
  29 H :    0.031539
  30 H :    0.017042
  31 H :    0.039661
  32 H :    0.011467
  33 H :    0.063443
Sum of atomic charges:    0.0000000

LOEWDIN ATOMIC CHARGES
----------------------
   0 S :    0.417750
   1 C :   -0.212349
   2 C :   -0.052181
   3 C :   -0.063709
   4 C :   -0.179799
   5 H :    0.018298
   6 C :   -0.033791
   7 H :    0.026155
   8 H :    0.034812
   9 C :   -0.050452
  10 H :    0.039644
  11 H :    0.024287
  12 C :   -0.070784
  13 H :    0.025826
  14 H :    0.027416
  15 H :    0.025573
  16 S :    0.456046
  17 C :   -0.211955
  18 C :   -0.069881
  19 C :   -0.059682
  20 C :   -0.220973
  21 H :    0.027856
  22 C :   -0.023788
  23 H :    0.029038
  24 H :    0.025701
  25 C :   -0.044686
  26 H :    0.035787
  27 H :    0.026694
  28 C :   -0.067642
  29 H :    0.023419
  30 H :    0.018022
  31 H :    0.030312
  32 H :    0.018685
  33 H :    0.030350

  Mayer bond orders larger than 0.100000
B(  0-S ,  1-C ) :   1.1169 B(  0-S ,  4-C ) :   1.1600 B(  1-C ,  2-C ) :   1.6445
B(  1-C , 32-H ) :   0.9604 B(  2-C ,  3-C ) :   1.2607 B(  2-C ,  6-C ) :   1.0222
B(  3-C ,  4-C ) :   1.5503 B(  3-C ,  5-H ) :   0.9852 B(  4-C , 20-C ) :   1.0470
B(  6-C ,  7-H ) :   0.9417 B(  6-C ,  8-H ) :   0.9400 B(  6-C ,  9-C ) :   1.0474
B(  9-C , 10-H ) :   0.9562 B(  9-C , 11-H ) :   0.9567 B(  9-C , 12-C ) :   1.0772
B( 12-C , 13-H ) :   0.9727 B( 12-C , 14-H ) :   0.9706 B( 12-C , 15-H ) :   0.9761
B( 16-S , 17-C ) :   1.1824 B( 16-S , 20-C ) :   1.1840 B( 17-C , 18-C ) :   1.5472
B( 17-C , 33-H ) :   0.9688 B( 18-C , 19-C ) :   1.3099 B( 18-C , 21-H ) :   0.9929
B( 19-C , 20-C ) :   1.5347 B( 19-C , 22-C ) :   1.0163 B( 22-C , 23-H ) :   0.9334
B( 22-C , 24-H ) :   0.9392 B( 22-C , 25-C ) :   1.0580 B( 25-C , 26-H ) :   0.9602
B( 25-C , 27-H ) :   0.9538 B( 25-C , 28-C ) :   1.0706 B( 28-C , 29-H ) :   0.9760
B( 28-C , 30-H ) :   0.9792 B( 28-C , 31-H ) :   0.9749

Dispersion correction           -0.014150807
FINAL SINGLE POINT ENERGY     -1339.861917486951

DIPOLE MOMENT
-------------
                                X             Y             Z
Electronic contribution:     29.12723      12.02920      -4.78898
Nuclear contribution   :    -29.73412     -11.86774       5.10647
                        -----------------------------------------
Total Dipole Moment    :     -0.60690       0.16146       0.31749
                        -----------------------------------------
Magnitude (a.u.)       :      0.70370
Magnitude (Debye)      :      1.78866

Rotational constants in cm-1:     0.017214     0.009083     0.006841
Rotational constants in MHz :   516.076080   272.312926   205.094177

                             ****ORCA TERMINATED NORMALLY****
TOTAL RUN TIME: 0 days 0 hours 0 minutes 20 seconds 721 msec
