                         Program Version 4.2.1 -  RELEASE  -
|  1> ! wB97X-D3 SP def2-SVP
|  2> %pal
|  3> nprocs 24
|  4> end
|  5>
|  6> * xyz 0 1
|  7> S 	 -28.4178 	 16.6306 	 6.25926
|  8> C 	 -30.0311 	 16.5921 	 5.55368
|  9> C 	 -30.9184 	 17.1643 	 6.42497
| 10> C 	 -30.2901 	 17.7701 	 7.59446
| 11> C 	 -28.937 	 17.6977 	 7.56528
| 12> H 	 -30.8373 	 18.3259 	 8.35681
| 13> C 	 -32.4383 	 17.4337 	 6.18001
| 14> H 	 -32.5756 	 18.4946 	 6.25435
| 15> H 	 -33.0399 	 16.9576 	 7.05244
| 16> C 	 -33.0557 	 16.8607 	 4.85716
| 17> H 	 -32.3733 	 17.0043 	 3.99253
| 18> H 	 -33.0611 	 15.7743 	 4.73314
| 19> C 	 -34.4636 	 17.3662 	 4.52954
| 20> H 	 -35.252 	 16.7305 	 5.01438
| 21> H 	 -34.5529 	 18.3917 	 4.75659
| 22> H 	 -34.7906 	 17.343 	 3.48024
| 23> S 	 -26.963 	 17.244 	 9.37006
| 24> C 	 -25.9763 	 18.704 	 9.92429
| 25> C 	 -26.6477 	 19.8791 	 9.59893
| 26> C 	 -27.9084 	 19.6041 	 8.9702
| 27> C 	 -28.0641 	 18.2711 	 8.54541
| 28> H 	 -26.2577 	 20.8405 	 9.86612
| 29> C 	 -28.7745 	 20.7146 	 8.41437
| 30> H 	 -29.1546 	 20.2737 	 7.46122
| 31> H 	 -28.1127 	 21.5669 	 8.13823
| 32> C 	 -29.92 	 21.2555 	 9.43114
| 33> H 	 -29.4835 	 21.9675 	 10.1118
| 34> H 	 -30.2472 	 20.4313 	 9.97879
| 35> C 	 -31.0257 	 21.8937 	 8.55353
| 36> H 	 -31.438 	 21.2609 	 7.75307
| 37> H 	 -30.6504 	 22.8168 	 8.24155
| 38> H 	 -31.8394 	 22.113 	 9.26196
| 39> H 	 -30.2228 	 16.0963 	 4.60185
| 40> H 	 -24.9826 	 18.6615 	 10.4098
| 41> *
| 42>
| 43>                          ****END OF INPUT****

CARTESIAN COORDINATES (ANGSTROEM)
---------------------------------
  S    -28.417800   16.630600    6.259260
  C    -30.031100   16.592100    5.553680
  C    -30.918400   17.164300    6.424970
  C    -30.290100   17.770100    7.594460
  C    -28.937000   17.697700    7.565280
  H    -30.837300   18.325900    8.356810
  C    -32.438300   17.433700    6.180010
  H    -32.575600   18.494600    6.254350
  H    -33.039900   16.957600    7.052440
  C    -33.055700   16.860700    4.857160
  H    -32.373300   17.004300    3.992530
  H    -33.061100   15.774300    4.733140
  C    -34.463600   17.366200    4.529540
  H    -35.252000   16.730500    5.014380
  H    -34.552900   18.391700    4.756590
  H    -34.790600   17.343000    3.480240
  S    -26.963000   17.244000    9.370060
  C    -25.976300   18.704000    9.924290
  C    -26.647700   19.879100    9.598930
  C    -27.908400   19.604100    8.970200
  C    -28.064100   18.271100    8.545410
  H    -26.257700   20.840500    9.866120
  C    -28.774500   20.714600    8.414370
  H    -29.154600   20.273700    7.461220
  H    -28.112700   21.566900    8.138230
  C    -29.920000   21.255500    9.431140
  H    -29.483500   21.967500   10.111800
  H    -30.247200   20.431300    9.978790
  C    -31.025700   21.893700    8.553530
  H    -31.438000   21.260900    7.753070
  H    -30.650400   22.816800    8.241550
  H    -31.839400   22.113000    9.261960
  H    -30.222800   16.096300    4.601850
  H    -24.982600   18.661500   10.409800

 Total Charge           Charge          ....    0
 Multiplicity           Mult            ....    1
 Number of Electrons    NEL             ....  134
 Basis Dimension        Dim             ....  322

ORBITAL ENERGIES
----------------

  NO   OCC          E(Eh)            E(eV)
   0   2.0000     -88.964224     -2420.8396
   1   2.0000     -88.963762     -2420.8270
   2   2.0000     -10.329080      -281.0686
   3   2.0000     -10.325794      -280.9791
   4   2.0000     -10.324033      -280.9312
   5   2.0000     -10.318749      -280.7874
   6   2.0000     -10.308457      -280.5074
   7   2.0000     -10.308028      -280.4957
   8   2.0000     -10.302288      -280.3395
   9   2.0000     -10.298223      -280.2289
  10   2.0000     -10.296593      -280.1845
  11   2.0000     -10.293834      -280.1095
  12   2.0000     -10.292197      -280.0649
  13   2.0000     -10.287219      -279.9294
  14   2.0000     -10.280779      -279.7542
  15   2.0000     -10.277428      -279.6630
  16   2.0000      -8.078862      -219.8370
  17   2.0000      -8.077764      -219.8071
  18   2.0000      -6.037540      -164.2898
  19   2.0000      -6.036370      -164.2580
  20   2.0000      -6.033499      -164.1798
  21   2.0000      -6.032431      -164.1508
  22   2.0000      -6.029291      -164.0653
  23   2.0000      -6.028402      -164.0412
  24   2.0000      -1.006738       -27.3947
  25   2.0000      -0.978601       -26.6291
  26   2.0000      -0.903596       -24.5881
  27   2.0000      -0.896965       -24.4077
  28   2.0000      -0.873060       -23.7572
  29   2.0000      -0.850303       -23.1379
  30   2.0000      -0.844976       -22.9930
  31   2.0000      -0.816538       -22.2191
  32   2.0000      -0.777167       -21.1478
  33   2.0000      -0.760191       -20.6859
  34   2.0000      -0.714922       -19.4540
  35   2.0000      -0.704652       -19.1746
  36   2.0000      -0.693607       -18.8740
  37   2.0000      -0.664198       -18.0738
  38   2.0000      -0.644093       -17.5267
  39   2.0000      -0.613296       -16.6886
  40   2.0000      -0.582197       -15.8424
  41   2.0000      -0.570687       -15.5292
  42   2.0000      -0.563447       -15.3322
  43   2.0000      -0.557547       -15.1716
  44   2.0000      -0.528580       -14.3834
  45   2.0000      -0.523366       -14.2415
  46   2.0000      -0.520819       -14.1722
  47   2.0000      -0.510645       -13.8954
  48   2.0000      -0.506515       -13.7830
  49   2.0000      -0.495994       -13.4967
  50   2.0000      -0.493949       -13.4410
  51   2.0000      -0.480180       -13.0664
  52   2.0000      -0.473456       -12.8834
  53   2.0000      -0.466673       -12.6988
  54   2.0000      -0.459137       -12.4938
  55   2.0000      -0.447215       -12.1693
  56   2.0000      -0.445426       -12.1207
  57   2.0000      -0.439541       -11.9605
  58   2.0000      -0.435118       -11.8402
  59   2.0000      -0.425064       -11.5666
  60   2.0000      -0.419357       -11.4113
  61   2.0000      -0.406951       -11.0737
  62   2.0000      -0.404355       -11.0031
  63   2.0000      -0.348793        -9.4911
  64   2.0000      -0.328917        -8.9503
  65   2.0000      -0.327152        -8.9023
  66   2.0000      -0.291092        -7.9210
  67   0.0000       0.024389         0.6636
  68   0.0000       0.069419         1.8890
  69   0.0000       0.108095         2.9414
  70   0.0000       0.116559         3.1717
  71   0.0000       0.123572         3.3626

MULLIKEN ATOMIC CHARGES
-----------------------
   0 S :    0.108414
   1 C :   -0.146178
   2 C :   -0.055317
   3 C :    0.017633
   4 C :   -0.133385
   5 H :    0.020155
   6 C :    0.040536
   7 H :    0.037874
   8 H :    0.053786
   9 C :   -0.098068
  10 H :    0.020682
  11 H :    0.026277
  12 C :   -0.042939
  13 H :    0.041441
  14 H :    0.021633
  15 H :    0.028205
  16 S :    0.095442
  17 C :   -0.119559
  18 C :   -0.005380
  19 C :   -0.013507
  20 C :   -0.163708
  21 H :    0.019240
  22 C :   -0.031686
  23 H :    0.047771
  24 H :    0.029046
  25 C :   -0.046297
  26 H :    0.031295
  27 H :    0.020745
  28 C :   -0.034441
  29 H :    0.044969
  30 H :    0.023114
  31 H :    0.029240
  32 H :    0.061239
  33 H :    0.071726
Sum of atomic charges:    0.0000000

LOEWDIN ATOMIC CHARGES
----------------------
   0 S :    0.389543
   1 C :   -0.192926
   2 C :   -0.062300
   3 C :   -0.057990
   4 C :   -0.189715
   5 H :    0.034414
   6 C :   -0.030155
   7 H :    0.027831
   8 H :    0.044980
   9 C :   -0.058500
  10 H :    0.023557
  11 H :    0.026415
  12 C :   -0.069299
  13 H :    0.032147
  14 H :    0.017934
  15 H :    0.030530
  16 S :    0.378964
  17 C :   -0.165404
  18 C :   -0.060581
  19 C :   -0.060181
  20 C :   -0.207206
  21 H :    0.031717
  22 C :   -0.039555
  23 H :    0.034424
  24 H :    0.028740
  25 C :   -0.024549
  26 H :    0.024549
  27 H :    0.009830
  28 C :   -0.059046
  29 H :    0.027556
  30 H :    0.018334
  31 H :    0.027421
  32 H :    0.032671
  33 H :    0.035848

  Mayer bond orders larger than 0.100000
B(  0-S ,  1-C ) :   1.1144 B(  0-S ,  4-C ) :   1.1273 B(  1-C ,  2-C ) :   1.6471
B(  1-C , 32-H ) :   0.9678 B(  2-C ,  3-C ) :   1.2057 B(  2-C ,  6-C ) :   1.0029
B(  3-C ,  4-C ) :   1.5874 B(  3-C ,  5-H ) :   0.9994 B(  4-C , 20-C ) :   1.0649
B(  6-C ,  7-H ) :   0.9515 B(  6-C ,  8-H ) :   0.9407 B(  6-C ,  9-C ) :   1.0576
B(  9-C , 10-H ) :   0.9513 B(  9-C , 11-H ) :   0.9560 B(  9-C , 12-C ) :   1.0803
B( 12-C , 13-H ) :   0.9765 B( 12-C , 14-H ) :   0.9774 B( 12-C , 15-H ) :   0.9731
B( 16-S , 17-C ) :   1.1197 B( 16-S , 20-C ) :   1.1450 B( 17-C , 18-C ) :   1.6252
B( 17-C , 20-C ) :   0.1011 B( 17-C , 33-H ) :   0.9653 B( 18-C , 19-C ) :   1.2323
B( 18-C , 21-H ) :   0.9905 B( 19-C , 20-C ) :   1.5612 B( 19-C , 22-C ) :   1.0543
B( 22-C , 23-H ) :   0.9491 B( 22-C , 24-H ) :   0.9445 B( 22-C , 25-C ) :   1.0261
B( 25-C , 26-H ) :   0.9550 B( 25-C , 27-H ) :   0.9660 B( 25-C , 28-C ) :   1.0796
B( 28-C , 29-H ) :   0.9785 B( 28-C , 30-H ) :   0.9749 B( 28-C , 31-H ) :   0.9744

Dispersion correction           -0.014250044
FINAL SINGLE POINT ENERGY     -1339.856942148348

DIPOLE MOMENT
-------------
                                X             Y             Z
Electronic contribution:     27.26532     -14.98390       7.02041
Nuclear contribution   :    -27.76309      15.53200      -7.11471
                        -----------------------------------------
Total Dipole Moment    :     -0.49777       0.54811      -0.09430
                        -----------------------------------------
Magnitude (a.u.)       :      0.74638
Magnitude (Debye)      :      1.89716

Rotational constants in cm-1:     0.019717     0.008289     0.006166
Rotational constants in MHz :   591.102979   248.506455   184.844712

                             ****ORCA TERMINATED NORMALLY****
TOTAL RUN TIME: 0 days 0 hours 0 minutes 20 seconds 283 msec
