                         Program Version 4.2.1 -  RELEASE  -
|  1> ! wB97X-D3 SP def2-SVP
|  2> %pal
|  3> nprocs 24
|  4> end
|  5>
|  6> * xyz 0 1
|  7> S 	 42.014 	 -29.5784 	 -120.331
|  8> C 	 41.387 	 -29.4599 	 -121.981
|  9> C 	 41.1029 	 -30.69 	 -122.543
| 10> C 	 41.5971 	 -31.7429 	 -121.726
| 11> C 	 42.1686 	 -31.2927 	 -120.521
| 12> H 	 41.6705 	 -32.82 	 -122.019
| 13> C 	 40.6341 	 -30.9623 	 -123.97
| 14> H 	 40.2935 	 -30.0317 	 -124.41
| 15> H 	 39.7315 	 -31.6009 	 -123.847
| 16> C 	 41.548 	 -31.6962 	 -124.917
| 17> H 	 41.9289 	 -32.552 	 -124.485
| 18> H 	 40.9974 	 -32.0974 	 -125.795
| 19> C 	 42.6789 	 -30.864 	 -125.404
| 20> H 	 43.3972 	 -30.5243 	 -124.63
| 21> H 	 43.1439 	 -31.4807 	 -126.191
| 22> H 	 42.3058 	 -29.9857 	 -125.949
| 23> S 	 44.348 	 -31.5424 	 -118.994
| 24> C 	 44.7521 	 -32.9583 	 -118.119
| 25> C 	 43.6742 	 -33.8261 	 -118.104
| 26> C 	 42.6806 	 -33.401 	 -119.027
| 27> C 	 42.8442 	 -32.1108 	 -119.53
| 28> H 	 43.6543 	 -34.6474 	 -117.441
| 29> C 	 41.4687 	 -34.2382 	 -119.367
| 30> H 	 41.6521 	 -35.2235 	 -119.021
| 31> H 	 41.2765 	 -34.3617 	 -120.421
| 32> C 	 40.2054 	 -33.6822 	 -118.784
| 33> H 	 39.9412 	 -32.7762 	 -119.311
| 34> H 	 40.3705 	 -33.4963 	 -117.757
| 35> C 	 39.0196 	 -34.5695 	 -118.964
| 36> H 	 38.9185 	 -35.0078 	 -119.951
| 37> H 	 38.0693 	 -34.1055 	 -118.635
| 38> H 	 39.0457 	 -35.402 	 -118.337
| 39> H 	 41.1049 	 -28.5428 	 -122.465
| 40> H 	 45.6094 	 -33.0167 	 -117.458
| 41> *
| 42>
| 43>                          ****END OF INPUT****

CARTESIAN COORDINATES (ANGSTROEM)
---------------------------------
  S     42.014000  -29.578400  -120.331000
  C     41.387000  -29.459900  -121.981000
  C     41.102900  -30.690000  -122.543000
  C     41.597100  -31.742900  -121.726000
  C     42.168600  -31.292700  -120.521000
  H     41.670500  -32.820000  -122.019000
  C     40.634100  -30.962300  -123.970000
  H     40.293500  -30.031700  -124.410000
  H     39.731500  -31.600900  -123.847000
  C     41.548000  -31.696200  -124.917000
  H     41.928900  -32.552000  -124.485000
  H     40.997400  -32.097400  -125.795000
  C     42.678900  -30.864000  -125.404000
  H     43.397200  -30.524300  -124.630000
  H     43.143900  -31.480700  -126.191000
  H     42.305800  -29.985700  -125.949000
  S     44.348000  -31.542400  -118.994000
  C     44.752100  -32.958300  -118.119000
  C     43.674200  -33.826100  -118.104000
  C     42.680600  -33.401000  -119.027000
  C     42.844200  -32.110800  -119.530000
  H     43.654300  -34.647400  -117.441000
  C     41.468700  -34.238200  -119.367000
  H     41.652100  -35.223500  -119.021000
  H     41.276500  -34.361700  -120.421000
  C     40.205400  -33.682200  -118.784000
  H     39.941200  -32.776200  -119.311000
  H     40.370500  -33.496300  -117.757000
  C     39.019600  -34.569500  -118.964000
  H     38.918500  -35.007800  -119.951000
  H     38.069300  -34.105500  -118.635000
  H     39.045700  -35.402000  -118.337000
  H     41.104900  -28.542800  -122.465000
  H     45.609400  -33.016700  -117.458000

 Total Charge           Charge          ....    0
 Multiplicity           Mult            ....    1
 Number of Electrons    NEL             ....  134
 Basis Dimension        Dim             ....  322

ORBITAL ENERGIES
----------------

  NO   OCC          E(Eh)            E(eV)
   0   2.0000     -88.971627     -2421.0411
   1   2.0000     -88.961659     -2420.7698
   2   2.0000     -10.332839      -281.1708
   3   2.0000     -10.321191      -280.8539
   4   2.0000     -10.314345      -280.6676
   5   2.0000     -10.314166      -280.6627
   6   2.0000     -10.302696      -280.3506
   7   2.0000     -10.301083      -280.3067
   8   2.0000     -10.297910      -280.2204
   9   2.0000     -10.293199      -280.0922
  10   2.0000     -10.292878      -280.0834
  11   2.0000     -10.279110      -279.7088
  12   2.0000     -10.279098      -279.7085
  13   2.0000     -10.274690      -279.5885
  14   2.0000     -10.269029      -279.4345
  15   2.0000     -10.265648      -279.3425
  16   2.0000      -8.086109      -220.0342
  17   2.0000      -8.078249      -219.8203
  18   2.0000      -6.044576      -164.4813
  19   2.0000      -6.040748      -164.3771
  20   2.0000      -6.036837      -164.2707
  21   2.0000      -6.036532      -164.2624
  22   2.0000      -6.032223      -164.1451
  23   2.0000      -6.029387      -164.0680
  24   2.0000      -1.015724       -27.6393
  25   2.0000      -0.988870       -26.9085
  26   2.0000      -0.920036       -25.0354
  27   2.0000      -0.918042       -24.9812
  28   2.0000      -0.875303       -23.8182
  29   2.0000      -0.853299       -23.2194
  30   2.0000      -0.848914       -23.1001
  31   2.0000      -0.813925       -22.1480
  32   2.0000      -0.784767       -21.3546
  33   2.0000      -0.774278       -21.0692
  34   2.0000      -0.710212       -19.3259
  35   2.0000      -0.698552       -19.0086
  36   2.0000      -0.691662       -18.8211
  37   2.0000      -0.668786       -18.1986
  38   2.0000      -0.636007       -17.3066
  39   2.0000      -0.624562       -16.9952
  40   2.0000      -0.602542       -16.3960
  41   2.0000      -0.574289       -15.6272
  42   2.0000      -0.567786       -15.4502
  43   2.0000      -0.557098       -15.1594
  44   2.0000      -0.541379       -14.7317
  45   2.0000      -0.528062       -14.3693
  46   2.0000      -0.520756       -14.1705
  47   2.0000      -0.515288       -14.0217
  48   2.0000      -0.503944       -13.7130
  49   2.0000      -0.499283       -13.5862
  50   2.0000      -0.491574       -13.3764
  51   2.0000      -0.486942       -13.2504
  52   2.0000      -0.471533       -12.8311
  53   2.0000      -0.465018       -12.6538
  54   2.0000      -0.457713       -12.4550
  55   2.0000      -0.451210       -12.2780
  56   2.0000      -0.444823       -12.1043
  57   2.0000      -0.434482       -11.8229
  58   2.0000      -0.431528       -11.7425
  59   2.0000      -0.430872       -11.7246
  60   2.0000      -0.419157       -11.4059
  61   2.0000      -0.415173       -11.2974
  62   2.0000      -0.411346       -11.1933
  63   2.0000      -0.351928        -9.5765
  64   2.0000      -0.334499        -9.1022
  65   2.0000      -0.326826        -8.8934
  66   2.0000      -0.288375        -7.8471
  67   0.0000       0.026459         0.7200
  68   0.0000       0.075710         2.0602
  69   0.0000       0.108897         2.9632
  70   0.0000       0.123174         3.3517
  71   0.0000       0.134867         3.6699

MULLIKEN ATOMIC CHARGES
-----------------------
   0 S :    0.122483
   1 C :   -0.119535
   2 C :   -0.073085
   3 C :   -0.017539
   4 C :   -0.140507
   5 H :    0.036680
   6 C :    0.071027
   7 H :    0.009242
   8 H :    0.033716
   9 C :   -0.035097
  10 H :    0.002995
  11 H :    0.026591
  12 C :   -0.060349
  13 H :    0.056149
  14 H :    0.030240
  15 H :    0.020542
  16 S :    0.106228
  17 C :   -0.094616
  18 C :   -0.019582
  19 C :   -0.063895
  20 C :   -0.125422
  21 H :    0.008449
  22 C :    0.088541
  23 H :   -0.008078
  24 H :    0.007631
  25 C :   -0.044709
  26 H :    0.035707
  27 H :    0.016129
  28 C :   -0.016085
  29 H :    0.017961
  30 H :    0.030194
  31 H :   -0.001379
  32 H :    0.038788
  33 H :    0.060586
Sum of atomic charges:   -0.0000000

LOEWDIN ATOMIC CHARGES
----------------------
   0 S :    0.409939
   1 C :   -0.193176
   2 C :   -0.061880
   3 C :   -0.069947
   4 C :   -0.196246
   5 H :    0.037224
   6 C :   -0.029802
   7 H :    0.025050
   8 H :    0.037968
   9 C :   -0.042873
  10 H :    0.012576
  11 H :    0.032475
  12 C :   -0.066441
  13 H :    0.032588
  14 H :    0.029548
  15 H :    0.022393
  16 S :    0.450249
  17 C :   -0.197940
  18 C :   -0.066074
  19 C :   -0.054831
  20 C :   -0.221067
  21 H :    0.027307
  22 C :   -0.028981
  23 H :    0.020446
  24 H :    0.024444
  25 C :   -0.035419
  26 H :    0.026819
  27 H :    0.019827
  28 C :   -0.063901
  29 H :    0.022715
  30 H :    0.031101
  31 H :    0.012784
  32 H :    0.023657
  33 H :    0.029470

  Mayer bond orders larger than 0.100000
B(  0-S ,  1-C ) :   1.1265 B(  0-S ,  4-C ) :   1.1619 B(  1-C ,  2-C ) :   1.6140
B(  1-C , 32-H ) :   0.9663 B(  2-C ,  3-C ) :   1.2340 B(  2-C ,  6-C ) :   1.0304
B(  3-C ,  4-C ) :   1.5647 B(  3-C ,  5-H ) :   0.9814 B(  4-C , 20-C ) :   1.0384
B(  6-C ,  7-H ) :   0.9431 B(  6-C ,  8-H ) :   0.9271 B(  6-C ,  9-C ) :   1.0849
B(  9-C , 10-H ) :   0.9464 B(  9-C , 11-H ) :   0.9465 B(  9-C , 12-C ) :   1.0867
B( 12-C , 13-H ) :   0.9750 B( 12-C , 14-H ) :   0.9712 B( 12-C , 15-H ) :   0.9728
B( 16-S , 17-C ) :   1.1961 B( 16-S , 20-C ) :   1.1647 B( 17-C , 18-C ) :   1.5521
B( 17-C , 20-C ) :   0.1045 B( 17-C , 33-H ) :   0.9667 B( 18-C , 19-C ) :   1.2801
B( 18-C , 21-H ) :   1.0003 B( 19-C , 20-C ) :   1.5415 B( 19-C , 22-C ) :   1.0575
B( 22-C , 23-H ) :   0.9258 B( 22-C , 24-H ) :   0.9275 B( 22-C , 25-C ) :   1.0781
B( 25-C , 26-H ) :   0.9482 B( 25-C , 27-H ) :   0.9511 B( 25-C , 28-C ) :   1.0995
B( 28-C , 29-H ) :   0.9687 B( 28-C , 30-H ) :   0.9704 B( 28-C , 31-H ) :   0.9683

Dispersion correction           -0.014531440
FINAL SINGLE POINT ENERGY     -1339.881108511579

DIPOLE MOMENT
-------------
                                X             Y             Z
Electronic contribution:     14.33089      13.16777      15.24382
Nuclear contribution   :    -14.56945     -13.62663     -15.49426
                        -----------------------------------------
Total Dipole Moment    :     -0.23856      -0.45887      -0.25044
                        -----------------------------------------
Magnitude (a.u.)       :      0.57462
Magnitude (Debye)      :      1.46057

Rotational constants in cm-1:     0.017710     0.009160     0.007609
Rotational constants in MHz :   530.933837   274.624193   228.105463

                             ****ORCA TERMINATED NORMALLY****
TOTAL RUN TIME: 0 days 0 hours 0 minutes 22 seconds 236 msec
