                         Program Version 4.2.1 -  RELEASE  -
|  1> ! wB97X-D3 SP def2-SVP
|  2> %pal
|  3> nprocs 24
|  4> end
|  5>
|  6> * xyz 0 1
|  7> S 	 29.8505 	 -30.2533 	 -131.205
|  8> C 	 29.6587 	 -28.6183 	 -131.446
|  9> C 	 28.6452 	 -28.0156 	 -130.683
| 10> C 	 28.2725 	 -28.9121 	 -129.582
| 11> C 	 28.8883 	 -30.1851 	 -129.761
| 12> H 	 27.5454 	 -28.7923 	 -128.766
| 13> C 	 28.06 	 -26.6446 	 -130.979
| 14> H 	 28.7957 	 -25.9707 	 -131.307
| 15> H 	 27.5979 	 -26.2601 	 -130.064
| 16> C 	 27.0014 	 -26.5931 	 -132.14
| 17> H 	 27.5519 	 -26.8906 	 -133.02
| 18> H 	 26.1835 	 -27.2646 	 -131.877
| 19> C 	 26.4112 	 -25.2161 	 -132.447
| 20> H 	 27.109 	 -24.6125 	 -132.971
| 21> H 	 25.5983 	 -25.3856 	 -133.143
| 22> H 	 26.0425 	 -24.7343 	 -131.578
| 23> S 	 27.8209 	 -32.736 	 -129.889
| 24> C 	 27.4536 	 -33.6248 	 -128.448
| 25> C 	 27.9023 	 -32.9737 	 -127.343
| 26> C 	 28.6246 	 -31.792 	 -127.651
| 27> C 	 28.5981 	 -31.434 	 -129.056
| 28> H 	 27.8688 	 -33.2959 	 -126.323
| 29> C 	 29.1514 	 -30.862 	 -126.646
| 30> H 	 29.8591 	 -30.1413 	 -127.152
| 31> H 	 29.9231 	 -31.3532 	 -126.031
| 32> C 	 28.1698 	 -29.9348 	 -125.882
| 33> H 	 27.3251 	 -30.5396 	 -125.66
| 34> H 	 27.8636 	 -29.2418 	 -126.612
| 35> C 	 28.7271 	 -29.0549 	 -124.669
| 36> H 	 27.9431 	 -28.7354 	 -123.994
| 37> H 	 29.2409 	 -28.1849 	 -125.086
| 38> H 	 29.4448 	 -29.6745 	 -124.08
| 39> H 	 29.8959 	 -28.1588 	 -132.41
| 40> H 	 26.9328 	 -34.5748 	 -128.322
| 41> *
| 42>
| 43>                          ****END OF INPUT****

CARTESIAN COORDINATES (ANGSTROEM)
---------------------------------
  S     29.850500  -30.253300  -131.205000
  C     29.658700  -28.618300  -131.446000
  C     28.645200  -28.015600  -130.683000
  C     28.272500  -28.912100  -129.582000
  C     28.888300  -30.185100  -129.761000
  H     27.545400  -28.792300  -128.766000
  C     28.060000  -26.644600  -130.979000
  H     28.795700  -25.970700  -131.307000
  H     27.597900  -26.260100  -130.064000
  C     27.001400  -26.593100  -132.140000
  H     27.551900  -26.890600  -133.020000
  H     26.183500  -27.264600  -131.877000
  C     26.411200  -25.216100  -132.447000
  H     27.109000  -24.612500  -132.971000
  H     25.598300  -25.385600  -133.143000
  H     26.042500  -24.734300  -131.578000
  S     27.820900  -32.736000  -129.889000
  C     27.453600  -33.624800  -128.448000
  C     27.902300  -32.973700  -127.343000
  C     28.624600  -31.792000  -127.651000
  C     28.598100  -31.434000  -129.056000
  H     27.868800  -33.295900  -126.323000
  C     29.151400  -30.862000  -126.646000
  H     29.859100  -30.141300  -127.152000
  H     29.923100  -31.353200  -126.031000
  C     28.169800  -29.934800  -125.882000
  H     27.325100  -30.539600  -125.660000
  H     27.863600  -29.241800  -126.612000
  C     28.727100  -29.054900  -124.669000
  H     27.943100  -28.735400  -123.994000
  H     29.240900  -28.184900  -125.086000
  H     29.444800  -29.674500  -124.080000
  H     29.895900  -28.158800  -132.410000
  H     26.932800  -34.574800  -128.322000

 Total Charge           Charge          ....    0
 Multiplicity           Mult            ....    1
 Number of Electrons    NEL             ....  134
 Basis Dimension        Dim             ....  322

ORBITAL ENERGIES
----------------

  NO   OCC          E(Eh)            E(eV)
   0   2.0000     -88.969569     -2420.9851
   1   2.0000     -88.966858     -2420.9113
   2   2.0000     -10.333563      -281.1905
   3   2.0000     -10.327919      -281.0370
   4   2.0000     -10.315363      -280.6953
   5   2.0000     -10.310547      -280.5642
   6   2.0000     -10.308924      -280.5201
   7   2.0000     -10.308684      -280.5135
   8   2.0000     -10.300306      -280.2856
   9   2.0000     -10.291351      -280.0419
  10   2.0000     -10.288337      -279.9599
  11   2.0000     -10.286911      -279.9211
  12   2.0000     -10.285548      -279.8840
  13   2.0000     -10.285436      -279.8809
  14   2.0000     -10.282661      -279.8054
  15   2.0000     -10.273325      -279.5514
  16   2.0000      -8.086118      -220.0345
  17   2.0000      -8.081894      -219.9195
  18   2.0000      -6.044251      -164.4724
  19   2.0000      -6.040435      -164.3686
  20   2.0000      -6.040361      -164.3666
  21   2.0000      -6.037089      -164.2776
  22   2.0000      -6.036129      -164.2514
  23   2.0000      -6.032897      -164.1635
  24   2.0000      -1.009973       -27.4828
  25   2.0000      -0.988842       -26.9078
  26   2.0000      -0.910918       -24.7874
  27   2.0000      -0.903094       -24.5744
  28   2.0000      -0.871724       -23.7208
  29   2.0000      -0.854605       -23.2550
  30   2.0000      -0.844831       -22.9890
  31   2.0000      -0.816764       -22.2253
  32   2.0000      -0.784045       -21.3350
  33   2.0000      -0.765301       -20.8249
  34   2.0000      -0.706359       -19.2210
  35   2.0000      -0.698909       -19.0183
  36   2.0000      -0.694249       -18.8915
  37   2.0000      -0.660833       -17.9822
  38   2.0000      -0.642366       -17.4797
  39   2.0000      -0.616673       -16.7805
  40   2.0000      -0.596476       -16.2309
  41   2.0000      -0.577030       -15.7018
  42   2.0000      -0.566920       -15.4267
  43   2.0000      -0.555553       -15.1174
  44   2.0000      -0.522643       -14.2218
  45   2.0000      -0.518902       -14.1200
  46   2.0000      -0.513457       -13.9719
  47   2.0000      -0.511290       -13.9129
  48   2.0000      -0.508158       -13.8277
  49   2.0000      -0.506063       -13.7707
  50   2.0000      -0.492398       -13.3988
  51   2.0000      -0.475474       -12.9383
  52   2.0000      -0.472559       -12.8590
  53   2.0000      -0.469232       -12.7685
  54   2.0000      -0.460126       -12.5207
  55   2.0000      -0.455574       -12.3968
  56   2.0000      -0.449320       -12.2266
  57   2.0000      -0.438811       -11.9407
  58   2.0000      -0.431329       -11.7371
  59   2.0000      -0.427297       -11.6273
  60   2.0000      -0.424257       -11.5446
  61   2.0000      -0.421553       -11.4710
  62   2.0000      -0.399815       -10.8795
  63   2.0000      -0.348407        -9.4806
  64   2.0000      -0.330641        -8.9972
  65   2.0000      -0.323806        -8.8112
  66   2.0000      -0.291558        -7.9337
  67   0.0000       0.029643         0.8066
  68   0.0000       0.063348         1.7238
  69   0.0000       0.106850         2.9075
  70   0.0000       0.123308         3.3554
  71   0.0000       0.131360         3.5745

MULLIKEN ATOMIC CHARGES
-----------------------
   0 S :    0.138416
   1 C :   -0.085955
   2 C :   -0.127461
   3 C :    0.042146
   4 C :   -0.186914
   5 H :    0.034086
   6 C :    0.080735
   7 H :    0.013776
   8 H :    0.018995
   9 C :   -0.100421
  10 H :    0.022276
  11 H :    0.035217
  12 C :   -0.007924
  13 H :    0.021806
  14 H :    0.032599
  15 H :    0.025965
  16 S :    0.118730
  17 C :   -0.084319
  18 C :   -0.011875
  19 C :   -0.058301
  20 C :   -0.152107
  21 H :    0.012051
  22 C :    0.005425
  23 H :    0.023536
  24 H :    0.023492
  25 C :   -0.030588
  26 H :    0.016783
  27 H :    0.002218
  28 C :   -0.057784
  29 H :    0.041970
  30 H :    0.042776
  31 H :    0.037030
  32 H :    0.052759
  33 H :    0.060861
Sum of atomic charges:   -0.0000000

LOEWDIN ATOMIC CHARGES
----------------------
   0 S :    0.459563
   1 C :   -0.233229
   2 C :   -0.055461
   3 C :   -0.054237
   4 C :   -0.206081
   5 H :    0.034895
   6 C :   -0.031434
   7 H :    0.024198
   8 H :    0.028229
   9 C :   -0.032927
  10 H :    0.020391
  11 H :    0.023500
  12 C :   -0.056918
  13 H :    0.019981
  14 H :    0.031293
  15 H :    0.019668
  16 S :    0.429802
  17 C :   -0.197182
  18 C :   -0.071594
  19 C :   -0.059847
  20 C :   -0.217774
  21 H :    0.030830
  22 C :   -0.052835
  23 H :    0.035710
  24 H :    0.029260
  25 C :   -0.033102
  26 H :    0.014984
  27 H :    0.014519
  28 C :   -0.062463
  29 H :    0.027700
  30 H :    0.028384
  31 H :    0.027709
  32 H :    0.026856
  33 H :    0.037613

  Mayer bond orders larger than 0.100000
B(  0-S ,  1-C ) :   1.1767 B(  0-S ,  4-C ) :   1.1834 B(  1-C ,  2-C ) :   1.5884
B(  1-C , 32-H ) :   0.9561 B(  2-C ,  3-C ) :   1.2548 B(  2-C ,  6-C ) :   1.0400
B(  3-C ,  4-C ) :   1.5366 B(  3-C ,  5-H ) :   0.9826 B(  4-C , 20-C ) :   1.0339
B(  6-C ,  7-H ) :   0.9395 B(  6-C ,  8-H ) :   0.9403 B(  6-C ,  9-C ) :   1.0597
B(  9-C , 10-H ) :   0.9572 B(  9-C , 11-H ) :   0.9605 B(  9-C , 12-C ) :   1.0907
B( 12-C , 13-H ) :   0.9736 B( 12-C , 14-H ) :   0.9722 B( 12-C , 15-H ) :   0.9745
B( 16-S , 17-C ) :   1.1685 B( 16-S , 20-C ) :   1.1606 B( 17-C , 18-C ) :   1.5621
B( 17-C , 20-C ) :   0.1014 B( 17-C , 33-H ) :   0.9646 B( 18-C , 19-C ) :   1.3014
B( 18-C , 21-H ) :   0.9903 B( 19-C , 20-C ) :   1.5222 B( 19-C , 22-C ) :   1.0832
B( 22-C , 23-H ) :   0.9312 B( 22-C , 24-H ) :   0.9274 B( 22-C , 25-C ) :   1.0389
B( 25-C , 26-H ) :   0.9645 B( 25-C , 27-H ) :   0.9525 B( 25-C , 28-C ) :   1.0642
B( 28-C , 29-H ) :   0.9766 B( 28-C , 30-H ) :   0.9794 B( 28-C , 31-H ) :   0.9810

Dispersion correction           -0.013949358
FINAL SINGLE POINT ENERGY     -1339.864568895433

DIPOLE MOMENT
-------------
                                X             Y             Z
Electronic contribution:      7.27480     -23.92661     -10.33873
Nuclear contribution   :     -7.63950      24.36782      10.48457
                        -----------------------------------------
Total Dipole Moment    :     -0.36471       0.44122       0.14584
                        -----------------------------------------
Magnitude (a.u.)       :      0.59072
Magnitude (Debye)      :      1.50150

Rotational constants in cm-1:     0.017825     0.007962     0.006435
Rotational constants in MHz :   534.373464   238.696391   192.926668

                             ****ORCA TERMINATED NORMALLY****
TOTAL RUN TIME: 0 days 0 hours 0 minutes 21 seconds 177 msec
