                         Program Version 4.2.1 -  RELEASE  -
|  1> ! wB97X-D3 SP def2-SVP
|  2> %pal
|  3> nprocs 24
|  4> end
|  5>
|  6> * xyz 0 1
|  7> S 	 -37.3562 	 3.46169 	 -2.60985
|  8> C 	 -39.0495 	 3.02233 	 -2.63675
|  9> C 	 -39.772 	 3.78107 	 -1.74031
| 10> C 	 -38.9647 	 4.68788 	 -1.00014
| 11> C 	 -37.6697 	 4.71364 	 -1.42971
| 12> H 	 -39.3119 	 5.3126 	 -0.204821
| 13> C 	 -41.2161 	 3.6492 	 -1.3924
| 14> H 	 -41.7867 	 3.04276 	 -2.02467
| 15> H 	 -41.622 	 4.64613 	 -1.41436
| 16> C 	 -41.3864 	 3.05948 	 -0.00795247
| 17> H 	 -40.9664 	 3.615 	 0.779012
| 18> H 	 -42.4473 	 2.98701 	 0.300114
| 19> C 	 -40.9127 	 1.63106 	 0.0569721
| 20> H 	 -41.2468 	 1.17815 	 1.03157
| 21> H 	 -41.4153 	 0.994942 	 -0.704437
| 22> H 	 -39.8894 	 1.50016 	 -0.169039
| 23> S 	 -35.1405 	 4.50626 	 -0.543593
| 24> C 	 -34.2145 	 5.93589 	 -0.0918371
| 25> C 	 -34.8402 	 7.10173 	 -0.462055
| 26> C 	 -36.2352 	 6.87086 	 -0.901706
| 27> C 	 -36.4959 	 5.49702 	 -0.974175
| 28> H 	 -34.2599 	 8.02525 	 -0.33459
| 29> C 	 -37.1652 	 8.01127 	 -1.23879
| 30> H 	 -38.2156 	 7.70162 	 -0.957796
| 31> H 	 -37.0183 	 8.00277 	 -2.28446
| 32> C 	 -36.8521 	 9.44948 	 -0.715791
| 33> H 	 -37.5229 	 10.1641 	 -1.22874
| 34> H 	 -35.8459 	 9.73148 	 -0.862906
| 35> C 	 -37.0406 	 9.58123 	 0.805709
| 36> H 	 -36.1768 	 9.15819 	 1.34506
| 37> H 	 -37.9675 	 9.01253 	 1.06826
| 38> H 	 -37.1188 	 10.6604 	 0.971616
| 39> H 	 -39.2969 	 2.251 	 -3.38895
| 40> H 	 -33.1472 	 5.83438 	 0.162554
| 41> *
| 42>
| 43>                          ****END OF INPUT****

CARTESIAN COORDINATES (ANGSTROEM)
---------------------------------
  S    -37.356200    3.461690   -2.609850
  C    -39.049500    3.022330   -2.636750
  C    -39.772000    3.781070   -1.740310
  C    -38.964700    4.687880   -1.000140
  C    -37.669700    4.713640   -1.429710
  H    -39.311900    5.312600   -0.204821
  C    -41.216100    3.649200   -1.392400
  H    -41.786700    3.042760   -2.024670
  H    -41.622000    4.646130   -1.414360
  C    -41.386400    3.059480   -0.007952
  H    -40.966400    3.615000    0.779012
  H    -42.447300    2.987010    0.300114
  C    -40.912700    1.631060    0.056972
  H    -41.246800    1.178150    1.031570
  H    -41.415300    0.994942   -0.704437
  H    -39.889400    1.500160   -0.169039
  S    -35.140500    4.506260   -0.543593
  C    -34.214500    5.935890   -0.091837
  C    -34.840200    7.101730   -0.462055
  C    -36.235200    6.870860   -0.901706
  C    -36.495900    5.497020   -0.974175
  H    -34.259900    8.025250   -0.334590
  C    -37.165200    8.011270   -1.238790
  H    -38.215600    7.701620   -0.957796
  H    -37.018300    8.002770   -2.284460
  C    -36.852100    9.449480   -0.715791
  H    -37.522900   10.164100   -1.228740
  H    -35.845900    9.731480   -0.862906
  C    -37.040600    9.581230    0.805709
  H    -36.176800    9.158190    1.345060
  H    -37.967500    9.012530    1.068260
  H    -37.118800   10.660400    0.971616
  H    -39.296900    2.251000   -3.388950
  H    -33.147200    5.834380    0.162554

 Total Charge           Charge          ....    0
 Multiplicity           Mult            ....    1
 Number of Electrons    NEL             ....  134
 Basis Dimension        Dim             ....  322

ORBITAL ENERGIES
----------------

  NO   OCC          E(Eh)            E(eV)
   0   2.0000     -88.962074     -2420.7811
   1   2.0000     -88.960781     -2420.7459
   2   2.0000     -10.328960      -281.0653
   3   2.0000     -10.325836      -280.9803
   4   2.0000     -10.317047      -280.7411
   5   2.0000     -10.315461      -280.6980
   6   2.0000     -10.312595      -280.6200
   7   2.0000     -10.300747      -280.2976
   8   2.0000     -10.300527      -280.2916
   9   2.0000     -10.294666      -280.1321
  10   2.0000     -10.290804      -280.0270
  11   2.0000     -10.288602      -279.9671
  12   2.0000     -10.282978      -279.8141
  13   2.0000     -10.280719      -279.7526
  14   2.0000     -10.278561      -279.6939
  15   2.0000     -10.271261      -279.4952
  16   2.0000      -8.077193      -219.7916
  17   2.0000      -8.076226      -219.7653
  18   2.0000      -6.035763      -164.2415
  19   2.0000      -6.034633      -164.2107
  20   2.0000      -6.031705      -164.1310
  21   2.0000      -6.030668      -164.1028
  22   2.0000      -6.027798      -164.0247
  23   2.0000      -6.027008      -164.0032
  24   2.0000      -1.007471       -27.4147
  25   2.0000      -0.982916       -26.7465
  26   2.0000      -0.920848       -25.0576
  27   2.0000      -0.908564       -24.7233
  28   2.0000      -0.866259       -23.5721
  29   2.0000      -0.851603       -23.1733
  30   2.0000      -0.844703       -22.9855
  31   2.0000      -0.816713       -22.2239
  32   2.0000      -0.783077       -21.3086
  33   2.0000      -0.770577       -20.9685
  34   2.0000      -0.706455       -19.2236
  35   2.0000      -0.695815       -18.9341
  36   2.0000      -0.687042       -18.6954
  37   2.0000      -0.656154       -17.8549
  38   2.0000      -0.644426       -17.5357
  39   2.0000      -0.630462       -17.1557
  40   2.0000      -0.596525       -16.2323
  41   2.0000      -0.565343       -15.3838
  42   2.0000      -0.556938       -15.1551
  43   2.0000      -0.555918       -15.1273
  44   2.0000      -0.543628       -14.7929
  45   2.0000      -0.540959       -14.7202
  46   2.0000      -0.521420       -14.1885
  47   2.0000      -0.509924       -13.8757
  48   2.0000      -0.505453       -13.7541
  49   2.0000      -0.497074       -13.5261
  50   2.0000      -0.488053       -13.2806
  51   2.0000      -0.475898       -12.9498
  52   2.0000      -0.470533       -12.8039
  53   2.0000      -0.459590       -12.5061
  54   2.0000      -0.457605       -12.4521
  55   2.0000      -0.448388       -12.2013
  56   2.0000      -0.444136       -12.0856
  57   2.0000      -0.435395       -11.8477
  58   2.0000      -0.429077       -11.6758
  59   2.0000      -0.428177       -11.6513
  60   2.0000      -0.423907       -11.5351
  61   2.0000      -0.418976       -11.4009
  62   2.0000      -0.410193       -11.1619
  63   2.0000      -0.347426        -9.4539
  64   2.0000      -0.329734        -8.9725
  65   2.0000      -0.324319        -8.8252
  66   2.0000      -0.293218        -7.9789
  67   0.0000       0.036895         1.0040
  68   0.0000       0.067774         1.8442
  69   0.0000       0.110229         2.9995
  70   0.0000       0.121492         3.3060
  71   0.0000       0.134481         3.6594

MULLIKEN ATOMIC CHARGES
-----------------------
   0 S :    0.088811
   1 C :   -0.159448
   2 C :   -0.074689
   3 C :    0.030206
   4 C :   -0.143010
   5 H :    0.008493
   6 C :    0.140388
   7 H :    0.000621
   8 H :    0.023320
   9 C :   -0.073116
  10 H :    0.017468
  11 H :    0.024586
  12 C :   -0.063367
  13 H :    0.037827
  14 H :    0.013930
  15 H :    0.040049
  16 S :    0.097532
  17 C :   -0.104522
  18 C :   -0.054464
  19 C :   -0.044812
  20 C :   -0.160058
  21 H :    0.033898
  22 C :    0.067975
  23 H :    0.039424
  24 H :    0.041130
  25 C :   -0.069608
  26 H :    0.039081
  27 H :    0.017632
  28 C :   -0.066594
  29 H :    0.044499
  30 H :    0.033903
  31 H :    0.039650
  32 H :    0.066330
  33 H :    0.066935
Sum of atomic charges:    0.0000000

LOEWDIN ATOMIC CHARGES
----------------------
   0 S :    0.396496
   1 C :   -0.201336
   2 C :   -0.059814
   3 C :   -0.063212
   4 C :   -0.183889
   5 H :    0.030058
   6 C :   -0.022327
   7 H :    0.021880
   8 H :    0.031863
   9 C :   -0.039881
  10 H :    0.014382
  11 H :    0.027949
  12 C :   -0.065268
  13 H :    0.031954
  14 H :    0.023446
  15 H :    0.018168
  16 S :    0.401227
  17 C :   -0.186670
  18 C :   -0.076819
  19 C :   -0.049205
  20 C :   -0.211430
  21 H :    0.036444
  22 C :   -0.035706
  23 H :    0.037265
  24 H :    0.036952
  25 C :   -0.038106
  26 H :    0.030413
  27 H :    0.015674
  28 C :   -0.065998
  29 H :    0.026695
  30 H :    0.026807
  31 H :    0.027781
  32 H :    0.032388
  33 H :    0.031819

  Mayer bond orders larger than 0.100000
B(  0-S ,  1-C ) :   1.1328 B(  0-S ,  4-C ) :   1.1619 B(  1-C ,  2-C ) :   1.5939
B(  1-C , 32-H ) :   0.9743 B(  2-C ,  3-C ) :   1.2142 B(  2-C ,  6-C ) :   1.0388
B(  3-C ,  4-C ) :   1.6015 B(  3-C ,  5-H ) :   1.0005 B(  4-C , 20-C ) :   1.0015
B(  6-C ,  7-H ) :   0.9415 B(  6-C ,  8-H ) :   0.9270 B(  6-C ,  9-C ) :   1.0770
B(  9-C , 10-H ) :   0.9543 B(  9-C , 11-H ) :   0.9535 B(  9-C , 12-C ) :   1.0746
B( 12-C , 13-H ) :   0.9729 B( 12-C , 14-H ) :   0.9710 B( 12-C , 15-H ) :   0.9758
B( 16-S , 17-C ) :   1.1416 B( 16-S , 20-C ) :   1.1460 B( 17-C , 18-C ) :   1.6506
B( 17-C , 33-H ) :   0.9604 B( 18-C , 19-C ) :   1.1927 B( 18-C , 21-H ) :   0.9817
B( 19-C , 20-C ) :   1.6260 B( 19-C , 22-C ) :   1.0130 B( 22-C , 23-H ) :   0.9406
B( 22-C , 24-H ) :   0.9223 B( 22-C , 25-C ) :   1.0909 B( 25-C , 26-H ) :   0.9567
B( 25-C , 27-H ) :   0.9479 B( 25-C , 28-C ) :   1.0712 B( 28-C , 29-H ) :   0.9761
B( 28-C , 30-H ) :   0.9775 B( 28-C , 31-H ) :   0.9763

Dispersion correction           -0.014322275
FINAL SINGLE POINT ENERGY     -1339.878813567656

DIPOLE MOMENT
-------------
                                X             Y             Z
Electronic contribution:     17.28641     -10.35298      -9.40651
Nuclear contribution   :    -17.59632      10.82109       9.46234
                        -----------------------------------------
Total Dipole Moment    :     -0.30991       0.46811       0.05582
                        -----------------------------------------
Magnitude (a.u.)       :      0.56417
Magnitude (Debye)      :      1.43401

Rotational constants in cm-1:     0.020694     0.008123     0.006755
Rotational constants in MHz :   620.389464   243.511526   202.514519

                             ****ORCA TERMINATED NORMALLY****
TOTAL RUN TIME: 0 days 0 hours 0 minutes 21 seconds 629 msec
