                         Program Version 4.2.1 -  RELEASE  -
|  1> ! wB97X-D3 SP def2-SVP
|  2> %pal
|  3> nprocs 24
|  4> end
|  5>
|  6> * xyz 0 1
|  7> S 	 -61.7345 	 9.22148 	 -17.3539
|  8> C 	 -63.4 	 9.64194 	 -16.9288
|  9> C 	 -64.3024 	 8.62364 	 -17.1077
| 10> C 	 -63.6494 	 7.54389 	 -17.823
| 11> C 	 -62.2498 	 7.59132 	 -17.8799
| 12> H 	 -64.1273 	 6.66198 	 -18.2065
| 13> C 	 -65.8226 	 8.72251 	 -16.949
| 14> H 	 -66.1949 	 9.54632 	 -17.6129
| 15> H 	 -66.0423 	 9.11526 	 -15.9306
| 16> C 	 -66.6967 	 7.51328 	 -17.1423
| 17> H 	 -66.662 	 7.00608 	 -18.1196
| 18> H 	 -66.4027 	 6.69171 	 -16.3929
| 19> C 	 -68.2267 	 7.7445 	 -16.8684
| 20> H 	 -68.8654 	 7.07218 	 -17.4882
| 21> H 	 -68.3746 	 7.61687 	 -15.7823
| 22> H 	 -68.5417 	 8.71869 	 -17.1185
| 23> S 	 -60.4675 	 7.19055 	 -20.0188
| 24> C 	 -59.3562 	 5.84878 	 -19.8571
| 25> C 	 -59.7482 	 4.93531 	 -18.8875
| 26> C 	 -60.804 	 5.47441 	 -18.0911
| 27> C 	 -61.2831 	 6.67123 	 -18.5373
| 28> H 	 -59.224 	 3.99554 	 -18.8243
| 29> C 	 -61.2369 	 4.71753 	 -16.7835
| 30> H 	 -61.8374 	 5.36691 	 -16.0935
| 31> H 	 -60.3831 	 4.47125 	 -16.1602
| 32> C 	 -62.105 	 3.43325 	 -17.0265
| 33> H 	 -62.1226 	 2.88694 	 -16.096
| 34> H 	 -61.4407 	 2.89497 	 -17.7006
| 35> C 	 -63.4874 	 3.68867 	 -17.6403
| 36> H 	 -64.1553 	 2.85019 	 -17.5346
| 37> H 	 -63.2693 	 3.80467 	 -18.7115
| 38> H 	 -63.9652 	 4.57135 	 -17.3452
| 39> H 	 -63.6409 	 10.5634 	 -16.3734
| 40> H 	 -58.5283 	 5.60031 	 -20.5604
| 41> *
| 42>
| 43>                          ****END OF INPUT****

CARTESIAN COORDINATES (ANGSTROEM)
---------------------------------
  S    -61.734500    9.221480  -17.353900
  C    -63.400000    9.641940  -16.928800
  C    -64.302400    8.623640  -17.107700
  C    -63.649400    7.543890  -17.823000
  C    -62.249800    7.591320  -17.879900
  H    -64.127300    6.661980  -18.206500
  C    -65.822600    8.722510  -16.949000
  H    -66.194900    9.546320  -17.612900
  H    -66.042300    9.115260  -15.930600
  C    -66.696700    7.513280  -17.142300
  H    -66.662000    7.006080  -18.119600
  H    -66.402700    6.691710  -16.392900
  C    -68.226700    7.744500  -16.868400
  H    -68.865400    7.072180  -17.488200
  H    -68.374600    7.616870  -15.782300
  H    -68.541700    8.718690  -17.118500
  S    -60.467500    7.190550  -20.018800
  C    -59.356200    5.848780  -19.857100
  C    -59.748200    4.935310  -18.887500
  C    -60.804000    5.474410  -18.091100
  C    -61.283100    6.671230  -18.537300
  H    -59.224000    3.995540  -18.824300
  C    -61.236900    4.717530  -16.783500
  H    -61.837400    5.366910  -16.093500
  H    -60.383100    4.471250  -16.160200
  C    -62.105000    3.433250  -17.026500
  H    -62.122600    2.886940  -16.096000
  H    -61.440700    2.894970  -17.700600
  C    -63.487400    3.688670  -17.640300
  H    -64.155300    2.850190  -17.534600
  H    -63.269300    3.804670  -18.711500
  H    -63.965200    4.571350  -17.345200
  H    -63.640900   10.563400  -16.373400
  H    -58.528300    5.600310  -20.560400

 Total Charge           Charge          ....    0
 Multiplicity           Mult            ....    1
 Number of Electrons    NEL             ....  134
 Basis Dimension        Dim             ....  322

ORBITAL ENERGIES
----------------

  NO   OCC          E(Eh)            E(eV)
   0   2.0000     -88.967292     -2420.9231
   1   2.0000     -88.964498     -2420.8471
   2   2.0000     -10.333725      -281.1950
   3   2.0000     -10.327575      -281.0276
   4   2.0000     -10.321895      -280.8730
   5   2.0000     -10.317351      -280.7494
   6   2.0000     -10.306343      -280.4499
   7   2.0000     -10.306160      -280.4449
   8   2.0000     -10.303092      -280.3614
   9   2.0000     -10.297723      -280.2153
  10   2.0000     -10.296861      -280.1918
  11   2.0000     -10.294989      -280.1409
  12   2.0000     -10.294626      -280.1310
  13   2.0000     -10.285363      -279.8790
  14   2.0000     -10.283298      -279.8228
  15   2.0000     -10.271228      -279.4943
  16   2.0000      -8.081777      -219.9163
  17   2.0000      -8.078340      -219.8228
  18   2.0000      -6.040304      -164.3650
  19   2.0000      -6.036921      -164.2730
  20   2.0000      -6.036409      -164.2590
  21   2.0000      -6.032975      -164.1656
  22   2.0000      -6.032427      -164.1507
  23   2.0000      -6.029063      -164.0592
  24   2.0000      -1.000893       -27.2357
  25   2.0000      -0.979430       -26.6516
  26   2.0000      -0.908679       -24.7264
  27   2.0000      -0.900342       -24.4995
  28   2.0000      -0.865839       -23.5607
  29   2.0000      -0.846297       -23.0289
  30   2.0000      -0.841260       -22.8919
  31   2.0000      -0.812556       -22.1108
  32   2.0000      -0.783608       -21.3230
  33   2.0000      -0.774979       -21.0883
  34   2.0000      -0.707942       -19.2641
  35   2.0000      -0.692964       -18.8565
  36   2.0000      -0.685091       -18.6423
  37   2.0000      -0.656139       -17.8544
  38   2.0000      -0.640755       -17.4358
  39   2.0000      -0.617028       -16.7902
  40   2.0000      -0.594433       -16.1753
  41   2.0000      -0.568256       -15.4630
  42   2.0000      -0.567438       -15.4408
  43   2.0000      -0.546151       -14.8615
  44   2.0000      -0.539706       -14.6862
  45   2.0000      -0.521696       -14.1961
  46   2.0000      -0.515011       -14.0141
  47   2.0000      -0.503765       -13.7081
  48   2.0000      -0.501433       -13.6447
  49   2.0000      -0.491986       -13.3876
  50   2.0000      -0.490732       -13.3535
  51   2.0000      -0.482917       -13.1408
  52   2.0000      -0.468945       -12.7606
  53   2.0000      -0.462848       -12.5947
  54   2.0000      -0.455244       -12.3878
  55   2.0000      -0.449369       -12.2280
  56   2.0000      -0.447244       -12.1701
  57   2.0000      -0.435174       -11.8417
  58   2.0000      -0.433640       -11.7999
  59   2.0000      -0.421036       -11.4570
  60   2.0000      -0.417426       -11.3587
  61   2.0000      -0.416019       -11.3205
  62   2.0000      -0.410978       -11.1833
  63   2.0000      -0.336401        -9.1539
  64   2.0000      -0.332560        -9.0494
  65   2.0000      -0.325141        -8.8475
  66   2.0000      -0.303833        -8.2677
  67   0.0000       0.034305         0.9335
  68   0.0000       0.059122         1.6088
  69   0.0000       0.111854         3.0437
  70   0.0000       0.123785         3.3684
  71   0.0000       0.124203         3.3797

MULLIKEN ATOMIC CHARGES
-----------------------
   0 S :    0.103242
   1 C :   -0.138700
   2 C :   -0.050418
   3 C :    0.032649
   4 C :   -0.162730
   5 H :    0.010684
   6 C :    0.042788
   7 H :    0.050097
   8 H :    0.031794
   9 C :   -0.138791
  10 H :    0.041195
  11 H :    0.043968
  12 C :   -0.038978
  13 H :    0.041029
  14 H :    0.040768
  15 H :    0.015811
  16 S :    0.120457
  17 C :   -0.112683
  18 C :   -0.038083
  19 C :   -0.004570
  20 C :   -0.179980
  21 H :    0.024946
  22 C :    0.029327
  23 H :    0.032701
  24 H :    0.031229
  25 C :   -0.073721
  26 H :    0.028283
  27 H :    0.018690
  28 C :   -0.020497
  29 H :    0.034331
  30 H :    0.037013
  31 H :    0.019047
  32 H :    0.059275
  33 H :    0.069826
Sum of atomic charges:    0.0000000

LOEWDIN ATOMIC CHARGES
----------------------
   0 S :    0.383010
   1 C :   -0.186597
   2 C :   -0.067744
   3 C :   -0.053372
   4 C :   -0.184135
   5 H :    0.025039
   6 C :   -0.041971
   7 H :    0.040695
   8 H :    0.036999
   9 C :   -0.055452
  10 H :    0.023364
  11 H :    0.032049
  12 C :   -0.061248
  13 H :    0.033341
  14 H :    0.029217
  15 H :    0.014241
  16 S :    0.398134
  17 C :   -0.183850
  18 C :   -0.074389
  19 C :   -0.051415
  20 C :   -0.203664
  21 H :    0.033130
  22 C :   -0.028998
  23 H :    0.029807
  24 H :    0.028977
  25 C :   -0.036643
  26 H :    0.020201
  27 H :    0.019601
  28 C :   -0.062089
  29 H :    0.027079
  30 H :    0.034342
  31 H :    0.013615
  32 H :    0.031739
  33 H :    0.036987

  Mayer bond orders larger than 0.100000
B(  0-S ,  1-C ) :   1.1479 B(  0-S ,  4-C ) :   1.1332 B(  1-C ,  2-C ) :   1.6301
B(  1-C , 32-H ) :   0.9622 B(  2-C ,  3-C ) :   1.2264 B(  2-C ,  6-C ) :   1.0129
B(  3-C ,  4-C ) :   1.6089 B(  3-C ,  5-H ) :   0.9783 B(  4-C , 20-C ) :   1.0154
B(  6-C ,  7-H ) :   0.9380 B(  6-C ,  8-H ) :   0.9387 B(  6-C ,  9-C ) :   1.0753
B(  9-C , 10-H ) :   0.9528 B(  9-C , 11-H ) :   0.9610 B(  9-C , 12-C ) :   1.0671
B( 12-C , 13-H ) :   0.9779 B( 12-C , 14-H ) :   0.9794 B( 12-C , 15-H ) :   0.9776
B( 16-S , 17-C ) :   1.1561 B( 16-S , 20-C ) :   1.1288 B( 17-C , 18-C ) :   1.6340
B( 17-C , 33-H ) :   0.9582 B( 18-C , 19-C ) :   1.2145 B( 18-C , 21-H ) :   0.9905
B( 19-C , 20-C ) :   1.6430 B( 19-C , 22-C ) :   1.0249 B( 22-C , 23-H ) :   0.9403
B( 22-C , 24-H ) :   0.9472 B( 22-C , 25-C ) :   1.0661 B( 25-C , 26-H ) :   0.9582
B( 25-C , 27-H ) :   0.9648 B( 25-C , 28-C ) :   1.0609 B( 28-C , 29-H ) :   0.9721
B( 28-C , 30-H ) :   0.9740 B( 28-C , 31-H ) :   0.9756

Dispersion correction           -0.014775015
FINAL SINGLE POINT ENERGY     -1339.875145245590

DIPOLE MOMENT
-------------
                                X             Y             Z
Electronic contribution:     24.77873      14.57219      -9.60579
Nuclear contribution   :    -25.21087     -14.96393       9.78368
                        -----------------------------------------
Total Dipole Moment    :     -0.43214      -0.39174       0.17788
                        -----------------------------------------
Magnitude (a.u.)       :      0.60979
Magnitude (Debye)      :      1.54997

Rotational constants in cm-1:     0.018670     0.008708     0.006737
Rotational constants in MHz :   559.712291   261.058828   201.960336

                             ****ORCA TERMINATED NORMALLY****
TOTAL RUN TIME: 0 days 0 hours 0 minutes 21 seconds 725 msec
