                         Program Version 4.2.1 -  RELEASE  -
|  1> ! wB97X-D3 SP def2-SVP
|  2> %pal
|  3> nprocs 24
|  4> end
|  5>
|  6> * xyz 0 1
|  7> S 	 -93.9914 	 3.0439 	 -0.64145
|  8> C 	 -92.2845 	 3.28352 	 -0.185209
|  9> C 	 -91.9172 	 4.56822 	 -0.372149
| 10> C 	 -93.0219 	 5.4124 	 -0.761393
| 11> C 	 -94.208 	 4.72904 	 -1.00907
| 12> H 	 -92.9206 	 6.53075 	 -0.875974
| 13> C 	 -90.5925 	 5.15808 	 -0.0542423
| 14> H 	 -90.6733 	 6.29118 	 -0.0537366
| 15> H 	 -90.0583 	 4.94641 	 -0.909027
| 16> C 	 -89.8734 	 4.51507 	 1.13372
| 17> H 	 -90.4741 	 4.72837 	 2.06611
| 18> H 	 -89.7788 	 3.43153 	 1.19495
| 19> C 	 -88.3521 	 4.90083 	 1.26645
| 20> H 	 -88.2706 	 6.01503 	 1.28862
| 21> H 	 -87.9035 	 4.50397 	 2.16389
| 22> H 	 -87.7453 	 4.58635 	 0.399528
| 23> S 	 -96.3878 	 4.62037 	 -2.60223
| 24> C 	 -97.7897 	 5.68603 	 -2.28241
| 25> C 	 -97.5097 	 6.6378 	 -1.30606
| 26> C 	 -96.2152 	 6.4313 	 -0.711168
| 27> C 	 -95.5003 	 5.37098 	 -1.28615
| 28> H 	 -98.2802 	 7.28631 	 -1.11021
| 29> C 	 -95.679 	 7.44296 	 0.253183
| 30> H 	 -96.0334 	 8.42827 	 0.0748258
| 31> H 	 -94.6055 	 7.60034 	 0.0656871
| 32> C 	 -95.7965 	 7.07027 	 1.74728
| 33> H 	 -96.6969 	 6.64538 	 2.04604
| 34> H 	 -95.9891 	 7.99222 	 2.33932
| 35> C 	 -94.7117 	 6.23513 	 2.35767
| 36> H 	 -93.6758 	 6.59263 	 2.38781
| 37> H 	 -94.7425 	 5.30418 	 1.8517
| 38> H 	 -94.8577 	 5.97472 	 3.39789
| 39> H 	 -91.5466 	 2.5774 	 0.146812
| 40> H 	 -98.7843 	 5.5874 	 -2.54031
| 41> *
| 42>
| 43>                          ****END OF INPUT****

CARTESIAN COORDINATES (ANGSTROEM)
---------------------------------
  S    -93.991400    3.043900   -0.641450
  C    -92.284500    3.283520   -0.185209
  C    -91.917200    4.568220   -0.372149
  C    -93.021900    5.412400   -0.761393
  C    -94.208000    4.729040   -1.009070
  H    -92.920600    6.530750   -0.875974
  C    -90.592500    5.158080   -0.054242
  H    -90.673300    6.291180   -0.053737
  H    -90.058300    4.946410   -0.909027
  C    -89.873400    4.515070    1.133720
  H    -90.474100    4.728370    2.066110
  H    -89.778800    3.431530    1.194950
  C    -88.352100    4.900830    1.266450
  H    -88.270600    6.015030    1.288620
  H    -87.903500    4.503970    2.163890
  H    -87.745300    4.586350    0.399528
  S    -96.387800    4.620370   -2.602230
  C    -97.789700    5.686030   -2.282410
  C    -97.509700    6.637800   -1.306060
  C    -96.215200    6.431300   -0.711168
  C    -95.500300    5.370980   -1.286150
  H    -98.280200    7.286310   -1.110210
  C    -95.679000    7.442960    0.253183
  H    -96.033400    8.428270    0.074826
  H    -94.605500    7.600340    0.065687
  C    -95.796500    7.070270    1.747280
  H    -96.696900    6.645380    2.046040
  H    -95.989100    7.992220    2.339320
  C    -94.711700    6.235130    2.357670
  H    -93.675800    6.592630    2.387810
  H    -94.742500    5.304180    1.851700
  H    -94.857700    5.974720    3.397890
  H    -91.546600    2.577400    0.146812
  H    -98.784300    5.587400   -2.540310

 Total Charge           Charge          ....    0
 Multiplicity           Mult            ....    1
 Number of Electrons    NEL             ....  134
 Basis Dimension        Dim             ....  322

ORBITAL ENERGIES
----------------

  NO   OCC          E(Eh)            E(eV)
   0   2.0000     -88.968806     -2420.9643
   1   2.0000     -88.966645     -2420.9055
   2   2.0000     -10.331732      -281.1407
   3   2.0000     -10.331339      -281.1300
   4   2.0000     -10.312703      -280.6229
   5   2.0000     -10.311459      -280.5891
   6   2.0000     -10.307708      -280.4870
   7   2.0000     -10.298501      -280.2365
   8   2.0000     -10.298106      -280.2257
   9   2.0000     -10.296336      -280.1775
  10   2.0000     -10.293248      -280.0935
  11   2.0000     -10.290372      -280.0153
  12   2.0000     -10.288291      -279.9586
  13   2.0000     -10.286619      -279.9131
  14   2.0000     -10.277063      -279.6531
  15   2.0000     -10.264242      -279.3042
  16   2.0000      -8.082779      -219.9436
  17   2.0000      -8.080526      -219.8823
  18   2.0000      -6.041509      -164.3978
  19   2.0000      -6.039165      -164.3340
  20   2.0000      -6.037363      -164.2850
  21   2.0000      -6.035069      -164.2226
  22   2.0000      -6.033337      -164.1755
  23   2.0000      -6.031280      -164.1195
  24   2.0000      -1.004180       -27.3251
  25   2.0000      -0.980994       -26.6942
  26   2.0000      -0.916285       -24.9334
  27   2.0000      -0.907134       -24.6844
  28   2.0000      -0.869252       -23.6536
  29   2.0000      -0.848848       -23.0983
  30   2.0000      -0.846374       -23.0310
  31   2.0000      -0.816756       -22.2251
  32   2.0000      -0.784279       -21.3413
  33   2.0000      -0.774940       -21.0872
  34   2.0000      -0.716997       -19.5105
  35   2.0000      -0.707061       -19.2401
  36   2.0000      -0.695174       -18.9167
  37   2.0000      -0.665937       -18.1211
  38   2.0000      -0.633653       -17.2426
  39   2.0000      -0.618701       -16.8357
  40   2.0000      -0.595457       -16.2032
  41   2.0000      -0.577339       -15.7102
  42   2.0000      -0.563344       -15.3294
  43   2.0000      -0.555357       -15.1120
  44   2.0000      -0.530706       -14.4412
  45   2.0000      -0.527192       -14.3456
  46   2.0000      -0.519508       -14.1365
  47   2.0000      -0.509044       -13.8518
  48   2.0000      -0.504188       -13.7197
  49   2.0000      -0.500062       -13.6074
  50   2.0000      -0.494321       -13.4512
  51   2.0000      -0.484619       -13.1872
  52   2.0000      -0.477646       -12.9974
  53   2.0000      -0.463768       -12.6198
  54   2.0000      -0.459090       -12.4925
  55   2.0000      -0.445035       -12.1100
  56   2.0000      -0.443345       -12.0640
  57   2.0000      -0.435065       -11.8387
  58   2.0000      -0.428750       -11.6669
  59   2.0000      -0.426916       -11.6170
  60   2.0000      -0.420696       -11.4477
  61   2.0000      -0.414364       -11.2754
  62   2.0000      -0.401530       -10.9262
  63   2.0000      -0.343159        -9.3378
  64   2.0000      -0.331600        -9.0233
  65   2.0000      -0.328520        -8.9395
  66   2.0000      -0.293906        -7.9976
  67   0.0000       0.026338         0.7167
  68   0.0000       0.069995         1.9047
  69   0.0000       0.104726         2.8497
  70   0.0000       0.115296         3.1374
  71   0.0000       0.132067         3.5937

MULLIKEN ATOMIC CHARGES
-----------------------
   0 S :    0.120822
   1 C :   -0.123042
   2 C :   -0.095792
   3 C :   -0.016537
   4 C :   -0.113769
   5 H :    0.036174
   6 C :    0.138651
   7 H :    0.035455
   8 H :    0.014882
   9 C :   -0.128556
  10 H :    0.043841
  11 H :    0.034180
  12 C :   -0.067311
  13 H :    0.030727
  14 H :    0.038216
  15 H :    0.038969
  16 S :    0.099943
  17 C :   -0.061117
  18 C :   -0.031273
  19 C :    0.014262
  20 C :   -0.175648
  21 H :   -0.007208
  22 C :    0.075635
  23 H :    0.013478
  24 H :    0.009533
  25 C :   -0.038109
  26 H :   -0.000298
  27 H :    0.007521
  28 C :   -0.023896
  29 H :    0.022998
  30 H :    0.026962
  31 H :    0.018658
  32 H :    0.032394
  33 H :    0.029252
Sum of atomic charges:    0.0000000

LOEWDIN ATOMIC CHARGES
----------------------
   0 S :    0.402236
   1 C :   -0.190347
   2 C :   -0.063531
   3 C :   -0.065534
   4 C :   -0.207751
   5 H :    0.036623
   6 C :   -0.031926
   7 H :    0.041206
   8 H :    0.027492
   9 C :   -0.046195
  10 H :    0.031812
  11 H :    0.024415
  12 C :   -0.068011
  13 H :    0.024940
  14 H :    0.024754
  15 H :    0.027256
  16 S :    0.391325
  17 C :   -0.165962
  18 C :   -0.053120
  19 C :   -0.051272
  20 C :   -0.191072
  21 H :    0.020417
  22 C :   -0.029908
  23 H :    0.029538
  24 H :    0.032414
  25 C :   -0.043446
  26 H :    0.017920
  27 H :    0.025258
  28 C :   -0.066242
  29 H :    0.022318
  30 H :    0.023875
  31 H :    0.026382
  32 H :    0.028176
  33 H :    0.015961

  Mayer bond orders larger than 0.100000
B(  0-S ,  1-C ) :   1.1100 B(  0-S ,  4-C ) :   1.1441 B(  1-C ,  2-C ) :   1.6467
B(  1-C , 32-H ) :   0.9642 B(  2-C ,  3-C ) :   1.2354 B(  2-C ,  6-C ) :   1.0087
B(  3-C ,  4-C ) :   1.5775 B(  3-C ,  5-H ) :   0.9820 B(  4-C , 20-C ) :   1.0261
B(  6-C ,  7-H ) :   0.9428 B(  6-C ,  8-H ) :   0.9130 B(  6-C ,  9-C ) :   1.0568
B(  9-C , 10-H ) :   0.9593 B(  9-C , 11-H ) :   0.9549 B(  9-C , 12-C ) :   1.0705
B( 12-C , 13-H ) :   0.9774 B( 12-C , 14-H ) :   0.9768 B( 12-C , 15-H ) :   0.9764
B( 16-S , 17-C ) :   1.1364 B( 16-S , 20-C ) :   1.1382 B( 17-C , 18-C ) :   1.6441
B( 17-C , 33-H ) :   0.9698 B( 18-C , 19-C ) :   1.2115 B( 18-C , 21-H ) :   1.0021
B( 19-C , 20-C ) :   1.5980 B( 19-C , 22-C ) :   1.0381 B( 22-C , 23-H ) :   0.9371
B( 22-C , 24-H ) :   0.9420 B( 22-C , 25-C ) :   1.0541 B( 25-C , 26-H ) :   0.9508
B( 25-C , 27-H ) :   0.9476 B( 25-C , 28-C ) :   1.0923 B( 28-C , 29-H ) :   0.9731
B( 28-C , 30-H ) :   0.9709 B( 28-C , 31-H ) :   0.9675

Dispersion correction           -0.015273216
FINAL SINGLE POINT ENERGY     -1339.850479901924

DIPOLE MOMENT
-------------
                                X             Y             Z
Electronic contribution:    -19.30092     -11.71046     -19.75935
Nuclear contribution   :     19.64456      12.16933      20.18759
                        -----------------------------------------
Total Dipole Moment    :      0.34364       0.45887       0.42824
                        -----------------------------------------
Magnitude (a.u.)       :      0.71557
Magnitude (Debye)      :      1.81884

Rotational constants in cm-1:     0.023416     0.008074     0.006710
Rotational constants in MHz :   701.991702   242.063768   201.158824

                             ****ORCA TERMINATED NORMALLY****
TOTAL RUN TIME: 0 days 0 hours 0 minutes 22 seconds 342 msec
