                         Program Version 4.2.1 -  RELEASE  -
|  1> ! wB97X-D3 SP def2-SVP
|  2> %pal
|  3> nprocs 24
|  4> end
|  5>
|  6> * xyz 0 1
|  7> S 	 36.7918 	 -6.95097 	 -123.621
|  8> C 	 36.4091 	 -7.5284 	 -125.258
|  9> C 	 35.3944 	 -6.77107 	 -125.728
| 10> C 	 34.8454 	 -5.82497 	 -124.825
| 11> C 	 35.3998 	 -5.90824 	 -123.576
| 12> H 	 34.0558 	 -5.13882 	 -124.959
| 13> C 	 34.8463 	 -7.06374 	 -127.139
| 14> H 	 35.649 	 -7.31408 	 -127.911
| 15> H 	 34.3541 	 -6.14653 	 -127.545
| 16> C 	 33.7937 	 -8.20965 	 -127.127
| 17> H 	 34.2549 	 -9.11426 	 -126.784
| 18> H 	 32.9968 	 -7.97922 	 -126.406
| 19> C 	 33.2251 	 -8.54059 	 -128.476
| 20> H 	 32.8011 	 -7.75359 	 -129.045
| 21> H 	 34.006 	 -8.85839 	 -129.177
| 22> H 	 32.4457 	 -9.30674 	 -128.365
| 23> S 	 34.4397 	 -6.00765 	 -121.048
| 24> C 	 34.1909 	 -4.52632 	 -120.154
| 25> C 	 34.6701 	 -3.37925 	 -120.791
| 26> C 	 35.0801 	 -3.77975 	 -122.129
| 27> C 	 35.0941 	 -5.13184 	 -122.361
| 28> H 	 34.5481 	 -2.47132 	 -120.202
| 29> C 	 35.5305 	 -2.68069 	 -123.15
| 30> H 	 34.8356 	 -2.69664 	 -123.965
| 31> H 	 36.548 	 -2.92581 	 -123.539
| 32> C 	 35.5611 	 -1.27606 	 -122.564
| 33> H 	 36.2797 	 -1.33974 	 -121.708
| 34> H 	 34.5862 	 -1.13447 	 -122.225
| 35> C 	 36.0491 	 -0.124261 	 -123.425
| 36> H 	 37.0838 	 -0.272132 	 -123.615
| 37> H 	 35.9371 	 0.828679 	 -122.938
| 38> H 	 35.5694 	 0.0511746 	 -124.386
| 39> H 	 36.9408 	 -8.36246 	 -125.781
| 40> H 	 33.7503 	 -4.50421 	 -119.088
| 41> *
| 42>
| 43>                          ****END OF INPUT****

CARTESIAN COORDINATES (ANGSTROEM)
---------------------------------
  S     36.791800   -6.950970  -123.621000
  C     36.409100   -7.528400  -125.258000
  C     35.394400   -6.771070  -125.728000
  C     34.845400   -5.824970  -124.825000
  C     35.399800   -5.908240  -123.576000
  H     34.055800   -5.138820  -124.959000
  C     34.846300   -7.063740  -127.139000
  H     35.649000   -7.314080  -127.911000
  H     34.354100   -6.146530  -127.545000
  C     33.793700   -8.209650  -127.127000
  H     34.254900   -9.114260  -126.784000
  H     32.996800   -7.979220  -126.406000
  C     33.225100   -8.540590  -128.476000
  H     32.801100   -7.753590  -129.045000
  H     34.006000   -8.858390  -129.177000
  H     32.445700   -9.306740  -128.365000
  S     34.439700   -6.007650  -121.048000
  C     34.190900   -4.526320  -120.154000
  C     34.670100   -3.379250  -120.791000
  C     35.080100   -3.779750  -122.129000
  C     35.094100   -5.131840  -122.361000
  H     34.548100   -2.471320  -120.202000
  C     35.530500   -2.680690  -123.150000
  H     34.835600   -2.696640  -123.965000
  H     36.548000   -2.925810  -123.539000
  C     35.561100   -1.276060  -122.564000
  H     36.279700   -1.339740  -121.708000
  H     34.586200   -1.134470  -122.225000
  C     36.049100   -0.124261  -123.425000
  H     37.083800   -0.272132  -123.615000
  H     35.937100    0.828679  -122.938000
  H     35.569400    0.051175  -124.386000
  H     36.940800   -8.362460  -125.781000
  H     33.750300   -4.504210  -119.088000

 Total Charge           Charge          ....    0
 Multiplicity           Mult            ....    1
 Number of Electrons    NEL             ....  134
 Basis Dimension        Dim             ....  322

ORBITAL ENERGIES
----------------

  NO   OCC          E(Eh)            E(eV)
   0   2.0000     -88.966633     -2420.9052
   1   2.0000     -88.960244     -2420.7313
   2   2.0000     -10.328235      -281.0456
   3   2.0000     -10.324255      -280.9372
   4   2.0000     -10.322155      -280.8801
   5   2.0000     -10.314995      -280.6853
   6   2.0000     -10.311242      -280.5832
   7   2.0000     -10.300880      -280.3012
   8   2.0000     -10.299453      -280.2624
   9   2.0000     -10.299381      -280.2604
  10   2.0000     -10.290885      -280.0292
  11   2.0000     -10.290799      -280.0269
  12   2.0000     -10.282591      -279.8035
  13   2.0000     -10.281537      -279.7748
  14   2.0000     -10.273294      -279.5505
  15   2.0000     -10.272657      -279.5332
  16   2.0000      -8.082220      -219.9284
  17   2.0000      -8.075095      -219.7345
  18   2.0000      -6.040584      -164.3726
  19   2.0000      -6.036602      -164.2643
  20   2.0000      -6.033609      -164.1828
  21   2.0000      -6.033071      -164.1682
  22   2.0000      -6.029536      -164.0720
  23   2.0000      -6.025880      -163.9725
  24   2.0000      -1.010542       -27.4982
  25   2.0000      -0.987704       -26.8768
  26   2.0000      -0.910062       -24.7641
  27   2.0000      -0.907243       -24.6873
  28   2.0000      -0.870659       -23.6918
  29   2.0000      -0.849675       -23.1208
  30   2.0000      -0.844430       -22.9781
  31   2.0000      -0.819370       -22.2962
  32   2.0000      -0.783227       -21.3127
  33   2.0000      -0.769815       -20.9477
  34   2.0000      -0.704874       -19.1806
  35   2.0000      -0.697151       -18.9705
  36   2.0000      -0.692563       -18.8456
  37   2.0000      -0.650960       -17.7135
  38   2.0000      -0.642822       -17.4921
  39   2.0000      -0.618663       -16.8347
  40   2.0000      -0.591375       -16.0921
  41   2.0000      -0.578671       -15.7464
  42   2.0000      -0.570303       -15.5187
  43   2.0000      -0.557776       -15.1779
  44   2.0000      -0.528178       -14.3724
  45   2.0000      -0.520496       -14.1634
  46   2.0000      -0.518002       -14.0956
  47   2.0000      -0.512080       -13.9344
  48   2.0000      -0.509272       -13.8580
  49   2.0000      -0.500377       -13.6159
  50   2.0000      -0.489054       -13.3078
  51   2.0000      -0.478627       -13.0241
  52   2.0000      -0.469447       -12.7743
  53   2.0000      -0.465690       -12.6721
  54   2.0000      -0.458472       -12.4756
  55   2.0000      -0.450558       -12.2603
  56   2.0000      -0.447016       -12.1639
  57   2.0000      -0.433251       -11.7894
  58   2.0000      -0.428023       -11.6471
  59   2.0000      -0.424691       -11.5564
  60   2.0000      -0.418427       -11.3860
  61   2.0000      -0.413479       -11.2513
  62   2.0000      -0.410143       -11.1606
  63   2.0000      -0.341701        -9.2982
  64   2.0000      -0.330347        -8.9892
  65   2.0000      -0.327781        -8.9194
  66   2.0000      -0.305203        -8.3050
  67   0.0000       0.039610         1.0779
  68   0.0000       0.064614         1.7582
  69   0.0000       0.117774         3.2048
  70   0.0000       0.124553         3.3893
  71   0.0000       0.129081         3.5125

MULLIKEN ATOMIC CHARGES
-----------------------
   0 S :    0.096913
   1 C :   -0.143699
   2 C :   -0.049453
   3 C :    0.065685
   4 C :   -0.163754
   5 H :   -0.006273
   6 C :    0.006232
   7 H :    0.035686
   8 H :    0.024799
   9 C :   -0.051450
  10 H :    0.018329
  11 H :    0.030503
  12 C :   -0.027553
  13 H :    0.012678
  14 H :    0.020179
  15 H :    0.038072
  16 S :    0.129322
  17 C :   -0.134103
  18 C :   -0.057639
  19 C :   -0.047086
  20 C :   -0.159480
  21 H :    0.037480
  22 C :    0.088901
  23 H :    0.019626
  24 H :    0.037920
  25 C :   -0.109902
  26 H :    0.036633
  27 H :    0.017891
  28 C :    0.010395
  29 H :    0.021464
  30 H :    0.026148
  31 H :    0.023236
  32 H :    0.070876
  33 H :    0.081422
Sum of atomic charges:   -0.0000000

LOEWDIN ATOMIC CHARGES
----------------------
   0 S :    0.392390
   1 C :   -0.191665
   2 C :   -0.068486
   3 C :   -0.059862
   4 C :   -0.189935
   5 H :    0.026867
   6 C :   -0.035642
   7 H :    0.033417
   8 H :    0.028542
   9 C :   -0.040605
  10 H :    0.021014
  11 H :    0.026676
  12 C :   -0.068216
  13 H :    0.016593
  14 H :    0.025730
  15 H :    0.030968
  16 S :    0.432469
  17 C :   -0.195407
  18 C :   -0.083063
  19 C :   -0.047024
  20 C :   -0.228269
  21 H :    0.042376
  22 C :   -0.027232
  23 H :    0.023677
  24 H :    0.034117
  25 C :   -0.043335
  26 H :    0.031235
  27 H :    0.012646
  28 C :   -0.060331
  29 H :    0.022598
  30 H :    0.027904
  31 H :    0.023956
  32 H :    0.042663
  33 H :    0.043234

  Mayer bond orders larger than 0.100000
B(  0-S ,  1-C ) :   1.1209 B(  0-S ,  4-C ) :   1.1693 B(  1-C ,  2-C ) :   1.6177
B(  1-C , 32-H ) :   0.9697 B(  2-C ,  3-C ) :   1.2212 B(  2-C ,  6-C ) :   1.0195
B(  3-C ,  4-C ) :   1.5879 B(  3-C ,  5-H ) :   1.0125 B(  4-C , 20-C ) :   0.9895
B(  6-C ,  7-H ) :   0.9482 B(  6-C ,  8-H ) :   0.9438 B(  6-C ,  9-C ) :   1.0603
B(  9-C , 10-H ) :   0.9538 B(  9-C , 11-H ) :   0.9549 B(  9-C , 12-C ) :   1.0888
B( 12-C , 13-H ) :   0.9730 B( 12-C , 14-H ) :   0.9694 B( 12-C , 15-H ) :   0.9723
B( 16-S , 17-C ) :   1.1776 B( 16-S , 20-C ) :   1.1505 B( 17-C , 18-C ) :   1.6113
B( 17-C , 33-H ) :   0.9490 B( 18-C , 19-C ) :   1.2084 B( 18-C , 21-H ) :   0.9919
B( 19-C , 20-C ) :   1.6388 B( 19-C , 22-C ) :   1.0140 B( 22-C , 23-H ) :   0.9278
B( 22-C , 24-H ) :   0.9376 B( 22-C , 25-C ) :   1.1015 B( 25-C , 26-H ) :   0.9495
B( 25-C , 27-H ) :   0.9447 B( 25-C , 28-C ) :   1.0840 B( 28-C , 29-H ) :   0.9716
B( 28-C , 30-H ) :   0.9696 B( 28-C , 31-H ) :   0.9721

Dispersion correction           -0.013435716
FINAL SINGLE POINT ENERGY     -1339.875670284521

DIPOLE MOMENT
-------------
                                X             Y             Z
Electronic contribution:      5.42491     -11.49383      20.01317
Nuclear contribution   :     -5.68400      11.90234     -20.31861
                        -----------------------------------------
Total Dipole Moment    :     -0.25908       0.40851      -0.30544
                        -----------------------------------------
Magnitude (a.u.)       :      0.57210
Magnitude (Debye)      :      1.45416

Rotational constants in cm-1:     0.019311     0.007154     0.006132
Rotational constants in MHz :   578.943326   214.484103   183.826670

                             ****ORCA TERMINATED NORMALLY****
TOTAL RUN TIME: 0 days 0 hours 0 minutes 20 seconds 750 msec
