                         Program Version 4.2.1 -  RELEASE  -
|  1> ! wB97X-D3 SP def2-SVP
|  2> %pal
|  3> nprocs 24
|  4> end
|  5>
|  6> * xyz 0 1
|  7> S 	 -127.128 	 63.4825 	 -57.9068
|  8> C 	 -125.582 	 63.5968 	 -58.8206
|  9> C 	 -125.874 	 63.6905 	 -60.1035
| 10> C 	 -127.254 	 63.3497 	 -60.4623
| 11> C 	 -128.014 	 63.0762 	 -59.3521
| 12> H 	 -127.688 	 63.2814 	 -61.4651
| 13> C 	 -124.792 	 64.0449 	 -61.0732
| 14> H 	 -123.978 	 63.2907 	 -61.033
| 15> H 	 -124.474 	 64.9545 	 -60.5996
| 16> C 	 -125.212 	 64.4025 	 -62.4426
| 17> H 	 -125.517 	 63.3988 	 -62.8935
| 18> H 	 -126.082 	 65.0937 	 -62.5307
| 19> C 	 -124.073 	 65.1673 	 -63.0929
| 20> H 	 -124.101 	 66.0664 	 -62.4625
| 21> H 	 -123.081 	 64.6653 	 -63.0481
| 22> H 	 -124.281 	 65.388 	 -64.0642
| 23> S 	 -130.591 	 64.1816 	 -58.8043
| 24> C 	 -131.971 	 63.1184 	 -59.0655
| 25> C 	 -131.576 	 61.9627 	 -59.7154
| 26> C 	 -130.171 	 61.8272 	 -59.8931
| 27> C 	 -129.461 	 62.9136 	 -59.3526
| 28> H 	 -132.196 	 61.2159 	 -60.1483
| 29> C 	 -129.58 	 60.5264 	 -60.4396
| 30> H 	 -128.543 	 60.6956 	 -60.732
| 31> H 	 -129.946 	 60.2507 	 -61.4104
| 32> C 	 -129.674 	 59.3224 	 -59.4863
| 33> H 	 -130.722 	 58.9694 	 -59.4101
| 34> H 	 -129.437 	 59.6962 	 -58.4849
| 35> C 	 -128.763 	 58.0923 	 -59.8076
| 36> H 	 -129.046 	 57.135 	 -59.4809
| 37> H 	 -127.706 	 58.1784 	 -59.3885
| 38> H 	 -128.769 	 57.9073 	 -60.9051
| 39> H 	 -124.572 	 63.6963 	 -58.4312
| 40> H 	 -132.998 	 63.3445 	 -58.8858
| 41> *
| 42>
| 43>                          ****END OF INPUT****

CARTESIAN COORDINATES (ANGSTROEM)
---------------------------------
  S    -127.128000   63.482500  -57.906800
  C    -125.582000   63.596800  -58.820600
  C    -125.874000   63.690500  -60.103500
  C    -127.254000   63.349700  -60.462300
  C    -128.014000   63.076200  -59.352100
  H    -127.688000   63.281400  -61.465100
  C    -124.792000   64.044900  -61.073200
  H    -123.978000   63.290700  -61.033000
  H    -124.474000   64.954500  -60.599600
  C    -125.212000   64.402500  -62.442600
  H    -125.517000   63.398800  -62.893500
  H    -126.082000   65.093700  -62.530700
  C    -124.073000   65.167300  -63.092900
  H    -124.101000   66.066400  -62.462500
  H    -123.081000   64.665300  -63.048100
  H    -124.281000   65.388000  -64.064200
  S    -130.591000   64.181600  -58.804300
  C    -131.971000   63.118400  -59.065500
  C    -131.576000   61.962700  -59.715400
  C    -130.171000   61.827200  -59.893100
  C    -129.461000   62.913600  -59.352600
  H    -132.196000   61.215900  -60.148300
  C    -129.580000   60.526400  -60.439600
  H    -128.543000   60.695600  -60.732000
  H    -129.946000   60.250700  -61.410400
  C    -129.674000   59.322400  -59.486300
  H    -130.722000   58.969400  -59.410100
  H    -129.437000   59.696200  -58.484900
  C    -128.763000   58.092300  -59.807600
  H    -129.046000   57.135000  -59.480900
  H    -127.706000   58.178400  -59.388500
  H    -128.769000   57.907300  -60.905100
  H    -124.572000   63.696300  -58.431200
  H    -132.998000   63.344500  -58.885800

 Total Charge           Charge          ....    0
 Multiplicity           Mult            ....    1
 Number of Electrons    NEL             ....  134
 Basis Dimension        Dim             ....  322

ORBITAL ENERGIES
----------------

  NO   OCC          E(Eh)            E(eV)
   0   2.0000     -88.969105     -2420.9724
   1   2.0000     -88.960020     -2420.7252
   2   2.0000     -10.329799      -281.0881
   3   2.0000     -10.327420      -281.0234
   4   2.0000     -10.318328      -280.7760
   5   2.0000     -10.308817      -280.5172
   6   2.0000     -10.302303      -280.3399
   7   2.0000     -10.297801      -280.2174
   8   2.0000     -10.294763      -280.1347
   9   2.0000     -10.290314      -280.0137
  10   2.0000     -10.289827      -280.0004
  11   2.0000     -10.288939      -279.9763
  12   2.0000     -10.288876      -279.9745
  13   2.0000     -10.285683      -279.8877
  14   2.0000     -10.281088      -279.7626
  15   2.0000     -10.275250      -279.6038
  16   2.0000      -8.082794      -219.9440
  17   2.0000      -8.074489      -219.7180
  18   2.0000      -6.041489      -164.3973
  19   2.0000      -6.037480      -164.2882
  20   2.0000      -6.033379      -164.1766
  21   2.0000      -6.033259      -164.1733
  22   2.0000      -6.029199      -164.0629
  23   2.0000      -6.024801      -163.9432
  24   2.0000      -1.004238       -27.3267
  25   2.0000      -0.982007       -26.7218
  26   2.0000      -0.926247       -25.2045
  27   2.0000      -0.901131       -24.5210
  28   2.0000      -0.876645       -23.8547
  29   2.0000      -0.845150       -22.9977
  30   2.0000      -0.840879       -22.8815
  31   2.0000      -0.815254       -22.1842
  32   2.0000      -0.783005       -21.3066
  33   2.0000      -0.773276       -21.0419
  34   2.0000      -0.713791       -19.4232
  35   2.0000      -0.698887       -19.0177
  36   2.0000      -0.686458       -18.6795
  37   2.0000      -0.657432       -17.8896
  38   2.0000      -0.638917       -17.3858
  39   2.0000      -0.614582       -16.7236
  40   2.0000      -0.600199       -16.3323
  41   2.0000      -0.587322       -15.9819
  42   2.0000      -0.570266       -15.5177
  43   2.0000      -0.553275       -15.0554
  44   2.0000      -0.530880       -14.4460
  45   2.0000      -0.516915       -14.0660
  46   2.0000      -0.515267       -14.0211
  47   2.0000      -0.510526       -13.8921
  48   2.0000      -0.510361       -13.8876
  49   2.0000      -0.503336       -13.6965
  50   2.0000      -0.491255       -13.3677
  51   2.0000      -0.477026       -12.9805
  52   2.0000      -0.468845       -12.7579
  53   2.0000      -0.462022       -12.5723
  54   2.0000      -0.454645       -12.3715
  55   2.0000      -0.449372       -12.2280
  56   2.0000      -0.446287       -12.1441
  57   2.0000      -0.441676       -12.0186
  58   2.0000      -0.430124       -11.7043
  59   2.0000      -0.421846       -11.4790
  60   2.0000      -0.417504       -11.3609
  61   2.0000      -0.410109       -11.1596
  62   2.0000      -0.408170       -11.1069
  63   2.0000      -0.340046        -9.2531
  64   2.0000      -0.332880        -9.0581
  65   2.0000      -0.323279        -8.7969
  66   2.0000      -0.298683        -8.1276
  67   0.0000       0.033164         0.9024
  68   0.0000       0.060096         1.6353
  69   0.0000       0.111781         3.0417
  70   0.0000       0.114562         3.1174
  71   0.0000       0.135805         3.6954

MULLIKEN ATOMIC CHARGES
-----------------------
   0 S :    0.087729
   1 C :   -0.127551
   2 C :   -0.078682
   3 C :    0.036678
   4 C :   -0.156046
   5 H :    0.025785
   6 C :    0.043104
   7 H :    0.051634
   8 H :    0.016902
   9 C :   -0.122842
  10 H :    0.035294
  11 H :    0.040883
  12 C :    0.004500
  13 H :    0.031007
  14 H :    0.036143
  15 H :    0.012940
  16 S :    0.116568
  17 C :   -0.078259
  18 C :   -0.005476
  19 C :   -0.063588
  20 C :   -0.158091
  21 H :    0.006257
  22 C :    0.097759
  23 H :    0.010432
  24 H :    0.011916
  25 C :   -0.070755
  26 H :    0.030501
  27 H :    0.036874
  28 C :   -0.060323
  29 H :    0.015984
  30 H :    0.049156
  31 H :    0.024996
  32 H :    0.046075
  33 H :    0.052492
Sum of atomic charges:    0.0000000

LOEWDIN ATOMIC CHARGES
----------------------
   0 S :    0.377743
   1 C :   -0.178454
   2 C :   -0.064957
   3 C :   -0.060397
   4 C :   -0.192337
   5 H :    0.035543
   6 C :   -0.041076
   7 H :    0.039807
   8 H :    0.029717
   9 C :   -0.051224
  10 H :    0.024970
  11 H :    0.030764
  12 C :   -0.051068
  13 H :    0.032029
  14 H :    0.029114
  15 H :    0.010158
  16 S :    0.392693
  17 C :   -0.178415
  18 C :   -0.064547
  19 C :   -0.053540
  20 C :   -0.191583
  21 H :    0.026448
  22 C :   -0.035904
  23 H :    0.029387
  24 H :    0.025662
  25 C :   -0.040357
  26 H :    0.024582
  27 H :    0.027475
  28 C :   -0.075525
  29 H :    0.017812
  30 H :    0.036321
  31 H :    0.027338
  32 H :    0.034465
  33 H :    0.027354

  Mayer bond orders larger than 0.100000
B(  0-S ,  1-C ) :   1.0939 B(  0-S ,  4-C ) :   1.1393 B(  1-C ,  2-C ) :   1.6825
B(  1-C , 32-H ) :   0.9775 B(  2-C ,  3-C ) :   1.1878 B(  2-C ,  6-C ) :   0.9843
B(  3-C ,  4-C ) :   1.5883 B(  3-C ,  5-H ) :   0.9935 B(  4-C , 20-C ) :   1.0356
B(  6-C ,  7-H ) :   0.9364 B(  6-C ,  8-H ) :   0.9428 B(  6-C ,  9-C ) :   1.0929
B(  9-C , 10-H ) :   0.9391 B(  9-C , 11-H ) :   0.9582 B(  9-C , 12-C ) :   1.0648
B( 12-C , 13-H ) :   0.9773 B( 12-C , 14-H ) :   0.9736 B( 12-C , 15-H ) :   0.9711
B( 16-S , 17-C ) :   1.1420 B( 16-S , 20-C ) :   1.1390 B( 17-C , 18-C ) :   1.5925
B( 17-C , 33-H ) :   0.9717 B( 18-C , 19-C ) :   1.2658 B( 18-C , 21-H ) :   0.9902
B( 19-C , 20-C ) :   1.5894 B( 19-C , 22-C ) :   1.0587 B( 22-C , 23-H ) :   0.9261
B( 22-C , 24-H ) :   0.9246 B( 22-C , 25-C ) :   1.0538 B( 25-C , 26-H ) :   0.9565
B( 25-C , 27-H ) :   0.9607 B( 25-C , 28-C ) :   1.0722 B( 28-C , 29-H ) :   0.9755
B( 28-C , 30-H ) :   0.9764 B( 28-C , 31-H ) :   0.9745

Dispersion correction           -0.013721741
FINAL SINGLE POINT ENERGY     -1339.854939835102

DIPOLE MOMENT
-------------
                                X             Y             Z
Electronic contribution:    -12.95906      12.45665      17.42617
Nuclear contribution   :     13.20660     -12.65545     -18.05519
                        -----------------------------------------
Total Dipole Moment    :      0.24753      -0.19880      -0.62902
                        -----------------------------------------
Magnitude (a.u.)       :      0.70460
Magnitude (Debye)      :      1.79094

Rotational constants in cm-1:     0.017459     0.007948     0.006894
Rotational constants in MHz :   523.421028   238.287826   206.683617

                             ****ORCA TERMINATED NORMALLY****
TOTAL RUN TIME: 0 days 0 hours 0 minutes 21 seconds 257 msec
