                         Program Version 4.2.1 -  RELEASE  -
|  1> ! wB97X-D3 SP def2-SVP
|  2> %pal
|  3> nprocs 24
|  4> end
|  5>
|  6> * xyz 0 1
|  7> S 	 -82.3957 	 -31.5386 	 -56.2008
|  8> C 	 -80.7643 	 -31.5124 	 -56.6686
|  9> C 	 -80.0908 	 -30.4073 	 -56.2061
| 10> C 	 -80.9171 	 -29.5642 	 -55.4205
| 11> C 	 -82.2389 	 -30.0008 	 -55.3256
| 12> H 	 -80.5977 	 -28.6465 	 -55.0213
| 13> C 	 -78.614 	 -30.1214 	 -56.4243
| 14> H 	 -78.119 	 -31.0401 	 -56.7346
| 15> H 	 -78.3002 	 -29.8553 	 -55.4081
| 16> C 	 -78.1426 	 -29.0114 	 -57.426
| 17> H 	 -77.0633 	 -28.791 	 -57.4637
| 18> H 	 -78.3976 	 -29.3692 	 -58.4395
| 19> C 	 -78.7078 	 -27.584 	 -57.2036
| 20> H 	 -78.458 	 -27.3943 	 -56.1869
| 21> H 	 -78.3211 	 -26.7942 	 -57.8547
| 22> H 	 -79.7241 	 -27.5948 	 -57.2058
| 23> S 	 -84.8856 	 -29.3551 	 -55.402
| 24> C 	 -85.5704 	 -28.2384 	 -54.2149
| 25> C 	 -84.707 	 -28.0896 	 -53.1266
| 26> C 	 -83.4329 	 -28.6826 	 -53.3366
| 27> C 	 -83.3882 	 -29.4816 	 -54.5004
| 28> H 	 -85.017 	 -27.4923 	 -52.2165
| 29> C 	 -82.2304 	 -28.5159 	 -52.3955
| 30> H 	 -81.4727 	 -27.8021 	 -52.7421
| 31> H 	 -81.7671 	 -29.5431 	 -52.306
| 32> C 	 -82.5081 	 -28.0901 	 -51.0258
| 33> H 	 -83.3559 	 -28.678 	 -50.5711
| 34> H 	 -82.8018 	 -27.0686 	 -51.1144
| 35> C 	 -81.2982 	 -28.3335 	 -50.0674
| 36> H 	 -80.4308 	 -27.6795 	 -50.2376
| 37> H 	 -81.0117 	 -29.3868 	 -50.132
| 38> H 	 -81.5473 	 -28.0642 	 -49.0273
| 39> H 	 -80.1611 	 -32.173 	 -57.3254
| 40> H 	 -86.6187 	 -28.0806 	 -54.1417
| 41> *
| 42>
| 43>                          ****END OF INPUT****

CARTESIAN COORDINATES (ANGSTROEM)
---------------------------------
  S    -82.395700  -31.538600  -56.200800
  C    -80.764300  -31.512400  -56.668600
  C    -80.090800  -30.407300  -56.206100
  C    -80.917100  -29.564200  -55.420500
  C    -82.238900  -30.000800  -55.325600
  H    -80.597700  -28.646500  -55.021300
  C    -78.614000  -30.121400  -56.424300
  H    -78.119000  -31.040100  -56.734600
  H    -78.300200  -29.855300  -55.408100
  C    -78.142600  -29.011400  -57.426000
  H    -77.063300  -28.791000  -57.463700
  H    -78.397600  -29.369200  -58.439500
  C    -78.707800  -27.584000  -57.203600
  H    -78.458000  -27.394300  -56.186900
  H    -78.321100  -26.794200  -57.854700
  H    -79.724100  -27.594800  -57.205800
  S    -84.885600  -29.355100  -55.402000
  C    -85.570400  -28.238400  -54.214900
  C    -84.707000  -28.089600  -53.126600
  C    -83.432900  -28.682600  -53.336600
  C    -83.388200  -29.481600  -54.500400
  H    -85.017000  -27.492300  -52.216500
  C    -82.230400  -28.515900  -52.395500
  H    -81.472700  -27.802100  -52.742100
  H    -81.767100  -29.543100  -52.306000
  C    -82.508100  -28.090100  -51.025800
  H    -83.355900  -28.678000  -50.571100
  H    -82.801800  -27.068600  -51.114400
  C    -81.298200  -28.333500  -50.067400
  H    -80.430800  -27.679500  -50.237600
  H    -81.011700  -29.386800  -50.132000
  H    -81.547300  -28.064200  -49.027300
  H    -80.161100  -32.173000  -57.325400
  H    -86.618700  -28.080600  -54.141700

 Total Charge           Charge          ....    0
 Multiplicity           Mult            ....    1
 Number of Electrons    NEL             ....  134
 Basis Dimension        Dim             ....  322

ORBITAL ENERGIES
----------------

  NO   OCC          E(Eh)            E(eV)
   0   2.0000     -88.969738     -2420.9896
   1   2.0000     -88.967096     -2420.9178
   2   2.0000     -10.337303      -281.2923
   3   2.0000     -10.334741      -281.2226
   4   2.0000     -10.319646      -280.8118
   5   2.0000     -10.312049      -280.6051
   6   2.0000     -10.311274      -280.5840
   7   2.0000     -10.304838      -280.4089
   8   2.0000     -10.297912      -280.2204
   9   2.0000     -10.297502      -280.2093
  10   2.0000     -10.293225      -280.0929
  11   2.0000     -10.292930      -280.0849
  12   2.0000     -10.291641      -280.0498
  13   2.0000     -10.285837      -279.8919
  14   2.0000     -10.285140      -279.8729
  15   2.0000     -10.266948      -279.3779
  16   2.0000      -8.084645      -219.9944
  17   2.0000      -8.081579      -219.9109
  18   2.0000      -6.043145      -164.4423
  19   2.0000      -6.040092      -164.3593
  20   2.0000      -6.039100      -164.3323
  21   2.0000      -6.035989      -164.2476
  22   2.0000      -6.035430      -164.2324
  23   2.0000      -6.032471      -164.1519
  24   2.0000      -1.006226       -27.3808
  25   2.0000      -0.986048       -26.8317
  26   2.0000      -0.918754       -25.0006
  27   2.0000      -0.906319       -24.6622
  28   2.0000      -0.866358       -23.5748
  29   2.0000      -0.852595       -23.2003
  30   2.0000      -0.845734       -23.0136
  31   2.0000      -0.817410       -22.2429
  32   2.0000      -0.784029       -21.3345
  33   2.0000      -0.774169       -21.0662
  34   2.0000      -0.704380       -19.1672
  35   2.0000      -0.699883       -19.0448
  36   2.0000      -0.697628       -18.9834
  37   2.0000      -0.652303       -17.7501
  38   2.0000      -0.636129       -17.3099
  39   2.0000      -0.620564       -16.8864
  40   2.0000      -0.600394       -16.3376
  41   2.0000      -0.582998       -15.8642
  42   2.0000      -0.569170       -15.4879
  43   2.0000      -0.551521       -15.0077
  44   2.0000      -0.543948       -14.8016
  45   2.0000      -0.521000       -14.1771
  46   2.0000      -0.513327       -13.9683
  47   2.0000      -0.510554       -13.8929
  48   2.0000      -0.503427       -13.6989
  49   2.0000      -0.497123       -13.5274
  50   2.0000      -0.489400       -13.3173
  51   2.0000      -0.478792       -13.0286
  52   2.0000      -0.472898       -12.8682
  53   2.0000      -0.468636       -12.7522
  54   2.0000      -0.462943       -12.5973
  55   2.0000      -0.450516       -12.2592
  56   2.0000      -0.444684       -12.1005
  57   2.0000      -0.436841       -11.8870
  58   2.0000      -0.426385       -11.6025
  59   2.0000      -0.424798       -11.5593
  60   2.0000      -0.424407       -11.5487
  61   2.0000      -0.416846       -11.3430
  62   2.0000      -0.414124       -11.2689
  63   2.0000      -0.353800        -9.6274
  64   2.0000      -0.334534        -9.1031
  65   2.0000      -0.329749        -8.9729
  66   2.0000      -0.291242        -7.9251
  67   0.0000       0.022091         0.6011
  68   0.0000       0.070123         1.9081
  69   0.0000       0.109229         2.9723
  70   0.0000       0.117277         3.1913
  71   0.0000       0.131494         3.5781

MULLIKEN ATOMIC CHARGES
-----------------------
   0 S :    0.118070
   1 C :   -0.099881
   2 C :   -0.121167
   3 C :    0.031789
   4 C :   -0.128960
   5 H :   -0.012682
   6 C :    0.067659
   7 H :    0.022242
   8 H :    0.030684
   9 C :   -0.082399
  10 H :    0.037044
  11 H :    0.024564
  12 C :   -0.025858
  13 H :    0.007567
  14 H :    0.044250
  15 H :    0.017928
  16 S :    0.092362
  17 C :   -0.074236
  18 C :   -0.071788
  19 C :   -0.054885
  20 C :   -0.112469
  21 H :    0.049930
  22 C :    0.038495
  23 H :    0.042207
  24 H :    0.041068
  25 C :   -0.109289
  26 H :    0.038050
  27 H :    0.024790
  28 C :   -0.046791
  29 H :    0.029958
  30 H :    0.041066
  31 H :    0.034098
  32 H :    0.048851
  33 H :    0.057733
Sum of atomic charges:    0.0000000

LOEWDIN ATOMIC CHARGES
----------------------
   0 S :    0.420189
   1 C :   -0.220371
   2 C :   -0.071919
   3 C :   -0.057259
   4 C :   -0.185210
   5 H :    0.021260
   6 C :   -0.028974
   7 H :    0.031494
   8 H :    0.032323
   9 C :   -0.039752
  10 H :    0.028493
  11 H :    0.020252
  12 C :   -0.059525
  13 H :    0.018777
  14 H :    0.031778
  15 H :    0.009193
  16 S :    0.406929
  17 C :   -0.181060
  18 C :   -0.076046
  19 C :   -0.057076
  20 C :   -0.197377
  21 H :    0.044931
  22 C :   -0.041463
  23 H :    0.033239
  24 H :    0.039087
  25 C :   -0.049166
  26 H :    0.029105
  27 H :    0.017809
  28 C :   -0.064046
  29 H :    0.024634
  30 H :    0.027892
  31 H :    0.028901
  32 H :    0.039790
  33 H :    0.023166

  Mayer bond orders larger than 0.100000
B(  0-S ,  1-C ) :   1.1505 B(  0-S ,  4-C ) :   1.1513 B(  1-C ,  2-C ) :   1.6216
B(  1-C , 32-H ) :   0.9525 B(  2-C ,  3-C ) :   1.2591 B(  2-C ,  6-C ) :   1.0124
B(  3-C ,  4-C ) :   1.5644 B(  3-C ,  5-H ) :   1.0027 B(  4-C , 20-C ) :   0.9936
B(  6-C ,  7-H ) :   0.9414 B(  6-C ,  8-H ) :   0.9419 B(  6-C ,  9-C ) :   1.0639
B(  9-C , 10-H ) :   0.9616 B(  9-C , 11-H ) :   0.9567 B(  9-C , 12-C ) :   1.0727
B( 12-C , 13-H ) :   0.9728 B( 12-C , 14-H ) :   0.9733 B( 12-C , 15-H ) :   0.9744
B( 16-S , 17-C ) :   1.1685 B( 16-S , 20-C ) :   1.1551 B( 17-C , 18-C ) :   1.5798
B( 17-C , 20-C ) :   0.1100 B( 17-C , 33-H ) :   0.9601 B( 18-C , 19-C ) :   1.2791
B( 18-C , 21-H ) :   0.9746 B( 19-C , 20-C ) :   1.5831 B( 19-C , 22-C ) :   1.0130
B( 22-C , 23-H ) :   0.9276 B( 22-C , 24-H ) :   0.9442 B( 22-C , 25-C ) :   1.0867
B( 25-C , 26-H ) :   0.9556 B( 25-C , 27-H ) :   0.9422 B( 25-C , 28-C ) :   1.0812
B( 28-C , 29-H ) :   0.9741 B( 28-C , 30-H ) :   0.9744 B( 28-C , 31-H ) :   0.9740

Dispersion correction           -0.013820843
FINAL SINGLE POINT ENERGY     -1339.868575091232

DIPOLE MOMENT
-------------
                                X             Y             Z
Electronic contribution:    -22.22801     -12.96160     -11.54124
Nuclear contribution   :     22.69088      13.33501      11.94029
                        -----------------------------------------
Total Dipole Moment    :      0.46287       0.37342       0.39905
                        -----------------------------------------
Magnitude (a.u.)       :      0.71619
Magnitude (Debye)      :      1.82042

Rotational constants in cm-1:     0.016165     0.008809     0.006844
Rotational constants in MHz :   484.622611   264.084909   205.164492

                             ****ORCA TERMINATED NORMALLY****
TOTAL RUN TIME: 0 days 0 hours 0 minutes 21 seconds 297 msec
