                         Program Version 4.2.1 -  RELEASE  -
|  1> ! wB97X-D3 SP def2-SVP
|  2> %pal
|  3> nprocs 24
|  4> end
|  5>
|  6> * xyz 0 1
|  7> S 	 -42.9279 	 -2.007 	 -27.3667
|  8> C 	 -43.7956 	 -0.801283 	 -26.526
|  9> C 	 -44.3986 	 -1.30163 	 -25.3523
| 10> C 	 -44.1647 	 -2.6828 	 -25.2541
| 11> C 	 -43.4052 	 -3.203 	 -26.2172
| 12> H 	 -44.6229 	 -3.29868 	 -24.4544
| 13> C 	 -45.206 	 -0.507483 	 -24.3345
| 14> H 	 -44.4337 	 -0.374518 	 -23.6162
| 15> H 	 -46.0104 	 -1.13414 	 -23.8901
| 16> C 	 -45.7753 	 0.836329 	 -24.7974
| 17> H 	 -46.3313 	 1.12938 	 -23.9084
| 18> H 	 -45.076 	 1.59806 	 -25.0644
| 19> C 	 -46.9215 	 0.837146 	 -25.8396
| 20> H 	 -46.5768 	 0.350557 	 -26.7458
| 21> H 	 -47.7936 	 0.35387 	 -25.4446
| 22> H 	 -47.2283 	 1.85656 	 -26.0763
| 23> S 	 -42.3248 	 -4.95074 	 -27.9963
| 24> C 	 -42.3164 	 -6.69141 	 -27.6356
| 25> C 	 -42.6423 	 -6.90509 	 -26.3904
| 26> C 	 -42.8776 	 -5.70002 	 -25.6339
| 27> C 	 -43.0432 	 -4.59073 	 -26.4432
| 28> H 	 -42.6707 	 -7.92689 	 -26.0615
| 29> C 	 -43.0838 	 -5.78545 	 -24.2049
| 30> H 	 -44.0874 	 -5.48944 	 -24.0706
| 31> H 	 -42.638 	 -4.94689 	 -23.7014
| 32> C 	 -42.648 	 -7.02545 	 -23.4869
| 33> H 	 -41.5917 	 -7.12267 	 -23.7159
| 34> H 	 -43.1603 	 -7.92909 	 -23.8155
| 35> C 	 -42.7687 	 -6.812 	 -21.9484
| 36> H 	 -43.827 	 -6.61175 	 -21.6229
| 37> H 	 -42.2611 	 -5.92896 	 -21.7071
| 38> H 	 -42.3068 	 -7.72758 	 -21.4438
| 39> H 	 -43.8943 	 0.254018 	 -26.8106
| 40> H 	 -41.8172 	 -7.30446 	 -28.3185
| 41> *
| 42>
| 43>                          ****END OF INPUT****

CARTESIAN COORDINATES (ANGSTROEM)
---------------------------------
  S    -42.927900   -2.007000  -27.366700
  C    -43.795600   -0.801283  -26.526000
  C    -44.398600   -1.301630  -25.352300
  C    -44.164700   -2.682800  -25.254100
  C    -43.405200   -3.203000  -26.217200
  H    -44.622900   -3.298680  -24.454400
  C    -45.206000   -0.507483  -24.334500
  H    -44.433700   -0.374518  -23.616200
  H    -46.010400   -1.134140  -23.890100
  C    -45.775300    0.836329  -24.797400
  H    -46.331300    1.129380  -23.908400
  H    -45.076000    1.598060  -25.064400
  C    -46.921500    0.837146  -25.839600
  H    -46.576800    0.350557  -26.745800
  H    -47.793600    0.353870  -25.444600
  H    -47.228300    1.856560  -26.076300
  S    -42.324800   -4.950740  -27.996300
  C    -42.316400   -6.691410  -27.635600
  C    -42.642300   -6.905090  -26.390400
  C    -42.877600   -5.700020  -25.633900
  C    -43.043200   -4.590730  -26.443200
  H    -42.670700   -7.926890  -26.061500
  C    -43.083800   -5.785450  -24.204900
  H    -44.087400   -5.489440  -24.070600
  H    -42.638000   -4.946890  -23.701400
  C    -42.648000   -7.025450  -23.486900
  H    -41.591700   -7.122670  -23.715900
  H    -43.160300   -7.929090  -23.815500
  C    -42.768700   -6.812000  -21.948400
  H    -43.827000   -6.611750  -21.622900
  H    -42.261100   -5.928960  -21.707100
  H    -42.306800   -7.727580  -21.443800
  H    -43.894300    0.254018  -26.810600
  H    -41.817200   -7.304460  -28.318500

 Total Charge           Charge          ....    0
 Multiplicity           Mult            ....    1
 Number of Electrons    NEL             ....  134
 Basis Dimension        Dim             ....  322

ORBITAL ENERGIES
----------------

  NO   OCC          E(Eh)            E(eV)
   0   2.0000     -88.965105     -2420.8636
   1   2.0000     -88.951282     -2420.4874
   2   2.0000     -10.321881      -280.8727
   3   2.0000     -10.321507      -280.8625
   4   2.0000     -10.311013      -280.5769
   5   2.0000     -10.305238      -280.4198
   6   2.0000     -10.298558      -280.2380
   7   2.0000     -10.298428      -280.2345
   8   2.0000     -10.296452      -280.1807
   9   2.0000     -10.287971      -279.9499
  10   2.0000     -10.287315      -279.9321
  11   2.0000     -10.286710      -279.9156
  12   2.0000     -10.286514      -279.9103
  13   2.0000     -10.285151      -279.8732
  14   2.0000     -10.278297      -279.6867
  15   2.0000     -10.274991      -279.5967
  16   2.0000      -8.081018      -219.8957
  17   2.0000      -8.066832      -219.5097
  18   2.0000      -6.039535      -164.3441
  19   2.0000      -6.035394      -164.2314
  20   2.0000      -6.031667      -164.1300
  21   2.0000      -6.025444      -163.9607
  22   2.0000      -6.021519      -163.8539
  23   2.0000      -6.017161      -163.7353
  24   2.0000      -1.016405       -27.6578
  25   2.0000      -0.991805       -26.9884
  26   2.0000      -0.921926       -25.0869
  27   2.0000      -0.914090       -24.8737
  28   2.0000      -0.874535       -23.7973
  29   2.0000      -0.858844       -23.3703
  30   2.0000      -0.845455       -23.0060
  31   2.0000      -0.822027       -22.3685
  32   2.0000      -0.785159       -21.3653
  33   2.0000      -0.771668       -20.9981
  34   2.0000      -0.715517       -19.4702
  35   2.0000      -0.705867       -19.2076
  36   2.0000      -0.698750       -19.0140
  37   2.0000      -0.656228       -17.8569
  38   2.0000      -0.633545       -17.2396
  39   2.0000      -0.621291       -16.9062
  40   2.0000      -0.607946       -16.5431
  41   2.0000      -0.582924       -15.8622
  42   2.0000      -0.576551       -15.6888
  43   2.0000      -0.558713       -15.2033
  44   2.0000      -0.543748       -14.7961
  45   2.0000      -0.534054       -14.5324
  46   2.0000      -0.517536       -14.0829
  47   2.0000      -0.512777       -13.9534
  48   2.0000      -0.502223       -13.6662
  49   2.0000      -0.498539       -13.5659
  50   2.0000      -0.486050       -13.2261
  51   2.0000      -0.482167       -13.1204
  52   2.0000      -0.475127       -12.9289
  53   2.0000      -0.468622       -12.7519
  54   2.0000      -0.458188       -12.4679
  55   2.0000      -0.455986       -12.4080
  56   2.0000      -0.446851       -12.1594
  57   2.0000      -0.443028       -12.0554
  58   2.0000      -0.434725       -11.8295
  59   2.0000      -0.432622       -11.7723
  60   2.0000      -0.428941       -11.6721
  61   2.0000      -0.408570       -11.1178
  62   2.0000      -0.404548       -11.0083
  63   2.0000      -0.363484        -9.8909
  64   2.0000      -0.336605        -9.1595
  65   2.0000      -0.316620        -8.6157
  66   2.0000      -0.279395        -7.6027
  67   0.0000       0.024034         0.6540
  68   0.0000       0.090266         2.4563
  69   0.0000       0.099820         2.7163
  70   0.0000       0.130898         3.5619
  71   0.0000       0.137038         3.7290

MULLIKEN ATOMIC CHARGES
-----------------------
   0 S :    0.118398
   1 C :   -0.126015
   2 C :   -0.113746
   3 C :   -0.058906
   4 C :   -0.080203
   5 H :    0.010853
   6 C :    0.089976
   7 H :    0.039543
   8 H :    0.034422
   9 C :   -0.092644
  10 H :    0.025980
  11 H :    0.032588
  12 C :   -0.036877
  13 H :    0.034757
  14 H :    0.023787
  15 H :    0.031601
  16 S :    0.036955
  17 C :   -0.047878
  18 C :   -0.026745
  19 C :   -0.054960
  20 C :   -0.093593
  21 H :    0.017115
  22 C :    0.046903
  23 H :    0.021181
  24 H :    0.007225
  25 C :   -0.067301
  26 H :    0.032711
  27 H :    0.037685
  28 C :   -0.037957
  29 H :    0.035217
  30 H :    0.017282
  31 H :    0.052326
  32 H :    0.050683
  33 H :    0.039640
Sum of atomic charges:    0.0000000

LOEWDIN ATOMIC CHARGES
----------------------
   0 S :    0.430708
   1 C :   -0.222332
   2 C :   -0.062411
   3 C :   -0.078723
   4 C :   -0.194556
   5 H :    0.034792
   6 C :   -0.029140
   7 H :    0.037865
   8 H :    0.036473
   9 C :   -0.044730
  10 H :    0.030951
  11 H :    0.020176
  12 C :   -0.059163
  13 H :    0.021392
  14 H :    0.021121
  15 H :    0.027551
  16 S :    0.361142
  17 C :   -0.152128
  18 C :   -0.072372
  19 C :   -0.051917
  20 C :   -0.185330
  21 H :    0.034140
  22 C :   -0.047250
  23 H :    0.028522
  24 H :    0.033139
  25 C :   -0.036244
  26 H :    0.028459
  27 H :    0.021978
  28 C :   -0.061593
  29 H :    0.029437
  30 H :    0.014835
  31 H :    0.037038
  32 H :    0.030012
  33 H :    0.018156

  Mayer bond orders larger than 0.100000
B(  0-S ,  1-C ) :   1.1465 B(  0-S ,  4-C ) :   1.1416 B(  1-C ,  2-C ) :   1.5959
B(  1-C , 32-H ) :   0.9602 B(  2-C ,  3-C ) :   1.2754 B(  2-C ,  6-C ) :   0.9910
B(  3-C ,  4-C ) :   1.5756 B(  3-C ,  5-H ) :   0.9928 B(  4-C , 20-C ) :   1.0862
B(  6-C ,  7-H ) :   0.9269 B(  6-C ,  8-H ) :   0.9448 B(  6-C ,  9-C ) :   1.0877
B(  9-C , 10-H ) :   0.9533 B(  9-C , 11-H ) :   0.9542 B(  9-C , 12-C ) :   1.0785
B( 12-C , 13-H ) :   0.9772 B( 12-C , 14-H ) :   0.9763 B( 12-C , 15-H ) :   0.9742
B( 16-S , 17-C ) :   1.1284 B( 16-S , 20-C ) :   1.1099 B( 17-C , 18-C ) :   1.6511
B( 17-C , 33-H ) :   0.9736 B( 18-C , 19-C ) :   1.1907 B( 18-C , 21-H ) :   0.9915
B( 19-C , 20-C ) :   1.6007 B( 19-C , 22-C ) :   1.0617 B( 22-C , 23-H ) :   0.9088
B( 22-C , 24-H ) :   0.9127 B( 22-C , 25-C ) :   1.0801 B( 25-C , 26-H ) :   0.9526
B( 25-C , 27-H ) :   0.9422 B( 25-C , 28-C ) :   1.0806 B( 28-C , 29-H ) :   0.9750
B( 28-C , 30-H ) :   0.9731 B( 28-C , 31-H ) :   0.9734

Dispersion correction           -0.013535489
FINAL SINGLE POINT ENERGY     -1339.860967217552

DIPOLE MOMENT
-------------
                                X             Y             Z
Electronic contribution:     11.91678      -3.42122     -22.50848
Nuclear contribution   :    -12.14936       3.37502      23.28803
                        -----------------------------------------
Total Dipole Moment    :     -0.23258      -0.04620       0.77955
                        -----------------------------------------
Magnitude (a.u.)       :      0.81482
Magnitude (Debye)      :      2.07110

Rotational constants in cm-1:     0.020461     0.007819     0.005953
Rotational constants in MHz :   613.393483   234.420416   178.471579

                             ****ORCA TERMINATED NORMALLY****
TOTAL RUN TIME: 0 days 0 hours 0 minutes 22 seconds 541 msec
