                         Program Version 4.2.1 -  RELEASE  -
|  1> ! wB97X-D3 SP def2-SVP
|  2> %pal
|  3> nprocs 24
|  4> end
|  5>
|  6> * xyz 0 1
|  7> S 	 -69.4032 	 -54.2886 	 -83.6062
|  8> C 	 -70.1736 	 -55.1507 	 -84.858
|  9> C 	 -70.8114 	 -56.2808 	 -84.3991
| 10> C 	 -70.6735 	 -56.4314 	 -82.9845
| 11> C 	 -69.7564 	 -55.5756 	 -82.344
| 12> H 	 -71.1778 	 -57.1602 	 -82.3034
| 13> C 	 -71.6107 	 -57.2057 	 -85.2034
| 14> H 	 -72.3237 	 -56.6546 	 -85.8447
| 15> H 	 -72.1372 	 -57.8574 	 -84.5544
| 16> C 	 -70.8124 	 -58.1375 	 -86.0455
| 17> H 	 -70.0771 	 -57.6549 	 -86.631
| 18> H 	 -70.2833 	 -58.8498 	 -85.374
| 19> C 	 -71.7467 	 -58.8696 	 -86.9804
| 20> H 	 -72.0326 	 -58.3587 	 -87.8901
| 21> H 	 -71.2316 	 -59.8819 	 -87.3192
| 22> H 	 -72.6152 	 -59.2993 	 -86.4043
| 23> S 	 -69.4119 	 -53.6065 	 -80.5044
| 24> C 	 -69.4206 	 -53.9927 	 -78.7316
| 25> C 	 -69.3057 	 -55.3307 	 -78.6124
| 26> C 	 -69.2579 	 -56.0964 	 -79.8498
| 27> C 	 -69.5234 	 -55.2805 	 -80.9548
| 28> H 	 -69.0874 	 -55.7923 	 -77.6924
| 29> C 	 -68.9467 	 -57.5724 	 -79.8125
| 30> H 	 -68.78 	 -57.7962 	 -80.8507
| 31> H 	 -69.851 	 -58.0036 	 -79.4246
| 32> C 	 -67.8106 	 -58.0514 	 -78.7989
| 33> H 	 -68.0032 	 -57.6896 	 -77.7975
| 34> H 	 -66.8174 	 -57.6354 	 -79.0032
| 35> C 	 -67.5471 	 -59.5569 	 -78.8039
| 36> H 	 -67.4164 	 -59.805 	 -79.8813
| 37> H 	 -68.4666 	 -60.0762 	 -78.5085
| 38> H 	 -66.7258 	 -59.8679 	 -78.2336
| 39> H 	 -70.1627 	 -54.8878 	 -85.8673
| 40> H 	 -69.2786 	 -53.3566 	 -77.8673
| 41> *
| 42>
| 43>                          ****END OF INPUT****

CARTESIAN COORDINATES (ANGSTROEM)
---------------------------------
  S    -69.403200  -54.288600  -83.606200
  C    -70.173600  -55.150700  -84.858000
  C    -70.811400  -56.280800  -84.399100
  C    -70.673500  -56.431400  -82.984500
  C    -69.756400  -55.575600  -82.344000
  H    -71.177800  -57.160200  -82.303400
  C    -71.610700  -57.205700  -85.203400
  H    -72.323700  -56.654600  -85.844700
  H    -72.137200  -57.857400  -84.554400
  C    -70.812400  -58.137500  -86.045500
  H    -70.077100  -57.654900  -86.631000
  H    -70.283300  -58.849800  -85.374000
  C    -71.746700  -58.869600  -86.980400
  H    -72.032600  -58.358700  -87.890100
  H    -71.231600  -59.881900  -87.319200
  H    -72.615200  -59.299300  -86.404300
  S    -69.411900  -53.606500  -80.504400
  C    -69.420600  -53.992700  -78.731600
  C    -69.305700  -55.330700  -78.612400
  C    -69.257900  -56.096400  -79.849800
  C    -69.523400  -55.280500  -80.954800
  H    -69.087400  -55.792300  -77.692400
  C    -68.946700  -57.572400  -79.812500
  H    -68.780000  -57.796200  -80.850700
  H    -69.851000  -58.003600  -79.424600
  C    -67.810600  -58.051400  -78.798900
  H    -68.003200  -57.689600  -77.797500
  H    -66.817400  -57.635400  -79.003200
  C    -67.547100  -59.556900  -78.803900
  H    -67.416400  -59.805000  -79.881300
  H    -68.466600  -60.076200  -78.508500
  H    -66.725800  -59.867900  -78.233600
  H    -70.162700  -54.887800  -85.867300
  H    -69.278600  -53.356600  -77.867300

 Total Charge           Charge          ....    0
 Multiplicity           Mult            ....    1
 Number of Electrons    NEL             ....  134
 Basis Dimension        Dim             ....  322

ORBITAL ENERGIES
----------------

  NO   OCC          E(Eh)            E(eV)
   0   2.0000     -88.963903     -2420.8309
   1   2.0000     -88.962025     -2420.7798
   2   2.0000     -10.337342      -281.2934
   3   2.0000     -10.329851      -281.0895
   4   2.0000     -10.318426      -280.7786
   5   2.0000     -10.310795      -280.5710
   6   2.0000     -10.304819      -280.4084
   7   2.0000     -10.304684      -280.4047
   8   2.0000     -10.297572      -280.2112
   9   2.0000     -10.296056      -280.1699
  10   2.0000     -10.292596      -280.0758
  11   2.0000     -10.288380      -279.9611
  12   2.0000     -10.288006      -279.9509
  13   2.0000     -10.283350      -279.8242
  14   2.0000     -10.281400      -279.7711
  15   2.0000     -10.278482      -279.6917
  16   2.0000      -8.078368      -219.8236
  17   2.0000      -8.076229      -219.7654
  18   2.0000      -6.036985      -164.2747
  19   2.0000      -6.035168      -164.2253
  20   2.0000      -6.032880      -164.1630
  21   2.0000      -6.030985      -164.1114
  22   2.0000      -6.029040      -164.0585
  23   2.0000      -6.026342      -163.9851
  24   2.0000      -1.004821       -27.3426
  25   2.0000      -0.983315       -26.7574
  26   2.0000      -0.925453       -25.1829
  27   2.0000      -0.905237       -24.6327
  28   2.0000      -0.877336       -23.8735
  29   2.0000      -0.853716       -23.2308
  30   2.0000      -0.846345       -23.0302
  31   2.0000      -0.821254       -22.3475
  32   2.0000      -0.776342       -21.1253
  33   2.0000      -0.768250       -20.9051
  34   2.0000      -0.710946       -19.3458
  35   2.0000      -0.705119       -19.1873
  36   2.0000      -0.699014       -19.0211
  37   2.0000      -0.661886       -18.0108
  38   2.0000      -0.645983       -17.5781
  39   2.0000      -0.616203       -16.7677
  40   2.0000      -0.591816       -16.1041
  41   2.0000      -0.585272       -15.9261
  42   2.0000      -0.568874       -15.4798
  43   2.0000      -0.564546       -15.3621
  44   2.0000      -0.535645       -14.5757
  45   2.0000      -0.524464       -14.2714
  46   2.0000      -0.519079       -14.1249
  47   2.0000      -0.514336       -13.9958
  48   2.0000      -0.511713       -13.9244
  49   2.0000      -0.509214       -13.8564
  50   2.0000      -0.490004       -13.3337
  51   2.0000      -0.481666       -13.1068
  52   2.0000      -0.473651       -12.8887
  53   2.0000      -0.461526       -12.5588
  54   2.0000      -0.456861       -12.4318
  55   2.0000      -0.454024       -12.3546
  56   2.0000      -0.442610       -12.0440
  57   2.0000      -0.434937       -11.8352
  58   2.0000      -0.428361       -11.6563
  59   2.0000      -0.422769       -11.5041
  60   2.0000      -0.420503       -11.4425
  61   2.0000      -0.418892       -11.3986
  62   2.0000      -0.408940       -11.1278
  63   2.0000      -0.362686        -9.8692
  64   2.0000      -0.332162        -9.0386
  65   2.0000      -0.318692        -8.6720
  66   2.0000      -0.283263        -7.7080
  67   0.0000       0.016902         0.4599
  68   0.0000       0.072534         1.9738
  69   0.0000       0.096954         2.6382
  70   0.0000       0.118736         3.2310
  71   0.0000       0.134516         3.6604

MULLIKEN ATOMIC CHARGES
-----------------------
   0 S :    0.079505
   1 C :   -0.068168
   2 C :   -0.090761
   3 C :    0.006567
   4 C :   -0.150682
   5 H :    0.033370
   6 C :    0.087160
   7 H :    0.032780
   8 H :    0.003521
   9 C :   -0.047800
  10 H :    0.016061
  11 H :    0.028796
  12 C :   -0.089736
  13 H :    0.047614
  14 H :    0.035316
  15 H :    0.033235
  16 S :    0.080897
  17 C :   -0.069811
  18 C :   -0.014142
  19 C :   -0.077828
  20 C :   -0.135182
  21 H :   -0.001446
  22 C :    0.101615
  23 H :    0.028980
  24 H :    0.032797
  25 C :   -0.102989
  26 H :    0.023858
  27 H :    0.030757
  28 C :   -0.027501
  29 H :    0.030336
  30 H :    0.024247
  31 H :    0.035811
  32 H :    0.025216
  33 H :    0.057609
Sum of atomic charges:   -0.0000000

LOEWDIN ATOMIC CHARGES
----------------------
   0 S :    0.387624
   1 C :   -0.186588
   2 C :   -0.071750
   3 C :   -0.057593
   4 C :   -0.173797
   5 H :    0.038378
   6 C :   -0.033693
   7 H :    0.034436
   8 H :    0.026484
   9 C :   -0.039296
  10 H :    0.015442
  11 H :    0.029812
  12 C :   -0.074629
  13 H :    0.023866
  14 H :    0.035402
  15 H :    0.028114
  16 S :    0.377261
  17 C :   -0.166837
  18 C :   -0.064956
  19 C :   -0.057684
  20 C :   -0.202169
  21 H :    0.020293
  22 C :   -0.026011
  23 H :    0.029912
  24 H :    0.033696
  25 C :   -0.039054
  26 H :    0.016645
  27 H :    0.025842
  28 C :   -0.059610
  29 H :    0.031296
  30 H :    0.022755
  31 H :    0.020482
  32 H :    0.019560
  33 H :    0.036366

  Mayer bond orders larger than 0.100000
B(  0-S ,  1-C ) :   1.1592 B(  0-S ,  4-C ) :   1.1201 B(  1-C ,  2-C ) :   1.5798
B(  1-C , 32-H ) :   0.9757 B(  2-C ,  3-C ) :   1.2643 B(  2-C ,  6-C ) :   1.0347
B(  3-C ,  4-C ) :   1.5574 B(  3-C ,  5-H ) :   0.9782 B(  4-C , 20-C ) :   1.0898
B(  6-C ,  7-H ) :   0.9404 B(  6-C ,  8-H ) :   0.9289 B(  6-C ,  9-C ) :   1.0677
B(  9-C , 10-H ) :   0.9575 B(  9-C , 11-H ) :   0.9502 B(  9-C , 12-C ) :   1.0843
B( 12-C , 13-H ) :   0.9757 B( 12-C , 14-H ) :   0.9731 B( 12-C , 15-H ) :   0.9686
B( 16-S , 17-C ) :   1.1082 B( 16-S , 20-C ) :   1.1203 B( 17-C , 18-C ) :   1.6581
B( 17-C , 33-H ) :   0.9662 B( 18-C , 19-C ) :   1.2213 B( 18-C , 21-H ) :   0.9857
B( 19-C , 20-C ) :   1.5873 B( 19-C , 22-C ) :   1.0485 B( 22-C , 23-H ) :   0.9345
B( 22-C , 24-H ) :   0.9278 B( 22-C , 25-C ) :   1.0509 B( 25-C , 26-H ) :   0.9529
B( 25-C , 27-H ) :   0.9586 B( 25-C , 28-C ) :   1.0889 B( 28-C , 29-H ) :   0.9743
B( 28-C , 30-H ) :   0.9751 B( 28-C , 31-H ) :   0.9749

Dispersion correction           -0.012985078
FINAL SINGLE POINT ENERGY     -1339.853244420465

DIPOLE MOMENT
-------------
                                X             Y             Z
Electronic contribution:      1.52924      28.96292       4.29601
Nuclear contribution   :     -1.61392     -29.66875      -4.19442
                        -----------------------------------------
Total Dipole Moment    :     -0.08468      -0.70583       0.10159
                        -----------------------------------------
Magnitude (a.u.)       :      0.71811
Magnitude (Debye)      :      1.82530

Rotational constants in cm-1:     0.018165     0.007692     0.005736
Rotational constants in MHz :   544.568279   230.612742   171.961552

                             ****ORCA TERMINATED NORMALLY****
TOTAL RUN TIME: 0 days 0 hours 0 minutes 20 seconds 731 msec
