                         Program Version 4.2.1 -  RELEASE  -
|  1> ! wB97X-D3 SP def2-SVP
|  2> %pal
|  3> nprocs 24
|  4> end
|  5>
|  6> * xyz 0 1
|  7> S 	 -30.3178 	 15.5775 	 9.43959
|  8> C 	 -30.895 	 13.9918 	 9.71042
|  9> C 	 -29.9247 	 13.1545 	 10.2054
| 10> C 	 -28.6909 	 13.7947 	 10.4406
| 11> C 	 -28.81 	 15.183 	 10.2022
| 12> H 	 -27.7601 	 13.3742 	 10.729
| 13> C 	 -30.0891 	 11.6768 	 10.4099
| 14> H 	 -29.1366 	 11.1561 	 10.6058
| 15> H 	 -30.4223 	 11.3102 	 9.43362
| 16> C 	 -31.1414 	 11.193 	 11.3633
| 17> H 	 -30.9199 	 11.8063 	 12.2451
| 18> H 	 -32.1989 	 11.387 	 11.0898
| 19> C 	 -31.1772 	 9.67863 	 11.7201
| 20> H 	 -30.2235 	 9.55295 	 12.2684
| 21> H 	 -32.025 	 9.44534 	 12.3354
| 22> H 	 -31.3144 	 9.12028 	 10.8326
| 23> S 	 -27.3626 	 17.2539 	 9.43564
| 24> C 	 -26.1284 	 17.914 	 10.5094
| 25> C 	 -26.206 	 17.3613 	 11.7248
| 26> C 	 -27.2584 	 16.4397 	 11.8515
| 27> C 	 -27.9251 	 16.2056 	 10.6561
| 28> H 	 -25.5165 	 17.7149 	 12.4628
| 29> C 	 -27.6017 	 15.8189 	 13.1789
| 30> H 	 -26.9008 	 16.2142 	 13.9293
| 31> H 	 -27.4381 	 14.7245 	 12.99
| 32> C 	 -29.0053 	 16.0684 	 13.7408
| 33> H 	 -29.7594 	 15.5601 	 13.064
| 34> H 	 -29.3212 	 17.0788 	 13.6985
| 35> C 	 -29.1626 	 15.5555 	 15.174
| 36> H 	 -29.024 	 14.4741 	 15.1139
| 37> H 	 -30.133 	 15.706 	 15.6394
| 38> H 	 -28.4675 	 15.9611 	 15.8787
| 39> H 	 -31.8502 	 13.6082 	 9.40197
| 40> H 	 -25.417 	 18.6435 	 10.3141
| 41> *
| 42>
| 43>                          ****END OF INPUT****

CARTESIAN COORDINATES (ANGSTROEM)
---------------------------------
  S    -30.317800   15.577500    9.439590
  C    -30.895000   13.991800    9.710420
  C    -29.924700   13.154500   10.205400
  C    -28.690900   13.794700   10.440600
  C    -28.810000   15.183000   10.202200
  H    -27.760100   13.374200   10.729000
  C    -30.089100   11.676800   10.409900
  H    -29.136600   11.156100   10.605800
  H    -30.422300   11.310200    9.433620
  C    -31.141400   11.193000   11.363300
  H    -30.919900   11.806300   12.245100
  H    -32.198900   11.387000   11.089800
  C    -31.177200    9.678630   11.720100
  H    -30.223500    9.552950   12.268400
  H    -32.025000    9.445340   12.335400
  H    -31.314400    9.120280   10.832600
  S    -27.362600   17.253900    9.435640
  C    -26.128400   17.914000   10.509400
  C    -26.206000   17.361300   11.724800
  C    -27.258400   16.439700   11.851500
  C    -27.925100   16.205600   10.656100
  H    -25.516500   17.714900   12.462800
  C    -27.601700   15.818900   13.178900
  H    -26.900800   16.214200   13.929300
  H    -27.438100   14.724500   12.990000
  C    -29.005300   16.068400   13.740800
  H    -29.759400   15.560100   13.064000
  H    -29.321200   17.078800   13.698500
  C    -29.162600   15.555500   15.174000
  H    -29.024000   14.474100   15.113900
  H    -30.133000   15.706000   15.639400
  H    -28.467500   15.961100   15.878700
  H    -31.850200   13.608200    9.401970
  H    -25.417000   18.643500   10.314100

 Total Charge           Charge          ....    0
 Multiplicity           Mult            ....    1
 Number of Electrons    NEL             ....  134
 Basis Dimension        Dim             ....  322

ORBITAL ENERGIES
----------------

  NO   OCC          E(Eh)            E(eV)
   0   2.0000     -88.969354     -2420.9792
   1   2.0000     -88.961431     -2420.7636
   2   2.0000     -10.327051      -281.0134
   3   2.0000     -10.317434      -280.7516
   4   2.0000     -10.308111      -280.4980
   5   2.0000     -10.306461      -280.4531
   6   2.0000     -10.298441      -280.2348
   7   2.0000     -10.298147      -280.2268
   8   2.0000     -10.294076      -280.1160
   9   2.0000     -10.291465      -280.0450
  10   2.0000     -10.289783      -279.9992
  11   2.0000     -10.285091      -279.8716
  12   2.0000     -10.284323      -279.8507
  13   2.0000     -10.281491      -279.7736
  14   2.0000     -10.278502      -279.6923
  15   2.0000     -10.271992      -279.5151
  16   2.0000      -8.084939      -220.0024
  17   2.0000      -8.077187      -219.7914
  18   2.0000      -6.043282      -164.4461
  19   2.0000      -6.039278      -164.3371
  20   2.0000      -6.035888      -164.2449
  21   2.0000      -6.035633      -164.2379
  22   2.0000      -6.031500      -164.1255
  23   2.0000      -6.027995      -164.0301
  24   2.0000      -1.016679       -27.6652
  25   2.0000      -0.992764       -27.0145
  26   2.0000      -0.916583       -24.9415
  27   2.0000      -0.905983       -24.6531
  28   2.0000      -0.878582       -23.9074
  29   2.0000      -0.856272       -23.3004
  30   2.0000      -0.849110       -23.1055
  31   2.0000      -0.819350       -22.2957
  32   2.0000      -0.784384       -21.3442
  33   2.0000      -0.768747       -20.9187
  34   2.0000      -0.712339       -19.3837
  35   2.0000      -0.697284       -18.9741
  36   2.0000      -0.692350       -18.8398
  37   2.0000      -0.667262       -18.1571
  38   2.0000      -0.645099       -17.5540
  39   2.0000      -0.618857       -16.8400
  40   2.0000      -0.592797       -16.1308
  41   2.0000      -0.579724       -15.7751
  42   2.0000      -0.568626       -15.4731
  43   2.0000      -0.561957       -15.2916
  44   2.0000      -0.522483       -14.2175
  45   2.0000      -0.521647       -14.1947
  46   2.0000      -0.520791       -14.1714
  47   2.0000      -0.518100       -14.0982
  48   2.0000      -0.515788       -14.0353
  49   2.0000      -0.500840       -13.6285
  50   2.0000      -0.493595       -13.4314
  51   2.0000      -0.484621       -13.1872
  52   2.0000      -0.482690       -13.1347
  53   2.0000      -0.469171       -12.7668
  54   2.0000      -0.456540       -12.4231
  55   2.0000      -0.449950       -12.2438
  56   2.0000      -0.445473       -12.1219
  57   2.0000      -0.439757       -11.9664
  58   2.0000      -0.433289       -11.7904
  59   2.0000      -0.420350       -11.4383
  60   2.0000      -0.414819       -11.2878
  61   2.0000      -0.411547       -11.1988
  62   2.0000      -0.408708       -11.1215
  63   2.0000      -0.348961        -9.4957
  64   2.0000      -0.335235        -9.1222
  65   2.0000      -0.324933        -8.8419
  66   2.0000      -0.287334        -7.8187
  67   0.0000       0.027254         0.7416
  68   0.0000       0.069156         1.8818
  69   0.0000       0.106130         2.8880
  70   0.0000       0.129590         3.5263
  71   0.0000       0.131730         3.5846

MULLIKEN ATOMIC CHARGES
-----------------------
   0 S :    0.136686
   1 C :   -0.102868
   2 C :   -0.081413
   3 C :    0.035379
   4 C :   -0.171551
   5 H :    0.008083
   6 C :    0.090732
   7 H :    0.018898
   8 H :    0.021125
   9 C :   -0.129488
  10 H :    0.026497
  11 H :    0.026838
  12 C :   -0.024067
  13 H :    0.039646
  14 H :    0.034303
  15 H :    0.026752
  16 S :    0.100446
  17 C :   -0.048281
  18 C :   -0.044707
  19 C :   -0.039182
  20 C :   -0.144106
  21 H :    0.009958
  22 C :    0.069985
  23 H :    0.013550
  24 H :    0.036025
  25 C :   -0.064905
  26 H :    0.041131
  27 H :    0.020567
  28 C :   -0.041006
  29 H :    0.024224
  30 H :    0.031326
  31 H :    0.023531
  32 H :    0.034613
  33 H :    0.021277
Sum of atomic charges:   -0.0000000

LOEWDIN ATOMIC CHARGES
----------------------
   0 S :    0.438496
   1 C :   -0.210135
   2 C :   -0.063875
   3 C :   -0.054061
   4 C :   -0.201865
   5 H :    0.028416
   6 C :   -0.037718
   7 H :    0.031351
   8 H :    0.031843
   9 C :   -0.049185
  10 H :    0.021362
  11 H :    0.021697
  12 C :   -0.057048
  13 H :    0.030065
  14 H :    0.026421
  15 H :    0.019660
  16 S :    0.417244
  17 C :   -0.167738
  18 C :   -0.070333
  19 C :   -0.058602
  20 C :   -0.218729
  21 H :    0.032582
  22 C :   -0.033859
  23 H :    0.028808
  24 H :    0.037865
  25 C :   -0.041353
  26 H :    0.032928
  27 H :    0.017265
  28 C :   -0.065632
  29 H :    0.025727
  30 H :    0.026941
  31 H :    0.019193
  32 H :    0.024846
  33 H :    0.017419

  Mayer bond orders larger than 0.100000
B(  0-S ,  1-C ) :   1.1480 B(  0-S ,  4-C ) :   1.1810 B(  1-C ,  2-C ) :   1.5883
B(  1-C ,  4-C ) :   0.1063 B(  1-C , 32-H ) :   0.9708 B(  2-C ,  3-C ) :   1.2582
B(  2-C ,  6-C ) :   1.0253 B(  3-C ,  4-C ) :   1.5250 B(  3-C ,  5-H ) :   1.0088
B(  4-C , 20-C ) :   1.0231 B(  6-C ,  7-H ) :   0.9457 B(  6-C ,  8-H ) :   0.9246
B(  6-C ,  9-C ) :   1.0557 B(  9-C , 10-H ) :   0.9616 B(  9-C , 11-H ) :   0.9545
B(  9-C , 12-C ) :   1.0817 B( 12-C , 13-H ) :   0.9772 B( 12-C , 14-H ) :   0.9756
B( 12-C , 15-H ) :   0.9751 B( 16-S , 17-C ) :   1.1448 B( 16-S , 20-C ) :   1.1508
B( 17-C , 18-C ) :   1.6294 B( 17-C , 33-H ) :   0.9713 B( 18-C , 19-C ) :   1.2477
B( 18-C , 21-H ) :   0.9962 B( 19-C , 20-C ) :   1.5749 B( 19-C , 22-C ) :   1.0416
B( 22-C , 23-H ) :   0.9365 B( 22-C , 24-H ) :   0.9225 B( 22-C , 25-C ) :   1.0663
B( 25-C , 26-H ) :   0.9493 B( 25-C , 27-H ) :   0.9575 B( 25-C , 28-C ) :   1.0861
B( 28-C , 29-H ) :   0.9751 B( 28-C , 30-H ) :   0.9739 B( 28-C , 31-H ) :   0.9748

Dispersion correction           -0.014328004
FINAL SINGLE POINT ENERGY     -1339.870461546235

DIPOLE MOMENT
-------------
                                X             Y             Z
Electronic contribution:      7.42874      21.14956     -21.75734
Nuclear contribution   :     -7.37273     -21.52939      22.18215
                        -----------------------------------------
Total Dipole Moment    :      0.05601      -0.37983       0.42481
                        -----------------------------------------
Magnitude (a.u.)       :      0.57260
Magnitude (Debye)      :      1.45544

Rotational constants in cm-1:     0.019538     0.008580     0.006789
Rotational constants in MHz :   585.731382   257.212707   203.529209

                             ****ORCA TERMINATED NORMALLY****
TOTAL RUN TIME: 0 days 0 hours 0 minutes 22 seconds 43 msec
