                         Program Version 4.2.1 -  RELEASE  -
|  1> ! wB97X-D3 SP def2-SVP
|  2> %pal
|  3> nprocs 24
|  4> end
|  5>
|  6> * xyz 0 1
|  7> S 	 -111.036 	 22.4174 	 -109.623
|  8> C 	 -109.538 	 21.8087 	 -108.913
|  9> C 	 -108.413 	 22.4459 	 -109.45
| 10> C 	 -108.823 	 23.4065 	 -110.432
| 11> C 	 -110.17 	 23.5664 	 -110.561
| 12> H 	 -108.206 	 24.1323 	 -110.951
| 13> C 	 -106.921 	 22.0752 	 -109.275
| 14> H 	 -106.485 	 21.6784 	 -110.25
| 15> H 	 -106.879 	 21.2129 	 -108.614
| 16> C 	 -105.974 	 23.1802 	 -108.688
| 17> H 	 -106.748 	 23.703 	 -108.043
| 18> H 	 -105.149 	 22.7055 	 -108.214
| 19> C 	 -105.442 	 24.2391 	 -109.714
| 20> H 	 -104.936 	 23.7807 	 -110.574
| 21> H 	 -106.363 	 24.6543 	 -110.142
| 22> H 	 -104.804 	 24.9519 	 -109.342
| 23> S 	 -112.304 	 25.2567 	 -110.751
| 24> C 	 -112.86 	 25.8821 	 -112.278
| 25> C 	 -112.046 	 25.5763 	 -113.275
| 26> C 	 -110.954 	 24.734 	 -112.839
| 27> C 	 -110.905 	 24.4408 	 -111.451
| 28> H 	 -112.323 	 25.8563 	 -114.282
| 29> C 	 -109.994 	 24.1876 	 -113.839
| 30> H 	 -110.649 	 23.7602 	 -114.653
| 31> H 	 -109.455 	 23.4349 	 -113.323
| 32> C 	 -109.16 	 25.3264 	 -114.453
| 33> H 	 -109.858 	 25.9801 	 -114.918
| 34> H 	 -108.437 	 24.9339 	 -115.184
| 35> C 	 -108.434 	 26.249 	 -113.451
| 36> H 	 -108.901 	 26.324 	 -112.501
| 37> H 	 -108.271 	 27.2829 	 -113.883
| 38> H 	 -107.434 	 25.7983 	 -113.201
| 39> H 	 -109.559 	 21.0027 	 -108.176
| 40> H 	 -113.899 	 26.3963 	 -112.448
| 41> *
| 42>
| 43>                          ****END OF INPUT****

CARTESIAN COORDINATES (ANGSTROEM)
---------------------------------
  S    -111.036000   22.417400  -109.623000
  C    -109.538000   21.808700  -108.913000
  C    -108.413000   22.445900  -109.450000
  C    -108.823000   23.406500  -110.432000
  C    -110.170000   23.566400  -110.561000
  H    -108.206000   24.132300  -110.951000
  C    -106.921000   22.075200  -109.275000
  H    -106.485000   21.678400  -110.250000
  H    -106.879000   21.212900  -108.614000
  C    -105.974000   23.180200  -108.688000
  H    -106.748000   23.703000  -108.043000
  H    -105.149000   22.705500  -108.214000
  C    -105.442000   24.239100  -109.714000
  H    -104.936000   23.780700  -110.574000
  H    -106.363000   24.654300  -110.142000
  H    -104.804000   24.951900  -109.342000
  S    -112.304000   25.256700  -110.751000
  C    -112.860000   25.882100  -112.278000
  C    -112.046000   25.576300  -113.275000
  C    -110.954000   24.734000  -112.839000
  C    -110.905000   24.440800  -111.451000
  H    -112.323000   25.856300  -114.282000
  C    -109.994000   24.187600  -113.839000
  H    -110.649000   23.760200  -114.653000
  H    -109.455000   23.434900  -113.323000
  C    -109.160000   25.326400  -114.453000
  H    -109.858000   25.980100  -114.918000
  H    -108.437000   24.933900  -115.184000
  C    -108.434000   26.249000  -113.451000
  H    -108.901000   26.324000  -112.501000
  H    -108.271000   27.282900  -113.883000
  H    -107.434000   25.798300  -113.201000
  H    -109.559000   21.002700  -108.176000
  H    -113.899000   26.396300  -112.448000

 Total Charge           Charge          ....    0
 Multiplicity           Mult            ....    1
 Number of Electrons    NEL             ....  134
 Basis Dimension        Dim             ....  322

ORBITAL ENERGIES
----------------

  NO   OCC          E(Eh)            E(eV)
   0   2.0000     -88.968314     -2420.9509
   1   2.0000     -88.959359     -2420.7072
   2   2.0000     -10.329970      -281.0928
   3   2.0000     -10.328624      -281.0561
   4   2.0000     -10.323185      -280.9082
   5   2.0000     -10.321011      -280.8490
   6   2.0000     -10.310760      -280.5700
   7   2.0000     -10.307134      -280.4714
   8   2.0000     -10.302511      -280.3456
   9   2.0000     -10.293841      -280.1097
  10   2.0000     -10.293534      -280.1013
  11   2.0000     -10.290731      -280.0250
  12   2.0000     -10.287398      -279.9343
  13   2.0000     -10.285050      -279.8705
  14   2.0000     -10.277719      -279.6710
  15   2.0000     -10.275334      -279.6061
  16   2.0000      -8.083512      -219.9635
  17   2.0000      -8.074531      -219.7192
  18   2.0000      -6.041966      -164.4103
  19   2.0000      -6.037898      -164.2996
  20   2.0000      -6.034322      -164.2023
  21   2.0000      -6.033127      -164.1697
  22   2.0000      -6.028878      -164.0541
  23   2.0000      -6.025248      -163.9553
  24   2.0000      -1.011705       -27.5299
  25   2.0000      -0.987918       -26.8826
  26   2.0000      -0.911407       -24.8006
  27   2.0000      -0.906430       -24.6652
  28   2.0000      -0.874367       -23.7927
  29   2.0000      -0.847344       -23.0574
  30   2.0000      -0.839747       -22.8507
  31   2.0000      -0.821208       -22.3462
  32   2.0000      -0.785912       -21.3858
  33   2.0000      -0.769603       -20.9420
  34   2.0000      -0.708402       -19.2766
  35   2.0000      -0.696553       -18.9542
  36   2.0000      -0.691357       -18.8128
  37   2.0000      -0.655647       -17.8411
  38   2.0000      -0.644528       -17.5385
  39   2.0000      -0.623964       -16.9789
  40   2.0000      -0.592171       -16.1138
  41   2.0000      -0.575085       -15.6489
  42   2.0000      -0.551788       -15.0149
  43   2.0000      -0.548096       -14.9144
  44   2.0000      -0.547022       -14.8852
  45   2.0000      -0.535975       -14.5846
  46   2.0000      -0.519970       -14.1491
  47   2.0000      -0.511468       -13.9178
  48   2.0000      -0.505243       -13.7484
  49   2.0000      -0.500057       -13.6073
  50   2.0000      -0.490762       -13.3543
  51   2.0000      -0.483789       -13.1646
  52   2.0000      -0.466714       -12.6999
  53   2.0000      -0.465071       -12.6552
  54   2.0000      -0.458169       -12.4674
  55   2.0000      -0.447709       -12.1828
  56   2.0000      -0.444366       -12.0918
  57   2.0000      -0.437155       -11.8956
  58   2.0000      -0.431864       -11.7516
  59   2.0000      -0.421133       -11.4596
  60   2.0000      -0.417374       -11.3573
  61   2.0000      -0.414011       -11.2658
  62   2.0000      -0.408384       -11.1127
  63   2.0000      -0.351600        -9.5675
  64   2.0000      -0.335023        -9.1164
  65   2.0000      -0.327072        -8.9001
  66   2.0000      -0.295618        -8.0442
  67   0.0000       0.029797         0.8108
  68   0.0000       0.072144         1.9631
  69   0.0000       0.107577         2.9273
  70   0.0000       0.122278         3.3274
  71   0.0000       0.126120         3.4319

MULLIKEN ATOMIC CHARGES
-----------------------
   0 S :    0.123249
   1 C :   -0.135692
   2 C :   -0.069018
   3 C :    0.015199
   4 C :   -0.137762
   5 H :    0.008588
   6 C :    0.036457
   7 H :    0.045730
   8 H :    0.016850
   9 C :   -0.087580
  10 H :    0.051464
  11 H :    0.036373
  12 C :   -0.022592
  13 H :    0.022757
  14 H :    0.017739
  15 H :    0.029012
  16 S :    0.075732
  17 C :   -0.111855
  18 C :   -0.022068
  19 C :   -0.091836
  20 C :   -0.151476
  21 H :    0.021848
  22 C :    0.097909
  23 H :    0.039893
  24 H :    0.014846
  25 C :   -0.064063
  26 H :    0.017996
  27 H :    0.040403
  28 C :   -0.083985
  29 H :    0.043650
  30 H :    0.047191
  31 H :    0.028481
  32 H :    0.055102
  33 H :    0.091455
Sum of atomic charges:   -0.0000000

LOEWDIN ATOMIC CHARGES
----------------------
   0 S :    0.420570
   1 C :   -0.187839
   2 C :   -0.063637
   3 C :   -0.068997
   4 C :   -0.205913
   5 H :    0.029568
   6 C :   -0.034764
   7 H :    0.036146
   8 H :    0.028155
   9 C :   -0.037396
  10 H :    0.037296
  11 H :    0.019197
  12 C :   -0.061723
  13 H :    0.024309
  14 H :    0.025170
  15 H :    0.014892
  16 S :    0.389225
  17 C :   -0.191370
  18 C :   -0.084975
  19 C :   -0.047774
  20 C :   -0.204431
  21 H :    0.035144
  22 C :   -0.030864
  23 H :    0.041467
  24 H :    0.021505
  25 C :   -0.038423
  26 H :    0.017728
  27 H :    0.027452
  28 C :   -0.072885
  29 H :    0.018585
  30 H :    0.035109
  31 H :    0.025242
  32 H :    0.028873
  33 H :    0.055356

  Mayer bond orders larger than 0.100000
B(  0-S ,  1-C ) :   1.1446 B(  0-S ,  4-C ) :   1.1561 B(  1-C ,  2-C ) :   1.6015
B(  1-C , 32-H ) :   0.9685 B(  2-C ,  3-C ) :   1.2178 B(  2-C ,  6-C ) :   1.0288
B(  3-C ,  4-C ) :   1.6017 B(  3-C ,  5-H ) :   0.9900 B(  4-C , 20-C ) :   1.0421
B(  6-C ,  7-H ) :   0.9464 B(  6-C ,  8-H ) :   0.9404 B(  6-C ,  9-C ) :   1.0425
B(  9-C , 10-H ) :   0.9615 B(  9-C , 11-H ) :   0.9608 B(  9-C , 12-C ) :   1.0708
B( 12-C , 13-H ) :   0.9752 B( 12-C , 14-H ) :   0.9761 B( 12-C , 15-H ) :   0.9738
B( 16-S , 17-C ) :   1.1512 B( 16-S , 20-C ) :   1.1182 B( 17-C , 18-C ) :   1.6465
B( 17-C , 33-H ) :   0.9459 B( 18-C , 19-C ) :   1.2111 B( 18-C , 21-H ) :   0.9910
B( 19-C , 20-C ) :   1.5805 B( 19-C , 22-C ) :   1.0511 B( 22-C , 23-H ) :   0.9335
B( 22-C , 24-H ) :   0.9377 B( 22-C , 25-C ) :   1.0595 B( 25-C , 26-H ) :   0.9590
B( 25-C , 27-H ) :   0.9595 B( 25-C , 28-C ) :   1.0698 B( 28-C , 29-H ) :   0.9715
B( 28-C , 30-H ) :   0.9749 B( 28-C , 31-H ) :   0.9741

Dispersion correction           -0.015213132
FINAL SINGLE POINT ENERGY     -1339.867723731173

DIPOLE MOMENT
-------------
                                X             Y             Z
Electronic contribution:    -26.10701      -4.76544       8.72658
Nuclear contribution   :     26.46962       4.67351      -9.13476
                        -----------------------------------------
Total Dipole Moment    :      0.36261      -0.09193      -0.40818
                        -----------------------------------------
Magnitude (a.u.)       :      0.55367
Magnitude (Debye)      :      1.40731

Rotational constants in cm-1:     0.018633     0.009692     0.007200
Rotational constants in MHz :   558.589343   290.555922   215.836976

                             ****ORCA TERMINATED NORMALLY****
TOTAL RUN TIME: 0 days 0 hours 0 minutes 22 seconds 563 msec
