                         Program Version 4.2.1 -  RELEASE  -
|  1> ! wB97X-D3 SP def2-SVP
|  2> %pal
|  3> nprocs 24
|  4> end
|  5>
|  6> * xyz 0 1
|  7> S 	 -50.0365 	 21.629 	 34.4541
|  8> C 	 -48.4656 	 21.2598 	 33.7439
|  9> C 	 -48.4834 	 19.9539 	 33.2542
| 10> C 	 -49.746 	 19.2685 	 33.4783
| 11> C 	 -50.7158 	 20.1034 	 33.9501
| 12> H 	 -49.9419 	 18.2642 	 33.2034
| 13> C 	 -47.2748 	 19.3216 	 32.4687
| 14> H 	 -47.0884 	 18.3675 	 32.9892
| 15> H 	 -46.4305 	 19.9952 	 32.605
| 16> C 	 -47.4584 	 19.1138 	 30.9476
| 17> H 	 -48.0552 	 20.0199 	 30.5996
| 18> H 	 -46.501 	 19.034 	 30.4768
| 19> C 	 -48.2715 	 17.8667 	 30.6923
| 20> H 	 -47.9802 	 17.6572 	 29.651
| 21> H 	 -48.0684 	 16.9746 	 31.2806
| 22> H 	 -49.3119 	 17.9269 	 30.8588
| 23> S 	 -52.2766 	 19.2991 	 36.1206
| 24> C 	 -53.7877 	 18.4964 	 35.8609
| 25> C 	 -54.0735 	 18.4809 	 34.5038
| 26> C 	 -53.053 	 19.0492 	 33.6666
| 27> C 	 -52.0444 	 19.6999 	 34.4118
| 28> H 	 -55.0612 	 18.1377 	 34.1268
| 29> C 	 -53.161 	 18.8243 	 32.178
| 30> H 	 -54.1178 	 18.4468 	 31.8956
| 31> H 	 -52.4893 	 18.0284 	 31.8116
| 32> C 	 -52.9581 	 20.0435 	 31.2891
| 33> H 	 -52.076 	 20.5157 	 31.6403
| 34> H 	 -53.7353 	 20.7784 	 31.4907
| 35> C 	 -52.8597 	 19.8307 	 29.7297
| 36> H 	 -52.2832 	 19.0172 	 29.3759
| 37> H 	 -52.3243 	 20.6481 	 29.2626
| 38> H 	 -53.9111 	 19.8059 	 29.3655
| 39> H 	 -47.5612 	 21.8915 	 33.7923
| 40> H 	 -54.3157 	 17.9709 	 36.5932
| 41> *
| 42>
| 43>                          ****END OF INPUT****

CARTESIAN COORDINATES (ANGSTROEM)
---------------------------------
  S    -50.036500   21.629000   34.454100
  C    -48.465600   21.259800   33.743900
  C    -48.483400   19.953900   33.254200
  C    -49.746000   19.268500   33.478300
  C    -50.715800   20.103400   33.950100
  H    -49.941900   18.264200   33.203400
  C    -47.274800   19.321600   32.468700
  H    -47.088400   18.367500   32.989200
  H    -46.430500   19.995200   32.605000
  C    -47.458400   19.113800   30.947600
  H    -48.055200   20.019900   30.599600
  H    -46.501000   19.034000   30.476800
  C    -48.271500   17.866700   30.692300
  H    -47.980200   17.657200   29.651000
  H    -48.068400   16.974600   31.280600
  H    -49.311900   17.926900   30.858800
  S    -52.276600   19.299100   36.120600
  C    -53.787700   18.496400   35.860900
  C    -54.073500   18.480900   34.503800
  C    -53.053000   19.049200   33.666600
  C    -52.044400   19.699900   34.411800
  H    -55.061200   18.137700   34.126800
  C    -53.161000   18.824300   32.178000
  H    -54.117800   18.446800   31.895600
  H    -52.489300   18.028400   31.811600
  C    -52.958100   20.043500   31.289100
  H    -52.076000   20.515700   31.640300
  H    -53.735300   20.778400   31.490700
  C    -52.859700   19.830700   29.729700
  H    -52.283200   19.017200   29.375900
  H    -52.324300   20.648100   29.262600
  H    -53.911100   19.805900   29.365500
  H    -47.561200   21.891500   33.792300
  H    -54.315700   17.970900   36.593200

 Total Charge           Charge          ....    0
 Multiplicity           Mult            ....    1
 Number of Electrons    NEL             ....  134
 Basis Dimension        Dim             ....  322

ORBITAL ENERGIES
----------------

  NO   OCC          E(Eh)            E(eV)
   0   2.0000     -88.966713     -2420.9073
   1   2.0000     -88.964940     -2420.8591
   2   2.0000     -10.330242      -281.1002
   3   2.0000     -10.329445      -281.0785
   4   2.0000     -10.319211      -280.8000
   5   2.0000     -10.316716      -280.7321
   6   2.0000     -10.309163      -280.5266
   7   2.0000     -10.307112      -280.4708
   8   2.0000     -10.297229      -280.2019
   9   2.0000     -10.294928      -280.1392
  10   2.0000     -10.294266      -280.1212
  11   2.0000     -10.290937      -280.0306
  12   2.0000     -10.289052      -279.9793
  13   2.0000     -10.277457      -279.6638
  14   2.0000     -10.277034      -279.6523
  15   2.0000     -10.273773      -279.5636
  16   2.0000      -8.081347      -219.9046
  17   2.0000      -8.079565      -219.8561
  18   2.0000      -6.039845      -164.3525
  19   2.0000      -6.038152      -164.3065
  20   2.0000      -6.035753      -164.2412
  21   2.0000      -6.033977      -164.1929
  22   2.0000      -6.032212      -164.1448
  23   2.0000      -6.030361      -164.0945
  24   2.0000      -1.005686       -27.3661
  25   2.0000      -0.982207       -26.7272
  26   2.0000      -0.909826       -24.7576
  27   2.0000      -0.906575       -24.6692
  28   2.0000      -0.869960       -23.6728
  29   2.0000      -0.846941       -23.0464
  30   2.0000      -0.842755       -22.9325
  31   2.0000      -0.814717       -22.1696
  32   2.0000      -0.784295       -21.3417
  33   2.0000      -0.773074       -21.0364
  34   2.0000      -0.710250       -19.3269
  35   2.0000      -0.699109       -19.0237
  36   2.0000      -0.689825       -18.7711
  37   2.0000      -0.660032       -17.9604
  38   2.0000      -0.642205       -17.4753
  39   2.0000      -0.617430       -16.8011
  40   2.0000      -0.598421       -16.2839
  41   2.0000      -0.571666       -15.5558
  42   2.0000      -0.563963       -15.3462
  43   2.0000      -0.554307       -15.0835
  44   2.0000      -0.540495       -14.7076
  45   2.0000      -0.520764       -14.1707
  46   2.0000      -0.517459       -14.0808
  47   2.0000      -0.513467       -13.9722
  48   2.0000      -0.507192       -13.8014
  49   2.0000      -0.498278       -13.5588
  50   2.0000      -0.493346       -13.4246
  51   2.0000      -0.482566       -13.1313
  52   2.0000      -0.480767       -13.0823
  53   2.0000      -0.466927       -12.7057
  54   2.0000      -0.458765       -12.4836
  55   2.0000      -0.445081       -12.1113
  56   2.0000      -0.437570       -11.9069
  57   2.0000      -0.435323       -11.8457
  58   2.0000      -0.432166       -11.7598
  59   2.0000      -0.423087       -11.5128
  60   2.0000      -0.415733       -11.3127
  61   2.0000      -0.409516       -11.1435
  62   2.0000      -0.408407       -11.1133
  63   2.0000      -0.343095        -9.3361
  64   2.0000      -0.326597        -8.8871
  65   2.0000      -0.325459        -8.8562
  66   2.0000      -0.304202        -8.2777
  67   0.0000       0.033813         0.9201
  68   0.0000       0.055491         1.5100
  69   0.0000       0.113812         3.0970
  70   0.0000       0.119669         3.2564
  71   0.0000       0.126557         3.4438

MULLIKEN ATOMIC CHARGES
-----------------------
   0 S :    0.100445
   1 C :   -0.124860
   2 C :   -0.121952
   3 C :    0.061421
   4 C :   -0.172514
   5 H :    0.002456
   6 C :    0.051499
   7 H :    0.034559
   8 H :    0.012220
   9 C :   -0.053658
  10 H :    0.050541
  11 H :    0.035857
  12 C :   -0.059091
  13 H :    0.036507
  14 H :    0.019639
  15 H :    0.028416
  16 S :    0.109741
  17 C :   -0.073219
  18 C :   -0.050009
  19 C :   -0.050758
  20 C :   -0.117720
  21 H :    0.035089
  22 C :    0.099854
  23 H :   -0.001098
  24 H :    0.029004
  25 C :   -0.097174
  26 H :    0.026905
  27 H :    0.027088
  28 C :   -0.041654
  29 H :    0.020908
  30 H :    0.029549
  31 H :    0.042168
  32 H :    0.063884
  33 H :    0.045956
Sum of atomic charges:   -0.0000000

LOEWDIN ATOMIC CHARGES
----------------------
   0 S :    0.401617
   1 C :   -0.201637
   2 C :   -0.060253
   3 C :   -0.054986
   4 C :   -0.199561
   5 H :    0.025973
   6 C :   -0.031578
   7 H :    0.029347
   8 H :    0.024050
   9 C :   -0.038447
  10 H :    0.040161
  11 H :    0.023616
  12 C :   -0.072120
  13 H :    0.032845
  14 H :    0.022806
  15 H :    0.017881
  16 S :    0.418232
  17 C :   -0.180383
  18 C :   -0.077071
  19 C :   -0.046661
  20 C :   -0.207550
  21 H :    0.036141
  22 C :   -0.033166
  23 H :    0.023214
  24 H :    0.033921
  25 C :   -0.039455
  26 H :    0.016113
  27 H :    0.025298
  28 C :   -0.065932
  29 H :    0.017734
  30 H :    0.029797
  31 H :    0.030811
  32 H :    0.037303
  33 H :    0.021939

  Mayer bond orders larger than 0.100000
B(  0-S ,  1-C ) :   1.1326 B(  0-S ,  4-C ) :   1.1452 B(  1-C ,  2-C ) :   1.6258
B(  1-C , 32-H ) :   0.9643 B(  2-C ,  3-C ) :   1.2275 B(  2-C ,  6-C ) :   1.0202
B(  3-C ,  4-C ) :   1.5826 B(  3-C ,  5-H ) :   0.9977 B(  4-C , 20-C ) :   1.0087
B(  6-C ,  7-H ) :   0.9455 B(  6-C ,  8-H ) :   0.9429 B(  6-C ,  9-C ) :   1.0611
B(  9-C , 10-H ) :   0.9501 B(  9-C , 11-H ) :   0.9616 B(  9-C , 12-C ) :   1.0730
B( 12-C , 13-H ) :   0.9747 B( 12-C , 14-H ) :   0.9750 B( 12-C , 15-H ) :   0.9728
B( 16-S , 17-C ) :   1.1787 B( 16-S , 20-C ) :   1.1429 B( 17-C , 18-C ) :   1.5784
B( 17-C , 33-H ) :   0.9751 B( 18-C , 19-C ) :   1.2737 B( 18-C , 21-H ) :   0.9824
B( 19-C , 20-C ) :   1.5695 B( 19-C , 22-C ) :   1.0476 B( 22-C , 23-H ) :   0.9350
B( 22-C , 24-H ) :   0.9257 B( 22-C , 25-C ) :   1.0560 B( 25-C , 26-H ) :   0.9614
B( 25-C , 27-H ) :   0.9572 B( 25-C , 28-C ) :   1.0760 B( 28-C , 29-H ) :   0.9759
B( 28-C , 30-H ) :   0.9743 B( 28-C , 31-H ) :   0.9795

Dispersion correction           -0.015153722
FINAL SINGLE POINT ENERGY     -1339.866776035242

DIPOLE MOMENT
-------------
                                X             Y             Z
Electronic contribution:     -5.06180       8.87992      28.02202
Nuclear contribution   :      5.22730      -9.39358     -28.51941
                        -----------------------------------------
Total Dipole Moment    :      0.16550      -0.51366      -0.49739
                        -----------------------------------------
Magnitude (a.u.)       :      0.73392
Magnitude (Debye)      :      1.86547

Rotational constants in cm-1:     0.016820     0.010090     0.007743
Rotational constants in MHz :   504.246467   302.504552   232.135293

                             ****ORCA TERMINATED NORMALLY****
TOTAL RUN TIME: 0 days 0 hours 0 minutes 21 seconds 877 msec
