                         Program Version 4.2.1 -  RELEASE  -
|  1> ! wB97X-D3 SP def2-SVP
|  2> %pal
|  3> nprocs 24
|  4> end
|  5>
|  6> * xyz 0 1
|  7> S 	 -37.0127 	 15.5083 	 14.7488
|  8> C 	 -36.7209 	 17.1605 	 15.3857
|  9> C 	 -35.8667 	 17.8457 	 14.5341
| 10> C 	 -35.5643 	 17.0666 	 13.3487
| 11> C 	 -36.0089 	 15.7419 	 13.3315
| 12> H 	 -34.8647 	 17.4027 	 12.6122
| 13> C 	 -35.4066 	 19.2512 	 14.8846
| 14> H 	 -36.0292 	 19.7632 	 15.6642
| 15> H 	 -35.4454 	 19.8814 	 14.0492
| 16> C 	 -34.0307 	 19.2694 	 15.4426
| 17> H 	 -34.0995 	 18.8128 	 16.4144
| 18> H 	 -33.4457 	 18.6478 	 14.7629
| 19> C 	 -33.3233 	 20.5714 	 15.5083
| 20> H 	 -33.8487 	 21.1002 	 16.3453
| 21> H 	 -32.288 	 20.2827 	 15.6609
| 22> H 	 -33.4261 	 21.1389 	 14.5874
| 23> S 	 -35.8699 	 13.0204 	 12.827
| 24> C 	 -35.1216 	 12.4733 	 11.3314
| 25> C 	 -34.7136 	 13.5073 	 10.5678
| 26> C 	 -35.0039 	 14.7701 	 11.1141
| 27> C 	 -35.6454 	 14.704 	 12.3801
| 28> H 	 -34.1439 	 13.3943 	 9.65576
| 29> C 	 -34.6713 	 16.0362 	 10.3642
| 30> H 	 -33.9277 	 16.6164 	 10.861
| 31> H 	 -35.5495 	 16.6653 	 10.295
| 32> C 	 -34.2152 	 15.9202 	 8.90133
| 33> H 	 -35.0606 	 15.5216 	 8.33663
| 34> H 	 -33.4394 	 15.2299 	 8.7966
| 35> C 	 -33.95 	 17.2273 	 8.15617
| 36> H 	 -33.0646 	 17.7202 	 8.53476
| 37> H 	 -34.7021 	 17.9964 	 8.26363
| 38> H 	 -33.7642 	 17.0912 	 7.08844
| 39> H 	 -37.13 	 17.6004 	 16.2654
| 40> H 	 -34.8184 	 11.4658 	 11.0584
| 41> *
| 42>
| 43>                          ****END OF INPUT****

CARTESIAN COORDINATES (ANGSTROEM)
---------------------------------
  S    -37.012700   15.508300   14.748800
  C    -36.720900   17.160500   15.385700
  C    -35.866700   17.845700   14.534100
  C    -35.564300   17.066600   13.348700
  C    -36.008900   15.741900   13.331500
  H    -34.864700   17.402700   12.612200
  C    -35.406600   19.251200   14.884600
  H    -36.029200   19.763200   15.664200
  H    -35.445400   19.881400   14.049200
  C    -34.030700   19.269400   15.442600
  H    -34.099500   18.812800   16.414400
  H    -33.445700   18.647800   14.762900
  C    -33.323300   20.571400   15.508300
  H    -33.848700   21.100200   16.345300
  H    -32.288000   20.282700   15.660900
  H    -33.426100   21.138900   14.587400
  S    -35.869900   13.020400   12.827000
  C    -35.121600   12.473300   11.331400
  C    -34.713600   13.507300   10.567800
  C    -35.003900   14.770100   11.114100
  C    -35.645400   14.704000   12.380100
  H    -34.143900   13.394300    9.655760
  C    -34.671300   16.036200   10.364200
  H    -33.927700   16.616400   10.861000
  H    -35.549500   16.665300   10.295000
  C    -34.215200   15.920200    8.901330
  H    -35.060600   15.521600    8.336630
  H    -33.439400   15.229900    8.796600
  C    -33.950000   17.227300    8.156170
  H    -33.064600   17.720200    8.534760
  H    -34.702100   17.996400    8.263630
  H    -33.764200   17.091200    7.088440
  H    -37.130000   17.600400   16.265400
  H    -34.818400   11.465800   11.058400

 Total Charge           Charge          ....    0
 Multiplicity           Mult            ....    1
 Number of Electrons    NEL             ....  134
 Basis Dimension        Dim             ....  322

ORBITAL ENERGIES
----------------

  NO   OCC          E(Eh)            E(eV)
   0   2.0000     -88.970324     -2421.0056
   1   2.0000     -88.966102     -2420.8907
   2   2.0000     -10.337317      -281.2927
   3   2.0000     -10.335289      -281.2375
   4   2.0000     -10.316989      -280.7396
   5   2.0000     -10.316336      -280.7218
   6   2.0000     -10.306544      -280.4553
   7   2.0000     -10.305617      -280.4301
   8   2.0000     -10.296024      -280.1690
   9   2.0000     -10.290926      -280.0303
  10   2.0000     -10.289882      -280.0019
  11   2.0000     -10.287744      -279.9438
  12   2.0000     -10.285217      -279.8750
  13   2.0000     -10.280175      -279.7378
  14   2.0000     -10.278335      -279.6877
  15   2.0000     -10.273621      -279.5595
  16   2.0000      -8.084598      -219.9931
  17   2.0000      -8.079957      -219.8668
  18   2.0000      -6.043208      -164.4440
  19   2.0000      -6.039169      -164.3341
  20   2.0000      -6.038718      -164.3219
  21   2.0000      -6.035284      -164.2284
  22   2.0000      -6.034531      -164.2079
  23   2.0000      -6.030550      -164.0996
  24   2.0000      -1.006332       -27.3837
  25   2.0000      -0.982435       -26.7334
  26   2.0000      -0.925373       -25.1807
  27   2.0000      -0.915295       -24.9064
  28   2.0000      -0.876177       -23.8420
  29   2.0000      -0.855630       -23.2829
  30   2.0000      -0.844280       -22.9740
  31   2.0000      -0.818112       -22.2620
  32   2.0000      -0.787484       -21.4285
  33   2.0000      -0.776250       -21.1228
  34   2.0000      -0.714575       -19.4446
  35   2.0000      -0.706481       -19.2243
  36   2.0000      -0.688956       -18.7474
  37   2.0000      -0.656033       -17.8516
  38   2.0000      -0.641603       -17.4589
  39   2.0000      -0.623200       -16.9581
  40   2.0000      -0.604678       -16.4541
  41   2.0000      -0.578650       -15.7459
  42   2.0000      -0.576710       -15.6931
  43   2.0000      -0.572984       -15.5917
  44   2.0000      -0.532006       -14.4766
  45   2.0000      -0.526397       -14.3240
  46   2.0000      -0.522482       -14.2174
  47   2.0000      -0.512410       -13.9434
  48   2.0000      -0.509939       -13.8761
  49   2.0000      -0.498773       -13.5723
  50   2.0000      -0.497004       -13.5242
  51   2.0000      -0.483591       -13.1592
  52   2.0000      -0.476030       -12.9534
  53   2.0000      -0.468510       -12.7488
  54   2.0000      -0.464702       -12.6452
  55   2.0000      -0.461650       -12.5621
  56   2.0000      -0.446025       -12.1370
  57   2.0000      -0.433806       -11.8045
  58   2.0000      -0.431849       -11.7512
  59   2.0000      -0.425724       -11.5845
  60   2.0000      -0.416281       -11.3276
  61   2.0000      -0.412324       -11.2199
  62   2.0000      -0.410281       -11.1643
  63   2.0000      -0.364660        -9.9229
  64   2.0000      -0.336718        -9.1626
  65   2.0000      -0.328580        -8.9411
  66   2.0000      -0.281158        -7.6507
  67   0.0000       0.015121         0.4115
  68   0.0000       0.087091         2.3699
  69   0.0000       0.100357         2.7309
  70   0.0000       0.124411         3.3854
  71   0.0000       0.134423         3.6578

MULLIKEN ATOMIC CHARGES
-----------------------
   0 S :    0.092557
   1 C :   -0.104895
   2 C :   -0.083703
   3 C :    0.002415
   4 C :   -0.107085
   5 H :   -0.013786
   6 C :    0.093312
   7 H :    0.017243
   8 H :   -0.000261
   9 C :   -0.106307
  10 H :    0.022450
  11 H :    0.015378
  12 C :   -0.010091
  13 H :    0.034060
  14 H :    0.044409
  15 H :    0.027422
  16 S :    0.106855
  17 C :   -0.058572
  18 C :   -0.041511
  19 C :   -0.054471
  20 C :   -0.122345
  21 H :    0.016185
  22 C :    0.035224
  23 H :    0.041531
  24 H :    0.034686
  25 C :   -0.073516
  26 H :    0.027953
  27 H :    0.023268
  28 C :   -0.029156
  29 H :    0.016128
  30 H :    0.025968
  31 H :    0.037389
  32 H :    0.038812
  33 H :    0.052455
Sum of atomic charges:    0.0000000

LOEWDIN ATOMIC CHARGES
----------------------
   0 S :    0.379922
   1 C :   -0.178632
   2 C :   -0.052061
   3 C :   -0.071192
   4 C :   -0.184163
   5 H :    0.021757
   6 C :   -0.029316
   7 H :    0.031813
   8 H :    0.018188
   9 C :   -0.047813
  10 H :    0.022457
  11 H :    0.019002
  12 C :   -0.060848
  13 H :    0.030924
  14 H :    0.032967
  15 H :    0.022677
  16 S :    0.406044
  17 C :   -0.181473
  18 C :   -0.073578
  19 C :   -0.052273
  20 C :   -0.190424
  21 H :    0.034287
  22 C :   -0.033625
  23 H :    0.024760
  24 H :    0.035907
  25 C :   -0.038500
  26 H :    0.027866
  27 H :    0.011630
  28 C :   -0.062333
  29 H :    0.020107
  30 H :    0.024439
  31 H :    0.031433
  32 H :    0.025426
  33 H :    0.034625

  Mayer bond orders larger than 0.100000
B(  0-S ,  1-C ) :   1.1159 B(  0-S ,  4-C ) :   1.1352 B(  1-C ,  2-C ) :   1.6180
B(  1-C , 32-H ) :   0.9713 B(  2-C ,  3-C ) :   1.2434 B(  2-C ,  6-C ) :   1.0349
B(  3-C ,  4-C ) :   1.5534 B(  3-C ,  5-H ) :   0.9876 B(  4-C , 20-C ) :   1.1126
B(  6-C ,  7-H ) :   0.9409 B(  6-C ,  8-H ) :   0.9308 B(  6-C ,  9-C ) :   1.0680
B(  9-C , 10-H ) :   0.9514 B(  9-C , 11-H ) :   0.9579 B(  9-C , 12-C ) :   1.0845
B( 12-C , 13-H ) :   0.9720 B( 12-C , 14-H ) :   0.9730 B( 12-C , 15-H ) :   0.9717
B( 16-S , 17-C ) :   1.1485 B( 16-S , 20-C ) :   1.1376 B( 17-C , 18-C ) :   1.5953
B( 17-C , 33-H ) :   0.9567 B( 18-C , 19-C ) :   1.3031 B( 18-C , 21-H ) :   0.9806
B( 19-C , 20-C ) :   1.5512 B( 19-C , 22-C ) :   1.0306 B( 22-C , 23-H ) :   0.9202
B( 22-C , 24-H ) :   0.9320 B( 22-C , 25-C ) :   1.0839 B( 25-C , 26-H ) :   0.9525
B( 25-C , 27-H ) :   0.9445 B( 25-C , 28-C ) :   1.0869 B( 28-C , 29-H ) :   0.9718
B( 28-C , 30-H ) :   0.9735 B( 28-C , 31-H ) :   0.9719

Dispersion correction           -0.013069373
FINAL SINGLE POINT ENERGY     -1339.874238766159

DIPOLE MOMENT
-------------
                                X             Y             Z
Electronic contribution:    -15.46678     -25.63959      10.42132
Nuclear contribution   :     16.02317      26.14976     -10.82978
                        -----------------------------------------
Total Dipole Moment    :      0.55639       0.51017      -0.40846
                        -----------------------------------------
Magnitude (a.u.)       :      0.85831
Magnitude (Debye)      :      2.18164

Rotational constants in cm-1:     0.016083     0.008600     0.006043
Rotational constants in MHz :   482.157892   257.818457   181.154692

                             ****ORCA TERMINATED NORMALLY****
TOTAL RUN TIME: 0 days 0 hours 0 minutes 21 seconds 66 msec
