                         Program Version 4.2.1 -  RELEASE  -
|  1> ! wB97X-D3 SP def2-SVP
|  2> %pal
|  3> nprocs 24
|  4> end
|  5>
|  6> * xyz 0 1
|  7> S 	 37.8892 	 -24.1148 	 -114.997
|  8> C 	 39.5596 	 -24.5266 	 -114.822
|  9> C 	 40.0383 	 -24.3925 	 -113.478
| 10> C 	 38.9694 	 -23.9601 	 -112.595
| 11> C 	 37.7554 	 -23.7193 	 -113.282
| 12> H 	 39.0062 	 -23.7877 	 -111.51
| 13> C 	 41.479 	 -24.7982 	 -113.04
| 14> H 	 41.8132 	 -24.0383 	 -112.276
| 15> H 	 42.1454 	 -24.7066 	 -113.846
| 16> C 	 41.6438 	 -26.3073 	 -112.568
| 17> H 	 40.9449 	 -26.5615 	 -111.743
| 18> H 	 41.339 	 -26.9503 	 -113.335
| 19> C 	 43.0724 	 -26.7497 	 -112.111
| 20> H 	 43.2871 	 -27.7823 	 -112.21
| 21> H 	 43.7934 	 -26.1721 	 -112.647
| 22> H 	 43.105 	 -26.5674 	 -111.02
| 23> S 	 35.6294 	 -21.9487 	 -113.671
| 24> C 	 34.1833 	 -22.0887 	 -112.655
| 25> C 	 34.4547 	 -22.8233 	 -111.519
| 26> C 	 35.7145 	 -23.5252 	 -111.572
| 27> C 	 36.4744 	 -23.1772 	 -112.724
| 28> H 	 33.6679 	 -22.9155 	 -110.736
| 29> C 	 36.1629 	 -24.3943 	 -110.415
| 30> H 	 35.8103 	 -23.9685 	 -109.513
| 31> H 	 37.1818 	 -24.2734 	 -110.213
| 32> C 	 35.8275 	 -25.8995 	 -110.432
| 33> H 	 34.7402 	 -25.9504 	 -110.401
| 34> H 	 36.1377 	 -26.2804 	 -109.48
| 35> C 	 36.2667 	 -26.7184 	 -111.634
| 36> H 	 37.3381 	 -26.7739 	 -111.537
| 37> H 	 35.9816 	 -26.2684 	 -112.583
| 38> H 	 35.7889 	 -27.6445 	 -111.559
| 39> H 	 40.2197 	 -24.8818 	 -115.619
| 40> H 	 33.2473 	 -21.6541 	 -112.893
| 41> *
| 42>
| 43>                          ****END OF INPUT****

CARTESIAN COORDINATES (ANGSTROEM)
---------------------------------
  S     37.889200  -24.114800  -114.997000
  C     39.559600  -24.526600  -114.822000
  C     40.038300  -24.392500  -113.478000
  C     38.969400  -23.960100  -112.595000
  C     37.755400  -23.719300  -113.282000
  H     39.006200  -23.787700  -111.510000
  C     41.479000  -24.798200  -113.040000
  H     41.813200  -24.038300  -112.276000
  H     42.145400  -24.706600  -113.846000
  C     41.643800  -26.307300  -112.568000
  H     40.944900  -26.561500  -111.743000
  H     41.339000  -26.950300  -113.335000
  C     43.072400  -26.749700  -112.111000
  H     43.287100  -27.782300  -112.210000
  H     43.793400  -26.172100  -112.647000
  H     43.105000  -26.567400  -111.020000
  S     35.629400  -21.948700  -113.671000
  C     34.183300  -22.088700  -112.655000
  C     34.454700  -22.823300  -111.519000
  C     35.714500  -23.525200  -111.572000
  C     36.474400  -23.177200  -112.724000
  H     33.667900  -22.915500  -110.736000
  C     36.162900  -24.394300  -110.415000
  H     35.810300  -23.968500  -109.513000
  H     37.181800  -24.273400  -110.213000
  C     35.827500  -25.899500  -110.432000
  H     34.740200  -25.950400  -110.401000
  H     36.137700  -26.280400  -109.480000
  C     36.266700  -26.718400  -111.634000
  H     37.338100  -26.773900  -111.537000
  H     35.981600  -26.268400  -112.583000
  H     35.788900  -27.644500  -111.559000
  H     40.219700  -24.881800  -115.619000
  H     33.247300  -21.654100  -112.893000

 Total Charge           Charge          ....    0
 Multiplicity           Mult            ....    1
 Number of Electrons    NEL             ....  134
 Basis Dimension        Dim             ....  322

ORBITAL ENERGIES
----------------

  NO   OCC          E(Eh)            E(eV)
   0   2.0000     -88.973196     -2421.0837
   1   2.0000     -88.965771     -2420.8817
   2   2.0000     -10.337498      -281.2976
   3   2.0000     -10.335115      -281.2328
   4   2.0000     -10.320063      -280.8232
   5   2.0000     -10.316688      -280.7314
   6   2.0000     -10.313879      -280.6549
   7   2.0000     -10.308851      -280.5181
   8   2.0000     -10.304702      -280.4052
   9   2.0000     -10.302443      -280.3437
  10   2.0000     -10.298993      -280.2499
  11   2.0000     -10.288339      -279.9599
  12   2.0000     -10.281503      -279.7739
  13   2.0000     -10.278863      -279.7021
  14   2.0000     -10.277395      -279.6621
  15   2.0000     -10.263763      -279.2912
  16   2.0000      -8.087368      -220.0685
  17   2.0000      -8.079859      -219.8641
  18   2.0000      -6.045805      -164.5147
  19   2.0000      -6.041854      -164.4072
  20   2.0000      -6.038405      -164.3133
  21   2.0000      -6.038329      -164.3113
  22   2.0000      -6.034445      -164.2056
  23   2.0000      -6.030628      -164.1017
  24   2.0000      -0.996976       -27.1291
  25   2.0000      -0.976011       -26.5586
  26   2.0000      -0.907440       -24.6927
  27   2.0000      -0.899483       -24.4762
  28   2.0000      -0.861321       -23.4377
  29   2.0000      -0.849328       -23.1114
  30   2.0000      -0.844430       -22.9781
  31   2.0000      -0.812814       -22.1178
  32   2.0000      -0.785927       -21.3862
  33   2.0000      -0.770790       -20.9743
  34   2.0000      -0.704864       -19.1803
  35   2.0000      -0.698929       -19.0188
  36   2.0000      -0.689509       -18.7625
  37   2.0000      -0.655912       -17.8483
  38   2.0000      -0.640058       -17.4169
  39   2.0000      -0.617036       -16.7904
  40   2.0000      -0.597450       -16.2575
  41   2.0000      -0.562320       -15.3015
  42   2.0000      -0.556995       -15.1566
  43   2.0000      -0.549773       -14.9601
  44   2.0000      -0.544447       -14.8152
  45   2.0000      -0.526296       -14.3212
  46   2.0000      -0.515260       -14.0209
  47   2.0000      -0.505026       -13.7424
  48   2.0000      -0.502623       -13.6771
  49   2.0000      -0.496037       -13.4979
  50   2.0000      -0.487788       -13.2734
  51   2.0000      -0.478511       -13.0209
  52   2.0000      -0.472213       -12.8496
  53   2.0000      -0.462963       -12.5979
  54   2.0000      -0.460208       -12.5229
  55   2.0000      -0.449246       -12.2246
  56   2.0000      -0.446128       -12.1398
  57   2.0000      -0.436193       -11.8694
  58   2.0000      -0.434351       -11.8193
  59   2.0000      -0.427554       -11.6343
  60   2.0000      -0.420636       -11.4461
  61   2.0000      -0.416465       -11.3326
  62   2.0000      -0.405954       -11.0466
  63   2.0000      -0.346420        -9.4266
  64   2.0000      -0.330565        -8.9951
  65   2.0000      -0.330383        -8.9902
  66   2.0000      -0.286954        -7.8084
  67   0.0000       0.022499         0.6122
  68   0.0000       0.070069         1.9067
  69   0.0000       0.103521         2.8170
  70   0.0000       0.115029         3.1301
  71   0.0000       0.127391         3.4665

MULLIKEN ATOMIC CHARGES
-----------------------
   0 S :    0.135194
   1 C :   -0.122000
   2 C :   -0.108616
   3 C :    0.029365
   4 C :   -0.156463
   5 H :    0.026605
   6 C :    0.072551
   7 H :    0.040878
   8 H :    0.009138
   9 C :   -0.080447
  10 H :    0.028956
  11 H :    0.015788
  12 C :   -0.031737
  13 H :    0.030388
  14 H :    0.026223
  15 H :    0.034334
  16 S :    0.096832
  17 C :   -0.093010
  18 C :   -0.033521
  19 C :   -0.041036
  20 C :   -0.159110
  21 H :    0.037240
  22 C :    0.099665
  23 H :    0.000190
  24 H :   -0.011920
  25 C :   -0.070455
  26 H :    0.010111
  27 H :    0.016435
  28 C :    0.002209
  29 H :    0.028711
  30 H :    0.040529
  31 H :    0.022233
  32 H :    0.057022
  33 H :    0.047718
Sum of atomic charges:   -0.0000000

LOEWDIN ATOMIC CHARGES
----------------------
   0 S :    0.423400
   1 C :   -0.211597
   2 C :   -0.059220
   3 C :   -0.061768
   4 C :   -0.195112
   5 H :    0.034727
   6 C :   -0.027736
   7 H :    0.036890
   8 H :    0.020380
   9 C :   -0.038225
  10 H :    0.024485
  11 H :    0.014679
  12 C :   -0.061362
  13 H :    0.022832
  14 H :    0.020181
  15 H :    0.030402
  16 S :    0.388126
  17 C :   -0.174351
  18 C :   -0.071328
  19 C :   -0.054142
  20 C :   -0.194976
  21 H :    0.039349
  22 C :   -0.032638
  23 H :    0.029884
  24 H :    0.017629
  25 C :   -0.032979
  26 H :    0.017850
  27 H :    0.019553
  28 C :   -0.053447
  29 H :    0.024177
  30 H :    0.029656
  31 H :    0.020335
  32 H :    0.031768
  33 H :    0.022578

  Mayer bond orders larger than 0.100000
B(  0-S ,  1-C ) :   1.1585 B(  0-S ,  4-C ) :   1.1595 B(  1-C ,  2-C ) :   1.5800
B(  1-C ,  4-C ) :   0.1015 B(  1-C , 32-H ) :   0.9642 B(  2-C ,  3-C ) :   1.2581
B(  2-C ,  6-C ) :   1.0323 B(  3-C ,  4-C ) :   1.5519 B(  3-C ,  5-H ) :   0.9874
B(  4-C , 20-C ) :   1.0422 B(  6-C ,  7-H ) :   0.9467 B(  6-C ,  8-H ) :   0.9373
B(  6-C ,  9-C ) :   1.0483 B(  9-C , 10-H ) :   0.9644 B(  9-C , 11-H ) :   0.9596
B(  9-C , 12-C ) :   1.0685 B( 12-C , 13-H ) :   0.9772 B( 12-C , 14-H ) :   0.9780
B( 12-C , 15-H ) :   0.9803 B( 16-S , 17-C ) :   1.1445 B( 16-S , 20-C ) :   1.1457
B( 17-C , 18-C ) :   1.6104 B( 17-C , 33-H ) :   0.9734 B( 18-C , 19-C ) :   1.2462
B( 18-C , 21-H ) :   0.9803 B( 19-C , 20-C ) :   1.5702 B( 19-C , 22-C ) :   1.0315
B( 22-C , 23-H ) :   0.9235 B( 22-C , 24-H ) :   0.9342 B( 22-C , 25-C ) :   1.0747
B( 25-C , 26-H ) :   0.9545 B( 25-C , 27-H ) :   0.9526 B( 25-C , 28-C ) :   1.0826
B( 28-C , 29-H ) :   0.9770 B( 28-C , 30-H ) :   0.9696 B( 28-C , 31-H ) :   0.9706

Dispersion correction           -0.014812608
FINAL SINGLE POINT ENERGY     -1339.871398282015

DIPOLE MOMENT
-------------
                                X             Y             Z
Electronic contribution:    -15.58855      20.04204     -16.13722
Nuclear contribution   :     15.79108     -20.42823      16.61119
                        -----------------------------------------
Total Dipole Moment    :      0.20252      -0.38619       0.47398
                        -----------------------------------------
Magnitude (a.u.)       :      0.64406
Magnitude (Debye)      :      1.63707

Rotational constants in cm-1:     0.021242     0.008155     0.006596
Rotational constants in MHz :   636.822633   244.469770   197.737612

                             ****ORCA TERMINATED NORMALLY****
TOTAL RUN TIME: 0 days 0 hours 0 minutes 21 seconds 619 msec
