                         Program Version 4.2.1 -  RELEASE  -
|  1> ! wB97X-D3 SP def2-SVP
|  2> %pal
|  3> nprocs 24
|  4> end
|  5>
|  6> * xyz 0 1
|  7> S 	 -34.7301 	 7.94086 	 5.30529
|  8> C 	 -35.5584 	 8.52069 	 6.73806
|  9> C 	 -36.7589 	 7.86064 	 6.88345
| 10> C 	 -36.9921 	 7.08114 	 5.78183
| 11> C 	 -35.9784 	 6.81978 	 4.91433
| 12> H 	 -37.9716 	 6.66588 	 5.63927
| 13> C 	 -37.7998 	 8.07273 	 7.91341
| 14> H 	 -37.7966 	 9.1244 	 8.12234
| 15> H 	 -37.3908 	 7.68807 	 8.906
| 16> C 	 -39.1885 	 7.49474 	 7.66855
| 17> H 	 -39.1792 	 6.47775 	 7.33334
| 18> H 	 -39.7117 	 7.64139 	 8.57614
| 19> C 	 -39.932 	 8.30375 	 6.59843
| 20> H 	 -40.4231 	 9.11381 	 7.09108
| 21> H 	 -39.1064 	 8.68265 	 5.92204
| 22> H 	 -40.6247 	 7.77815 	 6.00715
| 23> S 	 -36.6395 	 4.34882 	 3.6917
| 24> C 	 -36.7187 	 4.19586 	 1.99077
| 25> C 	 -36.5089 	 5.38604 	 1.3952
| 26> C 	 -36.1562 	 6.50896 	 2.27464
| 27> C 	 -36.3028 	 6.111 	 3.62384
| 28> H 	 -36.5913 	 5.39516 	 0.256769
| 29> C 	 -36.1448 	 7.89293 	 1.72836
| 30> H 	 -36.1283 	 8.63511 	 2.49906
| 31> H 	 -37.085 	 7.90169 	 1.18969
| 32> C 	 -35.0414 	 8.27886 	 0.674314
| 33> H 	 -35.3261 	 9.36828 	 0.546748
| 34> H 	 -35.1115 	 7.72044 	 -0.232123
| 35> C 	 -33.6583 	 8.24803 	 1.25045
| 36> H 	 -33.3705 	 7.28191 	 1.56327
| 37> H 	 -33.5608 	 8.90891 	 2.12151
| 38> H 	 -32.8723 	 8.54229 	 0.548397
| 39> H 	 -35.1571 	 9.37807 	 7.26062
| 40> H 	 -37.119 	 3.37244 	 1.35852
| 41> *
| 42>
| 43>                          ****END OF INPUT****

CARTESIAN COORDINATES (ANGSTROEM)
---------------------------------
  S    -34.730100    7.940860    5.305290
  C    -35.558400    8.520690    6.738060
  C    -36.758900    7.860640    6.883450
  C    -36.992100    7.081140    5.781830
  C    -35.978400    6.819780    4.914330
  H    -37.971600    6.665880    5.639270
  C    -37.799800    8.072730    7.913410
  H    -37.796600    9.124400    8.122340
  H    -37.390800    7.688070    8.906000
  C    -39.188500    7.494740    7.668550
  H    -39.179200    6.477750    7.333340
  H    -39.711700    7.641390    8.576140
  C    -39.932000    8.303750    6.598430
  H    -40.423100    9.113810    7.091080
  H    -39.106400    8.682650    5.922040
  H    -40.624700    7.778150    6.007150
  S    -36.639500    4.348820    3.691700
  C    -36.718700    4.195860    1.990770
  C    -36.508900    5.386040    1.395200
  C    -36.156200    6.508960    2.274640
  C    -36.302800    6.111000    3.623840
  H    -36.591300    5.395160    0.256769
  C    -36.144800    7.892930    1.728360
  H    -36.128300    8.635110    2.499060
  H    -37.085000    7.901690    1.189690
  C    -35.041400    8.278860    0.674314
  H    -35.326100    9.368280    0.546748
  H    -35.111500    7.720440   -0.232123
  C    -33.658300    8.248030    1.250450
  H    -33.370500    7.281910    1.563270
  H    -33.560800    8.908910    2.121510
  H    -32.872300    8.542290    0.548397
  H    -35.157100    9.378070    7.260620
  H    -37.119000    3.372440    1.358520

 Total Charge           Charge          ....    0
 Multiplicity           Mult            ....    1
 Number of Electrons    NEL             ....  134
 Basis Dimension        Dim             ....  322

ORBITAL ENERGIES
----------------

  NO   OCC          E(Eh)            E(eV)
   0   2.0000     -88.968565     -2420.9577
   1   2.0000     -88.961589     -2420.7679
   2   2.0000     -10.335747      -281.2500
   3   2.0000     -10.325390      -280.9682
   4   2.0000     -10.316671      -280.7309
   5   2.0000     -10.312565      -280.6192
   6   2.0000     -10.307404      -280.4787
   7   2.0000     -10.294611      -280.1306
   8   2.0000     -10.294197      -280.1193
   9   2.0000     -10.293383      -280.0972
  10   2.0000     -10.287887      -279.9476
  11   2.0000     -10.287047      -279.9248
  12   2.0000     -10.282972      -279.8139
  13   2.0000     -10.280603      -279.7494
  14   2.0000     -10.272787      -279.5368
  15   2.0000     -10.266984      -279.3788
  16   2.0000      -8.083232      -219.9559
  17   2.0000      -8.076349      -219.7686
  18   2.0000      -6.041657      -164.4018
  19   2.0000      -6.037637      -164.2924
  20   2.0000      -6.035037      -164.2217
  21   2.0000      -6.034174      -164.1982
  22   2.0000      -6.030823      -164.1070
  23   2.0000      -6.026931      -164.0011
  24   2.0000      -1.012547       -27.5528
  25   2.0000      -0.987445       -26.8698
  26   2.0000      -0.922262       -25.0960
  27   2.0000      -0.909425       -24.7467
  28   2.0000      -0.870146       -23.6779
  29   2.0000      -0.850415       -23.1410
  30   2.0000      -0.847295       -23.0561
  31   2.0000      -0.815429       -22.1889
  32   2.0000      -0.786025       -21.3888
  33   2.0000      -0.773597       -21.0506
  34   2.0000      -0.711071       -19.3492
  35   2.0000      -0.701072       -19.0772
  36   2.0000      -0.688280       -18.7290
  37   2.0000      -0.652867       -17.7654
  38   2.0000      -0.643005       -17.4971
  39   2.0000      -0.621763       -16.9190
  40   2.0000      -0.598796       -16.2941
  41   2.0000      -0.574896       -15.6437
  42   2.0000      -0.556935       -15.1550
  43   2.0000      -0.551024       -14.9941
  44   2.0000      -0.541061       -14.7230
  45   2.0000      -0.536565       -14.6007
  46   2.0000      -0.522338       -14.2135
  47   2.0000      -0.515411       -14.0250
  48   2.0000      -0.500755       -13.6262
  49   2.0000      -0.497423       -13.5356
  50   2.0000      -0.487118       -13.2552
  51   2.0000      -0.482581       -13.1317
  52   2.0000      -0.475595       -12.9416
  53   2.0000      -0.462622       -12.5886
  54   2.0000      -0.460054       -12.5187
  55   2.0000      -0.446191       -12.1415
  56   2.0000      -0.438243       -11.9252
  57   2.0000      -0.435284       -11.8447
  58   2.0000      -0.432245       -11.7620
  59   2.0000      -0.427777       -11.6404
  60   2.0000      -0.424480       -11.5507
  61   2.0000      -0.418810       -11.3964
  62   2.0000      -0.405330       -11.0296
  63   2.0000      -0.343344        -9.3429
  64   2.0000      -0.330430        -8.9914
  65   2.0000      -0.321712        -8.7542
  66   2.0000      -0.298933        -8.1344
  67   0.0000       0.030603         0.8328
  68   0.0000       0.072499         1.9728
  69   0.0000       0.109579         2.9818
  70   0.0000       0.122681         3.3383
  71   0.0000       0.134911         3.6711

MULLIKEN ATOMIC CHARGES
-----------------------
   0 S :    0.101371
   1 C :   -0.157232
   2 C :   -0.039179
   3 C :   -0.037403
   4 C :   -0.069331
   5 H :    0.007562
   6 C :    0.054360
   7 H :    0.015157
   8 H :    0.043057
   9 C :   -0.044790
  10 H :    0.039322
  11 H :    0.025296
  12 C :   -0.055383
  13 H :    0.026673
  14 H :    0.044825
  15 H :    0.027803
  16 S :    0.096088
  17 C :   -0.086171
  18 C :   -0.088322
  19 C :   -0.018515
  20 C :   -0.186448
  21 H :    0.040186
  22 C :    0.039023
  23 H :    0.018166
  24 H :    0.040438
  25 C :   -0.067562
  26 H :    0.037081
  27 H :    0.028723
  28 C :   -0.037289
  29 H :    0.023215
  30 H :    0.024330
  31 H :    0.030749
  32 H :    0.053613
  33 H :    0.070588
Sum of atomic charges:   -0.0000000

LOEWDIN ATOMIC CHARGES
----------------------
   0 S :    0.425886
   1 C :   -0.186866
   2 C :   -0.071612
   3 C :   -0.064734
   4 C :   -0.216844
   5 H :    0.025930
   6 C :   -0.035360
   7 H :    0.029678
   8 H :    0.044532
   9 C :   -0.037396
  10 H :    0.023839
  11 H :    0.024816
  12 C :   -0.062441
  13 H :    0.022219
  14 H :    0.034664
  15 H :    0.017619
  16 S :    0.396925
  17 C :   -0.211007
  18 C :   -0.086868
  19 C :   -0.059097
  20 C :   -0.178211
  21 H :    0.039115
  22 C :   -0.029860
  23 H :    0.023095
  24 H :    0.039566
  25 C :   -0.035671
  26 H :    0.034426
  27 H :    0.017498
  28 C :   -0.067860
  29 H :    0.018226
  30 H :    0.025276
  31 H :    0.027517
  32 H :    0.026986
  33 H :    0.046016

  Mayer bond orders larger than 0.100000
B(  0-S ,  1-C ) :   1.1731 B(  0-S ,  4-C ) :   1.1522 B(  1-C ,  2-C ) :   1.5271
B(  1-C , 32-H ) :   0.9771 B(  2-C ,  3-C ) :   1.3299 B(  2-C ,  6-C ) :   1.0082
B(  3-C ,  4-C ) :   1.5089 B(  3-C ,  5-H ) :   0.9806 B(  4-C , 20-C ) :   1.0114
B(  6-C ,  7-H ) :   0.9318 B(  6-C ,  8-H ) :   0.9214 B(  6-C ,  9-C ) :   1.0964
B(  9-C , 10-H ) :   0.9521 B(  9-C , 11-H ) :   0.9516 B(  9-C , 12-C ) :   1.0594
B( 12-C , 13-H ) :   0.9757 B( 12-C , 14-H ) :   0.9817 B( 12-C , 15-H ) :   0.9770
B( 16-S , 17-C ) :   1.1405 B( 16-S , 20-C ) :   1.1313 B( 17-C , 18-C ) :   1.6738
B( 17-C , 33-H ) :   0.9536 B( 18-C , 19-C ) :   1.1957 B( 18-C , 21-H ) :   0.9712
B( 19-C , 20-C ) :   1.5961 B( 19-C , 22-C ) :   1.0469 B( 22-C , 23-H ) :   0.9408
B( 22-C , 24-H ) :   0.9401 B( 22-C , 25-C ) :   1.0637 B( 25-C , 26-H ) :   0.9565
B( 25-C , 27-H ) :   0.9580 B( 25-C , 28-C ) :   1.0819 B( 28-C , 29-H ) :   0.9732
B( 28-C , 30-H ) :   0.9716 B( 28-C , 31-H ) :   0.9715

Dispersion correction           -0.014835096
FINAL SINGLE POINT ENERGY     -1339.855738212286

DIPOLE MOMENT
-------------
                                X             Y             Z
Electronic contribution:      8.20785     -12.92675       2.53970
Nuclear contribution   :     -8.70704      13.39885      -2.59147
                        -----------------------------------------
Total Dipole Moment    :     -0.49919       0.47211      -0.05177
                        -----------------------------------------
Magnitude (a.u.)       :      0.68902
Magnitude (Debye)      :      1.75136

Rotational constants in cm-1:     0.019068     0.009066     0.007495
Rotational constants in MHz :   571.646211   271.791615   224.704632

                             ****ORCA TERMINATED NORMALLY****
TOTAL RUN TIME: 0 days 0 hours 0 minutes 22 seconds 161 msec
