                         Program Version 4.2.1 -  RELEASE  -
|  1> ! wB97X-D3 SP def2-SVP
|  2> %pal
|  3> nprocs 24
|  4> end
|  5>
|  6> * xyz 0 1
|  7> S 	 -124.554 	 57.7906 	 -57.2208
|  8> C 	 -123.746 	 57.685 	 -58.7205
|  9> C 	 -124.461 	 57.0574 	 -59.721
| 10> C 	 -125.749 	 56.6467 	 -59.1962
| 11> C 	 -125.991 	 57.0073 	 -57.8686
| 12> H 	 -126.46 	 56.1415 	 -59.7851
| 13> C 	 -123.955 	 56.6741 	 -61.1234
| 14> H 	 -123.066 	 57.2484 	 -61.4313
| 15> H 	 -124.842 	 57.1611 	 -61.6544
| 16> C 	 -123.691 	 55.1705 	 -61.3463
| 17> H 	 -124.592 	 54.6115 	 -60.9902
| 18> H 	 -123.583 	 54.8569 	 -62.3724
| 19> C 	 -122.501 	 54.5567 	 -60.5063
| 20> H 	 -122.759 	 53.4785 	 -60.3833
| 21> H 	 -121.529 	 54.708 	 -60.9023
| 22> H 	 -122.477 	 55.1092 	 -59.5233
| 23> S 	 -127.167 	 56.8518 	 -55.3188
| 24> C 	 -128.877 	 57.1153 	 -55.0941
| 25> C 	 -129.524 	 57.4092 	 -56.2914
| 26> C 	 -128.571 	 57.5255 	 -57.4041
| 27> C 	 -127.275 	 57.138 	 -57.0976
| 28> H 	 -130.55 	 57.4942 	 -56.3283
| 29> C 	 -128.992 	 58.1335 	 -58.7386
| 30> H 	 -128.23 	 58.3658 	 -59.5606
| 31> H 	 -129.375 	 59.1137 	 -58.5619
| 32> C 	 -130.118 	 57.3255 	 -59.4551
| 33> H 	 -131.016 	 57.4656 	 -58.8373
| 34> H 	 -130.025 	 56.2736 	 -59.4443
| 35> C 	 -130.41 	 57.8746 	 -60.858
| 36> H 	 -131.238 	 57.3608 	 -61.2523
| 37> H 	 -129.568 	 57.7041 	 -61.564
| 38> H 	 -130.695 	 58.9493 	 -60.8611
| 39> H 	 -122.764 	 58.0615 	 -58.8228
| 40> H 	 -129.464 	 57.0752 	 -54.18
| 41> *
| 42>
| 43>                          ****END OF INPUT****

CARTESIAN COORDINATES (ANGSTROEM)
---------------------------------
  S    -124.554000   57.790600  -57.220800
  C    -123.746000   57.685000  -58.720500
  C    -124.461000   57.057400  -59.721000
  C    -125.749000   56.646700  -59.196200
  C    -125.991000   57.007300  -57.868600
  H    -126.460000   56.141500  -59.785100
  C    -123.955000   56.674100  -61.123400
  H    -123.066000   57.248400  -61.431300
  H    -124.842000   57.161100  -61.654400
  C    -123.691000   55.170500  -61.346300
  H    -124.592000   54.611500  -60.990200
  H    -123.583000   54.856900  -62.372400
  C    -122.501000   54.556700  -60.506300
  H    -122.759000   53.478500  -60.383300
  H    -121.529000   54.708000  -60.902300
  H    -122.477000   55.109200  -59.523300
  S    -127.167000   56.851800  -55.318800
  C    -128.877000   57.115300  -55.094100
  C    -129.524000   57.409200  -56.291400
  C    -128.571000   57.525500  -57.404100
  C    -127.275000   57.138000  -57.097600
  H    -130.550000   57.494200  -56.328300
  C    -128.992000   58.133500  -58.738600
  H    -128.230000   58.365800  -59.560600
  H    -129.375000   59.113700  -58.561900
  C    -130.118000   57.325500  -59.455100
  H    -131.016000   57.465600  -58.837300
  H    -130.025000   56.273600  -59.444300
  C    -130.410000   57.874600  -60.858000
  H    -131.238000   57.360800  -61.252300
  H    -129.568000   57.704100  -61.564000
  H    -130.695000   58.949300  -60.861100
  H    -122.764000   58.061500  -58.822800
  H    -129.464000   57.075200  -54.180000

 Total Charge           Charge          ....    0
 Multiplicity           Mult            ....    1
 Number of Electrons    NEL             ....  134
 Basis Dimension        Dim             ....  322

ORBITAL ENERGIES
----------------

  NO   OCC          E(Eh)            E(eV)
   0   2.0000     -88.964469     -2420.8463
   1   2.0000     -88.963700     -2420.8254
   2   2.0000     -10.336368      -281.2669
   3   2.0000     -10.336235      -281.2633
   4   2.0000     -10.321987      -280.8756
   5   2.0000     -10.312459      -280.6163
   6   2.0000     -10.309955      -280.5481
   7   2.0000     -10.305511      -280.4272
   8   2.0000     -10.305359      -280.4231
   9   2.0000     -10.297630      -280.2127
  10   2.0000     -10.295557      -280.1563
  11   2.0000     -10.294571      -280.1295
  12   2.0000     -10.294193      -280.1192
  13   2.0000     -10.284062      -279.8436
  14   2.0000     -10.281765      -279.7810
  15   2.0000     -10.279441      -279.7178
  16   2.0000      -8.080125      -219.8714
  17   2.0000      -8.077875      -219.8101
  18   2.0000      -6.038543      -164.3171
  19   2.0000      -6.036561      -164.2632
  20   2.0000      -6.034479      -164.2065
  21   2.0000      -6.032503      -164.1528
  22   2.0000      -6.030932      -164.1100
  23   2.0000      -6.028431      -164.0419
  24   2.0000      -1.002054       -27.2673
  25   2.0000      -0.980248       -26.6739
  26   2.0000      -0.905823       -24.6487
  27   2.0000      -0.904366       -24.6090
  28   2.0000      -0.864031       -23.5115
  29   2.0000      -0.849174       -23.1072
  30   2.0000      -0.842901       -22.9365
  31   2.0000      -0.815157       -22.1815
  32   2.0000      -0.780512       -21.2388
  33   2.0000      -0.771459       -20.9925
  34   2.0000      -0.707282       -19.2461
  35   2.0000      -0.699476       -19.0337
  36   2.0000      -0.691596       -18.8193
  37   2.0000      -0.662240       -18.0205
  38   2.0000      -0.645028       -17.5521
  39   2.0000      -0.625443       -17.0192
  40   2.0000      -0.597417       -16.2566
  41   2.0000      -0.568863       -15.4795
  42   2.0000      -0.557126       -15.1602
  43   2.0000      -0.552555       -15.0358
  44   2.0000      -0.538736       -14.6598
  45   2.0000      -0.522559       -14.2195
  46   2.0000      -0.516732       -14.0610
  47   2.0000      -0.507894       -13.8205
  48   2.0000      -0.505448       -13.7539
  49   2.0000      -0.495176       -13.4744
  50   2.0000      -0.485958       -13.2236
  51   2.0000      -0.475676       -12.9438
  52   2.0000      -0.468489       -12.7482
  53   2.0000      -0.466080       -12.6827
  54   2.0000      -0.461439       -12.5564
  55   2.0000      -0.450593       -12.2613
  56   2.0000      -0.446469       -12.1490
  57   2.0000      -0.441022       -12.0008
  58   2.0000      -0.437442       -11.9034
  59   2.0000      -0.423057       -11.5120
  60   2.0000      -0.419083       -11.4038
  61   2.0000      -0.410991       -11.1836
  62   2.0000      -0.405200       -11.0261
  63   2.0000      -0.350689        -9.5427
  64   2.0000      -0.331195        -9.0123
  65   2.0000      -0.326097        -8.8735
  66   2.0000      -0.291192        -7.9237
  67   0.0000       0.028711         0.7813
  68   0.0000       0.071716         1.9515
  69   0.0000       0.107537         2.9262
  70   0.0000       0.117610         3.2003
  71   0.0000       0.124336         3.3834

MULLIKEN ATOMIC CHARGES
-----------------------
   0 S :    0.107227
   1 C :   -0.102219
   2 C :   -0.115980
   3 C :    0.023191
   4 C :   -0.102075
   5 H :   -0.003869
   6 C :    0.041888
   7 H :    0.029811
   8 H :    0.051037
   9 C :   -0.069676
  10 H :    0.030024
  11 H :    0.035586
  12 C :   -0.076104
  13 H :    0.051334
  14 H :    0.030161
  15 H :    0.044042
  16 S :    0.081337
  17 C :   -0.075478
  18 C :   -0.013922
  19 C :   -0.022029
  20 C :   -0.137149
  21 H :   -0.003295
  22 C :    0.038245
  23 H :    0.037494
  24 H :    0.023861
  25 C :   -0.098734
  26 H :    0.021188
  27 H :    0.025043
  28 C :   -0.039767
  29 H :    0.020852
  30 H :    0.037467
  31 H :    0.034675
  32 H :    0.033870
  33 H :    0.061962
Sum of atomic charges:   -0.0000000

LOEWDIN ATOMIC CHARGES
----------------------
   0 S :    0.419462
   1 C :   -0.199863
   2 C :   -0.069244
   3 C :   -0.053679
   4 C :   -0.190230
   5 H :    0.021759
   6 C :   -0.040017
   7 H :    0.030013
   8 H :    0.046055
   9 C :   -0.044353
  10 H :    0.027809
  11 H :    0.022550
  12 C :   -0.068169
  13 H :    0.035480
  14 H :    0.015633
  15 H :    0.033802
  16 S :    0.374949
  17 C :   -0.178686
  18 C :   -0.063169
  19 C :   -0.049514
  20 C :   -0.180645
  21 H :    0.017684
  22 C :   -0.035677
  23 H :    0.036435
  24 H :    0.028512
  25 C :   -0.041569
  26 H :    0.021917
  27 H :    0.017701
  28 C :   -0.065434
  29 H :    0.019745
  30 H :    0.027257
  31 H :    0.029803
  32 H :    0.018200
  33 H :    0.035485

  Mayer bond orders larger than 0.100000
B(  0-S ,  1-C ) :   1.1633 B(  0-S ,  4-C ) :   1.1544 B(  1-C ,  2-C ) :   1.5945
B(  1-C , 32-H ) :   0.9719 B(  2-C ,  3-C ) :   1.2466 B(  2-C ,  6-C ) :   0.9996
B(  3-C ,  4-C ) :   1.5720 B(  3-C ,  5-H ) :   1.0072 B(  4-C , 20-C ) :   1.0137
B(  6-C ,  7-H ) :   0.9507 B(  6-C ,  8-H ) :   0.9416 B(  6-C ,  9-C ) :   1.0567
B(  9-C , 10-H ) :   0.9626 B(  9-C , 11-H ) :   0.9595 B(  9-C , 12-C ) :   1.0570
B( 12-C , 13-H ) :   0.9777 B( 12-C , 14-H ) :   0.9782 B( 12-C , 15-H ) :   0.9771
B( 16-S , 17-C ) :   1.1500 B( 16-S , 20-C ) :   1.1044 B( 17-C , 18-C ) :   1.6400
B( 17-C , 33-H ) :   0.9638 B( 18-C , 19-C ) :   1.1987 B( 18-C , 21-H ) :   1.0005
B( 19-C , 20-C ) :   1.6424 B( 19-C , 22-C ) :   1.0260 B( 22-C , 23-H ) :   0.9558
B( 22-C , 24-H ) :   0.9338 B( 22-C , 25-C ) :   1.0390 B( 25-C , 26-H ) :   0.9519
B( 25-C , 27-H ) :   0.9634 B( 25-C , 28-C ) :   1.0937 B( 28-C , 29-H ) :   0.9718
B( 28-C , 30-H ) :   0.9739 B( 28-C , 31-H ) :   0.9719

Dispersion correction           -0.014017482
FINAL SINGLE POINT ENERGY     -1339.868346753831

DIPOLE MOMENT
-------------
                                X             Y             Z
Electronic contribution:      4.69861       5.09181      25.96039
Nuclear contribution   :     -5.03833      -5.04969     -26.58660
                        -----------------------------------------
Total Dipole Moment    :     -0.33972       0.04212      -0.62621
                        -----------------------------------------
Magnitude (a.u.)       :      0.71367
Magnitude (Debye)      :      1.81401

Rotational constants in cm-1:     0.017644     0.008602     0.006427
Rotational constants in MHz :   528.966788   257.874921   192.679754

                             ****ORCA TERMINATED NORMALLY****
TOTAL RUN TIME: 0 days 0 hours 0 minutes 21 seconds 238 msec
