                         Program Version 4.2.1 -  RELEASE  -
|  1> ! wB97X-D3 SP def2-SVP
|  2> %pal
|  3> nprocs 24
|  4> end
|  5>
|  6> * xyz 0 1
|  7> S 	 -120.509 	 65.4315 	 -35.9825
|  8> C 	 -120.047 	 66.1677 	 -34.4678
|  9> C 	 -120.895 	 67.2198 	 -34.2244
| 10> C 	 -121.957 	 67.3356 	 -35.1495
| 11> C 	 -122.059 	 66.2276 	 -35.9714
| 12> H 	 -122.578 	 68.2108 	 -35.2544
| 13> C 	 -120.64 	 68.2557 	 -33.0826
| 14> H 	 -120.198 	 69.1804 	 -33.4945
| 15> H 	 -119.9 	 67.7891 	 -32.3923
| 16> C 	 -121.921 	 68.6316 	 -32.3624
| 17> H 	 -121.68 	 69.4015 	 -31.5987
| 18> H 	 -122.515 	 69.1536 	 -33.1864
| 19> C 	 -122.717 	 67.4179 	 -31.8027
| 20> H 	 -122.943 	 66.6764 	 -32.5979
| 21> H 	 -122.19 	 66.9423 	 -30.923
| 22> H 	 -123.673 	 67.7341 	 -31.3832
| 23> S 	 -122.612 	 65.6871 	 -38.6463
| 24> C 	 -124.296 	 65.6194 	 -39.208
| 25> C 	 -125.126 	 66.0568 	 -38.1925
| 26> C 	 -124.51 	 66.24 	 -36.9026
| 27> C 	 -123.101 	 66.0518 	 -36.9925
| 28> H 	 -126.246 	 66.1497 	 -38.4357
| 29> C 	 -125.314 	 66.5936 	 -35.6342
| 30> H 	 -125.981 	 67.4096 	 -35.8494
| 31> H 	 -124.582 	 67.0472 	 -34.8896
| 32> C 	 -125.966 	 65.4109 	 -34.931
| 33> H 	 -125.112 	 64.7365 	 -34.7761
| 34> H 	 -126.676 	 64.9588 	 -35.5681
| 35> C 	 -126.752 	 65.6763 	 -33.6408
| 36> H 	 -126.083 	 65.8438 	 -32.7951
| 37> H 	 -127.263 	 64.775 	 -33.3329
| 38> H 	 -127.531 	 66.4431 	 -33.6535
| 39> H 	 -119.223 	 65.8546 	 -33.8487
| 40> H 	 -124.499 	 65.5524 	 -40.2827
| 41> *
| 42>
| 43>                          ****END OF INPUT****

CARTESIAN COORDINATES (ANGSTROEM)
---------------------------------
  S    -120.509000   65.431500  -35.982500
  C    -120.047000   66.167700  -34.467800
  C    -120.895000   67.219800  -34.224400
  C    -121.957000   67.335600  -35.149500
  C    -122.059000   66.227600  -35.971400
  H    -122.578000   68.210800  -35.254400
  C    -120.640000   68.255700  -33.082600
  H    -120.198000   69.180400  -33.494500
  H    -119.900000   67.789100  -32.392300
  C    -121.921000   68.631600  -32.362400
  H    -121.680000   69.401500  -31.598700
  H    -122.515000   69.153600  -33.186400
  C    -122.717000   67.417900  -31.802700
  H    -122.943000   66.676400  -32.597900
  H    -122.190000   66.942300  -30.923000
  H    -123.673000   67.734100  -31.383200
  S    -122.612000   65.687100  -38.646300
  C    -124.296000   65.619400  -39.208000
  C    -125.126000   66.056800  -38.192500
  C    -124.510000   66.240000  -36.902600
  C    -123.101000   66.051800  -36.992500
  H    -126.246000   66.149700  -38.435700
  C    -125.314000   66.593600  -35.634200
  H    -125.981000   67.409600  -35.849400
  H    -124.582000   67.047200  -34.889600
  C    -125.966000   65.410900  -34.931000
  H    -125.112000   64.736500  -34.776100
  H    -126.676000   64.958800  -35.568100
  C    -126.752000   65.676300  -33.640800
  H    -126.083000   65.843800  -32.795100
  H    -127.263000   64.775000  -33.332900
  H    -127.531000   66.443100  -33.653500
  H    -119.223000   65.854600  -33.848700
  H    -124.499000   65.552400  -40.282700

 Total Charge           Charge          ....    0
 Multiplicity           Mult            ....    1
 Number of Electrons    NEL             ....  134
 Basis Dimension        Dim             ....  322

ORBITAL ENERGIES
----------------

  NO   OCC          E(Eh)            E(eV)
   0   2.0000     -88.965628     -2420.8778
   1   2.0000     -88.965335     -2420.8698
   2   2.0000     -10.336231      -281.2632
   3   2.0000     -10.332788      -281.1695
   4   2.0000     -10.322087      -280.8783
   5   2.0000     -10.313592      -280.6471
   6   2.0000     -10.312924      -280.6289
   7   2.0000     -10.305268      -280.4206
   8   2.0000     -10.300175      -280.2820
   9   2.0000     -10.297093      -280.1981
  10   2.0000     -10.295150      -280.1453
  11   2.0000     -10.295110      -280.1442
  12   2.0000     -10.294116      -280.1171
  13   2.0000     -10.284105      -279.8447
  14   2.0000     -10.282194      -279.7927
  15   2.0000     -10.277086      -279.6537
  16   2.0000      -8.080446      -219.8801
  17   2.0000      -8.079903      -219.8653
  18   2.0000      -6.039045      -164.3308
  19   2.0000      -6.038445      -164.3144
  20   2.0000      -6.035158      -164.2250
  21   2.0000      -6.034489      -164.2068
  22   2.0000      -6.030816      -164.1069
  23   2.0000      -6.030650      -164.1023
  24   2.0000      -1.008744       -27.4493
  25   2.0000      -0.982282       -26.7293
  26   2.0000      -0.909099       -24.7378
  27   2.0000      -0.905876       -24.6502
  28   2.0000      -0.868335       -23.6286
  29   2.0000      -0.848690       -23.0940
  30   2.0000      -0.838224       -22.8092
  31   2.0000      -0.813380       -22.1332
  32   2.0000      -0.783095       -21.3091
  33   2.0000      -0.773946       -21.0601
  34   2.0000      -0.708405       -19.2767
  35   2.0000      -0.694794       -18.9063
  36   2.0000      -0.687374       -18.7044
  37   2.0000      -0.653022       -17.7696
  38   2.0000      -0.637383       -17.3441
  39   2.0000      -0.624849       -17.0030
  40   2.0000      -0.593305       -16.1447
  41   2.0000      -0.568126       -15.4595
  42   2.0000      -0.562444       -15.3049
  43   2.0000      -0.548242       -14.9184
  44   2.0000      -0.540899       -14.7186
  45   2.0000      -0.522059       -14.2060
  46   2.0000      -0.517386       -14.0788
  47   2.0000      -0.512813       -13.9544
  48   2.0000      -0.502006       -13.6603
  49   2.0000      -0.500045       -13.6069
  50   2.0000      -0.489728       -13.3262
  51   2.0000      -0.482996       -13.1430
  52   2.0000      -0.467328       -12.7167
  53   2.0000      -0.460415       -12.5285
  54   2.0000      -0.459415       -12.5013
  55   2.0000      -0.449371       -12.2280
  56   2.0000      -0.445272       -12.1165
  57   2.0000      -0.436998       -11.8913
  58   2.0000      -0.430127       -11.7043
  59   2.0000      -0.422878       -11.5071
  60   2.0000      -0.416213       -11.3257
  61   2.0000      -0.413471       -11.2511
  62   2.0000      -0.411328       -11.1928
  63   2.0000      -0.354001        -9.6329
  64   2.0000      -0.332224        -9.0403
  65   2.0000      -0.325943        -8.8694
  66   2.0000      -0.287645        -7.8272
  67   0.0000       0.016640         0.4528
  68   0.0000       0.071227         1.9382
  69   0.0000       0.095894         2.6094
  70   0.0000       0.121805         3.3145
  71   0.0000       0.129388         3.5208

MULLIKEN ATOMIC CHARGES
-----------------------
   0 S :    0.100651
   1 C :   -0.115924
   2 C :   -0.101974
   3 C :    0.000956
   4 C :   -0.127729
   5 H :    0.034438
   6 C :    0.077022
   7 H :    0.047752
   8 H :    0.019977
   9 C :   -0.116013
  10 H :    0.040296
  11 H :    0.031291
  12 C :   -0.068976
  13 H :    0.061435
  14 H :    0.039638
  15 H :    0.032326
  16 S :    0.086859
  17 C :   -0.109003
  18 C :   -0.056993
  19 C :   -0.056958
  20 C :   -0.144921
  21 H :    0.051491
  22 C :    0.071021
  23 H :    0.020294
  24 H :    0.011914
  25 C :   -0.055345
  26 H :    0.039070
  27 H :    0.017829
  28 C :   -0.037064
  29 H :    0.025729
  30 H :    0.025486
  31 H :    0.032841
  32 H :    0.048438
  33 H :    0.074145
Sum of atomic charges:    0.0000000

LOEWDIN ATOMIC CHARGES
----------------------
   0 S :    0.405568
   1 C :   -0.193258
   2 C :   -0.066522
   3 C :   -0.063192
   4 C :   -0.191536
   5 H :    0.031762
   6 C :   -0.032290
   7 H :    0.036214
   8 H :    0.027274
   9 C :   -0.052648
  10 H :    0.027828
  11 H :    0.026514
  12 C :   -0.074393
  13 H :    0.031181
  14 H :    0.031857
  15 H :    0.024238
  16 S :    0.385174
  17 C :   -0.186292
  18 C :   -0.077198
  19 C :   -0.058779
  20 C :   -0.187265
  21 H :    0.045883
  22 C :   -0.035351
  23 H :    0.024812
  24 H :    0.033285
  25 C :   -0.038507
  26 H :    0.033712
  27 H :    0.017078
  28 C :   -0.067513
  29 H :    0.024498
  30 H :    0.028137
  31 H :    0.025413
  32 H :    0.029826
  33 H :    0.034490

  Mayer bond orders larger than 0.100000
B(  0-S ,  1-C ) :   1.1318 B(  0-S ,  4-C ) :   1.1609 B(  1-C ,  2-C ) :   1.6020
B(  1-C ,  4-C ) :   0.1014 B(  1-C , 32-H ) :   0.9738 B(  2-C ,  3-C ) :   1.2548
B(  2-C ,  6-C ) :   1.0066 B(  3-C ,  4-C ) :   1.5306 B(  3-C ,  5-H ) :   0.9885
B(  4-C , 20-C ) :   1.0640 B(  6-C ,  7-H ) :   0.9421 B(  6-C ,  8-H ) :   0.9441
B(  6-C ,  9-C ) :   1.0712 B(  9-C , 10-H ) :   0.9559 B(  9-C , 11-H ) :   0.9495
B(  9-C , 12-C ) :   1.0736 B( 12-C , 13-H ) :   0.9665 B( 12-C , 14-H ) :   0.9731
B( 12-C , 15-H ) :   0.9745 B( 16-S , 17-C ) :   1.1378 B( 16-S , 20-C ) :   1.1547
B( 17-C , 18-C ) :   1.6134 B( 17-C , 20-C ) :   0.1015 B( 17-C , 33-H ) :   0.9666
B( 18-C , 19-C ) :   1.2480 B( 18-C , 21-H ) :   0.9738 B( 19-C , 20-C ) :   1.5730
B( 19-C , 22-C ) :   1.0420 B( 22-C , 23-H ) :   0.9311 B( 22-C , 24-H ) :   0.9299
B( 22-C , 25-C ) :   1.0648 B( 25-C , 26-H ) :   0.9520 B( 25-C , 27-H ) :   0.9583
B( 25-C , 28-C ) :   1.0868 B( 28-C , 29-H ) :   0.9734 B( 28-C , 30-H ) :   0.9714
B( 28-C , 31-H ) :   0.9742

Dispersion correction           -0.015130424
FINAL SINGLE POINT ENERGY     -1339.877080897711

DIPOLE MOMENT
-------------
                                X             Y             Z
Electronic contribution:     16.20942      -8.08295     -25.47342
Nuclear contribution   :    -16.56780       8.54085      25.87422
                        -----------------------------------------
Total Dipole Moment    :     -0.35838       0.45791       0.40080
                        -----------------------------------------
Magnitude (a.u.)       :      0.70623
Magnitude (Debye)      :      1.79509

Rotational constants in cm-1:     0.016257     0.010810     0.007203
Rotational constants in MHz :   487.376635   324.067091   215.925794

                             ****ORCA TERMINATED NORMALLY****
TOTAL RUN TIME: 0 days 0 hours 0 minutes 22 seconds 589 msec
