                         Program Version 4.2.1 -  RELEASE  -
|  1> ! wB97X-D3 SP def2-SVP
|  2> %pal
|  3> nprocs 24
|  4> end
|  5>
|  6> * xyz 0 1
|  7> S 	 27.0553 	 -6.74752 	 -113.119
|  8> C 	 27.2447 	 -8.49855 	 -113.446
|  9> C 	 25.9823 	 -9.0797 	 -113.481
| 10> C 	 24.9689 	 -8.13541 	 -113.146
| 11> C 	 25.3498 	 -6.86681 	 -112.713
| 12> H 	 23.8906 	 -8.3504 	 -113.33
| 13> C 	 25.6554 	 -10.4352 	 -113.951
| 14> H 	 24.7174 	 -10.8592 	 -113.512
| 15> H 	 26.4089 	 -11.1551 	 -113.614
| 16> C 	 25.5872 	 -10.6196 	 -115.47
| 17> H 	 26.5882 	 -10.4836 	 -115.892
| 18> H 	 25.396 	 -11.7265 	 -115.599
| 19> C 	 24.5108 	 -9.77564 	 -116.197
| 20> H 	 24.3383 	 -10.1808 	 -117.178
| 21> H 	 23.4961 	 -9.86021 	 -115.686
| 22> H 	 24.647 	 -8.7409 	 -116.284
| 23> S 	 25.3722 	 -4.10684 	 -112.605
| 24> C 	 23.8506 	 -3.30716 	 -112.164
| 25> C 	 22.796 	 -4.18315 	 -112.162
| 26> C 	 23.197 	 -5.51565 	 -112.412
| 27> C 	 24.546 	 -5.65771 	 -112.56
| 28> H 	 21.775 	 -3.80745 	 -112.113
| 29> C 	 22.2127 	 -6.62039 	 -112.384
| 30> H 	 22.3759 	 -7.31369 	 -113.191
| 31> H 	 21.2092 	 -6.18023 	 -112.425
| 32> C 	 22.244 	 -7.47391 	 -111.17
| 33> H 	 22.3381 	 -6.83996 	 -110.315
| 34> H 	 23.1698 	 -7.96134 	 -111.067
| 35> C 	 21.0767 	 -8.42914 	 -111.053
| 36> H 	 20.593 	 -8.49631 	 -110.071
| 37> H 	 21.36 	 -9.41445 	 -111.287
| 38> H 	 20.2804 	 -8.14998 	 -111.721
| 39> H 	 28.1223 	 -8.99211 	 -113.725
| 40> H 	 23.7799 	 -2.1697 	 -112.126
| 41> *
| 42>
| 43>                          ****END OF INPUT****

CARTESIAN COORDINATES (ANGSTROEM)
---------------------------------
  S     27.055300   -6.747520  -113.119000
  C     27.244700   -8.498550  -113.446000
  C     25.982300   -9.079700  -113.481000
  C     24.968900   -8.135410  -113.146000
  C     25.349800   -6.866810  -112.713000
  H     23.890600   -8.350400  -113.330000
  C     25.655400  -10.435200  -113.951000
  H     24.717400  -10.859200  -113.512000
  H     26.408900  -11.155100  -113.614000
  C     25.587200  -10.619600  -115.470000
  H     26.588200  -10.483600  -115.892000
  H     25.396000  -11.726500  -115.599000
  C     24.510800   -9.775640  -116.197000
  H     24.338300  -10.180800  -117.178000
  H     23.496100   -9.860210  -115.686000
  H     24.647000   -8.740900  -116.284000
  S     25.372200   -4.106840  -112.605000
  C     23.850600   -3.307160  -112.164000
  C     22.796000   -4.183150  -112.162000
  C     23.197000   -5.515650  -112.412000
  C     24.546000   -5.657710  -112.560000
  H     21.775000   -3.807450  -112.113000
  C     22.212700   -6.620390  -112.384000
  H     22.375900   -7.313690  -113.191000
  H     21.209200   -6.180230  -112.425000
  C     22.244000   -7.473910  -111.170000
  H     22.338100   -6.839960  -110.315000
  H     23.169800   -7.961340  -111.067000
  C     21.076700   -8.429140  -111.053000
  H     20.593000   -8.496310  -110.071000
  H     21.360000   -9.414450  -111.287000
  H     20.280400   -8.149980  -111.721000
  H     28.122300   -8.992110  -113.725000
  H     23.779900   -2.169700  -112.126000

 Total Charge           Charge          ....    0
 Multiplicity           Mult            ....    1
 Number of Electrons    NEL             ....  134
 Basis Dimension        Dim             ....  322

ORBITAL ENERGIES
----------------

  NO   OCC          E(Eh)            E(eV)
   0   2.0000     -88.967057     -2420.9167
   1   2.0000     -88.965117     -2420.8639
   2   2.0000     -10.334120      -281.2057
   3   2.0000     -10.328526      -281.0535
   4   2.0000     -10.325569      -280.9730
   5   2.0000     -10.317580      -280.7556
   6   2.0000     -10.301386      -280.3150
   7   2.0000     -10.298067      -280.2247
   8   2.0000     -10.296408      -280.1795
   9   2.0000     -10.295959      -280.1673
  10   2.0000     -10.295335      -280.1503
  11   2.0000     -10.293207      -280.0924
  12   2.0000     -10.285752      -279.8895
  13   2.0000     -10.278594      -279.6948
  14   2.0000     -10.270613      -279.4776
  15   2.0000     -10.269357      -279.4434
  16   2.0000      -8.081577      -219.9109
  17   2.0000      -8.079133      -219.8444
  18   2.0000      -6.040219      -164.3627
  19   2.0000      -6.037866      -164.2987
  20   2.0000      -6.036285      -164.2557
  21   2.0000      -6.033872      -164.1900
  22   2.0000      -6.032047      -164.1403
  23   2.0000      -6.029553      -164.0725
  24   2.0000      -1.010381       -27.4939
  25   2.0000      -0.985271       -26.8106
  26   2.0000      -0.923045       -25.1173
  27   2.0000      -0.914874       -24.8950
  28   2.0000      -0.870102       -23.6767
  29   2.0000      -0.856528       -23.3073
  30   2.0000      -0.839338       -22.8395
  31   2.0000      -0.816329       -22.2134
  32   2.0000      -0.788241       -21.4491
  33   2.0000      -0.778283       -21.1782
  34   2.0000      -0.714394       -19.4396
  35   2.0000      -0.705113       -19.1871
  36   2.0000      -0.695842       -18.9348
  37   2.0000      -0.667915       -18.1749
  38   2.0000      -0.637688       -17.3524
  39   2.0000      -0.622899       -16.9500
  40   2.0000      -0.601923       -16.3792
  41   2.0000      -0.575481       -15.6596
  42   2.0000      -0.572914       -15.5898
  43   2.0000      -0.545281       -14.8379
  44   2.0000      -0.543032       -14.7766
  45   2.0000      -0.522310       -14.2128
  46   2.0000      -0.520916       -14.1748
  47   2.0000      -0.513767       -13.9803
  48   2.0000      -0.507942       -13.8218
  49   2.0000      -0.502102       -13.6629
  50   2.0000      -0.487093       -13.2545
  51   2.0000      -0.485991       -13.2245
  52   2.0000      -0.474099       -12.9009
  53   2.0000      -0.465375       -12.6635
  54   2.0000      -0.461320       -12.5532
  55   2.0000      -0.454635       -12.3712
  56   2.0000      -0.441486       -12.0135
  57   2.0000      -0.438178       -11.9234
  58   2.0000      -0.433940       -11.8081
  59   2.0000      -0.428513       -11.6604
  60   2.0000      -0.424710       -11.5570
  61   2.0000      -0.412232       -11.2174
  62   2.0000      -0.405710       -11.0399
  63   2.0000      -0.362981        -9.8772
  64   2.0000      -0.337155        -9.1745
  65   2.0000      -0.323770        -8.8102
  66   2.0000      -0.282784        -7.6950
  67   0.0000       0.012512         0.3405
  68   0.0000       0.080554         2.1920
  69   0.0000       0.085068         2.3148
  70   0.0000       0.118441         3.2229
  71   0.0000       0.128844         3.5060

MULLIKEN ATOMIC CHARGES
-----------------------
   0 S :    0.066066
   1 C :   -0.084955
   2 C :   -0.057922
   3 C :   -0.043710
   4 C :   -0.062820
   5 H :    0.013130
   6 C :    0.034202
   7 H :    0.030193
   8 H :    0.024452
   9 C :   -0.075002
  10 H :    0.027967
  11 H :    0.035108
  12 C :   -0.045575
  13 H :    0.031156
  14 H :    0.022466
  15 H :    0.041087
  16 S :    0.093523
  17 C :   -0.115354
  18 C :   -0.024067
  19 C :   -0.066197
  20 C :   -0.118797
  21 H :    0.025447
  22 C :    0.077487
  23 H :    0.020168
  24 H :    0.012084
  25 C :   -0.049857
  26 H :    0.006108
  27 H :    0.012793
  28 C :   -0.005290
  29 H :    0.033221
  30 H :    0.018062
  31 H :    0.016529
  32 H :    0.026520
  33 H :    0.081781
Sum of atomic charges:    0.0000000

LOEWDIN ATOMIC CHARGES
----------------------
   0 S :    0.383297
   1 C :   -0.168669
   2 C :   -0.065585
   3 C :   -0.072894
   4 C :   -0.184833
   5 H :    0.031056
   6 C :   -0.043251
   7 H :    0.033138
   8 H :    0.034941
   9 C :   -0.037747
  10 H :    0.022012
  11 H :    0.031309
  12 C :   -0.068489
  13 H :    0.026651
  14 H :    0.029746
  15 H :    0.020497
  16 S :    0.385537
  17 C :   -0.179371
  18 C :   -0.070130
  19 C :   -0.058691
  20 C :   -0.186409
  21 H :    0.037040
  22 C :   -0.028177
  23 H :    0.023801
  24 H :    0.031107
  25 C :   -0.043653
  26 H :    0.022098
  27 H :    0.018313
  28 C :   -0.059206
  29 H :    0.032206
  30 H :    0.020008
  31 H :    0.022560
  32 H :    0.018640
  33 H :    0.043149

  Mayer bond orders larger than 0.100000
B(  0-S ,  1-C ) :   1.1350 B(  0-S ,  4-C ) :   1.1388 B(  1-C ,  2-C ) :   1.5736
B(  1-C ,  4-C ) :   0.1018 B(  1-C , 32-H ) :   0.9785 B(  2-C ,  3-C ) :   1.2825
B(  2-C ,  6-C ) :   1.0385 B(  3-C ,  4-C ) :   1.5249 B(  3-C ,  5-H ) :   0.9733
B(  4-C , 20-C ) :   1.0947 B(  6-C ,  7-H ) :   0.9424 B(  6-C ,  8-H ) :   0.9309
B(  6-C ,  9-C ) :   1.0836 B(  9-C , 10-H ) :   0.9545 B(  9-C , 11-H ) :   0.9554
B(  9-C , 12-C ) :   1.0682 B( 12-C , 13-H ) :   0.9734 B( 12-C , 14-H ) :   0.9723
B( 12-C , 15-H ) :   0.9762 B( 16-S , 17-C ) :   1.1459 B( 16-S , 20-C ) :   1.1160
B( 17-C , 18-C ) :   1.6158 B( 17-C , 33-H ) :   0.9572 B( 18-C , 19-C ) :   1.2464
B( 18-C , 21-H ) :   0.9887 B( 19-C , 20-C ) :   1.6045 B( 19-C , 22-C ) :   1.0640
B( 22-C , 23-H ) :   0.9183 B( 22-C , 24-H ) :   0.9196 B( 22-C , 25-C ) :   1.0798
B( 25-C , 26-H ) :   0.9452 B( 25-C , 27-H ) :   0.9478 B( 25-C , 28-C ) :   1.0690
B( 28-C , 29-H ) :   0.9752 B( 28-C , 30-H ) :   0.9732 B( 28-C , 31-H ) :   0.9750

Dispersion correction           -0.014918476
FINAL SINGLE POINT ENERGY     -1339.869260484087

DIPOLE MOMENT
-------------
                                X             Y             Z
Electronic contribution:     18.24276      22.59322       4.53178
Nuclear contribution   :    -18.80881     -23.02671      -4.82378
                        -----------------------------------------
Total Dipole Moment    :     -0.56605      -0.43349      -0.29200
                        -----------------------------------------
Magnitude (a.u.)       :      0.77045
Magnitude (Debye)      :      1.95833

Rotational constants in cm-1:     0.017670     0.010138     0.007396
Rotational constants in MHz :   529.720320   303.938612   221.726466

                             ****ORCA TERMINATED NORMALLY****
TOTAL RUN TIME: 0 days 0 hours 0 minutes 22 seconds 939 msec
