                         Program Version 4.2.1 -  RELEASE  -
|  1> ! wB97X-D3 SP def2-SVP
|  2> %pal
|  3> nprocs 24
|  4> end
|  5>
|  6> * xyz 0 1
|  7> S 	 -141.728 	 1.47026 	 13.1275
|  8> C 	 -142.89 	 0.3007 	 12.624
|  9> C 	 -144.077 	 0.902063 	 12.2102
| 10> C 	 -143.992 	 2.34931 	 12.2889
| 11> C 	 -142.834 	 2.77463 	 12.8924
| 12> H 	 -144.69 	 3.09166 	 11.9131
| 13> C 	 -145.261 	 0.102199 	 11.7535
| 14> H 	 -146.148 	 0.704937 	 11.9627
| 15> H 	 -145.269 	 -0.751078 	 12.4267
| 16> C 	 -145.251 	 -0.415034 	 10.2722
| 17> H 	 -144.243 	 -0.861154 	 10.0923
| 18> H 	 -145.86 	 -1.27789 	 9.97417
| 19> C 	 -145.426 	 0.610513 	 9.13327
| 20> H 	 -146.41 	 1.11729 	 9.04182
| 21> H 	 -144.64 	 1.38338 	 9.21331
| 22> H 	 -145.348 	 0.125478 	 8.14077
| 23> S 	 -141.179 	 4.88739 	 12.2861
| 24> C 	 -141.409 	 6.43309 	 12.9968
| 25> C 	 -142.341 	 6.40667 	 13.9509
| 26> C 	 -143.144 	 5.19358 	 13.9611
| 27> C 	 -142.49 	 4.19491 	 13.2198
| 28> H 	 -142.444 	 7.21614 	 14.5633
| 29> C 	 -144.484 	 5.07791 	 14.7331
| 30> H 	 -144.984 	 4.12187 	 14.5299
| 31> H 	 -145.126 	 5.80323 	 14.2562
| 32> C 	 -144.309 	 5.27461 	 16.2197
| 33> H 	 -143.826 	 6.22623 	 16.3287
| 34> H 	 -143.693 	 4.4258 	 16.6036
| 35> C 	 -145.624 	 5.44885 	 16.9241
| 36> H 	 -146.264 	 4.52449 	 16.7655
| 37> H 	 -146.235 	 6.30309 	 16.4966
| 38> H 	 -145.477 	 5.62145 	 17.9933
| 39> H 	 -142.703 	 -0.71795 	 12.5249
| 40> H 	 -140.824 	 7.34835 	 12.9028
| 41> *
| 42>
| 43>                          ****END OF INPUT****

CARTESIAN COORDINATES (ANGSTROEM)
---------------------------------
  S    -141.728000    1.470260   13.127500
  C    -142.890000    0.300700   12.624000
  C    -144.077000    0.902063   12.210200
  C    -143.992000    2.349310   12.288900
  C    -142.834000    2.774630   12.892400
  H    -144.690000    3.091660   11.913100
  C    -145.261000    0.102199   11.753500
  H    -146.148000    0.704937   11.962700
  H    -145.269000   -0.751078   12.426700
  C    -145.251000   -0.415034   10.272200
  H    -144.243000   -0.861154   10.092300
  H    -145.860000   -1.277890    9.974170
  C    -145.426000    0.610513    9.133270
  H    -146.410000    1.117290    9.041820
  H    -144.640000    1.383380    9.213310
  H    -145.348000    0.125478    8.140770
  S    -141.179000    4.887390   12.286100
  C    -141.409000    6.433090   12.996800
  C    -142.341000    6.406670   13.950900
  C    -143.144000    5.193580   13.961100
  C    -142.490000    4.194910   13.219800
  H    -142.444000    7.216140   14.563300
  C    -144.484000    5.077910   14.733100
  H    -144.984000    4.121870   14.529900
  H    -145.126000    5.803230   14.256200
  C    -144.309000    5.274610   16.219700
  H    -143.826000    6.226230   16.328700
  H    -143.693000    4.425800   16.603600
  C    -145.624000    5.448850   16.924100
  H    -146.264000    4.524490   16.765500
  H    -146.235000    6.303090   16.496600
  H    -145.477000    5.621450   17.993300
  H    -142.703000   -0.717950   12.524900
  H    -140.824000    7.348350   12.902800

 Total Charge           Charge          ....    0
 Multiplicity           Mult            ....    1
 Number of Electrons    NEL             ....  134
 Basis Dimension        Dim             ....  322

ORBITAL ENERGIES
----------------

  NO   OCC          E(Eh)            E(eV)
   0   2.0000     -88.966370     -2420.8980
   1   2.0000     -88.961744     -2420.7721
   2   2.0000     -10.328997      -281.0663
   3   2.0000     -10.327912      -281.0368
   4   2.0000     -10.309425      -280.5337
   5   2.0000     -10.308917      -280.5199
   6   2.0000     -10.308563      -280.5103
   7   2.0000     -10.303414      -280.3701
   8   2.0000     -10.295809      -280.1632
   9   2.0000     -10.294844      -280.1369
  10   2.0000     -10.293103      -280.0896
  11   2.0000     -10.291374      -280.0425
  12   2.0000     -10.284800      -279.8636
  13   2.0000     -10.283868      -279.8383
  14   2.0000     -10.282854      -279.8107
  15   2.0000     -10.280804      -279.7549
  16   2.0000      -8.081918      -219.9202
  17   2.0000      -8.077198      -219.7917
  18   2.0000      -6.040395      -164.3675
  19   2.0000      -6.036220      -164.2539
  20   2.0000      -6.035810      -164.2428
  21   2.0000      -6.032759      -164.1597
  22   2.0000      -6.031597      -164.1281
  23   2.0000      -6.027804      -164.0249
  24   2.0000      -1.008074       -27.4311
  25   2.0000      -0.988784       -26.9062
  26   2.0000      -0.914520       -24.8853
  27   2.0000      -0.906310       -24.6620
  28   2.0000      -0.868193       -23.6247
  29   2.0000      -0.849137       -23.1062
  30   2.0000      -0.845013       -22.9940
  31   2.0000      -0.820840       -22.3362
  32   2.0000      -0.781839       -21.2749
  33   2.0000      -0.769851       -20.9487
  34   2.0000      -0.701495       -19.0886
  35   2.0000      -0.700170       -19.0526
  36   2.0000      -0.692437       -18.8422
  37   2.0000      -0.656482       -17.8638
  38   2.0000      -0.645051       -17.5527
  39   2.0000      -0.615341       -16.7443
  40   2.0000      -0.595668       -16.2089
  41   2.0000      -0.574218       -15.6253
  42   2.0000      -0.568632       -15.4733
  43   2.0000      -0.550158       -14.9706
  44   2.0000      -0.539161       -14.6713
  45   2.0000      -0.528220       -14.3736
  46   2.0000      -0.515606       -14.0304
  47   2.0000      -0.507179       -13.8010
  48   2.0000      -0.504735       -13.7345
  49   2.0000      -0.503136       -13.6910
  50   2.0000      -0.487132       -13.2555
  51   2.0000      -0.476001       -12.9526
  52   2.0000      -0.470850       -12.8125
  53   2.0000      -0.467363       -12.7176
  54   2.0000      -0.456386       -12.4189
  55   2.0000      -0.450423       -12.2566
  56   2.0000      -0.446830       -12.1589
  57   2.0000      -0.436448       -11.8764
  58   2.0000      -0.431813       -11.7502
  59   2.0000      -0.427499       -11.6328
  60   2.0000      -0.418576       -11.3900
  61   2.0000      -0.416565       -11.3353
  62   2.0000      -0.408478       -11.1152
  63   2.0000      -0.343961        -9.3596
  64   2.0000      -0.328446        -8.9375
  65   2.0000      -0.324285        -8.8242
  66   2.0000      -0.300670        -8.1817
  67   0.0000       0.041063         1.1174
  68   0.0000       0.068788         1.8718
  69   0.0000       0.119190         3.2433
  70   0.0000       0.124821         3.3966
  71   0.0000       0.126789         3.4501

MULLIKEN ATOMIC CHARGES
-----------------------
   0 S :    0.123971
   1 C :   -0.090322
   2 C :   -0.124192
   3 C :    0.046241
   4 C :   -0.167261
   5 H :    0.019331
   6 C :    0.100856
   7 H :    0.026006
   8 H :    0.030010
   9 C :   -0.075183
  10 H :    0.020794
  11 H :    0.031110
  12 C :   -0.082902
  13 H :    0.032198
  14 H :    0.041630
  15 H :    0.033051
  16 S :    0.106331
  17 C :   -0.071305
  18 C :   -0.019069
  19 C :   -0.043885
  20 C :   -0.164293
  21 H :   -0.017459
  22 C :    0.074660
  23 H :    0.019530
  24 H :    0.024498
  25 C :   -0.074413
  26 H :    0.023213
  27 H :    0.051971
  28 C :   -0.066220
  29 H :    0.033423
  30 H :    0.035257
  31 H :    0.042988
  32 H :    0.025614
  33 H :    0.053822
Sum of atomic charges:   -0.0000000

LOEWDIN ATOMIC CHARGES
----------------------
   0 S :    0.429176
   1 C :   -0.196487
   2 C :   -0.061601
   3 C :   -0.064396
   4 C :   -0.207241
   5 H :    0.034376
   6 C :   -0.031396
   7 H :    0.030734
   8 H :    0.036695
   9 C :   -0.049928
  10 H :    0.027723
  11 H :    0.025841
  12 C :   -0.076266
  13 H :    0.023518
  14 H :    0.026191
  15 H :    0.029834
  16 S :    0.410607
  17 C :   -0.194311
  18 C :   -0.066873
  19 C :   -0.043506
  20 C :   -0.202541
  21 H :    0.013868
  22 C :   -0.029586
  23 H :    0.028569
  24 H :    0.029289
  25 C :   -0.045020
  26 H :    0.021024
  27 H :    0.036581
  28 C :   -0.072224
  29 H :    0.027859
  30 H :    0.030399
  31 H :    0.026508
  32 H :    0.015742
  33 H :    0.036844

  Mayer bond orders larger than 0.100000
B(  0-S ,  1-C ) :   1.1493 B(  0-S ,  4-C ) :   1.1699 B(  1-C ,  2-C ) :   1.5996
B(  1-C , 32-H ) :   0.9764 B(  2-C ,  3-C ) :   1.2306 B(  2-C ,  6-C ) :   1.0222
B(  3-C ,  4-C ) :   1.5790 B(  3-C ,  5-H ) :   0.9961 B(  4-C , 20-C ) :   0.9867
B(  6-C ,  7-H ) :   0.9457 B(  6-C ,  8-H ) :   0.9373 B(  6-C ,  9-C ) :   1.0492
B(  9-C , 10-H ) :   0.9543 B(  9-C , 11-H ) :   0.9616 B(  9-C , 12-C ) :   1.0785
B( 12-C , 13-H ) :   0.9760 B( 12-C , 14-H ) :   0.9775 B( 12-C , 15-H ) :   0.9729
B( 16-S , 17-C ) :   1.1417 B( 16-S , 20-C ) :   1.1455 B( 17-C , 18-C ) :   1.6681
B( 17-C , 33-H ) :   0.9584 B( 18-C , 19-C ) :   1.1974 B( 18-C , 21-H ) :   0.9975
B( 19-C , 20-C ) :   1.6301 B( 19-C , 22-C ) :   1.0326 B( 22-C , 23-H ) :   0.9338
B( 22-C , 24-H ) :   0.9333 B( 22-C , 25-C ) :   1.0698 B( 25-C , 26-H ) :   0.9539
B( 25-C , 27-H ) :   0.9519 B( 25-C , 28-C ) :   1.0895 B( 28-C , 29-H ) :   0.9715
B( 28-C , 30-H ) :   0.9717 B( 28-C , 31-H ) :   0.9725

Dispersion correction           -0.013781443
FINAL SINGLE POINT ENERGY     -1339.877953108116

DIPOLE MOMENT
-------------
                                X             Y             Z
Electronic contribution:     23.18254       2.67297      -1.74997
Nuclear contribution   :    -23.71826      -2.57043       1.83352
                        -----------------------------------------
Total Dipole Moment    :     -0.53572       0.10253       0.08355
                        -----------------------------------------
Magnitude (a.u.)       :      0.55181
Magnitude (Debye)      :      1.40258

Rotational constants in cm-1:     0.018145     0.007869     0.006660
Rotational constants in MHz :   543.972574   235.895392   199.654736

                             ****ORCA TERMINATED NORMALLY****
TOTAL RUN TIME: 0 days 0 hours 0 minutes 20 seconds 948 msec
