                         Program Version 4.2.1 -  RELEASE  -
|  1> ! wB97X-D3 SP def2-SVP
|  2> %pal
|  3> nprocs 24
|  4> end
|  5>
|  6> * xyz 0 1
|  7> S 	 -78.1589 	 -3.76717 	 6.04671
|  8> C 	 -77.5576 	 -2.60519 	 4.87713
|  9> C 	 -77.8379 	 -3.01288 	 3.55828
| 10> C 	 -78.1635 	 -4.37123 	 3.52285
| 11> C 	 -78.2866 	 -4.9658 	 4.78086
| 12> H 	 -78.3804 	 -4.96402 	 2.63291
| 13> C 	 -77.6773 	 -2.20982 	 2.32431
| 14> H 	 -77.8762 	 -1.20113 	 2.77185
| 15> H 	 -78.4087 	 -2.58736 	 1.7139
| 16> C 	 -76.327 	 -1.92271 	 1.52861
| 17> H 	 -76.3072 	 -0.931354 	 1.04512
| 18> H 	 -75.6111 	 -1.78303 	 2.31186
| 19> C 	 -75.8892 	 -3.00161 	 0.551753
| 20> H 	 -74.8897 	 -2.7967 	 0.163749
| 21> H 	 -75.8801 	 -3.95828 	 0.973676
| 22> H 	 -76.5963 	 -3.02472 	 -0.232479
| 23> S 	 -80.3738 	 -6.65425 	 5.22871
| 24> C 	 -80.1021 	 -8.39032 	 5.31797
| 25> C 	 -78.7458 	 -8.59531 	 5.09086
| 26> C 	 -77.9279 	 -7.49773 	 5.0632
| 27> C 	 -78.6704 	 -6.30816 	 5.0334
| 28> H 	 -78.4888 	 -9.61747 	 4.95642
| 29> C 	 -76.4489 	 -7.68574 	 4.81409
| 30> H 	 -76.0964 	 -8.62145 	 5.24277
| 31> H 	 -75.8743 	 -6.78094 	 5.16609
| 32> C 	 -76.1191 	 -7.87853 	 3.32166
| 33> H 	 -76.6948 	 -7.07263 	 2.86013
| 34> H 	 -76.5047 	 -8.84078 	 2.89514
| 35> C 	 -74.6682 	 -7.66735 	 2.91958
| 36> H 	 -74.4364 	 -6.66763 	 2.84718
| 37> H 	 -74.4786 	 -8.12351 	 1.91562
| 38> H 	 -74.0957 	 -8.18658 	 3.6284
| 39> H 	 -77.2536 	 -1.65723 	 5.23481
| 40> H 	 -80.7992 	 -9.10606 	 5.50959
| 41> *
| 42>
| 43>                          ****END OF INPUT****

CARTESIAN COORDINATES (ANGSTROEM)
---------------------------------
  S    -78.158900   -3.767170    6.046710
  C    -77.557600   -2.605190    4.877130
  C    -77.837900   -3.012880    3.558280
  C    -78.163500   -4.371230    3.522850
  C    -78.286600   -4.965800    4.780860
  H    -78.380400   -4.964020    2.632910
  C    -77.677300   -2.209820    2.324310
  H    -77.876200   -1.201130    2.771850
  H    -78.408700   -2.587360    1.713900
  C    -76.327000   -1.922710    1.528610
  H    -76.307200   -0.931354    1.045120
  H    -75.611100   -1.783030    2.311860
  C    -75.889200   -3.001610    0.551753
  H    -74.889700   -2.796700    0.163749
  H    -75.880100   -3.958280    0.973676
  H    -76.596300   -3.024720   -0.232479
  S    -80.373800   -6.654250    5.228710
  C    -80.102100   -8.390320    5.317970
  C    -78.745800   -8.595310    5.090860
  C    -77.927900   -7.497730    5.063200
  C    -78.670400   -6.308160    5.033400
  H    -78.488800   -9.617470    4.956420
  C    -76.448900   -7.685740    4.814090
  H    -76.096400   -8.621450    5.242770
  H    -75.874300   -6.780940    5.166090
  C    -76.119100   -7.878530    3.321660
  H    -76.694800   -7.072630    2.860130
  H    -76.504700   -8.840780    2.895140
  C    -74.668200   -7.667350    2.919580
  H    -74.436400   -6.667630    2.847180
  H    -74.478600   -8.123510    1.915620
  H    -74.095700   -8.186580    3.628400
  H    -77.253600   -1.657230    5.234810
  H    -80.799200   -9.106060    5.509590

 Total Charge           Charge          ....    0
 Multiplicity           Mult            ....    1
 Number of Electrons    NEL             ....  134
 Basis Dimension        Dim             ....  322

ORBITAL ENERGIES
----------------

  NO   OCC          E(Eh)            E(eV)
   0   2.0000     -88.967758     -2420.9358
   1   2.0000     -88.963422     -2420.8178
   2   2.0000     -10.324490      -280.9437
   3   2.0000     -10.322121      -280.8792
   4   2.0000     -10.315117      -280.6886
   5   2.0000     -10.309782      -280.5434
   6   2.0000     -10.302036      -280.3327
   7   2.0000     -10.298211      -280.2286
   8   2.0000     -10.293958      -280.1128
   9   2.0000     -10.292612      -280.0762
  10   2.0000     -10.290375      -280.0153
  11   2.0000     -10.289429      -279.9896
  12   2.0000     -10.283907      -279.8393
  13   2.0000     -10.281919      -279.7852
  14   2.0000     -10.270538      -279.4756
  15   2.0000     -10.267655      -279.3971
  16   2.0000      -8.082474      -219.9353
  17   2.0000      -8.077967      -219.8127
  18   2.0000      -6.040733      -164.3767
  19   2.0000      -6.037042      -164.2763
  20   2.0000      -6.036338      -164.2571
  21   2.0000      -6.033448      -164.1785
  22   2.0000      -6.032347      -164.1485
  23   2.0000      -6.029032      -164.0583
  24   2.0000      -1.009285       -27.4640
  25   2.0000      -0.986393       -26.8411
  26   2.0000      -0.911941       -24.8152
  27   2.0000      -0.909182       -24.7401
  28   2.0000      -0.872644       -23.7459
  29   2.0000      -0.856063       -23.2947
  30   2.0000      -0.852922       -23.2092
  31   2.0000      -0.814677       -22.1685
  32   2.0000      -0.785733       -21.3809
  33   2.0000      -0.772953       -21.0331
  34   2.0000      -0.713406       -19.4128
  35   2.0000      -0.708768       -19.2866
  36   2.0000      -0.688442       -18.7335
  37   2.0000      -0.664107       -18.0713
  38   2.0000      -0.648118       -17.6362
  39   2.0000      -0.614382       -16.7182
  40   2.0000      -0.596996       -16.2451
  41   2.0000      -0.573935       -15.6176
  42   2.0000      -0.572834       -15.5876
  43   2.0000      -0.548574       -14.9275
  44   2.0000      -0.544721       -14.8226
  45   2.0000      -0.526928       -14.3384
  46   2.0000      -0.523453       -14.2439
  47   2.0000      -0.518326       -14.1044
  48   2.0000      -0.512387       -13.9428
  49   2.0000      -0.494958       -13.4685
  50   2.0000      -0.491555       -13.3759
  51   2.0000      -0.486450       -13.2370
  52   2.0000      -0.476673       -12.9709
  53   2.0000      -0.470167       -12.7939
  54   2.0000      -0.461912       -12.5693
  55   2.0000      -0.444141       -12.0857
  56   2.0000      -0.441646       -12.0178
  57   2.0000      -0.437272       -11.8988
  58   2.0000      -0.433349       -11.7920
  59   2.0000      -0.426027       -11.5928
  60   2.0000      -0.424903       -11.5622
  61   2.0000      -0.409675       -11.1478
  62   2.0000      -0.408153       -11.1064
  63   2.0000      -0.337291        -9.1782
  64   2.0000      -0.328284        -8.9331
  65   2.0000      -0.313568        -8.5326
  66   2.0000      -0.304478        -8.2853
  67   0.0000       0.035781         0.9736
  68   0.0000       0.045564         1.2399
  69   0.0000       0.103666         2.8209
  70   0.0000       0.122978         3.3464
  71   0.0000       0.130096         3.5401

MULLIKEN ATOMIC CHARGES
-----------------------
   0 S :    0.126221
   1 C :   -0.124723
   2 C :   -0.072115
   3 C :    0.034639
   4 C :   -0.182610
   5 H :    0.022777
   6 C :    0.069656
   7 H :    0.031183
   8 H :    0.006781
   9 C :   -0.046259
  10 H :    0.032687
  11 H :    0.009909
  12 C :   -0.011595
  13 H :    0.034245
  14 H :    0.019375
  15 H :    0.019320
  16 S :    0.114629
  17 C :   -0.067858
  18 C :   -0.050325
  19 C :    0.033680
  20 C :   -0.205786
  21 H :    0.004341
  22 C :    0.075857
  23 H :    0.020397
  24 H :    0.041189
  25 C :   -0.120197
  26 H :    0.013855
  27 H :    0.031353
  28 C :    0.011367
  29 H :    0.022862
  30 H :    0.032733
  31 H :    0.016353
  32 H :    0.034547
  33 H :    0.021511
Sum of atomic charges:   -0.0000000

LOEWDIN ATOMIC CHARGES
----------------------
   0 S :    0.417695
   1 C :   -0.186556
   2 C :   -0.064949
   3 C :   -0.055340
   4 C :   -0.208701
   5 H :    0.034231
   6 C :   -0.030573
   7 H :    0.045164
   8 H :    0.018225
   9 C :   -0.034412
  10 H :    0.028845
  11 H :    0.018516
  12 C :   -0.058453
  13 H :    0.030321
  14 H :    0.018009
  15 H :    0.019733
  16 S :    0.412394
  17 C :   -0.170927
  18 C :   -0.066785
  19 C :   -0.056072
  20 C :   -0.208756
  21 H :    0.025489
  22 C :   -0.029924
  23 H :    0.028629
  24 H :    0.039448
  25 C :   -0.045609
  26 H :    0.018386
  27 H :    0.023907
  28 C :   -0.053448
  29 H :    0.015361
  30 H :    0.034637
  31 H :    0.016938
  32 H :    0.014405
  33 H :    0.010171

  Mayer bond orders larger than 0.100000
B(  0-S ,  1-C ) :   1.1681 B(  0-S ,  4-C ) :   1.1617 B(  1-C ,  2-C ) :   1.5384
B(  1-C ,  4-C ) :   0.1147 B(  1-C , 32-H ) :   0.9797 B(  2-C ,  3-C ) :   1.2614
B(  2-C ,  6-C ) :   1.0350 B(  3-C ,  4-C ) :   1.5541 B(  3-C ,  5-H ) :   0.9895
B(  4-C , 20-C ) :   1.0466 B(  6-C ,  7-H ) :   0.9300 B(  6-C ,  8-H ) :   0.9389
B(  6-C ,  9-C ) :   1.0540 B(  9-C , 10-H ) :   0.9577 B(  9-C , 11-H ) :   0.9514
B(  9-C , 12-C ) :   1.0833 B( 12-C , 13-H ) :   0.9709 B( 12-C , 14-H ) :   0.9770
B( 12-C , 15-H ) :   0.9754 B( 16-S , 17-C ) :   1.1623 B( 16-S , 20-C ) :   1.1729
B( 17-C , 18-C ) :   1.5691 B( 17-C , 20-C ) :   0.1235 B( 17-C , 33-H ) :   0.9843
B( 18-C , 19-C ) :   1.2714 B( 18-C , 21-H ) :   0.9956 B( 19-C , 20-C ) :   1.5305
B( 19-C , 22-C ) :   1.0731 B( 22-C , 23-H ) :   0.9236 B( 22-C , 24-H ) :   0.9306
B( 22-C , 25-C ) :   1.0601 B( 25-C , 26-H ) :   0.9560 B( 25-C , 27-H ) :   0.9566
B( 25-C , 28-C ) :   1.0853 B( 28-C , 29-H ) :   0.9763 B( 28-C , 30-H ) :   0.9717
B( 28-C , 31-H ) :   0.9728

Dispersion correction           -0.014548922
FINAL SINGLE POINT ENERGY     -1339.846620395586

DIPOLE MOMENT
-------------
                                X             Y             Z
Electronic contribution:    -21.12184      -0.71540      21.69835
Nuclear contribution   :     21.45908       0.70034     -22.21679
                        -----------------------------------------
Total Dipole Moment    :      0.33724      -0.01506      -0.51845
                        -----------------------------------------
Magnitude (a.u.)       :      0.61866
Magnitude (Debye)      :      1.57252

Rotational constants in cm-1:     0.017142     0.009530     0.007219
Rotational constants in MHz :   513.900413   285.693427   216.422177

                             ****ORCA TERMINATED NORMALLY****
TOTAL RUN TIME: 0 days 0 hours 0 minutes 21 seconds 0 msec
