                         Program Version 4.2.1 -  RELEASE  -
|  1> ! wB97X-D3 SP def2-SVP
|  2> %pal
|  3> nprocs 24
|  4> end
|  5>
|  6> * xyz 0 1
|  7> S 	 -43.4421 	 15.4712 	 24.0871
|  8> C 	 -44.8592 	 16.4527 	 24.2013
|  9> C 	 -45.5884 	 16.4294 	 23.0105
| 10> C 	 -44.9805 	 15.627 	 22.0359
| 11> C 	 -43.7858 	 15.0802 	 22.3789
| 12> H 	 -45.2545 	 15.3923 	 21.065
| 13> C 	 -47.0286 	 16.8925 	 22.9771
| 14> H 	 -47.3035 	 16.9075 	 21.9849
| 15> H 	 -47.1517 	 17.9346 	 23.3718
| 16> C 	 -47.8653 	 16.0598 	 23.9135
| 17> H 	 -47.6428 	 15.03 	 23.7865
| 18> H 	 -47.6768 	 16.258 	 24.9537
| 19> C 	 -49.3703 	 16.0798 	 23.7243
| 20> H 	 -49.6504 	 15.8307 	 22.737
| 21> H 	 -49.8904 	 15.3347 	 24.3927
| 22> H 	 -49.8213 	 17.0711 	 23.8894
| 23> S 	 -42.3701 	 12.6705 	 22.2483
| 24> C 	 -41.5416 	 12.3093 	 20.6991
| 25> C 	 -41.5217 	 13.3341 	 19.8176
| 26> C 	 -42.3188 	 14.4313 	 20.2952
| 27> C 	 -42.9206 	 14.236 	 21.5722
| 28> H 	 -40.873 	 13.3497 	 19.0253
| 29> C 	 -42.3378 	 15.7331 	 19.4648
| 30> H 	 -43.4206 	 16.1848 	 19.3979
| 31> H 	 -42.0311 	 15.2847 	 18.498
| 32> C 	 -41.5479 	 16.9452 	 19.9887
| 33> H 	 -40.4841 	 16.8253 	 19.9924
| 34> H 	 -41.8003 	 16.9722 	 21.0844
| 35> C 	 -41.7555 	 18.3615 	 19.4445
| 36> H 	 -41.4322 	 19.1962 	 20.1467
| 37> H 	 -42.8165 	 18.5749 	 19.146
| 38> H 	 -41.2483 	 18.5054 	 18.4862
| 39> H 	 -44.9845 	 16.9688 	 25.0764
| 40> H 	 -40.9838 	 11.3948 	 20.5202
| 41> *
| 42>
| 43>                          ****END OF INPUT****

CARTESIAN COORDINATES (ANGSTROEM)
---------------------------------
  S    -43.442100   15.471200   24.087100
  C    -44.859200   16.452700   24.201300
  C    -45.588400   16.429400   23.010500
  C    -44.980500   15.627000   22.035900
  C    -43.785800   15.080200   22.378900
  H    -45.254500   15.392300   21.065000
  C    -47.028600   16.892500   22.977100
  H    -47.303500   16.907500   21.984900
  H    -47.151700   17.934600   23.371800
  C    -47.865300   16.059800   23.913500
  H    -47.642800   15.030000   23.786500
  H    -47.676800   16.258000   24.953700
  C    -49.370300   16.079800   23.724300
  H    -49.650400   15.830700   22.737000
  H    -49.890400   15.334700   24.392700
  H    -49.821300   17.071100   23.889400
  S    -42.370100   12.670500   22.248300
  C    -41.541600   12.309300   20.699100
  C    -41.521700   13.334100   19.817600
  C    -42.318800   14.431300   20.295200
  C    -42.920600   14.236000   21.572200
  H    -40.873000   13.349700   19.025300
  C    -42.337800   15.733100   19.464800
  H    -43.420600   16.184800   19.397900
  H    -42.031100   15.284700   18.498000
  C    -41.547900   16.945200   19.988700
  H    -40.484100   16.825300   19.992400
  H    -41.800300   16.972200   21.084400
  C    -41.755500   18.361500   19.444500
  H    -41.432200   19.196200   20.146700
  H    -42.816500   18.574900   19.146000
  H    -41.248300   18.505400   18.486200
  H    -44.984500   16.968800   25.076400
  H    -40.983800   11.394800   20.520200

 Total Charge           Charge          ....    0
 Multiplicity           Mult            ....    1
 Number of Electrons    NEL             ....  134
 Basis Dimension        Dim             ....  322

ORBITAL ENERGIES
----------------

  NO   OCC          E(Eh)            E(eV)
   0   2.0000     -88.968409     -2420.9535
   1   2.0000     -88.963889     -2420.8305
   2   2.0000     -10.334862      -281.2259
   3   2.0000     -10.328736      -281.0592
   4   2.0000     -10.320925      -280.8466
   5   2.0000     -10.311684      -280.5952
   6   2.0000     -10.309893      -280.5464
   7   2.0000     -10.304898      -280.4105
   8   2.0000     -10.301532      -280.3189
   9   2.0000     -10.290724      -280.0248
  10   2.0000     -10.288047      -279.9520
  11   2.0000     -10.287378      -279.9338
  12   2.0000     -10.285709      -279.8884
  13   2.0000     -10.284329      -279.8508
  14   2.0000     -10.276698      -279.6432
  15   2.0000     -10.275503      -279.6107
  16   2.0000      -8.081895      -219.9195
  17   2.0000      -8.078797      -219.8352
  18   2.0000      -6.040481      -164.3698
  19   2.0000      -6.037154      -164.2793
  20   2.0000      -6.036718      -164.2674
  21   2.0000      -6.033170      -164.1709
  22   2.0000      -6.032500      -164.1527
  23   2.0000      -6.029823      -164.0798
  24   2.0000      -1.005224       -27.3535
  25   2.0000      -0.981727       -26.7141
  26   2.0000      -0.917126       -24.9563
  27   2.0000      -0.898907       -24.4605
  28   2.0000      -0.874731       -23.8026
  29   2.0000      -0.855110       -23.2687
  30   2.0000      -0.846283       -23.0285
  31   2.0000      -0.821535       -22.3551
  32   2.0000      -0.781970       -21.2785
  33   2.0000      -0.765092       -20.8192
  34   2.0000      -0.709856       -19.3162
  35   2.0000      -0.703439       -19.1416
  36   2.0000      -0.686330       -18.6760
  37   2.0000      -0.669620       -18.2213
  38   2.0000      -0.659004       -17.9324
  39   2.0000      -0.620974       -16.8976
  40   2.0000      -0.590971       -16.0811
  41   2.0000      -0.571885       -15.5618
  42   2.0000      -0.568036       -15.4571
  43   2.0000      -0.554457       -15.0875
  44   2.0000      -0.536311       -14.5938
  45   2.0000      -0.523130       -14.2351
  46   2.0000      -0.518328       -14.1044
  47   2.0000      -0.509755       -13.8711
  48   2.0000      -0.503162       -13.6917
  49   2.0000      -0.498168       -13.5559
  50   2.0000      -0.494849       -13.4655
  51   2.0000      -0.480310       -13.0699
  52   2.0000      -0.473720       -12.8906
  53   2.0000      -0.463143       -12.6028
  54   2.0000      -0.456178       -12.4132
  55   2.0000      -0.449806       -12.2398
  56   2.0000      -0.443705       -12.0738
  57   2.0000      -0.440338       -11.9822
  58   2.0000      -0.431437       -11.7400
  59   2.0000      -0.420096       -11.4314
  60   2.0000      -0.416947       -11.3457
  61   2.0000      -0.413961       -11.2645
  62   2.0000      -0.404204       -10.9989
  63   2.0000      -0.352330        -9.5874
  64   2.0000      -0.336064        -9.1448
  65   2.0000      -0.328783        -8.9466
  66   2.0000      -0.287822        -7.8320
  67   0.0000       0.024060         0.6547
  68   0.0000       0.060249         1.6395
  69   0.0000       0.104896         2.8544
  70   0.0000       0.122940         3.3454
  71   0.0000       0.131622         3.5816

MULLIKEN ATOMIC CHARGES
-----------------------
   0 S :    0.099464
   1 C :   -0.109478
   2 C :   -0.050445
   3 C :    0.055828
   4 C :   -0.167812
   5 H :   -0.019853
   6 C :    0.119752
   7 H :   -0.003471
   8 H :    0.029659
   9 C :   -0.060441
  10 H :    0.020888
  11 H :    0.023730
  12 C :   -0.047409
  13 H :    0.013634
  14 H :    0.040397
  15 H :    0.022110
  16 S :    0.096593
  17 C :   -0.085158
  18 C :    0.008106
  19 C :   -0.046423
  20 C :   -0.157778
  21 H :   -0.003014
  22 C :    0.045541
  23 H :    0.038201
  24 H :    0.024291
  25 C :   -0.061843
  26 H :    0.021182
  27 H :    0.040870
  28 C :   -0.077037
  29 H :    0.053959
  30 H :    0.024126
  31 H :    0.029614
  32 H :    0.025215
  33 H :    0.057004
Sum of atomic charges:   -0.0000000

LOEWDIN ATOMIC CHARGES
----------------------
   0 S :    0.398296
   1 C :   -0.176119
   2 C :   -0.059707
   3 C :   -0.054858
   4 C :   -0.184637
   5 H :    0.023429
   6 C :   -0.023036
   7 H :    0.016499
   8 H :    0.038499
   9 C :   -0.040932
  10 H :    0.022345
  11 H :    0.023098
  12 C :   -0.064819
  13 H :    0.014984
  14 H :    0.034430
  15 H :    0.020753
  16 S :    0.372634
  17 C :   -0.159154
  18 C :   -0.064600
  19 C :   -0.050724
  20 C :   -0.188441
  21 H :    0.022617
  22 C :   -0.039328
  23 H :    0.041537
  24 H :    0.028025
  25 C :   -0.053752
  26 H :    0.020058
  27 H :    0.035888
  28 C :   -0.076434
  29 H :    0.039296
  30 H :    0.024029
  31 H :    0.022149
  32 H :    0.008466
  33 H :    0.029508

  Mayer bond orders larger than 0.100000
B(  0-S ,  1-C ) :   1.1680 B(  0-S ,  4-C ) :   1.1351 B(  1-C ,  2-C ) :   1.5396
B(  1-C ,  4-C ) :   0.1065 B(  1-C , 32-H ) :   0.9918 B(  2-C ,  3-C ) :   1.2365
B(  2-C ,  6-C ) :   1.0464 B(  3-C ,  4-C ) :   1.5898 B(  3-C ,  5-H ) :   1.0094
B(  4-C , 20-C ) :   1.0585 B(  6-C ,  7-H ) :   0.9410 B(  6-C ,  8-H ) :   0.9297
B(  6-C ,  9-C ) :   1.0622 B(  9-C , 10-H ) :   0.9567 B(  9-C , 11-H ) :   0.9494
B(  9-C , 12-C ) :   1.0921 B( 12-C , 13-H ) :   0.9746 B( 12-C , 14-H ) :   0.9734
B( 12-C , 15-H ) :   0.9730 B( 16-S , 17-C ) :   1.1420 B( 16-S , 20-C ) :   1.1215
B( 17-C , 18-C ) :   1.6402 B( 17-C , 33-H ) :   0.9607 B( 18-C , 19-C ) :   1.2340
B( 18-C , 21-H ) :   0.9963 B( 19-C , 20-C ) :   1.5874 B( 19-C , 22-C ) :   1.0374
B( 22-C , 23-H ) :   0.9324 B( 22-C , 24-H ) :   0.9357 B( 22-C , 25-C ) :   1.0504
B( 25-C , 26-H ) :   0.9543 B( 25-C , 27-H ) :   0.9539 B( 25-C , 28-C ) :   1.0791
B( 28-C , 29-H ) :   0.9734 B( 28-C , 30-H ) :   0.9726 B( 28-C , 31-H ) :   0.9759

Dispersion correction           -0.014016342
FINAL SINGLE POINT ENERGY     -1339.855422849730

DIPOLE MOMENT
-------------
                                X             Y             Z
Electronic contribution:     14.34907     -17.41453       8.52311
Nuclear contribution   :    -14.47996      17.65642      -8.83734
                        -----------------------------------------
Total Dipole Moment    :     -0.13089       0.24189      -0.31424
                        -----------------------------------------
Magnitude (a.u.)       :      0.41760
Magnitude (Debye)      :      1.06144

Rotational constants in cm-1:     0.018611     0.008018     0.006696
Rotational constants in MHz :   557.956276   240.379012   200.735398

                             ****ORCA TERMINATED NORMALLY****
TOTAL RUN TIME: 0 days 0 hours 0 minutes 21 seconds 317 msec
