                         Program Version 4.2.1 -  RELEASE  -
|  1> ! wB97X-D3 SP def2-SVP
|  2> %pal
|  3> nprocs 24
|  4> end
|  5>
|  6> * xyz 0 1
|  7> S 	 -121.241 	 60.4917 	 -38.1968
|  8> C 	 -122.289 	 59.3378 	 -38.9731
|  9> C 	 -122.976 	 58.5214 	 -38.0625
| 10> C 	 -122.586 	 58.8502 	 -36.7281
| 11> C 	 -121.673 	 59.9075 	 -36.5764
| 12> H 	 -122.897 	 58.3239 	 -35.8837
| 13> C 	 -123.85 	 57.3985 	 -38.44
| 14> H 	 -124.808 	 57.7897 	 -38.711
| 15> H 	 -124.053 	 56.8617 	 -37.6034
| 16> C 	 -123.301 	 56.4204 	 -39.5615
| 17> H 	 -124.145 	 55.82 	 -40.0013
| 18> H 	 -122.881 	 56.9125 	 -40.4765
| 19> C 	 -122.221 	 55.5241 	 -38.9709
| 20> H 	 -122.695 	 54.8935 	 -38.1763
| 21> H 	 -121.923 	 54.8168 	 -39.7298
| 22> H 	 -121.366 	 56.0416 	 -38.6049
| 23> S 	 -119.106 	 60.1523 	 -35.6052
| 24> C 	 -118.915 	 61.0135 	 -34.055
| 25> C 	 -120.111 	 61.2034 	 -33.4647
| 26> C 	 -121.253 	 60.6488 	 -34.1814
| 27> C 	 -120.87 	 60.2264 	 -35.4127
| 28> H 	 -120.091 	 61.7585 	 -32.5617
| 29> C 	 -122.682 	 60.6573 	 -33.6914
| 30> H 	 -123.324 	 60.6084 	 -34.5646
| 31> H 	 -122.906 	 61.6235 	 -33.3276
| 32> C 	 -122.927 	 59.6539 	 -32.5791
| 33> H 	 -123.867 	 60.0102 	 -32.218
| 34> H 	 -122.203 	 59.8383 	 -31.7582
| 35> C 	 -123.047 	 58.1357 	 -32.9246
| 36> H 	 -123.658 	 58.198 	 -33.8051
| 37> H 	 -123.581 	 57.4025 	 -32.3025
| 38> H 	 -122.048 	 57.7574 	 -33.1485
| 39> H 	 -122.441 	 59.1752 	 -39.9925
| 40> H 	 -118.063 	 61.2392 	 -33.5838
| 41> *
| 42>
| 43>                          ****END OF INPUT****

CARTESIAN COORDINATES (ANGSTROEM)
---------------------------------
  S    -121.241000   60.491700  -38.196800
  C    -122.289000   59.337800  -38.973100
  C    -122.976000   58.521400  -38.062500
  C    -122.586000   58.850200  -36.728100
  C    -121.673000   59.907500  -36.576400
  H    -122.897000   58.323900  -35.883700
  C    -123.850000   57.398500  -38.440000
  H    -124.808000   57.789700  -38.711000
  H    -124.053000   56.861700  -37.603400
  C    -123.301000   56.420400  -39.561500
  H    -124.145000   55.820000  -40.001300
  H    -122.881000   56.912500  -40.476500
  C    -122.221000   55.524100  -38.970900
  H    -122.695000   54.893500  -38.176300
  H    -121.923000   54.816800  -39.729800
  H    -121.366000   56.041600  -38.604900
  S    -119.106000   60.152300  -35.605200
  C    -118.915000   61.013500  -34.055000
  C    -120.111000   61.203400  -33.464700
  C    -121.253000   60.648800  -34.181400
  C    -120.870000   60.226400  -35.412700
  H    -120.091000   61.758500  -32.561700
  C    -122.682000   60.657300  -33.691400
  H    -123.324000   60.608400  -34.564600
  H    -122.906000   61.623500  -33.327600
  C    -122.927000   59.653900  -32.579100
  H    -123.867000   60.010200  -32.218000
  H    -122.203000   59.838300  -31.758200
  C    -123.047000   58.135700  -32.924600
  H    -123.658000   58.198000  -33.805100
  H    -123.581000   57.402500  -32.302500
  H    -122.048000   57.757400  -33.148500
  H    -122.441000   59.175200  -39.992500
  H    -118.063000   61.239200  -33.583800

 Total Charge           Charge          ....    0
 Multiplicity           Mult            ....    1
 Number of Electrons    NEL             ....  134
 Basis Dimension        Dim             ....  322

ORBITAL ENERGIES
----------------

  NO   OCC          E(Eh)            E(eV)
   0   2.0000     -88.968254     -2420.9493
   1   2.0000     -88.959932     -2420.7228
   2   2.0000     -10.329266      -281.0736
   3   2.0000     -10.323779      -280.9243
   4   2.0000     -10.309188      -280.5273
   5   2.0000     -10.306024      -280.4412
   6   2.0000     -10.299605      -280.2665
   7   2.0000     -10.298137      -280.2266
   8   2.0000     -10.297612      -280.2123
   9   2.0000     -10.291476      -280.0453
  10   2.0000     -10.289443      -279.9900
  11   2.0000     -10.289166      -279.9824
  12   2.0000     -10.287742      -279.9437
  13   2.0000     -10.284015      -279.8423
  14   2.0000     -10.280694      -279.7519
  15   2.0000     -10.274451      -279.5820
  16   2.0000      -8.082141      -219.9262
  17   2.0000      -8.074126      -219.7081
  18   2.0000      -6.040670      -164.3750
  19   2.0000      -6.036616      -164.2647
  20   2.0000      -6.033081      -164.1685
  21   2.0000      -6.032854      -164.1623
  22   2.0000      -6.028892      -164.0545
  23   2.0000      -6.024479      -163.9344
  24   2.0000      -1.002959       -27.2919
  25   2.0000      -0.979908       -26.6646
  26   2.0000      -0.912810       -24.8388
  27   2.0000      -0.911712       -24.8090
  28   2.0000      -0.869801       -23.6685
  29   2.0000      -0.850471       -23.1425
  30   2.0000      -0.842571       -22.9275
  31   2.0000      -0.817885       -22.2558
  32   2.0000      -0.787427       -21.4270
  33   2.0000      -0.778154       -21.1746
  34   2.0000      -0.712142       -19.3784
  35   2.0000      -0.704544       -19.1716
  36   2.0000      -0.699048       -19.0221
  37   2.0000      -0.660609       -17.9761
  38   2.0000      -0.641402       -17.4534
  39   2.0000      -0.614308       -16.7162
  40   2.0000      -0.599945       -16.3253
  41   2.0000      -0.577829       -15.7235
  42   2.0000      -0.556624       -15.1465
  43   2.0000      -0.554418       -15.0865
  44   2.0000      -0.546151       -14.8615
  45   2.0000      -0.536053       -14.5867
  46   2.0000      -0.524187       -14.2639
  47   2.0000      -0.513296       -13.9675
  48   2.0000      -0.502699       -13.6791
  49   2.0000      -0.499623       -13.5954
  50   2.0000      -0.487482       -13.2651
  51   2.0000      -0.481769       -13.1096
  52   2.0000      -0.468186       -12.7400
  53   2.0000      -0.465047       -12.6546
  54   2.0000      -0.463116       -12.6020
  55   2.0000      -0.448249       -12.1975
  56   2.0000      -0.440427       -11.9846
  57   2.0000      -0.435831       -11.8596
  58   2.0000      -0.432287       -11.7631
  59   2.0000      -0.429092       -11.6762
  60   2.0000      -0.421259       -11.4630
  61   2.0000      -0.420808       -11.4508
  62   2.0000      -0.406700       -11.0669
  63   2.0000      -0.347489        -9.4556
  64   2.0000      -0.330194        -8.9850
  65   2.0000      -0.324580        -8.8323
  66   2.0000      -0.289788        -7.8855
  67   0.0000       0.029218         0.7951
  68   0.0000       0.069158         1.8819
  69   0.0000       0.114360         3.1119
  70   0.0000       0.125385         3.4119
  71   0.0000       0.130847         3.5605

MULLIKEN ATOMIC CHARGES
-----------------------
   0 S :    0.121963
   1 C :   -0.095045
   2 C :   -0.120681
   3 C :    0.070480
   4 C :   -0.164760
   5 H :   -0.043317
   6 C :    0.157919
   7 H :    0.028744
   8 H :   -0.019783
   9 C :   -0.119886
  10 H :    0.034281
  11 H :    0.034183
  12 C :   -0.040970
  13 H :    0.028854
  14 H :    0.028899
  15 H :    0.048293
  16 S :    0.091379
  17 C :   -0.030438
  18 C :   -0.027926
  19 C :   -0.040417
  20 C :   -0.154306
  21 H :    0.005477
  22 C :    0.096341
  23 H :    0.022956
  24 H :    0.009169
  25 C :   -0.066490
  26 H :    0.017704
  27 H :    0.032371
  28 C :   -0.045048
  29 H :    0.026737
  30 H :    0.044898
  31 H :    0.046745
  32 H :    0.020147
  33 H :    0.001526
Sum of atomic charges:   -0.0000000

LOEWDIN ATOMIC CHARGES
----------------------
   0 S :    0.411274
   1 C :   -0.190980
   2 C :   -0.062096
   3 C :   -0.049817
   4 C :   -0.194060
   5 H :    0.014358
   6 C :   -0.024655
   7 H :    0.033977
   8 H :    0.016508
   9 C :   -0.040379
  10 H :    0.028659
  11 H :    0.023951
  12 C :   -0.063556
  13 H :    0.028312
  14 H :    0.024736
  15 H :    0.024907
  16 S :    0.365292
  17 C :   -0.151682
  18 C :   -0.061299
  19 C :   -0.054001
  20 C :   -0.185571
  21 H :    0.026419
  22 C :   -0.026321
  23 H :    0.031447
  24 H :    0.029401
  25 C :   -0.034557
  26 H :    0.021002
  27 H :    0.025155
  28 C :   -0.069072
  29 H :    0.021101
  30 H :    0.032279
  31 H :    0.029218
  32 H :    0.015124
  33 H :    0.004925

  Mayer bond orders larger than 0.100000
B(  0-S ,  1-C ) :   1.1562 B(  0-S ,  4-C ) :   1.1469 B(  1-C ,  2-C ) :   1.5727
B(  1-C , 32-H ) :   0.9716 B(  2-C ,  3-C ) :   1.2764 B(  2-C ,  6-C ) :   1.0297
B(  3-C ,  4-C ) :   1.5351 B(  3-C ,  5-H ) :   0.9944 B(  4-C , 20-C ) :   1.0531
B(  6-C ,  7-H ) :   0.9193 B(  6-C ,  8-H ) :   0.9319 B(  6-C ,  9-C ) :   1.0628
B(  9-C , 10-H ) :   0.9554 B(  9-C , 11-H ) :   0.9598 B(  9-C , 12-C ) :   1.0731
B( 12-C , 13-H ) :   0.9745 B( 12-C , 14-H ) :   0.9725 B( 12-C , 15-H ) :   0.9784
B( 16-S , 17-C ) :   1.1061 B( 16-S , 20-C ) :   1.1182 B( 17-C , 18-C ) :   1.6874
B( 17-C , 33-H ) :   0.9788 B( 18-C , 19-C ) :   1.1700 B( 18-C , 21-H ) :   0.9937
B( 19-C , 20-C ) :   1.6444 B( 19-C , 22-C ) :   1.0462 B( 22-C , 23-H ) :   0.9265
B( 22-C , 24-H ) :   0.9247 B( 22-C , 25-C ) :   1.0738 B( 25-C , 26-H ) :   0.9541
B( 25-C , 27-H ) :   0.9582 B( 25-C , 28-C ) :   1.0560 B( 28-C , 29-H ) :   0.9642
B( 28-C , 30-H ) :   0.9740 B( 28-C , 31-H ) :   0.9776

Dispersion correction           -0.015049414
FINAL SINGLE POINT ENERGY     -1339.859070800700

DIPOLE MOMENT
-------------
                                X             Y             Z
Electronic contribution:     16.41777      17.91028      -4.69597
Nuclear contribution   :    -16.94186     -18.23710       4.97882
                        -----------------------------------------
Total Dipole Moment    :     -0.52408      -0.32682       0.28285
                        -----------------------------------------
Magnitude (a.u.)       :      0.67932
Magnitude (Debye)      :      1.72669

Rotational constants in cm-1:     0.020027     0.008829     0.007219
Rotational constants in MHz :   600.388582   264.676292   216.419368

                             ****ORCA TERMINATED NORMALLY****
TOTAL RUN TIME: 0 days 0 hours 0 minutes 22 seconds 147 msec
