                         Program Version 4.2.1 -  RELEASE  -
|  1> ! wB97X-D3 SP def2-SVP
|  2> %pal
|  3> nprocs 24
|  4> end
|  5>
|  6> * xyz 0 1
|  7> S 	 -45.6186 	 16.7085 	 18.7869
|  8> C 	 -45.0028 	 15.6566 	 17.6015
|  9> C 	 -43.83 	 14.9991 	 17.9319
| 10> C 	 -43.4856 	 15.3472 	 19.2918
| 11> C 	 -44.364 	 16.2567 	 19.8775
| 12> H 	 -42.669 	 14.9689 	 19.9035
| 13> C 	 -43.2187 	 13.8824 	 17.0814
| 14> H 	 -43.5159 	 14.035 	 16.0061
| 15> H 	 -43.5888 	 12.924 	 17.4232
| 16> C 	 -41.6725 	 13.7954 	 17.1912
| 17> H 	 -41.3098 	 13.8061 	 18.1951
| 18> H 	 -41.4137 	 12.829 	 16.7976
| 19> C 	 -40.9253 	 14.7864 	 16.4551
| 20> H 	 -41.2875 	 15.7927 	 16.7934
| 21> H 	 -39.8655 	 14.8174 	 16.5926
| 22> H 	 -41.048 	 14.7993 	 15.406
| 23> S 	 -45.75 	 16.6881 	 22.2466
| 24> C 	 -44.9199 	 17.3608 	 23.6135
| 25> C 	 -43.5764 	 17.3889 	 23.3823
| 26> C 	 -43.1659 	 17.1713 	 22.0018
| 27> C 	 -44.2695 	 16.7787 	 21.2638
| 28> H 	 -42.9507 	 17.6384 	 24.2757
| 29> C 	 -41.7969 	 17.4711 	 21.5172
| 30> H 	 -41.8996 	 18.2659 	 20.8255
| 31> H 	 -41.4132 	 16.6315 	 20.9411
| 32> C 	 -40.5762 	 17.6653 	 22.4798
| 33> H 	 -40.911 	 18.4519 	 23.2003
| 34> H 	 -39.8028 	 18.153 	 21.8716
| 35> C 	 -40.096 	 16.3042 	 23.1106
| 36> H 	 -39.3108 	 16.5132 	 23.9027
| 37> H 	 -39.624 	 15.7086 	 22.3153
| 38> H 	 -40.9187 	 15.8132 	 23.5608
| 39> H 	 -45.4734 	 15.4723 	 16.7527
| 40> H 	 -45.3352 	 17.6 	 24.5731
| 41> *
| 42>
| 43>                          ****END OF INPUT****

CARTESIAN COORDINATES (ANGSTROEM)
---------------------------------
  S    -45.618600   16.708500   18.786900
  C    -45.002800   15.656600   17.601500
  C    -43.830000   14.999100   17.931900
  C    -43.485600   15.347200   19.291800
  C    -44.364000   16.256700   19.877500
  H    -42.669000   14.968900   19.903500
  C    -43.218700   13.882400   17.081400
  H    -43.515900   14.035000   16.006100
  H    -43.588800   12.924000   17.423200
  C    -41.672500   13.795400   17.191200
  H    -41.309800   13.806100   18.195100
  H    -41.413700   12.829000   16.797600
  C    -40.925300   14.786400   16.455100
  H    -41.287500   15.792700   16.793400
  H    -39.865500   14.817400   16.592600
  H    -41.048000   14.799300   15.406000
  S    -45.750000   16.688100   22.246600
  C    -44.919900   17.360800   23.613500
  C    -43.576400   17.388900   23.382300
  C    -43.165900   17.171300   22.001800
  C    -44.269500   16.778700   21.263800
  H    -42.950700   17.638400   24.275700
  C    -41.796900   17.471100   21.517200
  H    -41.899600   18.265900   20.825500
  H    -41.413200   16.631500   20.941100
  C    -40.576200   17.665300   22.479800
  H    -40.911000   18.451900   23.200300
  H    -39.802800   18.153000   21.871600
  C    -40.096000   16.304200   23.110600
  H    -39.310800   16.513200   23.902700
  H    -39.624000   15.708600   22.315300
  H    -40.918700   15.813200   23.560800
  H    -45.473400   15.472300   16.752700
  H    -45.335200   17.600000   24.573100

 Total Charge           Charge          ....    0
 Multiplicity           Mult            ....    1
 Number of Electrons    NEL             ....  134
 Basis Dimension        Dim             ....  322

ORBITAL ENERGIES
----------------

  NO   OCC          E(Eh)            E(eV)
   0   2.0000     -88.967068     -2420.9170
   1   2.0000     -88.962494     -2420.7925
   2   2.0000     -10.327853      -281.0352
   3   2.0000     -10.326348      -280.9942
   4   2.0000     -10.311864      -280.6001
   5   2.0000     -10.306224      -280.4466
   6   2.0000     -10.302639      -280.3491
   7   2.0000     -10.300245      -280.2839
   8   2.0000     -10.299033      -280.2509
   9   2.0000     -10.297202      -280.2011
  10   2.0000     -10.295891      -280.1654
  11   2.0000     -10.294631      -280.1312
  12   2.0000     -10.288101      -279.9534
  13   2.0000     -10.287150      -279.9276
  14   2.0000     -10.278126      -279.6820
  15   2.0000     -10.265966      -279.3511
  16   2.0000      -8.083049      -219.9510
  17   2.0000      -8.077209      -219.7920
  18   2.0000      -6.041310      -164.3924
  19   2.0000      -6.037391      -164.2858
  20   2.0000      -6.035759      -164.2414
  21   2.0000      -6.034008      -164.1937
  22   2.0000      -6.031839      -164.1347
  23   2.0000      -6.027800      -164.0248
  24   2.0000      -1.007376       -27.4121
  25   2.0000      -0.985650       -26.8209
  26   2.0000      -0.918157       -24.9843
  27   2.0000      -0.907961       -24.7069
  28   2.0000      -0.870712       -23.6933
  29   2.0000      -0.853945       -23.2370
  30   2.0000      -0.842479       -22.9250
  31   2.0000      -0.816093       -22.2070
  32   2.0000      -0.785983       -21.3877
  33   2.0000      -0.776926       -21.1412
  34   2.0000      -0.710757       -19.3407
  35   2.0000      -0.699827       -19.0432
  36   2.0000      -0.693887       -18.8816
  37   2.0000      -0.650952       -17.7133
  38   2.0000      -0.644060       -17.5258
  39   2.0000      -0.620651       -16.8888
  40   2.0000      -0.599481       -16.3127
  41   2.0000      -0.570590       -15.5266
  42   2.0000      -0.559859       -15.2345
  43   2.0000      -0.557720       -15.1763
  44   2.0000      -0.541413       -14.7326
  45   2.0000      -0.538755       -14.6603
  46   2.0000      -0.521064       -14.1789
  47   2.0000      -0.508579       -13.8391
  48   2.0000      -0.499728       -13.5983
  49   2.0000      -0.495545       -13.4845
  50   2.0000      -0.490303       -13.3418
  51   2.0000      -0.481221       -13.0947
  52   2.0000      -0.474997       -12.9253
  53   2.0000      -0.465757       -12.6739
  54   2.0000      -0.462748       -12.5920
  55   2.0000      -0.450667       -12.2633
  56   2.0000      -0.446849       -12.1594
  57   2.0000      -0.442629       -12.0446
  58   2.0000      -0.439171       -11.9504
  59   2.0000      -0.427699       -11.6383
  60   2.0000      -0.422660       -11.5012
  61   2.0000      -0.409096       -11.1321
  62   2.0000      -0.408610       -11.1188
  63   2.0000      -0.345865        -9.4115
  64   2.0000      -0.330755        -9.0003
  65   2.0000      -0.326393        -8.8816
  66   2.0000      -0.291293        -7.9265
  67   0.0000       0.030623         0.8333
  68   0.0000       0.078779         2.1437
  69   0.0000       0.112452         3.0600
  70   0.0000       0.121140         3.2964
  71   0.0000       0.130269         3.5448

MULLIKEN ATOMIC CHARGES
-----------------------
   0 S :    0.134540
   1 C :   -0.058621
   2 C :   -0.080804
   3 C :    0.009697
   4 C :   -0.172649
   5 H :    0.018185
   6 C :    0.061237
   7 H :    0.032340
   8 H :    0.045038
   9 C :   -0.047812
  10 H :    0.019475
  11 H :    0.011939
  12 C :   -0.028371
  13 H :    0.021729
  14 H :    0.024690
  15 H :    0.012414
  16 S :    0.099045
  17 C :   -0.074808
  18 C :   -0.080660
  19 C :   -0.016901
  20 C :   -0.150891
  21 H :    0.034962
  22 C :    0.057866
  23 H :    0.038094
  24 H :    0.008406
  25 C :   -0.087546
  26 H :    0.033999
  27 H :    0.035240
  28 C :   -0.058809
  29 H :    0.049394
  30 H :    0.041083
  31 H :    0.040354
  32 H :   -0.019530
  33 H :    0.047675
Sum of atomic charges:   -0.0000000

LOEWDIN ATOMIC CHARGES
----------------------
   0 S :    0.442085
   1 C :   -0.188703
   2 C :   -0.062042
   3 C :   -0.061716
   4 C :   -0.209679
   5 H :    0.029168
   6 C :   -0.021318
   7 H :    0.036578
   8 H :    0.034888
   9 C :   -0.043842
  10 H :    0.022289
  11 H :    0.021379
  12 C :   -0.065951
  13 H :    0.029740
  14 H :    0.023898
  15 H :    0.017088
  16 S :    0.391530
  17 C :   -0.188913
  18 C :   -0.081192
  19 C :   -0.055907
  20 C :   -0.188636
  21 H :    0.036960
  22 C :   -0.038163
  23 H :    0.035227
  24 H :    0.029394
  25 C :   -0.040351
  26 H :    0.022174
  27 H :    0.028704
  28 C :   -0.064284
  29 H :    0.036054
  30 H :    0.028962
  31 H :    0.021007
  32 H :   -0.005067
  33 H :    0.028638

  Mayer bond orders larger than 0.100000
B(  0-S ,  1-C ) :   1.1637 B(  0-S ,  4-C ) :   1.1650 B(  1-C ,  2-C ) :   1.5959
B(  1-C , 32-H ) :   0.9810 B(  2-C ,  3-C ) :   1.2403 B(  2-C ,  6-C ) :   1.0198
B(  3-C ,  4-C ) :   1.5798 B(  3-C ,  5-H ) :   0.9863 B(  4-C , 20-C ) :   1.0258
B(  6-C ,  7-H ) :   0.9445 B(  6-C ,  8-H ) :   0.9401 B(  6-C ,  9-C ) :   1.0710
B(  9-C , 10-H ) :   0.9516 B(  9-C , 11-H ) :   0.9491 B(  9-C , 12-C ) :   1.0973
B( 12-C , 13-H ) :   0.9682 B( 12-C , 14-H ) :   0.9695 B( 12-C , 15-H ) :   0.9694
B( 16-S , 17-C ) :   1.1364 B( 16-S , 20-C ) :   1.1389 B( 17-C , 18-C ) :   1.6538
B( 17-C , 33-H ) :   0.9657 B( 18-C , 19-C ) :   1.2017 B( 18-C , 21-H ) :   0.9761
B( 19-C , 20-C ) :   1.6140 B( 19-C , 22-C ) :   1.0366 B( 22-C , 23-H ) :   0.9267
B( 22-C , 24-H ) :   0.9226 B( 22-C , 25-C ) :   1.0775 B( 25-C , 26-H ) :   0.9528
B( 25-C , 27-H ) :   0.9541 B( 25-C , 28-C ) :   1.0621 B( 28-C , 29-H ) :   0.9759
B( 28-C , 30-H ) :   0.9727 B( 28-C , 31-H ) :   0.9810

Dispersion correction           -0.014166369
FINAL SINGLE POINT ENERGY     -1339.871424736717

DIPOLE MOMENT
-------------
                                X             Y             Z
Electronic contribution:    -29.02812       6.80286       5.07050
Nuclear contribution   :     29.69005      -7.03691      -5.09405
                        -----------------------------------------
Total Dipole Moment    :      0.66193      -0.23406      -0.02355
                        -----------------------------------------
Magnitude (a.u.)       :      0.70248
Magnitude (Debye)      :      1.78557

Rotational constants in cm-1:     0.017027     0.009515     0.006586
Rotational constants in MHz :   510.470286   285.246603   197.439116

                             ****ORCA TERMINATED NORMALLY****
TOTAL RUN TIME: 0 days 0 hours 0 minutes 21 seconds 635 msec
