                         Program Version 4.2.1 -  RELEASE  -
|  1> ! wB97X-D3 SP def2-SVP
|  2> %pal
|  3> nprocs 24
|  4> end
|  5>
|  6> * xyz 0 1
|  7> S 	 21.8042 	 -1.37363 	 -111.516
|  8> C 	 20.2471 	 -2.08925 	 -111.719
|  9> C 	 19.3518 	 -1.18486 	 -112.239
| 10> C 	 20.0138 	 0.0199343 	 -112.614
| 11> C 	 21.3091 	 0.112519 	 -112.2
| 12> H 	 19.5862 	 0.958398 	 -113.016
| 13> C 	 17.8036 	 -1.47338 	 -112.47
| 14> H 	 17.6252 	 -2.56209 	 -112.45
| 15> H 	 17.3563 	 -1.14093 	 -113.431
| 16> C 	 16.9987 	 -0.930224 	 -111.313
| 17> H 	 16.1263 	 -1.5468 	 -111.252
| 18> H 	 17.59 	 -1.23656 	 -110.453
| 19> C 	 16.6145 	 0.598942 	 -111.322
| 20> H 	 16.0692 	 0.909558 	 -112.17
| 21> H 	 16.0433 	 0.847924 	 -110.434
| 22> H 	 17.5379 	 1.23978 	 -111.3
| 23> S 	 23.3202 	 1.18032 	 -113.764
| 24> C 	 23.9573 	 2.6971 	 -113.341
| 25> C 	 23.2725 	 3.37941 	 -112.322
| 26> C 	 22.2636 	 2.51362 	 -111.769
| 27> C 	 22.1819 	 1.27151 	 -112.383
| 28> H 	 23.539 	 4.39947 	 -112.113
| 29> C 	 21.331 	 2.91188 	 -110.601
| 30> H 	 20.4418 	 2.30149 	 -110.726
| 31> H 	 20.9753 	 3.96735 	 -110.742
| 32> C 	 21.8986 	 2.79481 	 -109.082
| 33> H 	 21.0062 	 2.96392 	 -108.485
| 34> H 	 22.6841 	 3.48795 	 -108.83
| 35> C 	 22.4356 	 1.38176 	 -108.908
| 36> H 	 21.677 	 0.636021 	 -109.086
| 37> H 	 22.6241 	 1.24847 	 -107.842
| 38> H 	 23.3123 	 1.1366 	 -109.459
| 39> H 	 20.0836 	 -3.10318 	 -111.434
| 40> H 	 24.649 	 3.29097 	 -113.935
| 41> *
| 42>
| 43>                          ****END OF INPUT****

CARTESIAN COORDINATES (ANGSTROEM)
---------------------------------
  S     21.804200   -1.373630  -111.516000
  C     20.247100   -2.089250  -111.719000
  C     19.351800   -1.184860  -112.239000
  C     20.013800    0.019934  -112.614000
  C     21.309100    0.112519  -112.200000
  H     19.586200    0.958398  -113.016000
  C     17.803600   -1.473380  -112.470000
  H     17.625200   -2.562090  -112.450000
  H     17.356300   -1.140930  -113.431000
  C     16.998700   -0.930224  -111.313000
  H     16.126300   -1.546800  -111.252000
  H     17.590000   -1.236560  -110.453000
  C     16.614500    0.598942  -111.322000
  H     16.069200    0.909558  -112.170000
  H     16.043300    0.847924  -110.434000
  H     17.537900    1.239780  -111.300000
  S     23.320200    1.180320  -113.764000
  C     23.957300    2.697100  -113.341000
  C     23.272500    3.379410  -112.322000
  C     22.263600    2.513620  -111.769000
  C     22.181900    1.271510  -112.383000
  H     23.539000    4.399470  -112.113000
  C     21.331000    2.911880  -110.601000
  H     20.441800    2.301490  -110.726000
  H     20.975300    3.967350  -110.742000
  C     21.898600    2.794810  -109.082000
  H     21.006200    2.963920  -108.485000
  H     22.684100    3.487950  -108.830000
  C     22.435600    1.381760  -108.908000
  H     21.677000    0.636021  -109.086000
  H     22.624100    1.248470  -107.842000
  H     23.312300    1.136600  -109.459000
  H     20.083600   -3.103180  -111.434000
  H     24.649000    3.290970  -113.935000

 Total Charge           Charge          ....    0
 Multiplicity           Mult            ....    1
 Number of Electrons    NEL             ....  134
 Basis Dimension        Dim             ....  322

ORBITAL ENERGIES
----------------

  NO   OCC          E(Eh)            E(eV)
   0   2.0000     -88.966164     -2420.8924
   1   2.0000     -88.964410     -2420.8447
   2   2.0000     -10.326333      -280.9938
   3   2.0000     -10.322632      -280.8931
   4   2.0000     -10.315173      -280.6901
   5   2.0000     -10.312494      -280.6172
   6   2.0000     -10.309088      -280.5245
   7   2.0000     -10.306836      -280.4633
   8   2.0000     -10.299232      -280.2563
   9   2.0000     -10.295485      -280.1544
  10   2.0000     -10.294865      -280.1375
  11   2.0000     -10.292649      -280.0772
  12   2.0000     -10.287906      -279.9481
  13   2.0000     -10.283271      -279.8220
  14   2.0000     -10.280452      -279.7453
  15   2.0000     -10.262691      -279.2620
  16   2.0000      -8.081179      -219.9001
  17   2.0000      -8.080253      -219.8748
  18   2.0000      -6.039511      -164.3434
  19   2.0000      -6.038595      -164.3185
  20   2.0000      -6.035632      -164.2379
  21   2.0000      -6.034466      -164.2062
  22   2.0000      -6.032123      -164.1424
  23   2.0000      -6.031249      -164.1186
  24   2.0000      -1.011513       -27.5247
  25   2.0000      -0.986274       -26.8379
  26   2.0000      -0.907720       -24.7003
  27   2.0000      -0.896699       -24.4004
  28   2.0000      -0.868215       -23.6253
  29   2.0000      -0.848071       -23.0772
  30   2.0000      -0.842409       -22.9231
  31   2.0000      -0.811931       -22.0938
  32   2.0000      -0.786477       -21.4011
  33   2.0000      -0.769798       -20.9473
  34   2.0000      -0.702955       -19.1284
  35   2.0000      -0.695685       -18.9306
  36   2.0000      -0.690546       -18.7907
  37   2.0000      -0.655054       -17.8249
  38   2.0000      -0.651472       -17.7274
  39   2.0000      -0.614067       -16.7096
  40   2.0000      -0.587892       -15.9974
  41   2.0000      -0.574687       -15.6380
  42   2.0000      -0.549701       -14.9581
  43   2.0000      -0.540995       -14.7212
  44   2.0000      -0.538097       -14.6424
  45   2.0000      -0.534990       -14.5578
  46   2.0000      -0.514037       -13.9877
  47   2.0000      -0.508915       -13.8483
  48   2.0000      -0.502048       -13.6614
  49   2.0000      -0.497151       -13.5282
  50   2.0000      -0.486651       -13.2425
  51   2.0000      -0.482785       -13.1373
  52   2.0000      -0.470268       -12.7966
  53   2.0000      -0.466974       -12.7070
  54   2.0000      -0.457743       -12.4558
  55   2.0000      -0.450543       -12.2599
  56   2.0000      -0.438805       -11.9405
  57   2.0000      -0.433500       -11.7961
  58   2.0000      -0.427524       -11.6335
  59   2.0000      -0.424314       -11.5462
  60   2.0000      -0.422723       -11.5029
  61   2.0000      -0.413323       -11.2471
  62   2.0000      -0.409062       -11.1312
  63   2.0000      -0.336675        -9.1614
  64   2.0000      -0.330088        -8.9821
  65   2.0000      -0.325704        -8.8629
  66   2.0000      -0.309424        -8.4198
  67   0.0000       0.044130         1.2008
  68   0.0000       0.058100         1.5810
  69   0.0000       0.112258         3.0547
  70   0.0000       0.128078         3.4852
  71   0.0000       0.129559         3.5255

MULLIKEN ATOMIC CHARGES
-----------------------
   0 S :    0.125158
   1 C :   -0.128354
   2 C :   -0.066785
   3 C :    0.045517
   4 C :   -0.195767
   5 H :    0.024113
   6 C :    0.050079
   7 H :    0.020933
   8 H :    0.034576
   9 C :   -0.058909
  10 H :    0.018288
  11 H :    0.021119
  12 C :   -0.041471
  13 H :    0.025180
  14 H :    0.037506
  15 H :    0.034784
  16 S :    0.124796
  17 C :   -0.079903
  18 C :   -0.057380
  19 C :   -0.004044
  20 C :   -0.193162
  21 H :    0.018108
  22 C :    0.029396
  23 H :    0.024027
  24 H :    0.030330
  25 C :   -0.047551
  26 H :    0.035409
  27 H :    0.035913
  28 C :   -0.044762
  29 H :    0.020608
  30 H :    0.019991
  31 H :    0.043999
  32 H :    0.043554
  33 H :    0.054705
Sum of atomic charges:   -0.0000000

LOEWDIN ATOMIC CHARGES
----------------------
   0 S :    0.439365
   1 C :   -0.197686
   2 C :   -0.061645
   3 C :   -0.066640
   4 C :   -0.220685
   5 H :    0.037147
   6 C :   -0.028170
   7 H :    0.032088
   8 H :    0.029818
   9 C :   -0.043165
  10 H :    0.019218
  11 H :    0.025349
  12 C :   -0.065102
  13 H :    0.017912
  14 H :    0.028164
  15 H :    0.029615
  16 S :    0.416882
  17 C :   -0.197686
  18 C :   -0.075197
  19 C :   -0.047434
  20 C :   -0.197701
  21 H :    0.031746
  22 C :   -0.035134
  23 H :    0.025809
  24 H :    0.030965
  25 C :   -0.027891
  26 H :    0.027004
  27 H :    0.021838
  28 C :   -0.067239
  29 H :    0.019292
  30 H :    0.024874
  31 H :    0.022398
  32 H :    0.022946
  33 H :    0.028946

  Mayer bond orders larger than 0.100000
B(  0-S ,  1-C ) :   1.1616 B(  0-S ,  4-C ) :   1.1674 B(  1-C ,  2-C ) :   1.5939
B(  1-C , 32-H ) :   0.9757 B(  2-C ,  3-C ) :   1.2411 B(  2-C ,  6-C ) :   1.0130
B(  3-C ,  4-C ) :   1.5874 B(  3-C ,  5-H ) :   0.9873 B(  4-C , 20-C ) :   1.0075
B(  6-C ,  7-H ) :   0.9426 B(  6-C ,  8-H ) :   0.9523 B(  6-C ,  9-C ) :   1.0732
B(  9-C , 10-H ) :   0.9563 B(  9-C , 11-H ) :   0.9525 B(  9-C , 12-C ) :   1.0703
B( 12-C , 13-H ) :   0.9765 B( 12-C , 14-H ) :   0.9747 B( 12-C , 15-H ) :   0.9750
B( 16-S , 17-C ) :   1.1799 B( 16-S , 20-C ) :   1.1373 B( 17-C , 18-C ) :   1.6106
B( 17-C , 33-H ) :   0.9596 B( 18-C , 19-C ) :   1.2215 B( 18-C , 21-H ) :   0.9974
B( 19-C , 20-C ) :   1.6112 B( 19-C , 22-C ) :   1.0385 B( 22-C , 23-H ) :   0.9372
B( 22-C , 24-H ) :   0.9409 B( 22-C , 25-C ) :   1.0569 B( 25-C , 26-H ) :   0.9559
B( 25-C , 27-H ) :   0.9603 B( 25-C , 28-C ) :   1.0846 B( 28-C , 29-H ) :   0.9728
B( 28-C , 30-H ) :   0.9698 B( 28-C , 31-H ) :   0.9741

Dispersion correction           -0.015915435
FINAL SINGLE POINT ENERGY     -1339.881545542213

DIPOLE MOMENT
-------------
                                X             Y             Z
Electronic contribution:     19.42384      -5.98336     -14.39939
Nuclear contribution   :    -19.93638       6.22498      14.58090
                        -----------------------------------------
Total Dipole Moment    :     -0.51254       0.24162       0.18151
                        -----------------------------------------
Magnitude (a.u.)       :      0.59500
Magnitude (Debye)      :      1.51237

Rotational constants in cm-1:     0.019242     0.009174     0.008092
Rotational constants in MHz :   576.873378   275.030118   242.596012

                             ****ORCA TERMINATED NORMALLY****
TOTAL RUN TIME: 0 days 0 hours 0 minutes 21 seconds 417 msec
