                         Program Version 4.2.1 -  RELEASE  -
|  1> ! wB97X-D3 SP def2-SVP
|  2> %pal
|  3> nprocs 24
|  4> end
|  5>
|  6> * xyz 0 1
|  7> S 	 -99.7069 	 -0.0660123 	 -107.7
|  8> C 	 -99.8805 	 -0.472587 	 -109.369
|  9> C 	 -101.138 	 -0.963646 	 -109.662
| 10> C 	 -101.92 	 -1.02563 	 -108.493
| 11> C 	 -101.241 	 -0.664219 	 -107.326
| 12> H 	 -102.889 	 -1.38834 	 -108.396
| 13> C 	 -101.706 	 -1.53797 	 -110.963
| 14> H 	 -101.02 	 -1.09605 	 -111.765
| 15> H 	 -102.659 	 -1.09301 	 -111.12
| 16> C 	 -102.073 	 -3.02067 	 -111.06
| 17> H 	 -102.704 	 -3.36769 	 -110.249
| 18> H 	 -102.75 	 -3.1176 	 -111.952
| 19> C 	 -100.887 	 -3.97568 	 -111.253
| 20> H 	 -101.125 	 -5.03723 	 -111.463
| 21> H 	 -100.296 	 -3.61813 	 -112.018
| 22> H 	 -100.28 	 -4.11013 	 -110.37
| 23> S 	 -101.879 	 0.908719 	 -105.155
| 24> C 	 -102.773 	 0.204824 	 -103.817
| 25> C 	 -103.106 	 -1.12125 	 -104.053
| 26> C 	 -102.517 	 -1.62674 	 -105.257
| 27> C 	 -101.817 	 -0.65143 	 -105.989
| 28> H 	 -103.666 	 -1.62092 	 -103.207
| 29> C 	 -102.63 	 -3.11009 	 -105.542
| 30> H 	 -102.155 	 -3.31346 	 -106.488
| 31> H 	 -103.689 	 -3.25245 	 -105.887
| 32> C 	 -102.167 	 -4.25367 	 -104.561
| 33> H 	 -102.953 	 -4.38621 	 -103.857
| 34> H 	 -101.368 	 -3.79409 	 -104.136
| 35> C 	 -101.791 	 -5.59844 	 -105.248
| 36> H 	 -101.657 	 -6.4341 	 -104.63
| 37> H 	 -100.78 	 -5.39519 	 -105.614
| 38> H 	 -102.573 	 -5.88806 	 -106.038
| 39> H 	 -99.1612 	 -0.217656 	 -110.139
| 40> H 	 -103.024 	 0.761363 	 -102.962
| 41> *
| 42>
| 43>                          ****END OF INPUT****

CARTESIAN COORDINATES (ANGSTROEM)
---------------------------------
  S    -99.706900   -0.066012  -107.700000
  C    -99.880500   -0.472587  -109.369000
  C    -101.138000   -0.963646  -109.662000
  C    -101.920000   -1.025630  -108.493000
  C    -101.241000   -0.664219  -107.326000
  H    -102.889000   -1.388340  -108.396000
  C    -101.706000   -1.537970  -110.963000
  H    -101.020000   -1.096050  -111.765000
  H    -102.659000   -1.093010  -111.120000
  C    -102.073000   -3.020670  -111.060000
  H    -102.704000   -3.367690  -110.249000
  H    -102.750000   -3.117600  -111.952000
  C    -100.887000   -3.975680  -111.253000
  H    -101.125000   -5.037230  -111.463000
  H    -100.296000   -3.618130  -112.018000
  H    -100.280000   -4.110130  -110.370000
  S    -101.879000    0.908719  -105.155000
  C    -102.773000    0.204824  -103.817000
  C    -103.106000   -1.121250  -104.053000
  C    -102.517000   -1.626740  -105.257000
  C    -101.817000   -0.651430  -105.989000
  H    -103.666000   -1.620920  -103.207000
  C    -102.630000   -3.110090  -105.542000
  H    -102.155000   -3.313460  -106.488000
  H    -103.689000   -3.252450  -105.887000
  C    -102.167000   -4.253670  -104.561000
  H    -102.953000   -4.386210  -103.857000
  H    -101.368000   -3.794090  -104.136000
  C    -101.791000   -5.598440  -105.248000
  H    -101.657000   -6.434100  -104.630000
  H    -100.780000   -5.395190  -105.614000
  H    -102.573000   -5.888060  -106.038000
  H    -99.161200   -0.217656  -110.139000
  H    -103.024000    0.761363  -102.962000

 Total Charge           Charge          ....    0
 Multiplicity           Mult            ....    1
 Number of Electrons    NEL             ....  134
 Basis Dimension        Dim             ....  322

ORBITAL ENERGIES
----------------

  NO   OCC          E(Eh)            E(eV)
   0   2.0000     -88.967766     -2420.9360
   1   2.0000     -88.964070     -2420.8354
   2   2.0000     -10.329939      -281.0919
   3   2.0000     -10.323323      -280.9119
   4   2.0000     -10.315279      -280.6930
   5   2.0000     -10.312016      -280.6042
   6   2.0000     -10.309738      -280.5422
   7   2.0000     -10.298785      -280.2442
   8   2.0000     -10.298687      -280.2415
   9   2.0000     -10.297670      -280.2138
  10   2.0000     -10.293839      -280.1096
  11   2.0000     -10.289981      -280.0046
  12   2.0000     -10.284189      -279.8470
  13   2.0000     -10.284005      -279.8420
  14   2.0000     -10.281370      -279.7703
  15   2.0000     -10.269069      -279.4356
  16   2.0000      -8.083867      -219.9732
  17   2.0000      -8.078641      -219.8310
  18   2.0000      -6.042138      -164.4149
  19   2.0000      -6.038100      -164.3051
  20   2.0000      -6.037086      -164.2775
  21   2.0000      -6.034887      -164.2176
  22   2.0000      -6.033169      -164.1709
  23   2.0000      -6.029475      -164.0704
  24   2.0000      -1.011494       -27.5242
  25   2.0000      -0.983928       -26.7740
  26   2.0000      -0.911851       -24.8127
  27   2.0000      -0.902709       -24.5640
  28   2.0000      -0.869300       -23.6548
  29   2.0000      -0.853373       -23.2215
  30   2.0000      -0.847468       -23.0608
  31   2.0000      -0.811136       -22.0721
  32   2.0000      -0.787390       -21.4260
  33   2.0000      -0.773839       -21.0572
  34   2.0000      -0.712708       -19.3938
  35   2.0000      -0.703599       -19.1459
  36   2.0000      -0.696565       -18.9545
  37   2.0000      -0.655767       -17.8443
  38   2.0000      -0.643177       -17.5017
  39   2.0000      -0.620065       -16.8728
  40   2.0000      -0.595732       -16.2107
  41   2.0000      -0.569607       -15.4998
  42   2.0000      -0.567050       -15.4302
  43   2.0000      -0.550902       -14.9908
  44   2.0000      -0.539689       -14.6857
  45   2.0000      -0.521818       -14.1994
  46   2.0000      -0.518361       -14.1053
  47   2.0000      -0.515029       -14.0146
  48   2.0000      -0.502830       -13.6827
  49   2.0000      -0.497581       -13.5399
  50   2.0000      -0.489242       -13.3129
  51   2.0000      -0.481501       -13.1023
  52   2.0000      -0.468851       -12.7581
  53   2.0000      -0.460870       -12.5409
  54   2.0000      -0.458416       -12.4741
  55   2.0000      -0.450459       -12.2576
  56   2.0000      -0.446451       -12.1485
  57   2.0000      -0.439805       -11.9677
  58   2.0000      -0.432533       -11.7698
  59   2.0000      -0.427970       -11.6456
  60   2.0000      -0.421524       -11.4702
  61   2.0000      -0.413273       -11.2457
  62   2.0000      -0.410647       -11.1743
  63   2.0000      -0.342100        -9.3090
  64   2.0000      -0.332788        -9.0556
  65   2.0000      -0.328309        -8.9337
  66   2.0000      -0.293522        -7.9871
  67   0.0000       0.032067         0.8726
  68   0.0000       0.071918         1.9570
  69   0.0000       0.116053         3.1580
  70   0.0000       0.122639         3.3372
  71   0.0000       0.127210         3.4616

MULLIKEN ATOMIC CHARGES
-----------------------
   0 S :    0.130008
   1 C :   -0.128849
   2 C :   -0.072192
   3 C :    0.050536
   4 C :   -0.174162
   5 H :   -0.019396
   6 C :    0.073031
   7 H :    0.030521
   8 H :    0.021126
   9 C :   -0.075494
  10 H :    0.029014
  11 H :    0.033395
  12 C :   -0.023934
  13 H :    0.027851
  14 H :    0.011486
  15 H :    0.030656
  16 S :    0.098120
  17 C :   -0.089633
  18 C :   -0.052479
  19 C :   -0.043810
  20 C :   -0.140059
  21 H :    0.047651
  22 C :    0.029460
  23 H :    0.001648
  24 H :    0.028796
  25 C :    0.000845
  26 H :    0.023615
  27 H :    0.014589
  28 C :   -0.066005
  29 H :    0.026314
  30 H :    0.039133
  31 H :    0.050184
  32 H :    0.045031
  33 H :    0.043006
Sum of atomic charges:   -0.0000000

LOEWDIN ATOMIC CHARGES
----------------------
   0 S :    0.448681
   1 C :   -0.209076
   2 C :   -0.066899
   3 C :   -0.052180
   4 C :   -0.220871
   5 H :    0.017898
   6 C :   -0.032860
   7 H :    0.037153
   8 H :    0.031651
   9 C :   -0.038774
  10 H :    0.024326
  11 H :    0.031773
  12 C :   -0.065772
  13 H :    0.029505
  14 H :    0.012966
  15 H :    0.026093
  16 S :    0.393171
  17 C :   -0.172880
  18 C :   -0.079080
  19 C :   -0.057157
  20 C :   -0.194882
  21 H :    0.046402
  22 C :   -0.042139
  23 H :    0.022885
  24 H :    0.035044
  25 C :   -0.024334
  26 H :    0.016746
  27 H :    0.013112
  28 C :   -0.064232
  29 H :    0.018792
  30 H :    0.032216
  31 H :    0.036797
  32 H :    0.027915
  33 H :    0.018008

  Mayer bond orders larger than 0.100000
B(  0-S ,  1-C ) :   1.1576 B(  0-S ,  4-C ) :   1.1807 B(  1-C ,  2-C ) :   1.5852
B(  1-C , 32-H ) :   0.9660 B(  2-C ,  3-C ) :   1.2666 B(  2-C ,  6-C ) :   1.0220
B(  3-C ,  4-C ) :   1.5332 B(  3-C ,  5-H ) :   1.0080 B(  4-C , 20-C ) :   1.0281
B(  6-C ,  7-H ) :   0.9430 B(  6-C ,  8-H ) :   0.9292 B(  6-C ,  9-C ) :   1.0730
B(  9-C , 10-H ) :   0.9527 B(  9-C , 11-H ) :   0.9540 B(  9-C , 12-C ) :   1.0741
B( 12-C , 13-H ) :   0.9734 B( 12-C , 14-H ) :   0.9757 B( 12-C , 15-H ) :   0.9764
B( 16-S , 17-C ) :   1.1582 B( 16-S , 20-C ) :   1.1400 B( 17-C , 18-C ) :   1.6151
B( 17-C , 20-C ) :   0.1021 B( 17-C , 33-H ) :   0.9734 B( 18-C , 19-C ) :   1.2201
B( 18-C , 21-H ) :   0.9841 B( 19-C , 20-C ) :   1.5958 B( 19-C , 22-C ) :   1.0603
B( 22-C , 23-H ) :   0.9319 B( 22-C , 24-H ) :   0.9219 B( 22-C , 25-C ) :   1.0358
B( 25-C , 26-H ) :   0.9535 B( 25-C , 27-H ) :   0.9636 B( 25-C , 28-C ) :   1.0820
B( 28-C , 29-H ) :   0.9761 B( 28-C , 30-H ) :   0.9746 B( 28-C , 31-H ) :   0.9771

Dispersion correction           -0.013904574
FINAL SINGLE POINT ENERGY     -1339.859802040987

DIPOLE MOMENT
-------------
                                X             Y             Z
Electronic contribution:      5.76172      27.91960      11.10477
Nuclear contribution   :     -6.08226     -28.45160     -11.23207
                        -----------------------------------------
Total Dipole Moment    :     -0.32055      -0.53199      -0.12729
                        -----------------------------------------
Magnitude (a.u.)       :      0.63401
Magnitude (Debye)      :      1.61153

Rotational constants in cm-1:     0.016246     0.009458     0.006789
Rotational constants in MHz :   487.040842   283.538821   203.529770

                             ****ORCA TERMINATED NORMALLY****
TOTAL RUN TIME: 0 days 0 hours 0 minutes 21 seconds 380 msec
