                         Program Version 4.2.1 -  RELEASE  -
|  1> ! wB97X-D3 SP def2-SVP
|  2> %pal
|  3> nprocs 24
|  4> end
|  5>
|  6> * xyz 0 1
|  7> S 	 -36.7331 	 -10.3097 	 19.8426
|  8> C 	 -36.1497 	 -10.6099 	 21.4725
|  9> C 	 -35.5844 	 -11.8526 	 21.6603
| 10> C 	 -35.8561 	 -12.6202 	 20.4446
| 11> C 	 -36.4203 	 -11.96 	 19.3879
| 12> H 	 -35.586 	 -13.6513 	 20.2352
| 13> C 	 -35.0129 	 -12.4963 	 22.9145
| 14> H 	 -35.4992 	 -13.4874 	 23.034
| 15> H 	 -35.1766 	 -11.8595 	 23.8191
| 16> C 	 -33.5717 	 -12.8895 	 22.8941
| 17> H 	 -33.4318 	 -13.2715 	 23.9057
| 18> H 	 -33.3246 	 -13.6965 	 22.1863
| 19> C 	 -32.6198 	 -11.7177 	 22.8238
| 20> H 	 -31.6397 	 -12.2162 	 22.8507
| 21> H 	 -32.7799 	 -11.2097 	 21.8644
| 22> H 	 -32.6978 	 -11.0837 	 23.6575
| 23> S 	 -38.4022 	 -12.3892 	 17.4741
| 24> C 	 -38.052 	 -13.3348 	 16.0311
| 25> C 	 -36.7408 	 -13.5089 	 15.9548
| 26> C 	 -36.0356 	 -13.081 	 17.1205
| 27> C 	 -36.8122 	 -12.4699 	 18.0717
| 28> H 	 -36.2767 	 -13.8844 	 15.0359
| 29> C 	 -34.5209 	 -13.1893 	 17.0686
| 30> H 	 -34.3969 	 -14.0426 	 16.3565
| 31> H 	 -34.1702 	 -13.5499 	 18.0167
| 32> C 	 -33.8407 	 -11.8663 	 16.6929
| 33> H 	 -33.9886 	 -11.1243 	 17.4333
| 34> H 	 -34.171 	 -11.4253 	 15.7128
| 35> C 	 -32.3126 	 -12.1116 	 16.6467
| 36> H 	 -31.8999 	 -12.5851 	 17.5186
| 37> H 	 -31.6799 	 -11.2391 	 16.4503
| 38> H 	 -31.9766 	 -12.7677 	 15.8417
| 39> H 	 -36.3105 	 -9.85006 	 22.2468
| 40> H 	 -38.687 	 -13.4495 	 15.1536
| 41> *
| 42>
| 43>                          ****END OF INPUT****

CARTESIAN COORDINATES (ANGSTROEM)
---------------------------------
  S    -36.733100  -10.309700   19.842600
  C    -36.149700  -10.609900   21.472500
  C    -35.584400  -11.852600   21.660300
  C    -35.856100  -12.620200   20.444600
  C    -36.420300  -11.960000   19.387900
  H    -35.586000  -13.651300   20.235200
  C    -35.012900  -12.496300   22.914500
  H    -35.499200  -13.487400   23.034000
  H    -35.176600  -11.859500   23.819100
  C    -33.571700  -12.889500   22.894100
  H    -33.431800  -13.271500   23.905700
  H    -33.324600  -13.696500   22.186300
  C    -32.619800  -11.717700   22.823800
  H    -31.639700  -12.216200   22.850700
  H    -32.779900  -11.209700   21.864400
  H    -32.697800  -11.083700   23.657500
  S    -38.402200  -12.389200   17.474100
  C    -38.052000  -13.334800   16.031100
  C    -36.740800  -13.508900   15.954800
  C    -36.035600  -13.081000   17.120500
  C    -36.812200  -12.469900   18.071700
  H    -36.276700  -13.884400   15.035900
  C    -34.520900  -13.189300   17.068600
  H    -34.396900  -14.042600   16.356500
  H    -34.170200  -13.549900   18.016700
  C    -33.840700  -11.866300   16.692900
  H    -33.988600  -11.124300   17.433300
  H    -34.171000  -11.425300   15.712800
  C    -32.312600  -12.111600   16.646700
  H    -31.899900  -12.585100   17.518600
  H    -31.679900  -11.239100   16.450300
  H    -31.976600  -12.767700   15.841700
  H    -36.310500   -9.850060   22.246800
  H    -38.687000  -13.449500   15.153600

 Total Charge           Charge          ....    0
 Multiplicity           Mult            ....    1
 Number of Electrons    NEL             ....  134
 Basis Dimension        Dim             ....  322

ORBITAL ENERGIES
----------------

  NO   OCC          E(Eh)            E(eV)
   0   2.0000     -88.963921     -2420.8314
   1   2.0000     -88.961411     -2420.7631
   2   2.0000     -10.328796      -281.0608
   3   2.0000     -10.322616      -280.8927
   4   2.0000     -10.318585      -280.7830
   5   2.0000     -10.312416      -280.6151
   6   2.0000     -10.308526      -280.5093
   7   2.0000     -10.298142      -280.2267
   8   2.0000     -10.296144      -280.1723
   9   2.0000     -10.295235      -280.1476
  10   2.0000     -10.290122      -280.0085
  11   2.0000     -10.288375      -279.9609
  12   2.0000     -10.287193      -279.9288
  13   2.0000     -10.283516      -279.8287
  14   2.0000     -10.272264      -279.5225
  15   2.0000     -10.271194      -279.4934
  16   2.0000      -8.079068      -219.8426
  17   2.0000      -8.077122      -219.7897
  18   2.0000      -6.037628      -164.2922
  19   2.0000      -6.035721      -164.2403
  20   2.0000      -6.033531      -164.1807
  21   2.0000      -6.031459      -164.1243
  22   2.0000      -6.029745      -164.0777
  23   2.0000      -6.027722      -164.0226
  24   2.0000      -1.013962       -27.5913
  25   2.0000      -0.989642       -26.9295
  26   2.0000      -0.921568       -25.0771
  27   2.0000      -0.906504       -24.6672
  28   2.0000      -0.876908       -23.8619
  29   2.0000      -0.847951       -23.0739
  30   2.0000      -0.845301       -23.0018
  31   2.0000      -0.820004       -22.3134
  32   2.0000      -0.787422       -21.4268
  33   2.0000      -0.768756       -20.9189
  34   2.0000      -0.710816       -19.3423
  35   2.0000      -0.697843       -18.9893
  36   2.0000      -0.690302       -18.7841
  37   2.0000      -0.660648       -17.9771
  38   2.0000      -0.643803       -17.5188
  39   2.0000      -0.620950       -16.8969
  40   2.0000      -0.595248       -16.1975
  41   2.0000      -0.575687       -15.6652
  42   2.0000      -0.556947       -15.1553
  43   2.0000      -0.552051       -15.0221
  44   2.0000      -0.548683       -14.9304
  45   2.0000      -0.525493       -14.2994
  46   2.0000      -0.522373       -14.2145
  47   2.0000      -0.511359       -13.9148
  48   2.0000      -0.506838       -13.7918
  49   2.0000      -0.498762       -13.5720
  50   2.0000      -0.491415       -13.3721
  51   2.0000      -0.479654       -13.0521
  52   2.0000      -0.474814       -12.9203
  53   2.0000      -0.464435       -12.6379
  54   2.0000      -0.457754       -12.4561
  55   2.0000      -0.443291       -12.0625
  56   2.0000      -0.441475       -12.0131
  57   2.0000      -0.437637       -11.9087
  58   2.0000      -0.436802       -11.8860
  59   2.0000      -0.425668       -11.5830
  60   2.0000      -0.421341       -11.4653
  61   2.0000      -0.413429       -11.2500
  62   2.0000      -0.407752       -11.0955
  63   2.0000      -0.349155        -9.5010
  64   2.0000      -0.329146        -8.9565
  65   2.0000      -0.326148        -8.8749
  66   2.0000      -0.302999        -8.2450
  67   0.0000       0.035711         0.9718
  68   0.0000       0.074527         2.0280
  69   0.0000       0.114768         3.1230
  70   0.0000       0.118112         3.2140
  71   0.0000       0.130572         3.5530

MULLIKEN ATOMIC CHARGES
-----------------------
   0 S :    0.101933
   1 C :   -0.146534
   2 C :   -0.047313
   3 C :    0.022071
   4 C :   -0.170742
   5 H :    0.009733
   6 C :    0.061134
   7 H :    0.040317
   8 H :    0.027171
   9 C :   -0.107441
  10 H :    0.023526
  11 H :    0.036318
  12 C :   -0.024855
  13 H :    0.031731
  14 H :    0.045803
  15 H :    0.019668
  16 S :    0.099087
  17 C :   -0.080046
  18 C :   -0.044411
  19 C :   -0.072924
  20 C :   -0.131068
  21 H :    0.027137
  22 C :    0.082760
  23 H :    0.023538
  24 H :    0.004951
  25 C :   -0.028653
  26 H :    0.031120
  27 H :    0.036509
  28 C :   -0.050084
  29 H :    0.019009
  30 H :    0.027294
  31 H :    0.016285
  32 H :    0.056234
  33 H :    0.060745
Sum of atomic charges:    0.0000000

LOEWDIN ATOMIC CHARGES
----------------------
   0 S :    0.396173
   1 C :   -0.188641
   2 C :   -0.064676
   3 C :   -0.059986
   4 C :   -0.195034
   5 H :    0.028549
   6 C :   -0.035362
   7 H :    0.041293
   8 H :    0.034707
   9 C :   -0.047989
  10 H :    0.027228
  11 H :    0.024434
  12 C :   -0.059382
  13 H :    0.030617
  14 H :    0.028065
  15 H :    0.016572
  16 S :    0.418578
  17 C :   -0.182409
  18 C :   -0.077603
  19 C :   -0.062134
  20 C :   -0.222311
  21 H :    0.035881
  22 C :   -0.028655
  23 H :    0.033360
  24 H :    0.023561
  25 C :   -0.029687
  26 H :    0.023437
  27 H :    0.031634
  28 C :   -0.073233
  29 H :    0.020243
  30 H :    0.025026
  31 H :    0.022192
  32 H :    0.028635
  33 H :    0.036919

  Mayer bond orders larger than 0.100000
B(  0-S ,  1-C ) :   1.1431 B(  0-S ,  4-C ) :   1.1272 B(  1-C ,  2-C ) :   1.6244
B(  1-C , 32-H ) :   0.9644 B(  2-C ,  3-C ) :   1.1900 B(  2-C ,  6-C ) :   1.0266
B(  3-C ,  4-C ) :   1.6528 B(  3-C ,  5-H ) :   0.9849 B(  4-C , 20-C ) :   1.0134
B(  6-C ,  7-H ) :   0.9371 B(  6-C ,  8-H ) :   0.9425 B(  6-C ,  9-C ) :   1.0835
B(  9-C , 10-H ) :   0.9510 B(  9-C , 11-H ) :   0.9565 B(  9-C , 12-C ) :   1.0789
B( 12-C , 13-H ) :   0.9734 B( 12-C , 14-H ) :   0.9756 B( 12-C , 15-H ) :   0.9740
B( 16-S , 17-C ) :   1.1487 B( 16-S , 20-C ) :   1.1397 B( 17-C , 18-C ) :   1.6278
B( 17-C , 33-H ) :   0.9600 B( 18-C , 19-C ) :   1.2593 B( 18-C , 21-H ) :   0.9825
B( 19-C , 20-C ) :   1.5919 B( 19-C , 22-C ) :   1.0410 B( 22-C , 23-H ) :   0.9393
B( 22-C , 24-H ) :   0.9218 B( 22-C , 25-C ) :   1.0650 B( 25-C , 26-H ) :   0.9543
B( 25-C , 27-H ) :   0.9564 B( 25-C , 28-C ) :   1.0769 B( 28-C , 29-H ) :   0.9737
B( 28-C , 30-H ) :   0.9746 B( 28-C , 31-H ) :   0.9750

Dispersion correction           -0.014353391
FINAL SINGLE POINT ENERGY     -1339.878930738943

DIPOLE MOMENT
-------------
                                X             Y             Z
Electronic contribution:    -27.69568       5.24673      -6.93408
Nuclear contribution   :     28.25651      -5.53973       7.03356
                        -----------------------------------------
Total Dipole Moment    :      0.56083      -0.29301       0.09947
                        -----------------------------------------
Magnitude (a.u.)       :      0.64053
Magnitude (Debye)      :      1.62810

Rotational constants in cm-1:     0.018692     0.009038     0.007118
Rotational constants in MHz :   560.382068   270.940605   213.384871

                             ****ORCA TERMINATED NORMALLY****
TOTAL RUN TIME: 0 days 0 hours 0 minutes 22 seconds 158 msec
