                         Program Version 4.2.1 -  RELEASE  -
|  1> ! wB97X-D3 SP def2-SVP
|  2> %pal
|  3> nprocs 24
|  4> end
|  5>
|  6> * xyz 0 1
|  7> S 	 -59.1546 	 14.1722 	 -110.374
|  8> C 	 -59.939 	 12.8572 	 -109.634
|  9> C 	 -60.9458 	 13.2043 	 -108.716
| 10> C 	 -60.9141 	 14.6104 	 -108.487
| 11> C 	 -60.0034 	 15.294 	 -109.25
| 12> H 	 -61.5142 	 15.1838 	 -107.857
| 13> C 	 -61.8393 	 12.2519 	 -107.9
| 14> H 	 -62.0143 	 11.3057 	 -108.47
| 15> H 	 -62.7885 	 12.7188 	 -107.757
| 16> C 	 -61.2503 	 11.9283 	 -106.5
| 17> H 	 -60.4489 	 11.1533 	 -106.695
| 18> H 	 -60.8802 	 12.8053 	 -105.878
| 19> C 	 -62.4124 	 11.3185 	 -105.693
| 20> H 	 -62.6947 	 10.4796 	 -106.348
| 21> H 	 -62.0838 	 10.988 	 -104.703
| 22> H 	 -63.2527 	 11.9424 	 -105.442
| 23> S 	 -60.0809 	 17.6062 	 -110.765
| 24> C 	 -59.8665 	 19.1843 	 -110.077
| 25> C 	 -59.8095 	 19.0344 	 -108.706
| 26> C 	 -59.7582 	 17.6828 	 -108.193
| 27> C 	 -59.923 	 16.8014 	 -109.199
| 28> H 	 -59.6054 	 19.9574 	 -108.109
| 29> C 	 -59.4605 	 17.2673 	 -106.724
| 30> H 	 -58.5955 	 17.7729 	 -106.408
| 31> H 	 -59.0964 	 16.2207 	 -106.756
| 32> C 	 -60.5885 	 17.5514 	 -105.717
| 33> H 	 -61.4225 	 16.8851 	 -105.908
| 34> H 	 -60.8369 	 18.5746 	 -105.778
| 35> C 	 -60.1349 	 17.2985 	 -104.168
| 36> H 	 -59.5066 	 18.0102 	 -103.762
| 37> H 	 -59.6117 	 16.4168 	 -104.03
| 38> H 	 -61.0322 	 17.29 	 -103.511
| 39> H 	 -59.6828 	 11.7914 	 -109.897
| 40> H 	 -59.9499 	 20.1891 	 -110.581
| 41> *
| 42>
| 43>                          ****END OF INPUT****

CARTESIAN COORDINATES (ANGSTROEM)
---------------------------------
  S    -59.154600   14.172200  -110.374000
  C    -59.939000   12.857200  -109.634000
  C    -60.945800   13.204300  -108.716000
  C    -60.914100   14.610400  -108.487000
  C    -60.003400   15.294000  -109.250000
  H    -61.514200   15.183800  -107.857000
  C    -61.839300   12.251900  -107.900000
  H    -62.014300   11.305700  -108.470000
  H    -62.788500   12.718800  -107.757000
  C    -61.250300   11.928300  -106.500000
  H    -60.448900   11.153300  -106.695000
  H    -60.880200   12.805300  -105.878000
  C    -62.412400   11.318500  -105.693000
  H    -62.694700   10.479600  -106.348000
  H    -62.083800   10.988000  -104.703000
  H    -63.252700   11.942400  -105.442000
  S    -60.080900   17.606200  -110.765000
  C    -59.866500   19.184300  -110.077000
  C    -59.809500   19.034400  -108.706000
  C    -59.758200   17.682800  -108.193000
  C    -59.923000   16.801400  -109.199000
  H    -59.605400   19.957400  -108.109000
  C    -59.460500   17.267300  -106.724000
  H    -58.595500   17.772900  -106.408000
  H    -59.096400   16.220700  -106.756000
  C    -60.588500   17.551400  -105.717000
  H    -61.422500   16.885100  -105.908000
  H    -60.836900   18.574600  -105.778000
  C    -60.134900   17.298500  -104.168000
  H    -59.506600   18.010200  -103.762000
  H    -59.611700   16.416800  -104.030000
  H    -61.032200   17.290000  -103.511000
  H    -59.682800   11.791400  -109.897000
  H    -59.949900   20.189100  -110.581000

 Total Charge           Charge          ....    0
 Multiplicity           Mult            ....    1
 Number of Electrons    NEL             ....  134
 Basis Dimension        Dim             ....  322

ORBITAL ENERGIES
----------------

  NO   OCC          E(Eh)            E(eV)
   0   2.0000     -88.971301     -2421.0322
   1   2.0000     -88.959575     -2420.7131
   2   2.0000     -10.331760      -281.1415
   3   2.0000     -10.327697      -281.0309
   4   2.0000     -10.318968      -280.7934
   5   2.0000     -10.318652      -280.7848
   6   2.0000     -10.304206      -280.3917
   7   2.0000     -10.302876      -280.3555
   8   2.0000     -10.298671      -280.2411
   9   2.0000     -10.298153      -280.2270
  10   2.0000     -10.295941      -280.1668
  11   2.0000     -10.292107      -280.0625
  12   2.0000     -10.291975      -280.0589
  13   2.0000     -10.289352      -279.9875
  14   2.0000     -10.278969      -279.7050
  15   2.0000     -10.274089      -279.5722
  16   2.0000      -8.085760      -220.0247
  17   2.0000      -8.074626      -219.7218
  18   2.0000      -6.044292      -164.4736
  19   2.0000      -6.040351      -164.3663
  20   2.0000      -6.036474      -164.2608
  21   2.0000      -6.033251      -164.1731
  22   2.0000      -6.029056      -164.0589
  23   2.0000      -6.025266      -163.9558
  24   2.0000      -1.004346       -27.3296
  25   2.0000      -0.984901       -26.8005
  26   2.0000      -0.910061       -24.7640
  27   2.0000      -0.901269       -24.5248
  28   2.0000      -0.866634       -23.5823
  29   2.0000      -0.852148       -23.1881
  30   2.0000      -0.842265       -22.9192
  31   2.0000      -0.811252       -22.0753
  32   2.0000      -0.783786       -21.3279
  33   2.0000      -0.768484       -20.9115
  34   2.0000      -0.709683       -19.3114
  35   2.0000      -0.694280       -18.8923
  36   2.0000      -0.690528       -18.7902
  37   2.0000      -0.659220       -17.9383
  38   2.0000      -0.642731       -17.4896
  39   2.0000      -0.618911       -16.8414
  40   2.0000      -0.589737       -16.0476
  41   2.0000      -0.568230       -15.4623
  42   2.0000      -0.564186       -15.3523
  43   2.0000      -0.562464       -15.3054
  44   2.0000      -0.525831       -14.3086
  45   2.0000      -0.521089       -14.1796
  46   2.0000      -0.512715       -13.9517
  47   2.0000      -0.509631       -13.8678
  48   2.0000      -0.501913       -13.6577
  49   2.0000      -0.495451       -13.4819
  50   2.0000      -0.488870       -13.3028
  51   2.0000      -0.481883       -13.1127
  52   2.0000      -0.470324       -12.7982
  53   2.0000      -0.466471       -12.6933
  54   2.0000      -0.456706       -12.4276
  55   2.0000      -0.449052       -12.2193
  56   2.0000      -0.444350       -12.0914
  57   2.0000      -0.437040       -11.8925
  58   2.0000      -0.434016       -11.8102
  59   2.0000      -0.431550       -11.7431
  60   2.0000      -0.429832       -11.6963
  61   2.0000      -0.414467       -11.2782
  62   2.0000      -0.410140       -11.1605
  63   2.0000      -0.351305        -9.5595
  64   2.0000      -0.331478        -9.0200
  65   2.0000      -0.326978        -8.8975
  66   2.0000      -0.294127        -8.0036
  67   0.0000       0.036923         1.0047
  68   0.0000       0.069942         1.9032
  69   0.0000       0.113604         3.0913
  70   0.0000       0.124376         3.3844
  71   0.0000       0.131339         3.5739

MULLIKEN ATOMIC CHARGES
-----------------------
   0 S :    0.130237
   1 C :   -0.146351
   2 C :   -0.056743
   3 C :    0.047239
   4 C :   -0.144474
   5 H :   -0.017890
   6 C :    0.053160
   7 H :    0.036529
   8 H :    0.020664
   9 C :   -0.103164
  10 H :    0.045300
  11 H :    0.049259
  12 C :   -0.050358
  13 H :    0.029257
  14 H :    0.028774
  15 H :    0.036546
  16 S :    0.089487
  17 C :   -0.110841
  18 C :   -0.063898
  19 C :   -0.039112
  20 C :   -0.176810
  21 H :    0.030756
  22 C :    0.081627
  23 H :    0.009056
  24 H :    0.034454
  25 C :   -0.055329
  26 H :    0.035411
  27 H :    0.029940
  28 C :   -0.036659
  29 H :    0.014954
  30 H :    0.014314
  31 H :    0.035965
  32 H :    0.066294
  33 H :    0.082403
Sum of atomic charges:    0.0000000

LOEWDIN ATOMIC CHARGES
----------------------
   0 S :    0.409554
   1 C :   -0.216696
   2 C :   -0.065196
   3 C :   -0.046539
   4 C :   -0.186489
   5 H :    0.021404
   6 C :   -0.031481
   7 H :    0.035557
   8 H :    0.025676
   9 C :   -0.042995
  10 H :    0.032335
  11 H :    0.030321
  12 C :   -0.070336
  13 H :    0.027127
  14 H :    0.023741
  15 H :    0.022396
  16 S :    0.392027
  17 C :   -0.204351
  18 C :   -0.082310
  19 C :   -0.066500
  20 C :   -0.178864
  21 H :    0.033917
  22 C :   -0.027373
  23 H :    0.023342
  24 H :    0.035712
  25 C :   -0.022051
  26 H :    0.021776
  27 H :    0.020379
  28 C :   -0.059959
  29 H :    0.014114
  30 H :    0.014182
  31 H :    0.032025
  32 H :    0.037362
  33 H :    0.048194

  Mayer bond orders larger than 0.100000
B(  0-S ,  1-C ) :   1.1614 B(  0-S ,  4-C ) :   1.1328 B(  1-C ,  2-C ) :   1.5941
B(  1-C , 32-H ) :   0.9578 B(  2-C ,  3-C ) :   1.2350 B(  2-C ,  6-C ) :   1.0327
B(  3-C ,  4-C ) :   1.5828 B(  3-C ,  5-H ) :   1.0048 B(  4-C , 20-C ) :   1.0101
B(  6-C ,  7-H ) :   0.9382 B(  6-C ,  8-H ) :   0.9440 B(  6-C ,  9-C ) :   1.0511
B(  9-C , 10-H ) :   0.9562 B(  9-C , 11-H ) :   0.9611 B(  9-C , 12-C ) :   1.0694
B( 12-C , 13-H ) :   0.9724 B( 12-C , 14-H ) :   0.9729 B( 12-C , 15-H ) :   0.9778
B( 16-S , 17-C ) :   1.1384 B( 16-S , 20-C ) :   1.1382 B( 17-C , 18-C ) :   1.6449
B( 17-C , 33-H ) :   0.9599 B( 18-C , 19-C ) :   1.2098 B( 18-C , 21-H ) :   0.9770
B( 19-C , 20-C ) :   1.6592 B( 19-C , 22-C ) :   1.0268 B( 22-C , 23-H ) :   0.9350
B( 22-C , 24-H ) :   0.9342 B( 22-C , 25-C ) :   1.0610 B( 25-C , 26-H ) :   0.9604
B( 25-C , 27-H ) :   0.9596 B( 25-C , 28-C ) :   1.0695 B( 28-C , 29-H ) :   0.9775
B( 28-C , 30-H ) :   0.9779 B( 28-C , 31-H ) :   0.9784

Dispersion correction           -0.013904932
FINAL SINGLE POINT ENERGY     -1339.866135142240

DIPOLE MOMENT
-------------
                                X             Y             Z
Electronic contribution:      9.03530       9.11455     -30.78813
Nuclear contribution   :     -9.21521      -9.23028      31.49756
                        -----------------------------------------
Total Dipole Moment    :     -0.17991      -0.11573       0.70943
                        -----------------------------------------
Magnitude (a.u.)       :      0.74098
Magnitude (Debye)      :      1.88342

Rotational constants in cm-1:     0.016161     0.009374     0.006398
Rotational constants in MHz :   484.483342   281.012074   191.818758

                             ****ORCA TERMINATED NORMALLY****
TOTAL RUN TIME: 0 days 0 hours 0 minutes 20 seconds 115 msec
