                         Program Version 4.2.1 -  RELEASE  -
|  1> ! wB97X-D3 SP def2-SVP
|  2> %pal
|  3> nprocs 24
|  4> end
|  5>
|  6> * xyz 0 1
|  7> S 	 -99.4211 	 1.6893 	 -105.432
|  8> C 	 -100.015 	 2.53121 	 -106.857
|  9> C 	 -101.351 	 2.8124 	 -106.78
| 10> C 	 -101.907 	 2.20858 	 -105.59
| 11> C 	 -100.969 	 1.48808 	 -104.815
| 12> H 	 -102.989 	 2.17972 	 -105.309
| 13> C 	 -102.286 	 3.33795 	 -107.85
| 14> H 	 -103.331 	 3.2113 	 -107.524
| 15> H 	 -102.376 	 2.74192 	 -108.711
| 16> C 	 -101.906 	 4.76822 	 -108.26
| 17> H 	 -101.866 	 5.32176 	 -107.384
| 18> H 	 -100.792 	 4.73602 	 -108.602
| 19> C 	 -102.732 	 5.40513 	 -109.488
| 20> H 	 -102.578 	 6.50734 	 -109.623
| 21> H 	 -102.403 	 4.9325 	 -110.433
| 22> H 	 -103.827 	 5.27198 	 -109.293
| 23> S 	 -100.3 	 1.30509 	 -102.112
| 24> C 	 -101.243 	 0.256707 	 -101.197
| 25> C 	 -101.898 	 -0.7104 	 -101.897
| 26> C 	 -101.963 	 -0.377319 	 -103.255
| 27> C 	 -101.144 	 0.727489 	 -103.588
| 28> H 	 -102.403 	 -1.55206 	 -101.304
| 29> C 	 -102.934 	 -1.0263 	 -104.183
| 30> H 	 -102.468 	 -1.92468 	 -104.66
| 31> H 	 -103.133 	 -0.368285 	 -104.974
| 32> C 	 -104.386 	 -1.27658 	 -103.733
| 33> H 	 -104.946 	 -0.315197 	 -103.492
| 34> H 	 -104.353 	 -1.76414 	 -102.754
| 35> C 	 -105.19 	 -2.16836 	 -104.685
| 36> H 	 -105.625 	 -1.68566 	 -105.545
| 37> H 	 -105.951 	 -2.71862 	 -104.133
| 38> H 	 -104.505 	 -2.93414 	 -105.093
| 39> H 	 -99.4051 	 2.95701 	 -107.69
| 40> H 	 -101.025 	 0.0494047 	 -100.187
| 41> *
| 42>
| 43>                          ****END OF INPUT****

CARTESIAN COORDINATES (ANGSTROEM)
---------------------------------
  S    -99.421100    1.689300  -105.432000
  C    -100.015000    2.531210  -106.857000
  C    -101.351000    2.812400  -106.780000
  C    -101.907000    2.208580  -105.590000
  C    -100.969000    1.488080  -104.815000
  H    -102.989000    2.179720  -105.309000
  C    -102.286000    3.337950  -107.850000
  H    -103.331000    3.211300  -107.524000
  H    -102.376000    2.741920  -108.711000
  C    -101.906000    4.768220  -108.260000
  H    -101.866000    5.321760  -107.384000
  H    -100.792000    4.736020  -108.602000
  C    -102.732000    5.405130  -109.488000
  H    -102.578000    6.507340  -109.623000
  H    -102.403000    4.932500  -110.433000
  H    -103.827000    5.271980  -109.293000
  S    -100.300000    1.305090  -102.112000
  C    -101.243000    0.256707  -101.197000
  C    -101.898000   -0.710400  -101.897000
  C    -101.963000   -0.377319  -103.255000
  C    -101.144000    0.727489  -103.588000
  H    -102.403000   -1.552060  -101.304000
  C    -102.934000   -1.026300  -104.183000
  H    -102.468000   -1.924680  -104.660000
  H    -103.133000   -0.368285  -104.974000
  C    -104.386000   -1.276580  -103.733000
  H    -104.946000   -0.315197  -103.492000
  H    -104.353000   -1.764140  -102.754000
  C    -105.190000   -2.168360  -104.685000
  H    -105.625000   -1.685660  -105.545000
  H    -105.951000   -2.718620  -104.133000
  H    -104.505000   -2.934140  -105.093000
  H    -99.405100    2.957010  -107.690000
  H    -101.025000    0.049405  -100.187000

 Total Charge           Charge          ....    0
 Multiplicity           Mult            ....    1
 Number of Electrons    NEL             ....  134
 Basis Dimension        Dim             ....  322

ORBITAL ENERGIES
----------------

  NO   OCC          E(Eh)            E(eV)
   0   2.0000     -88.967450     -2420.9274
   1   2.0000     -88.966242     -2420.8945
   2   2.0000     -10.329279      -281.0740
   3   2.0000     -10.325809      -280.9795
   4   2.0000     -10.315052      -280.6868
   5   2.0000     -10.306298      -280.4486
   6   2.0000     -10.305663      -280.4313
   7   2.0000     -10.301353      -280.3141
   8   2.0000     -10.298036      -280.2238
   9   2.0000     -10.294362      -280.1238
  10   2.0000     -10.293613      -280.1034
  11   2.0000     -10.293508      -280.1006
  12   2.0000     -10.291677      -280.0508
  13   2.0000     -10.290634      -280.0224
  14   2.0000     -10.285409      -279.8802
  15   2.0000     -10.279437      -279.7177
  16   2.0000      -8.083285      -219.9574
  17   2.0000      -8.081850      -219.9183
  18   2.0000      -6.041697      -164.4029
  19   2.0000      -6.040107      -164.3597
  20   2.0000      -6.037525      -164.2894
  21   2.0000      -6.036365      -164.2578
  22   2.0000      -6.034183      -164.1985
  23   2.0000      -6.032684      -164.1577
  24   2.0000      -1.012139       -27.5417
  25   2.0000      -0.991300       -26.9746
  26   2.0000      -0.911644       -24.8071
  27   2.0000      -0.911120       -24.7928
  28   2.0000      -0.865726       -23.5576
  29   2.0000      -0.855787       -23.2871
  30   2.0000      -0.840567       -22.8730
  31   2.0000      -0.808303       -21.9950
  32   2.0000      -0.785871       -21.3846
  33   2.0000      -0.774504       -21.0753
  34   2.0000      -0.708090       -19.2681
  35   2.0000      -0.702816       -19.1246
  36   2.0000      -0.696697       -18.9581
  37   2.0000      -0.651777       -17.7357
  38   2.0000      -0.636783       -17.3277
  39   2.0000      -0.617002       -16.7895
  40   2.0000      -0.603136       -16.4122
  41   2.0000      -0.570050       -15.5118
  42   2.0000      -0.561418       -15.2769
  43   2.0000      -0.552065       -15.0224
  44   2.0000      -0.521098       -14.1798
  45   2.0000      -0.519481       -14.1358
  46   2.0000      -0.514444       -13.9987
  47   2.0000      -0.512650       -13.9499
  48   2.0000      -0.504423       -13.7260
  49   2.0000      -0.495580       -13.4854
  50   2.0000      -0.492501       -13.4016
  51   2.0000      -0.479428       -13.0459
  52   2.0000      -0.471118       -12.8198
  53   2.0000      -0.468094       -12.7375
  54   2.0000      -0.459578       -12.5058
  55   2.0000      -0.457711       -12.4550
  56   2.0000      -0.443690       -12.0734
  57   2.0000      -0.436943       -11.8898
  58   2.0000      -0.432588       -11.7713
  59   2.0000      -0.429673       -11.6920
  60   2.0000      -0.427142       -11.6231
  61   2.0000      -0.410758       -11.1773
  62   2.0000      -0.404128       -10.9969
  63   2.0000      -0.340182        -9.2568
  64   2.0000      -0.333922        -9.0865
  65   2.0000      -0.330738        -8.9998
  66   2.0000      -0.293401        -7.9838
  67   0.0000       0.034604         0.9416
  68   0.0000       0.059090         1.6079
  69   0.0000       0.110469         3.0060
  70   0.0000       0.123636         3.3643
  71   0.0000       0.128364         3.4930

MULLIKEN ATOMIC CHARGES
-----------------------
   0 S :    0.125653
   1 C :   -0.134096
   2 C :   -0.078603
   3 C :    0.019058
   4 C :   -0.180937
   5 H :    0.028153
   6 C :    0.093851
   7 H :    0.012260
   8 H :    0.018780
   9 C :   -0.112604
  10 H :    0.023667
  11 H :    0.034659
  12 C :   -0.071252
  13 H :    0.047283
  14 H :    0.044670
  15 H :    0.043199
  16 S :    0.118662
  17 C :   -0.060229
  18 C :   -0.092343
  19 C :   -0.006792
  20 C :   -0.167137
  21 H :    0.054420
  22 C :    0.086797
  23 H :    0.042539
  24 H :    0.000631
  25 C :   -0.110585
  26 H :    0.041080
  27 H :    0.018744
  28 C :   -0.035971
  29 H :    0.037151
  30 H :    0.034944
  31 H :    0.022746
  32 H :    0.060851
  33 H :    0.040751
Sum of atomic charges:   -0.0000000

LOEWDIN ATOMIC CHARGES
----------------------
   0 S :    0.441431
   1 C :   -0.203740
   2 C :   -0.064482
   3 C :   -0.069905
   4 C :   -0.222803
   5 H :    0.034747
   6 C :   -0.032030
   7 H :    0.030696
   8 H :    0.025364
   9 C :   -0.038960
  10 H :    0.013126
  11 H :    0.030253
  12 C :   -0.076182
  13 H :    0.032508
  14 H :    0.028796
  15 H :    0.028171
  16 S :    0.419135
  17 C :   -0.197196
  18 C :   -0.081555
  19 C :   -0.047918
  20 C :   -0.196268
  21 H :    0.048764
  22 C :   -0.038965
  23 H :    0.040049
  24 H :    0.023707
  25 C :   -0.045251
  26 H :    0.031658
  27 H :    0.016095
  28 C :   -0.064712
  29 H :    0.023047
  30 H :    0.029521
  31 H :    0.027861
  32 H :    0.036416
  33 H :    0.018622

  Mayer bond orders larger than 0.100000
B(  0-S ,  1-C ) :   1.1427 B(  0-S ,  4-C ) :   1.1852 B(  1-C ,  2-C ) :   1.6167
B(  1-C , 32-H ) :   0.9576 B(  2-C ,  3-C ) :   1.2492 B(  2-C ,  6-C ) :   1.0146
B(  3-C ,  4-C ) :   1.5530 B(  3-C ,  5-H ) :   0.9843 B(  4-C , 20-C ) :   1.0264
B(  6-C ,  7-H ) :   0.9404 B(  6-C ,  8-H ) :   0.9426 B(  6-C ,  9-C ) :   1.0363
B(  9-C , 10-H ) :   0.9670 B(  9-C , 11-H ) :   0.9610 B(  9-C , 12-C ) :   1.0555
B( 12-C , 13-H ) :   0.9777 B( 12-C , 14-H ) :   0.9766 B( 12-C , 15-H ) :   0.9776
B( 16-S , 17-C ) :   1.1838 B( 16-S , 20-C ) :   1.1400 B( 17-C , 18-C ) :   1.6209
B( 17-C , 20-C ) :   0.1056 B( 17-C , 33-H ) :   0.9563 B( 18-C , 19-C ) :   1.2458
B( 18-C , 21-H ) :   0.9752 B( 19-C , 20-C ) :   1.5797 B( 19-C , 22-C ) :   1.0557
B( 22-C , 23-H ) :   0.9212 B( 22-C , 24-H ) :   0.9326 B( 22-C , 25-C ) :   1.0565
B( 25-C , 26-H ) :   0.9551 B( 25-C , 27-H ) :   0.9557 B( 25-C , 28-C ) :   1.0752
B( 28-C , 29-H ) :   0.9783 B( 28-C , 30-H ) :   0.9751 B( 28-C , 31-H ) :   0.9731

Dispersion correction           -0.013347712
FINAL SINGLE POINT ENERGY     -1339.855689923874

DIPOLE MOMENT
-------------
                                X             Y             Z
Electronic contribution:     22.90214      -0.58334      17.91870
Nuclear contribution   :    -23.43708       0.40371     -18.15051
                        -----------------------------------------
Total Dipole Moment    :     -0.53494      -0.17963      -0.23181
                        -----------------------------------------
Magnitude (a.u.)       :      0.61005
Magnitude (Debye)      :      1.55063

Rotational constants in cm-1:     0.018323     0.007594     0.005876
Rotational constants in MHz :   549.320012   227.674687   176.159421

                             ****ORCA TERMINATED NORMALLY****
TOTAL RUN TIME: 0 days 0 hours 0 minutes 20 seconds 741 msec
