                         Program Version 4.2.1 -  RELEASE  -
|  1> ! wB97X-D3 SP def2-SVP
|  2> %pal
|  3> nprocs 24
|  4> end
|  5>
|  6> * xyz 0 1
|  7> S 	 -111.493 	 15.5621 	 -10.8861
|  8> C 	 -110.74 	 15.6688 	 -9.29901
|  9> C 	 -111.081 	 14.5748 	 -8.52855
| 10> C 	 -111.921 	 13.6305 	 -9.20052
| 11> C 	 -112.364 	 14.0727 	 -10.4619
| 12> H 	 -112.318 	 12.6745 	 -8.80227
| 13> C 	 -110.68 	 14.3028 	 -7.05124
| 14> H 	 -111.213 	 13.4813 	 -6.57361
| 15> H 	 -110.998 	 15.1369 	 -6.39122
| 16> C 	 -109.2 	 14.0964 	 -6.84017
| 17> H 	 -108.618 	 14.9851 	 -6.96594
| 18> H 	 -109.13 	 13.8587 	 -5.76516
| 19> C 	 -108.56 	 12.8372 	 -7.5503
| 20> H 	 -108.696 	 12.9632 	 -8.6195
| 21> H 	 -107.514 	 12.5969 	 -7.30058
| 22> H 	 -109.133 	 11.9242 	 -7.28272
| 23> S 	 -113.02 	 12.9292 	 -12.9753
| 24> C 	 -114.493 	 12.0018 	 -12.992
| 25> C 	 -115.304 	 12.1548 	 -11.9048
| 26> C 	 -114.729 	 13.0833 	 -10.9658
| 27> C 	 -113.471 	 13.4484 	 -11.3051
| 28> H 	 -116.258 	 11.6583 	 -11.8209
| 29> C 	 -115.308 	 13.5048 	 -9.60238
| 30> H 	 -114.621 	 13.142 	 -8.8559
| 31> H 	 -116.251 	 12.8877 	 -9.51942
| 32> C 	 -115.699 	 14.9835 	 -9.45697
| 33> H 	 -116.62 	 15.2009 	 -10.0217
| 34> H 	 -114.928 	 15.6811 	 -9.85884
| 35> C 	 -115.955 	 15.3084 	 -7.92308
| 36> H 	 -116.106 	 16.3426 	 -7.66647
| 37> H 	 -115.084 	 15.0507 	 -7.40877
| 38> H 	 -116.879 	 14.8187 	 -7.50487
| 39> H 	 -110.115 	 16.4098 	 -9.00554
| 40> H 	 -114.777 	 11.2976 	 -13.7933
| 41> *
| 42>
| 43>                          ****END OF INPUT****

CARTESIAN COORDINATES (ANGSTROEM)
---------------------------------
  S    -111.493000   15.562100  -10.886100
  C    -110.740000   15.668800   -9.299010
  C    -111.081000   14.574800   -8.528550
  C    -111.921000   13.630500   -9.200520
  C    -112.364000   14.072700  -10.461900
  H    -112.318000   12.674500   -8.802270
  C    -110.680000   14.302800   -7.051240
  H    -111.213000   13.481300   -6.573610
  H    -110.998000   15.136900   -6.391220
  C    -109.200000   14.096400   -6.840170
  H    -108.618000   14.985100   -6.965940
  H    -109.130000   13.858700   -5.765160
  C    -108.560000   12.837200   -7.550300
  H    -108.696000   12.963200   -8.619500
  H    -107.514000   12.596900   -7.300580
  H    -109.133000   11.924200   -7.282720
  S    -113.020000   12.929200  -12.975300
  C    -114.493000   12.001800  -12.992000
  C    -115.304000   12.154800  -11.904800
  C    -114.729000   13.083300  -10.965800
  C    -113.471000   13.448400  -11.305100
  H    -116.258000   11.658300  -11.820900
  C    -115.308000   13.504800   -9.602380
  H    -114.621000   13.142000   -8.855900
  H    -116.251000   12.887700   -9.519420
  C    -115.699000   14.983500   -9.456970
  H    -116.620000   15.200900  -10.021700
  H    -114.928000   15.681100   -9.858840
  C    -115.955000   15.308400   -7.923080
  H    -116.106000   16.342600   -7.666470
  H    -115.084000   15.050700   -7.408770
  H    -116.879000   14.818700   -7.504870
  H    -110.115000   16.409800   -9.005540
  H    -114.777000   11.297600  -13.793300

 Total Charge           Charge          ....    0
 Multiplicity           Mult            ....    1
 Number of Electrons    NEL             ....  134
 Basis Dimension        Dim             ....  322

ORBITAL ENERGIES
----------------

  NO   OCC          E(Eh)            E(eV)
   0   2.0000     -88.968684     -2420.9610
   1   2.0000     -88.965556     -2420.8759
   2   2.0000     -10.339190      -281.3437
   3   2.0000     -10.329909      -281.0911
   4   2.0000     -10.319142      -280.7981
   5   2.0000     -10.312139      -280.6076
   6   2.0000     -10.306351      -280.4501
   7   2.0000     -10.303962      -280.3851
   8   2.0000     -10.300859      -280.3006
   9   2.0000     -10.297480      -280.2087
  10   2.0000     -10.295565      -280.1566
  11   2.0000     -10.295414      -280.1524
  12   2.0000     -10.291520      -280.0465
  13   2.0000     -10.286645      -279.9138
  14   2.0000     -10.279603      -279.7222
  15   2.0000     -10.274824      -279.5922
  16   2.0000      -8.082579      -219.9382
  17   2.0000      -8.080019      -219.8685
  18   2.0000      -6.041136      -164.3877
  19   2.0000      -6.038471      -164.3151
  20   2.0000      -6.037111      -164.2781
  21   2.0000      -6.034817      -164.2157
  22   2.0000      -6.033433      -164.1781
  23   2.0000      -6.030591      -164.1007
  24   2.0000      -1.000681       -27.2299
  25   2.0000      -0.982373       -26.7317
  26   2.0000      -0.907061       -24.6824
  27   2.0000      -0.901358       -24.5272
  28   2.0000      -0.860638       -23.4192
  29   2.0000      -0.847713       -23.0675
  30   2.0000      -0.840331       -22.8666
  31   2.0000      -0.812517       -22.1097
  32   2.0000      -0.782589       -21.2953
  33   2.0000      -0.773058       -21.0360
  34   2.0000      -0.705423       -19.1955
  35   2.0000      -0.700378       -19.0583
  36   2.0000      -0.687902       -18.7188
  37   2.0000      -0.661407       -17.9978
  38   2.0000      -0.645719       -17.5709
  39   2.0000      -0.609968       -16.5981
  40   2.0000      -0.590752       -16.0752
  41   2.0000      -0.577157       -15.7052
  42   2.0000      -0.560219       -15.2443
  43   2.0000      -0.546441       -14.8694
  44   2.0000      -0.538105       -14.6426
  45   2.0000      -0.520084       -14.1522
  46   2.0000      -0.510447       -13.8900
  47   2.0000      -0.505929       -13.7670
  48   2.0000      -0.505137       -13.7455
  49   2.0000      -0.495224       -13.4757
  50   2.0000      -0.481993       -13.1157
  51   2.0000      -0.477735       -12.9998
  52   2.0000      -0.470418       -12.8007
  53   2.0000      -0.464104       -12.6289
  54   2.0000      -0.461335       -12.5536
  55   2.0000      -0.450303       -12.2534
  56   2.0000      -0.444178       -12.0867
  57   2.0000      -0.437359       -11.9012
  58   2.0000      -0.434483       -11.8229
  59   2.0000      -0.423170       -11.5150
  60   2.0000      -0.420906       -11.4534
  61   2.0000      -0.413303       -11.2465
  62   2.0000      -0.406938       -11.0734
  63   2.0000      -0.341130        -9.2826
  64   2.0000      -0.334907        -9.1133
  65   2.0000      -0.332138        -9.0379
  66   2.0000      -0.297326        -8.0907
  67   0.0000       0.030552         0.8314
  68   0.0000       0.060965         1.6589
  69   0.0000       0.105040         2.8583
  70   0.0000       0.119385         3.2486
  71   0.0000       0.128255         3.4900

MULLIKEN ATOMIC CHARGES
-----------------------
   0 S :    0.105250
   1 C :   -0.077634
   2 C :   -0.078332
   3 C :    0.023102
   4 C :   -0.155684
   5 H :    0.033867
   6 C :    0.060380
   7 H :    0.017772
   8 H :    0.038661
   9 C :   -0.082297
  10 H :    0.029019
  11 H :    0.024136
  12 C :   -0.068309
  13 H :    0.044644
  14 H :    0.044236
  15 H :    0.023084
  16 S :    0.102207
  17 C :   -0.086868
  18 C :   -0.035787
  19 C :   -0.046586
  20 C :   -0.164309
  21 H :    0.018568
  22 C :    0.074385
  23 H :    0.023559
  24 H :    0.019601
  25 C :   -0.073296
  26 H :    0.033339
  27 H :    0.048653
  28 C :   -0.046647
  29 H :    0.024308
  30 H :    0.021358
  31 H :    0.035934
  32 H :    0.007241
  33 H :    0.062443
Sum of atomic charges:   -0.0000000

LOEWDIN ATOMIC CHARGES
----------------------
   0 S :    0.393982
   1 C :   -0.177290
   2 C :   -0.061702
   3 C :   -0.067671
   4 C :   -0.185437
   5 H :    0.036888
   6 C :   -0.033254
   7 H :    0.029146
   8 H :    0.038579
   9 C :   -0.042807
  10 H :    0.017126
  11 H :    0.025971
  12 C :   -0.070707
  13 H :    0.024605
  14 H :    0.028795
  15 H :    0.025737
  16 S :    0.377710
  17 C :   -0.179670
  18 C :   -0.074838
  19 C :   -0.052871
  20 C :   -0.180986
  21 H :    0.033610
  22 C :   -0.029541
  23 H :    0.026430
  24 H :    0.033679
  25 C :   -0.036192
  26 H :    0.026078
  27 H :    0.029407
  28 C :   -0.065869
  29 H :    0.022813
  30 H :    0.015842
  31 H :    0.029972
  32 H :    0.008053
  33 H :    0.034410

  Mayer bond orders larger than 0.100000
B(  0-S ,  1-C ) :   1.1352 B(  0-S ,  4-C ) :   1.1574 B(  1-C ,  2-C ) :   1.6037
B(  1-C ,  4-C ) :   0.1036 B(  1-C , 32-H ) :   0.9867 B(  2-C ,  3-C ) :   1.2426
B(  2-C ,  6-C ) :   1.0033 B(  3-C ,  4-C ) :   1.5721 B(  3-C ,  5-H ) :   0.9850
B(  4-C , 20-C ) :   0.9987 B(  6-C ,  7-H ) :   0.9479 B(  6-C ,  8-H ) :   0.9407
B(  6-C ,  9-C ) :   1.0848 B(  9-C , 10-H ) :   0.9611 B(  9-C , 11-H ) :   0.9547
B(  9-C , 12-C ) :   1.0597 B( 12-C , 13-H ) :   0.9779 B( 12-C , 14-H ) :   0.9779
B( 12-C , 15-H ) :   0.9748 B( 16-S , 17-C ) :   1.1491 B( 16-S , 20-C ) :   1.1104
B( 17-C , 18-C ) :   1.6525 B( 17-C , 33-H ) :   0.9574 B( 18-C , 19-C ) :   1.2060
B( 18-C , 21-H ) :   0.9924 B( 19-C , 20-C ) :   1.6643 B( 19-C , 22-C ) :   1.0208
B( 22-C , 23-H ) :   0.9411 B( 22-C , 24-H ) :   0.9320 B( 22-C , 25-C ) :   1.0537
B( 25-C , 26-H ) :   0.9554 B( 25-C , 27-H ) :   0.9627 B( 25-C , 28-C ) :   1.0693
B( 28-C , 29-H ) :   0.9758 B( 28-C , 30-H ) :   0.9785 B( 28-C , 31-H ) :   0.9770

Dispersion correction           -0.015025606
FINAL SINGLE POINT ENERGY     -1339.874000274973

DIPOLE MOMENT
-------------
                                X             Y             Z
Electronic contribution:      0.88838       0.62887     -25.56148
Nuclear contribution   :     -1.13414      -0.83550      26.21248
                        -----------------------------------------
Total Dipole Moment    :     -0.24577      -0.20663       0.65100
                        -----------------------------------------
Magnitude (a.u.)       :      0.72587
Magnitude (Debye)      :      1.84503

Rotational constants in cm-1:     0.018265     0.008819     0.007328
Rotational constants in MHz :   547.572860   264.392929   219.699682

                             ****ORCA TERMINATED NORMALLY****
TOTAL RUN TIME: 0 days 0 hours 0 minutes 21 seconds 998 msec
