                         Program Version 4.2.1 -  RELEASE  -
|  1> ! wB97X-D3 SP def2-SVP
|  2> %pal
|  3> nprocs 24
|  4> end
|  5>
|  6> * xyz 0 1
|  7> S 	 -87.0409 	 -34.1582 	 -64.6576
|  8> C 	 -86.029 	 -35.5984 	 -64.9517
|  9> C 	 -86.3873 	 -36.596 	 -64.0277
| 10> C 	 -87.4735 	 -36.2435 	 -63.1678
| 11> C 	 -87.8948 	 -34.9413 	 -63.3164
| 12> H 	 -87.9869 	 -36.7434 	 -62.3347
| 13> C 	 -85.7636 	 -37.9074 	 -63.9427
| 14> H 	 -85.6171 	 -38.3381 	 -62.9469
| 15> H 	 -84.7888 	 -37.6496 	 -64.2694
| 16> C 	 -86.4523 	 -39.0233 	 -64.7592
| 17> H 	 -86.5054 	 -38.7242 	 -65.8271
| 18> H 	 -85.8146 	 -39.9044 	 -64.7609
| 19> C 	 -87.8402 	 -39.4142 	 -64.2667
| 20> H 	 -87.9115 	 -39.7176 	 -63.248
| 21> H 	 -88.4589 	 -38.5532 	 -64.3495
| 22> H 	 -88.1773 	 -40.2408 	 -64.9022
| 23> S 	 -88.4832 	 -32.6358 	 -61.9187
| 24> C 	 -90.0754 	 -32.5458 	 -61.1249
| 25> C 	 -90.8063 	 -33.7388 	 -61.3325
| 26> C 	 -90.068 	 -34.7305 	 -62.0365
| 27> C 	 -88.9219 	 -34.2477 	 -62.6031
| 28> H 	 -91.8238 	 -33.7563 	 -60.8539
| 29> C 	 -90.6267 	 -36.0503 	 -62.2506
| 30> H 	 -90.1724 	 -36.7847 	 -61.5973
| 31> H 	 -90.3718 	 -36.3503 	 -63.2533
| 32> C 	 -92.1742 	 -36.1725 	 -62.1783
| 33> H 	 -92.4155 	 -36.1068 	 -61.1009
| 34> H 	 -92.5444 	 -37.1723 	 -62.4603
| 35> C 	 -93.1226 	 -35.2499 	 -62.9807
| 36> H 	 -93.1173 	 -34.1819 	 -62.7338
| 37> H 	 -94.2037 	 -35.5086 	 -63.0324
| 38> H 	 -92.8558 	 -35.2178 	 -64.0642
| 39> H 	 -85.1925 	 -35.6978 	 -65.6618
| 40> H 	 -90.4832 	 -31.7198 	 -60.5296
| 41> *
| 42>
| 43>                          ****END OF INPUT****

CARTESIAN COORDINATES (ANGSTROEM)
---------------------------------
  S    -87.040900  -34.158200  -64.657600
  C    -86.029000  -35.598400  -64.951700
  C    -86.387300  -36.596000  -64.027700
  C    -87.473500  -36.243500  -63.167800
  C    -87.894800  -34.941300  -63.316400
  H    -87.986900  -36.743400  -62.334700
  C    -85.763600  -37.907400  -63.942700
  H    -85.617100  -38.338100  -62.946900
  H    -84.788800  -37.649600  -64.269400
  C    -86.452300  -39.023300  -64.759200
  H    -86.505400  -38.724200  -65.827100
  H    -85.814600  -39.904400  -64.760900
  C    -87.840200  -39.414200  -64.266700
  H    -87.911500  -39.717600  -63.248000
  H    -88.458900  -38.553200  -64.349500
  H    -88.177300  -40.240800  -64.902200
  S    -88.483200  -32.635800  -61.918700
  C    -90.075400  -32.545800  -61.124900
  C    -90.806300  -33.738800  -61.332500
  C    -90.068000  -34.730500  -62.036500
  C    -88.921900  -34.247700  -62.603100
  H    -91.823800  -33.756300  -60.853900
  C    -90.626700  -36.050300  -62.250600
  H    -90.172400  -36.784700  -61.597300
  H    -90.371800  -36.350300  -63.253300
  C    -92.174200  -36.172500  -62.178300
  H    -92.415500  -36.106800  -61.100900
  H    -92.544400  -37.172300  -62.460300
  C    -93.122600  -35.249900  -62.980700
  H    -93.117300  -34.181900  -62.733800
  H    -94.203700  -35.508600  -63.032400
  H    -92.855800  -35.217800  -64.064200
  H    -85.192500  -35.697800  -65.661800
  H    -90.483200  -31.719800  -60.529600

 Total Charge           Charge          ....    0
 Multiplicity           Mult            ....    1
 Number of Electrons    NEL             ....  134
 Basis Dimension        Dim             ....  322

ORBITAL ENERGIES
----------------

  NO   OCC          E(Eh)            E(eV)
   0   2.0000     -88.967718     -2420.9347
   1   2.0000     -88.966117     -2420.8911
   2   2.0000     -10.328195      -281.0445
   3   2.0000     -10.326618      -281.0016
   4   2.0000     -10.325275      -280.9650
   5   2.0000     -10.322039      -280.8770
   6   2.0000     -10.303037      -280.3599
   7   2.0000     -10.302883      -280.3557
   8   2.0000     -10.301101      -280.3072
   9   2.0000     -10.295957      -280.1672
  10   2.0000     -10.294302      -280.1222
  11   2.0000     -10.292074      -280.0616
  12   2.0000     -10.286593      -279.9124
  13   2.0000     -10.283863      -279.8382
  14   2.0000     -10.282509      -279.8013
  15   2.0000     -10.271899      -279.5126
  16   2.0000      -8.081038      -219.8962
  17   2.0000      -8.079816      -219.8630
  18   2.0000      -6.039685      -164.3482
  19   2.0000      -6.038448      -164.3145
  20   2.0000      -6.035822      -164.2431
  21   2.0000      -6.034387      -164.2040
  22   2.0000      -6.031636      -164.1291
  23   2.0000      -6.030571      -164.1002
  24   2.0000      -1.005256       -27.3544
  25   2.0000      -0.979713       -26.6593
  26   2.0000      -0.916667       -24.9438
  27   2.0000      -0.910998       -24.7895
  28   2.0000      -0.870820       -23.6962
  29   2.0000      -0.850642       -23.1471
  30   2.0000      -0.841533       -22.8993
  31   2.0000      -0.817339       -22.2409
  32   2.0000      -0.789835       -21.4925
  33   2.0000      -0.772717       -21.0267
  34   2.0000      -0.710238       -19.3266
  35   2.0000      -0.702631       -19.1196
  36   2.0000      -0.699561       -19.0360
  37   2.0000      -0.658028       -17.9059
  38   2.0000      -0.642908       -17.4944
  39   2.0000      -0.612694       -16.6722
  40   2.0000      -0.595271       -16.1982
  41   2.0000      -0.576920       -15.6988
  42   2.0000      -0.563324       -15.3288
  43   2.0000      -0.553461       -15.0604
  44   2.0000      -0.544640       -14.8204
  45   2.0000      -0.529930       -14.4201
  46   2.0000      -0.517668       -14.0865
  47   2.0000      -0.513001       -13.9595
  48   2.0000      -0.504329       -13.7235
  49   2.0000      -0.492346       -13.3974
  50   2.0000      -0.490700       -13.3526
  51   2.0000      -0.482746       -13.1362
  52   2.0000      -0.472360       -12.8536
  53   2.0000      -0.467934       -12.7331
  54   2.0000      -0.459495       -12.5035
  55   2.0000      -0.449641       -12.2354
  56   2.0000      -0.440850       -11.9961
  57   2.0000      -0.437455       -11.9038
  58   2.0000      -0.428950       -11.6723
  59   2.0000      -0.424367       -11.5476
  60   2.0000      -0.417607       -11.3637
  61   2.0000      -0.415537       -11.3073
  62   2.0000      -0.408997       -11.1294
  63   2.0000      -0.349239        -9.5033
  64   2.0000      -0.332891        -9.0584
  65   2.0000      -0.328841        -8.9482
  66   2.0000      -0.287739        -7.8298
  67   0.0000       0.020623         0.5612
  68   0.0000       0.066914         1.8208
  69   0.0000       0.107193         2.9169
  70   0.0000       0.119823         3.2605
  71   0.0000       0.122191         3.3250

MULLIKEN ATOMIC CHARGES
-----------------------
   0 S :    0.101480
   1 C :   -0.119373
   2 C :   -0.088481
   3 C :    0.011291
   4 C :   -0.162372
   5 H :    0.015679
   6 C :    0.079628
   7 H :    0.026005
   8 H :    0.004255
   9 C :   -0.077888
  10 H :    0.026171
  11 H :    0.026506
  12 C :   -0.026787
  13 H :    0.017119
  14 H :    0.031099
  15 H :    0.039160
  16 S :    0.097744
  17 C :   -0.099079
  18 C :   -0.067286
  19 C :   -0.044183
  20 C :   -0.117248
  21 H :    0.048884
  22 C :    0.081417
  23 H :    0.046873
  24 H :    0.032903
  25 C :   -0.088077
  26 H :    0.027858
  27 H :    0.032009
  28 C :   -0.079329
  29 H :    0.028904
  30 H :    0.041176
  31 H :    0.030280
  32 H :    0.059613
  33 H :    0.064047
Sum of atomic charges:    0.0000000

LOEWDIN ATOMIC CHARGES
----------------------
   0 S :    0.384114
   1 C :   -0.195623
   2 C :   -0.058894
   3 C :   -0.070569
   4 C :   -0.183914
   5 H :    0.037544
   6 C :   -0.039678
   7 H :    0.032681
   8 H :    0.027067
   9 C :   -0.035352
  10 H :    0.025843
  11 H :    0.020688
  12 C :   -0.060967
  13 H :    0.018390
  14 H :    0.021127
  15 H :    0.032352
  16 S :    0.374781
  17 C :   -0.178136
  18 C :   -0.075826
  19 C :   -0.057228
  20 C :   -0.183741
  21 H :    0.044655
  22 C :   -0.032494
  23 H :    0.037041
  24 H :    0.033673
  25 C :   -0.045145
  26 H :    0.022287
  27 H :    0.031422
  28 C :   -0.082408
  29 H :    0.021334
  30 H :    0.033240
  31 H :    0.030247
  32 H :    0.036752
  33 H :    0.034738

  Mayer bond orders larger than 0.100000
B(  0-S ,  1-C ) :   1.1216 B(  0-S ,  4-C ) :   1.1384 B(  1-C ,  2-C ) :   1.6075
B(  1-C ,  4-C ) :   0.1009 B(  1-C , 32-H ) :   0.9646 B(  2-C ,  3-C ) :   1.2060
B(  2-C ,  6-C ) :   1.0340 B(  3-C ,  4-C ) :   1.5913 B(  3-C ,  5-H ) :   0.9879
B(  4-C , 20-C ) :   1.0549 B(  6-C ,  7-H ) :   0.9436 B(  6-C ,  8-H ) :   0.9272
B(  6-C ,  9-C ) :   1.0715 B(  9-C , 10-H ) :   0.9529 B(  9-C , 11-H ) :   0.9563
B(  9-C , 12-C ) :   1.0843 B( 12-C , 13-H ) :   0.9722 B( 12-C , 14-H ) :   0.9709
B( 12-C , 15-H ) :   0.9705 B( 16-S , 17-C ) :   1.1477 B( 16-S , 20-C ) :   1.1112
B( 17-C , 18-C ) :   1.6217 B( 17-C , 20-C ) :   0.1053 B( 17-C , 33-H ) :   0.9607
B( 18-C , 19-C ) :   1.2189 B( 18-C , 21-H ) :   0.9752 B( 19-C , 20-C ) :   1.6129
B( 19-C , 22-C ) :   1.0465 B( 22-C , 23-H ) :   0.9133 B( 22-C , 24-H ) :   0.9299
B( 22-C , 25-C ) :   1.0770 B( 25-C , 26-H ) :   0.9481 B( 25-C , 27-H ) :   0.9556
B( 25-C , 28-C ) :   1.0681 B( 28-C , 29-H ) :   0.9727 B( 28-C , 30-H ) :   0.9758
B( 28-C , 31-H ) :   0.9713

Dispersion correction           -0.014907909
FINAL SINGLE POINT ENERGY     -1339.868934532710

DIPOLE MOMENT
-------------
                                X             Y             Z
Electronic contribution:     12.62360      24.46884       1.61774
Nuclear contribution   :    -12.92096     -25.11693      -1.40133
                        -----------------------------------------
Total Dipole Moment    :     -0.29736      -0.64808       0.21641
                        -----------------------------------------
Magnitude (a.u.)       :      0.74517
Magnitude (Debye)      :      1.89406

Rotational constants in cm-1:     0.018721     0.009433     0.006937
Rotational constants in MHz :   561.241887   282.782284   207.969676

                             ****ORCA TERMINATED NORMALLY****
TOTAL RUN TIME: 0 days 0 hours 0 minutes 21 seconds 201 msec
