                         Program Version 4.2.1 -  RELEASE  -
|  1> ! wB97X-D3 SP def2-SVP
|  2> %pal
|  3> nprocs 24
|  4> end
|  5>
|  6> * xyz 0 1
|  7> S 	 -119.007 	 47.1804 	 -33.4541
|  8> C 	 -118.721 	 45.5007 	 -33.1543
|  9> C 	 -119.569 	 45.0699 	 -32.171
| 10> C 	 -120.322 	 46.1149 	 -31.4976
| 11> C 	 -120.01 	 47.3425 	 -32.0502
| 12> H 	 -120.965 	 45.9244 	 -30.6859
| 13> C 	 -119.727 	 43.667 	 -31.563
| 14> H 	 -119.519 	 42.9115 	 -32.2888
| 15> H 	 -120.689 	 43.5232 	 -31.2335
| 16> C 	 -118.774 	 43.4704 	 -30.3741
| 17> H 	 -119.014 	 44.304 	 -29.6331
| 18> H 	 -118.988 	 42.5063 	 -29.9529
| 19> C 	 -117.297 	 43.5179 	 -30.9027
| 20> H 	 -116.669 	 42.9553 	 -30.1757
| 21> H 	 -117.13 	 43.0657 	 -31.815
| 22> H 	 -116.888 	 44.5168 	 -31.0242
| 23> S 	 -121.679 	 49.2935 	 -33.0889
| 24> C 	 -121.895 	 50.8192 	 -32.3271
| 25> C 	 -121.372 	 50.7558 	 -31.0555
| 26> C 	 -120.587 	 49.5484 	 -30.8162
| 27> C 	 -120.683 	 48.6321 	 -31.8117
| 28> H 	 -121.417 	 51.5253 	 -30.3219
| 29> C 	 -119.877 	 49.3293 	 -29.5167
| 30> H 	 -119.704 	 50.2437 	 -28.9436
| 31> H 	 -118.839 	 48.9941 	 -29.6918
| 32> C 	 -120.424 	 48.2793 	 -28.5759
| 33> H 	 -119.589 	 48.0655 	 -27.8354
| 34> H 	 -120.622 	 47.3722 	 -29.2172
| 35> C 	 -121.75 	 48.6874 	 -27.854
| 36> H 	 -122.612 	 48.6306 	 -28.5218
| 37> H 	 -121.679 	 49.6564 	 -27.2646
| 38> H 	 -122.013 	 47.9537 	 -27.1511
| 39> H 	 -118.052 	 44.8021 	 -33.667
| 40> H 	 -122.497 	 51.607 	 -32.7987
| 41> *
| 42>
| 43>                          ****END OF INPUT****

CARTESIAN COORDINATES (ANGSTROEM)
---------------------------------
  S    -119.007000   47.180400  -33.454100
  C    -118.721000   45.500700  -33.154300
  C    -119.569000   45.069900  -32.171000
  C    -120.322000   46.114900  -31.497600
  C    -120.010000   47.342500  -32.050200
  H    -120.965000   45.924400  -30.685900
  C    -119.727000   43.667000  -31.563000
  H    -119.519000   42.911500  -32.288800
  H    -120.689000   43.523200  -31.233500
  C    -118.774000   43.470400  -30.374100
  H    -119.014000   44.304000  -29.633100
  H    -118.988000   42.506300  -29.952900
  C    -117.297000   43.517900  -30.902700
  H    -116.669000   42.955300  -30.175700
  H    -117.130000   43.065700  -31.815000
  H    -116.888000   44.516800  -31.024200
  S    -121.679000   49.293500  -33.088900
  C    -121.895000   50.819200  -32.327100
  C    -121.372000   50.755800  -31.055500
  C    -120.587000   49.548400  -30.816200
  C    -120.683000   48.632100  -31.811700
  H    -121.417000   51.525300  -30.321900
  C    -119.877000   49.329300  -29.516700
  H    -119.704000   50.243700  -28.943600
  H    -118.839000   48.994100  -29.691800
  C    -120.424000   48.279300  -28.575900
  H    -119.589000   48.065500  -27.835400
  H    -120.622000   47.372200  -29.217200
  C    -121.750000   48.687400  -27.854000
  H    -122.612000   48.630600  -28.521800
  H    -121.679000   49.656400  -27.264600
  H    -122.013000   47.953700  -27.151100
  H    -118.052000   44.802100  -33.667000
  H    -122.497000   51.607000  -32.798700

 Total Charge           Charge          ....    0
 Multiplicity           Mult            ....    1
 Number of Electrons    NEL             ....  134
 Basis Dimension        Dim             ....  322

ORBITAL ENERGIES
----------------

  NO   OCC          E(Eh)            E(eV)
   0   2.0000     -88.967443     -2420.9272
   1   2.0000     -88.959409     -2420.7086
   2   2.0000     -10.331921      -281.1459
   3   2.0000     -10.321973      -280.8752
   4   2.0000     -10.317760      -280.7605
   5   2.0000     -10.314502      -280.6719
   6   2.0000     -10.300061      -280.2789
   7   2.0000     -10.298757      -280.2434
   8   2.0000     -10.295669      -280.1594
   9   2.0000     -10.293487      -280.1000
  10   2.0000     -10.292824      -280.0820
  11   2.0000     -10.292706      -280.0788
  12   2.0000     -10.285351      -279.8786
  13   2.0000     -10.281702      -279.7793
  14   2.0000     -10.276991      -279.6511
  15   2.0000     -10.273988      -279.5694
  16   2.0000      -8.082677      -219.9408
  17   2.0000      -8.075137      -219.7357
  18   2.0000      -6.041263      -164.3911
  19   2.0000      -6.037052      -164.2765
  20   2.0000      -6.033685      -164.1849
  21   2.0000      -6.033350      -164.1758
  22   2.0000      -6.029373      -164.0676
  23   2.0000      -6.025914      -163.9735
  24   2.0000      -1.011606       -27.5272
  25   2.0000      -0.989224       -26.9182
  26   2.0000      -0.912974       -24.8433
  27   2.0000      -0.908213       -24.7137
  28   2.0000      -0.867957       -23.6183
  29   2.0000      -0.845793       -23.0152
  30   2.0000      -0.841707       -22.9040
  31   2.0000      -0.812835       -22.1184
  32   2.0000      -0.786194       -21.3934
  33   2.0000      -0.780154       -21.2291
  34   2.0000      -0.706434       -19.2231
  35   2.0000      -0.698528       -19.0079
  36   2.0000      -0.684667       -18.6307
  37   2.0000      -0.667061       -18.1517
  38   2.0000      -0.644693       -17.5430
  39   2.0000      -0.622323       -16.9343
  40   2.0000      -0.598571       -16.2879
  41   2.0000      -0.571953       -15.5636
  42   2.0000      -0.551049       -14.9948
  43   2.0000      -0.547627       -14.9017
  44   2.0000      -0.544496       -14.8165
  45   2.0000      -0.542051       -14.7499
  46   2.0000      -0.513677       -13.9779
  47   2.0000      -0.510068       -13.8797
  48   2.0000      -0.507009       -13.7964
  49   2.0000      -0.497254       -13.5310
  50   2.0000      -0.489747       -13.3267
  51   2.0000      -0.484039       -13.1714
  52   2.0000      -0.471807       -12.8385
  53   2.0000      -0.466890       -12.7047
  54   2.0000      -0.460584       -12.5331
  55   2.0000      -0.451365       -12.2823
  56   2.0000      -0.437236       -11.8978
  57   2.0000      -0.434887       -11.8339
  58   2.0000      -0.431162       -11.7325
  59   2.0000      -0.423687       -11.5291
  60   2.0000      -0.417236       -11.3536
  61   2.0000      -0.413296       -11.2464
  62   2.0000      -0.412124       -11.2145
  63   2.0000      -0.342607        -9.3228
  64   2.0000      -0.330330        -8.9887
  65   2.0000      -0.322583        -8.7779
  66   2.0000      -0.306113        -8.3297
  67   0.0000       0.038874         1.0578
  68   0.0000       0.063790         1.7358
  69   0.0000       0.115515         3.1433
  70   0.0000       0.124802         3.3960
  71   0.0000       0.132078         3.5940

MULLIKEN ATOMIC CHARGES
-----------------------
   0 S :    0.127630
   1 C :   -0.115751
   2 C :   -0.113054
   3 C :    0.047078
   4 C :   -0.142440
   5 H :    0.015452
   6 C :    0.100383
   7 H :    0.011808
   8 H :   -0.000013
   9 C :   -0.072858
  10 H :    0.041461
  11 H :    0.030701
  12 C :   -0.048181
  13 H :    0.033702
  14 H :    0.005325
  15 H :    0.046671
  16 S :    0.098841
  17 C :   -0.101310
  18 C :    0.002090
  19 C :   -0.041484
  20 C :   -0.170089
  21 H :    0.004447
  22 C :    0.068082
  23 H :    0.010329
  24 H :    0.029227
  25 C :   -0.098368
  26 H :    0.040116
  27 H :    0.018415
  28 C :   -0.044540
  29 H :    0.036983
  30 H :    0.039729
  31 H :    0.015950
  32 H :    0.049586
  33 H :    0.074083
Sum of atomic charges:   -0.0000000

LOEWDIN ATOMIC CHARGES
----------------------
   0 S :    0.429264
   1 C :   -0.210226
   2 C :   -0.056886
   3 C :   -0.051078
   4 C :   -0.195431
   5 H :    0.023298
   6 C :   -0.024585
   7 H :    0.021926
   8 H :    0.015734
   9 C :   -0.030931
  10 H :    0.031433
  11 H :    0.019625
  12 C :   -0.064983
  13 H :    0.030528
  14 H :    0.009762
  15 H :    0.029209
  16 S :    0.412402
  17 C :   -0.192690
  18 C :   -0.067988
  19 C :   -0.058252
  20 C :   -0.206116
  21 H :    0.023799
  22 C :   -0.042891
  23 H :    0.026397
  24 H :    0.037820
  25 C :   -0.042577
  26 H :    0.031115
  27 H :    0.026368
  28 C :   -0.074621
  29 H :    0.028858
  30 H :    0.031535
  31 H :    0.017960
  32 H :    0.035626
  33 H :    0.036594

  Mayer bond orders larger than 0.100000
B(  0-S ,  1-C ) :   1.1275 B(  0-S ,  4-C ) :   1.1698 B(  1-C ,  2-C ) :   1.6295
B(  1-C , 32-H ) :   0.9662 B(  2-C ,  3-C ) :   1.2329 B(  2-C ,  6-C ) :   1.0318
B(  3-C ,  4-C ) :   1.5609 B(  3-C ,  5-H ) :   0.9906 B(  4-C , 20-C ) :   1.0012
B(  6-C ,  7-H ) :   0.9410 B(  6-C ,  8-H ) :   0.9364 B(  6-C ,  9-C ) :   1.0783
B(  9-C , 10-H ) :   0.9559 B(  9-C , 11-H ) :   0.9599 B(  9-C , 12-C ) :   1.0633
B( 12-C , 13-H ) :   0.9755 B( 12-C , 14-H ) :   0.9774 B( 12-C , 15-H ) :   0.9736
B( 16-S , 17-C ) :   1.1685 B( 16-S , 20-C ) :   1.1390 B( 17-C , 18-C ) :   1.5755
B( 17-C , 33-H ) :   0.9686 B( 18-C , 19-C ) :   1.2469 B( 18-C , 21-H ) :   0.9955
B( 19-C , 20-C ) :   1.6210 B( 19-C , 22-C ) :   1.0624 B( 22-C , 23-H ) :   0.9329
B( 22-C , 24-H ) :   0.9198 B( 22-C , 25-C ) :   1.0807 B( 25-C , 26-H ) :   0.9527
B( 25-C , 27-H ) :   0.9491 B( 25-C , 28-C ) :   1.0737 B( 28-C , 29-H ) :   0.9733
B( 28-C , 30-H ) :   0.9744 B( 28-C , 31-H ) :   0.9720

Dispersion correction           -0.015343503
FINAL SINGLE POINT ENERGY     -1339.876901664022

DIPOLE MOMENT
-------------
                                X             Y             Z
Electronic contribution:     -5.00439      13.74644     -22.89154
Nuclear contribution   :      5.02209     -14.08731      23.38695
                        -----------------------------------------
Total Dipole Moment    :      0.01770      -0.34087       0.49541
                        -----------------------------------------
Magnitude (a.u.)       :      0.60161
Magnitude (Debye)      :      1.52918

Rotational constants in cm-1:     0.020656     0.009338     0.007161
Rotational constants in MHz :   619.254620   279.940458   214.672840

                             ****ORCA TERMINATED NORMALLY****
TOTAL RUN TIME: 0 days 0 hours 0 minutes 21 seconds 278 msec
