                         Program Version 4.2.1 -  RELEASE  -
|  1> ! wB97X-D3 SP def2-SVP
|  2> %pal
|  3> nprocs 24
|  4> end
|  5>
|  6> * xyz 0 1
|  7> S 	 -56.9845 	 14.5821 	 -88.7779
|  8> C 	 -55.6555 	 15.7048 	 -88.9943
|  9> C 	 -54.9418 	 15.441 	 -90.1556
| 10> C 	 -55.583 	 14.5197 	 -91.0027
| 11> C 	 -56.7622 	 13.9491 	 -90.402
| 12> H 	 -55.3356 	 14.2363 	 -92.0393
| 13> C 	 -53.714 	 16.1522 	 -90.5747
| 14> H 	 -52.986 	 15.3452 	 -90.8463
| 15> H 	 -53.289 	 16.5781 	 -89.6329
| 16> C 	 -53.9195 	 17.213 	 -91.6965
| 17> H 	 -54.5506 	 17.8688 	 -91.2547
| 18> H 	 -53.0995 	 17.9703 	 -91.8339
| 19> C 	 -54.3152 	 16.7101 	 -93.1123
| 20> H 	 -55.3048 	 16.2553 	 -93.1776
| 21> H 	 -54.3732 	 17.5733 	 -93.6694
| 22> H 	 -53.5268 	 15.9207 	 -93.272
| 23> S 	 -59.2513 	 13.5981 	 -91.5664
| 24> C 	 -59.6828 	 12.222 	 -92.5106
| 25> C 	 -58.5691 	 11.4591 	 -92.7074
| 26> C 	 -57.424 	 11.8386 	 -91.9103
| 27> C 	 -57.6597 	 12.976 	 -91.074
| 28> H 	 -58.6634 	 10.5496 	 -93.2305
| 29> C 	 -56.1196 	 11.0871 	 -92.0247
| 30> H 	 -56.385 	 10.0354 	 -91.7824
| 31> H 	 -55.4662 	 11.3722 	 -91.1956
| 32> C 	 -55.4777 	 10.9752 	 -93.391
| 33> H 	 -55.6407 	 11.8907 	 -93.9972
| 34> H 	 -55.8304 	 10.2109 	 -94.1321
| 35> C 	 -53.991 	 10.6574 	 -93.1791
| 36> H 	 -53.8381 	 9.68645 	 -92.7741
| 37> H 	 -53.5686 	 11.4684 	 -92.5499
| 38> H 	 -53.4725 	 10.5678 	 -94.0893
| 39> H 	 -55.2685 	 16.4264 	 -88.2712
| 40> H 	 -60.6361 	 12.0225 	 -93.0218
| 41> *
| 42>
| 43>                          ****END OF INPUT****

CARTESIAN COORDINATES (ANGSTROEM)
---------------------------------
  S    -56.984500   14.582100  -88.777900
  C    -55.655500   15.704800  -88.994300
  C    -54.941800   15.441000  -90.155600
  C    -55.583000   14.519700  -91.002700
  C    -56.762200   13.949100  -90.402000
  H    -55.335600   14.236300  -92.039300
  C    -53.714000   16.152200  -90.574700
  H    -52.986000   15.345200  -90.846300
  H    -53.289000   16.578100  -89.632900
  C    -53.919500   17.213000  -91.696500
  H    -54.550600   17.868800  -91.254700
  H    -53.099500   17.970300  -91.833900
  C    -54.315200   16.710100  -93.112300
  H    -55.304800   16.255300  -93.177600
  H    -54.373200   17.573300  -93.669400
  H    -53.526800   15.920700  -93.272000
  S    -59.251300   13.598100  -91.566400
  C    -59.682800   12.222000  -92.510600
  C    -58.569100   11.459100  -92.707400
  C    -57.424000   11.838600  -91.910300
  C    -57.659700   12.976000  -91.074000
  H    -58.663400   10.549600  -93.230500
  C    -56.119600   11.087100  -92.024700
  H    -56.385000   10.035400  -91.782400
  H    -55.466200   11.372200  -91.195600
  C    -55.477700   10.975200  -93.391000
  H    -55.640700   11.890700  -93.997200
  H    -55.830400   10.210900  -94.132100
  C    -53.991000   10.657400  -93.179100
  H    -53.838100    9.686450  -92.774100
  H    -53.568600   11.468400  -92.549900
  H    -53.472500   10.567800  -94.089300
  H    -55.268500   16.426400  -88.271200
  H    -60.636100   12.022500  -93.021800

 Total Charge           Charge          ....    0
 Multiplicity           Mult            ....    1
 Number of Electrons    NEL             ....  134
 Basis Dimension        Dim             ....  322

ORBITAL ENERGIES
----------------

  NO   OCC          E(Eh)            E(eV)
   0   2.0000     -88.972639     -2421.0686
   1   2.0000     -88.959269     -2420.7048
   2   2.0000     -10.337423      -281.2956
   3   2.0000     -10.332706      -281.1672
   4   2.0000     -10.317807      -280.7618
   5   2.0000     -10.316343      -280.7220
   6   2.0000     -10.310492      -280.5627
   7   2.0000     -10.299850      -280.2732
   8   2.0000     -10.297777      -280.2167
   9   2.0000     -10.296941      -280.1940
  10   2.0000     -10.291581      -280.0481
  11   2.0000     -10.291204      -280.0379
  12   2.0000     -10.288406      -279.9618
  13   2.0000     -10.284130      -279.8454
  14   2.0000     -10.279759      -279.7265
  15   2.0000     -10.273531      -279.5570
  16   2.0000      -8.086532      -220.0457
  17   2.0000      -8.074205      -219.7103
  18   2.0000      -6.044947      -164.4914
  19   2.0000      -6.041088      -164.3864
  20   2.0000      -6.037513      -164.2891
  21   2.0000      -6.032734      -164.1590
  22   2.0000      -6.028569      -164.0457
  23   2.0000      -6.024999      -163.9486
  24   2.0000      -1.000674       -27.2297
  25   2.0000      -0.983236       -26.7552
  26   2.0000      -0.912541       -24.8315
  27   2.0000      -0.911553       -24.8046
  28   2.0000      -0.866920       -23.5901
  29   2.0000      -0.850539       -23.1444
  30   2.0000      -0.846126       -23.0243
  31   2.0000      -0.813670       -22.1411
  32   2.0000      -0.782928       -21.3046
  33   2.0000      -0.769180       -20.9304
  34   2.0000      -0.709597       -19.3091
  35   2.0000      -0.705566       -19.1994
  36   2.0000      -0.696969       -18.9655
  37   2.0000      -0.654007       -17.7964
  38   2.0000      -0.635932       -17.3046
  39   2.0000      -0.615202       -16.7405
  40   2.0000      -0.595603       -16.2072
  41   2.0000      -0.573563       -15.6074
  42   2.0000      -0.564922       -15.3723
  43   2.0000      -0.555899       -15.1268
  44   2.0000      -0.543376       -14.7860
  45   2.0000      -0.529377       -14.4051
  46   2.0000      -0.516332       -14.0501
  47   2.0000      -0.511290       -13.9129
  48   2.0000      -0.507658       -13.8141
  49   2.0000      -0.494450       -13.4547
  50   2.0000      -0.487000       -13.2519
  51   2.0000      -0.474778       -12.9194
  52   2.0000      -0.471882       -12.8406
  53   2.0000      -0.467851       -12.7309
  54   2.0000      -0.455768       -12.4021
  55   2.0000      -0.450988       -12.2720
  56   2.0000      -0.444851       -12.1050
  57   2.0000      -0.442378       -12.0377
  58   2.0000      -0.436610       -11.8808
  59   2.0000      -0.425825       -11.5873
  60   2.0000      -0.411568       -11.1993
  61   2.0000      -0.409197       -11.1348
  62   2.0000      -0.406487       -11.0611
  63   2.0000      -0.340370        -9.2619
  64   2.0000      -0.332647        -9.0518
  65   2.0000      -0.319104        -8.6833
  66   2.0000      -0.297057        -8.0833
  67   0.0000       0.025459         0.6928
  68   0.0000       0.064811         1.7636
  69   0.0000       0.108080         2.9410
  70   0.0000       0.113736         3.0949
  71   0.0000       0.130965         3.5637

MULLIKEN ATOMIC CHARGES
-----------------------
   0 S :    0.133189
   1 C :   -0.118951
   2 C :   -0.096712
   3 C :    0.024732
   4 C :   -0.184757
   5 H :    0.026175
   6 C :    0.042801
   7 H :    0.036047
   8 H :    0.018664
   9 C :   -0.045504
  10 H :   -0.009655
  11 H :    0.025540
  12 C :   -0.027692
  13 H :    0.045249
  14 H :    0.027003
  15 H :    0.045071
  16 S :    0.087414
  17 C :   -0.086890
  18 C :   -0.019232
  19 C :   -0.064572
  20 C :   -0.122612
  21 H :    0.005605
  22 C :    0.055445
  23 H :    0.031567
  24 H :    0.034002
  25 C :   -0.097155
  26 H :    0.031963
  27 H :    0.033500
  28 C :   -0.027483
  29 H :    0.023224
  30 H :    0.038816
  31 H :    0.015284
  32 H :    0.049984
  33 H :    0.069937
Sum of atomic charges:   -0.0000000

LOEWDIN ATOMIC CHARGES
----------------------
   0 S :    0.418005
   1 C :   -0.202575
   2 C :   -0.071461
   3 C :   -0.055693
   4 C :   -0.205178
   5 H :    0.036068
   6 C :   -0.037165
   7 H :    0.033044
   8 H :    0.033577
   9 C :   -0.040997
  10 H :    0.008011
  11 H :    0.031972
  12 C :   -0.058167
  13 H :    0.026742
  14 H :    0.019952
  15 H :    0.036088
  16 S :    0.405017
  17 C :   -0.187681
  18 C :   -0.078905
  19 C :   -0.047272
  20 C :   -0.205788
  21 H :    0.023647
  22 C :   -0.042982
  23 H :    0.041101
  24 H :    0.033973
  25 C :   -0.048672
  26 H :    0.021965
  27 H :    0.029349
  28 C :   -0.057800
  29 H :    0.022358
  30 H :    0.028767
  31 H :    0.018214
  32 H :    0.032023
  33 H :    0.040463

  Mayer bond orders larger than 0.100000
B(  0-S ,  1-C ) :   1.1482 B(  0-S ,  4-C ) :   1.1703 B(  1-C ,  2-C ) :   1.5850
B(  1-C ,  4-C ) :   0.1040 B(  1-C , 32-H ) :   0.9623 B(  2-C ,  3-C ) :   1.2660
B(  2-C ,  6-C ) :   1.0311 B(  3-C ,  4-C ) :   1.5251 B(  3-C ,  5-H ) :   0.9871
B(  4-C , 20-C ) :   1.0249 B(  6-C ,  7-H ) :   0.9407 B(  6-C ,  8-H ) :   0.9355
B(  6-C ,  9-C ) :   1.0550 B(  9-C , 10-H ) :   0.9446 B(  9-C , 11-H ) :   0.9558
B(  9-C , 12-C ) :   1.0694 B( 12-C , 13-H ) :   0.9699 B( 12-C , 14-H ) :   0.9695
B( 12-C , 15-H ) :   0.9770 B( 16-S , 17-C ) :   1.1728 B( 16-S , 20-C ) :   1.1311
B( 17-C , 18-C ) :   1.5912 B( 17-C , 33-H ) :   0.9639 B( 18-C , 19-C ) :   1.2528
B( 18-C , 21-H ) :   0.9947 B( 19-C , 20-C ) :   1.5619 B( 19-C , 22-C ) :   1.0579
B( 22-C , 23-H ) :   0.9211 B( 22-C , 24-H ) :   0.9504 B( 22-C , 25-C ) :   1.0375
B( 25-C , 26-H ) :   0.9625 B( 25-C , 27-H ) :   0.9480 B( 25-C , 28-C ) :   1.0886
B( 28-C , 29-H ) :   0.9721 B( 28-C , 30-H ) :   0.9783 B( 28-C , 31-H ) :   0.9708

Dispersion correction           -0.014672897
FINAL SINGLE POINT ENERGY     -1339.847422962818

DIPOLE MOMENT
-------------
                                X             Y             Z
Electronic contribution:    -23.19714       1.41150      15.88993
Nuclear contribution   :     23.69259      -1.52250     -16.38421
                        -----------------------------------------
Total Dipole Moment    :      0.49544      -0.11100      -0.49428
                        -----------------------------------------
Magnitude (a.u.)       :      0.70859
Magnitude (Debye)      :      1.80109

Rotational constants in cm-1:     0.015800     0.009821     0.007604
Rotational constants in MHz :   473.681061   294.417450   227.954586

                             ****ORCA TERMINATED NORMALLY****
TOTAL RUN TIME: 0 days 0 hours 0 minutes 21 seconds 971 msec
