                         Program Version 4.2.1 -  RELEASE  -
|  1> ! wB97X-D3 SP def2-SVP
|  2> %pal
|  3> nprocs 24
|  4> end
|  5>
|  6> * xyz 0 1
|  7> S 	 -127.085 	 67.9139 	 -54.6168
|  8> C 	 -126.548 	 69.2212 	 -55.6126
|  9> C 	 -126.548 	 70.4105 	 -54.9443
| 10> C 	 -126.687 	 70.2184 	 -53.5232
| 11> C 	 -127.061 	 68.9476 	 -53.2011
| 12> H 	 -126.622 	 70.8878 	 -52.7112
| 13> C 	 -126.37 	 71.8763 	 -55.4543
| 14> H 	 -125.555 	 72.0807 	 -56.1354
| 15> H 	 -126.067 	 72.4145 	 -54.5777
| 16> C 	 -127.662 	 72.6421 	 -55.9761
| 17> H 	 -128.317 	 72.8218 	 -55.1291
| 18> H 	 -127.407 	 73.648 	 -56.218
| 19> C 	 -128.321 	 71.9945 	 -57.1963
| 20> H 	 -128.637 	 70.9967 	 -56.932
| 21> H 	 -129.302 	 72.3685 	 -57.5795
| 22> H 	 -127.634 	 72.0101 	 -58.0436
| 23> S 	 -129.245 	 67.8842 	 -51.9153
| 24> C 	 -129.182 	 67.7363 	 -50.2323
| 25> C 	 -128.013 	 68.1949 	 -49.673
| 26> C 	 -127.092 	 68.6954 	 -50.6382
| 27> C 	 -127.574 	 68.5122 	 -51.9028
| 28> H 	 -127.898 	 68.1282 	 -48.6052
| 29> C 	 -125.715 	 69.2559 	 -50.2998
| 30> H 	 -125.493 	 70.228 	 -50.8868
| 31> H 	 -124.965 	 68.5017 	 -50.5937
| 32> C 	 -125.46 	 69.496 	 -48.7866
| 33> H 	 -125.511 	 68.535 	 -48.2863
| 34> H 	 -126.139 	 70.244 	 -48.3664
| 35> C 	 -124.006 	 69.9914 	 -48.6536
| 36> H 	 -123.937 	 70.8218 	 -49.3175
| 37> H 	 -123.361 	 69.1503 	 -48.9354
| 38> H 	 -123.774 	 70.2252 	 -47.5854
| 39> H 	 -126.483 	 69.1855 	 -56.6906
| 40> H 	 -130.015 	 67.4762 	 -49.6769
| 41> *
| 42>
| 43>                          ****END OF INPUT****

CARTESIAN COORDINATES (ANGSTROEM)
---------------------------------
  S    -127.085000   67.913900  -54.616800
  C    -126.548000   69.221200  -55.612600
  C    -126.548000   70.410500  -54.944300
  C    -126.687000   70.218400  -53.523200
  C    -127.061000   68.947600  -53.201100
  H    -126.622000   70.887800  -52.711200
  C    -126.370000   71.876300  -55.454300
  H    -125.555000   72.080700  -56.135400
  H    -126.067000   72.414500  -54.577700
  C    -127.662000   72.642100  -55.976100
  H    -128.317000   72.821800  -55.129100
  H    -127.407000   73.648000  -56.218000
  C    -128.321000   71.994500  -57.196300
  H    -128.637000   70.996700  -56.932000
  H    -129.302000   72.368500  -57.579500
  H    -127.634000   72.010100  -58.043600
  S    -129.245000   67.884200  -51.915300
  C    -129.182000   67.736300  -50.232300
  C    -128.013000   68.194900  -49.673000
  C    -127.092000   68.695400  -50.638200
  C    -127.574000   68.512200  -51.902800
  H    -127.898000   68.128200  -48.605200
  C    -125.715000   69.255900  -50.299800
  H    -125.493000   70.228000  -50.886800
  H    -124.965000   68.501700  -50.593700
  C    -125.460000   69.496000  -48.786600
  H    -125.511000   68.535000  -48.286300
  H    -126.139000   70.244000  -48.366400
  C    -124.006000   69.991400  -48.653600
  H    -123.937000   70.821800  -49.317500
  H    -123.361000   69.150300  -48.935400
  H    -123.774000   70.225200  -47.585400
  H    -126.483000   69.185500  -56.690600
  H    -130.015000   67.476200  -49.676900

 Total Charge           Charge          ....    0
 Multiplicity           Mult            ....    1
 Number of Electrons    NEL             ....  134
 Basis Dimension        Dim             ....  322

ORBITAL ENERGIES
----------------

  NO   OCC          E(Eh)            E(eV)
   0   2.0000     -88.964934     -2420.8589
   1   2.0000     -88.964060     -2420.8351
   2   2.0000     -10.323670      -280.9214
   3   2.0000     -10.322634      -280.8932
   4   2.0000     -10.309952      -280.5481
   5   2.0000     -10.305813      -280.4354
   6   2.0000     -10.304224      -280.3922
   7   2.0000     -10.302674      -280.3500
   8   2.0000     -10.302008      -280.3319
   9   2.0000     -10.295563      -280.1565
  10   2.0000     -10.289890      -280.0021
  11   2.0000     -10.288324      -279.9595
  12   2.0000     -10.287639      -279.9409
  13   2.0000     -10.286787      -279.9177
  14   2.0000     -10.280344      -279.7424
  15   2.0000     -10.276684      -279.6428
  16   2.0000      -8.080063      -219.8697
  17   2.0000      -8.079675      -219.8591
  18   2.0000      -6.038606      -164.3188
  19   2.0000      -6.037984      -164.3019
  20   2.0000      -6.034580      -164.2093
  21   2.0000      -6.034165      -164.1980
  22   2.0000      -6.030707      -164.1039
  23   2.0000      -6.030496      -164.0981
  24   2.0000      -1.010315       -27.4921
  25   2.0000      -0.988497       -26.8984
  26   2.0000      -0.912244       -24.8234
  27   2.0000      -0.901062       -24.5191
  28   2.0000      -0.871202       -23.7066
  29   2.0000      -0.854694       -23.2574
  30   2.0000      -0.846460       -23.0333
  31   2.0000      -0.810880       -22.0652
  32   2.0000      -0.782767       -21.3002
  33   2.0000      -0.773103       -21.0372
  34   2.0000      -0.704689       -19.1756
  35   2.0000      -0.699510       -19.0346
  36   2.0000      -0.697711       -18.9857
  37   2.0000      -0.656040       -17.8518
  38   2.0000      -0.644373       -17.5343
  39   2.0000      -0.616146       -16.7662
  40   2.0000      -0.601023       -16.3547
  41   2.0000      -0.581419       -15.8212
  42   2.0000      -0.565115       -15.3776
  43   2.0000      -0.547327       -14.8935
  44   2.0000      -0.538844       -14.6627
  45   2.0000      -0.527031       -14.3413
  46   2.0000      -0.516032       -14.0420
  47   2.0000      -0.511043       -13.9062
  48   2.0000      -0.498453       -13.5636
  49   2.0000      -0.494504       -13.4561
  50   2.0000      -0.484524       -13.1846
  51   2.0000      -0.482953       -13.1418
  52   2.0000      -0.469129       -12.7657
  53   2.0000      -0.463162       -12.6033
  54   2.0000      -0.458609       -12.4794
  55   2.0000      -0.452507       -12.3134
  56   2.0000      -0.445542       -12.1238
  57   2.0000      -0.437905       -11.9160
  58   2.0000      -0.429605       -11.6902
  59   2.0000      -0.426629       -11.6092
  60   2.0000      -0.424691       -11.5564
  61   2.0000      -0.417631       -11.3643
  62   2.0000      -0.416052       -11.3213
  63   2.0000      -0.348975        -9.4961
  64   2.0000      -0.334682        -9.1072
  65   2.0000      -0.328700        -8.9444
  66   2.0000      -0.291161        -7.9229
  67   0.0000       0.036466         0.9923
  68   0.0000       0.068297         1.8585
  69   0.0000       0.118089         3.2134
  70   0.0000       0.122070         3.3217
  71   0.0000       0.131446         3.5768

MULLIKEN ATOMIC CHARGES
-----------------------
   0 S :    0.109320
   1 C :   -0.104763
   2 C :   -0.079597
   3 C :    0.041186
   4 C :   -0.167492
   5 H :   -0.005013
   6 C :    0.060251
   7 H :    0.030649
   8 H :    0.010449
   9 C :   -0.045870
  10 H :    0.022595
  11 H :    0.017512
  12 C :   -0.059892
  13 H :    0.031124
  14 H :    0.033100
  15 H :    0.030928
  16 S :    0.112402
  17 C :   -0.050591
  18 C :   -0.054673
  19 C :   -0.001677
  20 C :   -0.157336
  21 H :    0.014508
  22 C :    0.003417
  23 H :    0.042135
  24 H :    0.047211
  25 C :   -0.110142
  26 H :    0.036637
  27 H :    0.042085
  28 C :   -0.023335
  29 H :    0.025708
  30 H :    0.032695
  31 H :    0.041293
  32 H :    0.047704
  33 H :    0.027474
Sum of atomic charges:    0.0000000

LOEWDIN ATOMIC CHARGES
----------------------
   0 S :    0.406954
   1 C :   -0.201215
   2 C :   -0.059562
   3 C :   -0.057321
   4 C :   -0.192323
   5 H :    0.022782
   6 C :   -0.026239
   7 H :    0.027133
   8 H :    0.028404
   9 C :   -0.036433
  10 H :    0.022796
  11 H :    0.019531
  12 C :   -0.074347
  13 H :    0.023573
  14 H :    0.031337
  15 H :    0.024206
  16 S :    0.416475
  17 C :   -0.188711
  18 C :   -0.072971
  19 C :   -0.060307
  20 C :   -0.187722
  21 H :    0.029822
  22 C :   -0.036168
  23 H :    0.036981
  24 H :    0.040174
  25 C :   -0.042443
  26 H :    0.023242
  27 H :    0.023555
  28 C :   -0.059019
  29 H :    0.018841
  30 H :    0.026634
  31 H :    0.030005
  32 H :    0.028485
  33 H :    0.013850

  Mayer bond orders larger than 0.100000
B(  0-S ,  1-C ) :   1.1289 B(  0-S ,  4-C ) :   1.1438 B(  1-C ,  2-C ) :   1.6482
B(  1-C , 32-H ) :   0.9658 B(  2-C ,  3-C ) :   1.2148 B(  2-C ,  6-C ) :   1.0067
B(  3-C ,  4-C ) :   1.6139 B(  3-C ,  5-H ) :   0.9904 B(  4-C , 20-C ) :   1.0253
B(  6-C ,  7-H ) :   0.9514 B(  6-C ,  8-H ) :   0.9385 B(  6-C ,  9-C ) :   1.0720
B(  9-C , 10-H ) :   0.9574 B(  9-C , 11-H ) :   0.9549 B(  9-C , 12-C ) :   1.0712
B( 12-C , 13-H ) :   0.9744 B( 12-C , 14-H ) :   0.9730 B( 12-C , 15-H ) :   0.9765
B( 16-S , 17-C ) :   1.1684 B( 16-S , 20-C ) :   1.1438 B( 17-C , 18-C ) :   1.6052
B( 17-C , 33-H ) :   0.9690 B( 18-C , 19-C ) :   1.2335 B( 18-C , 21-H ) :   0.9934
B( 19-C , 20-C ) :   1.6285 B( 19-C , 22-C ) :   1.0215 B( 22-C , 23-H ) :   0.9343
B( 22-C , 24-H ) :   0.9326 B( 22-C , 25-C ) :   1.0867 B( 25-C , 26-H ) :   0.9446
B( 25-C , 27-H ) :   0.9570 B( 25-C , 28-C ) :   1.0826 B( 28-C , 29-H ) :   0.9750
B( 28-C , 30-H ) :   0.9749 B( 28-C , 31-H ) :   0.9723

Dispersion correction           -0.013784849
FINAL SINGLE POINT ENERGY     -1339.876597016066

DIPOLE MOMENT
-------------
                                X             Y             Z
Electronic contribution:    -11.25016     -19.38016      -2.80129
Nuclear contribution   :     11.39823      19.90513       3.12256
                        -----------------------------------------
Total Dipole Moment    :      0.14807       0.52497       0.32128
                        -----------------------------------------
Magnitude (a.u.)       :      0.63304
Magnitude (Debye)      :      1.60906

Rotational constants in cm-1:     0.019013     0.007915     0.006554
Rotational constants in MHz :   569.995148   237.280264   196.498534

                             ****ORCA TERMINATED NORMALLY****
TOTAL RUN TIME: 0 days 0 hours 0 minutes 21 seconds 204 msec
