                         Program Version 4.2.1 -  RELEASE  -
|  1> ! wB97X-D3 SP def2-SVP
|  2> %pal
|  3> nprocs 24
|  4> end
|  5>
|  6> * xyz 0 1
|  7> S 	 49.15 	 -12.0564 	 -109.418
|  8> C 	 48.3621 	 -11.4109 	 -110.815
|  9> C 	 47.0275 	 -11.1695 	 -110.609
| 10> C 	 46.6157 	 -11.5748 	 -109.29
| 11> C 	 47.6941 	 -12.0321 	 -108.456
| 12> H 	 45.6714 	 -11.3385 	 -108.81
| 13> C 	 46.1115 	 -10.6267 	 -111.713
| 14> H 	 46.7496 	 -10.3715 	 -112.524
| 15> H 	 45.6029 	 -9.77154 	 -111.311
| 16> C 	 45.1082 	 -11.6189 	 -112.154
| 17> H 	 45.6195 	 -12.5375 	 -112.287
| 18> H 	 44.4009 	 -11.8098 	 -111.296
| 19> C 	 44.2732 	 -11.245 	 -113.388
| 20> H 	 44.9395 	 -11.2183 	 -114.235
| 21> H 	 43.4577 	 -11.967 	 -113.64
| 22> H 	 43.8645 	 -10.2004 	 -113.319
| 23> S 	 46.6469 	 -14.0659 	 -106.949
| 24> C 	 46.9874 	 -14.0839 	 -105.25
| 25> C 	 47.6395 	 -12.9217 	 -104.764
| 26> C 	 48.0911 	 -12.1041 	 -105.88
| 27> C 	 47.5969 	 -12.6098 	 -107.082
| 28> H 	 47.9133 	 -12.7832 	 -103.741
| 29> C 	 48.7528 	 -10.7537 	 -105.797
| 30> H 	 48.0222 	 -10.0064 	 -105.446
| 31> H 	 49.0403 	 -10.4912 	 -106.829
| 32> C 	 50.0528 	 -10.5933 	 -104.975
| 33> H 	 49.848 	 -10.8194 	 -103.871
| 34> H 	 50.3668 	 -9.54687 	 -105.16
| 35> C 	 51.1656 	 -11.5655 	 -105.481
| 36> H 	 51.4397 	 -11.5339 	 -106.534
| 37> H 	 50.9165 	 -12.6597 	 -105.448
| 38> H 	 51.9537 	 -11.4229 	 -104.824
| 39> H 	 48.8597 	 -11.2689 	 -111.776
| 40> H 	 46.4997 	 -14.7938 	 -104.613
| 41> *
| 42>
| 43>                          ****END OF INPUT****

CARTESIAN COORDINATES (ANGSTROEM)
---------------------------------
  S     49.150000  -12.056400  -109.418000
  C     48.362100  -11.410900  -110.815000
  C     47.027500  -11.169500  -110.609000
  C     46.615700  -11.574800  -109.290000
  C     47.694100  -12.032100  -108.456000
  H     45.671400  -11.338500  -108.810000
  C     46.111500  -10.626700  -111.713000
  H     46.749600  -10.371500  -112.524000
  H     45.602900   -9.771540  -111.311000
  C     45.108200  -11.618900  -112.154000
  H     45.619500  -12.537500  -112.287000
  H     44.400900  -11.809800  -111.296000
  C     44.273200  -11.245000  -113.388000
  H     44.939500  -11.218300  -114.235000
  H     43.457700  -11.967000  -113.640000
  H     43.864500  -10.200400  -113.319000
  S     46.646900  -14.065900  -106.949000
  C     46.987400  -14.083900  -105.250000
  C     47.639500  -12.921700  -104.764000
  C     48.091100  -12.104100  -105.880000
  C     47.596900  -12.609800  -107.082000
  H     47.913300  -12.783200  -103.741000
  C     48.752800  -10.753700  -105.797000
  H     48.022200  -10.006400  -105.446000
  H     49.040300  -10.491200  -106.829000
  C     50.052800  -10.593300  -104.975000
  H     49.848000  -10.819400  -103.871000
  H     50.366800   -9.546870  -105.160000
  C     51.165600  -11.565500  -105.481000
  H     51.439700  -11.533900  -106.534000
  H     50.916500  -12.659700  -105.448000
  H     51.953700  -11.422900  -104.824000
  H     48.859700  -11.268900  -111.776000
  H     46.499700  -14.793800  -104.613000

 Total Charge           Charge          ....    0
 Multiplicity           Mult            ....    1
 Number of Electrons    NEL             ....  134
 Basis Dimension        Dim             ....  322

ORBITAL ENERGIES
----------------

  NO   OCC          E(Eh)            E(eV)
   0   2.0000     -88.970264     -2421.0040
   1   2.0000     -88.966932     -2420.9133
   2   2.0000     -10.334594      -281.2186
   3   2.0000     -10.326750      -281.0052
   4   2.0000     -10.319408      -280.8054
   5   2.0000     -10.311697      -280.5955
   6   2.0000     -10.306453      -280.4528
   7   2.0000     -10.301027      -280.3052
   8   2.0000     -10.300658      -280.2952
   9   2.0000     -10.299175      -280.2548
  10   2.0000     -10.296719      -280.1880
  11   2.0000     -10.289623      -279.9949
  12   2.0000     -10.286174      -279.9010
  13   2.0000     -10.283537      -279.8293
  14   2.0000     -10.280978      -279.7596
  15   2.0000     -10.270855      -279.4842
  16   2.0000      -8.085195      -220.0093
  17   2.0000      -8.081647      -219.9128
  18   2.0000      -6.043484      -164.4516
  19   2.0000      -6.040018      -164.3572
  20   2.0000      -6.039772      -164.3506
  21   2.0000      -6.036071      -164.2498
  22   2.0000      -6.036005      -164.2481
  23   2.0000      -6.032707      -164.1583
  24   2.0000      -1.002622       -27.2827
  25   2.0000      -0.982815       -26.7438
  26   2.0000      -0.917954       -24.9788
  27   2.0000      -0.904677       -24.6175
  28   2.0000      -0.863163       -23.4879
  29   2.0000      -0.847629       -23.0651
  30   2.0000      -0.843042       -22.9403
  31   2.0000      -0.809034       -22.0149
  32   2.0000      -0.784015       -21.3341
  33   2.0000      -0.772178       -21.0120
  34   2.0000      -0.703722       -19.1492
  35   2.0000      -0.696257       -18.9461
  36   2.0000      -0.685902       -18.6643
  37   2.0000      -0.659750       -17.9527
  38   2.0000      -0.640714       -17.4347
  39   2.0000      -0.612230       -16.6596
  40   2.0000      -0.593736       -16.1564
  41   2.0000      -0.577253       -15.7078
  42   2.0000      -0.559137       -15.2149
  43   2.0000      -0.552182       -15.0256
  44   2.0000      -0.538904       -14.6643
  45   2.0000      -0.520171       -14.1546
  46   2.0000      -0.518356       -14.1052
  47   2.0000      -0.509930       -13.8759
  48   2.0000      -0.501777       -13.6540
  49   2.0000      -0.494026       -13.4431
  50   2.0000      -0.493609       -13.4318
  51   2.0000      -0.475968       -12.9517
  52   2.0000      -0.470380       -12.7997
  53   2.0000      -0.462122       -12.5750
  54   2.0000      -0.457604       -12.4520
  55   2.0000      -0.450245       -12.2518
  56   2.0000      -0.446391       -12.1469
  57   2.0000      -0.435309       -11.8454
  58   2.0000      -0.427141       -11.6231
  59   2.0000      -0.422852       -11.5064
  60   2.0000      -0.419794       -11.4232
  61   2.0000      -0.416227       -11.3261
  62   2.0000      -0.415404       -11.3037
  63   2.0000      -0.335005        -9.1159
  64   2.0000      -0.332103        -9.0370
  65   2.0000      -0.328961        -8.9515
  66   2.0000      -0.298935        -8.1344
  67   0.0000       0.038057         1.0356
  68   0.0000       0.059499         1.6190
  69   0.0000       0.105990         2.8841
  70   0.0000       0.118111         3.2140
  71   0.0000       0.129151         3.5144

MULLIKEN ATOMIC CHARGES
-----------------------
   0 S :    0.121182
   1 C :   -0.136528
   2 C :   -0.111937
   3 C :    0.022283
   4 C :   -0.186950
   5 H :    0.022600
   6 C :    0.137641
   7 H :    0.000487
   8 H :    0.024194
   9 C :   -0.095649
  10 H :    0.021846
  11 H :    0.030398
  12 C :   -0.047170
  13 H :    0.020668
  14 H :    0.049375
  15 H :    0.033221
  16 S :    0.138780
  17 C :   -0.094419
  18 C :   -0.023365
  19 C :   -0.026888
  20 C :   -0.172487
  21 H :    0.019526
  22 C :    0.041968
  23 H :    0.047967
  24 H :    0.024399
  25 C :   -0.090222
  26 H :    0.042753
  27 H :    0.045180
  28 C :   -0.058655
  29 H :    0.031875
  30 H :    0.037364
  31 H :    0.024052
  32 H :    0.052578
  33 H :    0.053932
Sum of atomic charges:   -0.0000000

LOEWDIN ATOMIC CHARGES
----------------------
   0 S :    0.421660
   1 C :   -0.209959
   2 C :   -0.061875
   3 C :   -0.069971
   4 C :   -0.201936
   5 H :    0.030314
   6 C :   -0.020691
   7 H :    0.023128
   8 H :    0.029482
   9 C :   -0.046266
  10 H :    0.019737
  11 H :    0.027219
  12 C :   -0.069511
  13 H :    0.019649
  14 H :    0.033752
  15 H :    0.029474
  16 S :    0.430405
  17 C :   -0.186381
  18 C :   -0.062740
  19 C :   -0.050989
  20 C :   -0.210368
  21 H :    0.027891
  22 C :   -0.040674
  23 H :    0.037206
  24 H :    0.028562
  25 C :   -0.040538
  26 H :    0.028701
  27 H :    0.031766
  28 C :   -0.073283
  29 H :    0.026005
  30 H :    0.033115
  31 H :    0.015715
  32 H :    0.030613
  33 H :    0.020789

  Mayer bond orders larger than 0.100000
B(  0-S ,  1-C ) :   1.1516 B(  0-S ,  4-C ) :   1.1715 B(  1-C ,  2-C ) :   1.6040
B(  1-C , 32-H ) :   0.9626 B(  2-C ,  3-C ) :   1.2539 B(  2-C ,  6-C ) :   1.0289
B(  3-C ,  4-C ) :   1.5532 B(  3-C ,  5-H ) :   0.9893 B(  4-C , 20-C ) :   1.0042
B(  6-C ,  7-H ) :   0.9370 B(  6-C ,  8-H ) :   0.9262 B(  6-C ,  9-C ) :   1.0736
B(  9-C , 10-H ) :   0.9558 B(  9-C , 11-H ) :   0.9502 B(  9-C , 12-C ) :   1.0822
B( 12-C , 13-H ) :   0.9742 B( 12-C , 14-H ) :   0.9746 B( 12-C , 15-H ) :   0.9722
B( 16-S , 17-C ) :   1.1706 B( 16-S , 20-C ) :   1.1567 B( 17-C , 18-C ) :   1.5985
B( 17-C , 33-H ) :   0.9678 B( 18-C , 19-C ) :   1.2291 B( 18-C , 21-H ) :   0.9909
B( 19-C , 20-C ) :   1.5926 B( 19-C , 22-C ) :   1.0492 B( 22-C , 23-H ) :   0.9369
B( 22-C , 24-H ) :   0.9252 B( 22-C , 25-C ) :   1.0713 B( 25-C , 26-H ) :   0.9549
B( 25-C , 27-H ) :   0.9558 B( 25-C , 28-C ) :   1.0675 B( 28-C , 29-H ) :   0.9750
B( 28-C , 30-H ) :   0.9713 B( 28-C , 31-H ) :   0.9764

Dispersion correction           -0.014465523
FINAL SINGLE POINT ENERGY     -1339.884318039042

DIPOLE MOMENT
-------------
                                X             Y             Z
Electronic contribution:      1.77812     -11.33961       6.39752
Nuclear contribution   :     -1.98182      11.62995      -6.40189
                        -----------------------------------------
Total Dipole Moment    :     -0.20370       0.29034      -0.00438
                        -----------------------------------------
Magnitude (a.u.)       :      0.35469
Magnitude (Debye)      :      0.90156

Rotational constants in cm-1:     0.023625     0.007376     0.006236
Rotational constants in MHz :   708.271688   221.115711   186.950028

                             ****ORCA TERMINATED NORMALLY****
TOTAL RUN TIME: 0 days 0 hours 0 minutes 21 seconds 189 msec
