                         Program Version 4.2.1 -  RELEASE  -
|  1> ! wB97X-D3 SP def2-SVP
|  2> %pal
|  3> nprocs 24
|  4> end
|  5>
|  6> * xyz 0 1
|  7> S 	 -29.8782 	 -38.9656 	 -91.5271
|  8> C 	 -29.7892 	 -37.1844 	 -91.7764
|  9> C 	 -30.2446 	 -36.5294 	 -90.6207
| 10> C 	 -30.7588 	 -37.496 	 -89.6848
| 11> C 	 -30.7535 	 -38.8335 	 -89.9863
| 12> H 	 -31.3034 	 -37.2551 	 -88.8532
| 13> C 	 -30.2295 	 -35.0111 	 -90.445
| 14> H 	 -30.9864 	 -34.9668 	 -89.6407
| 15> H 	 -30.8032 	 -34.5015 	 -91.232
| 16> C 	 -29.0185 	 -34.2083 	 -89.8558
| 17> H 	 -29.4789 	 -33.2682 	 -89.5053
| 18> H 	 -28.5053 	 -34.674 	 -88.9944
| 19> C 	 -27.928 	 -33.9121 	 -90.9458
| 20> H 	 -27.211 	 -33.1837 	 -90.5196
| 21> H 	 -27.4117 	 -34.8722 	 -91.1207
| 22> H 	 -28.2003 	 -33.4808 	 -91.9208
| 23> S 	 -30.3721 	 -40.9654 	 -88.3647
| 24> C 	 -31.7622 	 -42.0299 	 -87.9598
| 25> C 	 -32.8862 	 -41.5999 	 -88.6237
| 26> C 	 -32.653 	 -40.3793 	 -89.3437
| 27> C 	 -31.3859 	 -39.9461 	 -89.3805
| 28> H 	 -33.823 	 -42.1273 	 -88.6179
| 29> C 	 -33.7978 	 -39.7436 	 -90.1215
| 30> H 	 -33.7372 	 -38.6462 	 -89.9432
| 31> H 	 -34.7618 	 -40.122 	 -89.6872
| 32> C 	 -33.8242 	 -40.097 	 -91.6149
| 33> H 	 -32.9623 	 -39.689 	 -92.1068
| 34> H 	 -34.6359 	 -39.6267 	 -92.1056
| 35> C 	 -33.9691 	 -41.5861 	 -91.9626
| 36> H 	 -34.1876 	 -41.7727 	 -92.9899
| 37> H 	 -34.7758 	 -42.0411 	 -91.4589
| 38> H 	 -33.0684 	 -41.9959 	 -91.7455
| 39> H 	 -29.2166 	 -36.6902 	 -92.6118
| 40> H 	 -31.5867 	 -42.9978 	 -87.4336
| 41> *
| 42>
| 43>                          ****END OF INPUT****

CARTESIAN COORDINATES (ANGSTROEM)
---------------------------------
  S    -29.878200  -38.965600  -91.527100
  C    -29.789200  -37.184400  -91.776400
  C    -30.244600  -36.529400  -90.620700
  C    -30.758800  -37.496000  -89.684800
  C    -30.753500  -38.833500  -89.986300
  H    -31.303400  -37.255100  -88.853200
  C    -30.229500  -35.011100  -90.445000
  H    -30.986400  -34.966800  -89.640700
  H    -30.803200  -34.501500  -91.232000
  C    -29.018500  -34.208300  -89.855800
  H    -29.478900  -33.268200  -89.505300
  H    -28.505300  -34.674000  -88.994400
  C    -27.928000  -33.912100  -90.945800
  H    -27.211000  -33.183700  -90.519600
  H    -27.411700  -34.872200  -91.120700
  H    -28.200300  -33.480800  -91.920800
  S    -30.372100  -40.965400  -88.364700
  C    -31.762200  -42.029900  -87.959800
  C    -32.886200  -41.599900  -88.623700
  C    -32.653000  -40.379300  -89.343700
  C    -31.385900  -39.946100  -89.380500
  H    -33.823000  -42.127300  -88.617900
  C    -33.797800  -39.743600  -90.121500
  H    -33.737200  -38.646200  -89.943200
  H    -34.761800  -40.122000  -89.687200
  C    -33.824200  -40.097000  -91.614900
  H    -32.962300  -39.689000  -92.106800
  H    -34.635900  -39.626700  -92.105600
  C    -33.969100  -41.586100  -91.962600
  H    -34.187600  -41.772700  -92.989900
  H    -34.775800  -42.041100  -91.458900
  H    -33.068400  -41.995900  -91.745500
  H    -29.216600  -36.690200  -92.611800
  H    -31.586700  -42.997800  -87.433600

 Total Charge           Charge          ....    0
 Multiplicity           Mult            ....    1
 Number of Electrons    NEL             ....  134
 Basis Dimension        Dim             ....  322

ORBITAL ENERGIES
----------------

  NO   OCC          E(Eh)            E(eV)
   0   2.0000     -88.963179     -2420.8112
   1   2.0000     -88.960737     -2420.7447
   2   2.0000     -10.329253      -281.0733
   3   2.0000     -10.326588      -281.0008
   4   2.0000     -10.325904      -280.9821
   5   2.0000     -10.321608      -280.8652
   6   2.0000     -10.309847      -280.5452
   7   2.0000     -10.301160      -280.3088
   8   2.0000     -10.300562      -280.2926
   9   2.0000     -10.299806      -280.2720
  10   2.0000     -10.296982      -280.1951
  11   2.0000     -10.294374      -280.1242
  12   2.0000     -10.291479      -280.0454
  13   2.0000     -10.283725      -279.8344
  14   2.0000     -10.273558      -279.5577
  15   2.0000     -10.257832      -279.1298
  16   2.0000      -8.076619      -219.7760
  17   2.0000      -8.075254      -219.7388
  18   2.0000      -6.035216      -164.2266
  19   2.0000      -6.033880      -164.1902
  20   2.0000      -6.031187      -164.1170
  21   2.0000      -6.029775      -164.0785
  22   2.0000      -6.027431      -164.0147
  23   2.0000      -6.025891      -163.9728
  24   2.0000      -1.006912       -27.3995
  25   2.0000      -0.978988       -26.6396
  26   2.0000      -0.905120       -24.6296
  27   2.0000      -0.904604       -24.6155
  28   2.0000      -0.872063       -23.7300
  29   2.0000      -0.846606       -23.0373
  30   2.0000      -0.841826       -22.9073
  31   2.0000      -0.816924       -22.2296
  32   2.0000      -0.783801       -21.3283
  33   2.0000      -0.774667       -21.0798
  34   2.0000      -0.712184       -19.3795
  35   2.0000      -0.699379       -19.0311
  36   2.0000      -0.690919       -18.8009
  37   2.0000      -0.669816       -18.2266
  38   2.0000      -0.644253       -17.5310
  39   2.0000      -0.616209       -16.7679
  40   2.0000      -0.590012       -16.0550
  41   2.0000      -0.570305       -15.5188
  42   2.0000      -0.555971       -15.1287
  43   2.0000      -0.550745       -14.9865
  44   2.0000      -0.540534       -14.7087
  45   2.0000      -0.529892       -14.4191
  46   2.0000      -0.521768       -14.1980
  47   2.0000      -0.515736       -14.0339
  48   2.0000      -0.507727       -13.8159
  49   2.0000      -0.498262       -13.5584
  50   2.0000      -0.486054       -13.2262
  51   2.0000      -0.479557       -13.0494
  52   2.0000      -0.470965       -12.8156
  53   2.0000      -0.465462       -12.6659
  54   2.0000      -0.458336       -12.4719
  55   2.0000      -0.445303       -12.1173
  56   2.0000      -0.442737       -12.0475
  57   2.0000      -0.435618       -11.8538
  58   2.0000      -0.432791       -11.7768
  59   2.0000      -0.422750       -11.5036
  60   2.0000      -0.417079       -11.3493
  61   2.0000      -0.406401       -11.0587
  62   2.0000      -0.401862       -10.9352
  63   2.0000      -0.335719        -9.1354
  64   2.0000      -0.329476        -8.9655
  65   2.0000      -0.325299        -8.8518
  66   2.0000      -0.313483        -8.5303
  67   0.0000       0.038052         1.0354
  68   0.0000       0.048426         1.3177
  69   0.0000       0.115296         3.1374
  70   0.0000       0.119239         3.2447
  71   0.0000       0.121089         3.2950

MULLIKEN ATOMIC CHARGES
-----------------------
   0 S :    0.088571
   1 C :   -0.137809
   2 C :   -0.096666
   3 C :    0.100056
   4 C :   -0.176977
   5 H :   -0.029721
   6 C :    0.033683
   7 H :    0.013462
   8 H :    0.044433
   9 C :   -0.046394
  10 H :    0.035915
  11 H :    0.044694
  12 C :   -0.086412
  13 H :    0.038356
  14 H :    0.042032
  15 H :    0.034720
  16 S :    0.087465
  17 C :   -0.107437
  18 C :   -0.015970
  19 C :   -0.039169
  20 C :   -0.167312
  21 H :    0.019886
  22 C :    0.068571
  23 H :    0.038411
  24 H :    0.017711
  25 C :   -0.050242
  26 H :    0.022072
  27 H :    0.013414
  28 C :    0.000834
  29 H :    0.020618
  30 H :    0.008907
  31 H :    0.020607
  32 H :    0.078282
  33 H :    0.081411
Sum of atomic charges:   -0.0000000

LOEWDIN ATOMIC CHARGES
----------------------
   0 S :    0.374824
   1 C :   -0.183466
   2 C :   -0.070102
   3 C :   -0.049854
   4 C :   -0.190033
   5 H :    0.014397
   6 C :   -0.045713
   7 H :    0.035049
   8 H :    0.038951
   9 C :   -0.032815
  10 H :    0.027502
  11 H :    0.033791
  12 C :   -0.078665
  13 H :    0.028241
  14 H :    0.027915
  15 H :    0.023479
  16 S :    0.379526
  17 C :   -0.167223
  18 C :   -0.068127
  19 C :   -0.053191
  20 C :   -0.204153
  21 H :    0.032105
  22 C :   -0.029429
  23 H :    0.036761
  24 H :    0.029662
  25 C :   -0.033652
  26 H :    0.018308
  27 H :    0.017328
  28 C :   -0.049449
  29 H :    0.026535
  30 H :    0.016805
  31 H :    0.013124
  32 H :    0.042236
  33 H :    0.039331

  Mayer bond orders larger than 0.100000
B(  0-S ,  1-C ) :   1.1437 B(  0-S ,  4-C ) :   1.1206 B(  1-C ,  2-C ) :   1.5970
B(  1-C ,  4-C ) :   0.1057 B(  1-C , 32-H ) :   0.9618 B(  2-C ,  3-C ) :   1.2401
B(  2-C ,  6-C ) :   1.0056 B(  3-C ,  4-C ) :   1.6145 B(  3-C ,  5-H ) :   1.0003
B(  4-C , 20-C ) :   1.0201 B(  6-C ,  7-H ) :   0.9354 B(  6-C ,  8-H ) :   0.9455
B(  6-C ,  9-C ) :   1.0602 B(  9-C , 10-H ) :   0.9561 B(  9-C , 11-H ) :   0.9573
B(  9-C , 12-C ) :   1.0689 B( 12-C , 13-H ) :   0.9758 B( 12-C , 14-H ) :   0.9773
B( 12-C , 15-H ) :   0.9794 B( 16-S , 17-C ) :   1.1480 B( 16-S , 20-C ) :   1.1201
B( 17-C , 18-C ) :   1.6149 B( 17-C , 33-H ) :   0.9615 B( 18-C , 19-C ) :   1.2170
B( 18-C , 21-H ) :   0.9916 B( 19-C , 20-C ) :   1.6556 B( 19-C , 22-C ) :   1.0416
B( 22-C , 23-H ) :   0.9305 B( 22-C , 24-H ) :   0.9342 B( 22-C , 25-C ) :   1.0793
B( 25-C , 26-H ) :   0.9542 B( 25-C , 27-H ) :   0.9559 B( 25-C , 28-C ) :   1.0765
B( 28-C , 29-H ) :   0.9709 B( 28-C , 30-H ) :   0.9733 B( 28-C , 31-H ) :   0.9760

Dispersion correction           -0.015069306
FINAL SINGLE POINT ENERGY     -1339.860715740736

DIPOLE MOMENT
-------------
                                X             Y             Z
Electronic contribution:      6.89811     -15.28584       7.48386
Nuclear contribution   :     -7.31819      15.69417      -7.49068
                        -----------------------------------------
Total Dipole Moment    :     -0.42008       0.40833      -0.00682
                        -----------------------------------------
Magnitude (a.u.)       :      0.58587
Magnitude (Debye)      :      1.48917

Rotational constants in cm-1:     0.024379     0.007379     0.006607
Rotational constants in MHz :   730.850325   221.230773   198.058668

                             ****ORCA TERMINATED NORMALLY****
TOTAL RUN TIME: 0 days 0 hours 0 minutes 20 seconds 611 msec
