                         Program Version 4.2.1 -  RELEASE  -
|  1> ! wB97X-D3 SP def2-SVP
|  2> %pal
|  3> nprocs 24
|  4> end
|  5>
|  6> * xyz 0 1
|  7> S 	 -48.0295 	 13.5656 	 24.7318
|  8> C 	 -49.218 	 14.0713 	 25.9515
|  9> C 	 -50.5065 	 13.8793 	 25.487
| 10> C 	 -50.5229 	 13.5926 	 24.136
| 11> C 	 -49.3163 	 13.5167 	 23.4578
| 12> H 	 -51.4394 	 13.4235 	 23.5544
| 13> C 	 -51.747 	 13.978 	 26.4014
| 14> H 	 -52.5564 	 14.2252 	 25.7239
| 15> H 	 -51.6161 	 14.8952 	 26.9538
| 16> C 	 -52.088 	 12.6996 	 27.1602
| 17> H 	 -51.2616 	 12.3434 	 27.8141
| 18> H 	 -52.8827 	 13.1112 	 27.7577
| 19> C 	 -52.5962 	 11.6344 	 26.2346
| 20> H 	 -51.8411 	 11.059 	 25.702
| 21> H 	 -53.0939 	 10.9096 	 26.8227
| 22> H 	 -53.2625 	 11.9852 	 25.4396
| 23> S 	 -47.8403 	 12.0158 	 21.6533
| 24> C 	 -48.1992 	 12.1422 	 19.9088
| 25> C 	 -49.3034 	 12.9047 	 19.6843
| 26> C 	 -49.8574 	 13.5407 	 20.8548
| 27> C 	 -49.1185 	 13.1671 	 22.019
| 28> H 	 -49.5585 	 12.9573 	 18.6134
| 29> C 	 -51.0415 	 14.4978 	 20.8178
| 30> H 	 -51.3429 	 14.9312 	 21.7869
| 31> H 	 -51.8327 	 13.8782 	 20.4718
| 32> C 	 -50.7467 	 15.7278 	 19.853
| 33> H 	 -50.2606 	 15.332 	 18.946
| 34> H 	 -49.9397 	 16.3986 	 20.2232
| 35> C 	 -51.9719 	 16.6262 	 19.5351
| 36> H 	 -51.5131 	 17.5221 	 19.1458
| 37> H 	 -52.5621 	 16.9539 	 20.4581
| 38> H 	 -52.6577 	 16.2934 	 18.7714
| 39> H 	 -49.0898 	 14.1443 	 26.9562
| 40> H 	 -47.6516 	 11.6205 	 19.1027
| 41> *
| 42>
| 43>                          ****END OF INPUT****

CARTESIAN COORDINATES (ANGSTROEM)
---------------------------------
  S    -48.029500   13.565600   24.731800
  C    -49.218000   14.071300   25.951500
  C    -50.506500   13.879300   25.487000
  C    -50.522900   13.592600   24.136000
  C    -49.316300   13.516700   23.457800
  H    -51.439400   13.423500   23.554400
  C    -51.747000   13.978000   26.401400
  H    -52.556400   14.225200   25.723900
  H    -51.616100   14.895200   26.953800
  C    -52.088000   12.699600   27.160200
  H    -51.261600   12.343400   27.814100
  H    -52.882700   13.111200   27.757700
  C    -52.596200   11.634400   26.234600
  H    -51.841100   11.059000   25.702000
  H    -53.093900   10.909600   26.822700
  H    -53.262500   11.985200   25.439600
  S    -47.840300   12.015800   21.653300
  C    -48.199200   12.142200   19.908800
  C    -49.303400   12.904700   19.684300
  C    -49.857400   13.540700   20.854800
  C    -49.118500   13.167100   22.019000
  H    -49.558500   12.957300   18.613400
  C    -51.041500   14.497800   20.817800
  H    -51.342900   14.931200   21.786900
  H    -51.832700   13.878200   20.471800
  C    -50.746700   15.727800   19.853000
  H    -50.260600   15.332000   18.946000
  H    -49.939700   16.398600   20.223200
  C    -51.971900   16.626200   19.535100
  H    -51.513100   17.522100   19.145800
  H    -52.562100   16.953900   20.458100
  H    -52.657700   16.293400   18.771400
  H    -49.089800   14.144300   26.956200
  H    -47.651600   11.620500   19.102700

 Total Charge           Charge          ....    0
 Multiplicity           Mult            ....    1
 Number of Electrons    NEL             ....  134
 Basis Dimension        Dim             ....  322

ORBITAL ENERGIES
----------------

  NO   OCC          E(Eh)            E(eV)
   0   2.0000     -88.966878     -2420.9118
   1   2.0000     -88.965090     -2420.8632
   2   2.0000     -10.336552      -281.2719
   3   2.0000     -10.336070      -281.2588
   4   2.0000     -10.319701      -280.8133
   5   2.0000     -10.313444      -280.6431
   6   2.0000     -10.306284      -280.4482
   7   2.0000     -10.298009      -280.2231
   8   2.0000     -10.295925      -280.1664
   9   2.0000     -10.294075      -280.1160
  10   2.0000     -10.293531      -280.1012
  11   2.0000     -10.290888      -280.0293
  12   2.0000     -10.289748      -279.9983
  13   2.0000     -10.289291      -279.9858
  14   2.0000     -10.282494      -279.8009
  15   2.0000     -10.273320      -279.5512
  16   2.0000      -8.079874      -219.8645
  17   2.0000      -8.079244      -219.8474
  18   2.0000      -6.038595      -164.3185
  19   2.0000      -6.037844      -164.2981
  20   2.0000      -6.034734      -164.2135
  21   2.0000      -6.033916      -164.1912
  22   2.0000      -6.030395      -164.0954
  23   2.0000      -6.029862      -164.0809
  24   2.0000      -0.997924       -27.1549
  25   2.0000      -0.979264       -26.6471
  26   2.0000      -0.915191       -24.9036
  27   2.0000      -0.899306       -24.4714
  28   2.0000      -0.867845       -23.6153
  29   2.0000      -0.847123       -23.0514
  30   2.0000      -0.841896       -22.9091
  31   2.0000      -0.817780       -22.2529
  32   2.0000      -0.784735       -21.3537
  33   2.0000      -0.770828       -20.9753
  34   2.0000      -0.707366       -19.2484
  35   2.0000      -0.704518       -19.1709
  36   2.0000      -0.696998       -18.9663
  37   2.0000      -0.651627       -17.7317
  38   2.0000      -0.635805       -17.3011
  39   2.0000      -0.617461       -16.8020
  40   2.0000      -0.592943       -16.1348
  41   2.0000      -0.576844       -15.6967
  42   2.0000      -0.557172       -15.1614
  43   2.0000      -0.551025       -14.9942
  44   2.0000      -0.538220       -14.6457
  45   2.0000      -0.523273       -14.2390
  46   2.0000      -0.513317       -13.9681
  47   2.0000      -0.511485       -13.9182
  48   2.0000      -0.501896       -13.6573
  49   2.0000      -0.498507       -13.5651
  50   2.0000      -0.489234       -13.3127
  51   2.0000      -0.477956       -13.0059
  52   2.0000      -0.470988       -12.8162
  53   2.0000      -0.465050       -12.6547
  54   2.0000      -0.456325       -12.4172
  55   2.0000      -0.449561       -12.2332
  56   2.0000      -0.442226       -12.0336
  57   2.0000      -0.438409       -11.9297
  58   2.0000      -0.434293       -11.8177
  59   2.0000      -0.430791       -11.7224
  60   2.0000      -0.421391       -11.4666
  61   2.0000      -0.410007       -11.1569
  62   2.0000      -0.407775       -11.0961
  63   2.0000      -0.353064        -9.6074
  64   2.0000      -0.332860        -9.0576
  65   2.0000      -0.327664        -8.9162
  66   2.0000      -0.284102        -7.7308
  67   0.0000       0.019811         0.5391
  68   0.0000       0.073949         2.0123
  69   0.0000       0.101047         2.7496
  70   0.0000       0.126147         3.4326
  71   0.0000       0.136532         3.7152

MULLIKEN ATOMIC CHARGES
-----------------------
   0 S :    0.093003
   1 C :   -0.056408
   2 C :   -0.123648
   3 C :    0.007262
   4 C :   -0.126480
   5 H :    0.012201
   6 C :    0.052874
   7 H :    0.010682
   8 H :    0.028044
   9 C :   -0.029232
  10 H :    0.041953
  11 H :    0.030590
  12 C :   -0.039897
  13 H :    0.041044
  14 H :    0.023910
  15 H :    0.025008
  16 S :    0.091587
  17 C :   -0.112450
  18 C :   -0.051846
  19 C :   -0.044912
  20 C :   -0.153949
  21 H :    0.035064
  22 C :    0.099688
  23 H :    0.033644
  24 H :    0.030493
  25 C :   -0.116519
  26 H :    0.025598
  27 H :    0.041839
  28 C :   -0.050712
  29 H :    0.027742
  30 H :    0.041972
  31 H :    0.038063
  32 H :    0.006103
  33 H :    0.067687
Sum of atomic charges:   -0.0000000

LOEWDIN ATOMIC CHARGES
----------------------
   0 S :    0.371485
   1 C :   -0.173300
   2 C :   -0.066375
   3 C :   -0.070779
   4 C :   -0.175461
   5 H :    0.030302
   6 C :   -0.028765
   7 H :    0.026835
   8 H :    0.029643
   9 C :   -0.036530
  10 H :    0.031392
  11 H :    0.027248
  12 C :   -0.064265
  13 H :    0.030653
  14 H :    0.023437
  15 H :    0.026139
  16 S :    0.380928
  17 C :   -0.180285
  18 C :   -0.078655
  19 C :   -0.053984
  20 C :   -0.188456
  21 H :    0.040202
  22 C :   -0.029781
  23 H :    0.032002
  24 H :    0.029914
  25 C :   -0.042387
  26 H :    0.022574
  27 H :    0.032390
  28 C :   -0.073940
  29 H :    0.027271
  30 H :    0.033617
  31 H :    0.022089
  32 H :    0.007320
  33 H :    0.037524

  Mayer bond orders larger than 0.100000
B(  0-S ,  1-C ) :   1.1372 B(  0-S ,  4-C ) :   1.1340 B(  1-C ,  2-C ) :   1.6030
B(  1-C ,  4-C ) :   0.1097 B(  1-C , 32-H ) :   0.9698 B(  2-C ,  3-C ) :   1.2914
B(  2-C ,  6-C ) :   0.9961 B(  3-C ,  4-C ) :   1.5456 B(  3-C ,  5-H ) :   0.9840
B(  4-C , 20-C ) :   1.0627 B(  6-C ,  7-H ) :   0.9421 B(  6-C ,  8-H ) :   0.9434
B(  6-C ,  9-C ) :   1.0633 B(  9-C , 10-H ) :   0.9548 B(  9-C , 11-H ) :   0.9528
B(  9-C , 12-C ) :   1.0801 B( 12-C , 13-H ) :   0.9708 B( 12-C , 14-H ) :   0.9701
B( 12-C , 15-H ) :   0.9738 B( 16-S , 17-C ) :   1.1279 B( 16-S , 20-C ) :   1.1412
B( 17-C , 18-C ) :   1.6619 B( 17-C , 33-H ) :   0.9614 B( 18-C , 19-C ) :   1.2056
B( 18-C , 21-H ) :   0.9804 B( 19-C , 20-C ) :   1.5895 B( 19-C , 22-C ) :   1.0398
B( 22-C , 23-H ) :   0.9361 B( 22-C , 24-H ) :   0.9337 B( 22-C , 25-C ) :   1.0455
B( 25-C , 26-H ) :   0.9590 B( 25-C , 27-H ) :   0.9610 B( 25-C , 28-C ) :   1.0738
B( 28-C , 29-H ) :   0.9748 B( 28-C , 30-H ) :   0.9733 B( 28-C , 31-H ) :   0.9776

Dispersion correction           -0.013898786
FINAL SINGLE POINT ENERGY     -1339.863170430834

DIPOLE MOMENT
-------------
                                X             Y             Z
Electronic contribution:     24.43156      -8.45305       0.10247
Nuclear contribution   :    -25.19263       8.51321      -0.22621
                        -----------------------------------------
Total Dipole Moment    :     -0.76107       0.06016      -0.12374
                        -----------------------------------------
Magnitude (a.u.)       :      0.77341
Magnitude (Debye)      :      1.96585

Rotational constants in cm-1:     0.017062     0.008400     0.006732
Rotational constants in MHz :   511.511266   251.817754   201.827407

                             ****ORCA TERMINATED NORMALLY****
TOTAL RUN TIME: 0 days 0 hours 0 minutes 21 seconds 242 msec
