                         Program Version 4.2.1 -  RELEASE  -
|  1> ! wB97X-D3 SP def2-SVP
|  2> %pal
|  3> nprocs 24
|  4> end
|  5>
|  6> * xyz 0 1
|  7> S 	 -104.467 	 47.5995 	 -97.0479
|  8> C 	 -103.293 	 48.6257 	 -96.1825
|  9> C 	 -103.895 	 49.4681 	 -95.2609
| 10> C 	 -105.312 	 49.4515 	 -95.3564
| 11> C 	 -105.726 	 48.6534 	 -96.4113
| 12> H 	 -106.023 	 49.9757 	 -94.7718
| 13> C 	 -103.235 	 50.5086 	 -94.2897
| 14> H 	 -102.862 	 51.356 	 -94.8886
| 15> H 	 -102.387 	 50.0139 	 -93.8266
| 16> C 	 -104.068 	 51.0585 	 -93.0946
| 17> H 	 -103.68 	 51.8658 	 -92.5158
| 18> H 	 -104.997 	 51.4375 	 -93.4834
| 19> C 	 -104.235 	 49.894 	 -92.1117
| 20> H 	 -104.597 	 48.9245 	 -92.4619
| 21> H 	 -103.232 	 49.6939 	 -91.6988
| 22> H 	 -104.794 	 50.2091 	 -91.2514
| 23> S 	 -107.845 	 46.8914 	 -96.6007
| 24> C 	 -109.412 	 47.5033 	 -97.1125
| 25> C 	 -109.4 	 48.8568 	 -97.3715
| 26> C 	 -108.135 	 49.4601 	 -96.9836
| 27> C 	 -107.175 	 48.5067 	 -96.6894
| 28> H 	 -110.227 	 49.352 	 -97.7264
| 29> C 	 -107.969 	 50.9841 	 -97.1711
| 30> H 	 -106.904 	 51.1968 	 -97.2733
| 31> H 	 -108.182 	 51.4146 	 -96.2404
| 32> C 	 -108.737 	 51.6744 	 -98.2909
| 33> H 	 -109.768 	 51.4454 	 -98.0793
| 34> H 	 -108.488 	 51.1583 	 -99.1761
| 35> C 	 -108.428 	 53.2075 	 -98.2088
| 36> H 	 -109.057 	 53.6547 	 -97.386
| 37> H 	 -108.83 	 53.7032 	 -99.1147
| 38> H 	 -107.451 	 53.5029 	 -98.0255
| 39> H 	 -102.211 	 48.7035 	 -96.5542
| 40> H 	 -110.281 	 46.8808 	 -97.4249
| 41> *
| 42>
| 43>                          ****END OF INPUT****

CARTESIAN COORDINATES (ANGSTROEM)
---------------------------------
  S    -104.467000   47.599500  -97.047900
  C    -103.293000   48.625700  -96.182500
  C    -103.895000   49.468100  -95.260900
  C    -105.312000   49.451500  -95.356400
  C    -105.726000   48.653400  -96.411300
  H    -106.023000   49.975700  -94.771800
  C    -103.235000   50.508600  -94.289700
  H    -102.862000   51.356000  -94.888600
  H    -102.387000   50.013900  -93.826600
  C    -104.068000   51.058500  -93.094600
  H    -103.680000   51.865800  -92.515800
  H    -104.997000   51.437500  -93.483400
  C    -104.235000   49.894000  -92.111700
  H    -104.597000   48.924500  -92.461900
  H    -103.232000   49.693900  -91.698800
  H    -104.794000   50.209100  -91.251400
  S    -107.845000   46.891400  -96.600700
  C    -109.412000   47.503300  -97.112500
  C    -109.400000   48.856800  -97.371500
  C    -108.135000   49.460100  -96.983600
  C    -107.175000   48.506700  -96.689400
  H    -110.227000   49.352000  -97.726400
  C    -107.969000   50.984100  -97.171100
  H    -106.904000   51.196800  -97.273300
  H    -108.182000   51.414600  -96.240400
  C    -108.737000   51.674400  -98.290900
  H    -109.768000   51.445400  -98.079300
  H    -108.488000   51.158300  -99.176100
  C    -108.428000   53.207500  -98.208800
  H    -109.057000   53.654700  -97.386000
  H    -108.830000   53.703200  -99.114700
  H    -107.451000   53.502900  -98.025500
  H    -102.211000   48.703500  -96.554200
  H    -110.281000   46.880800  -97.424900

 Total Charge           Charge          ....    0
 Multiplicity           Mult            ....    1
 Number of Electrons    NEL             ....  134
 Basis Dimension        Dim             ....  322

ORBITAL ENERGIES
----------------

  NO   OCC          E(Eh)            E(eV)
   0   2.0000     -88.971122     -2421.0273
   1   2.0000     -88.963148     -2420.8103
   2   2.0000     -10.329987      -281.0932
   3   2.0000     -10.324397      -280.9411
   4   2.0000     -10.322451      -280.8882
   5   2.0000     -10.316372      -280.7228
   6   2.0000     -10.308506      -280.5087
   7   2.0000     -10.302689      -280.3504
   8   2.0000     -10.297785      -280.2170
   9   2.0000     -10.290767      -280.0260
  10   2.0000     -10.288919      -279.9757
  11   2.0000     -10.287655      -279.9413
  12   2.0000     -10.285582      -279.8849
  13   2.0000     -10.283993      -279.8417
  14   2.0000     -10.283125      -279.8181
  15   2.0000     -10.275454      -279.6093
  16   2.0000      -8.085072      -220.0060
  17   2.0000      -8.077851      -219.8095
  18   2.0000      -6.043688      -164.4571
  19   2.0000      -6.039949      -164.3554
  20   2.0000      -6.036465      -164.2606
  21   2.0000      -6.035516      -164.2348
  22   2.0000      -6.032449      -164.1513
  23   2.0000      -6.028440      -164.0422
  24   2.0000      -1.002214       -27.2716
  25   2.0000      -0.979370       -26.6500
  26   2.0000      -0.910579       -24.7781
  27   2.0000      -0.908483       -24.7211
  28   2.0000      -0.864721       -23.5303
  29   2.0000      -0.850166       -23.1342
  30   2.0000      -0.842833       -22.9347
  31   2.0000      -0.809497       -22.0275
  32   2.0000      -0.779903       -21.2222
  33   2.0000      -0.769920       -20.9506
  34   2.0000      -0.714763       -19.4497
  35   2.0000      -0.705684       -19.2026
  36   2.0000      -0.689619       -18.7655
  37   2.0000      -0.657651       -17.8956
  38   2.0000      -0.636449       -17.3186
  39   2.0000      -0.622616       -16.9422
  40   2.0000      -0.593288       -16.1442
  41   2.0000      -0.569254       -15.4902
  42   2.0000      -0.562284       -15.3005
  43   2.0000      -0.553112       -15.0510
  44   2.0000      -0.542607       -14.7651
  45   2.0000      -0.522036       -14.2053
  46   2.0000      -0.516804       -14.0630
  47   2.0000      -0.511309       -13.9134
  48   2.0000      -0.496324       -13.5057
  49   2.0000      -0.488687       -13.2978
  50   2.0000      -0.488072       -13.2811
  51   2.0000      -0.479472       -13.0471
  52   2.0000      -0.470794       -12.8110
  53   2.0000      -0.462530       -12.5861
  54   2.0000      -0.454249       -12.3608
  55   2.0000      -0.452962       -12.3257
  56   2.0000      -0.449738       -12.2380
  57   2.0000      -0.440540       -11.9877
  58   2.0000      -0.434051       -11.8111
  59   2.0000      -0.430828       -11.7234
  60   2.0000      -0.423121       -11.5137
  61   2.0000      -0.418439       -11.3863
  62   2.0000      -0.409189       -11.1346
  63   2.0000      -0.342998        -9.3334
  64   2.0000      -0.333555        -9.0765
  65   2.0000      -0.327778        -8.9193
  66   2.0000      -0.288714        -7.8563
  67   0.0000       0.028402         0.7729
  68   0.0000       0.064822         1.7639
  69   0.0000       0.104297         2.8381
  70   0.0000       0.127517         3.4699
  71   0.0000       0.131343         3.5740

MULLIKEN ATOMIC CHARGES
-----------------------
   0 S :    0.113454
   1 C :   -0.172184
   2 C :   -0.052007
   3 C :    0.016111
   4 C :   -0.133085
   5 H :    0.011421
   6 C :    0.054970
   7 H :    0.047880
   8 H :    0.022762
   9 C :   -0.050162
  10 H :    0.028148
  11 H :    0.020710
  12 C :   -0.068300
  13 H :    0.049198
  14 H :    0.021125
  15 H :    0.026181
  16 S :    0.099743
  17 C :   -0.095052
  18 C :   -0.022984
  19 C :   -0.035072
  20 C :   -0.172938
  21 H :   -0.012818
  22 C :    0.052418
  23 H :    0.019436
  24 H :    0.010698
  25 C :   -0.054005
  26 H :    0.030442
  27 H :    0.030409
  28 C :   -0.034558
  29 H :    0.032564
  30 H :    0.038487
  31 H :    0.027241
  32 H :    0.082758
  33 H :    0.067009
Sum of atomic charges:    0.0000000

LOEWDIN ATOMIC CHARGES
----------------------
   0 S :    0.387025
   1 C :   -0.204503
   2 C :   -0.056009
   3 C :   -0.055787
   4 C :   -0.182271
   5 H :    0.027806
   6 C :   -0.027901
   7 H :    0.034033
   8 H :    0.027239
   9 C :   -0.037830
  10 H :    0.028160
  11 H :    0.015462
  12 C :   -0.066131
  13 H :    0.027481
  14 H :    0.026969
  15 H :    0.021146
  16 S :    0.391861
  17 C :   -0.189159
  18 C :   -0.063018
  19 C :   -0.054967
  20 C :   -0.197048
  21 H :    0.015684
  22 C :   -0.032389
  23 H :    0.027300
  24 H :    0.020936
  25 C :   -0.031011
  26 H :    0.021533
  27 H :    0.020454
  28 C :   -0.057859
  29 H :    0.034629
  30 H :    0.030963
  31 H :    0.014881
  32 H :    0.045218
  33 H :    0.037103

  Mayer bond orders larger than 0.100000
B(  0-S ,  1-C ) :   1.1170 B(  0-S ,  4-C ) :   1.1516 B(  1-C ,  2-C ) :   1.6375
B(  1-C , 32-H ) :   0.9586 B(  2-C ,  3-C ) :   1.2236 B(  2-C ,  6-C ) :   0.9900
B(  3-C ,  4-C ) :   1.5654 B(  3-C ,  5-H ) :   0.9996 B(  4-C , 20-C ) :   1.0262
B(  6-C ,  7-H ) :   0.9415 B(  6-C ,  8-H ) :   0.9467 B(  6-C ,  9-C ) :   1.0776
B(  9-C , 10-H ) :   0.9539 B(  9-C , 11-H ) :   0.9500 B(  9-C , 12-C ) :   1.0727
B( 12-C , 13-H ) :   0.9797 B( 12-C , 14-H ) :   0.9719 B( 12-C , 15-H ) :   0.9746
B( 16-S , 17-C ) :   1.1383 B( 16-S , 20-C ) :   1.1326 B( 17-C , 18-C ) :   1.6445
B( 17-C , 33-H ) :   0.9566 B( 18-C , 19-C ) :   1.2143 B( 18-C , 21-H ) :   0.9980
B( 19-C , 20-C ) :   1.6406 B( 19-C , 22-C ) :   1.0204 B( 22-C , 23-H ) :   0.9360
B( 22-C , 24-H ) :   0.9263 B( 22-C , 25-C ) :   1.0694 B( 25-C , 26-H ) :   0.9463
B( 25-C , 27-H ) :   0.9643 B( 25-C , 28-C ) :   1.0704 B( 28-C , 29-H ) :   0.9737
B( 28-C , 30-H ) :   0.9748 B( 28-C , 31-H ) :   0.9808

Dispersion correction           -0.013957456
FINAL SINGLE POINT ENERGY     -1339.855495975390

DIPOLE MOMENT
-------------
                                X             Y             Z
Electronic contribution:      0.43813     -25.58351      -9.17474
Nuclear contribution   :     -0.46397      26.37397       9.34197
                        -----------------------------------------
Total Dipole Moment    :     -0.02584       0.79045       0.16723
                        -----------------------------------------
Magnitude (a.u.)       :      0.80836
Magnitude (Debye)      :      2.05470

Rotational constants in cm-1:     0.015747     0.009116     0.007174
Rotational constants in MHz :   472.075019   273.288444   215.068750

                             ****ORCA TERMINATED NORMALLY****
TOTAL RUN TIME: 0 days 0 hours 0 minutes 21 seconds 515 msec
