                         Program Version 4.2.1 -  RELEASE  -
|  1> ! wB97X-D3 SP def2-SVP
|  2> %pal
|  3> nprocs 24
|  4> end
|  5>
|  6> * xyz 0 1
|  7> S 	 -75.3509 	 -45.0237 	 -92.9529
|  8> C 	 -74.2396 	 -43.8011 	 -93.6296
|  9> C 	 -74.3764 	 -43.7031 	 -94.9132
| 10> C 	 -75.4133 	 -44.5803 	 -95.4571
| 11> C 	 -76.0114 	 -45.3879 	 -94.5073
| 12> H 	 -75.6688 	 -44.6935 	 -96.5024
| 13> C 	 -73.6433 	 -42.708 	 -95.789
| 14> H 	 -72.8557 	 -42.3158 	 -95.1747
| 15> H 	 -74.2432 	 -41.8428 	 -96.0424
| 16> C 	 -73.0709 	 -43.3648 	 -96.9875
| 17> H 	 -72.7939 	 -44.3976 	 -96.7803
| 18> H 	 -73.8703 	 -43.6036 	 -97.6593
| 19> C 	 -71.9614 	 -42.4795 	 -97.6618
| 20> H 	 -71.093 	 -43.14 	 -97.8144
| 21> H 	 -72.4312 	 -42.1036 	 -98.5746
| 22> H 	 -71.6854 	 -41.6318 	 -97.0527
| 23> S 	 -77.1839 	 -47.9117 	 -94.0488
| 24> C 	 -78.6325 	 -48.4332 	 -94.92
| 25> C 	 -79.1004 	 -47.3443 	 -95.6596
| 26> C 	 -78.2435 	 -46.167 	 -95.619
| 27> C 	 -77.1676 	 -46.2958 	 -94.7614
| 28> H 	 -79.9649 	 -47.4361 	 -96.2717
| 29> C 	 -78.5484 	 -44.8653 	 -96.4409
| 30> H 	 -79.4326 	 -45.1059 	 -97.0478
| 31> H 	 -77.7557 	 -44.6968 	 -97.0858
| 32> C 	 -78.8654 	 -43.6857 	 -95.4425
| 33> H 	 -78.9459 	 -42.8027 	 -95.9781
| 34> H 	 -78.0257 	 -43.5325 	 -94.7638
| 35> C 	 -80.2233 	 -43.8218 	 -94.6145
| 36> H 	 -80.1192 	 -44.4878 	 -93.7488
| 37> H 	 -81.0217 	 -44.2085 	 -95.3497
| 38> H 	 -80.5694 	 -42.8625 	 -94.1806
| 39> H 	 -73.3223 	 -43.4506 	 -93.1568
| 40> H 	 -79.0576 	 -49.4083 	 -94.8133
| 41> *
| 42>
| 43>                          ****END OF INPUT****

CARTESIAN COORDINATES (ANGSTROEM)
---------------------------------
  S    -75.350900  -45.023700  -92.952900
  C    -74.239600  -43.801100  -93.629600
  C    -74.376400  -43.703100  -94.913200
  C    -75.413300  -44.580300  -95.457100
  C    -76.011400  -45.387900  -94.507300
  H    -75.668800  -44.693500  -96.502400
  C    -73.643300  -42.708000  -95.789000
  H    -72.855700  -42.315800  -95.174700
  H    -74.243200  -41.842800  -96.042400
  C    -73.070900  -43.364800  -96.987500
  H    -72.793900  -44.397600  -96.780300
  H    -73.870300  -43.603600  -97.659300
  C    -71.961400  -42.479500  -97.661800
  H    -71.093000  -43.140000  -97.814400
  H    -72.431200  -42.103600  -98.574600
  H    -71.685400  -41.631800  -97.052700
  S    -77.183900  -47.911700  -94.048800
  C    -78.632500  -48.433200  -94.920000
  C    -79.100400  -47.344300  -95.659600
  C    -78.243500  -46.167000  -95.619000
  C    -77.167600  -46.295800  -94.761400
  H    -79.964900  -47.436100  -96.271700
  C    -78.548400  -44.865300  -96.440900
  H    -79.432600  -45.105900  -97.047800
  H    -77.755700  -44.696800  -97.085800
  C    -78.865400  -43.685700  -95.442500
  H    -78.945900  -42.802700  -95.978100
  H    -78.025700  -43.532500  -94.763800
  C    -80.223300  -43.821800  -94.614500
  H    -80.119200  -44.487800  -93.748800
  H    -81.021700  -44.208500  -95.349700
  H    -80.569400  -42.862500  -94.180600
  H    -73.322300  -43.450600  -93.156800
  H    -79.057600  -49.408300  -94.813300

 Total Charge           Charge          ....    0
 Multiplicity           Mult            ....    1
 Number of Electrons    NEL             ....  134
 Basis Dimension        Dim             ....  322

ORBITAL ENERGIES
----------------

  NO   OCC          E(Eh)            E(eV)
   0   2.0000     -88.963407     -2420.8174
   1   2.0000     -88.962570     -2420.7946
   2   2.0000     -10.334871      -281.2261
   3   2.0000     -10.331507      -281.1346
   4   2.0000     -10.324195      -280.9356
   5   2.0000     -10.308792      -280.5165
   6   2.0000     -10.306862      -280.4640
   7   2.0000     -10.299345      -280.2594
   8   2.0000     -10.295944      -280.1669
   9   2.0000     -10.294507      -280.1278
  10   2.0000     -10.294099      -280.1167
  11   2.0000     -10.286358      -279.9060
  12   2.0000     -10.285626      -279.8861
  13   2.0000     -10.283356      -279.8243
  14   2.0000     -10.282765      -279.8083
  15   2.0000     -10.280585      -279.7489
  16   2.0000      -8.077760      -219.8070
  17   2.0000      -8.077482      -219.7995
  18   2.0000      -6.036367      -164.2579
  19   2.0000      -6.036213      -164.2537
  20   2.0000      -6.032171      -164.1437
  21   2.0000      -6.031992      -164.1389
  22   2.0000      -6.028576      -164.0459
  23   2.0000      -6.027955      -164.0290
  24   2.0000      -1.006304       -27.3829
  25   2.0000      -0.983478       -26.7618
  26   2.0000      -0.920089       -25.0369
  27   2.0000      -0.896738       -24.4015
  28   2.0000      -0.871829       -23.7237
  29   2.0000      -0.841232       -22.8911
  30   2.0000      -0.835003       -22.7216
  31   2.0000      -0.815837       -22.2001
  32   2.0000      -0.783005       -21.3067
  33   2.0000      -0.775153       -21.0930
  34   2.0000      -0.715873       -19.4799
  35   2.0000      -0.701219       -19.0811
  36   2.0000      -0.689740       -18.7688
  37   2.0000      -0.665904       -18.1202
  38   2.0000      -0.639688       -17.4068
  39   2.0000      -0.618990       -16.8436
  40   2.0000      -0.589207       -16.0331
  41   2.0000      -0.578396       -15.7390
  42   2.0000      -0.561740       -15.2857
  43   2.0000      -0.553851       -15.0710
  44   2.0000      -0.541642       -14.7388
  45   2.0000      -0.527498       -14.3539
  46   2.0000      -0.512514       -13.9462
  47   2.0000      -0.510137       -13.8815
  48   2.0000      -0.508311       -13.8318
  49   2.0000      -0.498104       -13.5541
  50   2.0000      -0.484811       -13.1924
  51   2.0000      -0.479054       -13.0357
  52   2.0000      -0.469617       -12.7789
  53   2.0000      -0.466102       -12.6833
  54   2.0000      -0.463087       -12.6012
  55   2.0000      -0.450954       -12.2711
  56   2.0000      -0.446506       -12.1500
  57   2.0000      -0.439336       -11.9549
  58   2.0000      -0.431908       -11.7528
  59   2.0000      -0.422178       -11.4880
  60   2.0000      -0.413366       -11.2483
  61   2.0000      -0.411007       -11.1841
  62   2.0000      -0.406779       -11.0690
  63   2.0000      -0.352502        -9.5921
  64   2.0000      -0.329662        -8.9706
  65   2.0000      -0.328390        -8.9359
  66   2.0000      -0.300389        -8.1740
  67   0.0000       0.027300         0.7429
  68   0.0000       0.078327         2.1314
  69   0.0000       0.114337         3.1113
  70   0.0000       0.122161         3.3242
  71   0.0000       0.135821         3.6959

MULLIKEN ATOMIC CHARGES
-----------------------
   0 S :    0.088579
   1 C :   -0.132516
   2 C :   -0.083133
   3 C :   -0.017944
   4 C :   -0.108259
   5 H :    0.011894
   6 C :    0.118188
   7 H :   -0.002574
   8 H :    0.041757
   9 C :   -0.129533
  10 H :    0.028966
  11 H :    0.020232
  12 C :   -0.025303
  13 H :    0.048394
  14 H :    0.039455
  15 H :    0.033516
  16 S :    0.089262
  17 C :   -0.092805
  18 C :   -0.012896
  19 C :   -0.082202
  20 C :   -0.144334
  21 H :    0.010367
  22 C :    0.108123
  23 H :    0.015834
  24 H :    0.014411
  25 C :   -0.048704
  26 H :    0.011407
  27 H :    0.049616
  28 C :   -0.095913
  29 H :    0.050678
  30 H :    0.037750
  31 H :    0.040705
  32 H :    0.054855
  33 H :    0.062130
Sum of atomic charges:   -0.0000000

LOEWDIN ATOMIC CHARGES
----------------------
   0 S :    0.386114
   1 C :   -0.187927
   2 C :   -0.061865
   3 C :   -0.069588
   4 C :   -0.188587
   5 H :    0.026308
   6 C :   -0.025371
   7 H :    0.022357
   8 H :    0.033724
   9 C :   -0.049648
  10 H :    0.024640
  11 H :    0.018366
  12 C :   -0.059366
  13 H :    0.034267
  14 H :    0.030929
  15 H :    0.022901
  16 S :    0.390159
  17 C :   -0.171374
  18 C :   -0.069420
  19 C :   -0.051512
  20 C :   -0.197271
  21 H :    0.025065
  22 C :   -0.016143
  23 H :    0.029017
  24 H :    0.016480
  25 C :   -0.031081
  26 H :    0.011649
  27 H :    0.027646
  28 C :   -0.072042
  29 H :    0.027076
  30 H :    0.030364
  31 H :    0.028220
  32 H :    0.036706
  33 H :    0.029208

  Mayer bond orders larger than 0.100000
B(  0-S ,  1-C ) :   1.0905 B(  0-S ,  4-C ) :   1.1485 B(  1-C ,  2-C ) :   1.7191
B(  1-C , 32-H ) :   0.9491 B(  2-C ,  3-C ) :   1.1783 B(  2-C ,  6-C ) :   1.0209
B(  3-C ,  4-C ) :   1.6016 B(  3-C ,  5-H ) :   0.9998 B(  4-C , 20-C ) :   1.0213
B(  6-C ,  7-H ) :   0.9379 B(  6-C ,  8-H ) :   0.9336 B(  6-C ,  9-C ) :   1.0548
B(  9-C , 10-H ) :   0.9678 B(  9-C , 11-H ) :   0.9531 B(  9-C , 12-C ) :   1.0507
B( 12-C , 13-H ) :   0.9794 B( 12-C , 14-H ) :   0.9776 B( 12-C , 15-H ) :   0.9826
B( 16-S , 17-C ) :   1.1593 B( 16-S , 20-C ) :   1.1359 B( 17-C , 18-C ) :   1.5846
B( 17-C , 20-C ) :   0.1010 B( 17-C , 33-H ) :   0.9749 B( 18-C , 19-C ) :   1.2528
B( 18-C , 21-H ) :   0.9930 B( 19-C , 20-C ) :   1.5999 B( 19-C , 22-C ) :   1.0201
B( 22-C , 23-H ) :   0.9354 B( 22-C , 24-H ) :   0.9399 B( 22-C , 25-C ) :   1.0678
B( 25-C , 26-H ) :   0.9592 B( 25-C , 27-H ) :   0.9591 B( 25-C , 28-C ) :   1.0578
B( 28-C , 29-H ) :   0.9784 B( 28-C , 30-H ) :   0.9772 B( 28-C , 31-H ) :   0.9777

Dispersion correction           -0.014916866
FINAL SINGLE POINT ENERGY     -1339.867247551886

DIPOLE MOMENT
-------------
                                X             Y             Z
Electronic contribution:     -1.38023     -19.22408      16.36044
Nuclear contribution   :      1.37797      19.60677     -17.04346
                        -----------------------------------------
Total Dipole Moment    :     -0.00226       0.38269      -0.68302
                        -----------------------------------------
Magnitude (a.u.)       :      0.78293
Magnitude (Debye)      :      1.99005

Rotational constants in cm-1:     0.020143     0.008092     0.007312
Rotational constants in MHz :   603.871166   242.602936   219.211041

                             ****ORCA TERMINATED NORMALLY****
TOTAL RUN TIME: 0 days 0 hours 0 minutes 22 seconds 135 msec
