                         Program Version 4.2.1 -  RELEASE  -
|  1> ! wB97X-D3 SP def2-SVP
|  2> %pal
|  3> nprocs 24
|  4> end
|  5>
|  6> * xyz 0 1
|  7> S 	 -26.1902 	 -32.2442 	 -95.9901
|  8> C 	 -25.1192 	 -33.5603 	 -96.5929
|  9> C 	 -24.7436 	 -33.2779 	 -97.8898
| 10> C 	 -25.0068 	 -31.8984 	 -98.2353
| 11> C 	 -25.7144 	 -31.1495 	 -97.3261
| 12> H 	 -24.6671 	 -31.533 	 -99.131
| 13> C 	 -24.1074 	 -34.1968 	 -98.8888
| 14> H 	 -24.8217 	 -34.2138 	 -99.7696
| 15> H 	 -24.0223 	 -35.3016 	 -98.5314
| 16> C 	 -22.7256 	 -33.8469 	 -99.4392
| 17> H 	 -22.7701 	 -32.8421 	 -99.8778
| 18> H 	 -21.9848 	 -33.7144 	 -98.6701
| 19> C 	 -22.1416 	 -34.9055 	 -100.433
| 20> H 	 -22.6612 	 -35.0349 	 -101.371
| 21> H 	 -21.059 	 -34.581 	 -100.713
| 22> H 	 -21.99 	 -35.8819 	 -100.053
| 23> S 	 -27.1777 	 -29.0254 	 -98.5253
| 24> C 	 -26.8353 	 -27.3638 	 -97.9816
| 25> C 	 -25.8723 	 -27.3716 	 -96.9601
| 26> C 	 -25.392 	 -28.7023 	 -96.6701
| 27> C 	 -25.9996 	 -29.7416 	 -97.3836
| 28> H 	 -25.4887 	 -26.3933 	 -96.6561
| 29> C 	 -24.1133 	 -28.8677 	 -95.7899
| 30> H 	 -23.6492 	 -29.8384 	 -95.9245
| 31> H 	 -24.4731 	 -28.739 	 -94.7603
| 32> C 	 -22.9597 	 -27.9297 	 -95.9669
| 33> H 	 -23.2948 	 -26.9002 	 -95.971
| 34> H 	 -22.4656 	 -28.0557 	 -96.8464
| 35> C 	 -21.887 	 -28.0904 	 -94.7578
| 36> H 	 -22.4103 	 -27.7421 	 -93.846
| 37> H 	 -21.0603 	 -27.4134 	 -94.9821
| 38> H 	 -21.4302 	 -29.0837 	 -94.6147
| 39> H 	 -25.1797 	 -34.533 	 -96.124
| 40> H 	 -27.3604 	 -26.5223 	 -98.403
| 41> *
| 42>
| 43>                          ****END OF INPUT****

CARTESIAN COORDINATES (ANGSTROEM)
---------------------------------
  S    -26.190200  -32.244200  -95.990100
  C    -25.119200  -33.560300  -96.592900
  C    -24.743600  -33.277900  -97.889800
  C    -25.006800  -31.898400  -98.235300
  C    -25.714400  -31.149500  -97.326100
  H    -24.667100  -31.533000  -99.131000
  C    -24.107400  -34.196800  -98.888800
  H    -24.821700  -34.213800  -99.769600
  H    -24.022300  -35.301600  -98.531400
  C    -22.725600  -33.846900  -99.439200
  H    -22.770100  -32.842100  -99.877800
  H    -21.984800  -33.714400  -98.670100
  C    -22.141600  -34.905500  -100.433000
  H    -22.661200  -35.034900  -101.371000
  H    -21.059000  -34.581000  -100.713000
  H    -21.990000  -35.881900  -100.053000
  S    -27.177700  -29.025400  -98.525300
  C    -26.835300  -27.363800  -97.981600
  C    -25.872300  -27.371600  -96.960100
  C    -25.392000  -28.702300  -96.670100
  C    -25.999600  -29.741600  -97.383600
  H    -25.488700  -26.393300  -96.656100
  C    -24.113300  -28.867700  -95.789900
  H    -23.649200  -29.838400  -95.924500
  H    -24.473100  -28.739000  -94.760300
  C    -22.959700  -27.929700  -95.966900
  H    -23.294800  -26.900200  -95.971000
  H    -22.465600  -28.055700  -96.846400
  C    -21.887000  -28.090400  -94.757800
  H    -22.410300  -27.742100  -93.846000
  H    -21.060300  -27.413400  -94.982100
  H    -21.430200  -29.083700  -94.614700
  H    -25.179700  -34.533000  -96.124000
  H    -27.360400  -26.522300  -98.403000

 Total Charge           Charge          ....    0
 Multiplicity           Mult            ....    1
 Number of Electrons    NEL             ....  134
 Basis Dimension        Dim             ....  322

ORBITAL ENERGIES
----------------

  NO   OCC          E(Eh)            E(eV)
   0   2.0000     -88.966046     -2420.8892
   1   2.0000     -88.961436     -2420.7637
   2   2.0000     -10.333200      -281.1807
   3   2.0000     -10.330601      -281.1099
   4   2.0000     -10.326883      -281.0088
   5   2.0000     -10.319787      -280.8157
   6   2.0000     -10.311476      -280.5895
   7   2.0000     -10.305739      -280.4334
   8   2.0000     -10.305178      -280.4182
   9   2.0000     -10.302578      -280.3474
  10   2.0000     -10.292218      -280.0655
  11   2.0000     -10.290908      -280.0298
  12   2.0000     -10.287405      -279.9345
  13   2.0000     -10.286303      -279.9045
  14   2.0000     -10.285488      -279.8824
  15   2.0000     -10.279994      -279.7329
  16   2.0000      -8.079656      -219.8586
  17   2.0000      -8.075060      -219.7336
  18   2.0000      -6.038254      -164.3092
  19   2.0000      -6.034223      -164.1995
  20   2.0000      -6.033770      -164.1872
  21   2.0000      -6.030487      -164.0979
  22   2.0000      -6.029848      -164.0805
  23   2.0000      -6.025523      -163.9628
  24   2.0000      -0.997424       -27.1413
  25   2.0000      -0.975530       -26.5455
  26   2.0000      -0.908719       -24.7275
  27   2.0000      -0.903744       -24.5921
  28   2.0000      -0.870493       -23.6873
  29   2.0000      -0.842999       -22.9392
  30   2.0000      -0.839001       -22.8304
  31   2.0000      -0.813828       -22.1454
  32   2.0000      -0.779111       -21.2007
  33   2.0000      -0.769516       -20.9396
  34   2.0000      -0.711953       -19.3732
  35   2.0000      -0.703018       -19.1301
  36   2.0000      -0.698089       -18.9960
  37   2.0000      -0.658263       -17.9123
  38   2.0000      -0.642842       -17.4926
  39   2.0000      -0.623676       -16.9711
  40   2.0000      -0.597090       -16.2477
  41   2.0000      -0.569616       -15.5000
  42   2.0000      -0.566880       -15.4256
  43   2.0000      -0.558283       -15.1917
  44   2.0000      -0.523617       -14.2483
  45   2.0000      -0.519158       -14.1270
  46   2.0000      -0.513451       -13.9717
  47   2.0000      -0.511689       -13.9238
  48   2.0000      -0.504281       -13.7222
  49   2.0000      -0.502107       -13.6630
  50   2.0000      -0.486752       -13.2452
  51   2.0000      -0.476597       -12.9689
  52   2.0000      -0.470584       -12.8052
  53   2.0000      -0.463435       -12.6107
  54   2.0000      -0.460020       -12.5178
  55   2.0000      -0.450695       -12.2640
  56   2.0000      -0.442978       -12.0540
  57   2.0000      -0.436006       -11.8643
  58   2.0000      -0.433304       -11.7908
  59   2.0000      -0.423246       -11.5171
  60   2.0000      -0.421849       -11.4791
  61   2.0000      -0.412250       -11.2179
  62   2.0000      -0.405562       -11.0359
  63   2.0000      -0.335058        -9.1174
  64   2.0000      -0.331831        -9.0296
  65   2.0000      -0.321440        -8.7468
  66   2.0000      -0.306820        -8.3490
  67   0.0000       0.031181         0.8485
  68   0.0000       0.053988         1.4691
  69   0.0000       0.100404         2.7321
  70   0.0000       0.115902         3.1539
  71   0.0000       0.127774         3.4769

MULLIKEN ATOMIC CHARGES
-----------------------
   0 S :    0.086238
   1 C :   -0.130013
   2 C :   -0.045445
   3 C :    0.063434
   4 C :   -0.148477
   5 H :   -0.026510
   6 C :    0.002864
   7 H :    0.049419
   8 H :    0.034845
   9 C :   -0.059783
  10 H :    0.027309
  11 H :    0.026980
  12 C :   -0.068478
  13 H :    0.034091
  14 H :    0.038590
  15 H :    0.026622
  16 S :    0.096502
  17 C :   -0.112496
  18 C :   -0.032189
  19 C :   -0.008543
  20 C :   -0.163005
  21 H :    0.035736
  22 C :    0.074319
  23 H :    0.035258
  24 H :    0.031914
  25 C :   -0.054845
  26 H :    0.016637
  27 H :    0.011411
  28 C :   -0.087784
  29 H :    0.039567
  30 H :    0.034953
  31 H :    0.046073
  32 H :    0.058450
  33 H :    0.066356
Sum of atomic charges:    0.0000000

LOEWDIN ATOMIC CHARGES
----------------------
   0 S :    0.362995
   1 C :   -0.174760
   2 C :   -0.063446
   3 C :   -0.043304
   4 C :   -0.178034
   5 H :    0.013767
   6 C :   -0.045599
   7 H :    0.042221
   8 H :    0.037631
   9 C :   -0.043212
  10 H :    0.023581
  11 H :    0.023812
  12 C :   -0.068454
  13 H :    0.022341
  14 H :    0.038642
  15 H :    0.018386
  16 S :    0.378598
  17 C :   -0.166129
  18 C :   -0.076512
  19 C :   -0.043749
  20 C :   -0.201847
  21 H :    0.036038
  22 C :   -0.031606
  23 H :    0.032345
  24 H :    0.034637
  25 C :   -0.028378
  26 H :    0.018179
  27 H :    0.008802
  28 C :   -0.063659
  29 H :    0.027271
  30 H :    0.025551
  31 H :    0.027133
  32 H :    0.027900
  33 H :    0.028859

  Mayer bond orders larger than 0.100000
B(  0-S ,  1-C ) :   1.1257 B(  0-S ,  4-C ) :   1.1145 B(  1-C ,  2-C ) :   1.6235
B(  1-C , 32-H ) :   0.9668 B(  2-C ,  3-C ) :   1.2108 B(  2-C ,  6-C ) :   1.0303
B(  3-C ,  4-C ) :   1.6035 B(  3-C ,  5-H ) :   1.0067 B(  4-C , 20-C ) :   1.0591
B(  6-C ,  7-H ) :   0.9351 B(  6-C ,  8-H ) :   0.9477 B(  6-C ,  9-C ) :   1.0598
B(  9-C , 10-H ) :   0.9522 B(  9-C , 11-H ) :   0.9549 B(  9-C , 12-C ) :   1.0779
B( 12-C , 13-H ) :   0.9780 B( 12-C , 14-H ) :   0.9746 B( 12-C , 15-H ) :   0.9760
B( 16-S , 17-C ) :   1.1668 B( 16-S , 20-C ) :   1.1146 B( 17-C , 18-C ) :   1.6011
B( 17-C , 20-C ) :   0.1011 B( 17-C , 33-H ) :   0.9684 B( 18-C , 19-C ) :   1.2324
B( 18-C , 21-H ) :   0.9864 B( 19-C , 20-C ) :   1.6037 B( 19-C , 22-C ) :   1.0241
B( 22-C , 23-H ) :   0.9442 B( 22-C , 24-H ) :   0.9327 B( 22-C , 25-C ) :   1.0732
B( 25-C , 26-H ) :   0.9493 B( 25-C , 27-H ) :   0.9582 B( 25-C , 28-C ) :   1.0727
B( 28-C , 29-H ) :   0.9782 B( 28-C , 30-H ) :   0.9770 B( 28-C , 31-H ) :   0.9794

Dispersion correction           -0.013578870
FINAL SINGLE POINT ENERGY     -1339.862745536418

DIPOLE MOMENT
-------------
                                X             Y             Z
Electronic contribution:    -26.19825       4.43930       2.42006
Nuclear contribution   :     26.82172      -4.37707      -2.69468
                        -----------------------------------------
Total Dipole Moment    :      0.62347       0.06223      -0.27462
                        -----------------------------------------
Magnitude (a.u.)       :      0.68411
Magnitude (Debye)      :      1.73886

Rotational constants in cm-1:     0.016294     0.007718     0.006750
Rotational constants in MHz :   488.468950   231.380582   202.352434

                             ****ORCA TERMINATED NORMALLY****
TOTAL RUN TIME: 0 days 0 hours 0 minutes 20 seconds 555 msec
