                         Program Version 4.2.1 -  RELEASE  -
|  1> ! wB97X-D3 SP def2-SVP
|  2> %pal
|  3> nprocs 24
|  4> end
|  5>
|  6> * xyz 0 1
|  7> S 	 -116.608 	 16.8966 	 -108.894
|  8> C 	 -115.709 	 18.3064 	 -109.299
|  9> C 	 -114.949 	 18.2352 	 -110.439
| 10> C 	 -115.108 	 16.9081 	 -111.055
| 11> C 	 -116.01 	 16.0806 	 -110.34
| 12> H 	 -114.584 	 16.4907 	 -111.857
| 13> C 	 -113.802 	 19.1444 	 -110.705
| 14> H 	 -112.871 	 18.5128 	 -110.606
| 15> H 	 -113.838 	 19.7817 	 -109.842
| 16> C 	 -113.746 	 19.8082 	 -112.051
| 17> H 	 -114.146 	 19.1895 	 -112.856
| 18> H 	 -114.297 	 20.7033 	 -111.963
| 19> C 	 -112.313 	 20.1725 	 -112.435
| 20> H 	 -112.303 	 20.7635 	 -113.38
| 21> H 	 -111.78 	 20.8 	 -111.692
| 22> H 	 -111.697 	 19.2946 	 -112.551
| 23> S 	 -115.824 	 13.3694 	 -109.894
| 24> C 	 -116.637 	 12.264 	 -110.899
| 25> C 	 -117.231 	 12.9448 	 -111.931
| 26> C 	 -117.117 	 14.3521 	 -111.963
| 27> C 	 -116.45 	 14.7489 	 -110.834
| 28> H 	 -117.725 	 12.4164 	 -112.791
| 29> C 	 -117.593 	 15.2179 	 -113.059
| 30> H 	 -117.691 	 16.181 	 -112.601
| 31> H 	 -118.582 	 14.9447 	 -113.502
| 32> C 	 -116.75 	 15.2124 	 -114.344
| 33> H 	 -116.68 	 14.2381 	 -114.745
| 34> H 	 -115.855 	 15.6849 	 -113.919
| 35> C 	 -117.173 	 16.2236 	 -115.435
| 36> H 	 -117.538 	 17.061 	 -114.917
| 37> H 	 -117.907 	 16.0329 	 -116.231
| 38> H 	 -116.277 	 16.4882 	 -116.038
| 39> H 	 -115.652 	 19.2131 	 -108.644
| 40> H 	 -116.758 	 11.2209 	 -110.655
| 41> *
| 42>
| 43>                          ****END OF INPUT****

CARTESIAN COORDINATES (ANGSTROEM)
---------------------------------
  S    -116.608000   16.896600  -108.894000
  C    -115.709000   18.306400  -109.299000
  C    -114.949000   18.235200  -110.439000
  C    -115.108000   16.908100  -111.055000
  C    -116.010000   16.080600  -110.340000
  H    -114.584000   16.490700  -111.857000
  C    -113.802000   19.144400  -110.705000
  H    -112.871000   18.512800  -110.606000
  H    -113.838000   19.781700  -109.842000
  C    -113.746000   19.808200  -112.051000
  H    -114.146000   19.189500  -112.856000
  H    -114.297000   20.703300  -111.963000
  C    -112.313000   20.172500  -112.435000
  H    -112.303000   20.763500  -113.380000
  H    -111.780000   20.800000  -111.692000
  H    -111.697000   19.294600  -112.551000
  S    -115.824000   13.369400  -109.894000
  C    -116.637000   12.264000  -110.899000
  C    -117.231000   12.944800  -111.931000
  C    -117.117000   14.352100  -111.963000
  C    -116.450000   14.748900  -110.834000
  H    -117.725000   12.416400  -112.791000
  C    -117.593000   15.217900  -113.059000
  H    -117.691000   16.181000  -112.601000
  H    -118.582000   14.944700  -113.502000
  C    -116.750000   15.212400  -114.344000
  H    -116.680000   14.238100  -114.745000
  H    -115.855000   15.684900  -113.919000
  C    -117.173000   16.223600  -115.435000
  H    -117.538000   17.061000  -114.917000
  H    -117.907000   16.032900  -116.231000
  H    -116.277000   16.488200  -116.038000
  H    -115.652000   19.213100  -108.644000
  H    -116.758000   11.220900  -110.655000

 Total Charge           Charge          ....    0
 Multiplicity           Mult            ....    1
 Number of Electrons    NEL             ....  134
 Basis Dimension        Dim             ....  322

ORBITAL ENERGIES
----------------

  NO   OCC          E(Eh)            E(eV)
   0   2.0000     -88.969941     -2420.9952
   1   2.0000     -88.961388     -2420.7624
   2   2.0000     -10.333068      -281.1771
   3   2.0000     -10.327134      -281.0156
   4   2.0000     -10.315424      -280.6969
   5   2.0000     -10.312964      -280.6300
   6   2.0000     -10.300251      -280.2841
   7   2.0000     -10.299732      -280.2700
   8   2.0000     -10.298024      -280.2235
   9   2.0000     -10.291358      -280.0421
  10   2.0000     -10.291238      -280.0388
  11   2.0000     -10.288220      -279.9567
  12   2.0000     -10.287073      -279.9255
  13   2.0000     -10.282105      -279.7903
  14   2.0000     -10.280672      -279.7513
  15   2.0000     -10.277415      -279.6627
  16   2.0000      -8.084713      -219.9962
  17   2.0000      -8.076982      -219.7859
  18   2.0000      -6.043238      -164.4449
  19   2.0000      -6.039197      -164.3349
  20   2.0000      -6.035470      -164.2335
  21   2.0000      -6.035434      -164.2325
  22   2.0000      -6.031321      -164.1206
  23   2.0000      -6.027808      -164.0250
  24   2.0000      -1.007148       -27.4059
  25   2.0000      -0.986800       -26.8522
  26   2.0000      -0.919147       -25.0113
  27   2.0000      -0.915988       -24.9253
  28   2.0000      -0.868567       -23.6349
  29   2.0000      -0.855993       -23.2928
  30   2.0000      -0.849188       -23.1076
  31   2.0000      -0.810229       -22.0475
  32   2.0000      -0.785533       -21.3754
  33   2.0000      -0.771310       -20.9884
  34   2.0000      -0.707887       -19.2626
  35   2.0000      -0.700997       -19.0751
  36   2.0000      -0.692298       -18.8384
  37   2.0000      -0.659976       -17.9589
  38   2.0000      -0.643987       -17.5238
  39   2.0000      -0.616475       -16.7751
  40   2.0000      -0.601035       -16.3550
  41   2.0000      -0.576475       -15.6867
  42   2.0000      -0.574302       -15.6275
  43   2.0000      -0.559453       -15.2235
  44   2.0000      -0.534681       -14.5494
  45   2.0000      -0.525773       -14.3070
  46   2.0000      -0.519396       -14.1335
  47   2.0000      -0.513571       -13.9750
  48   2.0000      -0.503725       -13.7071
  49   2.0000      -0.498849       -13.5744
  50   2.0000      -0.489614       -13.3231
  51   2.0000      -0.478446       -13.0192
  52   2.0000      -0.470406       -12.8004
  53   2.0000      -0.464205       -12.6317
  54   2.0000      -0.456271       -12.4158
  55   2.0000      -0.452038       -12.3006
  56   2.0000      -0.449697       -12.2369
  57   2.0000      -0.438356       -11.9283
  58   2.0000      -0.435363       -11.8468
  59   2.0000      -0.427071       -11.6212
  60   2.0000      -0.425531       -11.5793
  61   2.0000      -0.419814       -11.4237
  62   2.0000      -0.403509       -10.9800
  63   2.0000      -0.333513        -9.0754
  64   2.0000      -0.330533        -8.9943
  65   2.0000      -0.325672        -8.8620
  66   2.0000      -0.304881        -8.2962
  67   0.0000       0.036411         0.9908
  68   0.0000       0.065819         1.7910
  69   0.0000       0.107635         2.9289
  70   0.0000       0.119172         3.2428
  71   0.0000       0.124425         3.3858

MULLIKEN ATOMIC CHARGES
-----------------------
   0 S :    0.134653
   1 C :   -0.142553
   2 C :   -0.072165
   3 C :    0.049335
   4 C :   -0.174481
   5 H :    0.003535
   6 C :    0.042353
   7 H :    0.041912
   8 H :    0.007837
   9 C :   -0.022768
  10 H :    0.035208
  11 H :    0.021317
  12 C :   -0.082681
  13 H :    0.038473
  14 H :    0.030968
  15 H :    0.030935
  16 S :    0.101853
  17 C :   -0.077877
  18 C :   -0.061232
  19 C :    0.020404
  20 C :   -0.214255
  21 H :    0.024905
  22 C :    0.049373
  23 H :    0.028290
  24 H :    0.022559
  25 C :   -0.046031
  26 H :    0.030731
  27 H :    0.018215
  28 C :   -0.051374
  29 H :    0.016753
  30 H :    0.034021
  31 H :    0.037623
  32 H :    0.063273
  33 H :    0.060891
Sum of atomic charges:   -0.0000000

LOEWDIN ATOMIC CHARGES
----------------------
   0 S :    0.415203
   1 C :   -0.210713
   2 C :   -0.069511
   3 C :   -0.045989
   4 C :   -0.203121
   5 H :    0.018958
   6 C :   -0.032279
   7 H :    0.040378
   8 H :    0.027239
   9 C :   -0.038922
  10 H :    0.028084
  11 H :    0.022276
  12 C :   -0.068586
  13 H :    0.029770
  14 H :    0.025801
  15 H :    0.020212
  16 S :    0.410097
  17 C :   -0.198692
  18 C :   -0.078473
  19 C :   -0.056187
  20 C :   -0.187482
  21 H :    0.033842
  22 C :   -0.035614
  23 H :    0.029742
  24 H :    0.032761
  25 C :   -0.029024
  26 H :    0.019092
  27 H :    0.027334
  28 C :   -0.071385
  29 H :    0.019250
  30 H :    0.025295
  31 H :    0.033366
  32 H :    0.035862
  33 H :    0.031417

  Mayer bond orders larger than 0.100000
B(  0-S ,  1-C ) :   1.1470 B(  0-S ,  4-C ) :   1.1449 B(  1-C ,  2-C ) :   1.6330
B(  1-C , 32-H ) :   0.9505 B(  2-C ,  3-C ) :   1.2018 B(  2-C ,  6-C ) :   1.0326
B(  3-C ,  4-C ) :   1.5904 B(  3-C ,  5-H ) :   0.9977 B(  4-C , 20-C ) :   1.0053
B(  6-C ,  7-H ) :   0.9493 B(  6-C ,  8-H ) :   0.9371 B(  6-C ,  9-C ) :   1.0437
B(  9-C , 10-H ) :   0.9629 B(  9-C , 11-H ) :   0.9476 B(  9-C , 12-C ) :   1.0858
B( 12-C , 13-H ) :   0.9740 B( 12-C , 14-H ) :   0.9739 B( 12-C , 15-H ) :   0.9763
B( 16-S , 17-C ) :   1.1578 B( 16-S , 20-C ) :   1.1588 B( 17-C , 18-C ) :   1.5934
B( 17-C , 33-H ) :   0.9710 B( 18-C , 19-C ) :   1.2455 B( 18-C , 21-H ) :   0.9783
B( 19-C , 20-C ) :   1.5935 B( 19-C , 22-C ) :   1.0677 B( 22-C , 23-H ) :   0.9218
B( 22-C , 24-H ) :   0.9308 B( 22-C , 25-C ) :   1.0626 B( 25-C , 26-H ) :   0.9602
B( 25-C , 27-H ) :   0.9512 B( 25-C , 28-C ) :   1.0751 B( 28-C , 29-H ) :   0.9726
B( 28-C , 30-H ) :   0.9760 B( 28-C , 31-H ) :   0.9768

Dispersion correction           -0.013965064
FINAL SINGLE POINT ENERGY     -1339.865082982391

DIPOLE MOMENT
-------------
                                X             Y             Z
Electronic contribution:     -8.26944     -17.27195      24.61763
Nuclear contribution   :      8.47679      17.54470     -25.10533
                        -----------------------------------------
Total Dipole Moment    :      0.20735       0.27276      -0.48770
                        -----------------------------------------
Magnitude (a.u.)       :      0.59602
Magnitude (Debye)      :      1.51497

Rotational constants in cm-1:     0.016560     0.008946     0.006707
Rotational constants in MHz :   496.464309   268.203574   201.057197

                             ****ORCA TERMINATED NORMALLY****
TOTAL RUN TIME: 0 days 0 hours 0 minutes 21 seconds 431 msec
