                         Program Version 4.2.1 -  RELEASE  -
|  1> ! wB97X-D3 SP def2-SVP
|  2> %pal
|  3> nprocs 24
|  4> end
|  5>
|  6> * xyz 0 1
|  7> S 	 -84.9982 	 -3.01766 	 -65.8563
|  8> C 	 -84.9375 	 -1.59226 	 -66.8579
|  9> C 	 -84.7208 	 -0.404525 	 -66.0919
| 10> C 	 -84.7724 	 -0.722395 	 -64.7101
| 11> C 	 -84.9424 	 -2.05453 	 -64.4251
| 12> H 	 -84.5421 	 0.0336225 	 -63.942
| 13> C 	 -84.4128 	 1.01478 	 -66.5516
| 14> H 	 -85.3324 	 1.57165 	 -66.4858
| 15> H 	 -84.166 	 1.0071 	 -67.6236
| 16> C 	 -83.2038 	 1.68157 	 -65.8225
| 17> H 	 -83.2208 	 2.80962 	 -65.9337
| 18> H 	 -83.2483 	 1.40996 	 -64.7739
| 19> C 	 -81.8113 	 1.21383 	 -66.3367
| 20> H 	 -81.1124 	 1.26749 	 -65.4682
| 21> H 	 -81.7396 	 0.189131 	 -66.5676
| 22> H 	 -81.5077 	 1.90157 	 -67.1368
| 23> S 	 -83.5732 	 -2.46332 	 -62.1381
| 24> C 	 -84.4112 	 -2.88527 	 -60.6451
| 25> C 	 -85.6857 	 -3.25667 	 -60.8739
| 26> C 	 -86.1265 	 -3.06379 	 -62.2661
| 27> C 	 -85.0276 	 -2.55549 	 -63.0732
| 28> H 	 -86.3073 	 -3.47978 	 -60.0803
| 29> C 	 -87.5082 	 -3.25098 	 -62.7732
| 30> H 	 -87.8985 	 -4.09138 	 -62.2197
| 31> H 	 -87.2985 	 -3.56795 	 -63.853
| 32> C 	 -88.3835 	 -2.0398 	 -62.723
| 33> H 	 -89.4222 	 -2.25716 	 -63.1207
| 34> H 	 -87.9357 	 -1.34829 	 -63.4426
| 35> C 	 -88.6038 	 -1.2719 	 -61.3805
| 36> H 	 -89.0407 	 -1.90249 	 -60.5345
| 37> H 	 -89.0789 	 -0.280588 	 -61.5839
| 38> H 	 -87.6903 	 -0.93285 	 -60.8911
| 39> H 	 -84.6951 	 -1.58703 	 -67.9266
| 40> H 	 -83.9147 	 -2.86512 	 -59.6396
| 41> *
| 42>
| 43>                          ****END OF INPUT****

CARTESIAN COORDINATES (ANGSTROEM)
---------------------------------
  S    -84.998200   -3.017660  -65.856300
  C    -84.937500   -1.592260  -66.857900
  C    -84.720800   -0.404525  -66.091900
  C    -84.772400   -0.722395  -64.710100
  C    -84.942400   -2.054530  -64.425100
  H    -84.542100    0.033622  -63.942000
  C    -84.412800    1.014780  -66.551600
  H    -85.332400    1.571650  -66.485800
  H    -84.166000    1.007100  -67.623600
  C    -83.203800    1.681570  -65.822500
  H    -83.220800    2.809620  -65.933700
  H    -83.248300    1.409960  -64.773900
  C    -81.811300    1.213830  -66.336700
  H    -81.112400    1.267490  -65.468200
  H    -81.739600    0.189131  -66.567600
  H    -81.507700    1.901570  -67.136800
  S    -83.573200   -2.463320  -62.138100
  C    -84.411200   -2.885270  -60.645100
  C    -85.685700   -3.256670  -60.873900
  C    -86.126500   -3.063790  -62.266100
  C    -85.027600   -2.555490  -63.073200
  H    -86.307300   -3.479780  -60.080300
  C    -87.508200   -3.250980  -62.773200
  H    -87.898500   -4.091380  -62.219700
  H    -87.298500   -3.567950  -63.853000
  C    -88.383500   -2.039800  -62.723000
  H    -89.422200   -2.257160  -63.120700
  H    -87.935700   -1.348290  -63.442600
  C    -88.603800   -1.271900  -61.380500
  H    -89.040700   -1.902490  -60.534500
  H    -89.078900   -0.280588  -61.583900
  H    -87.690300   -0.932850  -60.891100
  H    -84.695100   -1.587030  -67.926600
  H    -83.914700   -2.865120  -59.639600

 Total Charge           Charge          ....    0
 Multiplicity           Mult            ....    1
 Number of Electrons    NEL             ....  134
 Basis Dimension        Dim             ....  322

ORBITAL ENERGIES
----------------

  NO   OCC          E(Eh)            E(eV)
   0   2.0000     -88.973993     -2421.1054
   1   2.0000     -88.963023     -2420.8069
   2   2.0000     -10.326739      -281.0049
   3   2.0000     -10.326370      -280.9948
   4   2.0000     -10.319080      -280.7965
   5   2.0000     -10.317179      -280.7447
   6   2.0000     -10.309147      -280.5261
   7   2.0000     -10.306644      -280.4580
   8   2.0000     -10.296891      -280.1926
   9   2.0000     -10.295624      -280.1582
  10   2.0000     -10.292767      -280.0804
  11   2.0000     -10.289538      -279.9926
  12   2.0000     -10.289423      -279.9894
  13   2.0000     -10.288647      -279.9683
  14   2.0000     -10.284058      -279.8434
  15   2.0000     -10.277672      -279.6697
  16   2.0000      -8.088503      -220.0994
  17   2.0000      -8.077843      -219.8093
  18   2.0000      -6.046932      -164.5454
  19   2.0000      -6.043006      -164.4386
  20   2.0000      -6.039397      -164.3403
  21   2.0000      -6.036363      -164.2578
  22   2.0000      -6.032264      -164.1463
  23   2.0000      -6.028671      -164.0485
  24   2.0000      -1.007260       -27.4089
  25   2.0000      -0.981042       -26.6955
  26   2.0000      -0.909412       -24.7464
  27   2.0000      -0.908677       -24.7264
  28   2.0000      -0.871557       -23.7163
  29   2.0000      -0.849937       -23.1280
  30   2.0000      -0.837234       -22.7823
  31   2.0000      -0.814585       -22.1660
  32   2.0000      -0.784785       -21.3551
  33   2.0000      -0.767605       -20.8876
  34   2.0000      -0.710804       -19.3420
  35   2.0000      -0.696053       -18.9406
  36   2.0000      -0.682794       -18.5798
  37   2.0000      -0.660151       -17.9636
  38   2.0000      -0.634544       -17.2668
  39   2.0000      -0.626917       -17.0593
  40   2.0000      -0.584573       -15.9070
  41   2.0000      -0.570789       -15.5319
  42   2.0000      -0.553239       -15.0544
  43   2.0000      -0.548766       -14.9327
  44   2.0000      -0.544647       -14.8206
  45   2.0000      -0.539685       -14.6856
  46   2.0000      -0.516337       -14.0502
  47   2.0000      -0.508015       -13.8238
  48   2.0000      -0.502864       -13.6836
  49   2.0000      -0.489828       -13.3289
  50   2.0000      -0.484633       -13.1875
  51   2.0000      -0.477019       -12.9803
  52   2.0000      -0.470333       -12.7984
  53   2.0000      -0.462475       -12.5846
  54   2.0000      -0.460188       -12.5223
  55   2.0000      -0.451713       -12.2917
  56   2.0000      -0.441484       -12.0134
  57   2.0000      -0.434902       -11.8343
  58   2.0000      -0.430917       -11.7259
  59   2.0000      -0.426668       -11.6102
  60   2.0000      -0.418003       -11.3744
  61   2.0000      -0.415684       -11.3113
  62   2.0000      -0.407320       -11.0837
  63   2.0000      -0.338137        -9.2012
  64   2.0000      -0.336293        -9.1510
  65   2.0000      -0.322153        -8.7662
  66   2.0000      -0.296370        -8.0646
  67   0.0000       0.035220         0.9584
  68   0.0000       0.059769         1.6264
  69   0.0000       0.108459         2.9513
  70   0.0000       0.117505         3.1975
  71   0.0000       0.126592         3.4448

MULLIKEN ATOMIC CHARGES
-----------------------
   0 S :    0.139440
   1 C :   -0.123857
   2 C :   -0.123116
   3 C :    0.014858
   4 C :   -0.161403
   5 H :    0.029450
   6 C :    0.090901
   7 H :    0.044173
   8 H :    0.016702
   9 C :   -0.114290
  10 H :    0.045437
  11 H :    0.032235
  12 C :   -0.050367
  13 H :    0.032305
  14 H :    0.029669
  15 H :    0.044756
  16 S :    0.106007
  17 C :   -0.115107
  18 C :    0.007240
  19 C :   -0.064706
  20 C :   -0.189379
  21 H :   -0.008779
  22 C :    0.090897
  23 H :    0.019585
  24 H :    0.037198
  25 C :   -0.058582
  26 H :    0.041401
  27 H :    0.030839
  28 C :   -0.088290
  29 H :    0.040677
  30 H :    0.045086
  31 H :    0.026719
  32 H :    0.058020
  33 H :    0.074281
Sum of atomic charges:    0.0000000

LOEWDIN ATOMIC CHARGES
----------------------
   0 S :    0.434331
   1 C :   -0.215304
   2 C :   -0.058331
   3 C :   -0.064583
   4 C :   -0.219274
   5 H :    0.034571
   6 C :   -0.033316
   7 H :    0.034169
   8 H :    0.029819
   9 C :   -0.041365
  10 H :    0.033600
  11 H :    0.018804
  12 C :   -0.065997
  13 H :    0.033724
  14 H :    0.019218
  15 H :    0.028508
  16 S :    0.408418
  17 C :   -0.188588
  18 C :   -0.067636
  19 C :   -0.046123
  20 C :   -0.211690
  21 H :    0.019495
  22 C :   -0.044315
  23 H :    0.027823
  24 H :    0.042622
  25 C :   -0.045384
  26 H :    0.031768
  27 H :    0.029275
  28 C :   -0.083983
  29 H :    0.030645
  30 H :    0.035881
  31 H :    0.021856
  32 H :    0.030642
  33 H :    0.040719

  Mayer bond orders larger than 0.100000
B(  0-S ,  1-C ) :   1.1566 B(  0-S ,  4-C ) :   1.1625 B(  1-C ,  2-C ) :   1.5807
B(  1-C ,  4-C ) :   0.1015 B(  1-C , 32-H ) :   0.9585 B(  2-C ,  3-C ) :   1.2767
B(  2-C ,  6-C ) :   1.0183 B(  3-C ,  4-C ) :   1.5545 B(  3-C ,  5-H ) :   0.9846
B(  4-C , 20-C ) :   1.0279 B(  6-C ,  7-H ) :   0.9373 B(  6-C ,  8-H ) :   0.9429
B(  6-C ,  9-C ) :   1.0560 B(  9-C , 10-H ) :   0.9591 B(  9-C , 11-H ) :   0.9655
B(  9-C , 12-C ) :   1.0675 B( 12-C , 13-H ) :   0.9756 B( 12-C , 14-H ) :   0.9785
B( 12-C , 15-H ) :   0.9788 B( 16-S , 17-C ) :   1.1431 B( 16-S , 20-C ) :   1.1618
B( 17-C , 18-C ) :   1.6270 B( 17-C , 33-H ) :   0.9601 B( 18-C , 19-C ) :   1.2248
B( 18-C , 21-H ) :   0.9989 B( 19-C , 20-C ) :   1.5598 B( 19-C , 22-C ) :   1.0413
B( 22-C , 23-H ) :   0.9268 B( 22-C , 24-H ) :   0.9251 B( 22-C , 25-C ) :   1.0770
B( 25-C , 26-H ) :   0.9541 B( 25-C , 27-H ) :   0.9497 B( 25-C , 28-C ) :   1.0752
B( 28-C , 29-H ) :   0.9737 B( 28-C , 30-H ) :   0.9722 B( 28-C , 31-H ) :   0.9692

Dispersion correction           -0.015227292
FINAL SINGLE POINT ENERGY     -1339.870785747948

DIPOLE MOMENT
-------------
                                X             Y             Z
Electronic contribution:      6.50921     -16.43599       0.59548
Nuclear contribution   :     -6.54375      16.90409      -0.52236
                        -----------------------------------------
Total Dipole Moment    :     -0.03454       0.46810       0.07312
                        -----------------------------------------
Magnitude (a.u.)       :      0.47504
Magnitude (Debye)      :      1.20744

Rotational constants in cm-1:     0.019826     0.008487     0.007780
Rotational constants in MHz :   594.376379   254.445936   233.232037

                             ****ORCA TERMINATED NORMALLY****
TOTAL RUN TIME: 0 days 0 hours 0 minutes 20 seconds 961 msec
