                         Program Version 4.2.1 -  RELEASE  -
|  1> ! wB97X-D3 SP def2-SVP
|  2> %pal
|  3> nprocs 24
|  4> end
|  5>
|  6> * xyz 0 1
|  7> S 	 -108.046 	 32.7516 	 -18.203
|  8> C 	 -107.143 	 33.7286 	 -17.0207
|  9> C 	 -106.175 	 34.4326 	 -17.6259
| 10> C 	 -106.295 	 34.4173 	 -19.0984
| 11> C 	 -107.3 	 33.6673 	 -19.5786
| 12> H 	 -105.648 	 34.9183 	 -19.8261
| 13> C 	 -104.998 	 35.2733 	 -17.0387
| 14> H 	 -105.119 	 35.4458 	 -16.0343
| 15> H 	 -105.01 	 36.2653 	 -17.4963
| 16> C 	 -103.648 	 34.567 	 -17.2391
| 17> H 	 -103.699 	 33.5233 	 -16.9734
| 18> H 	 -103.446 	 34.578 	 -18.3172
| 19> C 	 -102.542 	 35.2397 	 -16.365
| 20> H 	 -102.591 	 34.7851 	 -15.4133
| 21> H 	 -101.498 	 35.2269 	 -16.6238
| 22> H 	 -102.707 	 36.2632 	 -16.0793
| 23> S 	 -107.845 	 34.9299 	 -21.9628
| 24> C 	 -108.157 	 33.9226 	 -23.3581
| 25> C 	 -107.997 	 32.5566 	 -23.143
| 26> C 	 -107.742 	 32.2736 	 -21.7775
| 27> C 	 -107.676 	 33.4309 	 -20.9758
| 28> H 	 -108.226 	 31.7973 	 -23.8804
| 29> C 	 -107.521 	 30.9026 	 -21.2394
| 30> H 	 -106.944 	 31.0277 	 -20.3573
| 31> H 	 -106.953 	 30.2933 	 -21.9998
| 32> C 	 -108.658 	 29.9464 	 -20.8274
| 33> H 	 -109.234 	 30.3799 	 -20.0205
| 34> H 	 -108.283 	 29.0514 	 -20.4287
| 35> C 	 -109.708 	 29.8516 	 -21.9602
| 36> H 	 -109.995 	 28.7973 	 -21.9302
| 37> H 	 -109.303 	 30.1648 	 -22.902
| 38> H 	 -110.586 	 30.3392 	 -21.6448
| 39> H 	 -107.181 	 33.6347 	 -15.9631
| 40> H 	 -108.526 	 34.3255 	 -24.2256
| 41> *
| 42>
| 43>                          ****END OF INPUT****

CARTESIAN COORDINATES (ANGSTROEM)
---------------------------------
  S    -108.046000   32.751600  -18.203000
  C    -107.143000   33.728600  -17.020700
  C    -106.175000   34.432600  -17.625900
  C    -106.295000   34.417300  -19.098400
  C    -107.300000   33.667300  -19.578600
  H    -105.648000   34.918300  -19.826100
  C    -104.998000   35.273300  -17.038700
  H    -105.119000   35.445800  -16.034300
  H    -105.010000   36.265300  -17.496300
  C    -103.648000   34.567000  -17.239100
  H    -103.699000   33.523300  -16.973400
  H    -103.446000   34.578000  -18.317200
  C    -102.542000   35.239700  -16.365000
  H    -102.591000   34.785100  -15.413300
  H    -101.498000   35.226900  -16.623800
  H    -102.707000   36.263200  -16.079300
  S    -107.845000   34.929900  -21.962800
  C    -108.157000   33.922600  -23.358100
  C    -107.997000   32.556600  -23.143000
  C    -107.742000   32.273600  -21.777500
  C    -107.676000   33.430900  -20.975800
  H    -108.226000   31.797300  -23.880400
  C    -107.521000   30.902600  -21.239400
  H    -106.944000   31.027700  -20.357300
  H    -106.953000   30.293300  -21.999800
  C    -108.658000   29.946400  -20.827400
  H    -109.234000   30.379900  -20.020500
  H    -108.283000   29.051400  -20.428700
  C    -109.708000   29.851600  -21.960200
  H    -109.995000   28.797300  -21.930200
  H    -109.303000   30.164800  -22.902000
  H    -110.586000   30.339200  -21.644800
  H    -107.181000   33.634700  -15.963100
  H    -108.526000   34.325500  -24.225600

 Total Charge           Charge          ....    0
 Multiplicity           Mult            ....    1
 Number of Electrons    NEL             ....  134
 Basis Dimension        Dim             ....  322

ORBITAL ENERGIES
----------------

  NO   OCC          E(Eh)            E(eV)
   0   2.0000     -88.970590     -2421.0128
   1   2.0000     -88.961391     -2420.7625
   2   2.0000     -10.332661      -281.1660
   3   2.0000     -10.332083      -281.1503
   4   2.0000     -10.316208      -280.7183
   5   2.0000     -10.312995      -280.6309
   6   2.0000     -10.306687      -280.4592
   7   2.0000     -10.304417      -280.3974
   8   2.0000     -10.297480      -280.2087
   9   2.0000     -10.293959      -280.1129
  10   2.0000     -10.290510      -280.0190
  11   2.0000     -10.290349      -280.0146
  12   2.0000     -10.286572      -279.9118
  13   2.0000     -10.276681      -279.6427
  14   2.0000     -10.273444      -279.5546
  15   2.0000     -10.268251      -279.4133
  16   2.0000      -8.084436      -219.9887
  17   2.0000      -8.074812      -219.7268
  18   2.0000      -6.042900      -164.4357
  19   2.0000      -6.039163      -164.3340
  20   2.0000      -6.035213      -164.2265
  21   2.0000      -6.033809      -164.1883
  22   2.0000      -6.029711      -164.0768
  23   2.0000      -6.024932      -163.9467
  24   2.0000      -1.000704       -27.2305
  25   2.0000      -0.979461       -26.6525
  26   2.0000      -0.910215       -24.7682
  27   2.0000      -0.908209       -24.7136
  28   2.0000      -0.871979       -23.7278
  29   2.0000      -0.852727       -23.2039
  30   2.0000      -0.838049       -22.8045
  31   2.0000      -0.816008       -22.2047
  32   2.0000      -0.784800       -21.3555
  33   2.0000      -0.776206       -21.1216
  34   2.0000      -0.712995       -19.4016
  35   2.0000      -0.706067       -19.2131
  36   2.0000      -0.692509       -18.8441
  37   2.0000      -0.672724       -18.3057
  38   2.0000      -0.638999       -17.3881
  39   2.0000      -0.616328       -16.7711
  40   2.0000      -0.592610       -16.1257
  41   2.0000      -0.566940       -15.4272
  42   2.0000      -0.563220       -15.3260
  43   2.0000      -0.558260       -15.1910
  44   2.0000      -0.548060       -14.9135
  45   2.0000      -0.526324       -14.3220
  46   2.0000      -0.516138       -14.0448
  47   2.0000      -0.510421       -13.8892
  48   2.0000      -0.509602       -13.8670
  49   2.0000      -0.495549       -13.4846
  50   2.0000      -0.486557       -13.2399
  51   2.0000      -0.480194       -13.0667
  52   2.0000      -0.472992       -12.8708
  53   2.0000      -0.466014       -12.6809
  54   2.0000      -0.460703       -12.5364
  55   2.0000      -0.452042       -12.3007
  56   2.0000      -0.442326       -12.0363
  57   2.0000      -0.440392       -11.9837
  58   2.0000      -0.438354       -11.9282
  59   2.0000      -0.421993       -11.4830
  60   2.0000      -0.420490       -11.4421
  61   2.0000      -0.412254       -11.2180
  62   2.0000      -0.401754       -10.9323
  63   2.0000      -0.352692        -9.5972
  64   2.0000      -0.335932        -9.1412
  65   2.0000      -0.324312        -8.8250
  66   2.0000      -0.292902        -7.9703
  67   0.0000       0.029326         0.7980
  68   0.0000       0.064996         1.7686
  69   0.0000       0.092938         2.5290
  70   0.0000       0.110297         3.0013
  71   0.0000       0.132511         3.6058

MULLIKEN ATOMIC CHARGES
-----------------------
   0 S :    0.070486
   1 C :   -0.095231
   2 C :   -0.087649
   3 C :    0.004639
   4 C :   -0.131487
   5 H :    0.022455
   6 C :    0.096441
   7 H :   -0.010156
   8 H :    0.037387
   9 C :   -0.068606
  10 H :    0.035804
  11 H :    0.033413
  12 C :   -0.033898
  13 H :    0.015928
  14 H :    0.033752
  15 H :    0.016467
  16 S :    0.105689
  17 C :   -0.059500
  18 C :   -0.026598
  19 C :   -0.009585
  20 C :   -0.161400
  21 H :    0.030155
  22 C :    0.015243
  23 H :    0.019095
  24 H :    0.035985
  25 C :   -0.039900
  26 H :    0.012550
  27 H :    0.023527
  28 C :   -0.016678
  29 H :    0.024118
  30 H :    0.018111
  31 H :    0.027995
  32 H :    0.034177
  33 H :    0.027270
Sum of atomic charges:    0.0000000

LOEWDIN ATOMIC CHARGES
----------------------
   0 S :    0.351653
   1 C :   -0.178202
   2 C :   -0.055516
   3 C :   -0.068543
   4 C :   -0.169153
   5 H :    0.032140
   6 C :   -0.019238
   7 H :    0.012233
   8 H :    0.034925
   9 C :   -0.031948
  10 H :    0.025829
  11 H :    0.023395
  12 C :   -0.071386
  13 H :    0.023439
  14 H :    0.026406
  15 H :    0.023224
  16 S :    0.396932
  17 C :   -0.162985
  18 C :   -0.066344
  19 C :   -0.050117
  20 C :   -0.180428
  21 H :    0.032825
  22 C :   -0.039162
  23 H :    0.021748
  24 H :    0.037406
  25 C :   -0.031698
  26 H :    0.018422
  27 H :    0.016900
  28 C :   -0.058387
  29 H :    0.030672
  30 H :    0.015645
  31 H :    0.024408
  32 H :    0.026044
  33 H :    0.008858

  Mayer bond orders larger than 0.100000
B(  0-S ,  1-C ) :   1.0943 B(  0-S ,  4-C ) :   1.0906 B(  1-C ,  2-C ) :   1.7104
B(  1-C , 32-H ) :   0.9669 B(  2-C ,  3-C ) :   1.1515 B(  2-C ,  6-C ) :   1.0189
B(  3-C ,  4-C ) :   1.6696 B(  3-C ,  5-H ) :   0.9863 B(  4-C , 20-C ) :   1.0298
B(  6-C ,  7-H ) :   0.9442 B(  6-C ,  8-H ) :   0.9404 B(  6-C ,  9-C ) :   1.0530
B(  9-C , 10-H ) :   0.9634 B(  9-C , 11-H ) :   0.9620 B(  9-C , 12-C ) :   1.0581
B( 12-C , 13-H ) :   0.9742 B( 12-C , 14-H ) :   0.9785 B( 12-C , 15-H ) :   0.9754
B( 16-S , 17-C ) :   1.1655 B( 16-S , 20-C ) :   1.1328 B( 17-C , 18-C ) :   1.5933
B( 17-C , 20-C ) :   0.1038 B( 17-C , 33-H ) :   0.9761 B( 18-C , 19-C ) :   1.2473
B( 18-C , 21-H ) :   0.9835 B( 19-C , 20-C ) :   1.5747 B( 19-C , 22-C ) :   1.0527
B( 22-C , 23-H ) :   0.9230 B( 22-C , 24-H ) :   0.9378 B( 22-C , 25-C ) :   1.0867
B( 25-C , 26-H ) :   0.9535 B( 25-C , 27-H ) :   0.9617 B( 25-C , 28-C ) :   1.0594
B( 28-C , 29-H ) :   0.9722 B( 28-C , 30-H ) :   0.9820 B( 28-C , 31-H ) :   0.9775

Dispersion correction           -0.014333744
FINAL SINGLE POINT ENERGY     -1339.854238213291

DIPOLE MOMENT
-------------
                                X             Y             Z
Electronic contribution:    -11.41322       8.09696      -6.66583
Nuclear contribution   :     11.77867      -8.22619       6.74375
                        -----------------------------------------
Total Dipole Moment    :      0.36545      -0.12923       0.07791
                        -----------------------------------------
Magnitude (a.u.)       :      0.39538
Magnitude (Debye)      :      1.00498

Rotational constants in cm-1:     0.022261     0.007487     0.006424
Rotational constants in MHz :   667.368297   224.468302   192.585028

                             ****ORCA TERMINATED NORMALLY****
TOTAL RUN TIME: 0 days 0 hours 0 minutes 22 seconds 404 msec
