                         Program Version 4.2.1 -  RELEASE  -
|  1> ! wB97X-D3 SP def2-SVP
|  2> %pal
|  3> nprocs 24
|  4> end
|  5>
|  6> * xyz 0 1
|  7> S 	 -103.181 	 0.0353053 	 -120.417
|  8> C 	 -104.516 	 -0.840484 	 -121.212
|  9> C 	 -103.972 	 -1.76057 	 -122.134
| 10> C 	 -102.542 	 -1.83697 	 -122.038
| 11> C 	 -101.971 	 -0.968396 	 -121.104
| 12> H 	 -101.803 	 -2.22652 	 -122.804
| 13> C 	 -104.731 	 -2.58634 	 -123.174
| 14> H 	 -105.388 	 -1.81534 	 -123.723
| 15> H 	 -105.411 	 -3.28274 	 -122.717
| 16> C 	 -103.942 	 -3.21423 	 -124.372
| 17> H 	 -103.729 	 -2.44457 	 -125.068
| 18> H 	 -103.023 	 -3.50026 	 -123.879
| 19> C 	 -104.731 	 -4.34349 	 -125.064
| 20> H 	 -104.907 	 -5.1536 	 -124.393
| 21> H 	 -105.702 	 -4.01217 	 -125.364
| 22> H 	 -104.265 	 -4.68032 	 -125.984
| 23> S 	 -100.062 	 0.982689 	 -121.051
| 24> C 	 -98.4171 	 0.59932 	 -120.902
| 25> C 	 -98.2506 	 -0.669622 	 -120.514
| 26> C 	 -99.4387 	 -1.47456 	 -120.543
| 27> C 	 -100.557 	 -0.721118 	 -120.911
| 28> H 	 -97.311 	 -1.07756 	 -120.2
| 29> C 	 -99.3468 	 -2.89451 	 -120.058
| 30> H 	 -100.247 	 -3.15492 	 -119.598
| 31> H 	 -98.5936 	 -3.01272 	 -119.345
| 32> C 	 -98.9942 	 -3.95673 	 -121.061
| 33> H 	 -98.0167 	 -3.77634 	 -121.53
| 34> H 	 -99.6187 	 -3.85323 	 -121.901
| 35> C 	 -99.0999 	 -5.37243 	 -120.662
| 36> H 	 -98.1205 	 -5.7513 	 -120.154
| 37> H 	 -99.2297 	 -5.94895 	 -121.595
| 38> H 	 -100.004 	 -5.62011 	 -120.069
| 39> H 	 -105.572 	 -0.719563 	 -120.87
| 40> H 	 -97.6238 	 1.31654 	 -120.882
| 41> *
| 42>
| 43>                          ****END OF INPUT****

CARTESIAN COORDINATES (ANGSTROEM)
---------------------------------
  S    -103.181000    0.035305  -120.417000
  C    -104.516000   -0.840484  -121.212000
  C    -103.972000   -1.760570  -122.134000
  C    -102.542000   -1.836970  -122.038000
  C    -101.971000   -0.968396  -121.104000
  H    -101.803000   -2.226520  -122.804000
  C    -104.731000   -2.586340  -123.174000
  H    -105.388000   -1.815340  -123.723000
  H    -105.411000   -3.282740  -122.717000
  C    -103.942000   -3.214230  -124.372000
  H    -103.729000   -2.444570  -125.068000
  H    -103.023000   -3.500260  -123.879000
  C    -104.731000   -4.343490  -125.064000
  H    -104.907000   -5.153600  -124.393000
  H    -105.702000   -4.012170  -125.364000
  H    -104.265000   -4.680320  -125.984000
  S    -100.062000    0.982689  -121.051000
  C    -98.417100    0.599320  -120.902000
  C    -98.250600   -0.669622  -120.514000
  C    -99.438700   -1.474560  -120.543000
  C    -100.557000   -0.721118  -120.911000
  H    -97.311000   -1.077560  -120.200000
  C    -99.346800   -2.894510  -120.058000
  H    -100.247000   -3.154920  -119.598000
  H    -98.593600   -3.012720  -119.345000
  C    -98.994200   -3.956730  -121.061000
  H    -98.016700   -3.776340  -121.530000
  H    -99.618700   -3.853230  -121.901000
  C    -99.099900   -5.372430  -120.662000
  H    -98.120500   -5.751300  -120.154000
  H    -99.229700   -5.948950  -121.595000
  H    -100.004000   -5.620110  -120.069000
  H    -105.572000   -0.719563  -120.870000
  H    -97.623800    1.316540  -120.882000

 Total Charge           Charge          ....    0
 Multiplicity           Mult            ....    1
 Number of Electrons    NEL             ....  134
 Basis Dimension        Dim             ....  322

ORBITAL ENERGIES
----------------

  NO   OCC          E(Eh)            E(eV)
   0   2.0000     -88.968240     -2420.9489
   1   2.0000     -88.961658     -2420.7698
   2   2.0000     -10.330809      -281.1156
   3   2.0000     -10.330388      -281.1041
   4   2.0000     -10.323837      -280.9259
   5   2.0000     -10.312021      -280.6043
   6   2.0000     -10.308697      -280.5139
   7   2.0000     -10.305138      -280.4171
   8   2.0000     -10.298295      -280.2309
   9   2.0000     -10.297043      -280.1968
  10   2.0000     -10.286051      -279.8977
  11   2.0000     -10.285932      -279.8944
  12   2.0000     -10.284294      -279.8499
  13   2.0000     -10.277831      -279.6740
  14   2.0000     -10.277022      -279.6520
  15   2.0000     -10.273441      -279.5546
  16   2.0000      -8.082922      -219.9475
  17   2.0000      -8.077433      -219.7981
  18   2.0000      -6.041456      -164.3964
  19   2.0000      -6.037298      -164.2832
  20   2.0000      -6.035978      -164.2473
  21   2.0000      -6.033797      -164.1880
  22   2.0000      -6.031867      -164.1354
  23   2.0000      -6.028003      -164.0303
  24   2.0000      -1.010385       -27.4940
  25   2.0000      -0.986142       -26.8343
  26   2.0000      -0.920513       -25.0484
  27   2.0000      -0.909362       -24.7450
  28   2.0000      -0.872479       -23.7414
  29   2.0000      -0.856744       -23.3132
  30   2.0000      -0.843939       -22.9647
  31   2.0000      -0.813740       -22.1430
  32   2.0000      -0.785143       -21.3648
  33   2.0000      -0.775359       -21.0986
  34   2.0000      -0.713775       -19.4228
  35   2.0000      -0.697083       -18.9686
  36   2.0000      -0.690608       -18.7924
  37   2.0000      -0.662172       -18.0186
  38   2.0000      -0.640775       -17.4364
  39   2.0000      -0.616151       -16.7663
  40   2.0000      -0.606010       -16.4904
  41   2.0000      -0.571659       -15.5556
  42   2.0000      -0.569090       -15.4857
  43   2.0000      -0.561925       -15.2908
  44   2.0000      -0.527587       -14.3564
  45   2.0000      -0.523353       -14.2412
  46   2.0000      -0.518384       -14.1059
  47   2.0000      -0.510452       -13.8901
  48   2.0000      -0.507589       -13.8122
  49   2.0000      -0.502615       -13.6768
  50   2.0000      -0.496665       -13.5150
  51   2.0000      -0.481851       -13.1118
  52   2.0000      -0.475907       -12.9501
  53   2.0000      -0.472622       -12.8607
  54   2.0000      -0.456476       -12.4213
  55   2.0000      -0.454113       -12.3570
  56   2.0000      -0.444978       -12.1085
  57   2.0000      -0.439185       -11.9508
  58   2.0000      -0.433008       -11.7827
  59   2.0000      -0.426692       -11.6109
  60   2.0000      -0.418709       -11.3936
  61   2.0000      -0.405924       -11.0457
  62   2.0000      -0.405380       -11.0310
  63   2.0000      -0.349523        -9.5110
  64   2.0000      -0.330295        -8.9878
  65   2.0000      -0.328440        -8.9373
  66   2.0000      -0.290411        -7.9025
  67   0.0000       0.026488         0.7208
  68   0.0000       0.063682         1.7329
  69   0.0000       0.107812         2.9337
  70   0.0000       0.122134         3.3234
  71   0.0000       0.133904         3.6437

MULLIKEN ATOMIC CHARGES
-----------------------
   0 S :    0.107414
   1 C :   -0.154858
   2 C :   -0.061588
   3 C :   -0.026406
   4 C :   -0.142490
   5 H :    0.061497
   6 C :    0.002093
   7 H :    0.043460
   8 H :    0.038522
   9 C :   -0.075687
  10 H :    0.031165
  11 H :    0.034774
  12 C :   -0.013162
  13 H :    0.027713
  14 H :    0.016620
  15 H :    0.033742
  16 S :    0.093339
  17 C :   -0.053750
  18 C :   -0.030387
  19 C :   -0.032101
  20 C :   -0.174797
  21 H :    0.005854
  22 C :    0.147787
  23 H :    0.002609
  24 H :   -0.001436
  25 C :   -0.061598
  26 H :    0.014351
  27 H :   -0.004008
  28 C :   -0.071655
  29 H :    0.046458
  30 H :    0.034740
  31 H :    0.038045
  32 H :    0.075815
  33 H :    0.047925
Sum of atomic charges:   -0.0000000

LOEWDIN ATOMIC CHARGES
----------------------
   0 S :    0.414733
   1 C :   -0.202742
   2 C :   -0.060007
   3 C :   -0.089113
   4 C :   -0.206721
   5 H :    0.045696
   6 C :   -0.039094
   7 H :    0.042558
   8 H :    0.026577
   9 C :   -0.035519
  10 H :    0.021234
  11 H :    0.018566
  12 C :   -0.055334
  13 H :    0.022915
  14 H :    0.022143
  15 H :    0.028203
  16 S :    0.409073
  17 C :   -0.192440
  18 C :   -0.070990
  19 C :   -0.046392
  20 C :   -0.188069
  21 H :    0.026933
  22 C :   -0.021275
  23 H :    0.024395
  24 H :    0.024748
  25 C :   -0.049227
  26 H :    0.025318
  27 H :    0.013623
  28 C :   -0.072343
  29 H :    0.033298
  30 H :    0.032517
  31 H :    0.028186
  32 H :    0.040096
  33 H :    0.028452

  Mayer bond orders larger than 0.100000
B(  0-S ,  1-C ) :   1.1363 B(  0-S ,  4-C ) :   1.1784 B(  1-C ,  2-C ) :   1.5787
B(  1-C ,  4-C ) :   0.1069 B(  1-C , 32-H ) :   0.9706 B(  2-C ,  3-C ) :   1.2753
B(  2-C ,  6-C ) :   0.9960 B(  3-C ,  4-C ) :   1.5491 B(  3-C ,  5-H ) :   0.9616
B(  4-C , 20-C ) :   1.0454 B(  6-C ,  7-H ) :   0.9452 B(  6-C ,  8-H ) :   0.9514
B(  6-C ,  9-C ) :   1.0556 B(  9-C , 10-H ) :   0.9604 B(  9-C , 11-H ) :   0.9519
B(  9-C , 12-C ) :   1.0860 B( 12-C , 13-H ) :   0.9771 B( 12-C , 14-H ) :   0.9722
B( 12-C , 15-H ) :   0.9728 B( 16-S , 17-C ) :   1.1575 B( 16-S , 20-C ) :   1.1308
B( 17-C , 18-C ) :   1.6088 B( 17-C , 33-H ) :   0.9668 B( 18-C , 19-C ) :   1.2436
B( 18-C , 21-H ) :   0.9922 B( 19-C , 20-C ) :   1.5918 B( 19-C , 22-C ) :   1.0571
B( 22-C , 23-H ) :   0.9210 B( 22-C , 24-H ) :   0.9284 B( 22-C , 25-C ) :   1.0703
B( 25-C , 26-H ) :   0.9431 B( 25-C , 27-H ) :   0.9488 B( 25-C , 28-C ) :   1.0991
B( 28-C , 29-H ) :   0.9727 B( 28-C , 30-H ) :   0.9725 B( 28-C , 31-H ) :   0.9694

Dispersion correction           -0.013337209
FINAL SINGLE POINT ENERGY     -1339.858367938237

DIPOLE MOMENT
-------------
                                X             Y             Z
Electronic contribution:      1.28522      28.59474      12.26426
Nuclear contribution   :     -1.22772     -29.08093     -12.50799
                        -----------------------------------------
Total Dipole Moment    :      0.05749      -0.48619      -0.24373
                        -----------------------------------------
Magnitude (a.u.)       :      0.54689
Magnitude (Debye)      :      1.39009

Rotational constants in cm-1:     0.015713     0.009107     0.006614
Rotational constants in MHz :   471.066669   273.033564   198.293696

                             ****ORCA TERMINATED NORMALLY****
TOTAL RUN TIME: 0 days 0 hours 0 minutes 21 seconds 172 msec
