                         Program Version 4.2.1 -  RELEASE  -
|  1> ! wB97X-D3 SP def2-SVP
|  2> %pal
|  3> nprocs 24
|  4> end
|  5>
|  6> * xyz 0 1
|  7> S 	 -143.984 	 31.9901 	 -12.869
|  8> C 	 -142.564 	 31.8413 	 -13.9066
|  9> C 	 -142.392 	 30.5682 	 -14.2341
| 10> C 	 -143.604 	 29.7901 	 -13.9816
| 11> C 	 -144.546 	 30.3943 	 -13.1833
| 12> H 	 -143.896 	 28.7768 	 -14.1924
| 13> C 	 -141.241 	 30.0097 	 -14.8504
| 14> H 	 -141.171 	 28.9162 	 -14.616
| 15> H 	 -140.325 	 30.3979 	 -14.3601
| 16> C 	 -141.261 	 30.1654 	 -16.4249
| 17> H 	 -142.324 	 29.9605 	 -16.8633
| 18> H 	 -141.154 	 31.2075 	 -16.5774
| 19> C 	 -140.307 	 29.2959 	 -17.2292
| 20> H 	 -139.235 	 29.3072 	 -16.8573
| 21> H 	 -140.63 	 28.2333 	 -17.2992
| 22> H 	 -140.227 	 29.6725 	 -18.2308
| 23> S 	 -147.098 	 30.9119 	 -12.1433
| 24> C 	 -148.134 	 29.608 	 -11.9119
| 25> C 	 -147.582 	 28.4203 	 -12.1681
| 26> C 	 -146.312 	 28.5297 	 -12.7707
| 27> C 	 -145.808 	 29.8281 	 -12.6905
| 28> H 	 -148.181 	 27.5599 	 -11.9876
| 29> C 	 -145.687 	 27.27 	 -13.345
| 30> H 	 -144.639 	 27.1747 	 -12.9879
| 31> H 	 -145.707 	 27.4323 	 -14.4081
| 32> C 	 -146.355 	 25.9116 	 -13.1799
| 33> H 	 -147.396 	 25.9309 	 -13.5037
| 34> H 	 -146.336 	 25.744 	 -12.0761
| 35> C 	 -145.653 	 24.7647 	 -14.0006
| 36> H 	 -144.603 	 24.8749 	 -13.72
| 37> H 	 -145.776 	 24.8773 	 -15.0491
| 38> H 	 -145.953 	 23.8476 	 -13.6062
| 39> H 	 -141.764 	 32.6268 	 -14.0621
| 40> H 	 -149.051 	 29.6367 	 -11.4574
| 41> *
| 42>
| 43>                          ****END OF INPUT****

CARTESIAN COORDINATES (ANGSTROEM)
---------------------------------
  S    -143.984000   31.990100  -12.869000
  C    -142.564000   31.841300  -13.906600
  C    -142.392000   30.568200  -14.234100
  C    -143.604000   29.790100  -13.981600
  C    -144.546000   30.394300  -13.183300
  H    -143.896000   28.776800  -14.192400
  C    -141.241000   30.009700  -14.850400
  H    -141.171000   28.916200  -14.616000
  H    -140.325000   30.397900  -14.360100
  C    -141.261000   30.165400  -16.424900
  H    -142.324000   29.960500  -16.863300
  H    -141.154000   31.207500  -16.577400
  C    -140.307000   29.295900  -17.229200
  H    -139.235000   29.307200  -16.857300
  H    -140.630000   28.233300  -17.299200
  H    -140.227000   29.672500  -18.230800
  S    -147.098000   30.911900  -12.143300
  C    -148.134000   29.608000  -11.911900
  C    -147.582000   28.420300  -12.168100
  C    -146.312000   28.529700  -12.770700
  C    -145.808000   29.828100  -12.690500
  H    -148.181000   27.559900  -11.987600
  C    -145.687000   27.270000  -13.345000
  H    -144.639000   27.174700  -12.987900
  H    -145.707000   27.432300  -14.408100
  C    -146.355000   25.911600  -13.179900
  H    -147.396000   25.930900  -13.503700
  H    -146.336000   25.744000  -12.076100
  C    -145.653000   24.764700  -14.000600
  H    -144.603000   24.874900  -13.720000
  H    -145.776000   24.877300  -15.049100
  H    -145.953000   23.847600  -13.606200
  H    -141.764000   32.626800  -14.062100
  H    -149.051000   29.636700  -11.457400

 Total Charge           Charge          ....    0
 Multiplicity           Mult            ....    1
 Number of Electrons    NEL             ....  134
 Basis Dimension        Dim             ....  322

ORBITAL ENERGIES
----------------

  NO   OCC          E(Eh)            E(eV)
   0   2.0000     -88.966030     -2420.8887
   1   2.0000     -88.957005     -2420.6432
   2   2.0000     -10.331444      -281.1329
   3   2.0000     -10.326031      -280.9856
   4   2.0000     -10.310692      -280.5682
   5   2.0000     -10.306433      -280.4523
   6   2.0000     -10.301087      -280.3068
   7   2.0000     -10.295460      -280.1537
   8   2.0000     -10.294321      -280.1227
   9   2.0000     -10.294031      -280.1148
  10   2.0000     -10.292722      -280.0792
  11   2.0000     -10.291034      -280.0333
  12   2.0000     -10.285924      -279.8942
  13   2.0000     -10.284010      -279.8421
  14   2.0000     -10.282153      -279.7916
  15   2.0000     -10.279953      -279.7317
  16   2.0000      -8.081795      -219.9168
  17   2.0000      -8.072308      -219.6587
  18   2.0000      -6.040266      -164.3640
  19   2.0000      -6.036190      -164.2531
  20   2.0000      -6.032500      -164.1527
  21   2.0000      -6.031082      -164.1141
  22   2.0000      -6.026766      -163.9966
  23   2.0000      -6.022719      -163.8865
  24   2.0000      -1.014517       -27.6064
  25   2.0000      -0.994946       -27.0739
  26   2.0000      -0.915955       -24.9244
  27   2.0000      -0.915480       -24.9115
  28   2.0000      -0.873458       -23.7680
  29   2.0000      -0.857091       -23.3226
  30   2.0000      -0.844364       -22.9763
  31   2.0000      -0.818822       -22.2813
  32   2.0000      -0.788546       -21.4574
  33   2.0000      -0.775903       -21.1134
  34   2.0000      -0.711144       -19.3512
  35   2.0000      -0.703560       -19.1448
  36   2.0000      -0.701123       -19.0785
  37   2.0000      -0.654752       -17.8167
  38   2.0000      -0.636788       -17.3279
  39   2.0000      -0.617542       -16.8042
  40   2.0000      -0.603827       -16.4310
  41   2.0000      -0.582338       -15.8462
  42   2.0000      -0.575733       -15.6665
  43   2.0000      -0.553179       -15.0528
  44   2.0000      -0.532007       -14.4767
  45   2.0000      -0.524458       -14.2712
  46   2.0000      -0.518828       -14.1180
  47   2.0000      -0.516595       -14.0573
  48   2.0000      -0.507381       -13.8065
  49   2.0000      -0.503601       -13.7037
  50   2.0000      -0.495624       -13.4866
  51   2.0000      -0.484182       -13.1753
  52   2.0000      -0.475844       -12.9484
  53   2.0000      -0.463839       -12.6217
  54   2.0000      -0.460445       -12.5293
  55   2.0000      -0.457617       -12.4524
  56   2.0000      -0.452002       -12.2996
  57   2.0000      -0.437230       -11.8976
  58   2.0000      -0.431913       -11.7529
  59   2.0000      -0.429360       -11.6835
  60   2.0000      -0.416634       -11.3372
  61   2.0000      -0.410319       -11.1653
  62   2.0000      -0.406275       -11.0553
  63   2.0000      -0.363309        -9.8862
  64   2.0000      -0.334753        -9.1091
  65   2.0000      -0.318795        -8.6749
  66   2.0000      -0.286276        -7.7900
  67   0.0000       0.026850         0.7306
  68   0.0000       0.095307         2.5934
  69   0.0000       0.101826         2.7708
  70   0.0000       0.123004         3.3471
  71   0.0000       0.139927         3.8076

MULLIKEN ATOMIC CHARGES
-----------------------
   0 S :    0.079312
   1 C :   -0.137079
   2 C :   -0.054525
   3 C :   -0.001525
   4 C :   -0.119453
   5 H :   -0.034067
   6 C :    0.048491
   7 H :    0.023481
   8 H :    0.032632
   9 C :   -0.086011
  10 H :    0.044503
  11 H :    0.015115
  12 C :   -0.047029
  13 H :    0.034201
  14 H :    0.043406
  15 H :    0.031480
  16 S :    0.117583
  17 C :   -0.018942
  18 C :   -0.058096
  19 C :   -0.056619
  20 C :   -0.110655
  21 H :    0.007829
  22 C :   -0.001145
  23 H :    0.055086
  24 H :    0.045023
  25 C :   -0.107916
  26 H :    0.034133
  27 H :    0.037088
  28 C :    0.017092
  29 H :    0.020844
  30 H :    0.039651
  31 H :    0.024387
  32 H :    0.067423
  33 H :    0.014300
Sum of atomic charges:    0.0000000

LOEWDIN ATOMIC CHARGES
----------------------
   0 S :    0.387328
   1 C :   -0.196295
   2 C :   -0.070956
   3 C :   -0.075126
   4 C :   -0.191456
   5 H :    0.023523
   6 C :   -0.041516
   7 H :    0.034349
   8 H :    0.035188
   9 C :   -0.039849
  10 H :    0.038608
  11 H :    0.015597
  12 C :   -0.075292
  13 H :    0.029637
  14 H :    0.030042
  15 H :    0.025944
  16 S :    0.427002
  17 C :   -0.185532
  18 C :   -0.075412
  19 C :   -0.047297
  20 C :   -0.192257
  21 H :    0.029738
  22 C :   -0.044489
  23 H :    0.036233
  24 H :    0.033028
  25 C :   -0.041995
  26 H :    0.020328
  27 H :    0.026763
  28 C :   -0.047238
  29 H :    0.027166
  30 H :    0.023786
  31 H :    0.021422
  32 H :    0.044461
  33 H :    0.014567

  Mayer bond orders larger than 0.100000
B(  0-S ,  1-C ) :   1.1078 B(  0-S ,  4-C ) :   1.1287 B(  1-C ,  2-C ) :   1.6503
B(  1-C , 32-H ) :   0.9597 B(  2-C ,  3-C ) :   1.1720 B(  2-C ,  6-C ) :   1.0618
B(  3-C ,  4-C ) :   1.6215 B(  3-C ,  5-H ) :   0.9850 B(  4-C , 20-C ) :   1.0733
B(  6-C ,  7-H ) :   0.9365 B(  6-C ,  8-H ) :   0.9313 B(  6-C ,  9-C ) :   1.0356
B(  9-C , 10-H ) :   0.9589 B(  9-C , 11-H ) :   0.9578 B(  9-C , 12-C ) :   1.0794
B( 12-C , 13-H ) :   0.9724 B( 12-C , 14-H ) :   0.9752 B( 12-C , 15-H ) :   0.9711
B( 16-S , 17-C ) :   1.1704 B( 16-S , 20-C ) :   1.1291 B( 17-C , 18-C ) :   1.6217
B( 17-C , 33-H ) :   0.9576 B( 18-C , 19-C ) :   1.2561 B( 18-C , 21-H ) :   0.9912
B( 19-C , 20-C ) :   1.5938 B( 19-C , 22-C ) :   1.0251 B( 22-C , 23-H ) :   0.9258
B( 22-C , 24-H ) :   0.9162 B( 22-C , 25-C ) :   1.0900 B( 25-C , 26-H ) :   0.9435
B( 25-C , 27-H ) :   0.9500 B( 25-C , 28-C ) :   1.0716 B( 28-C , 29-H ) :   0.9747
B( 28-C , 30-H ) :   0.9771 B( 28-C , 31-H ) :   0.9710

Dispersion correction           -0.013192478
FINAL SINGLE POINT ENERGY     -1339.856511998512

DIPOLE MOMENT
-------------
                                X             Y             Z
Electronic contribution:    -14.15046      23.99626      16.50304
Nuclear contribution   :     14.28706     -24.79726     -16.81545
                        -----------------------------------------
Total Dipole Moment    :      0.13659      -0.80100      -0.31241
                        -----------------------------------------
Magnitude (a.u.)       :      0.87055
Magnitude (Debye)      :      2.21276

Rotational constants in cm-1:     0.016407     0.008777     0.005919
Rotational constants in MHz :   491.874452   263.124704   177.432828

                             ****ORCA TERMINATED NORMALLY****
TOTAL RUN TIME: 0 days 0 hours 0 minutes 21 seconds 104 msec
