                         Program Version 4.2.1 -  RELEASE  -
|  1> ! wB97X-D3 SP def2-SVP
|  2> %pal
|  3> nprocs 24
|  4> end
|  5>
|  6> * xyz 0 1
|  7> S 	 -105.869 	 1.7307 	 -112.5
|  8> C 	 -107.01 	 3.0405 	 -112.032
|  9> C 	 -108.332 	 2.49572 	 -112.082
| 10> C 	 -108.35 	 1.08987 	 -112.405
| 11> C 	 -107.113 	 0.526045 	 -112.625
| 12> H 	 -109.26 	 0.456258 	 -112.477
| 13> C 	 -109.599 	 3.24198 	 -111.725
| 14> H 	 -109.143 	 4.21363 	 -111.386
| 15> H 	 -110.073 	 2.68686 	 -110.926
| 16> C 	 -110.644 	 3.31262 	 -112.849
| 17> H 	 -110.144 	 3.5721 	 -113.745
| 18> H 	 -111.16 	 2.32992 	 -112.885
| 19> C 	 -111.891 	 4.23416 	 -112.528
| 20> H 	 -112.382 	 3.95076 	 -111.594
| 21> H 	 -111.628 	 5.25812 	 -112.504
| 22> H 	 -112.672 	 4.12628 	 -113.306
| 23> S 	 -105.678 	 -1.1926 	 -114.246
| 24> C 	 -105.988 	 -2.93321 	 -114.02
| 25> C 	 -106.914 	 -3.20877 	 -112.996
| 26> C 	 -107.392 	 -2.02799 	 -112.375
| 27> C 	 -106.806 	 -0.856308 	 -112.938
| 28> H 	 -107.163 	 -4.20024 	 -112.829
| 29> C 	 -108.608 	 -2.11569 	 -111.411
| 30> H 	 -109.392 	 -2.33709 	 -112.07
| 31> H 	 -108.707 	 -1.19099 	 -110.994
| 32> C 	 -108.544 	 -3.04161 	 -110.21
| 33> H 	 -108.541 	 -4.04389 	 -110.498
| 34> H 	 -109.544 	 -2.96703 	 -109.687
| 35> C 	 -107.311 	 -2.88434 	 -109.328
| 36> H 	 -106.512 	 -3.31181 	 -109.907
| 37> H 	 -107.326 	 -3.44192 	 -108.408
| 38> H 	 -107.014 	 -1.90682 	 -109.05
| 39> H 	 -106.814 	 4.06267 	 -111.912
| 40> H 	 -105.654 	 -3.70034 	 -114.678
| 41> *
| 42>
| 43>                          ****END OF INPUT****

CARTESIAN COORDINATES (ANGSTROEM)
---------------------------------
  S    -105.869000    1.730700  -112.500000
  C    -107.010000    3.040500  -112.032000
  C    -108.332000    2.495720  -112.082000
  C    -108.350000    1.089870  -112.405000
  C    -107.113000    0.526045  -112.625000
  H    -109.260000    0.456258  -112.477000
  C    -109.599000    3.241980  -111.725000
  H    -109.143000    4.213630  -111.386000
  H    -110.073000    2.686860  -110.926000
  C    -110.644000    3.312620  -112.849000
  H    -110.144000    3.572100  -113.745000
  H    -111.160000    2.329920  -112.885000
  C    -111.891000    4.234160  -112.528000
  H    -112.382000    3.950760  -111.594000
  H    -111.628000    5.258120  -112.504000
  H    -112.672000    4.126280  -113.306000
  S    -105.678000   -1.192600  -114.246000
  C    -105.988000   -2.933210  -114.020000
  C    -106.914000   -3.208770  -112.996000
  C    -107.392000   -2.027990  -112.375000
  C    -106.806000   -0.856308  -112.938000
  H    -107.163000   -4.200240  -112.829000
  C    -108.608000   -2.115690  -111.411000
  H    -109.392000   -2.337090  -112.070000
  H    -108.707000   -1.190990  -110.994000
  C    -108.544000   -3.041610  -110.210000
  H    -108.541000   -4.043890  -110.498000
  H    -109.544000   -2.967030  -109.687000
  C    -107.311000   -2.884340  -109.328000
  H    -106.512000   -3.311810  -109.907000
  H    -107.326000   -3.441920  -108.408000
  H    -107.014000   -1.906820  -109.050000
  H    -106.814000    4.062670  -111.912000
  H    -105.654000   -3.700340  -114.678000

 Total Charge           Charge          ....    0
 Multiplicity           Mult            ....    1
 Number of Electrons    NEL             ....  134
 Basis Dimension        Dim             ....  322

ORBITAL ENERGIES
----------------

  NO   OCC          E(Eh)            E(eV)
   0   2.0000     -88.973333     -2421.0875
   1   2.0000     -88.965164     -2420.8652
   2   2.0000     -10.331660      -281.1388
   3   2.0000     -10.328556      -281.0543
   4   2.0000     -10.320887      -280.8456
   5   2.0000     -10.317900      -280.7643
   6   2.0000     -10.309989      -280.5491
   7   2.0000     -10.306103      -280.4433
   8   2.0000     -10.294209      -280.1197
   9   2.0000     -10.293318      -280.0954
  10   2.0000     -10.293206      -280.0924
  11   2.0000     -10.290477      -280.0181
  12   2.0000     -10.285293      -279.8770
  13   2.0000     -10.283745      -279.8349
  14   2.0000     -10.280594      -279.7492
  15   2.0000     -10.268113      -279.4096
  16   2.0000      -8.087009      -220.0587
  17   2.0000      -8.079171      -219.8454
  18   2.0000      -6.045491      -164.5062
  19   2.0000      -6.041732      -164.4039
  20   2.0000      -6.037886      -164.2992
  21   2.0000      -6.037796      -164.2968
  22   2.0000      -6.033644      -164.1838
  23   2.0000      -6.029896      -164.0818
  24   2.0000      -1.001012       -27.2389
  25   2.0000      -0.975270       -26.5385
  26   2.0000      -0.914090       -24.8737
  27   2.0000      -0.908612       -24.7246
  28   2.0000      -0.865960       -23.5640
  29   2.0000      -0.851798       -23.1786
  30   2.0000      -0.840594       -22.8737
  31   2.0000      -0.813490       -22.1362
  32   2.0000      -0.788900       -21.4671
  33   2.0000      -0.772677       -21.0256
  34   2.0000      -0.712923       -19.3996
  35   2.0000      -0.700407       -19.0591
  36   2.0000      -0.697400       -18.9772
  37   2.0000      -0.660790       -17.9810
  38   2.0000      -0.637551       -17.3486
  39   2.0000      -0.617219       -16.7954
  40   2.0000      -0.595277       -16.1983
  41   2.0000      -0.579630       -15.7725
  42   2.0000      -0.567360       -15.4386
  43   2.0000      -0.558474       -15.1969
  44   2.0000      -0.538546       -14.6546
  45   2.0000      -0.526209       -14.3189
  46   2.0000      -0.513598       -13.9757
  47   2.0000      -0.508318       -13.8320
  48   2.0000      -0.503700       -13.7064
  49   2.0000      -0.500758       -13.6263
  50   2.0000      -0.495474       -13.4825
  51   2.0000      -0.473936       -12.8965
  52   2.0000      -0.468172       -12.7396
  53   2.0000      -0.461872       -12.5682
  54   2.0000      -0.459832       -12.5127
  55   2.0000      -0.453694       -12.3456
  56   2.0000      -0.448051       -12.1921
  57   2.0000      -0.444204       -12.0874
  58   2.0000      -0.435392       -11.8476
  59   2.0000      -0.428740       -11.6666
  60   2.0000      -0.420889       -11.4530
  61   2.0000      -0.411663       -11.2019
  62   2.0000      -0.409125       -11.1328
  63   2.0000      -0.348053        -9.4710
  64   2.0000      -0.335479        -9.1288
  65   2.0000      -0.326439        -8.8828
  66   2.0000      -0.285146        -7.7592
  67   0.0000       0.024274         0.6605
  68   0.0000       0.068935         1.8758
  69   0.0000       0.103046         2.8040
  70   0.0000       0.113747         3.0952
  71   0.0000       0.131635         3.5820

MULLIKEN ATOMIC CHARGES
-----------------------
   0 S :    0.095315
   1 C :   -0.101624
   2 C :   -0.117345
   3 C :    0.000217
   4 C :   -0.135360
   5 H :    0.027428
   6 C :    0.073020
   7 H :    0.023335
   8 H :    0.030370
   9 C :   -0.083642
  10 H :    0.033940
  11 H :    0.036932
  12 C :   -0.048951
  13 H :    0.028985
  14 H :    0.027576
  15 H :    0.036543
  16 S :    0.121492
  17 C :   -0.090230
  18 C :   -0.017942
  19 C :   -0.061283
  20 C :   -0.155707
  21 H :   -0.002977
  22 C :    0.125238
  23 H :    0.037151
  24 H :    0.003636
  25 C :   -0.063378
  26 H :    0.005295
  27 H :    0.030939
  28 C :   -0.022247
  29 H :    0.027695
  30 H :    0.026777
  31 H :    0.025805
  32 H :    0.033936
  33 H :    0.049061
Sum of atomic charges:    0.0000000

LOEWDIN ATOMIC CHARGES
----------------------
   0 S :    0.391663
   1 C :   -0.192098
   2 C :   -0.055047
   3 C :   -0.078824
   4 C :   -0.193846
   5 H :    0.035601
   6 C :   -0.035866
   7 H :    0.033573
   8 H :    0.031961
   9 C :   -0.034103
  10 H :    0.019726
  11 H :    0.030495
  12 C :   -0.063523
  13 H :    0.025133
  14 H :    0.016159
  15 H :    0.029488
  16 S :    0.400561
  17 C :   -0.170799
  18 C :   -0.059587
  19 C :   -0.044071
  20 C :   -0.202075
  21 H :    0.021342
  22 C :   -0.017112
  23 H :    0.031166
  24 H :    0.016883
  25 C :   -0.038176
  26 H :    0.011781
  27 H :    0.030939
  28 C :   -0.058593
  29 H :    0.028875
  30 H :    0.026708
  31 H :    0.020360
  32 H :    0.018830
  33 H :    0.022475

  Mayer bond orders larger than 0.100000
B(  0-S ,  1-C ) :   1.1197 B(  0-S ,  4-C ) :   1.1516 B(  1-C ,  2-C ) :   1.5949
B(  1-C ,  4-C ) :   0.1000 B(  1-C , 32-H ) :   0.9743 B(  2-C ,  3-C ) :   1.2322
B(  2-C ,  6-C ) :   1.0332 B(  3-C ,  4-C ) :   1.5726 B(  3-C ,  5-H ) :   0.9851
B(  4-C , 20-C ) :   1.0502 B(  6-C ,  7-H ) :   0.9428 B(  6-C ,  8-H ) :   0.9351
B(  6-C ,  9-C ) :   1.0615 B(  9-C , 10-H ) :   0.9641 B(  9-C , 11-H ) :   0.9528
B(  9-C , 12-C ) :   1.0776 B( 12-C , 13-H ) :   0.9742 B( 12-C , 14-H ) :   0.9791
B( 12-C , 15-H ) :   0.9777 B( 16-S , 17-C ) :   1.1498 B( 16-S , 20-C ) :   1.1474
B( 17-C , 18-C ) :   1.6067 B( 17-C , 20-C ) :   0.1082 B( 17-C , 33-H ) :   0.9686
B( 18-C , 19-C ) :   1.2404 B( 18-C , 21-H ) :   1.0011 B( 19-C , 20-C ) :   1.5680
B( 19-C , 22-C ) :   1.0210 B( 22-C , 23-H ) :   0.9380 B( 22-C , 24-H ) :   0.9207
B( 22-C , 25-C ) :   1.0798 B( 25-C , 26-H ) :   0.9522 B( 25-C , 27-H ) :   0.9529
B( 25-C , 28-C ) :   1.0734 B( 28-C , 29-H ) :   0.9683 B( 28-C , 30-H ) :   0.9723
B( 28-C , 31-H ) :   0.9803

Dispersion correction           -0.013960177
FINAL SINGLE POINT ENERGY     -1339.861576654425

DIPOLE MOMENT
-------------
                                X             Y             Z
Electronic contribution:     23.62080      -1.48942     -13.30521
Nuclear contribution   :    -24.35420       1.21605      13.44453
                        -----------------------------------------
Total Dipole Moment    :     -0.73340      -0.27337       0.13932
                        -----------------------------------------
Magnitude (a.u.)       :      0.79499
Magnitude (Debye)      :      2.02071

Rotational constants in cm-1:     0.018244     0.008016     0.006688
Rotational constants in MHz :   546.939665   240.315569   200.501388

                             ****ORCA TERMINATED NORMALLY****
TOTAL RUN TIME: 0 days 0 hours 0 minutes 20 seconds 164 msec
