                         Program Version 4.2.1 -  RELEASE  -
|  1> ! wB97X-D3 SP def2-SVP
|  2> %pal
|  3> nprocs 24
|  4> end
|  5>
|  6> * xyz 0 1
|  7> S 	 -104.851 	 2.21326 	 -114.505
|  8> C 	 -105.653 	 3.53926 	 -115.326
|  9> C 	 -106.609 	 3.11664 	 -116.289
| 10> C 	 -106.68 	 1.67994 	 -116.246
| 11> C 	 -105.866 	 1.08154 	 -115.379
| 12> H 	 -107.351 	 1.10699 	 -116.852
| 13> C 	 -107.499 	 3.90219 	 -117.196
| 14> H 	 -108.312 	 3.32195 	 -117.496
| 15> H 	 -106.958 	 3.99632 	 -118.153
| 16> C 	 -108.017 	 5.20076 	 -116.662
| 17> H 	 -107.054 	 5.79137 	 -116.582
| 18> H 	 -108.598 	 5.7069 	 -117.404
| 19> C 	 -108.751 	 5.13574 	 -115.286
| 20> H 	 -109.69 	 4.62155 	 -115.307
| 21> H 	 -108.184 	 4.63714 	 -114.581
| 22> H 	 -109.035 	 6.14091 	 -114.95
| 23> S 	 -104.201 	 -1.20795 	 -115.41
| 24> C 	 -104.903 	 -2.6952 	 -115.105
| 25> C 	 -106.27 	 -2.62305 	 -114.844
| 26> C 	 -106.746 	 -1.29192 	 -114.852
| 27> C 	 -105.729 	 -0.361611 	 -115.175
| 28> H 	 -106.835 	 -3.46556 	 -114.426
| 29> C 	 -108.21 	 -0.917229 	 -114.389
| 30> H 	 -108.137 	 -0.0198919 	 -113.736
| 31> H 	 -108.592 	 -1.76641 	 -113.77
| 32> C 	 -109.229 	 -0.751033 	 -115.512
| 33> H 	 -109.147 	 0.231523 	 -115.925
| 34> H 	 -110.283 	 -0.777492 	 -115.176
| 35> C 	 -108.856 	 -1.76181 	 -116.628
| 36> H 	 -107.971 	 -1.49873 	 -117.196
| 37> H 	 -109.588 	 -1.61215 	 -117.373
| 38> H 	 -108.932 	 -2.82009 	 -116.517
| 39> H 	 -105.301 	 4.5521 	 -115.306
| 40> H 	 -104.279 	 -3.58591 	 -115.091
| 41> *
| 42>
| 43>                          ****END OF INPUT****

CARTESIAN COORDINATES (ANGSTROEM)
---------------------------------
  S    -104.851000    2.213260  -114.505000
  C    -105.653000    3.539260  -115.326000
  C    -106.609000    3.116640  -116.289000
  C    -106.680000    1.679940  -116.246000
  C    -105.866000    1.081540  -115.379000
  H    -107.351000    1.106990  -116.852000
  C    -107.499000    3.902190  -117.196000
  H    -108.312000    3.321950  -117.496000
  H    -106.958000    3.996320  -118.153000
  C    -108.017000    5.200760  -116.662000
  H    -107.054000    5.791370  -116.582000
  H    -108.598000    5.706900  -117.404000
  C    -108.751000    5.135740  -115.286000
  H    -109.690000    4.621550  -115.307000
  H    -108.184000    4.637140  -114.581000
  H    -109.035000    6.140910  -114.950000
  S    -104.201000   -1.207950  -115.410000
  C    -104.903000   -2.695200  -115.105000
  C    -106.270000   -2.623050  -114.844000
  C    -106.746000   -1.291920  -114.852000
  C    -105.729000   -0.361611  -115.175000
  H    -106.835000   -3.465560  -114.426000
  C    -108.210000   -0.917229  -114.389000
  H    -108.137000   -0.019892  -113.736000
  H    -108.592000   -1.766410  -113.770000
  C    -109.229000   -0.751033  -115.512000
  H    -109.147000    0.231523  -115.925000
  H    -110.283000   -0.777492  -115.176000
  C    -108.856000   -1.761810  -116.628000
  H    -107.971000   -1.498730  -117.196000
  H    -109.588000   -1.612150  -117.373000
  H    -108.932000   -2.820090  -116.517000
  H    -105.301000    4.552100  -115.306000
  H    -104.279000   -3.585910  -115.091000

 Total Charge           Charge          ....    0
 Multiplicity           Mult            ....    1
 Number of Electrons    NEL             ....  134
 Basis Dimension        Dim             ....  322

ORBITAL ENERGIES
----------------

  NO   OCC          E(Eh)            E(eV)
   0   2.0000     -88.967006     -2420.9153
   1   2.0000     -88.966272     -2420.8953
   2   2.0000     -10.323881      -280.9271
   3   2.0000     -10.322399      -280.8868
   4   2.0000     -10.315251      -280.6923
   5   2.0000     -10.313645      -280.6486
   6   2.0000     -10.305067      -280.4151
   7   2.0000     -10.304279      -280.3937
   8   2.0000     -10.296421      -280.1799
   9   2.0000     -10.291931      -280.0577
  10   2.0000     -10.289727      -279.9977
  11   2.0000     -10.287601      -279.9399
  12   2.0000     -10.286982      -279.9230
  13   2.0000     -10.286206      -279.9019
  14   2.0000     -10.270759      -279.4815
  15   2.0000     -10.267439      -279.3912
  16   2.0000      -8.082876      -219.9462
  17   2.0000      -8.080919      -219.8930
  18   2.0000      -6.041082      -164.3862
  19   2.0000      -6.039495      -164.3430
  20   2.0000      -6.037103      -164.2779
  21   2.0000      -6.035499      -164.2343
  22   2.0000      -6.034032      -164.1944
  23   2.0000      -6.031578      -164.1276
  24   2.0000      -1.007050       -27.4032
  25   2.0000      -0.986003       -26.8305
  26   2.0000      -0.918050       -24.9814
  27   2.0000      -0.907099       -24.6834
  28   2.0000      -0.862684       -23.4748
  29   2.0000      -0.850134       -23.1333
  30   2.0000      -0.845811       -23.0157
  31   2.0000      -0.809369       -22.0240
  32   2.0000      -0.789017       -21.4702
  33   2.0000      -0.777351       -21.1528
  34   2.0000      -0.712097       -19.3772
  35   2.0000      -0.705100       -19.1868
  36   2.0000      -0.686676       -18.6854
  37   2.0000      -0.658727       -17.9249
  38   2.0000      -0.640227       -17.4215
  39   2.0000      -0.611161       -16.6305
  40   2.0000      -0.591533       -16.0964
  41   2.0000      -0.577232       -15.7073
  42   2.0000      -0.557036       -15.1577
  43   2.0000      -0.554007       -15.0753
  44   2.0000      -0.546847       -14.8805
  45   2.0000      -0.539340       -14.6762
  46   2.0000      -0.507869       -13.8198
  47   2.0000      -0.504603       -13.7309
  48   2.0000      -0.499570       -13.5940
  49   2.0000      -0.493393       -13.4259
  50   2.0000      -0.490789       -13.3551
  51   2.0000      -0.480256       -13.0684
  52   2.0000      -0.472280       -12.8514
  53   2.0000      -0.466264       -12.6877
  54   2.0000      -0.461835       -12.5672
  55   2.0000      -0.449571       -12.2335
  56   2.0000      -0.444787       -12.1033
  57   2.0000      -0.443989       -12.0815
  58   2.0000      -0.430493       -11.7143
  59   2.0000      -0.427081       -11.6215
  60   2.0000      -0.418841       -11.3973
  61   2.0000      -0.412584       -11.2270
  62   2.0000      -0.410536       -11.1713
  63   2.0000      -0.343132        -9.3371
  64   2.0000      -0.333364        -9.0713
  65   2.0000      -0.326121        -8.8742
  66   2.0000      -0.293124        -7.9763
  67   0.0000       0.034724         0.9449
  68   0.0000       0.068492         1.8638
  69   0.0000       0.113432         3.0866
  70   0.0000       0.124016         3.3746
  71   0.0000       0.128865         3.5066

MULLIKEN ATOMIC CHARGES
-----------------------
   0 S :    0.112443
   1 C :   -0.119263
   2 C :   -0.122801
   3 C :    0.027824
   4 C :   -0.140263
   5 H :   -0.005552
   6 C :    0.110478
   7 H :   -0.004720
   8 H :    0.042304
   9 C :   -0.083132
  10 H :    0.027037
  11 H :    0.024648
  12 C :   -0.007889
  13 H :    0.017539
  14 H :    0.026799
  15 H :    0.031497
  16 S :    0.129644
  17 C :   -0.105274
  18 C :   -0.031359
  19 C :   -0.071219
  20 C :   -0.173309
  21 H :    0.028637
  22 C :    0.072786
  23 H :    0.045773
  24 H :    0.029264
  25 C :   -0.056567
  26 H :    0.009754
  27 H :    0.035692
  28 C :   -0.028431
  29 H :    0.040536
  30 H :   -0.000255
  31 H :    0.029427
  32 H :    0.045104
  33 H :    0.062848
Sum of atomic charges:   -0.0000000

LOEWDIN ATOMIC CHARGES
----------------------
   0 S :    0.400523
   1 C :   -0.200471
   2 C :   -0.051366
   3 C :   -0.058380
   4 C :   -0.191421
   5 H :    0.026480
   6 C :   -0.037071
   7 H :    0.019293
   8 H :    0.043569
   9 C :   -0.038520
  10 H :    0.028004
  11 H :    0.021752
  12 C :   -0.056063
  13 H :    0.022777
  14 H :    0.015933
  15 H :    0.030080
  16 S :    0.441450
  17 C :   -0.208200
  18 C :   -0.081276
  19 C :   -0.047538
  20 C :   -0.212643
  21 H :    0.034790
  22 C :   -0.030568
  23 H :    0.033916
  24 H :    0.033049
  25 C :   -0.037529
  26 H :    0.016498
  27 H :    0.028947
  28 C :   -0.070089
  29 H :    0.030636
  30 H :    0.020026
  31 H :    0.023057
  32 H :    0.021179
  33 H :    0.029178

  Mayer bond orders larger than 0.100000
B(  0-S ,  1-C ) :   1.1374 B(  0-S ,  4-C ) :   1.1326 B(  1-C ,  2-C ) :   1.6133
B(  1-C , 32-H ) :   0.9639 B(  2-C ,  3-C ) :   1.2281 B(  2-C ,  6-C ) :   1.0162
B(  3-C ,  4-C ) :   1.6249 B(  3-C ,  5-H ) :   0.9929 B(  4-C , 20-C ) :   1.0208
B(  6-C ,  7-H ) :   0.9345 B(  6-C ,  8-H ) :   0.9207 B(  6-C ,  9-C ) :   1.0819
B(  9-C , 10-H ) :   0.9522 B(  9-C , 11-H ) :   0.9543 B(  9-C , 12-C ) :   1.0743
B( 12-C , 13-H ) :   0.9732 B( 12-C , 14-H ) :   0.9734 B( 12-C , 15-H ) :   0.9740
B( 16-S , 17-C ) :   1.2035 B( 16-S , 20-C ) :   1.1592 B( 17-C , 18-C ) :   1.5480
B( 17-C , 20-C ) :   0.1054 B( 17-C , 33-H ) :   0.9670 B( 18-C , 19-C ) :   1.2976
B( 18-C , 21-H ) :   0.9836 B( 19-C , 20-C ) :   1.5575 B( 19-C , 22-C ) :   1.0215
B( 22-C , 23-H ) :   0.9426 B( 22-C , 24-H ) :   0.9430 B( 22-C , 25-C ) :   1.0669
B( 25-C , 26-H ) :   0.9466 B( 25-C , 27-H ) :   0.9586 B( 25-C , 28-C ) :   1.0885
B( 28-C , 29-H ) :   0.9585 B( 28-C , 30-H ) :   0.9639 B( 28-C , 31-H ) :   0.9768

Dispersion correction           -0.015849084
FINAL SINGLE POINT ENERGY     -1339.873217476386

DIPOLE MOMENT
-------------
                                X             Y             Z
Electronic contribution:     25.27650      -8.46883       6.51252
Nuclear contribution   :    -25.86521       8.48443      -6.79898
                        -----------------------------------------
Total Dipole Moment    :     -0.58871       0.01560      -0.28646
                        -----------------------------------------
Magnitude (a.u.)       :      0.65489
Magnitude (Debye)      :      1.66459

Rotational constants in cm-1:     0.021551     0.009103     0.007125
Rotational constants in MHz :   646.093049   272.899618   213.602268

                             ****ORCA TERMINATED NORMALLY****
TOTAL RUN TIME: 0 days 0 hours 0 minutes 22 seconds 896 msec
