                         Program Version 4.2.1 -  RELEASE  -
|  1> ! wB97X-D3 SP def2-SVP
|  2> %pal
|  3> nprocs 24
|  4> end
|  5>
|  6> * xyz 0 1
|  7> S 	 15.9894 	 -12.5759 	 -127.82
|  8> C 	 14.864 	 -13.4105 	 -126.799
|  9> C 	 15.476 	 -14.3994 	 -126.031
| 10> C 	 16.9089 	 -14.3251 	 -126.151
| 11> C 	 17.317 	 -13.3313 	 -127.013
| 12> H 	 17.5821 	 -14.8181 	 -125.528
| 13> C 	 14.7489 	 -15.1543 	 -124.968
| 14> H 	 14.6029 	 -16.2087 	 -125.263
| 15> H 	 13.7751 	 -14.7375 	 -124.796
| 16> C 	 15.4193 	 -14.9558 	 -123.594
| 17> H 	 16.2527 	 -15.664 	 -123.468
| 18> H 	 15.8033 	 -13.9746 	 -123.428
| 19> C 	 14.5373 	 -15.2187 	 -122.327
| 20> H 	 14.5917 	 -16.2676 	 -121.952
| 21> H 	 14.8863 	 -14.5813 	 -121.468
| 22> H 	 13.5658 	 -14.7736 	 -122.455
| 23> S 	 19.472 	 -14.0465 	 -128.391
| 24> C 	 20.9999 	 -13.2405 	 -128.013
| 25> C 	 20.9127 	 -12.2759 	 -126.995
| 26> C 	 19.5823 	 -12.1014 	 -126.555
| 27> C 	 18.6798 	 -12.9384 	 -127.289
| 28> H 	 21.7877 	 -11.8569 	 -126.617
| 29> C 	 19.159 	 -11.3834 	 -125.268
| 30> H 	 19.7895 	 -11.7611 	 -124.484
| 31> H 	 18.079 	 -11.61 	 -125.129
| 32> C 	 19.4105 	 -9.88405 	 -125.203
| 33> H 	 20.4554 	 -9.63577 	 -125.436
| 34> H 	 19.2116 	 -9.56006 	 -124.171
| 35> C 	 18.4216 	 -9.1175 	 -126.103
| 36> H 	 17.9887 	 -8.18026 	 -125.716
| 37> H 	 17.5658 	 -9.81356 	 -126.223
| 38> H 	 18.8498 	 -8.99562 	 -127.102
| 39> H 	 13.8107 	 -13.286 	 -126.743
| 40> H 	 21.9589 	 -13.4736 	 -128.308
| 41> *
| 42>
| 43>                          ****END OF INPUT****

CARTESIAN COORDINATES (ANGSTROEM)
---------------------------------
  S     15.989400  -12.575900  -127.820000
  C     14.864000  -13.410500  -126.799000
  C     15.476000  -14.399400  -126.031000
  C     16.908900  -14.325100  -126.151000
  C     17.317000  -13.331300  -127.013000
  H     17.582100  -14.818100  -125.528000
  C     14.748900  -15.154300  -124.968000
  H     14.602900  -16.208700  -125.263000
  H     13.775100  -14.737500  -124.796000
  C     15.419300  -14.955800  -123.594000
  H     16.252700  -15.664000  -123.468000
  H     15.803300  -13.974600  -123.428000
  C     14.537300  -15.218700  -122.327000
  H     14.591700  -16.267600  -121.952000
  H     14.886300  -14.581300  -121.468000
  H     13.565800  -14.773600  -122.455000
  S     19.472000  -14.046500  -128.391000
  C     20.999900  -13.240500  -128.013000
  C     20.912700  -12.275900  -126.995000
  C     19.582300  -12.101400  -126.555000
  C     18.679800  -12.938400  -127.289000
  H     21.787700  -11.856900  -126.617000
  C     19.159000  -11.383400  -125.268000
  H     19.789500  -11.761100  -124.484000
  H     18.079000  -11.610000  -125.129000
  C     19.410500   -9.884050  -125.203000
  H     20.455400   -9.635770  -125.436000
  H     19.211600   -9.560060  -124.171000
  C     18.421600   -9.117500  -126.103000
  H     17.988700   -8.180260  -125.716000
  H     17.565800   -9.813560  -126.223000
  H     18.849800   -8.995620  -127.102000
  H     13.810700  -13.286000  -126.743000
  H     21.958900  -13.473600  -128.308000

 Total Charge           Charge          ....    0
 Multiplicity           Mult            ....    1
 Number of Electrons    NEL             ....  134
 Basis Dimension        Dim             ....  322

ORBITAL ENERGIES
----------------

  NO   OCC          E(Eh)            E(eV)
   0   2.0000     -88.971098     -2421.0267
   1   2.0000     -88.965761     -2420.8814
   2   2.0000     -10.323591      -280.9192
   3   2.0000     -10.322447      -280.8881
   4   2.0000     -10.313866      -280.6546
   5   2.0000     -10.308766      -280.5158
   6   2.0000     -10.308257      -280.5019
   7   2.0000     -10.299009      -280.2503
   8   2.0000     -10.292531      -280.0740
   9   2.0000     -10.291455      -280.0447
  10   2.0000     -10.291324      -280.0412
  11   2.0000     -10.289482      -279.9910
  12   2.0000     -10.287370      -279.9336
  13   2.0000     -10.284623      -279.8588
  14   2.0000     -10.284206      -279.8475
  15   2.0000     -10.271970      -279.5145
  16   2.0000      -8.085026      -220.0047
  17   2.0000      -8.080960      -219.8941
  18   2.0000      -6.043409      -164.4495
  19   2.0000      -6.039712      -164.3489
  20   2.0000      -6.039371      -164.3396
  21   2.0000      -6.035897      -164.2451
  22   2.0000      -6.035342      -164.2300
  23   2.0000      -6.031860      -164.1353
  24   2.0000      -1.006995       -27.4017
  25   2.0000      -0.980844       -26.6901
  26   2.0000      -0.912792       -24.8383
  27   2.0000      -0.908434       -24.7198
  28   2.0000      -0.869908       -23.6714
  29   2.0000      -0.848320       -23.0840
  30   2.0000      -0.845447       -23.0058
  31   2.0000      -0.813755       -22.1434
  32   2.0000      -0.782072       -21.2813
  33   2.0000      -0.767291       -20.8790
  34   2.0000      -0.711188       -19.3524
  35   2.0000      -0.693853       -18.8807
  36   2.0000      -0.690395       -18.7866
  37   2.0000      -0.659695       -17.9512
  38   2.0000      -0.645220       -17.5573
  39   2.0000      -0.622522       -16.9397
  40   2.0000      -0.591858       -16.1053
  41   2.0000      -0.574929       -15.6446
  42   2.0000      -0.565640       -15.3919
  43   2.0000      -0.555234       -15.1087
  44   2.0000      -0.542494       -14.7620
  45   2.0000      -0.520617       -14.1667
  46   2.0000      -0.518081       -14.0977
  47   2.0000      -0.510043       -13.8790
  48   2.0000      -0.503644       -13.7048
  49   2.0000      -0.494523       -13.4567
  50   2.0000      -0.489684       -13.3250
  51   2.0000      -0.474477       -12.9112
  52   2.0000      -0.467401       -12.7186
  53   2.0000      -0.463279       -12.6065
  54   2.0000      -0.458376       -12.4730
  55   2.0000      -0.451242       -12.2789
  56   2.0000      -0.445076       -12.1111
  57   2.0000      -0.432963       -11.7815
  58   2.0000      -0.431309       -11.7365
  59   2.0000      -0.426184       -11.5971
  60   2.0000      -0.421232       -11.4623
  61   2.0000      -0.415383       -11.3031
  62   2.0000      -0.412760       -11.2318
  63   2.0000      -0.340131        -9.2554
  64   2.0000      -0.329078        -8.9547
  65   2.0000      -0.313288        -8.5250
  66   2.0000      -0.306103        -8.3295
  67   0.0000       0.040223         1.0945
  68   0.0000       0.053616         1.4590
  69   0.0000       0.105263         2.8643
  70   0.0000       0.124153         3.3784
  71   0.0000       0.129060         3.5119

MULLIKEN ATOMIC CHARGES
-----------------------
   0 S :    0.134310
   1 C :   -0.104346
   2 C :   -0.103264
   3 C :    0.083171
   4 C :   -0.204827
   5 H :   -0.009822
   6 C :    0.108191
   7 H :    0.046918
   8 H :    0.003692
   9 C :   -0.113014
  10 H :    0.033250
  11 H :    0.035534
  12 C :   -0.075820
  13 H :    0.051188
  14 H :    0.028847
  15 H :    0.025164
  16 S :    0.131160
  17 C :   -0.046745
  18 C :   -0.041149
  19 C :    0.008886
  20 C :   -0.187759
  21 H :   -0.002505
  22 C :    0.056347
  23 H :    0.029704
  24 H :    0.047158
  25 C :   -0.083583
  26 H :    0.031894
  27 H :    0.028190
  28 C :   -0.055837
  29 H :    0.039676
  30 H :    0.015544
  31 H :    0.041143
  32 H :    0.030996
  33 H :    0.017708
Sum of atomic charges:    0.0000000

LOEWDIN ATOMIC CHARGES
----------------------
   0 S :    0.424983
   1 C :   -0.200491
   2 C :   -0.060366
   3 C :   -0.049065
   4 C :   -0.216614
   5 H :    0.021664
   6 C :   -0.030940
   7 H :    0.037971
   8 H :    0.025425
   9 C :   -0.042207
  10 H :    0.024386
  11 H :    0.023845
  12 C :   -0.075246
  13 H :    0.030274
  14 H :    0.032406
  15 H :    0.019397
  16 S :    0.419611
  17 C :   -0.168488
  18 C :   -0.061167
  19 C :   -0.044258
  20 C :   -0.212942
  21 H :    0.021882
  22 C :   -0.028218
  23 H :    0.032494
  24 H :    0.035519
  25 C :   -0.044832
  26 H :    0.022091
  27 H :    0.025381
  28 C :   -0.071848
  29 H :    0.026406
  30 H :    0.023546
  31 H :    0.028160
  32 H :    0.020709
  33 H :    0.010533

  Mayer bond orders larger than 0.100000
B(  0-S ,  1-C ) :   1.1441 B(  0-S ,  4-C ) :   1.1614 B(  1-C ,  2-C ) :   1.6212
B(  1-C , 32-H ) :   0.9688 B(  2-C ,  3-C ) :   1.2225 B(  2-C ,  6-C ) :   1.0398
B(  3-C ,  4-C ) :   1.5829 B(  3-C ,  5-H ) :   1.0058 B(  4-C , 20-C ) :   1.0043
B(  6-C ,  7-H ) :   0.9273 B(  6-C ,  8-H ) :   0.9457 B(  6-C ,  9-C ) :   1.0551
B(  9-C , 10-H ) :   0.9516 B(  9-C , 11-H ) :   0.9648 B(  9-C , 12-C ) :   1.0846
B( 12-C , 13-H ) :   0.9789 B( 12-C , 14-H ) :   0.9767 B( 12-C , 15-H ) :   0.9718
B( 16-S , 17-C ) :   1.1594 B( 16-S , 20-C ) :   1.1627 B( 17-C , 18-C ) :   1.6138
B( 17-C , 20-C ) :   0.1084 B( 17-C , 33-H ) :   0.9712 B( 18-C , 19-C ) :   1.2503
B( 18-C , 21-H ) :   0.9967 B( 19-C , 20-C ) :   1.5591 B( 19-C , 22-C ) :   1.0351
B( 22-C , 23-H ) :   0.9346 B( 22-C , 24-H ) :   0.9344 B( 22-C , 25-C ) :   1.0840
B( 25-C , 26-H ) :   0.9594 B( 25-C , 27-H ) :   0.9557 B( 25-C , 28-C ) :   1.0585
B( 28-C , 29-H ) :   0.9785 B( 28-C , 30-H ) :   0.9757 B( 28-C , 31-H ) :   0.9747

Dispersion correction           -0.014728417
FINAL SINGLE POINT ENERGY     -1339.862154258616

DIPOLE MOMENT
-------------
                                X             Y             Z
Electronic contribution:      6.13151      -5.41700     -24.20933
Nuclear contribution   :     -6.03492       5.32572      24.98876
                        -----------------------------------------
Total Dipole Moment    :      0.09659      -0.09128       0.77942
                        -----------------------------------------
Magnitude (a.u.)       :      0.79067
Magnitude (Debye)      :      2.00973

Rotational constants in cm-1:     0.017897     0.008507     0.007648
Rotational constants in MHz :   536.529641   255.047857   229.293607

                             ****ORCA TERMINATED NORMALLY****
TOTAL RUN TIME: 0 days 0 hours 0 minutes 21 seconds 797 msec
