                         Program Version 4.2.1 -  RELEASE  -
|  1> ! wB97X-D3 SP def2-SVP
|  2> %pal
|  3> nprocs 24
|  4> end
|  5>
|  6> * xyz 0 1
|  7> S 	 33.1413 	 -26.3879 	 -118.184
|  8> C 	 33.9908 	 -25.8408 	 -116.724
|  9> C 	 34.8861 	 -26.761 	 -116.253
| 10> C 	 34.9451 	 -27.8555 	 -117.172
| 11> C 	 34.08 	 -27.8232 	 -118.21
| 12> H 	 35.5856 	 -28.6676 	 -117.144
| 13> C 	 35.6858 	 -26.6849 	 -115.07
| 14> H 	 36.2598 	 -25.7528 	 -114.884
| 15> H 	 36.3909 	 -27.4383 	 -115.194
| 16> C 	 34.872 	 -26.86 	 -113.794
| 17> H 	 34.1572 	 -27.7266 	 -114.009
| 18> H 	 35.6183 	 -27.0594 	 -113.014
| 19> C 	 34.0525 	 -25.6133 	 -113.519
| 20> H 	 33.4859 	 -25.7161 	 -112.623
| 21> H 	 34.5694 	 -24.6839 	 -113.362
| 22> H 	 33.2237 	 -25.2324 	 -114.244
| 23> S 	 33.3607 	 -28.087 	 -120.904
| 24> C 	 32.9946 	 -29.6651 	 -121.596
| 25> C 	 33.3697 	 -30.6367 	 -120.692
| 26> C 	 33.7884 	 -30.0895 	 -119.425
| 27> C 	 33.8618 	 -28.7094 	 -119.353
| 28> H 	 33.1906 	 -31.6495 	 -120.91
| 29> C 	 34.0011 	 -31.0079 	 -118.202
| 30> H 	 33.049 	 -31.5066 	 -118.169
| 31> H 	 34.0146 	 -30.4547 	 -117.263
| 32> C 	 35.1025 	 -32.0587 	 -118.183
| 33> H 	 34.6529 	 -32.8239 	 -118.845
| 34> H 	 35.082 	 -32.5773 	 -117.249
| 35> C 	 36.477 	 -31.4752 	 -118.569
| 36> H 	 37.1112 	 -32.3624 	 -118.518
| 37> H 	 36.8264 	 -30.6512 	 -117.875
| 38> H 	 36.5446 	 -31.0881 	 -119.605
| 39> H 	 33.8067 	 -24.8696 	 -116.366
| 40> H 	 32.7496 	 -29.7586 	 -122.672
| 41> *
| 42>
| 43>                          ****END OF INPUT****

CARTESIAN COORDINATES (ANGSTROEM)
---------------------------------
  S     33.141300  -26.387900  -118.184000
  C     33.990800  -25.840800  -116.724000
  C     34.886100  -26.761000  -116.253000
  C     34.945100  -27.855500  -117.172000
  C     34.080000  -27.823200  -118.210000
  H     35.585600  -28.667600  -117.144000
  C     35.685800  -26.684900  -115.070000
  H     36.259800  -25.752800  -114.884000
  H     36.390900  -27.438300  -115.194000
  C     34.872000  -26.860000  -113.794000
  H     34.157200  -27.726600  -114.009000
  H     35.618300  -27.059400  -113.014000
  C     34.052500  -25.613300  -113.519000
  H     33.485900  -25.716100  -112.623000
  H     34.569400  -24.683900  -113.362000
  H     33.223700  -25.232400  -114.244000
  S     33.360700  -28.087000  -120.904000
  C     32.994600  -29.665100  -121.596000
  C     33.369700  -30.636700  -120.692000
  C     33.788400  -30.089500  -119.425000
  C     33.861800  -28.709400  -119.353000
  H     33.190600  -31.649500  -120.910000
  C     34.001100  -31.007900  -118.202000
  H     33.049000  -31.506600  -118.169000
  H     34.014600  -30.454700  -117.263000
  C     35.102500  -32.058700  -118.183000
  H     34.652900  -32.823900  -118.845000
  H     35.082000  -32.577300  -117.249000
  C     36.477000  -31.475200  -118.569000
  H     37.111200  -32.362400  -118.518000
  H     36.826400  -30.651200  -117.875000
  H     36.544600  -31.088100  -119.605000
  H     33.806700  -24.869600  -116.366000
  H     32.749600  -29.758600  -122.672000

 Total Charge           Charge          ....    0
 Multiplicity           Mult            ....    1
 Number of Electrons    NEL             ....  134
 Basis Dimension        Dim             ....  322

ORBITAL ENERGIES
----------------

  NO   OCC          E(Eh)            E(eV)
   0   2.0000     -88.961527     -2420.7662
   1   2.0000     -88.959541     -2420.7122
   2   2.0000     -10.327008      -281.0122
   3   2.0000     -10.323973      -280.9296
   4   2.0000     -10.323886      -280.9272
   5   2.0000     -10.307683      -280.4863
   6   2.0000     -10.304776      -280.4072
   7   2.0000     -10.296301      -280.1766
   8   2.0000     -10.295314      -280.1497
   9   2.0000     -10.295282      -280.1489
  10   2.0000     -10.286483      -279.9094
  11   2.0000     -10.285360      -279.8789
  12   2.0000     -10.284505      -279.8556
  13   2.0000     -10.282759      -279.8081
  14   2.0000     -10.281090      -279.7627
  15   2.0000     -10.279435      -279.7177
  16   2.0000      -8.076386      -219.7696
  17   2.0000      -8.075112      -219.7350
  18   2.0000      -6.034949      -164.2193
  19   2.0000      -6.033538      -164.1809
  20   2.0000      -6.030720      -164.1042
  21   2.0000      -6.029543      -164.0722
  22   2.0000      -6.027219      -164.0090
  23   2.0000      -6.025858      -163.9719
  24   2.0000      -1.011367       -27.5207
  25   2.0000      -0.987182       -26.8626
  26   2.0000      -0.927064       -25.2267
  27   2.0000      -0.906915       -24.6784
  28   2.0000      -0.870027       -23.6746
  29   2.0000      -0.851139       -23.1607
  30   2.0000      -0.841055       -22.8863
  31   2.0000      -0.818222       -22.2650
  32   2.0000      -0.789067       -21.4716
  33   2.0000      -0.777691       -21.1620
  34   2.0000      -0.709464       -19.3055
  35   2.0000      -0.701468       -19.0879
  36   2.0000      -0.693812       -18.8796
  37   2.0000      -0.662677       -18.0323
  38   2.0000      -0.649396       -17.6710
  39   2.0000      -0.624289       -16.9878
  40   2.0000      -0.593708       -16.1556
  41   2.0000      -0.582613       -15.8537
  42   2.0000      -0.557547       -15.1716
  43   2.0000      -0.549350       -14.9486
  44   2.0000      -0.548590       -14.9279
  45   2.0000      -0.538141       -14.6436
  46   2.0000      -0.517086       -14.0706
  47   2.0000      -0.514977       -14.0132
  48   2.0000      -0.501144       -13.6368
  49   2.0000      -0.496607       -13.5134
  50   2.0000      -0.490893       -13.3579
  51   2.0000      -0.487608       -13.2685
  52   2.0000      -0.471740       -12.8367
  53   2.0000      -0.471652       -12.8343
  54   2.0000      -0.459659       -12.5080
  55   2.0000      -0.448137       -12.1944
  56   2.0000      -0.445252       -12.1159
  57   2.0000      -0.431373       -11.7383
  58   2.0000      -0.425568       -11.5803
  59   2.0000      -0.424673       -11.5559
  60   2.0000      -0.418398       -11.3852
  61   2.0000      -0.409746       -11.1498
  62   2.0000      -0.407022       -11.0756
  63   2.0000      -0.353556        -9.6207
  64   2.0000      -0.329368        -8.9626
  65   2.0000      -0.327494        -8.9116
  66   2.0000      -0.290683        -7.9099
  67   0.0000       0.028489         0.7752
  68   0.0000       0.078852         2.1457
  69   0.0000       0.110762         3.0140
  70   0.0000       0.118665         3.2290
  71   0.0000       0.136788         3.7222

MULLIKEN ATOMIC CHARGES
-----------------------
   0 S :    0.093777
   1 C :   -0.121635
   2 C :   -0.056421
   3 C :    0.044954
   4 C :   -0.126747
   5 H :   -0.053126
   6 C :    0.100937
   7 H :    0.031629
   8 H :   -0.005306
   9 C :   -0.051370
  10 H :    0.046119
  11 H :    0.042576
  12 C :   -0.077964
  13 H :    0.022754
  14 H :    0.016331
  15 H :    0.042764
  16 S :    0.082288
  17 C :   -0.116225
  18 C :    0.002783
  19 C :   -0.063993
  20 C :   -0.115396
  21 H :    0.007843
  22 C :    0.030055
  23 H :    0.020229
  24 H :    0.018955
  25 C :   -0.047337
  26 H :    0.019374
  27 H :    0.023034
  28 C :   -0.068188
  29 H :    0.036954
  30 H :    0.053685
  31 H :    0.054554
  32 H :    0.029741
  33 H :    0.082370
Sum of atomic charges:    0.0000000

LOEWDIN ATOMIC CHARGES
----------------------
   0 S :    0.403509
   1 C :   -0.171245
   2 C :   -0.059438
   3 C :   -0.060431
   4 C :   -0.188347
   5 H :    0.013844
   6 C :   -0.037244
   7 H :    0.036629
   8 H :    0.020675
   9 C :   -0.031363
  10 H :    0.036922
  11 H :    0.030931
  12 C :   -0.082999
  13 H :    0.022797
  14 H :    0.019534
  15 H :    0.039956
  16 S :    0.393935
  17 C :   -0.179426
  18 C :   -0.067805
  19 C :   -0.055219
  20 C :   -0.204064
  21 H :    0.024621
  22 C :   -0.039607
  23 H :    0.029353
  24 H :    0.024417
  25 C :   -0.044496
  26 H :    0.025414
  27 H :    0.023881
  28 C :   -0.070549
  29 H :    0.028345
  30 H :    0.032172
  31 H :    0.033613
  32 H :    0.011968
  33 H :    0.039717

  Mayer bond orders larger than 0.100000
B(  0-S ,  1-C ) :   1.1329 B(  0-S ,  4-C ) :   1.1493 B(  1-C ,  2-C ) :   1.6019
B(  1-C , 32-H ) :   0.9719 B(  2-C ,  3-C ) :   1.2172 B(  2-C ,  6-C ) :   1.0453
B(  3-C ,  4-C ) :   1.5997 B(  3-C ,  5-H ) :   1.0075 B(  4-C , 20-C ) :   1.0364
B(  6-C ,  7-H ) :   0.9320 B(  6-C ,  8-H ) :   0.9234 B(  6-C ,  9-C ) :   1.0631
B(  9-C , 10-H ) :   0.9500 B(  9-C , 11-H ) :   0.9526 B(  9-C , 12-C ) :   1.0789
B( 12-C , 13-H ) :   0.9695 B( 12-C , 14-H ) :   0.9725 B( 12-C , 15-H ) :   0.9648
B( 16-S , 17-C ) :   1.1603 B( 16-S , 20-C ) :   1.1320 B( 17-C , 18-C ) :   1.5861
B( 17-C , 33-H ) :   0.9646 B( 18-C , 19-C ) :   1.2473 B( 18-C , 21-H ) :   1.0012
B( 19-C , 20-C ) :   1.5857 B( 19-C , 22-C ) :   1.0271 B( 22-C , 23-H ) :   0.9363
B( 22-C , 24-H ) :   0.9382 B( 22-C , 25-C ) :   1.0782 B( 25-C , 26-H ) :   0.9535
B( 25-C , 27-H ) :   0.9521 B( 25-C , 28-C ) :   1.0672 B( 28-C , 29-H ) :   0.9740
B( 28-C , 30-H ) :   0.9710 B( 28-C , 31-H ) :   0.9708

Dispersion correction           -0.014875193
FINAL SINGLE POINT ENERGY     -1339.864443295367

DIPOLE MOMENT
-------------
                                X             Y             Z
Electronic contribution:    -10.56840       9.49795     -21.25743
Nuclear contribution   :     10.80429      -9.94328      21.71121
                        -----------------------------------------
Total Dipole Moment    :      0.23589      -0.44533       0.45378
                        -----------------------------------------
Magnitude (a.u.)       :      0.67814
Magnitude (Debye)      :      1.72370

Rotational constants in cm-1:     0.021546     0.008746     0.006672
Rotational constants in MHz :   645.940310   262.195906   200.030478

                             ****ORCA TERMINATED NORMALLY****
TOTAL RUN TIME: 0 days 0 hours 0 minutes 22 seconds 364 msec
