                         Program Version 4.2.1 -  RELEASE  -
|  1> ! wB97X-D3 SP def2-SVP
|  2> %pal
|  3> nprocs 24
|  4> end
|  5>
|  6> * xyz 0 1
|  7> S 	 -90.5485 	 -6.53426 	 -118.2
|  8> C 	 -89.2872 	 -7.70618 	 -118.24
|  9> C 	 -89.7219 	 -9.00618 	 -118.332
| 10> C 	 -91.1972 	 -9.06119 	 -118.249
| 11> C 	 -91.7133 	 -7.81143 	 -118.119
| 12> H 	 -91.752 	 -9.90599 	 -118.624
| 13> C 	 -88.9561 	 -10.2743 	 -118.415
| 14> H 	 -89.3045 	 -11.0667 	 -117.831
| 15> H 	 -88.0675 	 -9.91822 	 -117.941
| 16> C 	 -88.5517 	 -10.6819 	 -119.803
| 17> H 	 -89.3235 	 -10.7328 	 -120.602
| 18> H 	 -87.993 	 -9.80164 	 -120.232
| 19> C 	 -87.6476 	 -11.8651 	 -119.86
| 20> H 	 -86.9235 	 -11.7565 	 -119.085
| 21> H 	 -88.2951 	 -12.7742 	 -119.871
| 22> H 	 -87.0784 	 -11.7663 	 -120.823
| 23> S 	 -93.8414 	 -6.53234 	 -119.401
| 24> C 	 -95.3738 	 -6.54942 	 -118.563
| 25> C 	 -95.3129 	 -7.27383 	 -117.36
| 26> C 	 -94.0813 	 -7.97648 	 -117.158
| 27> C 	 -93.1236 	 -7.45802 	 -118.057
| 28> H 	 -96.1174 	 -7.3458 	 -116.651
| 29> C 	 -93.8814 	 -8.95648 	 -115.985
| 30> H 	 -93.8787 	 -8.43442 	 -115.057
| 31> H 	 -92.9274 	 -9.41872 	 -116.207
| 32> C 	 -95.045 	 -10.0011 	 -115.847
| 33> H 	 -94.9134 	 -10.7645 	 -116.566
| 34> H 	 -95.9951 	 -9.46231 	 -116.026
| 35> C 	 -95.0266 	 -10.7271 	 -114.491
| 36> H 	 -94.2337 	 -11.4572 	 -114.438
| 37> H 	 -95.9461 	 -11.442 	 -114.367
| 38> H 	 -95.2266 	 -10.0331 	 -113.626
| 39> H 	 -88.2613 	 -7.58586 	 -118.427
| 40> H 	 -96.3093 	 -6.14574 	 -118.871
| 41> *
| 42>
| 43>                          ****END OF INPUT****

CARTESIAN COORDINATES (ANGSTROEM)
---------------------------------
  S    -90.548500   -6.534260  -118.200000
  C    -89.287200   -7.706180  -118.240000
  C    -89.721900   -9.006180  -118.332000
  C    -91.197200   -9.061190  -118.249000
  C    -91.713300   -7.811430  -118.119000
  H    -91.752000   -9.905990  -118.624000
  C    -88.956100  -10.274300  -118.415000
  H    -89.304500  -11.066700  -117.831000
  H    -88.067500   -9.918220  -117.941000
  C    -88.551700  -10.681900  -119.803000
  H    -89.323500  -10.732800  -120.602000
  H    -87.993000   -9.801640  -120.232000
  C    -87.647600  -11.865100  -119.860000
  H    -86.923500  -11.756500  -119.085000
  H    -88.295100  -12.774200  -119.871000
  H    -87.078400  -11.766300  -120.823000
  S    -93.841400   -6.532340  -119.401000
  C    -95.373800   -6.549420  -118.563000
  C    -95.312900   -7.273830  -117.360000
  C    -94.081300   -7.976480  -117.158000
  C    -93.123600   -7.458020  -118.057000
  H    -96.117400   -7.345800  -116.651000
  C    -93.881400   -8.956480  -115.985000
  H    -93.878700   -8.434420  -115.057000
  H    -92.927400   -9.418720  -116.207000
  C    -95.045000  -10.001100  -115.847000
  H    -94.913400  -10.764500  -116.566000
  H    -95.995100   -9.462310  -116.026000
  C    -95.026600  -10.727100  -114.491000
  H    -94.233700  -11.457200  -114.438000
  H    -95.946100  -11.442000  -114.367000
  H    -95.226600  -10.033100  -113.626000
  H    -88.261300   -7.585860  -118.427000
  H    -96.309300   -6.145740  -118.871000

 Total Charge           Charge          ....    0
 Multiplicity           Mult            ....    1
 Number of Electrons    NEL             ....  134
 Basis Dimension        Dim             ....  322

ORBITAL ENERGIES
----------------

  NO   OCC          E(Eh)            E(eV)
   0   2.0000     -88.970071     -2420.9987
   1   2.0000     -88.966593     -2420.9041
   2   2.0000     -10.326131      -280.9883
   3   2.0000     -10.322304      -280.8842
   4   2.0000     -10.316474      -280.7255
   5   2.0000     -10.305148      -280.4173
   6   2.0000     -10.304822      -280.4085
   7   2.0000     -10.297966      -280.2219
   8   2.0000     -10.292796      -280.0812
   9   2.0000     -10.290715      -280.0246
  10   2.0000     -10.290695      -280.0240
  11   2.0000     -10.288878      -279.9746
  12   2.0000     -10.287953      -279.9494
  13   2.0000     -10.285149      -279.8731
  14   2.0000     -10.282254      -279.7943
  15   2.0000     -10.280273      -279.7404
  16   2.0000      -8.083959      -219.9757
  17   2.0000      -8.082138      -219.9262
  18   2.0000      -6.042533      -164.4257
  19   2.0000      -6.040702      -164.3759
  20   2.0000      -6.038695      -164.3212
  21   2.0000      -6.036650      -164.2656
  22   2.0000      -6.034603      -164.2099
  23   2.0000      -6.032694      -164.1580
  24   2.0000      -1.006405       -27.3857
  25   2.0000      -0.980098       -26.6698
  26   2.0000      -0.924117       -25.1465
  27   2.0000      -0.905001       -24.6263
  28   2.0000      -0.869476       -23.6596
  29   2.0000      -0.854376       -23.2487
  30   2.0000      -0.847018       -23.0485
  31   2.0000      -0.811928       -22.0937
  32   2.0000      -0.784716       -21.3532
  33   2.0000      -0.770663       -20.9708
  34   2.0000      -0.701591       -19.0913
  35   2.0000      -0.697422       -18.9778
  36   2.0000      -0.696183       -18.9441
  37   2.0000      -0.656913       -17.8755
  38   2.0000      -0.640114       -17.4184
  39   2.0000      -0.619120       -16.8471
  40   2.0000      -0.592716       -16.1286
  41   2.0000      -0.578424       -15.7397
  42   2.0000      -0.574594       -15.6355
  43   2.0000      -0.559052       -15.2126
  44   2.0000      -0.534740       -14.5510
  45   2.0000      -0.521745       -14.1974
  46   2.0000      -0.516857       -14.0644
  47   2.0000      -0.514167       -13.9912
  48   2.0000      -0.505522       -13.7560
  49   2.0000      -0.495481       -13.4827
  50   2.0000      -0.492787       -13.4094
  51   2.0000      -0.479382       -13.0446
  52   2.0000      -0.466374       -12.6907
  53   2.0000      -0.463333       -12.6079
  54   2.0000      -0.456861       -12.4318
  55   2.0000      -0.451619       -12.2892
  56   2.0000      -0.448337       -12.1999
  57   2.0000      -0.439442       -11.9578
  58   2.0000      -0.433705       -11.8017
  59   2.0000      -0.427468       -11.6320
  60   2.0000      -0.424642       -11.5551
  61   2.0000      -0.412221       -11.2171
  62   2.0000      -0.399302       -10.8656
  63   2.0000      -0.340881        -9.2758
  64   2.0000      -0.331476        -9.0199
  65   2.0000      -0.325326        -8.8526
  66   2.0000      -0.291188        -7.9236
  67   0.0000       0.034183         0.9302
  68   0.0000       0.067699         1.8422
  69   0.0000       0.111960         3.0466
  70   0.0000       0.115646         3.1469
  71   0.0000       0.121410         3.3037

MULLIKEN ATOMIC CHARGES
-----------------------
   0 S :    0.126116
   1 C :   -0.068081
   2 C :   -0.156341
   3 C :    0.033255
   4 C :   -0.175387
   5 H :    0.029456
   6 C :    0.126579
   7 H :    0.015427
   8 H :    0.006540
   9 C :   -0.128605
  10 H :    0.026678
  11 H :    0.013231
  12 C :   -0.010668
  13 H :    0.021317
  14 H :    0.048104
  15 H :    0.036856
  16 S :    0.123104
  17 C :   -0.072903
  18 C :   -0.041864
  19 C :   -0.047054
  20 C :   -0.158466
  21 H :    0.015886
  22 C :    0.118848
  23 H :    0.029469
  24 H :    0.020358
  25 C :   -0.080393
  26 H :    0.022252
  27 H :    0.034661
  28 C :   -0.090520
  29 H :    0.041311
  30 H :    0.032946
  31 H :    0.047095
  32 H :    0.016123
  33 H :    0.044671
Sum of atomic charges:   -0.0000000

LOEWDIN ATOMIC CHARGES
----------------------
   0 S :    0.424028
   1 C :   -0.209621
   2 C :   -0.048008
   3 C :   -0.068240
   4 C :   -0.196479
   5 H :    0.034207
   6 C :   -0.033497
   7 H :    0.023101
   8 H :    0.034123
   9 C :   -0.054220
  10 H :    0.023208
  11 H :    0.024577
  12 C :   -0.063937
  13 H :    0.020013
  14 H :    0.032305
  15 H :    0.035641
  16 S :    0.398801
  17 C :   -0.188392
  18 C :   -0.066594
  19 C :   -0.045873
  20 C :   -0.198384
  21 H :    0.024578
  22 C :   -0.022287
  23 H :    0.029233
  24 H :    0.028627
  25 C :   -0.036607
  26 H :    0.019886
  27 H :    0.025013
  28 C :   -0.078840
  29 H :    0.024897
  30 H :    0.035356
  31 H :    0.030630
  32 H :    0.018377
  33 H :    0.024378

  Mayer bond orders larger than 0.100000
B(  0-S ,  1-C ) :   1.1175 B(  0-S ,  4-C ) :   1.1530 B(  1-C ,  2-C ) :   1.6767
B(  1-C , 32-H ) :   0.9571 B(  2-C ,  3-C ) :   1.2071 B(  2-C ,  6-C ) :   1.0157
B(  3-C ,  4-C ) :   1.6202 B(  3-C ,  5-H ) :   0.9848 B(  4-C , 20-C ) :   1.0156
B(  6-C ,  7-H ) :   0.9463 B(  6-C ,  8-H ) :   0.9224 B(  6-C ,  9-C ) :   1.0569
B(  9-C , 10-H ) :   0.9545 B(  9-C , 11-H ) :   0.9522 B(  9-C , 12-C ) :   1.0856
B( 12-C , 13-H ) :   0.9705 B( 12-C , 14-H ) :   0.9737 B( 12-C , 15-H ) :   0.9729
B( 16-S , 17-C ) :   1.1415 B( 16-S , 20-C ) :   1.1456 B( 17-C , 18-C ) :   1.6124
B( 17-C , 20-C ) :   0.1047 B( 17-C , 33-H ) :   0.9701 B( 18-C , 19-C ) :   1.2391
B( 18-C , 21-H ) :   0.9816 B( 19-C , 20-C ) :   1.5899 B( 19-C , 22-C ) :   1.0415
B( 22-C , 23-H ) :   0.9395 B( 22-C , 24-H ) :   0.9268 B( 22-C , 25-C ) :   1.0482
B( 25-C , 26-H ) :   0.9540 B( 25-C , 27-H ) :   0.9607 B( 25-C , 28-C ) :   1.0892
B( 28-C , 29-H ) :   0.9744 B( 28-C , 30-H ) :   0.9718 B( 28-C , 31-H ) :   0.9728

Dispersion correction           -0.013395560
FINAL SINGLE POINT ENERGY     -1339.848062949029

DIPOLE MOMENT
-------------
                                X             Y             Z
Electronic contribution:     -4.63347      26.18367      -8.18893
Nuclear contribution   :      4.59970     -26.80213       8.27435
                        -----------------------------------------
Total Dipole Moment    :     -0.03377      -0.61846       0.08542
                        -----------------------------------------
Magnitude (a.u.)       :      0.62524
Magnitude (Debye)      :      1.58924

Rotational constants in cm-1:     0.017317     0.007965     0.006198
Rotational constants in MHz :   519.140654   238.776351   185.813643

                             ****ORCA TERMINATED NORMALLY****
TOTAL RUN TIME: 0 days 0 hours 0 minutes 21 seconds 15 msec
