                         Program Version 4.2.1 -  RELEASE  -
|  1> ! wB97X-D3 SP def2-SVP
|  2> %pal
|  3> nprocs 24
|  4> end
|  5>
|  6> * xyz 0 1
|  7> S 	 -131.717 	 25.3623 	 -14.7039
|  8> C 	 -130.356 	 24.2338 	 -14.7327
|  9> C 	 -129.12 	 24.8906 	 -14.7296
| 10> C 	 -129.284 	 26.2938 	 -14.7568
| 11> C 	 -130.582 	 26.7543 	 -14.7707
| 12> H 	 -128.491 	 26.9661 	 -14.6327
| 13> C 	 -127.764 	 24.1905 	 -14.8149
| 14> H 	 -127.265 	 24.9242 	 -15.3659
| 15> H 	 -127.87 	 23.3379 	 -15.5918
| 16> C 	 -127.157 	 23.6495 	 -13.4956
| 17> H 	 -126.083 	 23.4505 	 -13.624
| 18> H 	 -127.298 	 24.4672 	 -12.8146
| 19> C 	 -127.813 	 22.3822 	 -12.9979
| 20> H 	 -127.364 	 22.1128 	 -12.0694
| 21> H 	 -128.937 	 22.424 	 -12.8455
| 22> H 	 -127.619 	 21.4766 	 -13.6094
| 23> S 	 -131.67 	 28.8482 	 -13.397
| 24> C 	 -132.178 	 30.2512 	 -14.2564
| 25> C 	 -131.392 	 30.4746 	 -15.3698
| 26> C 	 -130.669 	 29.2561 	 -15.7144
| 27> C 	 -131.007 	 28.1691 	 -14.8488
| 28> H 	 -131.422 	 31.4077 	 -15.9879
| 29> C 	 -129.917 	 29.1913 	 -17.1054
| 30> H 	 -130.646 	 29.3073 	 -17.9081
| 31> H 	 -129.452 	 28.1925 	 -17.1365
| 32> C 	 -128.749 	 30.1964 	 -17.2589
| 33> H 	 -128.013 	 30.0151 	 -16.4339
| 34> H 	 -129.134 	 31.1776 	 -17.2544
| 35> C 	 -128.019 	 29.9086 	 -18.6847
| 36> H 	 -128.641 	 29.9391 	 -19.5613
| 37> H 	 -127.582 	 28.8847 	 -18.5843
| 38> H 	 -127.369 	 30.7517 	 -18.7876
| 39> H 	 -130.385 	 23.1657 	 -14.5911
| 40> H 	 -132.712 	 31.0721 	 -13.658
| 41> *
| 42>
| 43>                          ****END OF INPUT****

CARTESIAN COORDINATES (ANGSTROEM)
---------------------------------
  S    -131.717000   25.362300  -14.703900
  C    -130.356000   24.233800  -14.732700
  C    -129.120000   24.890600  -14.729600
  C    -129.284000   26.293800  -14.756800
  C    -130.582000   26.754300  -14.770700
  H    -128.491000   26.966100  -14.632700
  C    -127.764000   24.190500  -14.814900
  H    -127.265000   24.924200  -15.365900
  H    -127.870000   23.337900  -15.591800
  C    -127.157000   23.649500  -13.495600
  H    -126.083000   23.450500  -13.624000
  H    -127.298000   24.467200  -12.814600
  C    -127.813000   22.382200  -12.997900
  H    -127.364000   22.112800  -12.069400
  H    -128.937000   22.424000  -12.845500
  H    -127.619000   21.476600  -13.609400
  S    -131.670000   28.848200  -13.397000
  C    -132.178000   30.251200  -14.256400
  C    -131.392000   30.474600  -15.369800
  C    -130.669000   29.256100  -15.714400
  C    -131.007000   28.169100  -14.848800
  H    -131.422000   31.407700  -15.987900
  C    -129.917000   29.191300  -17.105400
  H    -130.646000   29.307300  -17.908100
  H    -129.452000   28.192500  -17.136500
  C    -128.749000   30.196400  -17.258900
  H    -128.013000   30.015100  -16.433900
  H    -129.134000   31.177600  -17.254400
  C    -128.019000   29.908600  -18.684700
  H    -128.641000   29.939100  -19.561300
  H    -127.582000   28.884700  -18.584300
  H    -127.369000   30.751700  -18.787600
  H    -130.385000   23.165700  -14.591100
  H    -132.712000   31.072100  -13.658000

 Total Charge           Charge          ....    0
 Multiplicity           Mult            ....    1
 Number of Electrons    NEL             ....  134
 Basis Dimension        Dim             ....  322

ORBITAL ENERGIES
----------------

  NO   OCC          E(Eh)            E(eV)
   0   2.0000     -88.968986     -2420.9692
   1   2.0000     -88.959918     -2420.7224
   2   2.0000     -10.332846      -281.1710
   3   2.0000     -10.330252      -281.1005
   4   2.0000     -10.319213      -280.8001
   5   2.0000     -10.315883      -280.7095
   6   2.0000     -10.313792      -280.6525
   7   2.0000     -10.301162      -280.3089
   8   2.0000     -10.299510      -280.2639
   9   2.0000     -10.294992      -280.1410
  10   2.0000     -10.294211      -280.1197
  11   2.0000     -10.293630      -280.1039
  12   2.0000     -10.291933      -280.0577
  13   2.0000     -10.290116      -280.0083
  14   2.0000     -10.284107      -279.8448
  15   2.0000     -10.283130      -279.8182
  16   2.0000      -8.082352      -219.9320
  17   2.0000      -8.076023      -219.7598
  18   2.0000      -6.040955      -164.3828
  19   2.0000      -6.037019      -164.2756
  20   2.0000      -6.034328      -164.2024
  21   2.0000      -6.033123      -164.1696
  22   2.0000      -6.030710      -164.1040
  23   2.0000      -6.026526      -163.9901
  24   2.0000      -1.002301       -27.2740
  25   2.0000      -0.981292       -26.7023
  26   2.0000      -0.910103       -24.7652
  27   2.0000      -0.897628       -24.4257
  28   2.0000      -0.864682       -23.5292
  29   2.0000      -0.850959       -23.1558
  30   2.0000      -0.839757       -22.8510
  31   2.0000      -0.810172       -22.0459
  32   2.0000      -0.780866       -21.2484
  33   2.0000      -0.768353       -20.9080
  34   2.0000      -0.705190       -19.1892
  35   2.0000      -0.700737       -19.0680
  36   2.0000      -0.690578       -18.7916
  37   2.0000      -0.650097       -17.6900
  38   2.0000      -0.638420       -17.3723
  39   2.0000      -0.617795       -16.8111
  40   2.0000      -0.589645       -16.0450
  41   2.0000      -0.571108       -15.5406
  42   2.0000      -0.569017       -15.4837
  43   2.0000      -0.548134       -14.9155
  44   2.0000      -0.541900       -14.7458
  45   2.0000      -0.518141       -14.0993
  46   2.0000      -0.514709       -14.0059
  47   2.0000      -0.506181       -13.7739
  48   2.0000      -0.497554       -13.5391
  49   2.0000      -0.492581       -13.4038
  50   2.0000      -0.487550       -13.2669
  51   2.0000      -0.479319       -13.0429
  52   2.0000      -0.468530       -12.7494
  53   2.0000      -0.464083       -12.6283
  54   2.0000      -0.457990       -12.4626
  55   2.0000      -0.446538       -12.1509
  56   2.0000      -0.443962       -12.0808
  57   2.0000      -0.441182       -12.0052
  58   2.0000      -0.439381       -11.9562
  59   2.0000      -0.428036       -11.6475
  60   2.0000      -0.422758       -11.5038
  61   2.0000      -0.415165       -11.2972
  62   2.0000      -0.401598       -10.9280
  63   2.0000      -0.339181        -9.2296
  64   2.0000      -0.327893        -8.9224
  65   2.0000      -0.323225        -8.7954
  66   2.0000      -0.298705        -8.1282
  67   0.0000       0.024177         0.6579
  68   0.0000       0.059161         1.6099
  69   0.0000       0.099922         2.7190
  70   0.0000       0.118099         3.2136
  71   0.0000       0.126101         3.4314

MULLIKEN ATOMIC CHARGES
-----------------------
   0 S :    0.117436
   1 C :   -0.106006
   2 C :   -0.130843
   3 C :    0.064329
   4 C :   -0.166049
   5 H :   -0.008219
   6 C :    0.049484
   7 H :    0.005873
   8 H :    0.035946
   9 C :   -0.014127
  10 H :    0.039294
  11 H :    0.028983
  12 C :   -0.072102
  13 H :    0.026102
  14 H :    0.043103
  15 H :    0.030734
  16 S :    0.104727
  17 C :   -0.106106
  18 C :   -0.055460
  19 C :   -0.026156
  20 C :   -0.167776
  21 H :    0.046565
  22 C :    0.043001
  23 H :    0.043904
  24 H :    0.020921
  25 C :   -0.107722
  26 H :    0.046158
  27 H :    0.025292
  28 C :   -0.052088
  29 H :    0.030400
  30 H :    0.047179
  31 H :    0.035738
  32 H :    0.045307
  33 H :    0.082177
Sum of atomic charges:   -0.0000000

LOEWDIN ATOMIC CHARGES
----------------------
   0 S :    0.389312
   1 C :   -0.187611
   2 C :   -0.067688
   3 C :   -0.056203
   4 C :   -0.190127
   5 H :    0.022993
   6 C :   -0.035169
   7 H :    0.021143
   8 H :    0.038853
   9 C :   -0.035938
  10 H :    0.031105
  11 H :    0.025233
  12 C :   -0.072004
  13 H :    0.024121
  14 H :    0.031132
  15 H :    0.027800
  16 S :    0.418904
  17 C :   -0.202374
  18 C :   -0.080393
  19 C :   -0.050281
  20 C :   -0.208474
  21 H :    0.040803
  22 C :   -0.032631
  23 H :    0.030538
  24 H :    0.027284
  25 C :   -0.031959
  26 H :    0.031393
  27 H :    0.011120
  28 C :   -0.062821
  29 H :    0.021190
  30 H :    0.032432
  31 H :    0.023513
  32 H :    0.025252
  33 H :    0.039552

  Mayer bond orders larger than 0.100000
B(  0-S ,  1-C ) :   1.1461 B(  0-S ,  4-C ) :   1.1362 B(  1-C ,  2-C ) :   1.6062
B(  1-C ,  4-C ) :   0.1017 B(  1-C , 32-H ) :   0.9615 B(  2-C ,  3-C ) :   1.2646
B(  2-C ,  6-C ) :   0.9947 B(  3-C ,  4-C ) :   1.5747 B(  3-C ,  5-H ) :   0.9979
B(  4-C , 20-C ) :   1.0289 B(  6-C ,  7-H ) :   0.9421 B(  6-C ,  8-H ) :   0.9478
B(  6-C ,  9-C ) :   1.0478 B(  9-C , 10-H ) :   0.9531 B(  9-C , 11-H ) :   0.9549
B(  9-C , 12-C ) :   1.0867 B( 12-C , 13-H ) :   0.9697 B( 12-C , 14-H ) :   0.9709
B( 12-C , 15-H ) :   0.9724 B( 16-S , 17-C ) :   1.1646 B( 16-S , 20-C ) :   1.1653
B( 17-C , 18-C ) :   1.5996 B( 17-C , 20-C ) :   0.1016 B( 17-C , 33-H ) :   0.9560
B( 18-C , 19-C ) :   1.2325 B( 18-C , 21-H ) :   0.9843 B( 19-C , 20-C ) :   1.5687
B( 19-C , 22-C ) :   1.0285 B( 22-C , 23-H ) :   0.9508 B( 22-C , 24-H ) :   0.9422
B( 22-C , 25-C ) :   1.0574 B( 25-C , 26-H ) :   0.9581 B( 25-C , 27-H ) :   0.9611
B( 25-C , 28-C ) :   1.0696 B( 28-C , 29-H ) :   0.9785 B( 28-C , 30-H ) :   0.9778
B( 28-C , 31-H ) :   0.9777

Dispersion correction           -0.013823873
FINAL SINGLE POINT ENERGY     -1339.847590414669

DIPOLE MOMENT
-------------
                                X             Y             Z
Electronic contribution:    -22.51797       4.60570      10.20177
Nuclear contribution   :     23.20218      -4.49442     -10.39362
                        -----------------------------------------
Total Dipole Moment    :      0.68421       0.11127      -0.19186
                        -----------------------------------------
Magnitude (a.u.)       :      0.71926
Magnitude (Debye)      :      1.82822

Rotational constants in cm-1:     0.018253     0.007827     0.006190
Rotational constants in MHz :   547.197715   234.661701   185.577312

                             ****ORCA TERMINATED NORMALLY****
TOTAL RUN TIME: 0 days 0 hours 0 minutes 20 seconds 871 msec
