                         Program Version 4.2.1 -  RELEASE  -
|  1> ! wB97X-D3 SP def2-SVP
|  2> %pal
|  3> nprocs 24
|  4> end
|  5>
|  6> * xyz 0 1
|  7> S 	 -137.656 	 23.4919 	 -20.3809
|  8> C 	 -138.781 	 22.1488 	 -20.6424
|  9> C 	 -138.152 	 20.9884 	 -20.3791
| 10> C 	 -136.771 	 21.124 	 -20.0665
| 11> C 	 -136.242 	 22.3724 	 -20.2546
| 12> H 	 -136.039 	 20.4104 	 -19.8577
| 13> C 	 -138.878 	 19.673 	 -20.4093
| 14> H 	 -138.193 	 18.9483 	 -20.9052
| 15> H 	 -139.554 	 19.6717 	 -21.2672
| 16> C 	 -139.462 	 19.1794 	 -19.0525
| 17> H 	 -139.797 	 18.1921 	 -19.2946
| 18> H 	 -138.704 	 18.9528 	 -18.3604
| 19> C 	 -140.557 	 19.9875 	 -18.2881
| 20> H 	 -140.066 	 20.8694 	 -17.8684
| 21> H 	 -141.423 	 20.168 	 -18.9944
| 22> H 	 -140.97 	 19.358 	 -17.4956
| 23> S 	 -134.256 	 22.629 	 -18.3476
| 24> C 	 -132.687 	 22.8225 	 -18.9498
| 25> C 	 -132.652 	 23.3363 	 -20.2226
| 26> C 	 -133.939 	 23.3736 	 -20.7909
| 27> C 	 -134.907 	 22.8283 	 -19.9868
| 28> H 	 -131.679 	 23.2976 	 -20.7416
| 29> C 	 -134.171 	 23.7838 	 -22.2686
| 30> H 	 -133.748 	 24.6744 	 -22.5259
| 31> H 	 -135.189 	 24.1675 	 -22.4287
| 32> C 	 -133.806 	 22.705 	 -23.28
| 33> H 	 -134.608 	 21.9274 	 -23.3864
| 34> H 	 -132.879 	 22.2269 	 -23.0181
| 35> C 	 -133.639 	 23.1767 	 -24.7027
| 36> H 	 -132.78 	 23.8493 	 -24.7774
| 37> H 	 -134.55 	 23.6352 	 -25.1193
| 38> H 	 -133.448 	 22.3481 	 -25.4264
| 39> H 	 -139.837 	 22.1744 	 -20.787
| 40> H 	 -131.774 	 22.53 	 -18.4996
| 41> *
| 42>
| 43>                          ****END OF INPUT****

CARTESIAN COORDINATES (ANGSTROEM)
---------------------------------
  S    -137.656000   23.491900  -20.380900
  C    -138.781000   22.148800  -20.642400
  C    -138.152000   20.988400  -20.379100
  C    -136.771000   21.124000  -20.066500
  C    -136.242000   22.372400  -20.254600
  H    -136.039000   20.410400  -19.857700
  C    -138.878000   19.673000  -20.409300
  H    -138.193000   18.948300  -20.905200
  H    -139.554000   19.671700  -21.267200
  C    -139.462000   19.179400  -19.052500
  H    -139.797000   18.192100  -19.294600
  H    -138.704000   18.952800  -18.360400
  C    -140.557000   19.987500  -18.288100
  H    -140.066000   20.869400  -17.868400
  H    -141.423000   20.168000  -18.994400
  H    -140.970000   19.358000  -17.495600
  S    -134.256000   22.629000  -18.347600
  C    -132.687000   22.822500  -18.949800
  C    -132.652000   23.336300  -20.222600
  C    -133.939000   23.373600  -20.790900
  C    -134.907000   22.828300  -19.986800
  H    -131.679000   23.297600  -20.741600
  C    -134.171000   23.783800  -22.268600
  H    -133.748000   24.674400  -22.525900
  H    -135.189000   24.167500  -22.428700
  C    -133.806000   22.705000  -23.280000
  H    -134.608000   21.927400  -23.386400
  H    -132.879000   22.226900  -23.018100
  C    -133.639000   23.176700  -24.702700
  H    -132.780000   23.849300  -24.777400
  H    -134.550000   23.635200  -25.119300
  H    -133.448000   22.348100  -25.426400
  H    -139.837000   22.174400  -20.787000
  H    -131.774000   22.530000  -18.499600

 Total Charge           Charge          ....    0
 Multiplicity           Mult            ....    1
 Number of Electrons    NEL             ....  134
 Basis Dimension        Dim             ....  322

ORBITAL ENERGIES
----------------

  NO   OCC          E(Eh)            E(eV)
   0   2.0000     -88.965557     -2420.8759
   1   2.0000     -88.957693     -2420.6619
   2   2.0000     -10.328138      -281.0429
   3   2.0000     -10.323453      -280.9155
   4   2.0000     -10.310335      -280.5585
   5   2.0000     -10.309547      -280.5370
   6   2.0000     -10.305646      -280.4309
   7   2.0000     -10.293896      -280.1111
   8   2.0000     -10.293585      -280.1027
   9   2.0000     -10.290553      -280.0202
  10   2.0000     -10.289011      -279.9782
  11   2.0000     -10.286237      -279.9028
  12   2.0000     -10.284304      -279.8501
  13   2.0000     -10.283203      -279.8202
  14   2.0000     -10.282392      -279.7981
  15   2.0000     -10.276783      -279.6455
  16   2.0000      -8.081181      -219.9001
  17   2.0000      -8.071497      -219.6366
  18   2.0000      -6.039541      -164.3443
  19   2.0000      -6.035702      -164.2398
  20   2.0000      -6.031888      -164.1360
  21   2.0000      -6.030164      -164.0891
  22   2.0000      -6.026253      -163.9827
  23   2.0000      -6.021997      -163.8669
  24   2.0000      -1.010886       -27.5076
  25   2.0000      -0.987324       -26.8664
  26   2.0000      -0.909712       -24.7545
  27   2.0000      -0.906011       -24.6538
  28   2.0000      -0.872409       -23.7395
  29   2.0000      -0.853694       -23.2302
  30   2.0000      -0.841192       -22.8900
  31   2.0000      -0.818771       -22.2799
  32   2.0000      -0.786211       -21.3939
  33   2.0000      -0.774894       -21.0859
  34   2.0000      -0.712933       -19.3999
  35   2.0000      -0.699377       -19.0310
  36   2.0000      -0.693711       -18.8768
  37   2.0000      -0.662833       -18.0366
  38   2.0000      -0.641613       -17.4592
  39   2.0000      -0.616604       -16.7786
  40   2.0000      -0.602284       -16.3890
  41   2.0000      -0.573097       -15.5948
  42   2.0000      -0.561623       -15.2825
  43   2.0000      -0.543985       -14.8026
  44   2.0000      -0.539198       -14.6723
  45   2.0000      -0.524691       -14.2776
  46   2.0000      -0.516381       -14.0514
  47   2.0000      -0.514662       -14.0047
  48   2.0000      -0.511253       -13.9119
  49   2.0000      -0.501277       -13.6404
  50   2.0000      -0.491393       -13.3715
  51   2.0000      -0.480651       -13.0792
  52   2.0000      -0.470849       -12.8124
  53   2.0000      -0.463752       -12.6193
  54   2.0000      -0.462118       -12.5749
  55   2.0000      -0.444560       -12.0971
  56   2.0000      -0.440889       -11.9972
  57   2.0000      -0.435240       -11.8435
  58   2.0000      -0.428333       -11.6555
  59   2.0000      -0.424358       -11.5474
  60   2.0000      -0.416176       -11.3247
  61   2.0000      -0.408465       -11.1149
  62   2.0000      -0.404859       -11.0168
  63   2.0000      -0.337837        -9.1930
  64   2.0000      -0.330240        -8.9863
  65   2.0000      -0.325152        -8.8478
  66   2.0000      -0.304597        -8.2885
  67   0.0000       0.027034         0.7356
  68   0.0000       0.062359         1.6969
  69   0.0000       0.105137         2.8609
  70   0.0000       0.127578         3.4716
  71   0.0000       0.128287         3.4909

MULLIKEN ATOMIC CHARGES
-----------------------
   0 S :    0.076459
   1 C :   -0.085471
   2 C :   -0.085957
   3 C :    0.045341
   4 C :   -0.137931
   5 H :   -0.010192
   6 C :    0.040826
   7 H :    0.020286
   8 H :    0.015595
   9 C :   -0.032099
  10 H :    0.013920
  11 H :    0.015044
  12 C :   -0.059656
  13 H :    0.055885
  14 H :    0.038229
  15 H :    0.038999
  16 S :    0.130626
  17 C :   -0.081269
  18 C :   -0.055579
  19 C :   -0.006003
  20 C :   -0.194276
  21 H :    0.038705
  22 C :    0.132972
  23 H :   -0.013635
  24 H :    0.007337
  25 C :   -0.064485
  26 H :    0.038507
  27 H :    0.021290
  28 C :   -0.076605
  29 H :    0.028871
  30 H :    0.032074
  31 H :    0.034629
  32 H :    0.035690
  33 H :    0.041873
Sum of atomic charges:   -0.0000000

LOEWDIN ATOMIC CHARGES
----------------------
   0 S :    0.358755
   1 C :   -0.174901
   2 C :   -0.075311
   3 C :   -0.048419
   4 C :   -0.173083
   5 H :    0.022495
   6 C :   -0.041543
   7 H :    0.037533
   8 H :    0.030741
   9 C :   -0.038382
  10 H :    0.021336
  11 H :    0.019093
  12 C :   -0.065771
  13 H :    0.030415
  14 H :    0.030138
  15 H :    0.030260
  16 S :    0.419530
  17 C :   -0.188953
  18 C :   -0.083166
  19 C :   -0.039195
  20 C :   -0.198706
  21 H :    0.039715
  22 C :   -0.029687
  23 H :    0.017590
  24 H :    0.033403
  25 C :   -0.041254
  26 H :    0.032126
  27 H :    0.020163
  28 C :   -0.071720
  29 H :    0.020034
  30 H :    0.024603
  31 H :    0.030492
  32 H :    0.027862
  33 H :    0.023808

  Mayer bond orders larger than 0.100000
B(  0-S ,  1-C ) :   1.1228 B(  0-S ,  4-C ) :   1.1101 B(  1-C ,  2-C ) :   1.6428
B(  1-C , 32-H ) :   0.9695 B(  2-C ,  3-C ) :   1.2011 B(  2-C ,  6-C ) :   1.0216
B(  3-C ,  4-C ) :   1.6042 B(  3-C ,  5-H ) :   1.0117 B(  4-C , 20-C ) :   1.0681
B(  6-C ,  7-H ) :   0.9362 B(  6-C ,  8-H ) :   0.9418 B(  6-C ,  9-C ) :   1.0578
B(  9-C , 10-H ) :   0.9519 B(  9-C , 11-H ) :   0.9551 B(  9-C , 12-C ) :   1.0751
B( 12-C , 13-H ) :   0.9748 B( 12-C , 14-H ) :   0.9764 B( 12-C , 15-H ) :   0.9721
B( 16-S , 17-C ) :   1.1720 B( 16-S , 20-C ) :   1.1251 B( 17-C , 18-C ) :   1.6292
B( 17-C , 33-H ) :   0.9652 B( 18-C , 19-C ) :   1.2364 B( 18-C , 21-H ) :   0.9820
B( 19-C , 20-C ) :   1.6098 B( 19-C , 22-C ) :   1.0465 B( 22-C , 23-H ) :   0.9308
B( 22-C , 24-H ) :   0.9169 B( 22-C , 25-C ) :   1.0573 B( 25-C , 26-H ) :   0.9538
B( 25-C , 27-H ) :   0.9600 B( 25-C , 28-C ) :   1.0896 B( 28-C , 29-H ) :   0.9745
B( 28-C , 30-H ) :   0.9737 B( 28-C , 31-H ) :   0.9726

Dispersion correction           -0.014309290
FINAL SINGLE POINT ENERGY     -1339.848443313242

DIPOLE MOMENT
-------------
                                X             Y             Z
Electronic contribution:      6.08010      11.09494      13.09921
Nuclear contribution   :     -5.97252     -11.71164     -13.33926
                        -----------------------------------------
Total Dipole Moment    :      0.10758      -0.61670      -0.24005
                        -----------------------------------------
Magnitude (a.u.)       :      0.67046
Magnitude (Debye)      :      1.70417

Rotational constants in cm-1:     0.020430     0.007884     0.006618
Rotational constants in MHz :   612.484012   236.365598   198.402215

                             ****ORCA TERMINATED NORMALLY****
TOTAL RUN TIME: 0 days 0 hours 0 minutes 21 seconds 407 msec
