                         Program Version 4.2.1 -  RELEASE  -
|  1> ! wB97X-D3 SP def2-SVP
|  2> %pal
|  3> nprocs 24
|  4> end
|  5>
|  6> * xyz 0 1
|  7> S 	 -130.63 	 65.9193 	 -48.8073
|  8> C 	 -130.252 	 67.6232 	 -48.8662
|  9> C 	 -130.522 	 68.2183 	 -50.1098
| 10> C 	 -131.208 	 67.335 	 -50.9809
| 11> C 	 -131.306 	 66.0462 	 -50.4979
| 12> H 	 -131.552 	 67.6975 	 -51.9264
| 13> C 	 -130.292 	 69.6581 	 -50.4304
| 14> H 	 -131.17 	 70.0202 	 -50.8202
| 15> H 	 -129.452 	 69.7609 	 -51.0969
| 16> C 	 -130.305 	 70.6582 	 -49.297
| 17> H 	 -131.16 	 70.6325 	 -48.6575
| 18> H 	 -129.491 	 70.3091 	 -48.6492
| 19> C 	 -130.167 	 72.1455 	 -49.6863
| 20> H 	 -131.155 	 72.4614 	 -50.0483
| 21> H 	 -129.887 	 72.7371 	 -48.8177
| 22> H 	 -129.497 	 72.3361 	 -50.5261
| 23> S 	 -131.002 	 64.1186 	 -52.5095
| 24> C 	 -132.066 	 62.7179 	 -52.5387
| 25> C 	 -133.101 	 62.8889 	 -51.6286
| 26> C 	 -133.011 	 64.19 	 -50.9868
| 27> C 	 -131.841 	 64.848 	 -51.1785
| 28> H 	 -133.842 	 62.1335 	 -51.63
| 29> C 	 -134.235 	 64.7155 	 -50.1873
| 30> H 	 -134.1 	 65.8087 	 -50.147
| 31> H 	 -134.295 	 64.2294 	 -49.138
| 32> C 	 -135.562 	 64.6671 	 -50.9389
| 33> H 	 -136.009 	 63.6757 	 -50.9459
| 34> H 	 -135.263 	 64.872 	 -51.9505
| 35> C 	 -136.679 	 65.683 	 -50.4435
| 36> H 	 -137.015 	 65.4807 	 -49.4268
| 37> H 	 -137.506 	 65.6244 	 -51.1504
| 38> H 	 -136.271 	 66.7209 	 -50.4602
| 39> H 	 -129.757 	 68.2926 	 -48.101
| 40> H 	 -131.941 	 61.861 	 -53.2311
| 41> *
| 42>
| 43>                          ****END OF INPUT****

CARTESIAN COORDINATES (ANGSTROEM)
---------------------------------
  S    -130.630000   65.919300  -48.807300
  C    -130.252000   67.623200  -48.866200
  C    -130.522000   68.218300  -50.109800
  C    -131.208000   67.335000  -50.980900
  C    -131.306000   66.046200  -50.497900
  H    -131.552000   67.697500  -51.926400
  C    -130.292000   69.658100  -50.430400
  H    -131.170000   70.020200  -50.820200
  H    -129.452000   69.760900  -51.096900
  C    -130.305000   70.658200  -49.297000
  H    -131.160000   70.632500  -48.657500
  H    -129.491000   70.309100  -48.649200
  C    -130.167000   72.145500  -49.686300
  H    -131.155000   72.461400  -50.048300
  H    -129.887000   72.737100  -48.817700
  H    -129.497000   72.336100  -50.526100
  S    -131.002000   64.118600  -52.509500
  C    -132.066000   62.717900  -52.538700
  C    -133.101000   62.888900  -51.628600
  C    -133.011000   64.190000  -50.986800
  C    -131.841000   64.848000  -51.178500
  H    -133.842000   62.133500  -51.630000
  C    -134.235000   64.715500  -50.187300
  H    -134.100000   65.808700  -50.147000
  H    -134.295000   64.229400  -49.138000
  C    -135.562000   64.667100  -50.938900
  H    -136.009000   63.675700  -50.945900
  H    -135.263000   64.872000  -51.950500
  C    -136.679000   65.683000  -50.443500
  H    -137.015000   65.480700  -49.426800
  H    -137.506000   65.624400  -51.150400
  H    -136.271000   66.720900  -50.460200
  H    -129.757000   68.292600  -48.101000
  H    -131.941000   61.861000  -53.231100

 Total Charge           Charge          ....    0
 Multiplicity           Mult            ....    1
 Number of Electrons    NEL             ....  134
 Basis Dimension        Dim             ....  322

ORBITAL ENERGIES
----------------

  NO   OCC          E(Eh)            E(eV)
   0   2.0000     -88.971298     -2421.0321
   1   2.0000     -88.960846     -2420.7477
   2   2.0000     -10.336252      -281.2637
   3   2.0000     -10.322584      -280.8918
   4   2.0000     -10.321737      -280.8687
   5   2.0000     -10.318575      -280.7827
   6   2.0000     -10.303787      -280.3803
   7   2.0000     -10.297270      -280.2030
   8   2.0000     -10.295534      -280.1557
   9   2.0000     -10.294208      -280.1196
  10   2.0000     -10.293855      -280.1100
  11   2.0000     -10.285467      -279.8818
  12   2.0000     -10.284189      -279.8470
  13   2.0000     -10.283928      -279.8399
  14   2.0000     -10.283533      -279.8291
  15   2.0000     -10.282032      -279.7883
  16   2.0000      -8.084419      -219.9882
  17   2.0000      -8.076008      -219.7594
  18   2.0000      -6.043029      -164.4392
  19   2.0000      -6.039262      -164.3367
  20   2.0000      -6.035053      -164.2221
  21   2.0000      -6.034541      -164.2082
  22   2.0000      -6.030452      -164.0969
  23   2.0000      -6.026700      -163.9948
  24   2.0000      -1.002565       -27.2812
  25   2.0000      -0.981144       -26.6983
  26   2.0000      -0.919396       -25.0180
  27   2.0000      -0.900213       -24.4960
  28   2.0000      -0.865624       -23.5548
  29   2.0000      -0.853438       -23.2232
  30   2.0000      -0.839356       -22.8400
  31   2.0000      -0.816253       -22.2114
  32   2.0000      -0.781620       -21.2690
  33   2.0000      -0.767946       -20.8969
  34   2.0000      -0.712091       -19.3770
  35   2.0000      -0.695437       -18.9238
  36   2.0000      -0.690431       -18.7876
  37   2.0000      -0.654521       -17.8104
  38   2.0000      -0.631880       -17.1943
  39   2.0000      -0.619929       -16.8691
  40   2.0000      -0.591544       -16.0967
  41   2.0000      -0.585154       -15.9228
  42   2.0000      -0.570193       -15.5157
  43   2.0000      -0.564401       -15.3581
  44   2.0000      -0.528257       -14.3746
  45   2.0000      -0.522742       -14.2245
  46   2.0000      -0.516206       -14.0467
  47   2.0000      -0.509999       -13.8778
  48   2.0000      -0.504874       -13.7383
  49   2.0000      -0.500504       -13.6194
  50   2.0000      -0.485200       -13.2030
  51   2.0000      -0.474725       -12.9179
  52   2.0000      -0.468548       -12.7498
  53   2.0000      -0.465700       -12.6723
  54   2.0000      -0.458385       -12.4733
  55   2.0000      -0.450784       -12.2665
  56   2.0000      -0.446108       -12.1392
  57   2.0000      -0.443180       -12.0595
  58   2.0000      -0.428688       -11.6652
  59   2.0000      -0.424541       -11.5523
  60   2.0000      -0.419172       -11.4063
  61   2.0000      -0.408525       -11.1165
  62   2.0000      -0.398694       -10.8490
  63   2.0000      -0.340071        -9.2538
  64   2.0000      -0.331005        -9.0071
  65   2.0000      -0.320596        -8.7239
  66   2.0000      -0.304338        -8.2814
  67   0.0000       0.038013         1.0344
  68   0.0000       0.057153         1.5552
  69   0.0000       0.107282         2.9193
  70   0.0000       0.114335         3.1112
  71   0.0000       0.135031         3.6744

MULLIKEN ATOMIC CHARGES
-----------------------
   0 S :    0.128380
   1 C :   -0.129346
   2 C :   -0.124853
   3 C :    0.055731
   4 C :   -0.157118
   5 H :    0.004633
   6 C :    0.126053
   7 H :    0.000812
   8 H :    0.046059
   9 C :   -0.137152
  10 H :    0.030354
  11 H :    0.018704
  12 C :   -0.036668
  13 H :    0.029102
  14 H :    0.043978
  15 H :    0.030705
  16 S :    0.104724
  17 C :   -0.122197
  18 C :   -0.001579
  19 C :   -0.054535
  20 C :   -0.159457
  21 H :    0.010793
  22 C :    0.062982
  23 H :    0.022918
  24 H :    0.055659
  25 C :   -0.100556
  26 H :    0.027222
  27 H :    0.028967
  28 C :   -0.056749
  29 H :    0.039323
  30 H :    0.039926
  31 H :    0.035581
  32 H :    0.063606
  33 H :    0.073997
Sum of atomic charges:   -0.0000000

LOEWDIN ATOMIC CHARGES
----------------------
   0 S :    0.390585
   1 C :   -0.209817
   2 C :   -0.067395
   3 C :   -0.048379
   4 C :   -0.168992
   5 H :    0.031099
   6 C :   -0.032432
   7 H :    0.023989
   8 H :    0.035493
   9 C :   -0.041265
  10 H :    0.023501
  11 H :    0.012803
  12 C :   -0.059944
  13 H :    0.025934
  14 H :    0.031626
  15 H :    0.024074
  16 S :    0.402152
  17 C :   -0.180916
  18 C :   -0.068694
  19 C :   -0.056690
  20 C :   -0.216852
  21 H :    0.026720
  22 C :   -0.039401
  23 H :    0.031477
  24 H :    0.039134
  25 C :   -0.043884
  26 H :    0.017674
  27 H :    0.023076
  28 C :   -0.062470
  29 H :    0.024969
  30 H :    0.027638
  31 H :    0.027175
  32 H :    0.040707
  33 H :    0.037306

  Mayer bond orders larger than 0.100000
B(  0-S ,  1-C ) :   1.1395 B(  0-S ,  4-C ) :   1.1249 B(  1-C ,  2-C ) :   1.6287
B(  1-C , 32-H ) :   0.9476 B(  2-C ,  3-C ) :   1.2565 B(  2-C ,  6-C ) :   1.0117
B(  3-C ,  4-C ) :   1.5860 B(  3-C ,  5-H ) :   0.9974 B(  4-C , 20-C ) :   1.0252
B(  6-C ,  7-H ) :   0.9451 B(  6-C ,  8-H ) :   0.9255 B(  6-C ,  9-C ) :   1.0611
B(  9-C , 10-H ) :   0.9641 B(  9-C , 11-H ) :   0.9462 B(  9-C , 12-C ) :   1.0805
B( 12-C , 13-H ) :   0.9757 B( 12-C , 14-H ) :   0.9728 B( 12-C , 15-H ) :   0.9768
B( 16-S , 17-C ) :   1.1601 B( 16-S , 20-C ) :   1.1247 B( 17-C , 18-C ) :   1.6172
B( 17-C , 33-H ) :   0.9638 B( 18-C , 19-C ) :   1.2038 B( 18-C , 21-H ) :   0.9999
B( 19-C , 20-C ) :   1.6333 B( 19-C , 22-C ) :   1.0398 B( 22-C , 23-H ) :   0.9378
B( 22-C , 24-H ) :   0.9338 B( 22-C , 25-C ) :   1.0595 B( 25-C , 26-H ) :   0.9504
B( 25-C , 27-H ) :   0.9575 B( 25-C , 28-C ) :   1.0843 B( 28-C , 29-H ) :   0.9772
B( 28-C , 30-H ) :   0.9763 B( 28-C , 31-H ) :   0.9748

Dispersion correction           -0.013578129
FINAL SINGLE POINT ENERGY     -1339.856945968849

DIPOLE MOMENT
-------------
                                X             Y             Z
Electronic contribution:     14.33501     -21.09896      -3.42697
Nuclear contribution   :    -14.74629      21.51546       3.29573
                        -----------------------------------------
Total Dipole Moment    :     -0.41127       0.41650      -0.13124
                        -----------------------------------------
Magnitude (a.u.)       :      0.59987
Magnitude (Debye)      :      1.52475

Rotational constants in cm-1:     0.019629     0.007116     0.006089
Rotational constants in MHz :   588.460595   213.342942   182.534814

                             ****ORCA TERMINATED NORMALLY****
TOTAL RUN TIME: 0 days 0 hours 0 minutes 20 seconds 781 msec
