                         Program Version 4.2.1 -  RELEASE  -
|  1> ! wB97X-D3 SP def2-SVP
|  2> %pal
|  3> nprocs 24
|  4> end
|  5>
|  6> * xyz 0 1
|  7> S 	 -85.4906 	 -33.7935 	 -66.0279
|  8> C 	 -85.1573 	 -34.7739 	 -67.4702
|  9> C 	 -86.0955 	 -35.7663 	 -67.6175
| 10> C 	 -87.1758 	 -35.6394 	 -66.6926
| 11> C 	 -87.0848 	 -34.5211 	 -65.9442
| 12> H 	 -88.0499 	 -36.2803 	 -66.5721
| 13> C 	 -86.1366 	 -36.8479 	 -68.7199
| 14> H 	 -86.5345 	 -37.6619 	 -68.1108
| 15> H 	 -85.0765 	 -37.0335 	 -68.9195
| 16> C 	 -86.873 	 -36.4784 	 -70.079
| 17> H 	 -86.408 	 -35.7783 	 -70.755
| 18> H 	 -86.9566 	 -37.3331 	 -70.7217
| 19> C 	 -88.3418 	 -35.9269 	 -69.8417
| 20> H 	 -88.8137 	 -35.7957 	 -70.7919
| 21> H 	 -89.0548 	 -36.6508 	 -69.3756
| 22> H 	 -88.3312 	 -34.9817 	 -69.2519
| 23> S 	 -87.6642 	 -33.7831 	 -63.3515
| 24> C 	 -89.3147 	 -33.5737 	 -62.8537
| 25> C 	 -90.1547 	 -33.4587 	 -63.968
| 26> C 	 -89.4423 	 -33.7601 	 -65.1689
| 27> C 	 -88.0672 	 -33.9761 	 -65.0292
| 28> H 	 -91.2063 	 -33.3338 	 -63.7791
| 29> C 	 -90.1554 	 -33.5771 	 -66.5181
| 30> H 	 -91.0457 	 -34.2145 	 -66.5016
| 31> H 	 -89.5033 	 -34.0014 	 -67.3185
| 32> C 	 -90.6124 	 -32.1357 	 -66.7094
| 33> H 	 -91.6348 	 -31.9539 	 -66.3832
| 34> H 	 -90.7004 	 -32.0027 	 -67.7575
| 35> C 	 -89.7615 	 -30.9751 	 -66.1451
| 36> H 	 -90.2368 	 -30.0361 	 -66.3186
| 37> H 	 -88.7833 	 -31.0047 	 -66.594
| 38> H 	 -89.5985 	 -31.0671 	 -65.0229
| 39> H 	 -84.1984 	 -34.7891 	 -67.969
| 40> H 	 -89.6934 	 -33.1472 	 -61.954
| 41> *
| 42>
| 43>                          ****END OF INPUT****

CARTESIAN COORDINATES (ANGSTROEM)
---------------------------------
  S    -85.490600  -33.793500  -66.027900
  C    -85.157300  -34.773900  -67.470200
  C    -86.095500  -35.766300  -67.617500
  C    -87.175800  -35.639400  -66.692600
  C    -87.084800  -34.521100  -65.944200
  H    -88.049900  -36.280300  -66.572100
  C    -86.136600  -36.847900  -68.719900
  H    -86.534500  -37.661900  -68.110800
  H    -85.076500  -37.033500  -68.919500
  C    -86.873000  -36.478400  -70.079000
  H    -86.408000  -35.778300  -70.755000
  H    -86.956600  -37.333100  -70.721700
  C    -88.341800  -35.926900  -69.841700
  H    -88.813700  -35.795700  -70.791900
  H    -89.054800  -36.650800  -69.375600
  H    -88.331200  -34.981700  -69.251900
  S    -87.664200  -33.783100  -63.351500
  C    -89.314700  -33.573700  -62.853700
  C    -90.154700  -33.458700  -63.968000
  C    -89.442300  -33.760100  -65.168900
  C    -88.067200  -33.976100  -65.029200
  H    -91.206300  -33.333800  -63.779100
  C    -90.155400  -33.577100  -66.518100
  H    -91.045700  -34.214500  -66.501600
  H    -89.503300  -34.001400  -67.318500
  C    -90.612400  -32.135700  -66.709400
  H    -91.634800  -31.953900  -66.383200
  H    -90.700400  -32.002700  -67.757500
  C    -89.761500  -30.975100  -66.145100
  H    -90.236800  -30.036100  -66.318600
  H    -88.783300  -31.004700  -66.594000
  H    -89.598500  -31.067100  -65.022900
  H    -84.198400  -34.789100  -67.969000
  H    -89.693400  -33.147200  -61.954000

 Total Charge           Charge          ....    0
 Multiplicity           Mult            ....    1
 Number of Electrons    NEL             ....  134
 Basis Dimension        Dim             ....  322

ORBITAL ENERGIES
----------------

  NO   OCC          E(Eh)            E(eV)
   0   2.0000     -88.964529     -2420.8479
   1   2.0000     -88.963670     -2420.8245
   2   2.0000     -10.327114      -281.0151
   3   2.0000     -10.324376      -280.9405
   4   2.0000     -10.315187      -280.6905
   5   2.0000     -10.314102      -280.6610
   6   2.0000     -10.303684      -280.3775
   7   2.0000     -10.302099      -280.3344
   8   2.0000     -10.301494      -280.3179
   9   2.0000     -10.296517      -280.1825
  10   2.0000     -10.294543      -280.1287
  11   2.0000     -10.292195      -280.0649
  12   2.0000     -10.291283      -280.0400
  13   2.0000     -10.282720      -279.8070
  14   2.0000     -10.279207      -279.7114
  15   2.0000     -10.270780      -279.4821
  16   2.0000      -8.079646      -219.8583
  17   2.0000      -8.078468      -219.8263
  18   2.0000      -6.038178      -164.3072
  19   2.0000      -6.037027      -164.2758
  20   2.0000      -6.033966      -164.1926
  21   2.0000      -6.033234      -164.1726
  22   2.0000      -6.030481      -164.0977
  23   2.0000      -6.028909      -164.0550
  24   2.0000      -1.009615       -27.4730
  25   2.0000      -0.985750       -26.8236
  26   2.0000      -0.905404       -24.6373
  27   2.0000      -0.901857       -24.5408
  28   2.0000      -0.869015       -23.6471
  29   2.0000      -0.846737       -23.0409
  30   2.0000      -0.839243       -22.8370
  31   2.0000      -0.817565       -22.2471
  32   2.0000      -0.783035       -21.3075
  33   2.0000      -0.772053       -21.0086
  34   2.0000      -0.711057       -19.3489
  35   2.0000      -0.706485       -19.2244
  36   2.0000      -0.690414       -18.7871
  37   2.0000      -0.658592       -17.9212
  38   2.0000      -0.641903       -17.4671
  39   2.0000      -0.615991       -16.7620
  40   2.0000      -0.583875       -15.8880
  41   2.0000      -0.564008       -15.3475
  42   2.0000      -0.554153       -15.0793
  43   2.0000      -0.550440       -14.9782
  44   2.0000      -0.544223       -14.8091
  45   2.0000      -0.535221       -14.5641
  46   2.0000      -0.515275       -14.0213
  47   2.0000      -0.512467       -13.9449
  48   2.0000      -0.504061       -13.7162
  49   2.0000      -0.492023       -13.3886
  50   2.0000      -0.487962       -13.2781
  51   2.0000      -0.477668       -12.9980
  52   2.0000      -0.470330       -12.7983
  53   2.0000      -0.461013       -12.5448
  54   2.0000      -0.453396       -12.3375
  55   2.0000      -0.449298       -12.2260
  56   2.0000      -0.444539       -12.0965
  57   2.0000      -0.440738       -11.9931
  58   2.0000      -0.435529       -11.8513
  59   2.0000      -0.426966       -11.6183
  60   2.0000      -0.414570       -11.2810
  61   2.0000      -0.410022       -11.1573
  62   2.0000      -0.404589       -11.0094
  63   2.0000      -0.345705        -9.4071
  64   2.0000      -0.331592        -9.0231
  65   2.0000      -0.327237        -8.9046
  66   2.0000      -0.295015        -8.0278
  67   0.0000       0.028050         0.7633
  68   0.0000       0.065255         1.7757
  69   0.0000       0.102612         2.7922
  70   0.0000       0.117440         3.1957
  71   0.0000       0.133415         3.6304

MULLIKEN ATOMIC CHARGES
-----------------------
   0 S :    0.092993
   1 C :   -0.105979
   2 C :   -0.134640
   3 C :    0.031261
   4 C :   -0.153527
   5 H :    0.021651
   6 C :    0.090745
   7 H :    0.037602
   8 H :    0.023609
   9 C :   -0.031834
  10 H :    0.030954
  11 H :    0.025538
  12 C :   -0.110773
  13 H :    0.025052
  14 H :    0.031777
  15 H :    0.074499
  16 S :    0.103999
  17 C :   -0.068673
  18 C :   -0.069932
  19 C :   -0.093029
  20 C :   -0.125910
  21 H :    0.027786
  22 C :    0.101264
  23 H :    0.024817
  24 H :    0.025506
  25 C :   -0.078851
  26 H :    0.018590
  27 H :    0.017103
  28 C :   -0.030572
  29 H :    0.028708
  30 H :    0.029402
  31 H :    0.042003
  32 H :    0.045860
  33 H :    0.053002
Sum of atomic charges:   -0.0000000

LOEWDIN ATOMIC CHARGES
----------------------
   0 S :    0.381641
   1 C :   -0.187269
   2 C :   -0.065734
   3 C :   -0.062017
   4 C :   -0.182930
   5 H :    0.037414
   6 C :   -0.027286
   7 H :    0.036515
   8 H :    0.030392
   9 C :   -0.032511
  10 H :    0.027123
  11 H :    0.023159
  12 C :   -0.075407
  13 H :    0.021461
  14 H :    0.025889
  15 H :    0.029890
  16 S :    0.418012
  17 C :   -0.190395
  18 C :   -0.069630
  19 C :   -0.056751
  20 C :   -0.214099
  21 H :    0.033293
  22 C :   -0.033003
  23 H :    0.033177
  24 H :    0.030407
  25 C :   -0.045319
  26 H :    0.022107
  27 H :    0.022949
  28 C :   -0.063899
  29 H :    0.021720
  30 H :    0.023580
  31 H :    0.033200
  32 H :    0.026867
  33 H :    0.027455

  Mayer bond orders larger than 0.100000
B(  0-S ,  1-C ) :   1.1165 B(  0-S ,  4-C ) :   1.1372 B(  1-C ,  2-C ) :   1.6519
B(  1-C , 32-H ) :   0.9678 B(  2-C ,  3-C ) :   1.1945 B(  2-C ,  6-C ) :   1.0017
B(  3-C ,  4-C ) :   1.6185 B(  3-C ,  5-H ) :   0.9973 B(  4-C , 20-C ) :   1.0190
B(  6-C ,  7-H ) :   0.9470 B(  6-C ,  8-H ) :   0.9407 B(  6-C ,  9-C ) :   1.0499
B(  9-C , 10-H ) :   0.9592 B(  9-C , 11-H ) :   0.9579 B(  9-C , 12-C ) :   1.0799
B( 12-C , 13-H ) :   0.9713 B( 12-C , 14-H ) :   0.9770 B( 12-C , 15-H ) :   0.9682
B( 16-S , 17-C ) :   1.1750 B( 16-S , 20-C ) :   1.1386 B( 17-C , 18-C ) :   1.5917
B( 17-C , 20-C ) :   0.1038 B( 17-C , 33-H ) :   0.9604 B( 18-C , 19-C ) :   1.2501
B( 18-C , 21-H ) :   0.9940 B( 19-C , 20-C ) :   1.5816 B( 19-C , 22-C ) :   1.0513
B( 22-C , 23-H ) :   0.9279 B( 22-C , 24-H ) :   0.9368 B( 22-C , 25-C ) :   1.0610
B( 25-C , 26-H ) :   0.9496 B( 25-C , 27-H ) :   0.9520 B( 25-C , 28-C ) :   1.0938
B( 28-C , 29-H ) :   0.9729 B( 28-C , 30-H ) :   0.9753 B( 28-C , 31-H ) :   0.9651

Dispersion correction           -0.016001979
FINAL SINGLE POINT ENERGY     -1339.866116312702

DIPOLE MOMENT
-------------
                                X             Y             Z
Electronic contribution:     14.12109       0.75474      20.83644
Nuclear contribution   :    -14.59095      -0.96670     -21.36878
                        -----------------------------------------
Total Dipole Moment    :     -0.46986      -0.21195      -0.53234
                        -----------------------------------------
Magnitude (a.u.)       :      0.74100
Magnitude (Debye)      :      1.88346

Rotational constants in cm-1:     0.019940     0.009560     0.007721
Rotational constants in MHz :   597.792776   286.604479   231.456227

                             ****ORCA TERMINATED NORMALLY****
TOTAL RUN TIME: 0 days 0 hours 0 minutes 22 seconds 884 msec
