                         Program Version 4.2.1 -  RELEASE  -
|  1> ! wB97X-D3 SP def2-SVP
|  2> %pal
|  3> nprocs 24
|  4> end
|  5>
|  6> * xyz 0 1
|  7> S 	 -118.621 	 56.0786 	 -38.9669
|  8> C 	 -117.869 	 54.5882 	 -39.4391
|  9> C 	 -116.52 	 54.9355 	 -39.7307
| 10> C 	 -116.166 	 56.2883 	 -39.6074
| 11> C 	 -117.21 	 57.0955 	 -39.1267
| 12> H 	 -115.198 	 56.7693 	 -39.8831
| 13> C 	 -115.557 	 53.8812 	 -40.3297
| 14> H 	 -115.894 	 53.7889 	 -41.3483
| 15> H 	 -115.758 	 52.9488 	 -39.8247
| 16> C 	 -114.033 	 54.1448 	 -40.2583
| 17> H 	 -113.569 	 53.3787 	 -40.9101
| 18> H 	 -113.771 	 55.0718 	 -40.784
| 19> C 	 -113.578 	 54.0981 	 -38.823
| 20> H 	 -112.545 	 54.2129 	 -38.7024
| 21> H 	 -114.087 	 54.904 	 -38.3336
| 22> H 	 -113.862 	 53.177 	 -38.3149
| 23> S 	 -118.349 	 59.4194 	 -39.9005
| 24> C 	 -117.646 	 60.9497 	 -39.4789
| 25> C 	 -116.464 	 60.8276 	 -38.7323
| 26> C 	 -116.156 	 59.4062 	 -38.5122
| 27> C 	 -117.145 	 58.534 	 -39.0019
| 28> H 	 -115.984 	 61.7436 	 -38.4347
| 29> C 	 -114.944 	 58.9527 	 -37.7911
| 30> H 	 -114.579 	 58.0004 	 -38.1426
| 31> H 	 -115.164 	 58.7745 	 -36.6949
| 32> C 	 -113.757 	 59.9129 	 -37.8693
| 33> H 	 -114.023 	 60.9288 	 -37.5507
| 34> H 	 -113.44 	 59.8365 	 -38.822
| 35> C 	 -112.608 	 59.6008 	 -36.9253
| 36> H 	 -112.76 	 59.6235 	 -35.8888
| 37> H 	 -111.761 	 60.2078 	 -37.1037
| 38> H 	 -112.177 	 58.5897 	 -37.2358
| 39> H 	 -118.259 	 53.6443 	 -39.69
| 40> H 	 -118.084 	 61.9092 	 -39.8026
| 41> *
| 42>
| 43>                          ****END OF INPUT****

CARTESIAN COORDINATES (ANGSTROEM)
---------------------------------
  S    -118.621000   56.078600  -38.966900
  C    -117.869000   54.588200  -39.439100
  C    -116.520000   54.935500  -39.730700
  C    -116.166000   56.288300  -39.607400
  C    -117.210000   57.095500  -39.126700
  H    -115.198000   56.769300  -39.883100
  C    -115.557000   53.881200  -40.329700
  H    -115.894000   53.788900  -41.348300
  H    -115.758000   52.948800  -39.824700
  C    -114.033000   54.144800  -40.258300
  H    -113.569000   53.378700  -40.910100
  H    -113.771000   55.071800  -40.784000
  C    -113.578000   54.098100  -38.823000
  H    -112.545000   54.212900  -38.702400
  H    -114.087000   54.904000  -38.333600
  H    -113.862000   53.177000  -38.314900
  S    -118.349000   59.419400  -39.900500
  C    -117.646000   60.949700  -39.478900
  C    -116.464000   60.827600  -38.732300
  C    -116.156000   59.406200  -38.512200
  C    -117.145000   58.534000  -39.001900
  H    -115.984000   61.743600  -38.434700
  C    -114.944000   58.952700  -37.791100
  H    -114.579000   58.000400  -38.142600
  H    -115.164000   58.774500  -36.694900
  C    -113.757000   59.912900  -37.869300
  H    -114.023000   60.928800  -37.550700
  H    -113.440000   59.836500  -38.822000
  C    -112.608000   59.600800  -36.925300
  H    -112.760000   59.623500  -35.888800
  H    -111.761000   60.207800  -37.103700
  H    -112.177000   58.589700  -37.235800
  H    -118.259000   53.644300  -39.690000
  H    -118.084000   61.909200  -39.802600

 Total Charge           Charge          ....    0
 Multiplicity           Mult            ....    1
 Number of Electrons    NEL             ....  134
 Basis Dimension        Dim             ....  322

ORBITAL ENERGIES
----------------

  NO   OCC          E(Eh)            E(eV)
   0   2.0000     -88.970389     -2421.0074
   1   2.0000     -88.965829     -2420.8833
   2   2.0000     -10.332252      -281.1549
   3   2.0000     -10.328485      -281.0524
   4   2.0000     -10.321505      -280.8624
   5   2.0000     -10.313540      -280.6457
   6   2.0000     -10.312345      -280.6132
   7   2.0000     -10.302601      -280.3480
   8   2.0000     -10.302182      -280.3366
   9   2.0000     -10.295755      -280.1617
  10   2.0000     -10.289620      -279.9948
  11   2.0000     -10.288417      -279.9620
  12   2.0000     -10.287759      -279.9442
  13   2.0000     -10.278392      -279.6893
  14   2.0000     -10.274303      -279.5780
  15   2.0000     -10.268625      -279.4235
  16   2.0000      -8.084440      -219.9888
  17   2.0000      -8.080934      -219.8934
  18   2.0000      -6.042920      -164.4362
  19   2.0000      -6.039377      -164.3398
  20   2.0000      -6.038719      -164.3219
  21   2.0000      -6.035555      -164.2358
  22   2.0000      -6.035264      -164.2279
  23   2.0000      -6.031864      -164.1354
  24   2.0000      -1.007008       -27.4021
  25   2.0000      -0.983109       -26.7518
  26   2.0000      -0.916881       -24.9496
  27   2.0000      -0.910767       -24.7832
  28   2.0000      -0.872800       -23.7501
  29   2.0000      -0.853849       -23.2344
  30   2.0000      -0.842928       -22.9372
  31   2.0000      -0.817033       -22.2326
  32   2.0000      -0.783757       -21.3271
  33   2.0000      -0.771730       -20.9999
  34   2.0000      -0.713991       -19.4287
  35   2.0000      -0.701906       -19.0998
  36   2.0000      -0.695343       -18.9212
  37   2.0000      -0.653984       -17.7958
  38   2.0000      -0.635007       -17.2794
  39   2.0000      -0.622678       -16.9439
  40   2.0000      -0.600049       -16.3282
  41   2.0000      -0.579548       -15.7703
  42   2.0000      -0.571517       -15.5518
  43   2.0000      -0.560859       -15.2617
  44   2.0000      -0.535616       -14.5748
  45   2.0000      -0.527069       -14.3423
  46   2.0000      -0.522130       -14.2079
  47   2.0000      -0.511743       -13.9252
  48   2.0000      -0.508784       -13.8447
  49   2.0000      -0.501110       -13.6359
  50   2.0000      -0.490591       -13.3497
  51   2.0000      -0.486376       -13.2350
  52   2.0000      -0.470690       -12.8081
  53   2.0000      -0.461926       -12.5696
  54   2.0000      -0.460741       -12.5374
  55   2.0000      -0.453760       -12.3474
  56   2.0000      -0.444391       -12.0925
  57   2.0000      -0.441742       -12.0204
  58   2.0000      -0.436240       -11.8707
  59   2.0000      -0.425066       -11.5666
  60   2.0000      -0.420242       -11.4354
  61   2.0000      -0.412363       -11.2210
  62   2.0000      -0.404183       -10.9984
  63   2.0000      -0.349194        -9.5021
  64   2.0000      -0.329679        -8.9710
  65   2.0000      -0.326379        -8.8812
  66   2.0000      -0.288231        -7.8432
  67   0.0000       0.022731         0.6185
  68   0.0000       0.071377         1.9423
  69   0.0000       0.112333         3.0567
  70   0.0000       0.125322         3.4102
  71   0.0000       0.127251         3.4627

MULLIKEN ATOMIC CHARGES
-----------------------
   0 S :    0.125754
   1 C :   -0.091072
   2 C :   -0.131087
   3 C :    0.006918
   4 C :   -0.153676
   5 H :    0.036498
   6 C :    0.045838
   7 H :    0.040144
   8 H :    0.019723
   9 C :   -0.077648
  10 H :    0.027600
  11 H :    0.026996
  12 C :   -0.006309
  13 H :    0.023272
  14 H :    0.027200
  15 H :    0.026705
  16 S :    0.110693
  17 C :   -0.107883
  18 C :   -0.034531
  19 C :   -0.035186
  20 C :   -0.132992
  21 H :    0.024791
  22 C :    0.063619
  23 H :    0.002204
  24 H :    0.045458
  25 C :   -0.057549
  26 H :    0.032849
  27 H :    0.009288
  28 C :   -0.035064
  29 H :    0.029990
  30 H :    0.018483
  31 H :    0.016265
  32 H :    0.035294
  33 H :    0.067416
Sum of atomic charges:    0.0000000

LOEWDIN ATOMIC CHARGES
----------------------
   0 S :    0.431984
   1 C :   -0.212623
   2 C :   -0.062131
   3 C :   -0.077557
   4 C :   -0.203622
   5 H :    0.037752
   6 C :   -0.030948
   7 H :    0.031615
   8 H :    0.026194
   9 C :   -0.044127
  10 H :    0.027080
  11 H :    0.021670
  12 C :   -0.057548
  13 H :    0.017973
  14 H :    0.025296
  15 H :    0.028218
  16 S :    0.420046
  17 C :   -0.189670
  18 C :   -0.071718
  19 C :   -0.049540
  20 C :   -0.204077
  21 H :    0.033273
  22 C :   -0.036165
  23 H :    0.023709
  24 H :    0.041796
  25 C :   -0.029426
  26 H :    0.024746
  27 H :    0.011645
  28 C :   -0.060987
  29 H :    0.017760
  30 H :    0.022145
  31 H :    0.028149
  32 H :    0.025860
  33 H :    0.033228

  Mayer bond orders larger than 0.100000
B(  0-S ,  1-C ) :   1.1500 B(  0-S ,  4-C ) :   1.1842 B(  1-C ,  2-C ) :   1.5416
B(  1-C ,  4-C ) :   0.1178 B(  1-C , 32-H ) :   0.9819 B(  2-C ,  3-C ) :   1.3173
B(  2-C ,  6-C ) :   0.9983 B(  3-C ,  4-C ) :   1.4937 B(  3-C ,  5-H ) :   0.9756
B(  4-C , 20-C ) :   1.0592 B(  6-C ,  7-H ) :   0.9399 B(  6-C ,  8-H ) :   0.9451
B(  6-C ,  9-C ) :   1.0892 B(  9-C , 10-H ) :   0.9512 B(  9-C , 11-H ) :   0.9479
B(  9-C , 12-C ) :   1.0739 B( 12-C , 13-H ) :   0.9730 B( 12-C , 14-H ) :   0.9736
B( 12-C , 15-H ) :   0.9721 B( 16-S , 17-C ) :   1.1756 B( 16-S , 20-C ) :   1.1451
B( 17-C , 18-C ) :   1.6024 B( 17-C , 33-H ) :   0.9618 B( 18-C , 19-C ) :   1.2174
B( 18-C , 21-H ) :   0.9951 B( 19-C , 20-C ) :   1.5760 B( 19-C , 22-C ) :   1.0589
B( 22-C , 23-H ) :   0.9306 B( 22-C , 24-H ) :   0.9273 B( 22-C , 25-C ) :   1.0703
B( 25-C , 26-H ) :   0.9478 B( 25-C , 27-H ) :   0.9578 B( 25-C , 28-C ) :   1.0978
B( 28-C , 29-H ) :   0.9764 B( 28-C , 30-H ) :   0.9699 B( 28-C , 31-H ) :   0.9685

Dispersion correction           -0.014142161
FINAL SINGLE POINT ENERGY     -1339.866391797909

DIPOLE MOMENT
-------------
                                X             Y             Z
Electronic contribution:    -30.22194       6.21079      -5.67792
Nuclear contribution   :     30.91898      -6.16677       5.53779
                        -----------------------------------------
Total Dipole Moment    :      0.69705       0.04402      -0.14013
                        -----------------------------------------
Magnitude (a.u.)       :      0.71236
Magnitude (Debye)      :      1.81066

Rotational constants in cm-1:     0.015629     0.010358     0.006753
Rotational constants in MHz :   468.541278   310.520744   202.452685

                             ****ORCA TERMINATED NORMALLY****
TOTAL RUN TIME: 0 days 0 hours 0 minutes 20 seconds 886 msec
