                         Program Version 4.2.1 -  RELEASE  -
|  1> ! wB97X-D3 SP def2-SVP
|  2> %pal
|  3> nprocs 24
|  4> end
|  5>
|  6> * xyz 0 1
|  7> S 	 -65.0669 	 -48.7618 	 -84.501
|  8> C 	 -63.4924 	 -49.4572 	 -84.9785
|  9> C 	 -62.7835 	 -49.7796 	 -83.8947
| 10> C 	 -63.4654 	 -49.6626 	 -82.6488
| 11> C 	 -64.7972 	 -49.1805 	 -82.8076
| 12> H 	 -63.0475 	 -49.7148 	 -81.666
| 13> C 	 -61.4335 	 -50.3275 	 -83.9652
| 14> H 	 -60.9743 	 -50.0906 	 -83.014
| 15> H 	 -60.8474 	 -49.8536 	 -84.7528
| 16> C 	 -61.2157 	 -51.8056 	 -84.0594
| 17> H 	 -60.1933 	 -52.2008 	 -83.8627
| 18> H 	 -61.7731 	 -52.4551 	 -83.4174
| 19> C 	 -61.6724 	 -52.2363 	 -85.4506
| 20> H 	 -62.7529 	 -52.2737 	 -85.5129
| 21> H 	 -61.5133 	 -51.4276 	 -86.1317
| 22> H 	 -61.294 	 -53.15 	 -85.9378
| 23> S 	 -66.4208 	 -47.169 	 -81.7108
| 24> C 	 -67.4193 	 -47.7305 	 -80.3445
| 25> C 	 -67.0117 	 -48.9498 	 -79.8361
| 26> C 	 -66.0245 	 -49.5967 	 -80.6179
| 27> C 	 -65.7356 	 -48.8453 	 -81.7556
| 28> H 	 -67.5829 	 -49.3635 	 -78.99
| 29> C 	 -65.5717 	 -50.9257 	 -80.2453
| 30> H 	 -65.1482 	 -50.8815 	 -79.2275
| 31> H 	 -64.6429 	 -50.9631 	 -80.8489
| 32> C 	 -66.4887 	 -52.2024 	 -80.3235
| 33> H 	 -67.4677 	 -51.9875 	 -79.9067
| 34> H 	 -66.0814 	 -53.0451 	 -79.7258
| 35> C 	 -66.6759 	 -52.605 	 -81.774
| 36> H 	 -67.1393 	 -51.7185 	 -82.3281
| 37> H 	 -67.2246 	 -53.572 	 -81.8094
| 38> H 	 -65.7471 	 -52.8133 	 -82.286
| 39> H 	 -63.1661 	 -49.6417 	 -86.0555
| 40> H 	 -68.2256 	 -47.1762 	 -79.9799
| 41> *
| 42>
| 43>                          ****END OF INPUT****

CARTESIAN COORDINATES (ANGSTROEM)
---------------------------------
  S    -65.066900  -48.761800  -84.501000
  C    -63.492400  -49.457200  -84.978500
  C    -62.783500  -49.779600  -83.894700
  C    -63.465400  -49.662600  -82.648800
  C    -64.797200  -49.180500  -82.807600
  H    -63.047500  -49.714800  -81.666000
  C    -61.433500  -50.327500  -83.965200
  H    -60.974300  -50.090600  -83.014000
  H    -60.847400  -49.853600  -84.752800
  C    -61.215700  -51.805600  -84.059400
  H    -60.193300  -52.200800  -83.862700
  H    -61.773100  -52.455100  -83.417400
  C    -61.672400  -52.236300  -85.450600
  H    -62.752900  -52.273700  -85.512900
  H    -61.513300  -51.427600  -86.131700
  H    -61.294000  -53.150000  -85.937800
  S    -66.420800  -47.169000  -81.710800
  C    -67.419300  -47.730500  -80.344500
  C    -67.011700  -48.949800  -79.836100
  C    -66.024500  -49.596700  -80.617900
  C    -65.735600  -48.845300  -81.755600
  H    -67.582900  -49.363500  -78.990000
  C    -65.571700  -50.925700  -80.245300
  H    -65.148200  -50.881500  -79.227500
  H    -64.642900  -50.963100  -80.848900
  C    -66.488700  -52.202400  -80.323500
  H    -67.467700  -51.987500  -79.906700
  H    -66.081400  -53.045100  -79.725800
  C    -66.675900  -52.605000  -81.774000
  H    -67.139300  -51.718500  -82.328100
  H    -67.224600  -53.572000  -81.809400
  H    -65.747100  -52.813300  -82.286000
  H    -63.166100  -49.641700  -86.055500
  H    -68.225600  -47.176200  -79.979900

 Total Charge           Charge          ....    0
 Multiplicity           Mult            ....    1
 Number of Electrons    NEL             ....  134
 Basis Dimension        Dim             ....  322

ORBITAL ENERGIES
----------------

  NO   OCC          E(Eh)            E(eV)
   0   2.0000     -88.968887     -2420.9665
   1   2.0000     -88.966690     -2420.9067
   2   2.0000     -10.335796      -281.2513
   3   2.0000     -10.332258      -281.1550
   4   2.0000     -10.318194      -280.7723
   5   2.0000     -10.316332      -280.7217
   6   2.0000     -10.303222      -280.3649
   7   2.0000     -10.298159      -280.2272
   8   2.0000     -10.295581      -280.1570
   9   2.0000     -10.293899      -280.1112
  10   2.0000     -10.292323      -280.0684
  11   2.0000     -10.290001      -280.0052
  12   2.0000     -10.285769      -279.8900
  13   2.0000     -10.284564      -279.8572
  14   2.0000     -10.276903      -279.6488
  15   2.0000     -10.269209      -279.4394
  16   2.0000      -8.082309      -219.9308
  17   2.0000      -8.080680      -219.8865
  18   2.0000      -6.040843      -164.3797
  19   2.0000      -6.039276      -164.3370
  20   2.0000      -6.037378      -164.2854
  21   2.0000      -6.035290      -164.2286
  22   2.0000      -6.032744      -164.1593
  23   2.0000      -6.031382      -164.1222
  24   2.0000      -1.004114       -27.3233
  25   2.0000      -0.983238       -26.7553
  26   2.0000      -0.923513       -25.1301
  27   2.0000      -0.908749       -24.7283
  28   2.0000      -0.870291       -23.6818
  29   2.0000      -0.854617       -23.2553
  30   2.0000      -0.845669       -23.0118
  31   2.0000      -0.810630       -22.0584
  32   2.0000      -0.784138       -21.3375
  33   2.0000      -0.773687       -21.0531
  34   2.0000      -0.714302       -19.4371
  35   2.0000      -0.701738       -19.0953
  36   2.0000      -0.699561       -19.0360
  37   2.0000      -0.659566       -17.9477
  38   2.0000      -0.639951       -17.4139
  39   2.0000      -0.620056       -16.8726
  40   2.0000      -0.596240       -16.2245
  41   2.0000      -0.569696       -15.5022
  42   2.0000      -0.556344       -15.1389
  43   2.0000      -0.552988       -15.0476
  44   2.0000      -0.545904       -14.8548
  45   2.0000      -0.533465       -14.5163
  46   2.0000      -0.525109       -14.2889
  47   2.0000      -0.513418       -13.9708
  48   2.0000      -0.498087       -13.5536
  49   2.0000      -0.494806       -13.4644
  50   2.0000      -0.489367       -13.3163
  51   2.0000      -0.481407       -13.0997
  52   2.0000      -0.467091       -12.7102
  53   2.0000      -0.462823       -12.5941
  54   2.0000      -0.457559       -12.4508
  55   2.0000      -0.448194       -12.1960
  56   2.0000      -0.444572       -12.0974
  57   2.0000      -0.437597       -11.9076
  58   2.0000      -0.434099       -11.8124
  59   2.0000      -0.419333       -11.4106
  60   2.0000      -0.416734       -11.3399
  61   2.0000      -0.414911       -11.2903
  62   2.0000      -0.408105       -11.1051
  63   2.0000      -0.347780        -9.4636
  64   2.0000      -0.334610        -9.1052
  65   2.0000      -0.330625        -8.9968
  66   2.0000      -0.287555        -7.8248
  67   0.0000       0.017263         0.4698
  68   0.0000       0.067137         1.8269
  69   0.0000       0.096796         2.6339
  70   0.0000       0.114184         3.1071
  71   0.0000       0.123987         3.3739

MULLIKEN ATOMIC CHARGES
-----------------------
   0 S :    0.098962
   1 C :   -0.157079
   2 C :   -0.052205
   3 C :    0.031870
   4 C :   -0.181066
   5 H :    0.026418
   6 C :    0.060699
   7 H :    0.012695
   8 H :    0.035822
   9 C :   -0.033532
  10 H :    0.032236
  11 H :    0.017257
  12 C :   -0.065093
  13 H :    0.028232
  14 H :   -0.006046
  15 H :    0.037559
  16 S :    0.098550
  17 C :   -0.073016
  18 C :   -0.032505
  19 C :   -0.048510
  20 C :   -0.135861
  21 H :    0.030095
  22 C :    0.058135
  23 H :    0.031047
  24 H :   -0.003676
  25 C :   -0.034736
  26 H :    0.027164
  27 H :    0.034564
  28 C :   -0.071364
  29 H :    0.056273
  30 H :    0.037873
  31 H :    0.026270
  32 H :    0.077212
  33 H :    0.035758
Sum of atomic charges:   -0.0000000

LOEWDIN ATOMIC CHARGES
----------------------
   0 S :    0.385217
   1 C :   -0.191868
   2 C :   -0.072480
   3 C :   -0.060703
   4 C :   -0.182321
   5 H :    0.029943
   6 C :   -0.031980
   7 H :    0.032322
   8 H :    0.034232
   9 C :   -0.039772
  10 H :    0.029958
  11 H :    0.022104
  12 C :   -0.072801
  13 H :    0.024321
  14 H :    0.010991
  15 H :    0.026703
  16 S :    0.362633
  17 C :   -0.157668
  18 C :   -0.065473
  19 C :   -0.058125
  20 C :   -0.180405
  21 H :    0.037608
  22 C :   -0.046088
  23 H :    0.038372
  24 H :    0.032668
  25 C :   -0.035370
  26 H :    0.022277
  27 H :    0.028676
  28 C :   -0.072776
  29 H :    0.039009
  30 H :    0.028233
  31 H :    0.020899
  32 H :    0.046827
  33 H :    0.014838

  Mayer bond orders larger than 0.100000
B(  0-S ,  1-C ) :   1.1095 B(  0-S ,  4-C ) :   1.1568 B(  1-C ,  2-C ) :   1.6321
B(  1-C , 32-H ) :   0.9587 B(  2-C ,  3-C ) :   1.2343 B(  2-C ,  6-C ) :   1.0369
B(  3-C ,  4-C ) :   1.5453 B(  3-C ,  5-H ) :   0.9813 B(  4-C , 20-C ) :   1.0757
B(  6-C ,  7-H ) :   0.9236 B(  6-C ,  8-H ) :   0.9439 B(  6-C ,  9-C ) :   1.0771
B(  9-C , 10-H ) :   0.9576 B(  9-C , 11-H ) :   0.9537 B(  9-C , 12-C ) :   1.0621
B( 12-C , 13-H ) :   0.9724 B( 12-C , 14-H ) :   0.9732 B( 12-C , 15-H ) :   0.9725
B( 16-S , 17-C ) :   1.1240 B( 16-S , 20-C ) :   1.1222 B( 17-C , 18-C ) :   1.6445
B( 17-C , 33-H ) :   0.9741 B( 18-C , 19-C ) :   1.2010 B( 18-C , 21-H ) :   0.9874
B( 19-C , 20-C ) :   1.5901 B( 19-C , 22-C ) :   1.0642 B( 22-C , 23-H ) :   0.9181
B( 22-C , 24-H ) :   0.9185 B( 22-C , 25-C ) :   1.0578 B( 25-C , 26-H ) :   0.9571
B( 25-C , 27-H ) :   0.9525 B( 25-C , 28-C ) :   1.0768 B( 28-C , 29-H ) :   0.9750
B( 28-C , 30-H ) :   0.9719 B( 28-C , 31-H ) :   0.9755

Dispersion correction           -0.015100729
FINAL SINGLE POINT ENERGY     -1339.855330615840

DIPOLE MOMENT
-------------
                                X             Y             Z
Electronic contribution:    -11.18062      25.16285      -0.02375
Nuclear contribution   :     11.44553     -25.65327       0.39643
                        -----------------------------------------
Total Dipole Moment    :      0.26492      -0.49041       0.37268
                        -----------------------------------------
Magnitude (a.u.)       :      0.67051
Magnitude (Debye)      :      1.70429

Rotational constants in cm-1:     0.020488     0.009034     0.007183
Rotational constants in MHz :   614.212477   270.826621   215.327923

                             ****ORCA TERMINATED NORMALLY****
TOTAL RUN TIME: 0 days 0 hours 0 minutes 22 seconds 668 msec
