                         Program Version 4.2.1 -  RELEASE  -
|  1> ! wB97X-D3 SP def2-SVP
|  2> %pal
|  3> nprocs 24
|  4> end
|  5>
|  6> * xyz 0 1
|  7> S 	 30.3681 	 -34.1749 	 -128.598
|  8> C 	 31.4115 	 -33.7162 	 -127.251
|  9> C 	 32.7622 	 -33.8818 	 -127.586
| 10> C 	 32.8935 	 -34.4456 	 -128.849
| 11> C 	 31.7236 	 -34.5987 	 -129.54
| 12> H 	 33.8022 	 -34.6824 	 -129.386
| 13> C 	 33.9434 	 -33.5536 	 -126.652
| 14> H 	 34.2239 	 -34.5201 	 -126.188
| 15> H 	 33.4961 	 -32.8316 	 -125.94
| 16> C 	 35.2251 	 -32.9609 	 -127.242
| 17> H 	 35.9809 	 -32.8086 	 -126.452
| 18> H 	 35.6094 	 -33.5787 	 -128.056
| 19> C 	 34.8565 	 -31.5928 	 -127.917
| 20> H 	 35.5444 	 -31.2649 	 -128.68
| 21> H 	 33.9139 	 -31.6656 	 -128.478
| 22> H 	 34.8345 	 -30.776 	 -127.144
| 23> S 	 31.7139 	 -33.9299 	 -132.218
| 24> C 	 31.4794 	 -35.259 	 -133.391
| 25> C 	 31.4888 	 -36.5248 	 -132.713
| 26> C 	 31.6002 	 -36.4378 	 -131.286
| 27> C 	 31.615 	 -35.0986 	 -130.875
| 28> H 	 31.3416 	 -37.4545 	 -133.219
| 29> C 	 31.5629 	 -37.6339 	 -130.287
| 30> H 	 30.6174 	 -37.8305 	 -129.802
| 31> H 	 32.1939 	 -37.3351 	 -129.512
| 32> C 	 32.1723 	 -38.9366 	 -130.91
| 33> H 	 33.214 	 -38.6807 	 -131.29
| 34> H 	 31.5331 	 -39.1918 	 -131.776
| 35> C 	 32.27 	 -40.1995 	 -130.075
| 36> H 	 32.6443 	 -41.1607 	 -130.554
| 37> H 	 31.2266 	 -40.3716 	 -129.832
| 38> H 	 32.8035 	 -39.9897 	 -129.182
| 39> H 	 30.9917 	 -33.2303 	 -126.386
| 40> H 	 31.3734 	 -35.1546 	 -134.484
| 41> *
| 42>
| 43>                          ****END OF INPUT****

CARTESIAN COORDINATES (ANGSTROEM)
---------------------------------
  S     30.368100  -34.174900  -128.598000
  C     31.411500  -33.716200  -127.251000
  C     32.762200  -33.881800  -127.586000
  C     32.893500  -34.445600  -128.849000
  C     31.723600  -34.598700  -129.540000
  H     33.802200  -34.682400  -129.386000
  C     33.943400  -33.553600  -126.652000
  H     34.223900  -34.520100  -126.188000
  H     33.496100  -32.831600  -125.940000
  C     35.225100  -32.960900  -127.242000
  H     35.980900  -32.808600  -126.452000
  H     35.609400  -33.578700  -128.056000
  C     34.856500  -31.592800  -127.917000
  H     35.544400  -31.264900  -128.680000
  H     33.913900  -31.665600  -128.478000
  H     34.834500  -30.776000  -127.144000
  S     31.713900  -33.929900  -132.218000
  C     31.479400  -35.259000  -133.391000
  C     31.488800  -36.524800  -132.713000
  C     31.600200  -36.437800  -131.286000
  C     31.615000  -35.098600  -130.875000
  H     31.341600  -37.454500  -133.219000
  C     31.562900  -37.633900  -130.287000
  H     30.617400  -37.830500  -129.802000
  H     32.193900  -37.335100  -129.512000
  C     32.172300  -38.936600  -130.910000
  H     33.214000  -38.680700  -131.290000
  H     31.533100  -39.191800  -131.776000
  C     32.270000  -40.199500  -130.075000
  H     32.644300  -41.160700  -130.554000
  H     31.226600  -40.371600  -129.832000
  H     32.803500  -39.989700  -129.182000
  H     30.991700  -33.230300  -126.386000
  H     31.373400  -35.154600  -134.484000

 Total Charge           Charge          ....    0
 Multiplicity           Mult            ....    1
 Number of Electrons    NEL             ....  134
 Basis Dimension        Dim             ....  322

ORBITAL ENERGIES
----------------

  NO   OCC          E(Eh)            E(eV)
   0   2.0000     -88.969941     -2420.9952
   1   2.0000     -88.966640     -2420.9053
   2   2.0000     -10.328337      -281.0483
   3   2.0000     -10.324339      -280.9395
   4   2.0000     -10.317786      -280.7612
   5   2.0000     -10.315384      -280.6959
   6   2.0000     -10.309191      -280.5274
   7   2.0000     -10.303099      -280.3616
   8   2.0000     -10.299345      -280.2594
   9   2.0000     -10.297899      -280.2201
  10   2.0000     -10.293480      -280.0998
  11   2.0000     -10.292953      -280.0855
  12   2.0000     -10.292703      -280.0787
  13   2.0000     -10.286684      -279.9149
  14   2.0000     -10.279295      -279.7138
  15   2.0000     -10.277235      -279.6578
  16   2.0000      -8.083207      -219.9552
  17   2.0000      -8.081962      -219.9214
  18   2.0000      -6.041771      -164.4049
  19   2.0000      -6.040239      -164.3633
  20   2.0000      -6.037905      -164.2997
  21   2.0000      -6.036316      -164.2565
  22   2.0000      -6.034021      -164.1941
  23   2.0000      -6.033007      -164.1665
  24   2.0000      -1.009112       -27.4593
  25   2.0000      -0.975822       -26.5535
  26   2.0000      -0.909983       -24.7619
  27   2.0000      -0.904003       -24.5992
  28   2.0000      -0.865862       -23.5613
  29   2.0000      -0.848897       -23.0997
  30   2.0000      -0.846800       -23.0426
  31   2.0000      -0.807973       -21.9860
  32   2.0000      -0.784238       -21.3402
  33   2.0000      -0.769243       -20.9322
  34   2.0000      -0.704957       -19.1829
  35   2.0000      -0.696968       -18.9655
  36   2.0000      -0.691606       -18.8196
  37   2.0000      -0.652291       -17.7497
  38   2.0000      -0.642980       -17.4964
  39   2.0000      -0.619415       -16.8551
  40   2.0000      -0.593528       -16.1507
  41   2.0000      -0.570758       -15.5311
  42   2.0000      -0.559242       -15.2178
  43   2.0000      -0.554799       -15.0969
  44   2.0000      -0.541273       -14.7288
  45   2.0000      -0.525009       -14.2862
  46   2.0000      -0.518075       -14.0975
  47   2.0000      -0.513662       -13.9775
  48   2.0000      -0.503802       -13.7092
  49   2.0000      -0.494126       -13.4458
  50   2.0000      -0.480989       -13.0884
  51   2.0000      -0.475837       -12.9482
  52   2.0000      -0.471048       -12.8179
  53   2.0000      -0.463212       -12.6047
  54   2.0000      -0.459951       -12.5159
  55   2.0000      -0.454283       -12.3617
  56   2.0000      -0.445083       -12.1113
  57   2.0000      -0.430075       -11.7029
  58   2.0000      -0.427059       -11.6209
  59   2.0000      -0.423215       -11.5163
  60   2.0000      -0.421574       -11.4716
  61   2.0000      -0.419602       -11.4180
  62   2.0000      -0.412357       -11.2208
  63   2.0000      -0.338713        -9.2169
  64   2.0000      -0.331696        -9.0259
  65   2.0000      -0.314529        -8.5588
  66   2.0000      -0.309534        -8.4228
  67   0.0000       0.040567         1.1039
  68   0.0000       0.049506         1.3471
  69   0.0000       0.109299         2.9742
  70   0.0000       0.123261         3.3541
  71   0.0000       0.127274         3.4633

MULLIKEN ATOMIC CHARGES
-----------------------
   0 S :    0.126106
   1 C :   -0.143755
   2 C :   -0.088059
   3 C :    0.045125
   4 C :   -0.211278
   5 H :    0.007338
   6 C :    0.077492
   7 H :    0.050507
   8 H :    0.025673
   9 C :   -0.070942
  10 H :    0.045499
  11 H :    0.035330
  12 C :   -0.091506
  13 H :    0.026888
  14 H :    0.048376
  15 H :    0.037035
  16 S :    0.117558
  17 C :   -0.108429
  18 C :   -0.034784
  19 C :   -0.029558
  20 C :   -0.184015
  21 H :    0.013969
  22 C :    0.153349
  23 H :    0.037627
  24 H :    0.005781
  25 C :   -0.165458
  26 H :    0.039538
  27 H :    0.035193
  28 C :   -0.018423
  29 H :    0.053355
  30 H :    0.019115
  31 H :    0.024886
  32 H :    0.048574
  33 H :    0.071891
Sum of atomic charges:   -0.0000000

LOEWDIN ATOMIC CHARGES
----------------------
   0 S :    0.429519
   1 C :   -0.195979
   2 C :   -0.063724
   3 C :   -0.067332
   4 C :   -0.219449
   5 H :    0.031838
   6 C :   -0.031244
   7 H :    0.037735
   8 H :    0.033042
   9 C :   -0.042036
  10 H :    0.031552
  11 H :    0.023437
  12 C :   -0.073594
  13 H :    0.020784
  14 H :    0.029570
  15 H :    0.028096
  16 S :    0.388778
  17 C :   -0.184585
  18 C :   -0.065163
  19 C :   -0.046035
  20 C :   -0.197610
  21 H :    0.025342
  22 C :   -0.020186
  23 H :    0.032043
  24 H :    0.023706
  25 C :   -0.048939
  26 H :    0.027099
  27 H :    0.020859
  28 C :   -0.068335
  29 H :    0.038920
  30 H :    0.024237
  31 H :    0.018472
  32 H :    0.023430
  33 H :    0.035754

  Mayer bond orders larger than 0.100000
B(  0-S ,  1-C ) :   1.1565 B(  0-S ,  4-C ) :   1.1757 B(  1-C ,  2-C ) :   1.5741
B(  1-C ,  4-C ) :   0.1077 B(  1-C , 32-H ) :   0.9724 B(  2-C ,  3-C ) :   1.2552
B(  2-C ,  6-C ) :   1.0035 B(  3-C ,  4-C ) :   1.5703 B(  3-C ,  5-H ) :   0.9967
B(  4-C , 20-C ) :   1.0193 B(  6-C ,  7-H ) :   0.9359 B(  6-C ,  8-H ) :   0.9422
B(  6-C ,  9-C ) :   1.0793 B(  9-C , 10-H ) :   0.9577 B(  9-C , 11-H ) :   0.9532
B(  9-C , 12-C ) :   1.0647 B( 12-C , 13-H ) :   0.9776 B( 12-C , 14-H ) :   0.9763
B( 12-C , 15-H ) :   0.9771 B( 16-S , 17-C ) :   1.1481 B( 16-S , 20-C ) :   1.1471
B( 17-C , 18-C ) :   1.5915 B( 17-C , 20-C ) :   0.1140 B( 17-C , 33-H ) :   0.9651
B( 18-C , 19-C ) :   1.2565 B( 18-C , 21-H ) :   0.9860 B( 19-C , 20-C ) :   1.5988
B( 19-C , 22-C ) :   1.0240 B( 22-C , 23-H ) :   0.9354 B( 22-C , 24-H ) :   0.9160
B( 22-C , 25-C ) :   1.0595 B( 25-C , 26-H ) :   0.9598 B( 25-C , 27-H ) :   0.9547
B( 25-C , 28-C ) :   1.0797 B( 28-C , 29-H ) :   0.9730 B( 28-C , 30-H ) :   0.9715
B( 28-C , 31-H ) :   0.9744

Dispersion correction           -0.014374741
FINAL SINGLE POINT ENERGY     -1339.875460194447

DIPOLE MOMENT
-------------
                                X             Y             Z
Electronic contribution:    -15.04477      10.81876      -9.08552
Nuclear contribution   :     15.37246     -11.13584       9.27377
                        -----------------------------------------
Total Dipole Moment    :      0.32770      -0.31708       0.18825
                        -----------------------------------------
Magnitude (a.u.)       :      0.49332
Magnitude (Debye)      :      1.25391

Rotational constants in cm-1:     0.017395     0.008369     0.007199
Rotational constants in MHz :   521.503336   250.896710   215.818577

                             ****ORCA TERMINATED NORMALLY****
TOTAL RUN TIME: 0 days 0 hours 0 minutes 21 seconds 356 msec
