                         Program Version 4.2.1 -  RELEASE  -
|  1> ! wB97X-D3 SP def2-SVP
|  2> %pal
|  3> nprocs 24
|  4> end
|  5>
|  6> * xyz 0 1
|  7> S 	 -98.8631 	 27.2303 	 -116.172
|  8> C 	 -100.084 	 27.2916 	 -114.907
|  9> C 	 -101.339 	 27.1149 	 -115.447
| 10> C 	 -101.339 	 26.7743 	 -116.821
| 11> C 	 -100.05 	 26.7484 	 -117.396
| 12> H 	 -102.239 	 26.6031 	 -117.367
| 13> C 	 -102.591 	 27.0741 	 -114.598
| 14> H 	 -103.404 	 26.9297 	 -115.276
| 15> H 	 -102.669 	 28.115 	 -114.177
| 16> C 	 -102.454 	 26.0183 	 -113.498
| 17> H 	 -102.309 	 24.995 	 -113.886
| 18> H 	 -101.57 	 26.1475 	 -112.908
| 19> C 	 -103.647 	 25.8861 	 -112.549
| 20> H 	 -103.994 	 26.8787 	 -112.169
| 21> H 	 -104.517 	 25.4168 	 -112.955
| 22> H 	 -103.309 	 25.3774 	 -111.574
| 23> S 	 -99.5758 	 28.539 	 -119.398
| 24> C 	 -99.3959 	 28.0366 	 -121.048
| 25> C 	 -99.6787 	 26.6548 	 -121.185
| 26> C 	 -99.8416 	 26.0201 	 -119.924
| 27> C 	 -99.7639 	 26.8852 	 -118.822
| 28> H 	 -99.6881 	 26.2172 	 -122.171
| 29> C 	 -99.7976 	 24.5224 	 -119.867
| 30> H 	 -100.46 	 24.1098 	 -120.579
| 31> H 	 -100.113 	 24.3676 	 -118.829
| 32> C 	 -98.5646 	 23.7627 	 -120.198
| 33> H 	 -97.6468 	 24.3294 	 -120.03
| 34> H 	 -98.4728 	 23.5904 	 -121.255
| 35> C 	 -98.5521 	 22.4835 	 -119.48
| 36> H 	 -99.4506 	 22.0183 	 -119.781
| 37> H 	 -98.5006 	 22.5405 	 -118.407
| 38> H 	 -97.7529 	 21.8392 	 -119.886
| 39> H 	 -99.9639 	 27.608 	 -113.864
| 40> H 	 -99.1988 	 28.6481 	 -121.937
| 41> *
| 42>
| 43>                          ****END OF INPUT****

CARTESIAN COORDINATES (ANGSTROEM)
---------------------------------
  S    -98.863100   27.230300  -116.172000
  C    -100.084000   27.291600  -114.907000
  C    -101.339000   27.114900  -115.447000
  C    -101.339000   26.774300  -116.821000
  C    -100.050000   26.748400  -117.396000
  H    -102.239000   26.603100  -117.367000
  C    -102.591000   27.074100  -114.598000
  H    -103.404000   26.929700  -115.276000
  H    -102.669000   28.115000  -114.177000
  C    -102.454000   26.018300  -113.498000
  H    -102.309000   24.995000  -113.886000
  H    -101.570000   26.147500  -112.908000
  C    -103.647000   25.886100  -112.549000
  H    -103.994000   26.878700  -112.169000
  H    -104.517000   25.416800  -112.955000
  H    -103.309000   25.377400  -111.574000
  S    -99.575800   28.539000  -119.398000
  C    -99.395900   28.036600  -121.048000
  C    -99.678700   26.654800  -121.185000
  C    -99.841600   26.020100  -119.924000
  C    -99.763900   26.885200  -118.822000
  H    -99.688100   26.217200  -122.171000
  C    -99.797600   24.522400  -119.867000
  H    -100.460000   24.109800  -120.579000
  H    -100.113000   24.367600  -118.829000
  C    -98.564600   23.762700  -120.198000
  H    -97.646800   24.329400  -120.030000
  H    -98.472800   23.590400  -121.255000
  C    -98.552100   22.483500  -119.480000
  H    -99.450600   22.018300  -119.781000
  H    -98.500600   22.540500  -118.407000
  H    -97.752900   21.839200  -119.886000
  H    -99.963900   27.608000  -113.864000
  H    -99.198800   28.648100  -121.937000

 Total Charge           Charge          ....    0
 Multiplicity           Mult            ....    1
 Number of Electrons    NEL             ....  134
 Basis Dimension        Dim             ....  322

ORBITAL ENERGIES
----------------

  NO   OCC          E(Eh)            E(eV)
   0   2.0000     -88.969006     -2420.9697
   1   2.0000     -88.964955     -2420.8595
   2   2.0000     -10.333642      -281.1927
   3   2.0000     -10.326902      -281.0093
   4   2.0000     -10.319272      -280.8017
   5   2.0000     -10.316014      -280.7130
   6   2.0000     -10.300907      -280.3019
   7   2.0000     -10.296733      -280.1883
   8   2.0000     -10.296218      -280.1743
   9   2.0000     -10.294969      -280.1404
  10   2.0000     -10.292005      -280.0597
  11   2.0000     -10.287989      -279.9504
  12   2.0000     -10.283320      -279.8234
  13   2.0000     -10.277644      -279.6689
  14   2.0000     -10.271395      -279.4989
  15   2.0000     -10.266524      -279.3663
  16   2.0000      -8.082907      -219.9471
  17   2.0000      -8.079544      -219.8556
  18   2.0000      -6.041453      -164.3963
  19   2.0000      -6.038029      -164.3031
  20   2.0000      -6.037360      -164.2849
  21   2.0000      -6.033953      -164.1922
  22   2.0000      -6.033832      -164.1889
  23   2.0000      -6.030439      -164.0966
  24   2.0000      -1.003126       -27.2964
  25   2.0000      -0.981531       -26.7088
  26   2.0000      -0.922899       -25.1134
  27   2.0000      -0.912529       -24.8312
  28   2.0000      -0.865538       -23.5525
  29   2.0000      -0.855606       -23.2822
  30   2.0000      -0.848663       -23.0933
  31   2.0000      -0.810832       -22.0638
  32   2.0000      -0.780208       -21.2306
  33   2.0000      -0.768162       -20.9028
  34   2.0000      -0.709048       -19.2942
  35   2.0000      -0.701577       -19.0909
  36   2.0000      -0.694029       -18.8855
  37   2.0000      -0.659776       -17.9534
  38   2.0000      -0.638639       -17.3782
  39   2.0000      -0.616563       -16.7775
  40   2.0000      -0.595039       -16.1918
  41   2.0000      -0.576094       -15.6763
  42   2.0000      -0.571137       -15.5414
  43   2.0000      -0.557856       -15.1800
  44   2.0000      -0.529567       -14.4103
  45   2.0000      -0.524124       -14.2621
  46   2.0000      -0.519423       -14.1342
  47   2.0000      -0.511941       -13.9306
  48   2.0000      -0.505205       -13.7473
  49   2.0000      -0.502006       -13.6603
  50   2.0000      -0.492486       -13.4012
  51   2.0000      -0.485446       -13.2097
  52   2.0000      -0.477123       -12.9832
  53   2.0000      -0.464580       -12.6419
  54   2.0000      -0.452545       -12.3144
  55   2.0000      -0.449490       -12.2312
  56   2.0000      -0.439268       -11.9531
  57   2.0000      -0.434016       -11.8102
  58   2.0000      -0.430734       -11.7209
  59   2.0000      -0.423177       -11.5152
  60   2.0000      -0.417596       -11.3634
  61   2.0000      -0.416042       -11.3211
  62   2.0000      -0.406387       -11.0583
  63   2.0000      -0.339527        -9.2390
  64   2.0000      -0.326154        -8.8751
  65   2.0000      -0.322678        -8.7805
  66   2.0000      -0.300408        -8.1745
  67   0.0000       0.030522         0.8306
  68   0.0000       0.052998         1.4421
  69   0.0000       0.117952         3.2096
  70   0.0000       0.121350         3.3021
  71   0.0000       0.134364         3.6562

MULLIKEN ATOMIC CHARGES
-----------------------
   0 S :    0.116329
   1 C :   -0.126751
   2 C :   -0.123476
   3 C :    0.063321
   4 C :   -0.173320
   5 H :    0.008103
   6 C :    0.102385
   7 H :    0.010742
   8 H :    0.041560
   9 C :   -0.071212
  10 H :    0.033162
  11 H :    0.018263
  12 C :   -0.067077
  13 H :    0.020579
  14 H :    0.036815
  15 H :    0.041267
  16 S :    0.121814
  17 C :   -0.102600
  18 C :   -0.047661
  19 C :   -0.038277
  20 C :   -0.158013
  21 H :    0.017687
  22 C :    0.072301
  23 H :    0.011753
  24 H :    0.025296
  25 C :   -0.032914
  26 H :    0.017958
  27 H :    0.008580
  28 C :   -0.027937
  29 H :    0.008298
  30 H :    0.042021
  31 H :    0.027136
  32 H :    0.059300
  33 H :    0.064568
Sum of atomic charges:    0.0000000

LOEWDIN ATOMIC CHARGES
----------------------
   0 S :    0.407797
   1 C :   -0.197886
   2 C :   -0.069564
   3 C :   -0.046974
   4 C :   -0.204964
   5 H :    0.029056
   6 C :   -0.027434
   7 H :    0.024317
   8 H :    0.039774
   9 C :   -0.043637
  10 H :    0.031830
  11 H :    0.020947
  12 C :   -0.073601
  13 H :    0.022872
  14 H :    0.019308
  15 H :    0.036630
  16 S :    0.419188
  17 C :   -0.194333
  18 C :   -0.073923
  19 C :   -0.054552
  20 C :   -0.208732
  21 H :    0.030030
  22 C :   -0.033137
  23 H :    0.028652
  24 H :    0.032290
  25 C :   -0.043127
  26 H :    0.020278
  27 H :    0.020384
  28 C :   -0.054338
  29 H :    0.018786
  30 H :    0.025500
  31 H :    0.029409
  32 H :    0.034589
  33 H :    0.034563

  Mayer bond orders larger than 0.100000
B(  0-S ,  1-C ) :   1.1495 B(  0-S ,  4-C ) :   1.1600 B(  1-C ,  2-C ) :   1.5831
B(  1-C ,  4-C ) :   0.1024 B(  1-C , 32-H ) :   0.9632 B(  2-C ,  3-C ) :   1.2918
B(  2-C ,  6-C ) :   1.0179 B(  3-C ,  4-C ) :   1.5248 B(  3-C ,  5-H ) :   0.9964
B(  4-C , 20-C ) :   1.0205 B(  6-C ,  7-H ) :   0.9444 B(  6-C ,  8-H ) :   0.9304
B(  6-C ,  9-C ) :   1.0653 B(  9-C , 10-H ) :   0.9539 B(  9-C , 11-H ) :   0.9550
B(  9-C , 12-C ) :   1.0839 B( 12-C , 13-H ) :   0.9732 B( 12-C , 14-H ) :   0.9778
B( 12-C , 15-H ) :   0.9740 B( 16-S , 17-C ) :   1.1766 B( 16-S , 20-C ) :   1.1417
B( 17-C , 18-C ) :   1.5830 B( 17-C , 20-C ) :   0.1051 B( 17-C , 33-H ) :   0.9641
B( 18-C , 19-C ) :   1.2510 B( 18-C , 21-H ) :   0.9960 B( 19-C , 20-C ) :   1.5742
B( 19-C , 22-C ) :   1.0657 B( 22-C , 23-H ) :   0.9179 B( 22-C , 24-H ) :   0.9395
B( 22-C , 25-C ) :   1.0586 B( 25-C , 26-H ) :   0.9509 B( 25-C , 27-H ) :   0.9438
B( 25-C , 28-C ) :   1.0978 B( 28-C , 29-H ) :   0.9691 B( 28-C , 30-H ) :   0.9761
B( 28-C , 31-H ) :   0.9677

Dispersion correction           -0.013356392
FINAL SINGLE POINT ENERGY     -1339.864667979555

DIPOLE MOMENT
-------------
                                X             Y             Z
Electronic contribution:     10.54919      19.70443      -8.78472
Nuclear contribution   :    -10.96043     -19.93670       8.76102
                        -----------------------------------------
Total Dipole Moment    :     -0.41124      -0.23226      -0.02370
                        -----------------------------------------
Magnitude (a.u.)       :      0.47289
Magnitude (Debye)      :      1.20199

Rotational constants in cm-1:     0.020088     0.007339     0.006243
Rotational constants in MHz :   602.211994   220.023408   187.155952

                             ****ORCA TERMINATED NORMALLY****
TOTAL RUN TIME: 0 days 0 hours 0 minutes 21 seconds 35 msec
