                         Program Version 4.2.1 -  RELEASE  -
|  1> ! wB97X-D3 SP def2-SVP
|  2> %pal
|  3> nprocs 24
|  4> end
|  5>
|  6> * xyz 0 1
|  7> S 	 -36.9772 	 -49.3966 	 -73.2896
|  8> C 	 -37.748 	 -48.0647 	 -74.0613
|  9> C 	 -38.7067 	 -47.4996 	 -73.2233
| 10> C 	 -38.8845 	 -48.331 	 -72.0842
| 11> C 	 -38.0682 	 -49.4542 	 -71.934
| 12> H 	 -39.5421 	 -48.0877 	 -71.3234
| 13> C 	 -39.4979 	 -46.2297 	 -73.5592
| 14> H 	 -38.9098 	 -45.2773 	 -73.5023
| 15> H 	 -40.0458 	 -45.9278 	 -72.6552
| 16> C 	 -40.2049 	 -46.2061 	 -74.9043
| 17> H 	 -40.4994 	 -45.1493 	 -75.0153
| 18> H 	 -39.4959 	 -46.5789 	 -75.6127
| 19> C 	 -41.4603 	 -47.1446 	 -75.0874
| 20> H 	 -42.1553 	 -46.8295 	 -75.7913
| 21> H 	 -41.2152 	 -48.178 	 -75.2769
| 22> H 	 -42.042 	 -47.1968 	 -74.1388
| 23> S 	 -36.2157 	 -50.6111 	 -70.2182
| 24> C 	 -36.8554 	 -51.841 	 -69.1285
| 25> C 	 -38.2247 	 -51.8838 	 -69.0651
| 26> C 	 -38.864 	 -50.9971 	 -70.0229
| 27> C 	 -37.8963 	 -50.3165 	 -70.7704
| 28> H 	 -38.7072 	 -52.5773 	 -68.3804
| 29> C 	 -40.3082 	 -51.1477 	 -70.4268
| 30> H 	 -40.5706 	 -52.1386 	 -70.6203
| 31> H 	 -40.5557 	 -50.6301 	 -71.3559
| 32> C 	 -41.3307 	 -50.5482 	 -69.428
| 33> H 	 -41.0878 	 -49.4782 	 -69.3564
| 34> H 	 -41.1716 	 -50.9632 	 -68.4095
| 35> C 	 -42.7903 	 -50.8265 	 -69.9486
| 36> H 	 -43.0078 	 -51.9005 	 -70.0092
| 37> H 	 -43.0188 	 -50.5717 	 -71.0681
| 38> H 	 -43.5898 	 -50.4058 	 -69.3768
| 39> H 	 -37.3528 	 -47.555 	 -74.8544
| 40> H 	 -36.2792 	 -52.3802 	 -68.4251
| 41> *
| 42>
| 43>                          ****END OF INPUT****

CARTESIAN COORDINATES (ANGSTROEM)
---------------------------------
  S    -36.977200  -49.396600  -73.289600
  C    -37.748000  -48.064700  -74.061300
  C    -38.706700  -47.499600  -73.223300
  C    -38.884500  -48.331000  -72.084200
  C    -38.068200  -49.454200  -71.934000
  H    -39.542100  -48.087700  -71.323400
  C    -39.497900  -46.229700  -73.559200
  H    -38.909800  -45.277300  -73.502300
  H    -40.045800  -45.927800  -72.655200
  C    -40.204900  -46.206100  -74.904300
  H    -40.499400  -45.149300  -75.015300
  H    -39.495900  -46.578900  -75.612700
  C    -41.460300  -47.144600  -75.087400
  H    -42.155300  -46.829500  -75.791300
  H    -41.215200  -48.178000  -75.276900
  H    -42.042000  -47.196800  -74.138800
  S    -36.215700  -50.611100  -70.218200
  C    -36.855400  -51.841000  -69.128500
  C    -38.224700  -51.883800  -69.065100
  C    -38.864000  -50.997100  -70.022900
  C    -37.896300  -50.316500  -70.770400
  H    -38.707200  -52.577300  -68.380400
  C    -40.308200  -51.147700  -70.426800
  H    -40.570600  -52.138600  -70.620300
  H    -40.555700  -50.630100  -71.355900
  C    -41.330700  -50.548200  -69.428000
  H    -41.087800  -49.478200  -69.356400
  H    -41.171600  -50.963200  -68.409500
  C    -42.790300  -50.826500  -69.948600
  H    -43.007800  -51.900500  -70.009200
  H    -43.018800  -50.571700  -71.068100
  H    -43.589800  -50.405800  -69.376800
  H    -37.352800  -47.555000  -74.854400
  H    -36.279200  -52.380200  -68.425100

 Total Charge           Charge          ....    0
 Multiplicity           Mult            ....    1
 Number of Electrons    NEL             ....  134
 Basis Dimension        Dim             ....  322

ORBITAL ENERGIES
----------------

  NO   OCC          E(Eh)            E(eV)
   0   2.0000     -88.969831     -2420.9922
   1   2.0000     -88.966003     -2420.8880
   2   2.0000     -10.335326      -281.2385
   3   2.0000     -10.329758      -281.0870
   4   2.0000     -10.316030      -280.7134
   5   2.0000     -10.308941      -280.5205
   6   2.0000     -10.307581      -280.4835
   7   2.0000     -10.302660      -280.3496
   8   2.0000     -10.298245      -280.2295
   9   2.0000     -10.297464      -280.2082
  10   2.0000     -10.295557      -280.1564
  11   2.0000     -10.292296      -280.0676
  12   2.0000     -10.289016      -279.9783
  13   2.0000     -10.288184      -279.9557
  14   2.0000     -10.286268      -279.9036
  15   2.0000     -10.272298      -279.5234
  16   2.0000      -8.083712      -219.9690
  17   2.0000      -8.081093      -219.8977
  18   2.0000      -6.042260      -164.4182
  19   2.0000      -6.039515      -164.3436
  20   2.0000      -6.038575      -164.3180
  21   2.0000      -6.035320      -164.2294
  22   2.0000      -6.034240      -164.2000
  23   2.0000      -6.032143      -164.1430
  24   2.0000      -1.006595       -27.3908
  25   2.0000      -0.982869       -26.7452
  26   2.0000      -0.909334       -24.7442
  27   2.0000      -0.906527       -24.6678
  28   2.0000      -0.868892       -23.6438
  29   2.0000      -0.848495       -23.0887
  30   2.0000      -0.842199       -22.9174
  31   2.0000      -0.814927       -22.1753
  32   2.0000      -0.786998       -21.4153
  33   2.0000      -0.774233       -21.0679
  34   2.0000      -0.709771       -19.3139
  35   2.0000      -0.705439       -19.1960
  36   2.0000      -0.697724       -18.9860
  37   2.0000      -0.662645       -18.0315
  38   2.0000      -0.646622       -17.5955
  39   2.0000      -0.617795       -16.8111
  40   2.0000      -0.601834       -16.3767
  41   2.0000      -0.583503       -15.8779
  42   2.0000      -0.561711       -15.2849
  43   2.0000      -0.543232       -14.7821
  44   2.0000      -0.533809       -14.5257
  45   2.0000      -0.519152       -14.1269
  46   2.0000      -0.513531       -13.9739
  47   2.0000      -0.510268       -13.8851
  48   2.0000      -0.504036       -13.7155
  49   2.0000      -0.499197       -13.5838
  50   2.0000      -0.494239       -13.4489
  51   2.0000      -0.478376       -13.0173
  52   2.0000      -0.469235       -12.7685
  53   2.0000      -0.467638       -12.7251
  54   2.0000      -0.459037       -12.4910
  55   2.0000      -0.449978       -12.2445
  56   2.0000      -0.441033       -12.0011
  57   2.0000      -0.438719       -11.9382
  58   2.0000      -0.436447       -11.8763
  59   2.0000      -0.427528       -11.6336
  60   2.0000      -0.419762       -11.4223
  61   2.0000      -0.417435       -11.3590
  62   2.0000      -0.407750       -11.0954
  63   2.0000      -0.351716        -9.5707
  64   2.0000      -0.334054        -9.0901
  65   2.0000      -0.328943        -8.9510
  66   2.0000      -0.289856        -7.8874
  67   0.0000       0.022531         0.6131
  68   0.0000       0.069524         1.8919
  69   0.0000       0.105916         2.8821
  70   0.0000       0.121561         3.3079
  71   0.0000       0.126377         3.4389

MULLIKEN ATOMIC CHARGES
-----------------------
   0 S :    0.109145
   1 C :   -0.088003
   2 C :   -0.090181
   3 C :    0.051755
   4 C :   -0.147477
   5 H :   -0.028961
   6 C :    0.042632
   7 H :    0.032850
   8 H :    0.008216
   9 C :   -0.049524
  10 H :    0.037697
  11 H :    0.031346
  12 C :   -0.042590
  13 H :    0.024383
  14 H :    0.035509
  15 H :    0.019952
  16 S :    0.107159
  17 C :   -0.069720
  18 C :   -0.033200
  19 C :    0.005784
  20 C :   -0.152399
  21 H :    0.024316
  22 C :    0.048977
  23 H :    0.016977
  24 H :    0.024266
  25 C :   -0.086384
  26 H :    0.035710
  27 H :    0.036454
  28 C :   -0.071601
  29 H :    0.025957
  30 H :    0.036558
  31 H :    0.037450
  32 H :    0.026135
  33 H :    0.040813
Sum of atomic charges:   -0.0000000

LOEWDIN ATOMIC CHARGES
----------------------
   0 S :    0.429776
   1 C :   -0.193008
   2 C :   -0.062957
   3 C :   -0.057049
   4 C :   -0.204651
   5 H :    0.013994
   6 C :   -0.047105
   7 H :    0.040559
   8 H :    0.030079
   9 C :   -0.032548
  10 H :    0.030910
  11 H :    0.023744
  12 C :   -0.066552
  13 H :    0.016723
  14 H :    0.026063
  15 H :    0.027561
  16 S :    0.379212
  17 C :   -0.171926
  18 C :   -0.063248
  19 C :   -0.051586
  20 C :   -0.174329
  21 H :    0.033847
  22 C :   -0.028215
  23 H :    0.021957
  24 H :    0.032393
  25 C :   -0.036841
  26 H :    0.023547
  27 H :    0.024684
  28 C :   -0.079471
  29 H :    0.025457
  30 H :    0.036340
  31 H :    0.021221
  32 H :    0.010588
  33 H :    0.020831

  Mayer bond orders larger than 0.100000
B(  0-S ,  1-C ) :   1.1751 B(  0-S ,  4-C ) :   1.1593 B(  1-C ,  2-C ) :   1.5500
B(  1-C ,  4-C ) :   0.1022 B(  1-C , 32-H ) :   0.9744 B(  2-C ,  3-C ) :   1.3077
B(  2-C ,  6-C ) :   1.0192 B(  3-C ,  4-C ) :   1.5098 B(  3-C ,  5-H ) :   1.0047
B(  4-C , 20-C ) :   1.0713 B(  6-C ,  7-H ) :   0.9354 B(  6-C ,  8-H ) :   0.9345
B(  6-C ,  9-C ) :   1.0732 B(  9-C , 10-H ) :   0.9552 B(  9-C , 11-H ) :   0.9587
B(  9-C , 12-C ) :   1.0646 B( 12-C , 13-H ) :   0.9784 B( 12-C , 14-H ) :   0.9769
B( 12-C , 15-H ) :   0.9776 B( 16-S , 17-C ) :   1.1230 B( 16-S , 20-C ) :   1.1266
B( 17-C , 18-C ) :   1.6697 B( 17-C , 33-H ) :   0.9668 B( 18-C , 19-C ) :   1.1936
B( 18-C , 21-H ) :   0.9863 B( 19-C , 20-C ) :   1.6105 B( 19-C , 22-C ) :   1.0456
B( 22-C , 23-H ) :   0.9484 B( 22-C , 24-H ) :   0.9368 B( 22-C , 25-C ) :   1.0400
B( 25-C , 26-H ) :   0.9586 B( 25-C , 27-H ) :   0.9603 B( 25-C , 28-C ) :   1.0639
B( 28-C , 29-H ) :   0.9738 B( 28-C , 30-H ) :   0.9737 B( 28-C , 31-H ) :   0.9776

Dispersion correction           -0.013899313
FINAL SINGLE POINT ENERGY     -1339.861044135796

DIPOLE MOMENT
-------------
                                X             Y             Z
Electronic contribution:     29.76379      -7.97130       4.01603
Nuclear contribution   :    -30.30609       8.16030      -3.87016
                        -----------------------------------------
Total Dipole Moment    :     -0.54230       0.18900       0.14586
                        -----------------------------------------
Magnitude (a.u.)       :      0.59253
Magnitude (Debye)      :      1.50608

Rotational constants in cm-1:     0.017313     0.009138     0.006367
Rotational constants in MHz :   519.043722   273.940557   190.871916

                             ****ORCA TERMINATED NORMALLY****
TOTAL RUN TIME: 0 days 0 hours 0 minutes 21 seconds 237 msec
