                         Program Version 4.2.1 -  RELEASE  -
|  1> ! wB97X-D3 SP def2-SVP
|  2> %pal
|  3> nprocs 24
|  4> end
|  5>
|  6> * xyz 0 1
|  7> S 	 -135.967 	 67.6708 	 -62.086
|  8> C 	 -134.846 	 66.8161 	 -63.1164
|  9> C 	 -135.458 	 66.2122 	 -64.1938
| 10> C 	 -136.873 	 66.4152 	 -64.1614
| 11> C 	 -137.309 	 67.2443 	 -63.1443
| 12> H 	 -137.471 	 65.961 	 -64.9509
| 13> C 	 -134.864 	 65.2546 	 -65.167
| 14> H 	 -133.805 	 65.2669 	 -64.9533
| 15> H 	 -134.895 	 65.6242 	 -66.2117
| 16> C 	 -135.377 	 63.7877 	 -65.2328
| 17> H 	 -136.485 	 63.7033 	 -65.3537
| 18> H 	 -134.751 	 63.2286 	 -65.9419
| 19> C 	 -135.031 	 63.0978 	 -63.8885
| 20> H 	 -135.483 	 63.6223 	 -63.0654
| 21> H 	 -135.243 	 62.052 	 -63.9117
| 22> H 	 -134 	 63.1588 	 -63.6478
| 23> S 	 -139.049 	 67.796 	 -61.0931
| 24> C 	 -140.697 	 68.2062 	 -61.3605
| 25> C 	 -140.994 	 68.0158 	 -62.6866
| 26> C 	 -139.868 	 67.8218 	 -63.6057
| 27> C 	 -138.724 	 67.596 	 -62.8629
| 28> H 	 -142.035 	 68.0207 	 -63.0464
| 29> C 	 -139.894 	 67.9547 	 -65.108
| 30> H 	 -138.928 	 68.1194 	 -65.5482
| 31> H 	 -140.425 	 68.8922 	 -65.2445
| 32> C 	 -140.594 	 66.8295 	 -65.9236
| 33> H 	 -141.568 	 66.606 	 -65.5862
| 34> H 	 -140.019 	 65.8636 	 -65.7805
| 35> C 	 -140.738 	 67.2328 	 -67.4535
| 36> H 	 -141.298 	 68.171 	 -67.6022
| 37> H 	 -141.1 	 66.4088 	 -68.0756
| 38> H 	 -139.757 	 67.5944 	 -67.8009
| 39> H 	 -133.781 	 66.8273 	 -63.0139
| 40> H 	 -141.523 	 68.2727 	 -60.6614
| 41> *
| 42>
| 43>                          ****END OF INPUT****

CARTESIAN COORDINATES (ANGSTROEM)
---------------------------------
  S    -135.967000   67.670800  -62.086000
  C    -134.846000   66.816100  -63.116400
  C    -135.458000   66.212200  -64.193800
  C    -136.873000   66.415200  -64.161400
  C    -137.309000   67.244300  -63.144300
  H    -137.471000   65.961000  -64.950900
  C    -134.864000   65.254600  -65.167000
  H    -133.805000   65.266900  -64.953300
  H    -134.895000   65.624200  -66.211700
  C    -135.377000   63.787700  -65.232800
  H    -136.485000   63.703300  -65.353700
  H    -134.751000   63.228600  -65.941900
  C    -135.031000   63.097800  -63.888500
  H    -135.483000   63.622300  -63.065400
  H    -135.243000   62.052000  -63.911700
  H    -134.000000   63.158800  -63.647800
  S    -139.049000   67.796000  -61.093100
  C    -140.697000   68.206200  -61.360500
  C    -140.994000   68.015800  -62.686600
  C    -139.868000   67.821800  -63.605700
  C    -138.724000   67.596000  -62.862900
  H    -142.035000   68.020700  -63.046400
  C    -139.894000   67.954700  -65.108000
  H    -138.928000   68.119400  -65.548200
  H    -140.425000   68.892200  -65.244500
  C    -140.594000   66.829500  -65.923600
  H    -141.568000   66.606000  -65.586200
  H    -140.019000   65.863600  -65.780500
  C    -140.738000   67.232800  -67.453500
  H    -141.298000   68.171000  -67.602200
  H    -141.100000   66.408800  -68.075600
  H    -139.757000   67.594400  -67.800900
  H    -133.781000   66.827300  -63.013900
  H    -141.523000   68.272700  -60.661400

 Total Charge           Charge          ....    0
 Multiplicity           Mult            ....    1
 Number of Electrons    NEL             ....  134
 Basis Dimension        Dim             ....  322

ORBITAL ENERGIES
----------------

  NO   OCC          E(Eh)            E(eV)
   0   2.0000     -88.971212     -2421.0298
   1   2.0000     -88.961512     -2420.7658
   2   2.0000     -10.335865      -281.2532
   3   2.0000     -10.334360      -281.2122
   4   2.0000     -10.315732      -280.7053
   5   2.0000     -10.314899      -280.6827
   6   2.0000     -10.309344      -280.5315
   7   2.0000     -10.298736      -280.2429
   8   2.0000     -10.297696      -280.2145
   9   2.0000     -10.295981      -280.1679
  10   2.0000     -10.295763      -280.1620
  11   2.0000     -10.295446      -280.1533
  12   2.0000     -10.293964      -280.1130
  13   2.0000     -10.293211      -280.0925
  14   2.0000     -10.287295      -279.9315
  15   2.0000     -10.264688      -279.3164
  16   2.0000      -8.085561      -220.0193
  17   2.0000      -8.076215      -219.7650
  18   2.0000      -6.044286      -164.4734
  19   2.0000      -6.040088      -164.3591
  20   2.0000      -6.036136      -164.2516
  21   2.0000      -6.034925      -164.2187
  22   2.0000      -6.030799      -164.1064
  23   2.0000      -6.026674      -163.9941
  24   2.0000      -1.004989       -27.3471
  25   2.0000      -0.983817       -26.7710
  26   2.0000      -0.912591       -24.8329
  27   2.0000      -0.906794       -24.6751
  28   2.0000      -0.867324       -23.6011
  29   2.0000      -0.851920       -23.1819
  30   2.0000      -0.842643       -22.9295
  31   2.0000      -0.813463       -22.1355
  32   2.0000      -0.781988       -21.2790
  33   2.0000      -0.774800       -21.0834
  34   2.0000      -0.711703       -19.3664
  35   2.0000      -0.703344       -19.1390
  36   2.0000      -0.696257       -18.9461
  37   2.0000      -0.658119       -17.9083
  38   2.0000      -0.635869       -17.3029
  39   2.0000      -0.628351       -17.0983
  40   2.0000      -0.598291       -16.2803
  41   2.0000      -0.566821       -15.4240
  42   2.0000      -0.558211       -15.1897
  43   2.0000      -0.549714       -14.9585
  44   2.0000      -0.542638       -14.7659
  45   2.0000      -0.531894       -14.4736
  46   2.0000      -0.514896       -14.0110
  47   2.0000      -0.509024       -13.8512
  48   2.0000      -0.504299       -13.7227
  49   2.0000      -0.496472       -13.5097
  50   2.0000      -0.492774       -13.4091
  51   2.0000      -0.481080       -13.0908
  52   2.0000      -0.473476       -12.8839
  53   2.0000      -0.460335       -12.5264
  54   2.0000      -0.453272       -12.3342
  55   2.0000      -0.448483       -12.2038
  56   2.0000      -0.447180       -12.1684
  57   2.0000      -0.442779       -12.0486
  58   2.0000      -0.435161       -11.8413
  59   2.0000      -0.426648       -11.6097
  60   2.0000      -0.422737       -11.5033
  61   2.0000      -0.417994       -11.3742
  62   2.0000      -0.411997       -11.2110
  63   2.0000      -0.359178        -9.7737
  64   2.0000      -0.332204        -9.0397
  65   2.0000      -0.325167        -8.8482
  66   2.0000      -0.288921        -7.8619
  67   0.0000       0.024438         0.6650
  68   0.0000       0.078120         2.1258
  69   0.0000       0.099830         2.7165
  70   0.0000       0.116804         3.1784
  71   0.0000       0.127358         3.4656

MULLIKEN ATOMIC CHARGES
-----------------------
   0 S :    0.118796
   1 C :   -0.110374
   2 C :   -0.089110
   3 C :    0.002052
   4 C :   -0.104750
   5 H :    0.009877
   6 C :    0.052186
   7 H :    0.004071
   8 H :    0.038451
   9 C :   -0.075006
  10 H :    0.049285
  11 H :    0.039211
  12 C :   -0.042277
  13 H :    0.036863
  14 H :    0.029300
  15 H :    0.005332
  16 S :    0.073804
  17 C :   -0.059505
  18 C :   -0.062453
  19 C :   -0.040462
  20 C :   -0.135701
  21 H :    0.024612
  22 C :    0.045494
  23 H :    0.025654
  24 H :    0.029162
  25 C :   -0.069310
  26 H :    0.019611
  27 H :    0.039060
  28 C :   -0.059368
  29 H :    0.032241
  30 H :    0.052620
  31 H :    0.018858
  32 H :    0.039276
  33 H :    0.062498
Sum of atomic charges:   -0.0000000

LOEWDIN ATOMIC CHARGES
----------------------
   0 S :    0.406238
   1 C :   -0.193426
   2 C :   -0.067507
   3 C :   -0.061998
   4 C :   -0.189734
   5 H :    0.030450
   6 C :   -0.039617
   7 H :    0.027314
   8 H :    0.034482
   9 C :   -0.034788
  10 H :    0.029528
  11 H :    0.031258
  12 C :   -0.064788
  13 H :    0.025140
  14 H :    0.020781
  15 H :    0.016877
  16 S :    0.377676
  17 C :   -0.198953
  18 C :   -0.071408
  19 C :   -0.058807
  20 C :   -0.162557
  21 H :    0.030017
  22 C :   -0.031084
  23 H :    0.029738
  24 H :    0.035436
  25 C :   -0.035241
  26 H :    0.014000
  27 H :    0.028398
  28 C :   -0.071067
  29 H :    0.028374
  30 H :    0.029569
  31 H :    0.023512
  32 H :    0.025045
  33 H :    0.037143

  Mayer bond orders larger than 0.100000
B(  0-S ,  1-C ) :   1.1312 B(  0-S ,  4-C ) :   1.1452 B(  1-C ,  2-C ) :   1.6133
B(  1-C , 32-H ) :   0.9621 B(  2-C ,  3-C ) :   1.2493 B(  2-C ,  6-C ) :   1.0405
B(  3-C ,  4-C ) :   1.5576 B(  3-C ,  5-H ) :   0.9926 B(  4-C , 20-C ) :   1.0463
B(  6-C ,  7-H ) :   0.9352 B(  6-C ,  8-H ) :   0.9314 B(  6-C ,  9-C ) :   1.0717
B(  9-C , 10-H ) :   0.9552 B(  9-C , 11-H ) :   0.9537 B(  9-C , 12-C ) :   1.0715
B( 12-C , 13-H ) :   0.9760 B( 12-C , 14-H ) :   0.9756 B( 12-C , 15-H ) :   0.9731
B( 16-S , 17-C ) :   1.1323 B( 16-S , 20-C ) :   1.1182 B( 17-C , 18-C ) :   1.6572
B( 17-C , 33-H ) :   0.9621 B( 18-C , 19-C ) :   1.2030 B( 18-C , 21-H ) :   0.9783
B( 19-C , 20-C ) :   1.6328 B( 19-C , 22-C ) :   1.0394 B( 22-C , 23-H ) :   0.9398
B( 22-C , 24-H ) :   0.9318 B( 22-C , 25-C ) :   1.0564 B( 25-C , 26-H ) :   0.9586
B( 25-C , 27-H ) :   0.9552 B( 25-C , 28-C ) :   1.0683 B( 28-C , 29-H ) :   0.9750
B( 28-C , 30-H ) :   0.9759 B( 28-C , 31-H ) :   0.9743

Dispersion correction           -0.014166480
FINAL SINGLE POINT ENERGY     -1339.878727525589

DIPOLE MOMENT
-------------
                                X             Y             Z
Electronic contribution:      1.36057      14.63617      24.33618
Nuclear contribution   :     -1.49294     -14.94687     -25.00157
                        -----------------------------------------
Total Dipole Moment    :     -0.13237      -0.31070      -0.66538
                        -----------------------------------------
Magnitude (a.u.)       :      0.74619
Magnitude (Debye)      :      1.89665

Rotational constants in cm-1:     0.016028     0.009608     0.006834
Rotational constants in MHz :   480.511485   288.050319   204.864545

                             ****ORCA TERMINATED NORMALLY****
TOTAL RUN TIME: 0 days 0 hours 0 minutes 21 seconds 621 msec
