                         Program Version 4.2.1 -  RELEASE  -
|  1> ! wB97X-D3 SP def2-SVP
|  2> %pal
|  3> nprocs 24
|  4> end
|  5>
|  6> * xyz 0 1
|  7> S 	 -105.965 	 34.1574 	 -14.1682
|  8> C 	 -106.636 	 35.101 	 -15.4721
|  9> C 	 -107.87 	 35.5813 	 -14.9777
| 10> C 	 -108.093 	 35.3818 	 -13.5815
| 11> C 	 -107.235 	 34.4948 	 -13.0163
| 12> H 	 -108.907 	 35.7043 	 -12.9634
| 13> C 	 -108.718 	 36.4438 	 -15.8332
| 14> H 	 -109.706 	 36.154 	 -15.5747
| 15> H 	 -108.572 	 36.1962 	 -16.8495
| 16> C 	 -108.466 	 37.9398 	 -15.605
| 17> H 	 -108.849 	 38.1671 	 -14.5604
| 18> H 	 -107.363 	 38.1756 	 -15.6205
| 19> C 	 -109.243 	 38.9149 	 -16.5779
| 20> H 	 -109.249 	 38.5539 	 -17.6457
| 21> H 	 -110.33 	 39.0058 	 -16.2681
| 22> H 	 -108.883 	 39.9661 	 -16.4775
| 23> S 	 -106.923 	 35.4007 	 -10.5457
| 24> C 	 -106.495 	 34.4037 	 -9.18138
| 25> C 	 -106.625 	 33.0349 	 -9.58687
| 26> C 	 -106.995 	 32.8354 	 -10.9421
| 27> C 	 -107.18 	 34.0553 	 -11.6349
| 28> H 	 -106.328 	 32.2703 	 -8.88511
| 29> C 	 -107.241 	 31.4478 	 -11.6636
| 30> H 	 -106.742 	 30.7349 	 -10.9493
| 31> H 	 -106.732 	 31.4611 	 -12.6414
| 32> C 	 -108.692 	 31.0237 	 -11.7103
| 33> H 	 -109.304 	 31.7417 	 -12.2668
| 34> H 	 -109.135 	 31.0779 	 -10.7225
| 35> C 	 -108.75 	 29.6996 	 -12.4607
| 36> H 	 -108.771 	 29.9057 	 -13.5757
| 37> H 	 -109.728 	 29.2554 	 -12.2506
| 38> H 	 -108.021 	 28.9393 	 -12.2991
| 39> H 	 -106.445 	 35.0203 	 -16.508
| 40> H 	 -106.096 	 34.7346 	 -8.25738
| 41> *
| 42>
| 43>                          ****END OF INPUT****

CARTESIAN COORDINATES (ANGSTROEM)
---------------------------------
  S    -105.965000   34.157400  -14.168200
  C    -106.636000   35.101000  -15.472100
  C    -107.870000   35.581300  -14.977700
  C    -108.093000   35.381800  -13.581500
  C    -107.235000   34.494800  -13.016300
  H    -108.907000   35.704300  -12.963400
  C    -108.718000   36.443800  -15.833200
  H    -109.706000   36.154000  -15.574700
  H    -108.572000   36.196200  -16.849500
  C    -108.466000   37.939800  -15.605000
  H    -108.849000   38.167100  -14.560400
  H    -107.363000   38.175600  -15.620500
  C    -109.243000   38.914900  -16.577900
  H    -109.249000   38.553900  -17.645700
  H    -110.330000   39.005800  -16.268100
  H    -108.883000   39.966100  -16.477500
  S    -106.923000   35.400700  -10.545700
  C    -106.495000   34.403700   -9.181380
  C    -106.625000   33.034900   -9.586870
  C    -106.995000   32.835400  -10.942100
  C    -107.180000   34.055300  -11.634900
  H    -106.328000   32.270300   -8.885110
  C    -107.241000   31.447800  -11.663600
  H    -106.742000   30.734900  -10.949300
  H    -106.732000   31.461100  -12.641400
  C    -108.692000   31.023700  -11.710300
  H    -109.304000   31.741700  -12.266800
  H    -109.135000   31.077900  -10.722500
  C    -108.750000   29.699600  -12.460700
  H    -108.771000   29.905700  -13.575700
  H    -109.728000   29.255400  -12.250600
  H    -108.021000   28.939300  -12.299100
  H    -106.445000   35.020300  -16.508000
  H    -106.096000   34.734600   -8.257380

 Total Charge           Charge          ....    0
 Multiplicity           Mult            ....    1
 Number of Electrons    NEL             ....  134
 Basis Dimension        Dim             ....  322

ORBITAL ENERGIES
----------------

  NO   OCC          E(Eh)            E(eV)
   0   2.0000     -88.967920     -2420.9402
   1   2.0000     -88.962043     -2420.7802
   2   2.0000     -10.329696      -281.0853
   3   2.0000     -10.328674      -281.0575
   4   2.0000     -10.323588      -280.9191
   5   2.0000     -10.312401      -280.6147
   6   2.0000     -10.311729      -280.5964
   7   2.0000     -10.301891      -280.3287
   8   2.0000     -10.301050      -280.3058
   9   2.0000     -10.299237      -280.2565
  10   2.0000     -10.296328      -280.1773
  11   2.0000     -10.290605      -280.0216
  12   2.0000     -10.290485      -280.0183
  13   2.0000     -10.284163      -279.8463
  14   2.0000     -10.280952      -279.7589
  15   2.0000     -10.278188      -279.6837
  16   2.0000      -8.082447      -219.9346
  17   2.0000      -8.076687      -219.7778
  18   2.0000      -6.040839      -164.3796
  19   2.0000      -6.036624      -164.2649
  20   2.0000      -6.035256      -164.2277
  21   2.0000      -6.033663      -164.1843
  22   2.0000      -6.030993      -164.1117
  23   2.0000      -6.027556      -164.0181
  24   2.0000      -1.008874       -27.4529
  25   2.0000      -0.983391       -26.7594
  26   2.0000      -0.910776       -24.7835
  27   2.0000      -0.909063       -24.7369
  28   2.0000      -0.869949       -23.6725
  29   2.0000      -0.848691       -23.0940
  30   2.0000      -0.840129       -22.8611
  31   2.0000      -0.815526       -22.1916
  32   2.0000      -0.778159       -21.1748
  33   2.0000      -0.766253       -20.8508
  34   2.0000      -0.707443       -19.2505
  35   2.0000      -0.696769       -18.9600
  36   2.0000      -0.692334       -18.8394
  37   2.0000      -0.669710       -18.2237
  38   2.0000      -0.643385       -17.5074
  39   2.0000      -0.618608       -16.8332
  40   2.0000      -0.591716       -16.1014
  41   2.0000      -0.568991       -15.4830
  42   2.0000      -0.564842       -15.3701
  43   2.0000      -0.558269       -15.1913
  44   2.0000      -0.523419       -14.2430
  45   2.0000      -0.523006       -14.2317
  46   2.0000      -0.519792       -14.1443
  47   2.0000      -0.515409       -14.0250
  48   2.0000      -0.506255       -13.7759
  49   2.0000      -0.503076       -13.6894
  50   2.0000      -0.491065       -13.3626
  51   2.0000      -0.483909       -13.1678
  52   2.0000      -0.472517       -12.8578
  53   2.0000      -0.463705       -12.6181
  54   2.0000      -0.460966       -12.5435
  55   2.0000      -0.446719       -12.1558
  56   2.0000      -0.442273       -12.0349
  57   2.0000      -0.433002       -11.7826
  58   2.0000      -0.432509       -11.7692
  59   2.0000      -0.419828       -11.4241
  60   2.0000      -0.418340       -11.3836
  61   2.0000      -0.407105       -11.0779
  62   2.0000      -0.403358       -10.9759
  63   2.0000      -0.342223        -9.3124
  64   2.0000      -0.334387        -9.0991
  65   2.0000      -0.325153        -8.8479
  66   2.0000      -0.295491        -8.0407
  67   0.0000       0.027035         0.7357
  68   0.0000       0.058515         1.5923
  69   0.0000       0.107357         2.9213
  70   0.0000       0.122448         3.3320
  71   0.0000       0.133228         3.6253

MULLIKEN ATOMIC CHARGES
-----------------------
   0 S :    0.100662
   1 C :   -0.090512
   2 C :   -0.135004
   3 C :    0.006547
   4 C :   -0.098797
   5 H :    0.008314
   6 C :    0.127794
   7 H :    0.011239
   8 H :   -0.001812
   9 C :   -0.106643
  10 H :    0.035578
  11 H :    0.046250
  12 C :   -0.083073
  13 H :    0.043574
  14 H :    0.036167
  15 H :    0.047063
  16 S :    0.117465
  17 C :   -0.089160
  18 C :   -0.056788
  19 C :   -0.032889
  20 C :   -0.179500
  21 H :    0.021148
  22 C :    0.040214
  23 H :    0.025839
  24 H :    0.040843
  25 C :   -0.042602
  26 H :    0.028059
  27 H :    0.026691
  28 C :   -0.051623
  29 H :    0.042586
  30 H :    0.028356
  31 H :    0.030930
  32 H :    0.049749
  33 H :    0.053334
Sum of atomic charges:    0.0000000

LOEWDIN ATOMIC CHARGES
----------------------
   0 S :    0.410411
   1 C :   -0.206187
   2 C :   -0.052657
   3 C :   -0.074756
   4 C :   -0.195277
   5 H :    0.029730
   6 C :   -0.032096
   7 H :    0.025945
   8 H :    0.020535
   9 C :   -0.043158
  10 H :    0.029826
  11 H :    0.030286
  12 C :   -0.082633
  13 H :    0.027564
  14 H :    0.029244
  15 H :    0.031428
  16 S :    0.433590
  17 C :   -0.187067
  18 C :   -0.074459
  19 C :   -0.053850
  20 C :   -0.207772
  21 H :    0.029832
  22 C :   -0.027397
  23 H :    0.033504
  24 H :    0.030531
  25 C :   -0.042804
  26 H :    0.027479
  27 H :    0.024299
  28 C :   -0.068007
  29 H :    0.036527
  30 H :    0.027176
  31 H :    0.018968
  32 H :    0.026183
  33 H :    0.025061

  Mayer bond orders larger than 0.100000
B(  0-S ,  1-C ) :   1.1382 B(  0-S ,  4-C ) :   1.1501 B(  1-C ,  2-C ) :   1.5775
B(  1-C ,  4-C ) :   0.1004 B(  1-C , 32-H ) :   0.9712 B(  2-C ,  3-C ) :   1.2332
B(  2-C ,  6-C ) :   1.0552 B(  3-C ,  4-C ) :   1.5628 B(  3-C ,  5-H ) :   1.0003
B(  4-C , 20-C ) :   1.0365 B(  6-C ,  7-H ) :   0.9302 B(  6-C ,  8-H ) :   0.9333
B(  6-C ,  9-C ) :   1.0550 B(  9-C , 10-H ) :   0.9557 B(  9-C , 11-H ) :   0.9610
B(  9-C , 12-C ) :   1.0663 B( 12-C , 13-H ) :   0.9765 B( 12-C , 14-H ) :   0.9763
B( 12-C , 15-H ) :   0.9760 B( 16-S , 17-C ) :   1.1885 B( 16-S , 20-C ) :   1.1650
B( 17-C , 18-C ) :   1.5380 B( 17-C , 20-C ) :   0.1179 B( 17-C , 33-H ) :   0.9759
B( 18-C , 19-C ) :   1.3015 B( 18-C , 21-H ) :   0.9902 B( 19-C , 20-C ) :   1.5259
B( 19-C , 22-C ) :   1.0203 B( 22-C , 23-H ) :   0.9353 B( 22-C , 24-H ) :   0.9404
B( 22-C , 25-C ) :   1.0732 B( 25-C , 26-H ) :   0.9531 B( 25-C , 27-H ) :   0.9538
B( 25-C , 28-C ) :   1.0701 B( 28-C , 29-H ) :   0.9751 B( 28-C , 30-H ) :   0.9724
B( 28-C , 31-H ) :   0.9782

Dispersion correction           -0.013745881
FINAL SINGLE POINT ENERGY     -1339.866488842942

DIPOLE MOMENT
-------------
                                X             Y             Z
Electronic contribution:     14.00351       2.35126      11.59530
Nuclear contribution   :    -14.32333      -2.51171     -11.59078
                        -----------------------------------------
Total Dipole Moment    :     -0.31982      -0.16045       0.00452
                        -----------------------------------------
Magnitude (a.u.)       :      0.35784
Magnitude (Debye)      :      0.90956

Rotational constants in cm-1:     0.020212     0.007611     0.006426
Rotational constants in MHz :   605.936687   228.186106   192.643651

                             ****ORCA TERMINATED NORMALLY****
TOTAL RUN TIME: 0 days 0 hours 0 minutes 21 seconds 897 msec
