                         Program Version 4.2.1 -  RELEASE  -
|  1> ! wB97X-D3 SP def2-SVP
|  2> %pal
|  3> nprocs 24
|  4> end
|  5>
|  6> * xyz 0 1
|  7> S 	 30.9396 	 -25.0126 	 -129.336
|  8> C 	 30.3735 	 -25.6342 	 -130.869
|  9> C 	 29.2685 	 -26.4908 	 -130.518
| 10> C 	 28.8093 	 -26.4059 	 -129.145
| 11> C 	 29.5851 	 -25.6212 	 -128.416
| 12> H 	 28.0111 	 -26.9702 	 -128.698
| 13> C 	 28.5754 	 -27.3494 	 -131.571
| 14> H 	 28.7648 	 -26.7731 	 -132.522
| 15> H 	 27.5052 	 -27.3552 	 -131.512
| 16> C 	 29.2387 	 -28.6773 	 -131.887
| 17> H 	 30.2831 	 -28.512 	 -132.009
| 18> H 	 29.1074 	 -29.4212 	 -131.068
| 19> C 	 28.7375 	 -29.3255 	 -133.152
| 20> H 	 27.6235 	 -29.4326 	 -133.207
| 21> H 	 28.8834 	 -28.6694 	 -134.004
| 22> H 	 29.12 	 -30.3415 	 -133.235
| 23> S 	 31.1126 	 -25.6079 	 -126.191
| 24> C 	 30.4334 	 -25.3498 	 -124.646
| 25> C 	 29.082 	 -25.3695 	 -124.709
| 26> C 	 28.5448 	 -25.4465 	 -126.057
| 27> C 	 29.5982 	 -25.5262 	 -126.956
| 28> H 	 28.4845 	 -25.4182 	 -123.827
| 29> C 	 27.0619 	 -25.5498 	 -126.343
| 30> H 	 26.9094 	 -26.6478 	 -126.504
| 31> H 	 26.9825 	 -25.1717 	 -127.409
| 32> C 	 26.0495 	 -24.7812 	 -125.506
| 33> H 	 25.8889 	 -25.248 	 -124.509
| 34> H 	 25.0784 	 -24.8 	 -126.04
| 35> C 	 26.4272 	 -23.3274 	 -125.437
| 36> H 	 26.3907 	 -22.9053 	 -126.425
| 37> H 	 27.4048 	 -23.1852 	 -125.008
| 38> H 	 25.6574 	 -22.805 	 -124.915
| 39> H 	 30.9423 	 -25.7335 	 -131.759
| 40> H 	 31.0439 	 -25.313 	 -123.774
| 41> *
| 42>
| 43>                          ****END OF INPUT****

CARTESIAN COORDINATES (ANGSTROEM)
---------------------------------
  S     30.939600  -25.012600  -129.336000
  C     30.373500  -25.634200  -130.869000
  C     29.268500  -26.490800  -130.518000
  C     28.809300  -26.405900  -129.145000
  C     29.585100  -25.621200  -128.416000
  H     28.011100  -26.970200  -128.698000
  C     28.575400  -27.349400  -131.571000
  H     28.764800  -26.773100  -132.522000
  H     27.505200  -27.355200  -131.512000
  C     29.238700  -28.677300  -131.887000
  H     30.283100  -28.512000  -132.009000
  H     29.107400  -29.421200  -131.068000
  C     28.737500  -29.325500  -133.152000
  H     27.623500  -29.432600  -133.207000
  H     28.883400  -28.669400  -134.004000
  H     29.120000  -30.341500  -133.235000
  S     31.112600  -25.607900  -126.191000
  C     30.433400  -25.349800  -124.646000
  C     29.082000  -25.369500  -124.709000
  C     28.544800  -25.446500  -126.057000
  C     29.598200  -25.526200  -126.956000
  H     28.484500  -25.418200  -123.827000
  C     27.061900  -25.549800  -126.343000
  H     26.909400  -26.647800  -126.504000
  H     26.982500  -25.171700  -127.409000
  C     26.049500  -24.781200  -125.506000
  H     25.888900  -25.248000  -124.509000
  H     25.078400  -24.800000  -126.040000
  C     26.427200  -23.327400  -125.437000
  H     26.390700  -22.905300  -126.425000
  H     27.404800  -23.185200  -125.008000
  H     25.657400  -22.805000  -124.915000
  H     30.942300  -25.733500  -131.759000
  H     31.043900  -25.313000  -123.774000

 Total Charge           Charge          ....    0
 Multiplicity           Mult            ....    1
 Number of Electrons    NEL             ....  134
 Basis Dimension        Dim             ....  322

ORBITAL ENERGIES
----------------

  NO   OCC          E(Eh)            E(eV)
   0   2.0000     -88.962991     -2420.8061
   1   2.0000     -88.962203     -2420.7846
   2   2.0000     -10.324840      -280.9532
   3   2.0000     -10.321282      -280.8564
   4   2.0000     -10.318073      -280.7690
   5   2.0000     -10.310717      -280.5689
   6   2.0000     -10.308961      -280.5211
   7   2.0000     -10.303456      -280.3713
   8   2.0000     -10.299232      -280.2563
   9   2.0000     -10.291776      -280.0535
  10   2.0000     -10.290385      -280.0156
  11   2.0000     -10.290263      -280.0123
  12   2.0000     -10.289380      -279.9883
  13   2.0000     -10.283225      -279.8208
  14   2.0000     -10.278253      -279.6855
  15   2.0000     -10.268042      -279.4076
  16   2.0000      -8.078994      -219.8406
  17   2.0000      -8.077879      -219.8103
  18   2.0000      -6.037402      -164.2861
  19   2.0000      -6.036528      -164.2623
  20   2.0000      -6.033221      -164.1723
  21   2.0000      -6.032258      -164.1461
  22   2.0000      -6.029718      -164.0770
  23   2.0000      -6.028551      -164.0452
  24   2.0000      -1.016697       -27.6657
  25   2.0000      -0.989001       -26.9121
  26   2.0000      -0.916546       -24.9405
  27   2.0000      -0.914107       -24.8741
  28   2.0000      -0.874497       -23.7963
  29   2.0000      -0.855944       -23.2914
  30   2.0000      -0.845134       -22.9973
  31   2.0000      -0.822812       -22.3898
  32   2.0000      -0.783612       -21.3232
  33   2.0000      -0.767803       -20.8930
  34   2.0000      -0.705396       -19.1948
  35   2.0000      -0.700218       -19.0539
  36   2.0000      -0.695974       -18.9384
  37   2.0000      -0.659915       -17.9572
  38   2.0000      -0.645212       -17.5571
  39   2.0000      -0.622607       -16.9420
  40   2.0000      -0.599477       -16.3126
  41   2.0000      -0.571478       -15.5507
  42   2.0000      -0.564163       -15.3517
  43   2.0000      -0.558132       -15.1875
  44   2.0000      -0.550098       -14.9689
  45   2.0000      -0.529445       -14.4069
  46   2.0000      -0.519561       -14.1380
  47   2.0000      -0.517023       -14.0689
  48   2.0000      -0.509003       -13.8507
  49   2.0000      -0.498799       -13.5730
  50   2.0000      -0.495444       -13.4817
  51   2.0000      -0.480714       -13.0809
  52   2.0000      -0.469322       -12.7709
  53   2.0000      -0.465107       -12.6562
  54   2.0000      -0.456834       -12.4311
  55   2.0000      -0.453802       -12.3486
  56   2.0000      -0.444796       -12.1035
  57   2.0000      -0.440596       -11.9892
  58   2.0000      -0.432792       -11.7769
  59   2.0000      -0.427824       -11.6417
  60   2.0000      -0.414389       -11.2761
  61   2.0000      -0.410113       -11.1597
  62   2.0000      -0.409094       -11.1320
  63   2.0000      -0.358153        -9.7458
  64   2.0000      -0.328387        -8.9359
  65   2.0000      -0.324630        -8.8336
  66   2.0000      -0.290928        -7.9165
  67   0.0000       0.028528         0.7763
  68   0.0000       0.077845         2.1183
  69   0.0000       0.113769         3.0958
  70   0.0000       0.121935         3.3180
  71   0.0000       0.136508         3.7146

MULLIKEN ATOMIC CHARGES
-----------------------
   0 S :    0.088474
   1 C :   -0.080313
   2 C :   -0.123507
   3 C :    0.019466
   4 C :   -0.095692
   5 H :    0.008576
   6 C :    0.023006
   7 H :    0.017637
   8 H :    0.023700
   9 C :   -0.040674
  10 H :    0.019099
  11 H :    0.029309
  12 C :   -0.051858
  13 H :    0.020985
  14 H :    0.022985
  15 H :    0.042530
  16 S :    0.112250
  17 C :   -0.079353
  18 C :   -0.020164
  19 C :   -0.080268
  20 C :   -0.149582
  21 H :    0.007985
  22 C :    0.013231
  23 H :    0.056307
  24 H :    0.031744
  25 C :   -0.056762
  26 H :    0.036874
  27 H :    0.034079
  28 C :   -0.023447
  29 H :    0.022736
  30 H :    0.043627
  31 H :    0.024732
  32 H :    0.054894
  33 H :    0.047390
Sum of atomic charges:    0.0000000

LOEWDIN ATOMIC CHARGES
----------------------
   0 S :    0.403394
   1 C :   -0.205905
   2 C :   -0.045801
   3 C :   -0.071014
   4 C :   -0.184630
   5 H :    0.032914
   6 C :   -0.041744
   7 H :    0.036479
   8 H :    0.024289
   9 C :   -0.041833
  10 H :    0.020961
  11 H :    0.024844
  12 C :   -0.069510
  13 H :    0.026366
  14 H :    0.021584
  15 H :    0.029572
  16 S :    0.439436
  17 C :   -0.192554
  18 C :   -0.070885
  19 C :   -0.060378
  20 C :   -0.212719
  21 H :    0.025921
  22 C :   -0.048079
  23 H :    0.037879
  24 H :    0.038460
  25 C :   -0.044419
  26 H :    0.024061
  27 H :    0.033635
  28 C :   -0.056778
  29 H :    0.026630
  30 H :    0.025254
  31 H :    0.023633
  32 H :    0.026361
  33 H :    0.024580

  Mayer bond orders larger than 0.100000
B(  0-S ,  1-C ) :   1.1273 B(  0-S ,  4-C ) :   1.1536 B(  1-C ,  2-C ) :   1.5879
B(  1-C , 32-H ) :   0.9703 B(  2-C ,  3-C ) :   1.2367 B(  2-C ,  6-C ) :   1.0293
B(  3-C ,  4-C ) :   1.5667 B(  3-C ,  5-H ) :   1.0001 B(  4-C , 20-C ) :   1.0285
B(  6-C ,  7-H ) :   0.9421 B(  6-C ,  8-H ) :   0.9508 B(  6-C ,  9-C ) :   1.0598
B(  9-C , 10-H ) :   0.9519 B(  9-C , 11-H ) :   0.9518 B(  9-C , 12-C ) :   1.0883
B( 12-C , 13-H ) :   0.9719 B( 12-C , 14-H ) :   0.9722 B( 12-C , 15-H ) :   0.9726
B( 16-S , 17-C ) :   1.1587 B( 16-S , 20-C ) :   1.1643 B( 17-C , 18-C ) :   1.5946
B( 17-C , 33-H ) :   0.9750 B( 18-C , 19-C ) :   1.2411 B( 18-C , 21-H ) :   0.9945
B( 19-C , 20-C ) :   1.5925 B( 19-C , 22-C ) :   1.0366 B( 22-C , 23-H ) :   0.9303
B( 22-C , 24-H ) :   0.9249 B( 22-C , 25-C ) :   1.0668 B( 25-C , 26-H ) :   0.9493
B( 25-C , 27-H ) :   0.9518 B( 25-C , 28-C ) :   1.0869 B( 28-C , 29-H ) :   0.9706
B( 28-C , 30-H ) :   0.9716 B( 28-C , 31-H ) :   0.9704

Dispersion correction           -0.013824607
FINAL SINGLE POINT ENERGY     -1339.874328503523

DIPOLE MOMENT
-------------
                                X             Y             Z
Electronic contribution:     20.50287       7.74346       9.27908
Nuclear contribution   :    -21.04283      -8.15671      -9.25524
                        -----------------------------------------
Total Dipole Moment    :     -0.53996      -0.41325       0.02384
                        -----------------------------------------
Magnitude (a.u.)       :      0.68037
Magnitude (Debye)      :      1.72935

Rotational constants in cm-1:     0.021677     0.007430     0.006303
Rotational constants in MHz :   649.852075   222.740429   188.949623

                             ****ORCA TERMINATED NORMALLY****
TOTAL RUN TIME: 0 days 0 hours 0 minutes 21 seconds 325 msec
