                         Program Version 4.2.1 -  RELEASE  -
|  1> ! wB97X-D3 SP def2-SVP
|  2> %pal
|  3> nprocs 24
|  4> end
|  5>
|  6> * xyz 0 1
|  7> S 	 -101.951 	 25.0492 	 -118.071
|  8> C 	 -103.428 	 24.0784 	 -118.178
|  9> C 	 -104.129 	 24.3891 	 -119.329
| 10> C 	 -103.401 	 25.3419 	 -120.185
| 11> C 	 -102.161 	 25.8061 	 -119.649
| 12> H 	 -103.71 	 25.693 	 -121.147
| 13> C 	 -105.51 	 23.8872 	 -119.662
| 14> H 	 -105.861 	 23.0453 	 -118.961
| 15> H 	 -105.365 	 23.3242 	 -120.621
| 16> C 	 -106.634 	 25.0098 	 -119.637
| 17> H 	 -106.966 	 25.2398 	 -118.61
| 18> H 	 -106.155 	 25.8507 	 -120.141
| 19> C 	 -107.794 	 24.5881 	 -120.504
| 20> H 	 -108.202 	 23.5947 	 -120.13
| 21> H 	 -108.627 	 25.3358 	 -120.401
| 22> H 	 -107.443 	 24.6876 	 -121.572
| 23> S 	 -100.319 	 27.7986 	 -119.267
| 24> C 	 -99.1144 	 28.1038 	 -120.47
| 25> C 	 -99.3416 	 27.3866 	 -121.612
| 26> C 	 -100.424 	 26.4732 	 -121.498
| 27> C 	 -101.074 	 26.5825 	 -120.275
| 28> H 	 -98.6369 	 27.5177 	 -122.418
| 29> C 	 -100.935 	 25.6652 	 -122.706
| 30> H 	 -101.885 	 26.0972 	 -123.116
| 31> H 	 -101.303 	 24.65 	 -122.415
| 32> C 	 -99.8978 	 25.4409 	 -123.887
| 33> H 	 -98.9794 	 25.201 	 -123.426
| 34> H 	 -99.5334 	 26.2193 	 -124.562
| 35> C 	 -100.414 	 24.2745 	 -124.839
| 36> H 	 -101.288 	 24.6547 	 -125.355
| 37> H 	 -100.713 	 23.3626 	 -124.283
| 38> H 	 -99.5876 	 24.0223 	 -125.58
| 39> H 	 -103.836 	 23.4447 	 -117.358
| 40> H 	 -98.4633 	 28.9164 	 -120.394
| 41> *
| 42>
| 43>                          ****END OF INPUT****

CARTESIAN COORDINATES (ANGSTROEM)
---------------------------------
  S    -101.951000   25.049200  -118.071000
  C    -103.428000   24.078400  -118.178000
  C    -104.129000   24.389100  -119.329000
  C    -103.401000   25.341900  -120.185000
  C    -102.161000   25.806100  -119.649000
  H    -103.710000   25.693000  -121.147000
  C    -105.510000   23.887200  -119.662000
  H    -105.861000   23.045300  -118.961000
  H    -105.365000   23.324200  -120.621000
  C    -106.634000   25.009800  -119.637000
  H    -106.966000   25.239800  -118.610000
  H    -106.155000   25.850700  -120.141000
  C    -107.794000   24.588100  -120.504000
  H    -108.202000   23.594700  -120.130000
  H    -108.627000   25.335800  -120.401000
  H    -107.443000   24.687600  -121.572000
  S    -100.319000   27.798600  -119.267000
  C    -99.114400   28.103800  -120.470000
  C    -99.341600   27.386600  -121.612000
  C    -100.424000   26.473200  -121.498000
  C    -101.074000   26.582500  -120.275000
  H    -98.636900   27.517700  -122.418000
  C    -100.935000   25.665200  -122.706000
  H    -101.885000   26.097200  -123.116000
  H    -101.303000   24.650000  -122.415000
  C    -99.897800   25.440900  -123.887000
  H    -98.979400   25.201000  -123.426000
  H    -99.533400   26.219300  -124.562000
  C    -100.414000   24.274500  -124.839000
  H    -101.288000   24.654700  -125.355000
  H    -100.713000   23.362600  -124.283000
  H    -99.587600   24.022300  -125.580000
  H    -103.836000   23.444700  -117.358000
  H    -98.463300   28.916400  -120.394000

 Total Charge           Charge          ....    0
 Multiplicity           Mult            ....    1
 Number of Electrons    NEL             ....  134
 Basis Dimension        Dim             ....  322

ORBITAL ENERGIES
----------------

  NO   OCC          E(Eh)            E(eV)
   0   2.0000     -88.965896     -2420.8851
   1   2.0000     -88.963552     -2420.8213
   2   2.0000     -10.338344      -281.3206
   3   2.0000     -10.330803      -281.1154
   4   2.0000     -10.318686      -280.7857
   5   2.0000     -10.312306      -280.6121
   6   2.0000     -10.309813      -280.5443
   7   2.0000     -10.306612      -280.4572
   8   2.0000     -10.306285      -280.4483
   9   2.0000     -10.303108      -280.3618
  10   2.0000     -10.302482      -280.3448
  11   2.0000     -10.294160      -280.1183
  12   2.0000     -10.291901      -280.0569
  13   2.0000     -10.291065      -280.0341
  14   2.0000     -10.289989      -280.0048
  15   2.0000     -10.288636      -279.9680
  16   2.0000      -8.081262      -219.9023
  17   2.0000      -8.077692      -219.8052
  18   2.0000      -6.039613      -164.3462
  19   2.0000      -6.036329      -164.2569
  20   2.0000      -6.035641      -164.2381
  21   2.0000      -6.032193      -164.1443
  22   2.0000      -6.032174      -164.1438
  23   2.0000      -6.028427      -164.0418
  24   2.0000      -1.005895       -27.3718
  25   2.0000      -0.978967       -26.6390
  26   2.0000      -0.907696       -24.6997
  27   2.0000      -0.899084       -24.4653
  28   2.0000      -0.870362       -23.6837
  29   2.0000      -0.848827       -23.0977
  30   2.0000      -0.841221       -22.8908
  31   2.0000      -0.813316       -22.1315
  32   2.0000      -0.775497       -21.1023
  33   2.0000      -0.764915       -20.8144
  34   2.0000      -0.710382       -19.3305
  35   2.0000      -0.702232       -19.1087
  36   2.0000      -0.689038       -18.7497
  37   2.0000      -0.657590       -17.8939
  38   2.0000      -0.637303       -17.3419
  39   2.0000      -0.619197       -16.8492
  40   2.0000      -0.601630       -16.3712
  41   2.0000      -0.568228       -15.4623
  42   2.0000      -0.563538       -15.3347
  43   2.0000      -0.555986       -15.1292
  44   2.0000      -0.526778       -14.3344
  45   2.0000      -0.516903       -14.0657
  46   2.0000      -0.516409       -14.0522
  47   2.0000      -0.509463       -13.8632
  48   2.0000      -0.504255       -13.7215
  49   2.0000      -0.500168       -13.6103
  50   2.0000      -0.486913       -13.2496
  51   2.0000      -0.475161       -12.9298
  52   2.0000      -0.471125       -12.8200
  53   2.0000      -0.460571       -12.5328
  54   2.0000      -0.454929       -12.3792
  55   2.0000      -0.448935       -12.2162
  56   2.0000      -0.446682       -12.1548
  57   2.0000      -0.442070       -12.0293
  58   2.0000      -0.432975       -11.7818
  59   2.0000      -0.424452       -11.5499
  60   2.0000      -0.421778       -11.4772
  61   2.0000      -0.414264       -11.2727
  62   2.0000      -0.405122       -11.0239
  63   2.0000      -0.348709        -9.4889
  64   2.0000      -0.333893        -9.0857
  65   2.0000      -0.324816        -8.8387
  66   2.0000      -0.293292        -7.9809
  67   0.0000       0.027013         0.7351
  68   0.0000       0.069640         1.8950
  69   0.0000       0.112051         3.0491
  70   0.0000       0.121246         3.2993
  71   0.0000       0.126623         3.4456

MULLIKEN ATOMIC CHARGES
-----------------------
   0 S :    0.098484
   1 C :   -0.132857
   2 C :   -0.077983
   3 C :    0.025675
   4 C :   -0.130569
   5 H :    0.000151
   6 C :   -0.007968
   7 H :    0.028708
   8 H :    0.045501
   9 C :   -0.057779
  10 H :    0.045235
  11 H :    0.031177
  12 C :   -0.085196
  13 H :    0.046487
  14 H :    0.038621
  15 H :    0.046804
  16 S :    0.104447
  17 C :   -0.061032
  18 C :   -0.046104
  19 C :    0.010154
  20 C :   -0.169880
  21 H :    0.022415
  22 C :    0.018962
  23 H :    0.048023
  24 H :    0.036084
  25 C :   -0.080422
  26 H :    0.018827
  27 H :    0.033339
  28 C :   -0.084983
  29 H :    0.037162
  30 H :    0.043162
  31 H :    0.048746
  32 H :    0.067167
  33 H :    0.039440
Sum of atomic charges:    0.0000000

LOEWDIN ATOMIC CHARGES
----------------------
   0 S :    0.391499
   1 C :   -0.200255
   2 C :   -0.068942
   3 C :   -0.064967
   4 C :   -0.190307
   5 H :    0.021850
   6 C :   -0.045474
   7 H :    0.033576
   8 H :    0.037325
   9 C :   -0.038680
  10 H :    0.029159
  11 H :    0.024104
  12 C :   -0.076354
  13 H :    0.030805
  14 H :    0.027855
  15 H :    0.033515
  16 S :    0.417153
  17 C :   -0.176652
  18 C :   -0.070468
  19 C :   -0.053078
  20 C :   -0.200953
  21 H :    0.033482
  22 C :   -0.033818
  23 H :    0.034871
  24 H :    0.037519
  25 C :   -0.046967
  26 H :    0.015366
  27 H :    0.025653
  28 C :   -0.067780
  29 H :    0.022730
  30 H :    0.025826
  31 H :    0.034367
  32 H :    0.040158
  33 H :    0.017883

  Mayer bond orders larger than 0.100000
B(  0-S ,  1-C ) :   1.1305 B(  0-S ,  4-C ) :   1.1530 B(  1-C ,  2-C ) :   1.6233
B(  1-C , 32-H ) :   0.9609 B(  2-C ,  3-C ) :   1.2184 B(  2-C ,  6-C ) :   1.0283
B(  3-C ,  4-C ) :   1.5656 B(  3-C ,  5-H ) :   0.9976 B(  4-C , 20-C ) :   1.0358
B(  6-C ,  7-H ) :   0.9435 B(  6-C ,  8-H ) :   0.9471 B(  6-C ,  9-C ) :   1.0356
B(  9-C , 10-H ) :   0.9563 B(  9-C , 11-H ) :   0.9635 B(  9-C , 12-C ) :   1.0785
B( 12-C , 13-H ) :   0.9718 B( 12-C , 14-H ) :   0.9730 B( 12-C , 15-H ) :   0.9772
B( 16-S , 17-C ) :   1.1650 B( 16-S , 20-C ) :   1.1550 B( 17-C , 18-C ) :   1.6030
B( 17-C , 33-H ) :   0.9692 B( 18-C , 19-C ) :   1.2471 B( 18-C , 21-H ) :   0.9898
B( 19-C , 20-C ) :   1.5816 B( 19-C , 22-C ) :   1.0324 B( 22-C , 23-H ) :   0.9418
B( 22-C , 24-H ) :   0.9350 B( 22-C , 25-C ) :   1.0478 B( 25-C , 26-H ) :   0.9593
B( 25-C , 27-H ) :   0.9544 B( 25-C , 28-C ) :   1.0740 B( 28-C , 29-H ) :   0.9785
B( 28-C , 30-H ) :   0.9777 B( 28-C , 31-H ) :   0.9751

Dispersion correction           -0.013295753
FINAL SINGLE POINT ENERGY     -1339.871842444551

DIPOLE MOMENT
-------------
                                X             Y             Z
Electronic contribution:     16.33244      11.07648      21.74143
Nuclear contribution   :    -16.61766     -11.14471     -22.31784
                        -----------------------------------------
Total Dipole Moment    :     -0.28522      -0.06823      -0.57641
                        -----------------------------------------
Magnitude (a.u.)       :      0.64673
Magnitude (Debye)      :      1.64385

Rotational constants in cm-1:     0.016663     0.007990     0.006152
Rotational constants in MHz :   499.536851   239.540027   184.442530

                             ****ORCA TERMINATED NORMALLY****
TOTAL RUN TIME: 0 days 0 hours 0 minutes 20 seconds 576 msec
