                         Program Version 4.2.1 -  RELEASE  -
|  1> ! wB97X-D3 SP def2-SVP
|  2> %pal
|  3> nprocs 24
|  4> end
|  5>
|  6> * xyz 0 1
|  7> S 	 -117.53 	 23.9394 	 -115.767
|  8> C 	 -118.134 	 23.9899 	 -117.483
|  9> C 	 -118.782 	 25.172 	 -117.84
| 10> C 	 -118.852 	 25.9823 	 -116.642
| 11> C 	 -118.322 	 25.414 	 -115.478
| 12> H 	 -119.571 	 26.8122 	 -116.492
| 13> C 	 -119.31 	 25.5547 	 -119.162
| 14> H 	 -118.566 	 25.2088 	 -119.876
| 15> H 	 -119.338 	 26.6297 	 -119.226
| 16> C 	 -120.683 	 25.141 	 -119.513
| 17> H 	 -121.404 	 25.6851 	 -118.882
| 18> H 	 -120.72 	 25.4558 	 -120.561
| 19> C 	 -120.91 	 23.6825 	 -119.336
| 20> H 	 -121.905 	 23.4342 	 -119.734
| 21> H 	 -120.154 	 23.0808 	 -119.685
| 22> H 	 -120.925 	 23.3834 	 -118.287
| 23> S 	 -119.723 	 26.1011 	 -113.059
| 24> C 	 -118.823 	 27.109 	 -111.893
| 25> C 	 -117.523 	 27.3223 	 -112.291
| 26> C 	 -117.231 	 26.7416 	 -113.567
| 27> C 	 -118.31 	 26.1791 	 -114.196
| 28> H 	 -116.867 	 27.88 	 -111.629
| 29> C 	 -115.832 	 26.9021 	 -114.265
| 30> H 	 -115.832 	 26.1417 	 -115.05
| 31> H 	 -115.031 	 26.5044 	 -113.598
| 32> C 	 -115.476 	 28.3677 	 -114.744
| 33> H 	 -114.591 	 28.3039 	 -115.392
| 34> H 	 -115.187 	 29.0242 	 -113.883
| 35> C 	 -116.614 	 28.9439 	 -115.532
| 36> H 	 -117.008 	 28.2815 	 -116.248
| 37> H 	 -116.205 	 29.8574 	 -116.023
| 38> H 	 -117.322 	 29.2908 	 -114.817
| 39> H 	 -117.949 	 23.2216 	 -118.214
| 40> H 	 -119.192 	 27.1017 	 -110.831
| 41> *
| 42>
| 43>                          ****END OF INPUT****

CARTESIAN COORDINATES (ANGSTROEM)
---------------------------------
  S    -117.530000   23.939400  -115.767000
  C    -118.134000   23.989900  -117.483000
  C    -118.782000   25.172000  -117.840000
  C    -118.852000   25.982300  -116.642000
  C    -118.322000   25.414000  -115.478000
  H    -119.571000   26.812200  -116.492000
  C    -119.310000   25.554700  -119.162000
  H    -118.566000   25.208800  -119.876000
  H    -119.338000   26.629700  -119.226000
  C    -120.683000   25.141000  -119.513000
  H    -121.404000   25.685100  -118.882000
  H    -120.720000   25.455800  -120.561000
  C    -120.910000   23.682500  -119.336000
  H    -121.905000   23.434200  -119.734000
  H    -120.154000   23.080800  -119.685000
  H    -120.925000   23.383400  -118.287000
  S    -119.723000   26.101100  -113.059000
  C    -118.823000   27.109000  -111.893000
  C    -117.523000   27.322300  -112.291000
  C    -117.231000   26.741600  -113.567000
  C    -118.310000   26.179100  -114.196000
  H    -116.867000   27.880000  -111.629000
  C    -115.832000   26.902100  -114.265000
  H    -115.832000   26.141700  -115.050000
  H    -115.031000   26.504400  -113.598000
  C    -115.476000   28.367700  -114.744000
  H    -114.591000   28.303900  -115.392000
  H    -115.187000   29.024200  -113.883000
  C    -116.614000   28.943900  -115.532000
  H    -117.008000   28.281500  -116.248000
  H    -116.205000   29.857400  -116.023000
  H    -117.322000   29.290800  -114.817000
  H    -117.949000   23.221600  -118.214000
  H    -119.192000   27.101700  -110.831000

 Total Charge           Charge          ....    0
 Multiplicity           Mult            ....    1
 Number of Electrons    NEL             ....  134
 Basis Dimension        Dim             ....  322

ORBITAL ENERGIES
----------------

  NO   OCC          E(Eh)            E(eV)
   0   2.0000     -88.974787     -2421.1270
   1   2.0000     -88.962261     -2420.7862
   2   2.0000     -10.329972      -281.0928
   3   2.0000     -10.328733      -281.0591
   4   2.0000     -10.323101      -280.9059
   5   2.0000     -10.319805      -280.8162
   6   2.0000     -10.305069      -280.4152
   7   2.0000     -10.304401      -280.3970
   8   2.0000     -10.297152      -280.1998
   9   2.0000     -10.295202      -280.1467
  10   2.0000     -10.294167      -280.1185
  11   2.0000     -10.287662      -279.9415
  12   2.0000     -10.286856      -279.9196
  13   2.0000     -10.284080      -279.8441
  14   2.0000     -10.266837      -279.3748
  15   2.0000     -10.262317      -279.2518
  16   2.0000      -8.088594      -220.1018
  17   2.0000      -8.075851      -219.7551
  18   2.0000      -6.047081      -164.5494
  19   2.0000      -6.043292      -164.4463
  20   2.0000      -6.039359      -164.3393
  21   2.0000      -6.034433      -164.2053
  22   2.0000      -6.030619      -164.1015
  23   2.0000      -6.026497      -163.9893
  24   2.0000      -1.000471       -27.2242
  25   2.0000      -0.977808       -26.6075
  26   2.0000      -0.931377       -25.3440
  27   2.0000      -0.898489       -24.4491
  28   2.0000      -0.866876       -23.5889
  29   2.0000      -0.847700       -23.0671
  30   2.0000      -0.841748       -22.9051
  31   2.0000      -0.808664       -22.0049
  32   2.0000      -0.793757       -21.5992
  33   2.0000      -0.771382       -20.9904
  34   2.0000      -0.706057       -19.2128
  35   2.0000      -0.696234       -18.9455
  36   2.0000      -0.686630       -18.6841
  37   2.0000      -0.654621       -17.8132
  38   2.0000      -0.633904       -17.2494
  39   2.0000      -0.615132       -16.7386
  40   2.0000      -0.588202       -16.0058
  41   2.0000      -0.572373       -15.5751
  42   2.0000      -0.559896       -15.2355
  43   2.0000      -0.548519       -14.9260
  44   2.0000      -0.548193       -14.9171
  45   2.0000      -0.542899       -14.7730
  46   2.0000      -0.526510       -14.3271
  47   2.0000      -0.517964       -14.0945
  48   2.0000      -0.492879       -13.4119
  49   2.0000      -0.491141       -13.3646
  50   2.0000      -0.485000       -13.1975
  51   2.0000      -0.473061       -12.8726
  52   2.0000      -0.467631       -12.7249
  53   2.0000      -0.458309       -12.4712
  54   2.0000      -0.457003       -12.4357
  55   2.0000      -0.445324       -12.1179
  56   2.0000      -0.441977       -12.0268
  57   2.0000      -0.438687       -11.9373
  58   2.0000      -0.427817       -11.6415
  59   2.0000      -0.425576       -11.5805
  60   2.0000      -0.418189       -11.3795
  61   2.0000      -0.414927       -11.2907
  62   2.0000      -0.407272       -11.0824
  63   2.0000      -0.336152        -9.1472
  64   2.0000      -0.330509        -8.9936
  65   2.0000      -0.327663        -8.9162
  66   2.0000      -0.305434        -8.3113
  67   0.0000       0.039899         1.0857
  68   0.0000       0.048180         1.3111
  69   0.0000       0.099763         2.7147
  70   0.0000       0.108316         2.9474
  71   0.0000       0.122920         3.3448

MULLIKEN ATOMIC CHARGES
-----------------------
   0 S :    0.132184
   1 C :   -0.137951
   2 C :   -0.094570
   3 C :    0.022831
   4 C :   -0.183039
   5 H :    0.033380
   6 C :    0.068179
   7 H :    0.029665
   8 H :    0.020470
   9 C :   -0.040509
  10 H :    0.031189
  11 H :    0.033641
  12 C :   -0.023937
  13 H :    0.035276
  14 H :    0.000724
  15 H :    0.036413
  16 S :    0.078228
  17 C :   -0.116918
  18 C :   -0.029055
  19 C :   -0.050757
  20 C :   -0.164112
  21 H :    0.026381
  22 C :    0.064310
  23 H :    0.017970
  24 H :    0.031386
  25 C :   -0.091804
  26 H :    0.032376
  27 H :    0.036043
  28 C :   -0.012205
  29 H :    0.031110
  30 H :    0.026263
  31 H :    0.033440
  32 H :    0.037193
  33 H :    0.086208
Sum of atomic charges:    0.0000000

LOEWDIN ATOMIC CHARGES
----------------------
   0 S :    0.413420
   1 C :   -0.178574
   2 C :   -0.054699
   3 C :   -0.068362
   4 C :   -0.214907
   5 H :    0.034927
   6 C :   -0.037572
   7 H :    0.034205
   8 H :    0.034904
   9 C :   -0.036446
  10 H :    0.029182
  11 H :    0.030528
  12 C :   -0.063119
  13 H :    0.030706
  14 H :    0.009806
  15 H :    0.031110
  16 S :    0.355552
  17 C :   -0.179605
  18 C :   -0.071711
  19 C :   -0.055883
  20 C :   -0.179970
  21 H :    0.034816
  22 C :   -0.034910
  23 H :    0.020337
  24 H :    0.032072
  25 C :   -0.040299
  26 H :    0.024219
  27 H :    0.026501
  28 C :   -0.059972
  29 H :    0.019213
  30 H :    0.029414
  31 H :    0.024526
  32 H :    0.019424
  33 H :    0.041169

  Mayer bond orders larger than 0.100000
B(  0-S ,  1-C ) :   1.1278 B(  0-S ,  4-C ) :   1.1540 B(  1-C ,  2-C ) :   1.6163
B(  1-C , 32-H ) :   0.9659 B(  2-C ,  3-C ) :   1.2403 B(  2-C ,  6-C ) :   1.0241
B(  3-C ,  4-C ) :   1.5986 B(  3-C ,  5-H ) :   0.9725 B(  4-C , 20-C ) :   1.0080
B(  6-C ,  7-H ) :   0.9316 B(  6-C ,  8-H ) :   0.9324 B(  6-C ,  9-C ) :   1.0876
B(  9-C , 10-H ) :   0.9482 B(  9-C , 11-H ) :   0.9495 B(  9-C , 12-C ) :   1.0981
B( 12-C , 13-H ) :   0.9695 B( 12-C , 14-H ) :   0.9722 B( 12-C , 15-H ) :   0.9621
B( 16-S , 17-C ) :   1.1433 B( 16-S , 20-C ) :   1.1220 B( 17-C , 18-C ) :   1.6332
B( 17-C , 33-H ) :   0.9547 B( 18-C , 19-C ) :   1.2123 B( 18-C , 21-H ) :   0.9929
B( 19-C , 20-C ) :   1.6372 B( 19-C , 22-C ) :   1.0304 B( 22-C , 23-H ) :   0.9283
B( 22-C , 24-H ) :   0.9411 B( 22-C , 25-C ) :   1.0604 B( 25-C , 26-H ) :   0.9587
B( 25-C , 27-H ) :   0.9572 B( 25-C , 28-C ) :   1.0811 B( 28-C , 29-H ) :   0.9743
B( 28-C , 30-H ) :   0.9696 B( 28-C , 31-H ) :   0.9682

Dispersion correction           -0.015839732
FINAL SINGLE POINT ENERGY     -1339.864589624116

DIPOLE MOMENT
-------------
                                X             Y             Z
Electronic contribution:     -1.55414      -8.45114      17.33921
Nuclear contribution   :      1.71881       8.61068     -17.66863
                        -----------------------------------------
Total Dipole Moment    :      0.16467       0.15954      -0.32942
                        -----------------------------------------
Magnitude (a.u.)       :      0.40136
Magnitude (Debye)      :      1.02017

Rotational constants in cm-1:     0.021811     0.008261     0.007432
Rotational constants in MHz :   653.875457   247.650305   222.797099

                             ****ORCA TERMINATED NORMALLY****
TOTAL RUN TIME: 0 days 0 hours 0 minutes 22 seconds 440 msec
