                         Program Version 4.2.1 -  RELEASE  -
|  1> ! wB97X-D3 SP def2-SVP
|  2> %pal
|  3> nprocs 24
|  4> end
|  5>
|  6> * xyz 0 1
|  7> S 	 -86.9537 	 -30.72 	 -71.2304
|  8> C 	 -87.0339 	 -32.2473 	 -72.1223
|  9> C 	 -88.2943 	 -32.7726 	 -72.1668
| 10> C 	 -89.264 	 -31.9908 	 -71.4268
| 11> C 	 -88.6514 	 -30.8183 	 -70.9397
| 12> H 	 -90.3038 	 -32.2418 	 -71.2388
| 13> C 	 -88.6222 	 -34.0752 	 -72.7102
| 14> H 	 -89.0113 	 -34.7325 	 -71.8687
| 15> H 	 -87.7316 	 -34.6319 	 -73.0991
| 16> C 	 -89.5808 	 -33.957 	 -73.8637
| 17> H 	 -90.5551 	 -33.5577 	 -73.5004
| 18> H 	 -89.1605 	 -33.191 	 -74.5923
| 19> C 	 -89.7587 	 -35.301 	 -74.6307
| 20> H 	 -89.5154 	 -36.1049 	 -74.0191
| 21> H 	 -90.8183 	 -35.3236 	 -74.9647
| 22> H 	 -89.1069 	 -35.519 	 -75.4698
| 23> S 	 -88.1541 	 -28.7987 	 -69.0441
| 24> C 	 -89.462 	 -27.9426 	 -68.314
| 25> C 	 -90.6007 	 -28.1715 	 -69.0257
| 26> C 	 -90.5077 	 -29.1767 	 -70.0261
| 27> C 	 -89.2234 	 -29.6711 	 -70.1982
| 28> H 	 -91.5191 	 -27.6016 	 -68.8777
| 29> C 	 -91.7554 	 -29.5693 	 -70.7345
| 30> H 	 -92.2838 	 -29.8976 	 -69.9462
| 31> H 	 -91.6025 	 -30.345 	 -71.4356
| 32> C 	 -92.5548 	 -28.4608 	 -71.4288
| 33> H 	 -92.9451 	 -27.6914 	 -70.7491
| 34> H 	 -93.3718 	 -28.8488 	 -71.8847
| 35> C 	 -91.5623 	 -27.7394 	 -72.4973
| 36> H 	 -92.0502 	 -26.8882 	 -73.0866
| 37> H 	 -91.3275 	 -28.4144 	 -73.2289
| 38> H 	 -90.6443 	 -27.3567 	 -71.9859
| 39> H 	 -86.2201 	 -32.8187 	 -72.6062
| 40> H 	 -89.2248 	 -27.1626 	 -67.6149
| 41> *
| 42>
| 43>                          ****END OF INPUT****

CARTESIAN COORDINATES (ANGSTROEM)
---------------------------------
  S    -86.953700  -30.720000  -71.230400
  C    -87.033900  -32.247300  -72.122300
  C    -88.294300  -32.772600  -72.166800
  C    -89.264000  -31.990800  -71.426800
  C    -88.651400  -30.818300  -70.939700
  H    -90.303800  -32.241800  -71.238800
  C    -88.622200  -34.075200  -72.710200
  H    -89.011300  -34.732500  -71.868700
  H    -87.731600  -34.631900  -73.099100
  C    -89.580800  -33.957000  -73.863700
  H    -90.555100  -33.557700  -73.500400
  H    -89.160500  -33.191000  -74.592300
  C    -89.758700  -35.301000  -74.630700
  H    -89.515400  -36.104900  -74.019100
  H    -90.818300  -35.323600  -74.964700
  H    -89.106900  -35.519000  -75.469800
  S    -88.154100  -28.798700  -69.044100
  C    -89.462000  -27.942600  -68.314000
  C    -90.600700  -28.171500  -69.025700
  C    -90.507700  -29.176700  -70.026100
  C    -89.223400  -29.671100  -70.198200
  H    -91.519100  -27.601600  -68.877700
  C    -91.755400  -29.569300  -70.734500
  H    -92.283800  -29.897600  -69.946200
  H    -91.602500  -30.345000  -71.435600
  C    -92.554800  -28.460800  -71.428800
  H    -92.945100  -27.691400  -70.749100
  H    -93.371800  -28.848800  -71.884700
  C    -91.562300  -27.739400  -72.497300
  H    -92.050200  -26.888200  -73.086600
  H    -91.327500  -28.414400  -73.228900
  H    -90.644300  -27.356700  -71.985900
  H    -86.220100  -32.818700  -72.606200
  H    -89.224800  -27.162600  -67.614900

 Total Charge           Charge          ....    0
 Multiplicity           Mult            ....    1
 Number of Electrons    NEL             ....  134
 Basis Dimension        Dim             ....  322

ORBITAL ENERGIES
----------------

  NO   OCC          E(Eh)            E(eV)
   0   2.0000     -88.967781     -2420.9364
   1   2.0000     -88.959399     -2420.7083
   2   2.0000     -10.336036      -281.2578
   3   2.0000     -10.330609      -281.1102
   4   2.0000     -10.317283      -280.7475
   5   2.0000     -10.311593      -280.5927
   6   2.0000     -10.301518      -280.3186
   7   2.0000     -10.299885      -280.2741
   8   2.0000     -10.295953      -280.1671
   9   2.0000     -10.293050      -280.0881
  10   2.0000     -10.292486      -280.0728
  11   2.0000     -10.292365      -280.0695
  12   2.0000     -10.287093      -279.9260
  13   2.0000     -10.279351      -279.7154
  14   2.0000     -10.277951      -279.6773
  15   2.0000     -10.275584      -279.6128
  16   2.0000      -8.082657      -219.9403
  17   2.0000      -8.074485      -219.7179
  18   2.0000      -6.041231      -164.3903
  19   2.0000      -6.037291      -164.2831
  20   2.0000      -6.033185      -164.1713
  21   2.0000      -6.033092      -164.1688
  22   2.0000      -6.028927      -164.0555
  23   2.0000      -6.025128      -163.9521
  24   2.0000      -1.007269       -27.4092
  25   2.0000      -0.986531       -26.8449
  26   2.0000      -0.921194       -25.0670
  27   2.0000      -0.914663       -24.8892
  28   2.0000      -0.867592       -23.6084
  29   2.0000      -0.848621       -23.0922
  30   2.0000      -0.838643       -22.8206
  31   2.0000      -0.813534       -22.1374
  32   2.0000      -0.784459       -21.3462
  33   2.0000      -0.775486       -21.1020
  34   2.0000      -0.716450       -19.4956
  35   2.0000      -0.703033       -19.1305
  36   2.0000      -0.693554       -18.8726
  37   2.0000      -0.661900       -18.0112
  38   2.0000      -0.636290       -17.3143
  39   2.0000      -0.622839       -16.9483
  40   2.0000      -0.605844       -16.4859
  41   2.0000      -0.568430       -15.4678
  42   2.0000      -0.563859       -15.3434
  43   2.0000      -0.556275       -15.1370
  44   2.0000      -0.541948       -14.7471
  45   2.0000      -0.526709       -14.3325
  46   2.0000      -0.519074       -14.1247
  47   2.0000      -0.511074       -13.9070
  48   2.0000      -0.502332       -13.6691
  49   2.0000      -0.493980       -13.4419
  50   2.0000      -0.489121       -13.3096
  51   2.0000      -0.481238       -13.0952
  52   2.0000      -0.470511       -12.8032
  53   2.0000      -0.470147       -12.7933
  54   2.0000      -0.458787       -12.4842
  55   2.0000      -0.453713       -12.3462
  56   2.0000      -0.448147       -12.1947
  57   2.0000      -0.437103       -11.8942
  58   2.0000      -0.431326       -11.7370
  59   2.0000      -0.428382       -11.6569
  60   2.0000      -0.423947       -11.5362
  61   2.0000      -0.413610       -11.2549
  62   2.0000      -0.406645       -11.0654
  63   2.0000      -0.358045        -9.7429
  64   2.0000      -0.333232        -9.0677
  65   2.0000      -0.324457        -8.8289
  66   2.0000      -0.284909        -7.7528
  67   0.0000       0.022782         0.6199
  68   0.0000       0.079812         2.1718
  69   0.0000       0.100883         2.7452
  70   0.0000       0.118203         3.2165
  71   0.0000       0.132829         3.6145

MULLIKEN ATOMIC CHARGES
-----------------------
   0 S :    0.103398
   1 C :   -0.110759
   2 C :   -0.080686
   3 C :    0.002258
   4 C :   -0.112919
   5 H :    0.023429
   6 C :    0.030680
   7 H :    0.050124
   8 H :    0.018814
   9 C :   -0.130471
  10 H :    0.034348
  11 H :    0.047276
  12 C :   -0.012782
  13 H :    0.009668
  14 H :    0.041134
  15 H :    0.031825
  16 S :    0.063579
  17 C :   -0.070265
  18 C :   -0.035374
  19 C :   -0.106087
  20 C :   -0.113404
  21 H :    0.020979
  22 C :    0.140222
  23 H :    0.006536
  24 H :    0.006158
  25 C :   -0.043892
  26 H :    0.028420
  27 H :    0.007756
  28 C :   -0.081531
  29 H :    0.037788
  30 H :    0.017948
  31 H :    0.063538
  32 H :    0.048044
  33 H :    0.064247
Sum of atomic charges:   -0.0000000

LOEWDIN ATOMIC CHARGES
----------------------
   0 S :    0.407010
   1 C :   -0.202201
   2 C :   -0.063578
   3 C :   -0.068430
   4 C :   -0.179220
   5 H :    0.031016
   6 C :   -0.046048
   7 H :    0.040607
   8 H :    0.030814
   9 C :   -0.044902
  10 H :    0.023079
  11 H :    0.034715
  12 C :   -0.067724
  13 H :    0.014348
  14 H :    0.034310
  15 H :    0.027345
  16 S :    0.379435
  17 C :   -0.177661
  18 C :   -0.075558
  19 C :   -0.053982
  20 C :   -0.188628
  21 H :    0.032128
  22 C :   -0.020060
  23 H :    0.022421
  24 H :    0.024006
  25 C :   -0.020186
  26 H :    0.021999
  27 H :    0.009827
  28 C :   -0.064656
  29 H :    0.030651
  30 H :    0.009613
  31 H :    0.035038
  32 H :    0.035133
  33 H :    0.029340

  Mayer bond orders larger than 0.100000
B(  0-S ,  1-C ) :   1.1026 B(  0-S ,  4-C ) :   1.1658 B(  1-C ,  2-C ) :   1.6571
B(  1-C , 32-H ) :   0.9593 B(  2-C ,  3-C ) :   1.1980 B(  2-C ,  6-C ) :   1.0488
B(  3-C ,  4-C ) :   1.5722 B(  3-C ,  5-H ) :   0.9873 B(  4-C , 20-C ) :   1.0377
B(  6-C ,  7-H ) :   0.9288 B(  6-C ,  8-H ) :   0.9421 B(  6-C ,  9-C ) :   1.0536
B(  9-C , 10-H ) :   0.9620 B(  9-C , 11-H ) :   0.9569 B(  9-C , 12-C ) :   1.0655
B( 12-C , 13-H ) :   0.9732 B( 12-C , 14-H ) :   0.9764 B( 12-C , 15-H ) :   0.9749
B( 16-S , 17-C ) :   1.1642 B( 16-S , 20-C ) :   1.1157 B( 17-C , 18-C ) :   1.5856
B( 17-C , 33-H ) :   0.9707 B( 18-C , 19-C ) :   1.2473 B( 18-C , 21-H ) :   0.9906
B( 19-C , 20-C ) :   1.6109 B( 19-C , 22-C ) :   1.0300 B( 22-C , 23-H ) :   0.9145
B( 22-C , 24-H ) :   0.9348 B( 22-C , 25-C ) :   1.0861 B( 25-C , 26-H ) :   0.9556
B( 25-C , 27-H ) :   0.9548 B( 25-C , 28-C ) :   1.0580 B( 28-C , 29-H ) :   0.9780
B( 28-C , 30-H ) :   0.9797 B( 28-C , 31-H ) :   0.9747

Dispersion correction           -0.014128530
FINAL SINGLE POINT ENERGY     -1339.858772757612

DIPOLE MOMENT
-------------
                                X             Y             Z
Electronic contribution:     19.00327      10.61240      17.93851
Nuclear contribution   :    -19.64185     -10.88500     -18.15245
                        -----------------------------------------
Total Dipole Moment    :     -0.63858      -0.27260      -0.21394
                        -----------------------------------------
Magnitude (a.u.)       :      0.72654
Magnitude (Debye)      :      1.84672

Rotational constants in cm-1:     0.020119     0.008381     0.006462
Rotational constants in MHz :   603.147666   251.241512   193.723051

                             ****ORCA TERMINATED NORMALLY****
TOTAL RUN TIME: 0 days 0 hours 0 minutes 21 seconds 623 msec
