                         Program Version 4.2.1 -  RELEASE  -
|  1> ! wB97X-D3 SP def2-SVP
|  2> %pal
|  3> nprocs 24
|  4> end
|  5>
|  6> * xyz 0 1
|  7> S 	 -100.316 	 1.17425 	 -105.666
|  8> C 	 -99.0773 	 2.33822 	 -106.143
|  9> C 	 -99.6769 	 3.38143 	 -106.701
| 10> C 	 -101.102 	 3.2542 	 -106.856
| 11> C 	 -101.614 	 2.14059 	 -106.246
| 12> H 	 -101.701 	 3.9504 	 -107.344
| 13> C 	 -98.8442 	 4.56638 	 -107.144
| 14> H 	 -98.9825 	 4.66472 	 -108.217
| 15> H 	 -97.7768 	 4.30981 	 -106.841
| 16> C 	 -99.1455 	 5.94679 	 -106.555
| 17> H 	 -98.6203 	 6.76382 	 -107.221
| 18> H 	 -100.224 	 6.26959 	 -106.651
| 19> C 	 -98.6207 	 6.21944 	 -105.152
| 20> H 	 -97.6176 	 6.11735 	 -105.068
| 21> H 	 -98.9016 	 7.15873 	 -104.741
| 22> H 	 -99.0117 	 5.60267 	 -104.43
| 23> S 	 -103.232 	 0.251179 	 -107.056
| 24> C 	 -104.899 	 0.433287 	 -107.217
| 25> C 	 -105.292 	 1.4781 	 -106.391
| 26> C 	 -104.179 	 2.27407 	 -105.934
| 27> C 	 -102.966 	 1.7262 	 -106.197
| 28> H 	 -106.341 	 1.67885 	 -106.256
| 29> C 	 -104.344 	 3.58704 	 -105.251
| 30> H 	 -103.987 	 4.37617 	 -105.909
| 31> H 	 -103.645 	 3.5132 	 -104.427
| 32> C 	 -105.784 	 3.86004 	 -104.728
| 33> H 	 -106.388 	 3.01556 	 -104.506
| 34> H 	 -106.434 	 4.21684 	 -105.554
| 35> C 	 -105.659 	 4.95201 	 -103.562
| 36> H 	 -106.605 	 5.28579 	 -103.147
| 37> H 	 -105.122 	 5.87129 	 -103.941
| 38> H 	 -105.004 	 4.40633 	 -102.837
| 39> H 	 -98.0753 	 2.3062 	 -105.915
| 40> H 	 -105.554 	 -0.283915 	 -107.756
| 41> *
| 42>
| 43>                          ****END OF INPUT****

CARTESIAN COORDINATES (ANGSTROEM)
---------------------------------
  S    -100.316000    1.174250  -105.666000
  C    -99.077300    2.338220  -106.143000
  C    -99.676900    3.381430  -106.701000
  C    -101.102000    3.254200  -106.856000
  C    -101.614000    2.140590  -106.246000
  H    -101.701000    3.950400  -107.344000
  C    -98.844200    4.566380  -107.144000
  H    -98.982500    4.664720  -108.217000
  H    -97.776800    4.309810  -106.841000
  C    -99.145500    5.946790  -106.555000
  H    -98.620300    6.763820  -107.221000
  H    -100.224000    6.269590  -106.651000
  C    -98.620700    6.219440  -105.152000
  H    -97.617600    6.117350  -105.068000
  H    -98.901600    7.158730  -104.741000
  H    -99.011700    5.602670  -104.430000
  S    -103.232000    0.251179  -107.056000
  C    -104.899000    0.433287  -107.217000
  C    -105.292000    1.478100  -106.391000
  C    -104.179000    2.274070  -105.934000
  C    -102.966000    1.726200  -106.197000
  H    -106.341000    1.678850  -106.256000
  C    -104.344000    3.587040  -105.251000
  H    -103.987000    4.376170  -105.909000
  H    -103.645000    3.513200  -104.427000
  C    -105.784000    3.860040  -104.728000
  H    -106.388000    3.015560  -104.506000
  H    -106.434000    4.216840  -105.554000
  C    -105.659000    4.952010  -103.562000
  H    -106.605000    5.285790  -103.147000
  H    -105.122000    5.871290  -103.941000
  H    -105.004000    4.406330  -102.837000
  H    -98.075300    2.306200  -105.915000
  H    -105.554000   -0.283915  -107.756000

 Total Charge           Charge          ....    0
 Multiplicity           Mult            ....    1
 Number of Electrons    NEL             ....  134
 Basis Dimension        Dim             ....  322

ORBITAL ENERGIES
----------------

  NO   OCC          E(Eh)            E(eV)
   0   2.0000     -88.960299     -2420.7328
   1   2.0000     -88.957070     -2420.6449
   2   2.0000     -10.326914      -281.0096
   3   2.0000     -10.318939      -280.7926
   4   2.0000     -10.315507      -280.6992
   5   2.0000     -10.302640      -280.3491
   6   2.0000     -10.302323      -280.3404
   7   2.0000     -10.298345      -280.2322
   8   2.0000     -10.297258      -280.2026
   9   2.0000     -10.294272      -280.1214
  10   2.0000     -10.293328      -280.0957
  11   2.0000     -10.292108      -280.0625
  12   2.0000     -10.290803      -280.0270
  13   2.0000     -10.290694      -280.0240
  14   2.0000     -10.287451      -279.9358
  15   2.0000     -10.258381      -279.1447
  16   2.0000      -8.075803      -219.7538
  17   2.0000      -8.074120      -219.7080
  18   2.0000      -6.034470      -164.2063
  19   2.0000      -6.032495      -164.1525
  20   2.0000      -6.030150      -164.0887
  21   2.0000      -6.028065      -164.0320
  22   2.0000      -6.026375      -163.9860
  23   2.0000      -6.025054      -163.9501
  24   2.0000      -1.021093       -27.7854
  25   2.0000      -0.994734       -27.0681
  26   2.0000      -0.913640       -24.8614
  27   2.0000      -0.909908       -24.7599
  28   2.0000      -0.880368       -23.9560
  29   2.0000      -0.849730       -23.1223
  30   2.0000      -0.841416       -22.8961
  31   2.0000      -0.822536       -22.3823
  32   2.0000      -0.787250       -21.4222
  33   2.0000      -0.772483       -21.0203
  34   2.0000      -0.720572       -19.6078
  35   2.0000      -0.710772       -19.3411
  36   2.0000      -0.694101       -18.8875
  37   2.0000      -0.656363       -17.8605
  38   2.0000      -0.645203       -17.5569
  39   2.0000      -0.623215       -16.9585
  40   2.0000      -0.600275       -16.3343
  41   2.0000      -0.571765       -15.5585
  42   2.0000      -0.565969       -15.4008
  43   2.0000      -0.557062       -15.1584
  44   2.0000      -0.541325       -14.7302
  45   2.0000      -0.531650       -14.4669
  46   2.0000      -0.524779       -14.2800
  47   2.0000      -0.521963       -14.2033
  48   2.0000      -0.512654       -13.9500
  49   2.0000      -0.500642       -13.6232
  50   2.0000      -0.487495       -13.2654
  51   2.0000      -0.481629       -13.1058
  52   2.0000      -0.472029       -12.8446
  53   2.0000      -0.465807       -12.6753
  54   2.0000      -0.462688       -12.5904
  55   2.0000      -0.451378       -12.2826
  56   2.0000      -0.444780       -12.1031
  57   2.0000      -0.440879       -11.9969
  58   2.0000      -0.435375       -11.8471
  59   2.0000      -0.427923       -11.6444
  60   2.0000      -0.418527       -11.3887
  61   2.0000      -0.408407       -11.1133
  62   2.0000      -0.400529       -10.8989
  63   2.0000      -0.350636        -9.5413
  64   2.0000      -0.327680        -8.9166
  65   2.0000      -0.324848        -8.8396
  66   2.0000      -0.298758        -8.1296
  67   0.0000       0.038345         1.0434
  68   0.0000       0.067906         1.8478
  69   0.0000       0.120085         3.2677
  70   0.0000       0.126459         3.4411
  71   0.0000       0.135259         3.6806

MULLIKEN ATOMIC CHARGES
-----------------------
   0 S :    0.095829
   1 C :   -0.096000
   2 C :   -0.070879
   3 C :    0.056598
   4 C :   -0.135508
   5 H :   -0.020490
   6 C :    0.072606
   7 H :    0.038873
   8 H :    0.024310
   9 C :   -0.133363
  10 H :    0.036371
  11 H :    0.034327
  12 C :    0.036991
  13 H :    0.001910
  14 H :    0.014406
  15 H :    0.004314
  16 S :    0.103597
  17 C :   -0.097825
  18 C :   -0.045209
  19 C :   -0.079597
  20 C :   -0.123196
  21 H :    0.015608
  22 C :    0.075637
  23 H :    0.041827
  24 H :    0.035330
  25 C :   -0.096832
  26 H :    0.026376
  27 H :    0.024044
  28 C :   -0.061435
  29 H :    0.038690
  30 H :    0.043584
  31 H :    0.047947
  32 H :    0.014826
  33 H :    0.076332
Sum of atomic charges:   -0.0000000

LOEWDIN ATOMIC CHARGES
----------------------
   0 S :    0.401359
   1 C :   -0.178940
   2 C :   -0.064813
   3 C :   -0.059134
   4 C :   -0.197575
   5 H :    0.017734
   6 C :   -0.031001
   7 H :    0.035335
   8 H :    0.036480
   9 C :   -0.050140
  10 H :    0.033426
  11 H :    0.025935
  12 C :   -0.057878
  13 H :    0.011606
  14 H :    0.027247
  15 H :    0.017365
  16 S :    0.445295
  17 C :   -0.201245
  18 C :   -0.083055
  19 C :   -0.053410
  20 C :   -0.215593
  21 H :    0.027305
  22 C :   -0.029419
  23 H :    0.036675
  24 H :    0.034487
  25 C :   -0.045590
  26 H :    0.017002
  27 H :    0.024793
  28 C :   -0.064961
  29 H :    0.021704
  30 H :    0.031951
  31 H :    0.031483
  32 H :    0.015040
  33 H :    0.040533

  Mayer bond orders larger than 0.100000
B(  0-S ,  1-C ) :   1.1036 B(  0-S ,  4-C ) :   1.1549 B(  1-C ,  2-C ) :   1.6521
B(  1-C , 32-H ) :   0.9790 B(  2-C ,  3-C ) :   1.2065 B(  2-C ,  6-C ) :   1.0238
B(  3-C ,  4-C ) :   1.5792 B(  3-C ,  5-H ) :   1.0107 B(  4-C , 20-C ) :   1.0153
B(  6-C ,  7-H ) :   0.9314 B(  6-C ,  8-H ) :   0.9454 B(  6-C ,  9-C ) :   1.0680
B(  9-C , 10-H ) :   0.9554 B(  9-C , 11-H ) :   0.9555 B(  9-C , 12-C ) :   1.0771
B( 12-C , 13-H ) :   0.9700 B( 12-C , 14-H ) :   0.9672 B( 12-C , 15-H ) :   0.9699
B( 16-S , 17-C ) :   1.2078 B( 16-S , 20-C ) :   1.1397 B( 17-C , 18-C ) :   1.5513
B( 17-C , 33-H ) :   0.9626 B( 18-C , 19-C ) :   1.2478 B( 18-C , 21-H ) :   0.9935
B( 19-C , 20-C ) :   1.6120 B( 19-C , 22-C ) :   1.0288 B( 22-C , 23-H ) :   0.9198
B( 22-C , 24-H ) :   0.9465 B( 22-C , 25-C ) :   1.0640 B( 25-C , 26-H ) :   0.9616
B( 25-C , 27-H ) :   0.9487 B( 25-C , 28-C ) :   1.0587 B( 28-C , 29-H ) :   0.9759
B( 28-C , 30-H ) :   0.9755 B( 28-C , 31-H ) :   0.9812

Dispersion correction           -0.013645913
FINAL SINGLE POINT ENERGY     -1339.850666881589

DIPOLE MOMENT
-------------
                                X             Y             Z
Electronic contribution:      1.59918     -27.94142      -7.98828
Nuclear contribution   :     -1.87475      28.58788       7.93974
                        -----------------------------------------
Total Dipole Moment    :     -0.27557       0.64646      -0.04854
                        -----------------------------------------
Magnitude (a.u.)       :      0.70442
Magnitude (Debye)      :      1.79049

Rotational constants in cm-1:     0.017304     0.008980     0.006520
Rotational constants in MHz :   518.765573   269.225649   195.459383

                             ****ORCA TERMINATED NORMALLY****
TOTAL RUN TIME: 0 days 0 hours 0 minutes 21 seconds 353 msec
