                         Program Version 4.2.1 -  RELEASE  -
|  1> ! wB97X-D3 SP def2-SVP
|  2> %pal
|  3> nprocs 24
|  4> end
|  5>
|  6> * xyz 0 1
|  7> S 	 -122.909 	 66.6226 	 -39.1295
|  8> C 	 -123.097 	 68.3783 	 -38.9607
|  9> C 	 -123.501 	 68.7322 	 -37.6733
| 10> C 	 -123.808 	 67.5814 	 -36.9069
| 11> C 	 -123.574 	 66.3379 	 -37.5534
| 12> H 	 -124.155 	 67.6193 	 -35.8739
| 13> C 	 -123.555 	 70.2038 	 -37.2247
| 14> H 	 -124.615 	 70.3405 	 -36.8274
| 15> H 	 -123.423 	 70.9112 	 -38.0837
| 16> C 	 -122.462 	 70.4162 	 -36.2075
| 17> H 	 -122.537 	 71.4035 	 -35.8433
| 18> H 	 -122.622 	 69.8008 	 -35.3608
| 19> C 	 -121.021 	 70.2293 	 -36.6823
| 20> H 	 -120.683 	 70.9005 	 -37.4871
| 21> H 	 -120.394 	 70.3029 	 -35.7907
| 22> H 	 -120.904 	 69.1969 	 -37.0274
| 23> S 	 -124.836 	 64.0603 	 -38.3178
| 24> C 	 -124.946 	 62.7067 	 -37.1953
| 25> C 	 -124.479 	 63.0636 	 -35.9216
| 26> C 	 -123.983 	 64.4612 	 -35.8864
| 27> C 	 -124.042 	 65.0853 	 -37.0924
| 28> H 	 -124.451 	 62.2361 	 -35.0959
| 29> C 	 -123.412 	 65.0821 	 -34.5436
| 30> H 	 -122.633 	 65.7852 	 -34.8022
| 31> H 	 -122.839 	 64.2957 	 -34.0577
| 32> C 	 -124.586 	 65.6339 	 -33.5811
| 33> H 	 -125.427 	 64.8816 	 -33.5721
| 34> H 	 -125.083 	 66.5592 	 -33.9491
| 35> C 	 -124.153 	 65.8532 	 -32.1764
| 36> H 	 -125.002 	 65.993 	 -31.545
| 37> H 	 -123.617 	 66.8464 	 -32.153
| 38> H 	 -123.472 	 65.1401 	 -31.7745
| 39> H 	 -122.513 	 69.0751 	 -39.5811
| 40> H 	 -125.445 	 61.7819 	 -37.4306
| 41> *
| 42>
| 43>                          ****END OF INPUT****

CARTESIAN COORDINATES (ANGSTROEM)
---------------------------------
  S    -122.909000   66.622600  -39.129500
  C    -123.097000   68.378300  -38.960700
  C    -123.501000   68.732200  -37.673300
  C    -123.808000   67.581400  -36.906900
  C    -123.574000   66.337900  -37.553400
  H    -124.155000   67.619300  -35.873900
  C    -123.555000   70.203800  -37.224700
  H    -124.615000   70.340500  -36.827400
  H    -123.423000   70.911200  -38.083700
  C    -122.462000   70.416200  -36.207500
  H    -122.537000   71.403500  -35.843300
  H    -122.622000   69.800800  -35.360800
  C    -121.021000   70.229300  -36.682300
  H    -120.683000   70.900500  -37.487100
  H    -120.394000   70.302900  -35.790700
  H    -120.904000   69.196900  -37.027400
  S    -124.836000   64.060300  -38.317800
  C    -124.946000   62.706700  -37.195300
  C    -124.479000   63.063600  -35.921600
  C    -123.983000   64.461200  -35.886400
  C    -124.042000   65.085300  -37.092400
  H    -124.451000   62.236100  -35.095900
  C    -123.412000   65.082100  -34.543600
  H    -122.633000   65.785200  -34.802200
  H    -122.839000   64.295700  -34.057700
  C    -124.586000   65.633900  -33.581100
  H    -125.427000   64.881600  -33.572100
  H    -125.083000   66.559200  -33.949100
  C    -124.153000   65.853200  -32.176400
  H    -125.002000   65.993000  -31.545000
  H    -123.617000   66.846400  -32.153000
  H    -123.472000   65.140100  -31.774500
  H    -122.513000   69.075100  -39.581100
  H    -125.445000   61.781900  -37.430600

 Total Charge           Charge          ....    0
 Multiplicity           Mult            ....    1
 Number of Electrons    NEL             ....  134
 Basis Dimension        Dim             ....  322

ORBITAL ENERGIES
----------------

  NO   OCC          E(Eh)            E(eV)
   0   2.0000     -88.969108     -2420.9725
   1   2.0000     -88.962608     -2420.7956
   2   2.0000     -10.331490      -281.1341
   3   2.0000     -10.325816      -280.9797
   4   2.0000     -10.320305      -280.8298
   5   2.0000     -10.314017      -280.6587
   6   2.0000     -10.311045      -280.5778
   7   2.0000     -10.310089      -280.5518
   8   2.0000     -10.303850      -280.3820
   9   2.0000     -10.303001      -280.3589
  10   2.0000     -10.302493      -280.3451
  11   2.0000     -10.298092      -280.2253
  12   2.0000     -10.297803      -280.2175
  13   2.0000     -10.279108      -279.7087
  14   2.0000     -10.277925      -279.6766
  15   2.0000     -10.275932      -279.6223
  16   2.0000      -8.083380      -219.9599
  17   2.0000      -8.076910      -219.7839
  18   2.0000      -6.041832      -164.4066
  19   2.0000      -6.037887      -164.2993
  20   2.0000      -6.035596      -164.2369
  21   2.0000      -6.034277      -164.2010
  22   2.0000      -6.031490      -164.1252
  23   2.0000      -6.027478      -164.0160
  24   2.0000      -1.004907       -27.3449
  25   2.0000      -0.976469       -26.5711
  26   2.0000      -0.917277       -24.9604
  27   2.0000      -0.900580       -24.5060
  28   2.0000      -0.870547       -23.6888
  29   2.0000      -0.852436       -23.1960
  30   2.0000      -0.840538       -22.8722
  31   2.0000      -0.808151       -21.9909
  32   2.0000      -0.783068       -21.3084
  33   2.0000      -0.773806       -21.0563
  34   2.0000      -0.709316       -19.3015
  35   2.0000      -0.697540       -18.9810
  36   2.0000      -0.692335       -18.8394
  37   2.0000      -0.659155       -17.9365
  38   2.0000      -0.633765       -17.2456
  39   2.0000      -0.619319       -16.8525
  40   2.0000      -0.587020       -15.9736
  41   2.0000      -0.567423       -15.4404
  42   2.0000      -0.558406       -15.1950
  43   2.0000      -0.551874       -15.0172
  44   2.0000      -0.541067       -14.7232
  45   2.0000      -0.530885       -14.4461
  46   2.0000      -0.517127       -14.0718
  47   2.0000      -0.513218       -13.9654
  48   2.0000      -0.508194       -13.8287
  49   2.0000      -0.498755       -13.5718
  50   2.0000      -0.487012       -13.2523
  51   2.0000      -0.478391       -13.0177
  52   2.0000      -0.466128       -12.6840
  53   2.0000      -0.460679       -12.5357
  54   2.0000      -0.456820       -12.4307
  55   2.0000      -0.448934       -12.2161
  56   2.0000      -0.443620       -12.0715
  57   2.0000      -0.440444       -11.9851
  58   2.0000      -0.435808       -11.8589
  59   2.0000      -0.431802       -11.7499
  60   2.0000      -0.416589       -11.3360
  61   2.0000      -0.412664       -11.2291
  62   2.0000      -0.408011       -11.1025
  63   2.0000      -0.353358        -9.6154
  64   2.0000      -0.334261        -9.0957
  65   2.0000      -0.327069        -8.9000
  66   2.0000      -0.286162        -7.7869
  67   0.0000       0.022212         0.6044
  68   0.0000       0.071781         1.9533
  69   0.0000       0.109517         2.9801
  70   0.0000       0.115585         3.1452
  71   0.0000       0.124664         3.3923

MULLIKEN ATOMIC CHARGES
-----------------------
   0 S :    0.114578
   1 C :   -0.130369
   2 C :   -0.112757
   3 C :    0.019395
   4 C :   -0.154142
   5 H :   -0.000533
   6 C :    0.055476
   7 H :    0.050371
   8 H :    0.031220
   9 C :   -0.044055
  10 H :    0.015749
  11 H :    0.015235
  12 C :   -0.060374
  13 H :    0.038245
  14 H :    0.035128
  15 H :    0.040097
  16 S :    0.094955
  17 C :   -0.102280
  18 C :   -0.064628
  19 C :   -0.061625
  20 C :   -0.124810
  21 H :    0.061093
  22 C :    0.070603
  23 H :    0.030530
  24 H :    0.019749
  25 C :   -0.100288
  26 H :    0.036582
  27 H :    0.039967
  28 C :   -0.022247
  29 H :    0.031276
  30 H :    0.025830
  31 H :    0.028952
  32 H :    0.062463
  33 H :    0.060614
Sum of atomic charges:   -0.0000000

LOEWDIN ATOMIC CHARGES
----------------------
   0 S :    0.410823
   1 C :   -0.207149
   2 C :   -0.059955
   3 C :   -0.064815
   4 C :   -0.199207
   5 H :    0.027561
   6 C :   -0.029905
   7 H :    0.041931
   8 H :    0.033722
   9 C :   -0.041200
  10 H :    0.018223
  11 H :    0.019638
  12 C :   -0.063778
  13 H :    0.025650
  14 H :    0.030278
  15 H :    0.026964
  16 S :    0.380289
  17 C :   -0.183364
  18 C :   -0.083095
  19 C :   -0.055044
  20 C :   -0.186680
  21 H :    0.050267
  22 C :   -0.025631
  23 H :    0.026977
  24 H :    0.029110
  25 C :   -0.043962
  26 H :    0.028660
  27 H :    0.026476
  28 C :   -0.067164
  29 H :    0.025319
  30 H :    0.030672
  31 H :    0.020112
  32 H :    0.030110
  33 H :    0.028167

  Mayer bond orders larger than 0.100000
B(  0-S ,  1-C ) :   1.1373 B(  0-S ,  4-C ) :   1.1704 B(  1-C ,  2-C ) :   1.5816
B(  1-C ,  4-C ) :   0.1062 B(  1-C , 32-H ) :   0.9556 B(  2-C ,  3-C ) :   1.2887
B(  2-C ,  6-C ) :   1.0106 B(  3-C ,  4-C ) :   1.5025 B(  3-C ,  5-H ) :   0.9882
B(  4-C , 20-C ) :   1.0863 B(  6-C ,  7-H ) :   0.9405 B(  6-C ,  8-H ) :   0.9461
B(  6-C ,  9-C ) :   1.0708 B(  9-C , 10-H ) :   0.9523 B(  9-C , 11-H ) :   0.9547
B(  9-C , 12-C ) :   1.0780 B( 12-C , 13-H ) :   0.9757 B( 12-C , 14-H ) :   0.9709
B( 12-C , 15-H ) :   0.9722 B( 16-S , 17-C ) :   1.1394 B( 16-S , 20-C ) :   1.1079
B( 17-C , 18-C ) :   1.6428 B( 17-C , 33-H ) :   0.9687 B( 18-C , 19-C ) :   1.1998
B( 18-C , 21-H ) :   0.9717 B( 19-C , 20-C ) :   1.6495 B( 19-C , 22-C ) :   1.0372
B( 22-C , 23-H ) :   0.9383 B( 22-C , 24-H ) :   0.9428 B( 22-C , 25-C ) :   1.0350
B( 25-C , 26-H ) :   0.9605 B( 25-C , 27-H ) :   0.9535 B( 25-C , 28-C ) :   1.0881
B( 28-C , 29-H ) :   0.9712 B( 28-C , 30-H ) :   0.9718 B( 28-C , 31-H ) :   0.9754

Dispersion correction           -0.014691706
FINAL SINGLE POINT ENERGY     -1339.875079840502

DIPOLE MOMENT
-------------
                                X             Y             Z
Electronic contribution:     -5.60073     -16.51550     -24.26255
Nuclear contribution   :      5.70592      16.81527      25.02760
                        -----------------------------------------
Total Dipole Moment    :      0.10519       0.29977       0.76505
                        -----------------------------------------
Magnitude (a.u.)       :      0.82839
Magnitude (Debye)      :      2.10560

Rotational constants in cm-1:     0.017122     0.009903     0.006758
Rotational constants in MHz :   513.306384   296.873993   202.607620

                             ****ORCA TERMINATED NORMALLY****
TOTAL RUN TIME: 0 days 0 hours 0 minutes 20 seconds 842 msec
