                         Program Version 4.2.1 -  RELEASE  -
|  1> ! wB97X-D3 SP def2-SVP
|  2> %pal
|  3> nprocs 24
|  4> end
|  5>
|  6> * xyz 0 1
|  7> S 	 -63.9698 	 11.2033 	 -93.8727
|  8> C 	 -64.4109 	 12.3939 	 -95.0689
|  9> C 	 -63.7113 	 13.5711 	 -94.964
| 10> C 	 -62.8221 	 13.5044 	 -93.848
| 11> C 	 -62.7456 	 12.2806 	 -93.1696
| 12> H 	 -62.0959 	 14.2565 	 -93.5211
| 13> C 	 -63.887 	 14.7517 	 -95.8711
| 14> H 	 -63.3147 	 15.6201 	 -95.4861
| 15> H 	 -64.9451 	 15.0522 	 -95.693
| 16> C 	 -63.4463 	 14.6742 	 -97.3305
| 17> H 	 -64.1179 	 13.943 	 -97.9089
| 18> H 	 -63.5974 	 15.6242 	 -97.822
| 19> C 	 -61.9345 	 14.1698 	 -97.3873
| 20> H 	 -61.5703 	 13.9382 	 -98.4814
| 21> H 	 -61.3068 	 14.8726 	 -96.9548
| 22> H 	 -61.8121 	 13.251 	 -96.9013
| 23> S 	 -63.3098 	 11.135 	 -90.7747
| 24> C 	 -62.0625 	 11.2692 	 -89.5164
| 25> C 	 -60.8638 	 11.8234 	 -89.9032
| 26> C 	 -60.9588 	 12.2653 	 -91.2595
| 27> C 	 -62.1762 	 12.003 	 -91.8268
| 28> H 	 -60.1036 	 11.9227 	 -89.2017
| 29> C 	 -59.8231 	 12.9811 	 -91.9681
| 30> H 	 -59.9945 	 12.893 	 -93.0743
| 31> H 	 -58.8684 	 12.4433 	 -91.7453
| 32> C 	 -59.7462 	 14.4517 	 -91.4677
| 33> H 	 -59.6545 	 14.4454 	 -90.4001
| 34> H 	 -60.7817 	 14.9229 	 -91.5563
| 35> C 	 -58.583 	 15.3044 	 -91.9991
| 36> H 	 -57.5958 	 14.7371 	 -91.8412
| 37> H 	 -58.5761 	 16.2633 	 -91.3759
| 38> H 	 -58.6058 	 15.6608 	 -93.0348
| 39> H 	 -65.0626 	 12.0995 	 -95.8302
| 40> H 	 -62.3074 	 10.9954 	 -88.5282
| 41> *
| 42>
| 43>                          ****END OF INPUT****

CARTESIAN COORDINATES (ANGSTROEM)
---------------------------------
  S    -63.969800   11.203300  -93.872700
  C    -64.410900   12.393900  -95.068900
  C    -63.711300   13.571100  -94.964000
  C    -62.822100   13.504400  -93.848000
  C    -62.745600   12.280600  -93.169600
  H    -62.095900   14.256500  -93.521100
  C    -63.887000   14.751700  -95.871100
  H    -63.314700   15.620100  -95.486100
  H    -64.945100   15.052200  -95.693000
  C    -63.446300   14.674200  -97.330500
  H    -64.117900   13.943000  -97.908900
  H    -63.597400   15.624200  -97.822000
  C    -61.934500   14.169800  -97.387300
  H    -61.570300   13.938200  -98.481400
  H    -61.306800   14.872600  -96.954800
  H    -61.812100   13.251000  -96.901300
  S    -63.309800   11.135000  -90.774700
  C    -62.062500   11.269200  -89.516400
  C    -60.863800   11.823400  -89.903200
  C    -60.958800   12.265300  -91.259500
  C    -62.176200   12.003000  -91.826800
  H    -60.103600   11.922700  -89.201700
  C    -59.823100   12.981100  -91.968100
  H    -59.994500   12.893000  -93.074300
  H    -58.868400   12.443300  -91.745300
  C    -59.746200   14.451700  -91.467700
  H    -59.654500   14.445400  -90.400100
  H    -60.781700   14.922900  -91.556300
  C    -58.583000   15.304400  -91.999100
  H    -57.595800   14.737100  -91.841200
  H    -58.576100   16.263300  -91.375900
  H    -58.605800   15.660800  -93.034800
  H    -65.062600   12.099500  -95.830200
  H    -62.307400   10.995400  -88.528200

 Total Charge           Charge          ....    0
 Multiplicity           Mult            ....    1
 Number of Electrons    NEL             ....  134
 Basis Dimension        Dim             ....  322

ORBITAL ENERGIES
----------------

  NO   OCC          E(Eh)            E(eV)
   0   2.0000     -88.965406     -2420.8718
   1   2.0000     -88.964483     -2420.8467
   2   2.0000     -10.332209      -281.1537
   3   2.0000     -10.328033      -281.0401
   4   2.0000     -10.315195      -280.6907
   5   2.0000     -10.310177      -280.5542
   6   2.0000     -10.303097      -280.3615
   7   2.0000     -10.302897      -280.3561
   8   2.0000     -10.299356      -280.2597
   9   2.0000     -10.298421      -280.2343
  10   2.0000     -10.296585      -280.1843
  11   2.0000     -10.295904      -280.1658
  12   2.0000     -10.294535      -280.1285
  13   2.0000     -10.293195      -280.0921
  14   2.0000     -10.292924      -280.0847
  15   2.0000     -10.278964      -279.7048
  16   2.0000      -8.079713      -219.8602
  17   2.0000      -8.079115      -219.8439
  18   2.0000      -6.038162      -164.3067
  19   2.0000      -6.037597      -164.2914
  20   2.0000      -6.034548      -164.2084
  21   2.0000      -6.033572      -164.1818
  22   2.0000      -6.030275      -164.0921
  23   2.0000      -6.029984      -164.0842
  24   2.0000      -1.004163       -27.3247
  25   2.0000      -0.982545       -26.7364
  26   2.0000      -0.910225       -24.7685
  27   2.0000      -0.904623       -24.6160
  28   2.0000      -0.866461       -23.5776
  29   2.0000      -0.850470       -23.1425
  30   2.0000      -0.841119       -22.8880
  31   2.0000      -0.814318       -22.1587
  32   2.0000      -0.781653       -21.2699
  33   2.0000      -0.770837       -20.9755
  34   2.0000      -0.707239       -19.2450
  35   2.0000      -0.700598       -19.0643
  36   2.0000      -0.693840       -18.8804
  37   2.0000      -0.669731       -18.2243
  38   2.0000      -0.644311       -17.5326
  39   2.0000      -0.609240       -16.5783
  40   2.0000      -0.594027       -16.1643
  41   2.0000      -0.575617       -15.6633
  42   2.0000      -0.559941       -15.2368
  43   2.0000      -0.549028       -14.9398
  44   2.0000      -0.540903       -14.7187
  45   2.0000      -0.525210       -14.2917
  46   2.0000      -0.515116       -14.0170
  47   2.0000      -0.508707       -13.8426
  48   2.0000      -0.499248       -13.5852
  49   2.0000      -0.490766       -13.3544
  50   2.0000      -0.488768       -13.3000
  51   2.0000      -0.478364       -13.0169
  52   2.0000      -0.470008       -12.7896
  53   2.0000      -0.467870       -12.7314
  54   2.0000      -0.455921       -12.4062
  55   2.0000      -0.453448       -12.3390
  56   2.0000      -0.439561       -11.9611
  57   2.0000      -0.435945       -11.8627
  58   2.0000      -0.433110       -11.7855
  59   2.0000      -0.427700       -11.6383
  60   2.0000      -0.422582       -11.4991
  61   2.0000      -0.415889       -11.3169
  62   2.0000      -0.411890       -11.2081
  63   2.0000      -0.352634        -9.5957
  64   2.0000      -0.334837        -9.1114
  65   2.0000      -0.330228        -8.9860
  66   2.0000      -0.286446        -7.7946
  67   0.0000       0.028013         0.7623
  68   0.0000       0.065556         1.7839
  69   0.0000       0.101193         2.7536
  70   0.0000       0.123385         3.3575
  71   0.0000       0.128948         3.5089

MULLIKEN ATOMIC CHARGES
-----------------------
   0 S :    0.083703
   1 C :   -0.114198
   2 C :   -0.069063
   3 C :    0.015959
   4 C :   -0.139500
   5 H :    0.008966
   6 C :    0.040404
   7 H :    0.020377
   8 H :    0.049396
   9 C :   -0.066035
  10 H :    0.034508
  11 H :    0.036666
  12 C :   -0.058082
  13 H :    0.043810
  14 H :    0.020605
  15 H :    0.040399
  16 S :    0.094630
  17 C :   -0.078968
  18 C :    0.005769
  19 C :   -0.057603
  20 C :   -0.133523
  21 H :   -0.003215
  22 C :    0.052604
  23 H :    0.042595
  24 H :    0.031393
  25 C :   -0.093035
  26 H :    0.018518
  27 H :    0.038534
  28 C :   -0.064955
  29 H :    0.043150
  30 H :    0.044134
  31 H :    0.041939
  32 H :    0.033619
  33 H :    0.036499
Sum of atomic charges:    0.0000000

LOEWDIN ATOMIC CHARGES
----------------------
   0 S :    0.391082
   1 C :   -0.179967
   2 C :   -0.067546
   3 C :   -0.065061
   4 C :   -0.188387
   5 H :    0.029968
   6 C :   -0.043216
   7 H :    0.032341
   8 H :    0.040863
   9 C :   -0.037737
  10 H :    0.025728
  11 H :    0.023988
  12 C :   -0.059683
  13 H :    0.038032
  14 H :    0.012937
  15 H :    0.020571
  16 S :    0.377926
  17 C :   -0.155398
  18 C :   -0.057368
  19 C :   -0.058084
  20 C :   -0.183160
  21 H :    0.024407
  22 C :   -0.034705
  23 H :    0.033886
  24 H :    0.033367
  25 C :   -0.051947
  26 H :    0.021944
  27 H :    0.030662
  28 C :   -0.077665
  29 H :    0.034354
  30 H :    0.035959
  31 H :    0.023264
  32 H :    0.014743
  33 H :    0.013901

  Mayer bond orders larger than 0.100000
B(  0-S ,  1-C ) :   1.1514 B(  0-S ,  4-C ) :   1.1438 B(  1-C ,  2-C ) :   1.5805
B(  1-C , 32-H ) :   0.9797 B(  2-C ,  3-C ) :   1.2556 B(  2-C ,  6-C ) :   1.0122
B(  3-C ,  4-C ) :   1.5666 B(  3-C ,  5-H ) :   0.9842 B(  4-C , 20-C ) :   1.0261
B(  6-C ,  7-H ) :   0.9429 B(  6-C ,  8-H ) :   0.9375 B(  6-C ,  9-C ) :   1.0693
B(  9-C , 10-H ) :   0.9582 B(  9-C , 11-H ) :   0.9585 B(  9-C , 12-C ) :   1.0562
B( 12-C , 13-H ) :   0.9767 B( 12-C , 14-H ) :   0.9792 B( 12-C , 15-H ) :   0.9758
B( 16-S , 17-C ) :   1.1413 B( 16-S , 20-C ) :   1.1209 B( 17-C , 18-C ) :   1.6415
B( 17-C , 33-H ) :   0.9718 B( 18-C , 19-C ) :   1.1875 B( 18-C , 21-H ) :   1.0061
B( 19-C , 20-C ) :   1.6592 B( 19-C , 22-C ) :   1.0479 B( 22-C , 23-H ) :   0.9356
B( 22-C , 24-H ) :   0.9329 B( 22-C , 25-C ) :   1.0520 B( 25-C , 26-H ) :   0.9537
B( 25-C , 27-H ) :   0.9486 B( 25-C , 28-C ) :   1.0728 B( 28-C , 29-H ) :   0.9702
B( 28-C , 30-H ) :   0.9736 B( 28-C , 31-H ) :   0.9774

Dispersion correction           -0.014548300
FINAL SINGLE POINT ENERGY     -1339.875025353236

DIPOLE MOMENT
-------------
                                X             Y             Z
Electronic contribution:    -16.33367     -21.14759      13.39649
Nuclear contribution   :     16.66704      21.70269     -13.43043
                        -----------------------------------------
Total Dipole Moment    :      0.33337       0.55509      -0.03394
                        -----------------------------------------
Magnitude (a.u.)       :      0.64840
Magnitude (Debye)      :      1.64809

Rotational constants in cm-1:     0.017604     0.009554     0.006599
Rotational constants in MHz :   527.753834   286.414955   197.827080

                             ****ORCA TERMINATED NORMALLY****
TOTAL RUN TIME: 0 days 0 hours 0 minutes 21 seconds 754 msec
