                         Program Version 4.2.1 -  RELEASE  -
|  1> ! wB97X-D3 SP def2-SVP
|  2> %pal
|  3> nprocs 24
|  4> end
|  5>
|  6> * xyz 0 1
|  7> S 	 -104.406 	 62.8829 	 -99.4057
|  8> C 	 -105.42 	 61.982 	 -100.407
|  9> C 	 -104.797 	 61.2812 	 -101.413
| 10> C 	 -103.425 	 61.7227 	 -101.496
| 11> C 	 -102.994 	 62.5214 	 -100.41
| 12> H 	 -102.71 	 61.4563 	 -102.299
| 13> C 	 -105.432 	 60.2603 	 -102.355
| 14> H 	 -105.815 	 60.7791 	 -103.278
| 15> H 	 -106.353 	 59.8266 	 -101.946
| 16> C 	 -104.498 	 59.1014 	 -102.862
| 17> H 	 -103.668 	 59.5359 	 -103.501
| 18> H 	 -103.998 	 58.4985 	 -102.091
| 19> C 	 -105.237 	 58.1637 	 -103.871
| 20> H 	 -106.129 	 57.8919 	 -103.411
| 21> H 	 -105.505 	 58.7572 	 -104.8
| 22> H 	 -104.73 	 57.2212 	 -104.138
| 23> S 	 -101.743 	 64.9767 	 -100.173
| 24> C 	 -99.9759 	 64.9871 	 -100.096
| 25> C 	 -99.4728 	 63.7073 	 -100.114
| 26> C 	 -100.48 	 62.6804 	 -100.177
| 27> C 	 -101.735 	 63.2249 	 -100.215
| 28> H 	 -98.3699 	 63.7474 	 -99.9039
| 29> C 	 -100.142 	 61.1926 	 -99.9947
| 30> H 	 -101.025 	 60.7236 	 -100.449
| 31> H 	 -100.152 	 60.9583 	 -98.9463
| 32> C 	 -98.8653 	 60.7418 	 -100.642
| 33> H 	 -98.14 	 61.4475 	 -100.349
| 34> H 	 -98.9149 	 60.7839 	 -101.758
| 35> C 	 -98.4726 	 59.3278 	 -100.288
| 36> H 	 -99.3006 	 58.6529 	 -100.289
| 37> H 	 -97.8867 	 59.2352 	 -99.4265
| 38> H 	 -97.7608 	 58.952 	 -101.015
| 39> H 	 -106.4 	 61.8445 	 -100.068
| 40> H 	 -99.3398 	 65.8794 	 -99.9961
| 41> *
| 42>
| 43>                          ****END OF INPUT****

CARTESIAN COORDINATES (ANGSTROEM)
---------------------------------
  S    -104.406000   62.882900  -99.405700
  C    -105.420000   61.982000  -100.407000
  C    -104.797000   61.281200  -101.413000
  C    -103.425000   61.722700  -101.496000
  C    -102.994000   62.521400  -100.410000
  H    -102.710000   61.456300  -102.299000
  C    -105.432000   60.260300  -102.355000
  H    -105.815000   60.779100  -103.278000
  H    -106.353000   59.826600  -101.946000
  C    -104.498000   59.101400  -102.862000
  H    -103.668000   59.535900  -103.501000
  H    -103.998000   58.498500  -102.091000
  C    -105.237000   58.163700  -103.871000
  H    -106.129000   57.891900  -103.411000
  H    -105.505000   58.757200  -104.800000
  H    -104.730000   57.221200  -104.138000
  S    -101.743000   64.976700  -100.173000
  C    -99.975900   64.987100  -100.096000
  C    -99.472800   63.707300  -100.114000
  C    -100.480000   62.680400  -100.177000
  C    -101.735000   63.224900  -100.215000
  H    -98.369900   63.747400  -99.903900
  C    -100.142000   61.192600  -99.994700
  H    -101.025000   60.723600  -100.449000
  H    -100.152000   60.958300  -98.946300
  C    -98.865300   60.741800  -100.642000
  H    -98.140000   61.447500  -100.349000
  H    -98.914900   60.783900  -101.758000
  C    -98.472600   59.327800  -100.288000
  H    -99.300600   58.652900  -100.289000
  H    -97.886700   59.235200  -99.426500
  H    -97.760800   58.952000  -101.015000
  H    -106.400000   61.844500  -100.068000
  H    -99.339800   65.879400  -99.996100

 Total Charge           Charge          ....    0
 Multiplicity           Mult            ....    1
 Number of Electrons    NEL             ....  134
 Basis Dimension        Dim             ....  322

ORBITAL ENERGIES
----------------

  NO   OCC          E(Eh)            E(eV)
   0   2.0000     -88.963727     -2420.8261
   1   2.0000     -88.963451     -2420.8186
   2   2.0000     -10.329870      -281.0901
   3   2.0000     -10.323274      -280.9106
   4   2.0000     -10.317651      -280.7576
   5   2.0000     -10.306541      -280.4552
   6   2.0000     -10.305367      -280.4233
   7   2.0000     -10.305075      -280.4153
   8   2.0000     -10.303000      -280.3589
   9   2.0000     -10.301576      -280.3201
  10   2.0000     -10.298318      -280.2315
  11   2.0000     -10.295780      -280.1624
  12   2.0000     -10.285364      -279.8790
  13   2.0000     -10.281942      -279.7859
  14   2.0000     -10.279731      -279.7257
  15   2.0000     -10.267450      -279.3915
  16   2.0000      -8.079380      -219.8511
  17   2.0000      -8.078275      -219.8210
  18   2.0000      -6.037712      -164.2945
  19   2.0000      -6.036840      -164.2708
  20   2.0000      -6.033612      -164.1829
  21   2.0000      -6.032893      -164.1634
  22   2.0000      -6.030377      -164.0949
  23   2.0000      -6.028903      -164.0548
  24   2.0000      -1.006075       -27.3767
  25   2.0000      -0.984513       -26.7900
  26   2.0000      -0.912892       -24.8410
  27   2.0000      -0.904191       -24.6043
  28   2.0000      -0.870568       -23.6894
  29   2.0000      -0.852009       -23.1843
  30   2.0000      -0.845599       -23.0099
  31   2.0000      -0.813689       -22.1416
  32   2.0000      -0.783098       -21.3092
  33   2.0000      -0.771762       -21.0007
  34   2.0000      -0.708626       -19.2827
  35   2.0000      -0.701395       -19.0859
  36   2.0000      -0.690296       -18.7839
  37   2.0000      -0.652811       -17.7639
  38   2.0000      -0.641433       -17.4543
  39   2.0000      -0.618653       -16.8344
  40   2.0000      -0.594033       -16.1644
  41   2.0000      -0.569869       -15.5069
  42   2.0000      -0.567474       -15.4418
  43   2.0000      -0.559106       -15.2140
  44   2.0000      -0.529783       -14.4161
  45   2.0000      -0.522001       -14.2044
  46   2.0000      -0.516923       -14.0662
  47   2.0000      -0.510734       -13.8978
  48   2.0000      -0.504635       -13.7318
  49   2.0000      -0.494279       -13.4500
  50   2.0000      -0.488887       -13.3033
  51   2.0000      -0.484264       -13.1775
  52   2.0000      -0.470781       -12.8106
  53   2.0000      -0.463487       -12.6121
  54   2.0000      -0.459246       -12.4967
  55   2.0000      -0.447653       -12.1813
  56   2.0000      -0.441306       -12.0086
  57   2.0000      -0.436345       -11.8736
  58   2.0000      -0.430046       -11.7021
  59   2.0000      -0.426715       -11.6115
  60   2.0000      -0.422875       -11.5070
  61   2.0000      -0.418507       -11.3881
  62   2.0000      -0.415186       -11.2978
  63   2.0000      -0.346335        -9.4243
  64   2.0000      -0.330362        -8.9896
  65   2.0000      -0.327084        -8.9004
  66   2.0000      -0.293494        -7.9864
  67   0.0000       0.033492         0.9114
  68   0.0000       0.070029         1.9056
  69   0.0000       0.116310         3.1650
  70   0.0000       0.121074         3.2946
  71   0.0000       0.130468         3.5502

MULLIKEN ATOMIC CHARGES
-----------------------
   0 S :    0.110267
   1 C :   -0.100900
   2 C :   -0.060146
   3 C :    0.028929
   4 C :   -0.208675
   5 H :    0.031266
   6 C :    0.046395
   7 H :    0.046730
   8 H :    0.023605
   9 C :   -0.121675
  10 H :    0.040592
  11 H :    0.044688
  12 C :   -0.046641
  13 H :    0.010686
  14 H :    0.038356
  15 H :    0.044430
  16 S :    0.110932
  17 C :   -0.120037
  18 C :   -0.064701
  19 C :   -0.038431
  20 C :   -0.137298
  21 H :    0.044982
  22 C :    0.110417
  23 H :    0.016591
  24 H :    0.039277
  25 C :   -0.094496
  26 H :    0.015250
  27 H :    0.032125
  28 C :    0.005914
  29 H :    0.025524
  30 H :    0.016509
  31 H :    0.016262
  32 H :    0.029895
  33 H :    0.063380
Sum of atomic charges:   -0.0000000

LOEWDIN ATOMIC CHARGES
----------------------
   0 S :    0.424495
   1 C :   -0.200458
   2 C :   -0.067749
   3 C :   -0.056359
   4 C :   -0.196639
   5 H :    0.035235
   6 C :   -0.034896
   7 H :    0.041561
   8 H :    0.029428
   9 C :   -0.046054
  10 H :    0.027416
  11 H :    0.025101
  12 C :   -0.066503
  13 H :    0.010892
  14 H :    0.032083
  15 H :    0.030762
  16 S :    0.393266
  17 C :   -0.182592
  18 C :   -0.086551
  19 C :   -0.054008
  20 C :   -0.204421
  21 H :    0.044007
  22 C :   -0.026772
  23 H :    0.030585
  24 H :    0.033444
  25 C :   -0.041781
  26 H :    0.016072
  27 H :    0.030571
  28 C :   -0.059343
  29 H :    0.023458
  30 H :    0.018815
  31 H :    0.028808
  32 H :    0.013597
  33 H :    0.034532

  Mayer bond orders larger than 0.100000
B(  0-S ,  1-C ) :   1.1739 B(  0-S ,  4-C ) :   1.1553 B(  1-C ,  2-C ) :   1.5931
B(  1-C , 32-H ) :   0.9711 B(  2-C ,  3-C ) :   1.2493 B(  2-C ,  6-C ) :   1.0203
B(  3-C ,  4-C ) :   1.5700 B(  3-C ,  5-H ) :   0.9783 B(  4-C , 20-C ) :   1.0322
B(  6-C ,  7-H ) :   0.9369 B(  6-C ,  8-H ) :   0.9468 B(  6-C ,  9-C ) :   1.0507
B(  9-C , 10-H ) :   0.9531 B(  9-C , 11-H ) :   0.9631 B(  9-C , 12-C ) :   1.0753
B( 12-C , 13-H ) :   0.9762 B( 12-C , 14-H ) :   0.9753 B( 12-C , 15-H ) :   0.9750
B( 16-S , 17-C ) :   1.1384 B( 16-S , 20-C ) :   1.1353 B( 17-C , 18-C ) :   1.6624
B( 17-C , 33-H ) :   0.9612 B( 18-C , 19-C ) :   1.1920 B( 18-C , 21-H ) :   0.9758
B( 19-C , 20-C ) :   1.6338 B( 19-C , 22-C ) :   1.0270 B( 22-C , 23-H ) :   0.9163
B( 22-C , 24-H ) :   0.9388 B( 22-C , 25-C ) :   1.0701 B( 25-C , 26-H ) :   0.9522
B( 25-C , 27-H ) :   0.9567 B( 25-C , 28-C ) :   1.0944 B( 28-C , 29-H ) :   0.9723
B( 28-C , 30-H ) :   0.9708 B( 28-C , 31-H ) :   0.9693

Dispersion correction           -0.013343348
FINAL SINGLE POINT ENERGY     -1339.876896626001

DIPOLE MOMENT
-------------
                                X             Y             Z
Electronic contribution:     -6.69069      28.09126      13.21170
Nuclear contribution   :      6.89881     -28.63853     -13.42455
                        -----------------------------------------
Total Dipole Moment    :      0.20812      -0.54728      -0.21285
                        -----------------------------------------
Magnitude (a.u.)       :      0.62300
Magnitude (Debye)      :      1.58354

Rotational constants in cm-1:     0.015829     0.008898     0.006271
Rotational constants in MHz :   474.549128   266.764770   188.002786

                             ****ORCA TERMINATED NORMALLY****
TOTAL RUN TIME: 0 days 0 hours 0 minutes 21 seconds 75 msec
