                         Program Version 4.2.1 -  RELEASE  -
|  1> ! wB97X-D3 SP def2-SVP
|  2> %pal
|  3> nprocs 24
|  4> end
|  5>
|  6> * xyz 0 1
|  7> S 	 -97.8109 	 -24.5442 	 -64.9322
|  8> C 	 -99.1125 	 -23.5094 	 -65.3775
|  9> C 	 -100.213 	 -23.653 	 -64.5492
| 10> C 	 -99.9562 	 -24.5575 	 -63.4631
| 11> C 	 -98.6433 	 -25.0327 	 -63.4597
| 12> H 	 -100.627 	 -24.7976 	 -62.6307
| 13> C 	 -101.536 	 -22.9367 	 -64.6699
| 14> H 	 -102.256 	 -23.7644 	 -64.5111
| 15> H 	 -101.684 	 -22.5596 	 -65.6835
| 16> C 	 -101.651 	 -21.8205 	 -63.6304
| 17> H 	 -101.322 	 -22.3421 	 -62.6806
| 18> H 	 -100.881 	 -21.1331 	 -63.8984
| 19> C 	 -103.043 	 -21.1991 	 -63.6067
| 20> H 	 -102.989 	 -20.1541 	 -63.1884
| 21> H 	 -103.478 	 -21.0271 	 -64.5741
| 22> H 	 -103.677 	 -21.796 	 -62.9949
| 23> S 	 -98.0532 	 -27.6427 	 -62.8403
| 24> C 	 -97.3686 	 -28.0335 	 -61.2367
| 25> C 	 -97.3797 	 -26.9627 	 -60.4511
| 26> C 	 -97.748 	 -25.7538 	 -61.1562
| 27> C 	 -98.1601 	 -26.0006 	 -62.4593
| 28> H 	 -96.8526 	 -26.9636 	 -59.5126
| 29> C 	 -97.5405 	 -24.4355 	 -60.5343
| 30> H 	 -97.407 	 -24.5617 	 -59.4483
| 31> H 	 -98.4634 	 -23.8643 	 -60.5787
| 32> C 	 -96.3299 	 -23.6744 	 -61.1368
| 33> H 	 -96.3806 	 -23.6142 	 -62.2089
| 34> H 	 -95.4043 	 -24.2405 	 -61.0039
| 35> C 	 -96.2011 	 -22.2842 	 -60.4973
| 36> H 	 -95.1155 	 -21.8949 	 -60.451
| 37> H 	 -96.5729 	 -22.1158 	 -59.4799
| 38> H 	 -96.7138 	 -21.5593 	 -61.1518
| 39> H 	 -99.0834 	 -22.9647 	 -66.2417
| 40> H 	 -96.9739 	 -28.9672 	 -60.9021
| 41> *
| 42>
| 43>                          ****END OF INPUT****

CARTESIAN COORDINATES (ANGSTROEM)
---------------------------------
  S    -97.810900  -24.544200  -64.932200
  C    -99.112500  -23.509400  -65.377500
  C    -100.213000  -23.653000  -64.549200
  C    -99.956200  -24.557500  -63.463100
  C    -98.643300  -25.032700  -63.459700
  H    -100.627000  -24.797600  -62.630700
  C    -101.536000  -22.936700  -64.669900
  H    -102.256000  -23.764400  -64.511100
  H    -101.684000  -22.559600  -65.683500
  C    -101.651000  -21.820500  -63.630400
  H    -101.322000  -22.342100  -62.680600
  H    -100.881000  -21.133100  -63.898400
  C    -103.043000  -21.199100  -63.606700
  H    -102.989000  -20.154100  -63.188400
  H    -103.478000  -21.027100  -64.574100
  H    -103.677000  -21.796000  -62.994900
  S    -98.053200  -27.642700  -62.840300
  C    -97.368600  -28.033500  -61.236700
  C    -97.379700  -26.962700  -60.451100
  C    -97.748000  -25.753800  -61.156200
  C    -98.160100  -26.000600  -62.459300
  H    -96.852600  -26.963600  -59.512600
  C    -97.540500  -24.435500  -60.534300
  H    -97.407000  -24.561700  -59.448300
  H    -98.463400  -23.864300  -60.578700
  C    -96.329900  -23.674400  -61.136800
  H    -96.380600  -23.614200  -62.208900
  H    -95.404300  -24.240500  -61.003900
  C    -96.201100  -22.284200  -60.497300
  H    -95.115500  -21.894900  -60.451000
  H    -96.572900  -22.115800  -59.479900
  H    -96.713800  -21.559300  -61.151800
  H    -99.083400  -22.964700  -66.241700
  H    -96.973900  -28.967200  -60.902100

 Total Charge           Charge          ....    0
 Multiplicity           Mult            ....    1
 Number of Electrons    NEL             ....  134
 Basis Dimension        Dim             ....  322

ORBITAL ENERGIES
----------------

  NO   OCC          E(Eh)            E(eV)
   0   2.0000     -88.968750     -2420.9628
   1   2.0000     -88.961760     -2420.7726
   2   2.0000     -10.330835      -281.1163
   3   2.0000     -10.319343      -280.8036
   4   2.0000     -10.311365      -280.5865
   5   2.0000     -10.307807      -280.4897
   6   2.0000     -10.300920      -280.3023
   7   2.0000     -10.297642      -280.2131
   8   2.0000     -10.295418      -280.1526
   9   2.0000     -10.290878      -280.0290
  10   2.0000     -10.287992      -279.9505
  11   2.0000     -10.285870      -279.8928
  12   2.0000     -10.285502      -279.8827
  13   2.0000     -10.282328      -279.7964
  14   2.0000     -10.280420      -279.7444
  15   2.0000     -10.279561      -279.7211
  16   2.0000      -8.083421      -219.9611
  17   2.0000      -8.077198      -219.7917
  18   2.0000      -6.041831      -164.4066
  19   2.0000      -6.037908      -164.2998
  20   2.0000      -6.035743      -164.2409
  21   2.0000      -6.034324      -164.2023
  22   2.0000      -6.031602      -164.1282
  23   2.0000      -6.027870      -164.0267
  24   2.0000      -1.008818       -27.4513
  25   2.0000      -0.987874       -26.8814
  26   2.0000      -0.915040       -24.8995
  27   2.0000      -0.905237       -24.6327
  28   2.0000      -0.874393       -23.7934
  29   2.0000      -0.850518       -23.1438
  30   2.0000      -0.843878       -22.9631
  31   2.0000      -0.819822       -22.3085
  32   2.0000      -0.779250       -21.2045
  33   2.0000      -0.763253       -20.7692
  34   2.0000      -0.708511       -19.2796
  35   2.0000      -0.700443       -19.0600
  36   2.0000      -0.694974       -18.9112
  37   2.0000      -0.661091       -17.9892
  38   2.0000      -0.648915       -17.6579
  39   2.0000      -0.619189       -16.8490
  40   2.0000      -0.594961       -16.1897
  41   2.0000      -0.569293       -15.4912
  42   2.0000      -0.566639       -15.4190
  43   2.0000      -0.553488       -15.0612
  44   2.0000      -0.522857       -14.2277
  45   2.0000      -0.518285       -14.1033
  46   2.0000      -0.514704       -14.0058
  47   2.0000      -0.512608       -13.9488
  48   2.0000      -0.508774       -13.8445
  49   2.0000      -0.498693       -13.5701
  50   2.0000      -0.496569       -13.5123
  51   2.0000      -0.483275       -13.1506
  52   2.0000      -0.472223       -12.8498
  53   2.0000      -0.465958       -12.6794
  54   2.0000      -0.457343       -12.4449
  55   2.0000      -0.453534       -12.3413
  56   2.0000      -0.447559       -12.1787
  57   2.0000      -0.432129       -11.7588
  58   2.0000      -0.429498       -11.6872
  59   2.0000      -0.428293       -11.6544
  60   2.0000      -0.417461       -11.3597
  61   2.0000      -0.416392       -11.3306
  62   2.0000      -0.407529       -11.0894
  63   2.0000      -0.344255        -9.3676
  64   2.0000      -0.331164        -9.0114
  65   2.0000      -0.319489        -8.6937
  66   2.0000      -0.303278        -8.2526
  67   0.0000       0.041846         1.1387
  68   0.0000       0.063786         1.7357
  69   0.0000       0.118915         3.2358
  70   0.0000       0.124136         3.3779
  71   0.0000       0.128476         3.4960

MULLIKEN ATOMIC CHARGES
-----------------------
   0 S :    0.120991
   1 C :   -0.087125
   2 C :   -0.093586
   3 C :    0.031093
   4 C :   -0.178268
   5 H :    0.029936
   6 C :    0.055943
   7 H :    0.032390
   8 H :    0.015749
   9 C :   -0.075863
  10 H :    0.034026
  11 H :    0.021560
  12 C :   -0.011894
  13 H :    0.036314
  14 H :    0.027209
  15 H :    0.032655
  16 S :    0.110167
  17 C :   -0.082350
  18 C :   -0.006948
  19 C :   -0.072585
  20 C :   -0.166789
  21 H :    0.020271
  22 C :    0.085652
  23 H :    0.013269
  24 H :    0.021362
  25 C :   -0.040471
  26 H :    0.022647
  27 H :    0.023503
  28 C :   -0.078984
  29 H :    0.036304
  30 H :    0.033999
  31 H :    0.036560
  32 H :    0.011389
  33 H :    0.041875
Sum of atomic charges:    0.0000000

LOEWDIN ATOMIC CHARGES
----------------------
   0 S :    0.416569
   1 C :   -0.191884
   2 C :   -0.061191
   3 C :   -0.055615
   4 C :   -0.196560
   5 H :    0.036552
   6 C :   -0.033581
   7 H :    0.033048
   8 H :    0.024227
   9 C :   -0.040155
  10 H :    0.031132
  11 H :    0.020897
  12 C :   -0.063729
  13 H :    0.034357
  14 H :    0.023631
  15 H :    0.023659
  16 S :    0.412441
  17 C :   -0.167149
  18 C :   -0.071494
  19 C :   -0.058246
  20 C :   -0.225228
  21 H :    0.033038
  22 C :   -0.035229
  23 H :    0.030108
  24 H :    0.029950
  25 C :   -0.035620
  26 H :    0.019672
  27 H :    0.024608
  28 C :   -0.078314
  29 H :    0.032830
  30 H :    0.023404
  31 H :    0.028228
  32 H :    0.008723
  33 H :    0.026918

  Mayer bond orders larger than 0.100000
B(  0-S ,  1-C ) :   1.1483 B(  0-S ,  4-C ) :   1.1494 B(  1-C ,  2-C ) :   1.6008
B(  1-C , 32-H ) :   0.9812 B(  2-C ,  3-C ) :   1.2374 B(  2-C ,  6-C ) :   1.0235
B(  3-C ,  4-C ) :   1.5885 B(  3-C ,  5-H ) :   0.9841 B(  4-C , 20-C ) :   1.0103
B(  6-C ,  7-H ) :   0.9402 B(  6-C ,  8-H ) :   0.9381 B(  6-C ,  9-C ) :   1.0552
B(  9-C , 10-H ) :   0.9605 B(  9-C , 11-H ) :   0.9539 B(  9-C , 12-C ) :   1.0728
B( 12-C , 13-H ) :   0.9738 B( 12-C , 14-H ) :   0.9727 B( 12-C , 15-H ) :   0.9760
B( 16-S , 17-C ) :   1.1355 B( 16-S , 20-C ) :   1.1503 B( 17-C , 18-C ) :   1.6535
B( 17-C , 33-H ) :   0.9659 B( 18-C , 19-C ) :   1.2427 B( 18-C , 21-H ) :   0.9795
B( 19-C , 20-C ) :   1.6064 B( 19-C , 22-C ) :   1.0645 B( 22-C , 23-H ) :   0.9280
B( 22-C , 24-H ) :   0.9211 B( 22-C , 25-C ) :   1.0560 B( 25-C , 26-H ) :   0.9576
B( 25-C , 27-H ) :   0.9577 B( 25-C , 28-C ) :   1.0649 B( 28-C , 29-H ) :   0.9769
B( 28-C , 30-H ) :   0.9768 B( 28-C , 31-H ) :   0.9778

Dispersion correction           -0.014566132
FINAL SINGLE POINT ENERGY     -1339.883929416526

DIPOLE MOMENT
-------------
                                X             Y             Z
Electronic contribution:      8.72586     -23.74318     -10.15655
Nuclear contribution   :     -8.94403      24.16021      10.40460
                        -----------------------------------------
Total Dipole Moment    :     -0.21817       0.41703       0.24805
                        -----------------------------------------
Magnitude (a.u.)       :      0.53202
Magnitude (Debye)      :      1.35228

Rotational constants in cm-1:     0.018176     0.008472     0.007354
Rotational constants in MHz :   544.903650   253.983015   220.464033

                             ****ORCA TERMINATED NORMALLY****
TOTAL RUN TIME: 0 days 0 hours 0 minutes 21 seconds 982 msec
