                         Program Version 4.2.1 -  RELEASE  -
|  1> ! wB97X-D3 SP def2-SVP
|  2> %pal
|  3> nprocs 24
|  4> end
|  5>
|  6> * xyz 0 1
|  7> S 	 -0.159625 	 -23.1826 	 -114.202
|  8> C 	 -0.333213 	 -24.2247 	 -115.555
|  9> C 	 0.388579 	 -23.7063 	 -116.626
| 10> C 	 0.840592 	 -22.3605 	 -116.326
| 11> C 	 0.346906 	 -21.8441 	 -115.13
| 12> H 	 1.15074 	 -21.604 	 -117.045
| 13> C 	 0.650615 	 -24.1981 	 -118.074
| 14> H 	 1.32945 	 -25.0563 	 -118.043
| 15> H 	 1.19294 	 -23.5018 	 -118.666
| 16> C 	 -0.582907 	 -24.5897 	 -118.757
| 17> H 	 -1.30557 	 -25.0281 	 -118.084
| 18> H 	 -0.998244 	 -23.5441 	 -119.043
| 19> C 	 -0.429931 	 -25.4846 	 -119.997
| 20> H 	 -0.181042 	 -26.4697 	 -119.528
| 21> H 	 -1.37244 	 -25.6877 	 -120.51
| 22> H 	 0.363302 	 -25.0575 	 -120.568
| 23> S 	 -0.300543 	 -19.2549 	 -115.333
| 24> C 	 0.26715 	 -18.1039 	 -114.247
| 25> C 	 1.10337 	 -18.7225 	 -113.284
| 26> C 	 1.28844 	 -20.1156 	 -113.504
| 27> C 	 0.5293 	 -20.5422 	 -114.576
| 28> H 	 1.60512 	 -18.2072 	 -112.542
| 29> C 	 2.20314 	 -20.9754 	 -112.659
| 30> H 	 3.33284 	 -20.9071 	 -112.854
| 31> H 	 2.07123 	 -21.9966 	 -112.801
| 32> C 	 2.06645 	 -20.7807 	 -111.102
| 33> H 	 1.01096 	 -20.7721 	 -110.722
| 34> H 	 2.38181 	 -19.7258 	 -110.908
| 35> C 	 2.94121 	 -21.7392 	 -110.245
| 36> H 	 3.15512 	 -21.2424 	 -109.284
| 37> H 	 3.90931 	 -21.9454 	 -110.68
| 38> H 	 2.32908 	 -22.5866 	 -110.083
| 39> H 	 -0.892214 	 -25.1519 	 -115.543
| 40> H 	 -0.0711157 	 -17.1102 	 -114.411
| 41> *
| 42>
| 43>                          ****END OF INPUT****

CARTESIAN COORDINATES (ANGSTROEM)
---------------------------------
  S     -0.159625  -23.182600  -114.202000
  C     -0.333213  -24.224700  -115.555000
  C      0.388579  -23.706300  -116.626000
  C      0.840592  -22.360500  -116.326000
  C      0.346906  -21.844100  -115.130000
  H      1.150740  -21.604000  -117.045000
  C      0.650615  -24.198100  -118.074000
  H      1.329450  -25.056300  -118.043000
  H      1.192940  -23.501800  -118.666000
  C     -0.582907  -24.589700  -118.757000
  H     -1.305570  -25.028100  -118.084000
  H     -0.998244  -23.544100  -119.043000
  C     -0.429931  -25.484600  -119.997000
  H     -0.181042  -26.469700  -119.528000
  H     -1.372440  -25.687700  -120.510000
  H      0.363302  -25.057500  -120.568000
  S     -0.300543  -19.254900  -115.333000
  C      0.267150  -18.103900  -114.247000
  C      1.103370  -18.722500  -113.284000
  C      1.288440  -20.115600  -113.504000
  C      0.529300  -20.542200  -114.576000
  H      1.605120  -18.207200  -112.542000
  C      2.203140  -20.975400  -112.659000
  H      3.332840  -20.907100  -112.854000
  H      2.071230  -21.996600  -112.801000
  C      2.066450  -20.780700  -111.102000
  H      1.010960  -20.772100  -110.722000
  H      2.381810  -19.725800  -110.908000
  C      2.941210  -21.739200  -110.245000
  H      3.155120  -21.242400  -109.284000
  H      3.909310  -21.945400  -110.680000
  H      2.329080  -22.586600  -110.083000
  H     -0.892214  -25.151900  -115.543000
  H     -0.071116  -17.110200  -114.411000

 Total Charge           Charge          ....    0
 Multiplicity           Mult            ....    1
 Number of Electrons    NEL             ....  134
 Basis Dimension        Dim             ....  322

ORBITAL ENERGIES
----------------

  NO   OCC          E(Eh)            E(eV)
   0   2.0000     -88.965935     -2420.8862
   1   2.0000     -88.962195     -2420.7844
   2   2.0000     -10.321101      -280.8514
   3   2.0000     -10.318789      -280.7885
   4   2.0000     -10.315132      -280.6890
   5   2.0000     -10.315052      -280.6868
   6   2.0000     -10.307529      -280.4821
   7   2.0000     -10.302691      -280.3505
   8   2.0000     -10.292819      -280.0818
   9   2.0000     -10.292543      -280.0743
  10   2.0000     -10.291498      -280.0459
  11   2.0000     -10.291232      -280.0386
  12   2.0000     -10.288010      -279.9510
  13   2.0000     -10.283832      -279.8373
  14   2.0000     -10.281040      -279.7613
  15   2.0000     -10.276255      -279.6311
  16   2.0000      -8.082798      -219.9441
  17   2.0000      -8.078192      -219.8188
  18   2.0000      -6.040985      -164.3835
  19   2.0000      -6.036768      -164.2688
  20   2.0000      -6.036608      -164.2645
  21   2.0000      -6.034019      -164.1940
  22   2.0000      -6.032526      -164.1534
  23   2.0000      -6.028956      -164.0562
  24   2.0000      -1.018132       -27.7048
  25   2.0000      -0.993789       -27.0424
  26   2.0000      -0.920372       -25.0446
  27   2.0000      -0.904395       -24.6098
  28   2.0000      -0.874121       -23.7860
  29   2.0000      -0.853900       -23.2358
  30   2.0000      -0.845312       -23.0021
  31   2.0000      -0.808962       -22.0130
  32   2.0000      -0.785765       -21.3817
  33   2.0000      -0.777490       -21.1566
  34   2.0000      -0.702738       -19.1225
  35   2.0000      -0.697603       -18.9828
  36   2.0000      -0.690127       -18.7793
  37   2.0000      -0.665229       -18.1018
  38   2.0000      -0.646174       -17.5833
  39   2.0000      -0.617535       -16.8040
  40   2.0000      -0.606507       -16.5039
  41   2.0000      -0.581726       -15.8296
  42   2.0000      -0.561233       -15.2719
  43   2.0000      -0.560150       -15.2424
  44   2.0000      -0.528517       -14.3817
  45   2.0000      -0.525618       -14.3028
  46   2.0000      -0.519087       -14.1251
  47   2.0000      -0.515756       -14.0344
  48   2.0000      -0.507555       -13.8113
  49   2.0000      -0.500287       -13.6135
  50   2.0000      -0.491567       -13.3762
  51   2.0000      -0.485776       -13.2186
  52   2.0000      -0.473368       -12.8810
  53   2.0000      -0.471393       -12.8272
  54   2.0000      -0.465100       -12.6560
  55   2.0000      -0.451876       -12.2962
  56   2.0000      -0.441241       -12.0068
  57   2.0000      -0.434917       -11.8347
  58   2.0000      -0.430823       -11.7233
  59   2.0000      -0.425533       -11.5793
  60   2.0000      -0.418081       -11.3766
  61   2.0000      -0.405227       -11.0268
  62   2.0000      -0.401792       -10.9333
  63   2.0000      -0.340441        -9.2639
  64   2.0000      -0.332956        -9.0602
  65   2.0000      -0.324279        -8.8241
  66   2.0000      -0.296080        -8.0567
  67   0.0000       0.036787         1.0010
  68   0.0000       0.060686         1.6514
  69   0.0000       0.102633         2.7928
  70   0.0000       0.130364         3.5474
  71   0.0000       0.132414         3.6032

MULLIKEN ATOMIC CHARGES
-----------------------
   0 S :    0.118059
   1 C :   -0.130131
   2 C :   -0.078397
   3 C :    0.037969
   4 C :   -0.188677
   5 H :    0.018649
   6 C :    0.112238
   7 H :    0.018033
   8 H :    0.013661
   9 C :   -0.136354
  10 H :    0.025603
  11 H :    0.030128
  12 C :   -0.024301
  13 H :    0.030584
  14 H :    0.043402
  15 H :    0.036283
  16 S :    0.130564
  17 C :   -0.094054
  18 C :   -0.002594
  19 C :    0.007492
  20 C :   -0.182372
  21 H :   -0.009650
  22 C :    0.088817
  23 H :    0.043247
  24 H :   -0.006594
  25 C :   -0.160331
  26 H :    0.041417
  27 H :    0.026009
  28 C :   -0.016895
  29 H :    0.033654
  30 H :    0.029382
  31 H :    0.037876
  32 H :    0.052189
  33 H :    0.055095
Sum of atomic charges:    0.0000000

LOEWDIN ATOMIC CHARGES
----------------------
   0 S :    0.441055
   1 C :   -0.208310
   2 C :   -0.052588
   3 C :   -0.069857
   4 C :   -0.211041
   5 H :    0.028568
   6 C :   -0.030082
   7 H :    0.026567
   8 H :    0.024582
   9 C :   -0.051391
  10 H :    0.017515
  11 H :    0.029408
  12 C :   -0.061327
  13 H :    0.030958
  14 H :    0.030113
  15 H :    0.022216
  16 S :    0.468833
  17 C :   -0.203677
  18 C :   -0.056549
  19 C :   -0.055209
  20 C :   -0.219748
  21 H :    0.016133
  22 C :   -0.036129
  23 H :    0.043445
  24 H :    0.009146
  25 C :   -0.046702
  26 H :    0.027930
  27 H :    0.016682
  28 C :   -0.060656
  29 H :    0.032217
  30 H :    0.023543
  31 H :    0.023521
  32 H :    0.029102
  33 H :    0.021733

  Mayer bond orders larger than 0.100000
B(  0-S ,  1-C ) :   1.1557 B(  0-S ,  4-C ) :   1.1652 B(  1-C ,  2-C ) :   1.5826
B(  1-C ,  4-C ) :   0.1050 B(  1-C , 32-H ) :   0.9762 B(  2-C ,  3-C ) :   1.2500
B(  2-C ,  6-C ) :   1.0117 B(  3-C ,  4-C ) :   1.5771 B(  3-C ,  5-H ) :   0.9812
B(  4-C , 20-C ) :   1.0133 B(  6-C ,  7-H ) :   0.9319 B(  6-C ,  8-H ) :   0.9440
B(  6-C ,  9-C ) :   1.0565 B(  9-C , 10-H ) :   0.9666 B(  9-C , 11-H ) :   0.9512
B(  9-C , 12-C ) :   1.0707 B( 12-C , 13-H ) :   0.9740 B( 12-C , 14-H ) :   0.9732
B( 12-C , 15-H ) :   0.9759 B( 16-S , 17-C ) :   1.2025 B( 16-S , 20-C ) :   1.1876
B( 17-C , 18-C ) :   1.5105 B( 17-C , 20-C ) :   0.1070 B( 17-C , 33-H ) :   0.9806
B( 18-C , 19-C ) :   1.2867 B( 18-C , 21-H ) :   1.0067 B( 19-C , 20-C ) :   1.5554
B( 19-C , 22-C ) :   1.0484 B( 22-C , 23-H ) :   0.9291 B( 22-C , 24-H ) :   0.9317
B( 22-C , 25-C ) :   1.0422 B( 25-C , 26-H ) :   0.9621 B( 25-C , 27-H ) :   0.9595
B( 25-C , 28-C ) :   1.0753 B( 28-C , 29-H ) :   0.9748 B( 28-C , 30-H ) :   0.9737
B( 28-C , 31-H ) :   0.9786

Dispersion correction           -0.013537138
FINAL SINGLE POINT ENERGY     -1339.853445499950

DIPOLE MOMENT
-------------
                                X             Y             Z
Electronic contribution:     -8.25583      12.18115       1.97122
Nuclear contribution   :      8.44792     -12.25756      -2.09377
                        -----------------------------------------
Total Dipole Moment    :      0.19209      -0.07640      -0.12255
                        -----------------------------------------
Magnitude (a.u.)       :      0.24032
Magnitude (Debye)      :      0.61086

Rotational constants in cm-1:     0.022894     0.007178     0.005868
Rotational constants in MHz :   686.337330   215.199904   175.912497

                             ****ORCA TERMINATED NORMALLY****
TOTAL RUN TIME: 0 days 0 hours 0 minutes 19 seconds 671 msec
