                         Program Version 4.2.1 -  RELEASE  -
|  1> ! wB97X-D3 SP def2-SVP
|  2> %pal
|  3> nprocs 24
|  4> end
|  5>
|  6> * xyz 0 1
|  7> S 	 -102.307 	 60.5281 	 -104.18
|  8> C 	 -101.802 	 59.1804 	 -103.108
|  9> C 	 -102.891 	 58.4276 	 -102.767
| 10> C 	 -104.124 	 58.9116 	 -103.342
| 11> C 	 -103.999 	 60.0719 	 -104.109
| 12> H 	 -105.071 	 58.3683 	 -103.323
| 13> C 	 -102.839 	 57.1716 	 -101.998
| 14> H 	 -103.776 	 56.9725 	 -101.464
| 15> H 	 -102.22 	 57.2805 	 -101.144
| 16> C 	 -102.461 	 55.9164 	 -102.73
| 17> H 	 -101.588 	 56.1139 	 -103.332
| 18> H 	 -102.163 	 55.1724 	 -101.958
| 19> C 	 -103.479 	 55.4117 	 -103.73
| 20> H 	 -103.687 	 56.2481 	 -104.498
| 21> H 	 -102.934 	 54.5659 	 -104.313
| 22> H 	 -104.419 	 54.9907 	 -103.318
| 23> S 	 -104.666 	 62.3207 	 -105.57
| 24> C 	 -106.326 	 62.8687 	 -105.691
| 25> C 	 -107.148 	 62.0436 	 -104.94
| 26> C 	 -106.424 	 60.9944 	 -104.264
| 27> C 	 -105.103 	 60.9468 	 -104.534
| 28> H 	 -108.196 	 62.3697 	 -104.851
| 29> C 	 -107.227 	 60.1242 	 -103.336
| 30> H 	 -107.836 	 60.7503 	 -102.631
| 31> H 	 -106.592 	 59.7604 	 -102.549
| 32> C 	 -108.145 	 59.11 	 -103.948
| 33> H 	 -107.607 	 58.462 	 -104.646
| 34> H 	 -108.934 	 59.6615 	 -104.44
| 35> C 	 -108.784 	 58.1563 	 -102.964
| 36> H 	 -109.374 	 58.6131 	 -102.251
| 37> H 	 -108.078 	 57.6248 	 -102.451
| 38> H 	 -109.451 	 57.4128 	 -103.53
| 39> H 	 -100.82 	 58.9239 	 -102.702
| 40> H 	 -106.667 	 63.7375 	 -106.149
| 41> *
| 42>
| 43>                          ****END OF INPUT****

CARTESIAN COORDINATES (ANGSTROEM)
---------------------------------
  S    -102.307000   60.528100  -104.180000
  C    -101.802000   59.180400  -103.108000
  C    -102.891000   58.427600  -102.767000
  C    -104.124000   58.911600  -103.342000
  C    -103.999000   60.071900  -104.109000
  H    -105.071000   58.368300  -103.323000
  C    -102.839000   57.171600  -101.998000
  H    -103.776000   56.972500  -101.464000
  H    -102.220000   57.280500  -101.144000
  C    -102.461000   55.916400  -102.730000
  H    -101.588000   56.113900  -103.332000
  H    -102.163000   55.172400  -101.958000
  C    -103.479000   55.411700  -103.730000
  H    -103.687000   56.248100  -104.498000
  H    -102.934000   54.565900  -104.313000
  H    -104.419000   54.990700  -103.318000
  S    -104.666000   62.320700  -105.570000
  C    -106.326000   62.868700  -105.691000
  C    -107.148000   62.043600  -104.940000
  C    -106.424000   60.994400  -104.264000
  C    -105.103000   60.946800  -104.534000
  H    -108.196000   62.369700  -104.851000
  C    -107.227000   60.124200  -103.336000
  H    -107.836000   60.750300  -102.631000
  H    -106.592000   59.760400  -102.549000
  C    -108.145000   59.110000  -103.948000
  H    -107.607000   58.462000  -104.646000
  H    -108.934000   59.661500  -104.440000
  C    -108.784000   58.156300  -102.964000
  H    -109.374000   58.613100  -102.251000
  H    -108.078000   57.624800  -102.451000
  H    -109.451000   57.412800  -103.530000
  H    -100.820000   58.923900  -102.702000
  H    -106.667000   63.737500  -106.149000

 Total Charge           Charge          ....    0
 Multiplicity           Mult            ....    1
 Number of Electrons    NEL             ....  134
 Basis Dimension        Dim             ....  322

ORBITAL ENERGIES
----------------

  NO   OCC          E(Eh)            E(eV)
   0   2.0000     -88.970193     -2421.0020
   1   2.0000     -88.963493     -2420.8197
   2   2.0000     -10.337344      -281.2934
   3   2.0000     -10.332775      -281.1691
   4   2.0000     -10.319445      -280.8064
   5   2.0000     -10.316509      -280.7265
   6   2.0000     -10.304050      -280.3875
   7   2.0000     -10.299816      -280.2722
   8   2.0000     -10.297057      -280.1972
   9   2.0000     -10.296463      -280.1810
  10   2.0000     -10.290421      -280.0166
  11   2.0000     -10.288219      -279.9567
  12   2.0000     -10.285153      -279.8732
  13   2.0000     -10.283751      -279.8351
  14   2.0000     -10.283210      -279.8204
  15   2.0000     -10.270610      -279.4775
  16   2.0000      -8.083868      -219.9732
  17   2.0000      -8.078154      -219.8178
  18   2.0000      -6.042707      -164.4304
  19   2.0000      -6.038483      -164.3155
  20   2.0000      -6.036807      -164.2699
  21   2.0000      -6.034358      -164.2032
  22   2.0000      -6.032717      -164.1586
  23   2.0000      -6.028723      -164.0499
  24   2.0000      -1.006925       -27.3998
  25   2.0000      -0.984200       -26.7815
  26   2.0000      -0.920662       -25.0525
  27   2.0000      -0.916970       -24.9520
  28   2.0000      -0.871779       -23.7223
  29   2.0000      -0.856846       -23.3160
  30   2.0000      -0.841136       -22.8885
  31   2.0000      -0.817655       -22.2495
  32   2.0000      -0.785113       -21.3640
  33   2.0000      -0.779629       -21.2148
  34   2.0000      -0.710489       -19.3334
  35   2.0000      -0.703157       -19.1339
  36   2.0000      -0.694688       -18.9034
  37   2.0000      -0.667413       -18.1612
  38   2.0000      -0.636580       -17.3222
  39   2.0000      -0.619347       -16.8533
  40   2.0000      -0.600613       -16.3435
  41   2.0000      -0.580984       -15.8094
  42   2.0000      -0.573695       -15.6110
  43   2.0000      -0.548339       -14.9211
  44   2.0000      -0.541683       -14.7399
  45   2.0000      -0.533937       -14.5292
  46   2.0000      -0.518288       -14.1033
  47   2.0000      -0.516871       -14.0648
  48   2.0000      -0.508931       -13.8487
  49   2.0000      -0.501975       -13.6594
  50   2.0000      -0.491499       -13.3744
  51   2.0000      -0.482410       -13.1270
  52   2.0000      -0.472674       -12.8621
  53   2.0000      -0.464880       -12.6500
  54   2.0000      -0.463635       -12.6162
  55   2.0000      -0.447451       -12.1757
  56   2.0000      -0.438624       -11.9356
  57   2.0000      -0.434688       -11.8285
  58   2.0000      -0.431286       -11.7359
  59   2.0000      -0.421406       -11.4670
  60   2.0000      -0.420416       -11.4401
  61   2.0000      -0.412390       -11.2217
  62   2.0000      -0.407932       -11.1004
  63   2.0000      -0.364803        -9.9268
  64   2.0000      -0.335309        -9.1242
  65   2.0000      -0.326947        -8.8967
  66   2.0000      -0.288184        -7.8419
  67   0.0000       0.017804         0.4845
  68   0.0000       0.084528         2.3001
  69   0.0000       0.091818         2.4985
  70   0.0000       0.117043         3.1849
  71   0.0000       0.125355         3.4111

MULLIKEN ATOMIC CHARGES
-----------------------
   0 S :    0.099269
   1 C :   -0.108940
   2 C :   -0.087890
   3 C :   -0.029228
   4 C :   -0.081296
   5 H :    0.024385
   6 C :    0.077328
   7 H :    0.009696
   8 H :    0.008654
   9 C :   -0.046725
  10 H :    0.017507
  11 H :    0.034194
  12 C :   -0.111396
  13 H :    0.059791
  14 H :    0.045422
  15 H :    0.040506
  16 S :    0.077784
  17 C :   -0.056721
  18 C :   -0.043197
  19 C :   -0.060407
  20 C :   -0.091949
  21 H :    0.032308
  22 C :    0.021981
  23 H :    0.016287
  24 H :    0.003465
  25 C :   -0.040806
  26 H :    0.029849
  27 H :    0.026373
  28 C :   -0.002950
  29 H :    0.007941
  30 H :    0.003296
  31 H :    0.040568
  32 H :    0.049728
  33 H :    0.035170
Sum of atomic charges:   -0.0000000

LOEWDIN ATOMIC CHARGES
----------------------
   0 S :    0.387435
   1 C :   -0.183777
   2 C :   -0.064435
   3 C :   -0.069633
   4 C :   -0.184089
   5 H :    0.031676
   6 C :   -0.042580
   7 H :    0.031115
   8 H :    0.028086
   9 C :   -0.044577
  10 H :    0.022813
  11 H :    0.028985
  12 C :   -0.079846
  13 H :    0.038438
  14 H :    0.036976
  15 H :    0.022192
  16 S :    0.382569
  17 C :   -0.166404
  18 C :   -0.069814
  19 C :   -0.059161
  20 C :   -0.177236
  21 H :    0.037964
  22 C :   -0.044664
  23 H :    0.035883
  24 H :    0.022701
  25 C :   -0.036070
  26 H :    0.025942
  27 H :    0.024534
  28 C :   -0.051742
  29 H :    0.012277
  30 H :    0.010344
  31 H :    0.038298
  32 H :    0.036897
  33 H :    0.018903

  Mayer bond orders larger than 0.100000
B(  0-S ,  1-C ) :   1.1119 B(  0-S ,  4-C ) :   1.1404 B(  1-C ,  2-C ) :   1.6325
B(  1-C , 32-H ) :   0.9639 B(  2-C ,  3-C ) :   1.2347 B(  2-C ,  6-C ) :   1.0382
B(  3-C ,  4-C ) :   1.5702 B(  3-C ,  5-H ) :   0.9867 B(  4-C , 20-C ) :   1.0669
B(  6-C ,  7-H ) :   0.9324 B(  6-C ,  8-H ) :   0.9265 B(  6-C ,  9-C ) :   1.0800
B(  9-C , 10-H ) :   0.9520 B(  9-C , 11-H ) :   0.9506 B(  9-C , 12-C ) :   1.0791
B( 12-C , 13-H ) :   0.9678 B( 12-C , 14-H ) :   0.9729 B( 12-C , 15-H ) :   0.9748
B( 16-S , 17-C ) :   1.1483 B( 16-S , 20-C ) :   1.1021 B( 17-C , 18-C ) :   1.6334
B( 17-C , 33-H ) :   0.9745 B( 18-C , 19-C ) :   1.2119 B( 18-C , 21-H ) :   0.9875
B( 19-C , 20-C ) :   1.6453 B( 19-C , 22-C ) :   1.0394 B( 22-C , 23-H ) :   0.9238
B( 22-C , 24-H ) :   0.9339 B( 22-C , 25-C ) :   1.0639 B( 25-C , 26-H ) :   0.9546
B( 25-C , 27-H ) :   0.9497 B( 25-C , 28-C ) :   1.0928 B( 28-C , 29-H ) :   0.9711
B( 28-C , 30-H ) :   0.9723 B( 28-C , 31-H ) :   0.9731

Dispersion correction           -0.014315561
FINAL SINGLE POINT ENERGY     -1339.870189683531

DIPOLE MOMENT
-------------
                                X             Y             Z
Electronic contribution:     13.75605      25.90247     -10.51015
Nuclear contribution   :    -14.19594     -26.31155      10.99422
                        -----------------------------------------
Total Dipole Moment    :     -0.43989      -0.40908       0.48407
                        -----------------------------------------
Magnitude (a.u.)       :      0.77148
Magnitude (Debye)      :      1.96094

Rotational constants in cm-1:     0.017068     0.009880     0.006686
Rotational constants in MHz :   511.689725   296.189838   200.428560

                             ****ORCA TERMINATED NORMALLY****
TOTAL RUN TIME: 0 days 0 hours 0 minutes 21 seconds 959 msec
