                         Program Version 4.2.1 -  RELEASE  -
|  1> ! wB97X-D3 SP def2-SVP
|  2> %pal
|  3> nprocs 24
|  4> end
|  5>
|  6> * xyz 0 1
|  7> S 	 -127.04 	 61.3771 	 -56.3336
|  8> C 	 -127.625 	 59.7742 	 -56.8102
|  9> C 	 -128.826 	 59.6075 	 -56.1895
| 10> C 	 -129.326 	 60.7162 	 -55.4617
| 11> C 	 -128.451 	 61.763 	 -55.3594
| 12> H 	 -130.305 	 60.7993 	 -54.9847
| 13> C 	 -129.705 	 58.436 	 -56.4877
| 14> H 	 -130.411 	 58.383 	 -55.5723
| 15> H 	 -129.137 	 57.5169 	 -56.473
| 16> C 	 -130.645 	 58.6414 	 -57.6785
| 17> H 	 -131.176 	 59.6008 	 -57.4476
| 18> H 	 -130.035 	 58.7645 	 -58.6007
| 19> C 	 -131.668 	 57.4768 	 -57.9362
| 20> H 	 -131.901 	 57.2087 	 -56.9655
| 21> H 	 -132.516 	 57.6559 	 -58.6086
| 22> H 	 -131.266 	 56.6673 	 -58.4499
| 23> S 	 -128.731 	 64.5141 	 -55.432
| 24> C 	 -128.245 	 65.4359 	 -54.0028
| 25> C 	 -128.036 	 64.5554 	 -52.9752
| 26> C 	 -128.181 	 63.202 	 -53.2682
| 27> C 	 -128.436 	 63.001 	 -54.5728
| 28> H 	 -127.808 	 65.031 	 -52.0338
| 29> C 	 -127.789 	 62.1205 	 -52.222
| 30> H 	 -126.748 	 62.3317 	 -51.9109
| 31> H 	 -127.683 	 61.158 	 -52.6709
| 32> C 	 -128.766 	 62.1534 	 -50.9722
| 33> H 	 -129.683 	 61.5677 	 -51.2009
| 34> H 	 -129.198 	 63.189 	 -50.7537
| 35> C 	 -128.268 	 61.7513 	 -49.5408
| 36> H 	 -128.968 	 61.6681 	 -48.7141
| 37> H 	 -127.586 	 62.5281 	 -49.1353
| 38> H 	 -127.731 	 60.729 	 -49.56
| 39> H 	 -127.143 	 59.0361 	 -57.4501
| 40> H 	 -128.338 	 66.4991 	 -53.888
| 41> *
| 42>
| 43>                          ****END OF INPUT****

CARTESIAN COORDINATES (ANGSTROEM)
---------------------------------
  S    -127.040000   61.377100  -56.333600
  C    -127.625000   59.774200  -56.810200
  C    -128.826000   59.607500  -56.189500
  C    -129.326000   60.716200  -55.461700
  C    -128.451000   61.763000  -55.359400
  H    -130.305000   60.799300  -54.984700
  C    -129.705000   58.436000  -56.487700
  H    -130.411000   58.383000  -55.572300
  H    -129.137000   57.516900  -56.473000
  C    -130.645000   58.641400  -57.678500
  H    -131.176000   59.600800  -57.447600
  H    -130.035000   58.764500  -58.600700
  C    -131.668000   57.476800  -57.936200
  H    -131.901000   57.208700  -56.965500
  H    -132.516000   57.655900  -58.608600
  H    -131.266000   56.667300  -58.449900
  S    -128.731000   64.514100  -55.432000
  C    -128.245000   65.435900  -54.002800
  C    -128.036000   64.555400  -52.975200
  C    -128.181000   63.202000  -53.268200
  C    -128.436000   63.001000  -54.572800
  H    -127.808000   65.031000  -52.033800
  C    -127.789000   62.120500  -52.222000
  H    -126.748000   62.331700  -51.910900
  H    -127.683000   61.158000  -52.670900
  C    -128.766000   62.153400  -50.972200
  H    -129.683000   61.567700  -51.200900
  H    -129.198000   63.189000  -50.753700
  C    -128.268000   61.751300  -49.540800
  H    -128.968000   61.668100  -48.714100
  H    -127.586000   62.528100  -49.135300
  H    -127.731000   60.729000  -49.560000
  H    -127.143000   59.036100  -57.450100
  H    -128.338000   66.499100  -53.888000

 Total Charge           Charge          ....    0
 Multiplicity           Mult            ....    1
 Number of Electrons    NEL             ....  134
 Basis Dimension        Dim             ....  322

ORBITAL ENERGIES
----------------

  NO   OCC          E(Eh)            E(eV)
   0   2.0000     -88.963770     -2420.8273
   1   2.0000     -88.961144     -2420.7558
   2   2.0000     -10.330308      -281.1020
   3   2.0000     -10.326890      -281.0089
   4   2.0000     -10.317862      -280.7633
   5   2.0000     -10.316255      -280.7196
   6   2.0000     -10.303077      -280.3610
   7   2.0000     -10.301697      -280.3234
   8   2.0000     -10.301625      -280.3215
   9   2.0000     -10.295925      -280.1664
  10   2.0000     -10.294613      -280.1307
  11   2.0000     -10.293569      -280.1023
  12   2.0000     -10.292663      -280.0776
  13   2.0000     -10.289803      -279.9998
  14   2.0000     -10.289135      -279.9816
  15   2.0000     -10.269635      -279.4510
  16   2.0000      -8.078337      -219.8227
  17   2.0000      -8.075616      -219.7487
  18   2.0000      -6.036904      -164.2725
  19   2.0000      -6.034197      -164.1989
  20   2.0000      -6.032907      -164.1637
  21   2.0000      -6.029964      -164.0837
  22   2.0000      -6.028995      -164.0573
  23   2.0000      -6.026465      -163.9885
  24   2.0000      -1.011070       -27.5126
  25   2.0000      -0.989828       -26.9346
  26   2.0000      -0.910826       -24.7848
  27   2.0000      -0.895783       -24.3755
  28   2.0000      -0.870786       -23.6953
  29   2.0000      -0.846683       -23.0394
  30   2.0000      -0.843414       -22.9505
  31   2.0000      -0.821239       -22.3471
  32   2.0000      -0.783430       -21.3182
  33   2.0000      -0.773989       -21.0613
  34   2.0000      -0.708656       -19.2835
  35   2.0000      -0.697569       -18.9818
  36   2.0000      -0.696574       -18.9547
  37   2.0000      -0.662556       -18.0291
  38   2.0000      -0.643886       -17.5210
  39   2.0000      -0.620581       -16.8869
  40   2.0000      -0.598770       -16.2934
  41   2.0000      -0.574893       -15.6436
  42   2.0000      -0.560666       -15.2565
  43   2.0000      -0.546235       -14.8638
  44   2.0000      -0.526131       -14.3168
  45   2.0000      -0.523221       -14.2376
  46   2.0000      -0.518891       -14.1197
  47   2.0000      -0.514107       -13.9896
  48   2.0000      -0.506865       -13.7925
  49   2.0000      -0.505449       -13.7540
  50   2.0000      -0.500921       -13.6308
  51   2.0000      -0.478846       -13.0301
  52   2.0000      -0.471551       -12.8316
  53   2.0000      -0.461615       -12.5612
  54   2.0000      -0.458022       -12.4634
  55   2.0000      -0.449857       -12.2412
  56   2.0000      -0.444609       -12.0984
  57   2.0000      -0.428050       -11.6478
  58   2.0000      -0.426385       -11.6025
  59   2.0000      -0.422191       -11.4884
  60   2.0000      -0.419925       -11.4267
  61   2.0000      -0.412150       -11.2152
  62   2.0000      -0.402957       -10.9650
  63   2.0000      -0.336574        -9.1586
  64   2.0000      -0.333478        -9.0744
  65   2.0000      -0.327764        -8.9189
  66   2.0000      -0.313000        -8.5172
  67   0.0000       0.041233         1.1220
  68   0.0000       0.055822         1.5190
  69   0.0000       0.117642         3.2012
  70   0.0000       0.123608         3.3635
  71   0.0000       0.128816         3.5052

MULLIKEN ATOMIC CHARGES
-----------------------
   0 S :    0.097185
   1 C :   -0.110558
   2 C :   -0.083399
   3 C :    0.039325
   4 C :   -0.165661
   5 H :    0.017127
   6 C :    0.013099
   7 H :    0.024763
   8 H :    0.026914
   9 C :   -0.082639
  10 H :    0.037016
  11 H :    0.028671
  12 C :    0.012242
  13 H :    0.009895
  14 H :    0.035951
  15 H :    0.010208
  16 S :    0.104069
  17 C :   -0.087345
  18 C :   -0.049646
  19 C :    0.034693
  20 C :   -0.205079
  21 H :    0.015536
  22 C :    0.114530
  23 H :    0.036577
  24 H :    0.029728
  25 C :   -0.118736
  26 H :    0.039218
  27 H :    0.042911
  28 C :   -0.090276
  29 H :    0.035705
  30 H :    0.034671
  31 H :    0.042149
  32 H :    0.054852
  33 H :    0.056304
Sum of atomic charges:   -0.0000000

LOEWDIN ATOMIC CHARGES
----------------------
   0 S :    0.395219
   1 C :   -0.185167
   2 C :   -0.075466
   3 C :   -0.066524
   4 C :   -0.188607
   5 H :    0.036316
   6 C :   -0.040109
   7 H :    0.033462
   8 H :    0.024608
   9 C :   -0.038263
  10 H :    0.030146
  11 H :    0.021965
  12 C :   -0.060220
  13 H :    0.014293
  14 H :    0.033125
  15 H :    0.017578
  16 S :    0.389983
  17 C :   -0.171498
  18 C :   -0.069852
  19 C :   -0.054680
  20 C :   -0.197044
  21 H :    0.030781
  22 C :   -0.017581
  23 H :    0.036604
  24 H :    0.028568
  25 C :   -0.052158
  26 H :    0.027381
  27 H :    0.032066
  28 C :   -0.083827
  29 H :    0.026413
  30 H :    0.025765
  31 H :    0.030471
  32 H :    0.036801
  33 H :    0.029449

  Mayer bond orders larger than 0.100000
B(  0-S ,  1-C ) :   1.1304 B(  0-S ,  4-C ) :   1.1591 B(  1-C ,  2-C ) :   1.6057
B(  1-C ,  4-C ) :   0.1002 B(  1-C , 32-H ) :   0.9740 B(  2-C ,  3-C ) :   1.2293
B(  2-C ,  6-C ) :   1.0402 B(  3-C ,  4-C ) :   1.5973 B(  3-C ,  5-H ) :   0.9987
B(  4-C , 20-C ) :   0.9829 B(  6-C ,  7-H ) :   0.9333 B(  6-C ,  8-H ) :   0.9431
B(  6-C ,  9-C ) :   1.0590 B(  9-C , 10-H ) :   0.9548 B(  9-C , 11-H ) :   0.9594
B(  9-C , 12-C ) :   1.0637 B( 12-C , 13-H ) :   0.9762 B( 12-C , 14-H ) :   0.9748
B( 12-C , 15-H ) :   0.9736 B( 16-S , 17-C ) :   1.1363 B( 16-S , 20-C ) :   1.1513
B( 17-C , 18-C ) :   1.6391 B( 17-C , 20-C ) :   0.1006 B( 17-C , 33-H ) :   0.9689
B( 18-C , 19-C ) :   1.2165 B( 18-C , 21-H ) :   0.9881 B( 19-C , 20-C ) :   1.6275
B( 19-C , 22-C ) :   1.0315 B( 22-C , 23-H ) :   0.9516 B( 22-C , 24-H ) :   0.9350
B( 22-C , 25-C ) :   1.0173 B( 25-C , 26-H ) :   0.9576 B( 25-C , 27-H ) :   0.9692
B( 25-C , 28-C ) :   1.0661 B( 28-C , 29-H ) :   0.9760 B( 28-C , 30-H ) :   0.9775
B( 28-C , 31-H ) :   0.9757

Dispersion correction           -0.013653148
FINAL SINGLE POINT ENERGY     -1339.862119708755

DIPOLE MOMENT
-------------
                                X             Y             Z
Electronic contribution:     11.18373      18.61996     -11.74511
Nuclear contribution   :    -11.41128     -18.91017      12.15143
                        -----------------------------------------
Total Dipole Moment    :     -0.22755      -0.29021       0.40632
                        -----------------------------------------
Magnitude (a.u.)       :      0.54872
Magnitude (Debye)      :      1.39473

Rotational constants in cm-1:     0.018713     0.007418     0.006233
Rotational constants in MHz :   560.992605   222.394238   186.856872

                             ****ORCA TERMINATED NORMALLY****
TOTAL RUN TIME: 0 days 0 hours 0 minutes 20 seconds 850 msec
