                         Program Version 4.2.1 -  RELEASE  -
|  1> ! wB97X-D3 SP def2-SVP
|  2> %pal
|  3> nprocs 24
|  4> end
|  5>
|  6> * xyz 0 1
|  7> S 	 38.5118 	 -32.2267 	 -119.684
|  8> C 	 36.8728 	 -32.8494 	 -119.843
|  9> C 	 36.6203 	 -33.7169 	 -118.747
| 10> C 	 37.6556 	 -33.7419 	 -117.782
| 11> C 	 38.7756 	 -33.0786 	 -118.147
| 12> H 	 37.6535 	 -34.3011 	 -116.945
| 13> C 	 35.2702 	 -34.4174 	 -118.546
| 14> H 	 34.6136 	 -33.7285 	 -118.04
| 15> H 	 35.4665 	 -35.2611 	 -117.804
| 16> C 	 34.6225 	 -34.9679 	 -119.771
| 17> H 	 33.7769 	 -35.5747 	 -119.447
| 18> H 	 34.3178 	 -34.1902 	 -120.428
| 19> C 	 35.5274 	 -35.8529 	 -120.624
| 20> H 	 36.3845 	 -35.3193 	 -120.88
| 21> H 	 35.7935 	 -36.8229 	 -120.126
| 22> H 	 35.0943 	 -36.1183 	 -121.631
| 23> S 	 41.2119 	 -32.0676 	 -118.201
| 24> C 	 42.3649 	 -32.4584 	 -116.914
| 25> C 	 41.7658 	 -33.0956 	 -115.835
| 26> C 	 40.3486 	 -33.3713 	 -116.082
| 27> C 	 39.969 	 -32.9538 	 -117.354
| 28> H 	 42.3505 	 -33.3858 	 -114.97
| 29> C 	 39.5838 	 -34.1712 	 -115.043
| 30> H 	 38.5376 	 -33.8118 	 -115.044
| 31> H 	 40.1027 	 -33.8641 	 -114.17
| 32> C 	 39.6693 	 -35.6357 	 -115.205
| 33> H 	 39.3666 	 -35.8772 	 -116.193
| 34> H 	 39.0674 	 -36.115 	 -114.438
| 35> C 	 41.0416 	 -36.3872 	 -115.087
| 36> H 	 41.5942 	 -36.345 	 -116.022
| 37> H 	 40.8665 	 -37.4506 	 -114.961
| 38> H 	 41.6379 	 -36.1042 	 -114.152
| 39> H 	 36.1595 	 -32.5221 	 -120.623
| 40> H 	 43.3851 	 -32.2414 	 -117.041
| 41> *
| 42>
| 43>                          ****END OF INPUT****

CARTESIAN COORDINATES (ANGSTROEM)
---------------------------------
  S     38.511800  -32.226700  -119.684000
  C     36.872800  -32.849400  -119.843000
  C     36.620300  -33.716900  -118.747000
  C     37.655600  -33.741900  -117.782000
  C     38.775600  -33.078600  -118.147000
  H     37.653500  -34.301100  -116.945000
  C     35.270200  -34.417400  -118.546000
  H     34.613600  -33.728500  -118.040000
  H     35.466500  -35.261100  -117.804000
  C     34.622500  -34.967900  -119.771000
  H     33.776900  -35.574700  -119.447000
  H     34.317800  -34.190200  -120.428000
  C     35.527400  -35.852900  -120.624000
  H     36.384500  -35.319300  -120.880000
  H     35.793500  -36.822900  -120.126000
  H     35.094300  -36.118300  -121.631000
  S     41.211900  -32.067600  -118.201000
  C     42.364900  -32.458400  -116.914000
  C     41.765800  -33.095600  -115.835000
  C     40.348600  -33.371300  -116.082000
  C     39.969000  -32.953800  -117.354000
  H     42.350500  -33.385800  -114.970000
  C     39.583800  -34.171200  -115.043000
  H     38.537600  -33.811800  -115.044000
  H     40.102700  -33.864100  -114.170000
  C     39.669300  -35.635700  -115.205000
  H     39.366600  -35.877200  -116.193000
  H     39.067400  -36.115000  -114.438000
  C     41.041600  -36.387200  -115.087000
  H     41.594200  -36.345000  -116.022000
  H     40.866500  -37.450600  -114.961000
  H     41.637900  -36.104200  -114.152000
  H     36.159500  -32.522100  -120.623000
  H     43.385100  -32.241400  -117.041000

 Total Charge           Charge          ....    0
 Multiplicity           Mult            ....    1
 Number of Electrons    NEL             ....  134
 Basis Dimension        Dim             ....  322

ORBITAL ENERGIES
----------------

  NO   OCC          E(Eh)            E(eV)
   0   2.0000     -88.966666     -2420.9061
   1   2.0000     -88.963013     -2420.8067
   2   2.0000     -10.328266      -281.0464
   3   2.0000     -10.327665      -281.0301
   4   2.0000     -10.320143      -280.8254
   5   2.0000     -10.317175      -280.7446
   6   2.0000     -10.307751      -280.4882
   7   2.0000     -10.304348      -280.3956
   8   2.0000     -10.300247      -280.2840
   9   2.0000     -10.293228      -280.0930
  10   2.0000     -10.291924      -280.0575
  11   2.0000     -10.284955      -279.8678
  12   2.0000     -10.284631      -279.8590
  13   2.0000     -10.281717      -279.7797
  14   2.0000     -10.280555      -279.7481
  15   2.0000     -10.271574      -279.5037
  16   2.0000      -8.080646      -219.8855
  17   2.0000      -8.078127      -219.8170
  18   2.0000      -6.039345      -164.3389
  19   2.0000      -6.036692      -164.2667
  20   2.0000      -6.035240      -164.2272
  21   2.0000      -6.032726      -164.1588
  22   2.0000      -6.031264      -164.1190
  23   2.0000      -6.028677      -164.0486
  24   2.0000      -1.007927       -27.4271
  25   2.0000      -0.979871       -26.6636
  26   2.0000      -0.919729       -25.0271
  27   2.0000      -0.914740       -24.8913
  28   2.0000      -0.869668       -23.6649
  29   2.0000      -0.855182       -23.2707
  30   2.0000      -0.842496       -22.9255
  31   2.0000      -0.813111       -22.1259
  32   2.0000      -0.787090       -21.4178
  33   2.0000      -0.774126       -21.0650
  34   2.0000      -0.710027       -19.3208
  35   2.0000      -0.701021       -19.0758
  36   2.0000      -0.689830       -18.7712
  37   2.0000      -0.672716       -18.3055
  38   2.0000      -0.643027       -17.4977
  39   2.0000      -0.614844       -16.7308
  40   2.0000      -0.595856       -16.2141
  41   2.0000      -0.577847       -15.7240
  42   2.0000      -0.566330       -15.4106
  43   2.0000      -0.555919       -15.1273
  44   2.0000      -0.549952       -14.9649
  45   2.0000      -0.537265       -14.6197
  46   2.0000      -0.516268       -14.0484
  47   2.0000      -0.512971       -13.9587
  48   2.0000      -0.503792       -13.7089
  49   2.0000      -0.501263       -13.6401
  50   2.0000      -0.487148       -13.2560
  51   2.0000      -0.480054       -13.0629
  52   2.0000      -0.472890       -12.8680
  53   2.0000      -0.464269       -12.6334
  54   2.0000      -0.456595       -12.4246
  55   2.0000      -0.454055       -12.3555
  56   2.0000      -0.447447       -12.1756
  57   2.0000      -0.440083       -11.9753
  58   2.0000      -0.436656       -11.8820
  59   2.0000      -0.421378       -11.4663
  60   2.0000      -0.417373       -11.3573
  61   2.0000      -0.410528       -11.1710
  62   2.0000      -0.407146       -11.0790
  63   2.0000      -0.363883        -9.9018
  64   2.0000      -0.338042        -9.1986
  65   2.0000      -0.324934        -8.8419
  66   2.0000      -0.278016        -7.5652
  67   0.0000       0.016356         0.4451
  68   0.0000       0.080281         2.1845
  69   0.0000       0.090488         2.4623
  70   0.0000       0.117656         3.2016
  71   0.0000       0.135094         3.6761

MULLIKEN ATOMIC CHARGES
-----------------------
   0 S :    0.095919
   1 C :   -0.141659
   2 C :   -0.100167
   3 C :    0.008568
   4 C :   -0.048488
   5 H :   -0.057655
   6 C :    0.066067
   7 H :    0.044267
   8 H :    0.025023
   9 C :   -0.050883
  10 H :    0.032775
  11 H :    0.018571
  12 C :   -0.064127
  13 H :    0.025786
  14 H :    0.033237
  15 H :    0.030889
  16 S :    0.076808
  17 C :   -0.070525
  18 C :   -0.025925
  19 C :   -0.112684
  20 C :   -0.116686
  21 H :    0.025347
  22 C :    0.099328
  23 H :    0.041549
  24 H :    0.007431
  25 C :   -0.042143
  26 H :    0.023007
  27 H :    0.034074
  28 C :   -0.085403
  29 H :    0.047257
  30 H :    0.029271
  31 H :    0.036971
  32 H :    0.072020
  33 H :    0.042178
Sum of atomic charges:   -0.0000000

LOEWDIN ATOMIC CHARGES
----------------------
   0 S :    0.384341
   1 C :   -0.207587
   2 C :   -0.053914
   3 C :   -0.062164
   4 C :   -0.174125
   5 H :    0.009609
   6 C :   -0.034132
   7 H :    0.033876
   8 H :    0.034115
   9 C :   -0.043494
  10 H :    0.029437
  11 H :    0.018970
  12 C :   -0.066545
  13 H :    0.013364
  14 H :    0.027279
  15 H :    0.030128
  16 S :    0.388777
  17 C :   -0.164647
  18 C :   -0.064025
  19 C :   -0.054566
  20 C :   -0.186084
  21 H :    0.033918
  22 C :   -0.032407
  23 H :    0.036461
  24 H :    0.027827
  25 C :   -0.038491
  26 H :    0.022125
  27 H :    0.027099
  28 C :   -0.072112
  29 H :    0.027180
  30 H :    0.026819
  31 H :    0.028626
  32 H :    0.037405
  33 H :    0.016937

  Mayer bond orders larger than 0.100000
B(  0-S ,  1-C ) :   1.1265 B(  0-S ,  4-C ) :   1.1277 B(  1-C ,  2-C ) :   1.5735
B(  1-C , 32-H ) :   0.9691 B(  2-C ,  3-C ) :   1.2609 B(  2-C ,  6-C ) :   1.0079
B(  3-C ,  4-C ) :   1.5705 B(  3-C ,  5-H ) :   1.0119 B(  4-C , 20-C ) :   1.1077
B(  6-C ,  7-H ) :   0.9353 B(  6-C ,  8-H ) :   0.9424 B(  6-C ,  9-C ) :   1.0871
B(  9-C , 10-H ) :   0.9534 B(  9-C , 11-H ) :   0.9467 B(  9-C , 12-C ) :   1.0892
B( 12-C , 13-H ) :   0.9696 B( 12-C , 14-H ) :   0.9752 B( 12-C , 15-H ) :   0.9734
B( 16-S , 17-C ) :   1.1419 B( 16-S , 20-C ) :   1.1233 B( 17-C , 18-C ) :   1.6297
B( 17-C , 33-H ) :   0.9762 B( 18-C , 19-C ) :   1.2129 B( 18-C , 21-H ) :   0.9859
B( 19-C , 20-C ) :   1.6044 B( 19-C , 22-C ) :   1.0323 B( 22-C , 23-H ) :   0.9297
B( 22-C , 24-H ) :   0.9196 B( 22-C , 25-C ) :   1.0869 B( 25-C , 26-H ) :   0.9479
B( 25-C , 27-H ) :   0.9572 B( 25-C , 28-C ) :   1.0842 B( 28-C , 29-H ) :   0.9737
B( 28-C , 30-H ) :   0.9727 B( 28-C , 31-H ) :   0.9729

Dispersion correction           -0.014702595
FINAL SINGLE POINT ENERGY     -1339.869146290487

DIPOLE MOMENT
-------------
                                X             Y             Z
Electronic contribution:     12.53473      21.87533      -7.63806
Nuclear contribution   :    -12.77132     -22.35430       8.09820
                        -----------------------------------------
Total Dipole Moment    :     -0.23659      -0.47897       0.46015
                        -----------------------------------------
Magnitude (a.u.)       :      0.70507
Magnitude (Debye)      :      1.79213

Rotational constants in cm-1:     0.020796     0.008783     0.006706
Rotational constants in MHz :   623.454998   263.294044   201.054858

                             ****ORCA TERMINATED NORMALLY****
TOTAL RUN TIME: 0 days 0 hours 0 minutes 20 seconds 954 msec
