                         Program Version 4.2.1 -  RELEASE  -
|  1> ! wB97X-D3 SP def2-SVP
|  2> %pal
|  3> nprocs 24
|  4> end
|  5>
|  6> * xyz 0 1
|  7> S 	 -54.0555 	 19.8521 	 28.2548
|  8> C 	 -52.9815 	 19.7442 	 26.8664
|  9> C 	 -51.7444 	 19.0507 	 27.185
| 10> C 	 -51.8446 	 18.5986 	 28.5433
| 11> C 	 -53.0702 	 18.6942 	 29.141
| 12> H 	 -51.0732 	 17.9675 	 29.0489
| 13> C 	 -50.6088 	 19.0349 	 26.2095
| 14> H 	 -49.7425 	 19.1303 	 26.7976
| 15> H 	 -50.6891 	 19.8363 	 25.5317
| 16> C 	 -50.4945 	 17.7134 	 25.3399
| 17> H 	 -51.4674 	 17.6797 	 24.8719
| 18> H 	 -49.7844 	 17.7478 	 24.5029
| 19> C 	 -50.1865 	 16.3451 	 26.0523
| 20> H 	 -50.9739 	 15.8461 	 26.6278
| 21> H 	 -49.8397 	 15.6185 	 25.3512
| 22> H 	 -49.4206 	 16.5175 	 26.823
| 23> S 	 -53.3791 	 19.3255 	 31.8075
| 24> C 	 -53.7824 	 18.1098 	 32.9752
| 25> C 	 -54.0989 	 16.9114 	 32.3095
| 26> C 	 -53.8356 	 16.9007 	 30.903
| 27> C 	 -53.4122 	 18.1778 	 30.4365
| 28> H 	 -54.6944 	 16.1513 	 32.7945
| 29> C 	 -54.226 	 15.7577 	 29.9587
| 30> H 	 -55.106 	 16.104 	 29.4542
| 31> H 	 -54.6346 	 14.9609 	 30.6222
| 32> C 	 -53.1561 	 15.2317 	 28.9917
| 33> H 	 -52.4094 	 14.5672 	 29.3849
| 34> H 	 -52.7623 	 16.1169 	 28.5194
| 35> C 	 -53.7487 	 14.3934 	 27.8989
| 36> H 	 -54.7693 	 14.6758 	 27.7373
| 37> H 	 -53.844 	 13.3174 	 28.0914
| 38> H 	 -53.2388 	 14.4737 	 26.867
| 39> H 	 -53.2175 	 20.1533 	 25.959
| 40> H 	 -53.7724 	 18.2598 	 34.0141
| 41> *
| 42>
| 43>                          ****END OF INPUT****

CARTESIAN COORDINATES (ANGSTROEM)
---------------------------------
  S    -54.055500   19.852100   28.254800
  C    -52.981500   19.744200   26.866400
  C    -51.744400   19.050700   27.185000
  C    -51.844600   18.598600   28.543300
  C    -53.070200   18.694200   29.141000
  H    -51.073200   17.967500   29.048900
  C    -50.608800   19.034900   26.209500
  H    -49.742500   19.130300   26.797600
  H    -50.689100   19.836300   25.531700
  C    -50.494500   17.713400   25.339900
  H    -51.467400   17.679700   24.871900
  H    -49.784400   17.747800   24.502900
  C    -50.186500   16.345100   26.052300
  H    -50.973900   15.846100   26.627800
  H    -49.839700   15.618500   25.351200
  H    -49.420600   16.517500   26.823000
  S    -53.379100   19.325500   31.807500
  C    -53.782400   18.109800   32.975200
  C    -54.098900   16.911400   32.309500
  C    -53.835600   16.900700   30.903000
  C    -53.412200   18.177800   30.436500
  H    -54.694400   16.151300   32.794500
  C    -54.226000   15.757700   29.958700
  H    -55.106000   16.104000   29.454200
  H    -54.634600   14.960900   30.622200
  C    -53.156100   15.231700   28.991700
  H    -52.409400   14.567200   29.384900
  H    -52.762300   16.116900   28.519400
  C    -53.748700   14.393400   27.898900
  H    -54.769300   14.675800   27.737300
  H    -53.844000   13.317400   28.091400
  H    -53.238800   14.473700   26.867000
  H    -53.217500   20.153300   25.959000
  H    -53.772400   18.259800   34.014100

 Total Charge           Charge          ....    0
 Multiplicity           Mult            ....    1
 Number of Electrons    NEL             ....  134
 Basis Dimension        Dim             ....  322

ORBITAL ENERGIES
----------------

  NO   OCC          E(Eh)            E(eV)
   0   2.0000     -88.968433     -2420.9542
   1   2.0000     -88.964722     -2420.8532
   2   2.0000     -10.328449      -281.0514
   3   2.0000     -10.327194      -281.0172
   4   2.0000     -10.318052      -280.7685
   5   2.0000     -10.316790      -280.7341
   6   2.0000     -10.311191      -280.5818
   7   2.0000     -10.309304      -280.5304
   8   2.0000     -10.299798      -280.2718
   9   2.0000     -10.295702      -280.1603
  10   2.0000     -10.293372      -280.0969
  11   2.0000     -10.292999      -280.0867
  12   2.0000     -10.292681      -280.0781
  13   2.0000     -10.279681      -279.7244
  14   2.0000     -10.278722      -279.6982
  15   2.0000     -10.274073      -279.5717
  16   2.0000      -8.082800      -219.9442
  17   2.0000      -8.079168      -219.8453
  18   2.0000      -6.041170      -164.3886
  19   2.0000      -6.037620      -164.2920
  20   2.0000      -6.037405      -164.2861
  21   2.0000      -6.033682      -164.1848
  22   2.0000      -6.033529      -164.1807
  23   2.0000      -6.030196      -164.0900
  24   2.0000      -1.002267       -27.2731
  25   2.0000      -0.977884       -26.6096
  26   2.0000      -0.909721       -24.7548
  27   2.0000      -0.908015       -24.7084
  28   2.0000      -0.865786       -23.5592
  29   2.0000      -0.851482       -23.1700
  30   2.0000      -0.845002       -22.9937
  31   2.0000      -0.814608       -22.1666
  32   2.0000      -0.783379       -21.3168
  33   2.0000      -0.768596       -20.9146
  34   2.0000      -0.708353       -19.2753
  35   2.0000      -0.707214       -19.2443
  36   2.0000      -0.693244       -18.8641
  37   2.0000      -0.661442       -17.9987
  38   2.0000      -0.646171       -17.5832
  39   2.0000      -0.614448       -16.7200
  40   2.0000      -0.592826       -16.1316
  41   2.0000      -0.571350       -15.5472
  42   2.0000      -0.568231       -15.4624
  43   2.0000      -0.550196       -14.9716
  44   2.0000      -0.541959       -14.7475
  45   2.0000      -0.523247       -14.2383
  46   2.0000      -0.517800       -14.0901
  47   2.0000      -0.512582       -13.9481
  48   2.0000      -0.507043       -13.7974
  49   2.0000      -0.503051       -13.6887
  50   2.0000      -0.496588       -13.5128
  51   2.0000      -0.479035       -13.0352
  52   2.0000      -0.464524       -12.6403
  53   2.0000      -0.461113       -12.5475
  54   2.0000      -0.456110       -12.4114
  55   2.0000      -0.444106       -12.0848
  56   2.0000      -0.440521       -11.9872
  57   2.0000      -0.437638       -11.9087
  58   2.0000      -0.434269       -11.8171
  59   2.0000      -0.428530       -11.6609
  60   2.0000      -0.420673       -11.4471
  61   2.0000      -0.415654       -11.3105
  62   2.0000      -0.410154       -11.1609
  63   2.0000      -0.336521        -9.1572
  64   2.0000      -0.327805        -8.9200
  65   2.0000      -0.322661        -8.7801
  66   2.0000      -0.295992        -8.0543
  67   0.0000       0.033552         0.9130
  68   0.0000       0.041946         1.1414
  69   0.0000       0.106494         2.8979
  70   0.0000       0.113124         3.0783
  71   0.0000       0.131159         3.5690

MULLIKEN ATOMIC CHARGES
-----------------------
   0 S :    0.120067
   1 C :   -0.089318
   2 C :   -0.121852
   3 C :    0.059202
   4 C :   -0.194047
   5 H :    0.036988
   6 C :    0.131460
   7 H :    0.018034
   8 H :    0.016677
   9 C :   -0.078739
  10 H :    0.020410
  11 H :    0.035240
  12 C :   -0.064023
  13 H :    0.034821
  14 H :    0.033542
  15 H :    0.024676
  16 S :    0.109337
  17 C :   -0.080206
  18 C :   -0.046715
  19 C :   -0.021267
  20 C :   -0.196807
  21 H :    0.023527
  22 C :    0.067086
  23 H :    0.037035
  24 H :    0.013370
  25 C :   -0.035427
  26 H :    0.034467
  27 H :    0.047590
  28 C :   -0.087315
  29 H :    0.009585
  30 H :    0.029431
  31 H :    0.045142
  32 H :    0.018166
  33 H :    0.049863
Sum of atomic charges:    0.0000000

LOEWDIN ATOMIC CHARGES
----------------------
   0 S :    0.404207
   1 C :   -0.175613
   2 C :   -0.055150
   3 C :   -0.057566
   4 C :   -0.211078
   5 H :    0.039043
   6 C :   -0.019278
   7 H :    0.025935
   8 H :    0.029286
   9 C :   -0.037574
  10 H :    0.020514
  11 H :    0.026271
  12 C :   -0.072121
  13 H :    0.025842
  14 H :    0.025078
  15 H :    0.025134
  16 S :    0.407372
  17 C :   -0.182389
  18 C :   -0.078074
  19 C :   -0.047402
  20 C :   -0.198971
  21 H :    0.030216
  22 C :   -0.027972
  23 H :    0.033810
  24 H :    0.030227
  25 C :   -0.041978
  26 H :    0.028534
  27 H :    0.027434
  28 C :   -0.073885
  29 H :    0.016708
  30 H :    0.022523
  31 H :    0.034647
  32 H :    0.004513
  33 H :    0.021758

  Mayer bond orders larger than 0.100000
B(  0-S ,  1-C ) :   1.1649 B(  0-S ,  4-C ) :   1.1404 B(  1-C ,  2-C ) :   1.5572
B(  1-C ,  4-C ) :   0.1105 B(  1-C , 32-H ) :   0.9808 B(  2-C ,  3-C ) :   1.2592
B(  2-C ,  6-C ) :   1.0316 B(  3-C ,  4-C ) :   1.5718 B(  3-C ,  5-H ) :   0.9762
B(  4-C , 20-C ) :   1.0549 B(  6-C ,  7-H ) :   0.9393 B(  6-C ,  8-H ) :   0.9376
B(  6-C ,  9-C ) :   1.0599 B(  9-C , 10-H ) :   0.9562 B(  9-C , 11-H ) :   0.9627
B(  9-C , 12-C ) :   1.0654 B( 12-C , 13-H ) :   0.9749 B( 12-C , 14-H ) :   0.9756
B( 12-C , 15-H ) :   0.9751 B( 16-S , 17-C ) :   1.1800 B( 16-S , 20-C ) :   1.1536
B( 17-C , 18-C ) :   1.5597 B( 17-C , 20-C ) :   0.1168 B( 17-C , 33-H ) :   0.9758
B( 18-C , 19-C ) :   1.2928 B( 18-C , 21-H ) :   0.9823 B( 19-C , 20-C ) :   1.5527
B( 19-C , 22-C ) :   1.0325 B( 22-C , 23-H ) :   0.9324 B( 22-C , 24-H ) :   0.9304
B( 22-C , 25-C ) :   1.0725 B( 25-C , 26-H ) :   0.9556 B( 25-C , 27-H ) :   0.9491
B( 25-C , 28-C ) :   1.0775 B( 28-C , 29-H ) :   0.9721 B( 28-C , 30-H ) :   0.9755
B( 28-C , 31-H ) :   0.9718

Dispersion correction           -0.015608423
FINAL SINGLE POINT ENERGY     -1339.852404584850

DIPOLE MOMENT
-------------
                                X             Y             Z
Electronic contribution:    -10.01970      22.28942      18.17006
Nuclear contribution   :     10.18329     -22.66940     -18.46799
                        -----------------------------------------
Total Dipole Moment    :      0.16360      -0.37998      -0.29793
                        -----------------------------------------
Magnitude (a.u.)       :      0.50981
Magnitude (Debye)      :      1.29584

Rotational constants in cm-1:     0.018556     0.009785     0.007539
Rotational constants in MHz :   556.306089   293.357419   226.025163

                             ****ORCA TERMINATED NORMALLY****
TOTAL RUN TIME: 0 days 0 hours 0 minutes 21 seconds 662 msec
