                         Program Version 4.2.1 -  RELEASE  -
|  1> ! wB97X-D3 SP def2-SVP
|  2> %pal
|  3> nprocs 24
|  4> end
|  5>
|  6> * xyz 0 1
|  7> S 	 -52.4319 	 -49.5333 	 -74.0874
|  8> C 	 -53.0838 	 -48.1965 	 -74.9872
|  9> C 	 -52.1101 	 -47.3993 	 -75.4486
| 10> C 	 -50.8144 	 -47.9729 	 -75.176
| 11> C 	 -50.7744 	 -49.068 	 -74.3732
| 12> H 	 -49.8575 	 -47.4251 	 -75.4097
| 13> C 	 -52.4302 	 -46.1211 	 -76.2214
| 14> H 	 -51.4919 	 -45.5178 	 -76.3159
| 15> H 	 -53.0107 	 -45.496 	 -75.5632
| 16> C 	 -53.2336 	 -46.1809 	 -77.5216
| 17> H 	 -54.1849 	 -46.7031 	 -77.3508
| 18> H 	 -53.683 	 -45.1921 	 -77.6961
| 19> C 	 -52.4042 	 -46.6477 	 -78.6623
| 20> H 	 -53.0771 	 -46.8155 	 -79.5244
| 21> H 	 -51.6761 	 -45.8548 	 -78.7619
| 22> H 	 -51.9555 	 -47.5933 	 -78.4375
| 23> S 	 -49.5414 	 -51.4734 	 -75.0641
| 24> C 	 -47.8674 	 -51.7763 	 -74.687
| 25> C 	 -47.448 	 -50.8087 	 -73.8064
| 26> C 	 -48.4521 	 -49.8836 	 -73.387
| 27> C 	 -49.649 	 -50.0308 	 -74.1126
| 28> H 	 -46.4062 	 -50.7324 	 -73.428
| 29> C 	 -48.1215 	 -48.799 	 -72.4041
| 30> H 	 -48.2446 	 -47.7802 	 -72.8309
| 31> H 	 -47.058 	 -48.8841 	 -72.1173
| 32> C 	 -49.109 	 -48.7169 	 -71.1879
| 33> H 	 -49.1465 	 -49.6368 	 -70.6337
| 34> H 	 -50.136 	 -48.5564 	 -71.6017
| 35> C 	 -48.7404 	 -47.6366 	 -70.0939
| 36> H 	 -48.9782 	 -46.6586 	 -70.4916
| 37> H 	 -47.7163 	 -47.5879 	 -69.8496
| 38> H 	 -49.3715 	 -47.8446 	 -69.1866
| 39> H 	 -54.0834 	 -47.9161 	 -75.079
| 40> H 	 -47.2897 	 -52.5984 	 -75.1646
| 41> *
| 42>
| 43>                          ****END OF INPUT****

CARTESIAN COORDINATES (ANGSTROEM)
---------------------------------
  S    -52.431900  -49.533300  -74.087400
  C    -53.083800  -48.196500  -74.987200
  C    -52.110100  -47.399300  -75.448600
  C    -50.814400  -47.972900  -75.176000
  C    -50.774400  -49.068000  -74.373200
  H    -49.857500  -47.425100  -75.409700
  C    -52.430200  -46.121100  -76.221400
  H    -51.491900  -45.517800  -76.315900
  H    -53.010700  -45.496000  -75.563200
  C    -53.233600  -46.180900  -77.521600
  H    -54.184900  -46.703100  -77.350800
  H    -53.683000  -45.192100  -77.696100
  C    -52.404200  -46.647700  -78.662300
  H    -53.077100  -46.815500  -79.524400
  H    -51.676100  -45.854800  -78.761900
  H    -51.955500  -47.593300  -78.437500
  S    -49.541400  -51.473400  -75.064100
  C    -47.867400  -51.776300  -74.687000
  C    -47.448000  -50.808700  -73.806400
  C    -48.452100  -49.883600  -73.387000
  C    -49.649000  -50.030800  -74.112600
  H    -46.406200  -50.732400  -73.428000
  C    -48.121500  -48.799000  -72.404100
  H    -48.244600  -47.780200  -72.830900
  H    -47.058000  -48.884100  -72.117300
  C    -49.109000  -48.716900  -71.187900
  H    -49.146500  -49.636800  -70.633700
  H    -50.136000  -48.556400  -71.601700
  C    -48.740400  -47.636600  -70.093900
  H    -48.978200  -46.658600  -70.491600
  H    -47.716300  -47.587900  -69.849600
  H    -49.371500  -47.844600  -69.186600
  H    -54.083400  -47.916100  -75.079000
  H    -47.289700  -52.598400  -75.164600

 Total Charge           Charge          ....    0
 Multiplicity           Mult            ....    1
 Number of Electrons    NEL             ....  134
 Basis Dimension        Dim             ....  322

ORBITAL ENERGIES
----------------

  NO   OCC          E(Eh)            E(eV)
   0   2.0000     -88.963825     -2420.8287
   1   2.0000     -88.962268     -2420.7864
   2   2.0000     -10.332673      -281.1663
   3   2.0000     -10.331379      -281.1311
   4   2.0000     -10.322325      -280.8847
   5   2.0000     -10.305817      -280.4355
   6   2.0000     -10.304862      -280.4096
   7   2.0000     -10.298850      -280.2459
   8   2.0000     -10.298010      -280.2231
   9   2.0000     -10.296819      -280.1907
  10   2.0000     -10.294541      -280.1287
  11   2.0000     -10.294322      -280.1227
  12   2.0000     -10.286621      -279.9132
  13   2.0000     -10.286064      -279.8980
  14   2.0000     -10.276932      -279.6495
  15   2.0000     -10.273146      -279.5465
  16   2.0000      -8.079083      -219.8430
  17   2.0000      -8.077513      -219.8003
  18   2.0000      -6.037547      -164.2900
  19   2.0000      -6.036065      -164.2497
  20   2.0000      -6.033281      -164.1739
  21   2.0000      -6.031816      -164.1341
  22   2.0000      -6.030059      -164.0862
  23   2.0000      -6.028311      -164.0387
  24   2.0000      -1.010146       -27.4875
  25   2.0000      -0.990744       -26.9595
  26   2.0000      -0.917368       -24.9629
  27   2.0000      -0.900110       -24.4932
  28   2.0000      -0.872136       -23.7320
  29   2.0000      -0.845504       -23.0073
  30   2.0000      -0.843988       -22.9661
  31   2.0000      -0.819230       -22.2924
  32   2.0000      -0.783034       -21.3074
  33   2.0000      -0.771280       -20.9876
  34   2.0000      -0.705855       -19.2073
  35   2.0000      -0.703222       -19.1357
  36   2.0000      -0.688050       -18.7228
  37   2.0000      -0.659312       -17.9408
  38   2.0000      -0.641350       -17.4520
  39   2.0000      -0.613161       -16.6850
  40   2.0000      -0.596531       -16.2324
  41   2.0000      -0.578245       -15.7348
  42   2.0000      -0.556969       -15.1559
  43   2.0000      -0.554661       -15.0931
  44   2.0000      -0.545680       -14.8487
  45   2.0000      -0.520769       -14.1708
  46   2.0000      -0.514107       -13.9896
  47   2.0000      -0.509884       -13.8747
  48   2.0000      -0.505613       -13.7584
  49   2.0000      -0.501436       -13.6448
  50   2.0000      -0.493892       -13.4395
  51   2.0000      -0.484123       -13.1737
  52   2.0000      -0.469361       -12.7720
  53   2.0000      -0.468906       -12.7596
  54   2.0000      -0.455732       -12.4011
  55   2.0000      -0.443694       -12.0735
  56   2.0000      -0.439870       -11.9695
  57   2.0000      -0.433229       -11.7887
  58   2.0000      -0.429206       -11.6793
  59   2.0000      -0.427955       -11.6453
  60   2.0000      -0.417190       -11.3523
  61   2.0000      -0.414241       -11.2721
  62   2.0000      -0.409185       -11.1345
  63   2.0000      -0.342978        -9.3329
  64   2.0000      -0.327792        -8.9197
  65   2.0000      -0.325927        -8.8689
  66   2.0000      -0.307197        -8.3593
  67   0.0000       0.039637         1.0786
  68   0.0000       0.056225         1.5299
  69   0.0000       0.118492         3.2243
  70   0.0000       0.128862         3.5065
  71   0.0000       0.131645         3.5823

MULLIKEN ATOMIC CHARGES
-----------------------
   0 S :    0.098806
   1 C :   -0.092676
   2 C :   -0.092861
   3 C :    0.031877
   4 C :   -0.169135
   5 H :    0.029918
   6 C :    0.038306
   7 H :    0.019337
   8 H :    0.023501
   9 C :   -0.069506
  10 H :    0.012772
  11 H :    0.017827
  12 C :   -0.002477
  13 H :    0.037361
  14 H :    0.029737
  15 H :    0.035985
  16 S :    0.113754
  17 C :   -0.113564
  18 C :   -0.042162
  19 C :   -0.030172
  20 C :   -0.141089
  21 H :    0.031543
  22 C :    0.062601
  23 H :    0.033200
  24 H :    0.017268
  25 C :   -0.112131
  26 H :    0.026808
  27 H :    0.047278
  28 C :   -0.039885
  29 H :    0.023245
  30 H :    0.023047
  31 H :    0.047358
  32 H :    0.022917
  33 H :    0.081209
Sum of atomic charges:    0.0000000

LOEWDIN ATOMIC CHARGES
----------------------
   0 S :    0.406744
   1 C :   -0.179754
   2 C :   -0.073067
   3 C :   -0.065381
   4 C :   -0.203524
   5 H :    0.038263
   6 C :   -0.035762
   7 H :    0.031494
   8 H :    0.031609
   9 C :   -0.046899
  10 H :    0.020077
  11 H :    0.025388
  12 C :   -0.058123
  13 H :    0.031263
  14 H :    0.027673
  15 H :    0.025587
  16 S :    0.426366
  17 C :   -0.193893
  18 C :   -0.080154
  19 C :   -0.056192
  20 C :   -0.212462
  21 H :    0.036405
  22 C :   -0.038852
  23 H :    0.035733
  24 H :    0.028157
  25 C :   -0.038100
  26 H :    0.017149
  27 H :    0.029700
  28 C :   -0.063730
  29 H :    0.020807
  30 H :    0.016668
  31 H :    0.035893
  32 H :    0.018415
  33 H :    0.042504

  Mayer bond orders larger than 0.100000
B(  0-S ,  1-C ) :   1.1466 B(  0-S ,  4-C ) :   1.1402 B(  1-C ,  2-C ) :   1.6233
B(  1-C , 32-H ) :   0.9736 B(  2-C ,  3-C ) :   1.2397 B(  2-C ,  6-C ) :   1.0155
B(  3-C ,  4-C ) :   1.6136 B(  3-C ,  5-H ) :   0.9803 B(  4-C , 20-C ) :   0.9799
B(  6-C ,  7-H ) :   0.9421 B(  6-C ,  8-H ) :   0.9311 B(  6-C ,  9-C ) :   1.0890
B(  9-C , 10-H ) :   0.9465 B(  9-C , 11-H ) :   0.9479 B(  9-C , 12-C ) :   1.0693
B( 12-C , 13-H ) :   0.9705 B( 12-C , 14-H ) :   0.9737 B( 12-C , 15-H ) :   0.9787
B( 16-S , 17-C ) :   1.1736 B( 16-S , 20-C ) :   1.1646 B( 17-C , 18-C ) :   1.5609
B( 17-C , 33-H ) :   0.9666 B( 18-C , 19-C ) :   1.2940 B( 18-C , 21-H ) :   0.9828
B( 19-C , 20-C ) :   1.5524 B( 19-C , 22-C ) :   1.0559 B( 22-C , 23-H ) :   0.9309
B( 22-C , 24-H ) :   0.9372 B( 22-C , 25-C ) :   1.0451 B( 25-C , 26-H ) :   0.9639
B( 25-C , 27-H ) :   0.9565 B( 25-C , 28-C ) :   1.0740 B( 28-C , 29-H ) :   0.9765
B( 28-C , 30-H ) :   0.9770 B( 28-C , 31-H ) :   0.9776

Dispersion correction           -0.013973653
FINAL SINGLE POINT ENERGY     -1339.875953279187

DIPOLE MOMENT
-------------
                                X             Y             Z
Electronic contribution:     -1.10770     -20.72111      -1.05913
Nuclear contribution   :      1.31717      21.30720       0.93517
                        -----------------------------------------
Total Dipole Moment    :      0.20947       0.58609      -0.12396
                        -----------------------------------------
Magnitude (a.u.)       :      0.63462
Magnitude (Debye)      :      1.61307

Rotational constants in cm-1:     0.018784     0.008064     0.006789
Rotational constants in MHz :   563.129578   241.754263   203.519488

                             ****ORCA TERMINATED NORMALLY****
TOTAL RUN TIME: 0 days 0 hours 0 minutes 21 seconds 122 msec
