                         Program Version 4.2.1 -  RELEASE  -
|  1> ! wB97X-D3 SP def2-SVP
|  2> %pal
|  3> nprocs 24
|  4> end
|  5>
|  6> * xyz 0 1
|  7> S 	 -50.699 	 -3.88583 	 -17.4755
|  8> C 	 -51.8643 	 -4.97396 	 -18.1344
|  9> C 	 -52.7817 	 -4.28842 	 -18.9306
| 10> C 	 -52.4898 	 -2.89374 	 -19.014
| 11> C 	 -51.3486 	 -2.54225 	 -18.3204
| 12> H 	 -53.0853 	 -2.1228 	 -19.4941
| 13> C 	 -53.9681 	 -4.88576 	 -19.5309
| 14> H 	 -54.6003 	 -5.27517 	 -18.7322
| 15> H 	 -53.7468 	 -5.77019 	 -20.1427
| 16> C 	 -54.9019 	 -3.9421 	 -20.311
| 17> H 	 -55.2102 	 -3.07031 	 -19.7333
| 18> H 	 -54.286 	 -3.35284 	 -21.0845
| 19> C 	 -56.047 	 -4.65333 	 -20.9976
| 20> H 	 -56.8658 	 -4.78188 	 -20.2796
| 21> H 	 -56.5652 	 -3.97288 	 -21.6809
| 22> H 	 -55.8749 	 -5.5353 	 -21.616
| 23> S 	 -50.8024 	 -0.456254 	 -19.9623
| 24> C 	 -50.1477 	 1.03215 	 -19.3481
| 25> C 	 -49.9785 	 0.96184 	 -18.0125
| 26> C 	 -50.2437 	 -0.327125 	 -17.517
| 27> C 	 -50.7261 	 -1.24672 	 -18.4341
| 28> H 	 -49.749 	 1.82439 	 -17.4169
| 29> C 	 -50.288 	 -0.514973 	 -16.0007
| 30> H 	 -49.2782 	 -0.564015 	 -15.4865
| 31> H 	 -50.6909 	 -1.46542 	 -15.7674
| 32> C 	 -51.2187 	 0.494886 	 -15.2927
| 33> H 	 -52.2035 	 0.516034 	 -15.9339
| 34> H 	 -50.7316 	 1.49085 	 -15.3537
| 35> C 	 -51.6038 	 0.0497037 	 -13.8119
| 36> H 	 -52.1168 	 -0.896457 	 -13.9071
| 37> H 	 -52.2261 	 0.703872 	 -13.2258
| 38> H 	 -50.7817 	 -0.222228 	 -13.1283
| 39> H 	 -51.8138 	 -5.99066 	 -17.9327
| 40> H 	 -50.0435 	 1.84792 	 -19.9971
| 41> *
| 42>
| 43>                          ****END OF INPUT****

CARTESIAN COORDINATES (ANGSTROEM)
---------------------------------
  S    -50.699000   -3.885830  -17.475500
  C    -51.864300   -4.973960  -18.134400
  C    -52.781700   -4.288420  -18.930600
  C    -52.489800   -2.893740  -19.014000
  C    -51.348600   -2.542250  -18.320400
  H    -53.085300   -2.122800  -19.494100
  C    -53.968100   -4.885760  -19.530900
  H    -54.600300   -5.275170  -18.732200
  H    -53.746800   -5.770190  -20.142700
  C    -54.901900   -3.942100  -20.311000
  H    -55.210200   -3.070310  -19.733300
  H    -54.286000   -3.352840  -21.084500
  C    -56.047000   -4.653330  -20.997600
  H    -56.865800   -4.781880  -20.279600
  H    -56.565200   -3.972880  -21.680900
  H    -55.874900   -5.535300  -21.616000
  S    -50.802400   -0.456254  -19.962300
  C    -50.147700    1.032150  -19.348100
  C    -49.978500    0.961840  -18.012500
  C    -50.243700   -0.327125  -17.517000
  C    -50.726100   -1.246720  -18.434100
  H    -49.749000    1.824390  -17.416900
  C    -50.288000   -0.514973  -16.000700
  H    -49.278200   -0.564015  -15.486500
  H    -50.690900   -1.465420  -15.767400
  C    -51.218700    0.494886  -15.292700
  H    -52.203500    0.516034  -15.933900
  H    -50.731600    1.490850  -15.353700
  C    -51.603800    0.049704  -13.811900
  H    -52.116800   -0.896457  -13.907100
  H    -52.226100    0.703872  -13.225800
  H    -50.781700   -0.222228  -13.128300
  H    -51.813800   -5.990660  -17.932700
  H    -50.043500    1.847920  -19.997100

 Total Charge           Charge          ....    0
 Multiplicity           Mult            ....    1
 Number of Electrons    NEL             ....  134
 Basis Dimension        Dim             ....  322

ORBITAL ENERGIES
----------------

  NO   OCC          E(Eh)            E(eV)
   0   2.0000     -88.967887     -2420.9393
   1   2.0000     -88.961376     -2420.7621
   2   2.0000     -10.325780      -280.9788
   3   2.0000     -10.323637      -280.9204
   4   2.0000     -10.310877      -280.5732
   5   2.0000     -10.307900      -280.4922
   6   2.0000     -10.300694      -280.2961
   7   2.0000     -10.300268      -280.2845
   8   2.0000     -10.298335      -280.2319
   9   2.0000     -10.292700      -280.0786
  10   2.0000     -10.291349      -280.0418
  11   2.0000     -10.288239      -279.9572
  12   2.0000     -10.288043      -279.9519
  13   2.0000     -10.287777      -279.9447
  14   2.0000     -10.280180      -279.7379
  15   2.0000     -10.279990      -279.7327
  16   2.0000      -8.083260      -219.9567
  17   2.0000      -8.077148      -219.7904
  18   2.0000      -6.041652      -164.4017
  19   2.0000      -6.037518      -164.2892
  20   2.0000      -6.035559      -164.2359
  21   2.0000      -6.034282      -164.2012
  22   2.0000      -6.031456      -164.1243
  23   2.0000      -6.027983      -164.0298
  24   2.0000      -1.016320       -27.6555
  25   2.0000      -0.993653       -27.0387
  26   2.0000      -0.917074       -24.9548
  27   2.0000      -0.901165       -24.5220
  28   2.0000      -0.878881       -23.9156
  29   2.0000      -0.853931       -23.2366
  30   2.0000      -0.840617       -22.8743
  31   2.0000      -0.819178       -22.2910
  32   2.0000      -0.782603       -21.2957
  33   2.0000      -0.771542       -20.9947
  34   2.0000      -0.715854       -19.4794
  35   2.0000      -0.700504       -19.0617
  36   2.0000      -0.691805       -18.8250
  37   2.0000      -0.667117       -18.1532
  38   2.0000      -0.639297       -17.3962
  39   2.0000      -0.622949       -16.9513
  40   2.0000      -0.606948       -16.5159
  41   2.0000      -0.575549       -15.6615
  42   2.0000      -0.565320       -15.3832
  43   2.0000      -0.555761       -15.1230
  44   2.0000      -0.528236       -14.3740
  45   2.0000      -0.521608       -14.1937
  46   2.0000      -0.516233       -14.0474
  47   2.0000      -0.513522       -13.9737
  48   2.0000      -0.508360       -13.8332
  49   2.0000      -0.503280       -13.6950
  50   2.0000      -0.485133       -13.2011
  51   2.0000      -0.481023       -13.0893
  52   2.0000      -0.477381       -12.9902
  53   2.0000      -0.463337       -12.6080
  54   2.0000      -0.462333       -12.5807
  55   2.0000      -0.456083       -12.4107
  56   2.0000      -0.450097       -12.2478
  57   2.0000      -0.438971       -11.9450
  58   2.0000      -0.428149       -11.6505
  59   2.0000      -0.420940       -11.4544
  60   2.0000      -0.417911       -11.3719
  61   2.0000      -0.412233       -11.2174
  62   2.0000      -0.404843       -11.0163
  63   2.0000      -0.354586        -9.6488
  64   2.0000      -0.333850        -9.0845
  65   2.0000      -0.328513        -8.9393
  66   2.0000      -0.287492        -7.8230
  67   0.0000       0.028531         0.7764
  68   0.0000       0.077978         2.1219
  69   0.0000       0.109029         2.9668
  70   0.0000       0.129426         3.5219
  71   0.0000       0.139829         3.8049

MULLIKEN ATOMIC CHARGES
-----------------------
   0 S :    0.129307
   1 C :   -0.114305
   2 C :   -0.050672
   3 C :   -0.036853
   4 C :   -0.117987
   5 H :    0.021427
   6 C :    0.075515
   7 H :    0.033274
   8 H :    0.034261
   9 C :   -0.137926
  10 H :    0.031066
  11 H :    0.031043
  12 C :   -0.016077
  13 H :    0.027717
  14 H :    0.019013
  15 H :    0.043560
  16 S :    0.089231
  17 C :   -0.076079
  18 C :   -0.005532
  19 C :   -0.047468
  20 C :   -0.121230
  21 H :    0.017421
  22 C :    0.071627
  23 H :    0.041374
  24 H :   -0.013326
  25 C :   -0.133361
  26 H :    0.056182
  27 H :    0.041222
  28 C :   -0.047508
  29 H :    0.028620
  30 H :    0.035845
  31 H :    0.028359
  32 H :    0.022909
  33 H :    0.039352
Sum of atomic charges:    0.0000000

LOEWDIN ATOMIC CHARGES
----------------------
   0 S :    0.443500
   1 C :   -0.196483
   2 C :   -0.057999
   3 C :   -0.075107
   4 C :   -0.204855
   5 H :    0.029130
   6 C :   -0.040006
   7 H :    0.037378
   8 H :    0.036305
   9 C :   -0.052254
  10 H :    0.024898
  11 H :    0.025921
  12 C :   -0.071604
  13 H :    0.028644
  14 H :    0.030222
  15 H :    0.029136
  16 S :    0.427198
  17 C :   -0.171854
  18 C :   -0.067168
  19 C :   -0.063007
  20 C :   -0.202290
  21 H :    0.032758
  22 C :   -0.039506
  23 H :    0.035857
  24 H :    0.010233
  25 C :   -0.042508
  26 H :    0.038965
  27 H :    0.019211
  28 C :   -0.073621
  29 H :    0.026203
  30 H :    0.024085
  31 H :    0.027144
  32 H :    0.013906
  33 H :    0.017569

  Mayer bond orders larger than 0.100000
B(  0-S ,  1-C ) :   1.1540 B(  0-S ,  4-C ) :   1.1758 B(  1-C ,  2-C ) :   1.5591
B(  1-C , 32-H ) :   0.9902 B(  2-C ,  3-C ) :   1.2776 B(  2-C ,  6-C ) :   1.0270
B(  3-C ,  4-C ) :   1.5150 B(  3-C ,  5-H ) :   0.9872 B(  4-C , 20-C ) :   1.0369
B(  6-C ,  7-H ) :   0.9274 B(  6-C ,  8-H ) :   0.9317 B(  6-C ,  9-C ) :   1.0874
B(  9-C , 10-H ) :   0.9443 B(  9-C , 11-H ) :   0.9515 B(  9-C , 12-C ) :   1.0852
B( 12-C , 13-H ) :   0.9693 B( 12-C , 14-H ) :   0.9660 B( 12-C , 15-H ) :   0.9753
B( 16-S , 17-C ) :   1.1701 B( 16-S , 20-C ) :   1.1479 B( 17-C , 18-C ) :   1.5710
B( 17-C , 33-H ) :   0.9787 B( 18-C , 19-C ) :   1.2669 B( 18-C , 21-H ) :   0.9999
B( 19-C , 20-C ) :   1.5623 B( 19-C , 22-C ) :   1.0498 B( 22-C , 23-H ) :   0.9315
B( 22-C , 24-H ) :   0.9344 B( 22-C , 25-C ) :   1.0471 B( 25-C , 26-H ) :   0.9594
B( 25-C , 27-H ) :   0.9554 B( 25-C , 28-C ) :   1.0623 B( 28-C , 29-H ) :   0.9749
B( 28-C , 30-H ) :   0.9788 B( 28-C , 31-H ) :   0.9765

Dispersion correction           -0.013721421
FINAL SINGLE POINT ENERGY     -1339.878917876009

DIPOLE MOMENT
-------------
                                X             Y             Z
Electronic contribution:     17.35028       0.08177      -7.04321
Nuclear contribution   :    -17.84485      -0.02569       7.16341
                        -----------------------------------------
Total Dipole Moment    :     -0.49457       0.05608       0.12020
                        -----------------------------------------
Magnitude (a.u.)       :      0.51204
Magnitude (Debye)      :      1.30151

Rotational constants in cm-1:     0.018971     0.007888     0.006878
Rotational constants in MHz :   568.731047   236.464673   206.208788

                             ****ORCA TERMINATED NORMALLY****
TOTAL RUN TIME: 0 days 0 hours 0 minutes 21 seconds 334 msec
