                         Program Version 4.2.1 -  RELEASE  -
|  1> ! wB97X-D3 SP def2-SVP
|  2> %pal
|  3> nprocs 24
|  4> end
|  5>
|  6> * xyz 0 1
|  7> S 	 -133.687 	 12.7235 	 -7.1343
|  8> C 	 -133.251 	 13.3615 	 -5.56892
|  9> C 	 -133.217 	 12.4386 	 -4.62251
| 10> C 	 -133.919 	 11.2548 	 -5.06082
| 11> C 	 -134.318 	 11.2815 	 -6.34502
| 12> H 	 -134.307 	 10.4693 	 -4.40096
| 13> C 	 -132.665 	 12.7266 	 -3.20837
| 14> H 	 -132.976 	 11.7883 	 -2.60487
| 15> H 	 -133.279 	 13.5231 	 -2.71802
| 16> C 	 -131.142 	 12.8634 	 -2.99328
| 17> H 	 -130.893 	 12.707 	 -1.91009
| 18> H 	 -130.63 	 12.0158 	 -3.42789
| 19> C 	 -130.486 	 14.1701 	 -3.48503
| 20> H 	 -130.972 	 15.0538 	 -2.94586
| 21> H 	 -129.427 	 14.3237 	 -3.34886
| 22> H 	 -130.764 	 14.2672 	 -4.53416
| 23> S 	 -136.578 	 11.437 	 -7.78054
| 24> C 	 -137.483 	 10.0127 	 -8.27755
| 25> C 	 -136.647 	 8.91725 	 -8.16697
| 26> C 	 -135.394 	 9.11616 	 -7.42785
| 27> C 	 -135.308 	 10.4912 	 -7.06332
| 28> H 	 -136.974 	 7.93399 	 -8.4631
| 29> C 	 -134.39 	 7.95459 	 -7.17719
| 30> H 	 -134.946 	 7.00547 	 -7.23734
| 31> H 	 -134.158 	 8.13451 	 -6.1276
| 32> C 	 -133.163 	 7.79936 	 -8.15356
| 33> H 	 -132.572 	 8.68484 	 -8.30924
| 34> H 	 -133.393 	 7.39555 	 -9.154
| 35> C 	 -132.055 	 6.88168 	 -7.63505
| 36> H 	 -131.506 	 7.32419 	 -6.88581
| 37> H 	 -131.28 	 6.60341 	 -8.41127
| 38> H 	 -132.448 	 5.99109 	 -7.25299
| 39> H 	 -132.783 	 14.3461 	 -5.34976
| 40> H 	 -138.508 	 10.142 	 -8.62913
| 41> *
| 42>
| 43>                          ****END OF INPUT****

CARTESIAN COORDINATES (ANGSTROEM)
---------------------------------
  S    -133.687000   12.723500   -7.134300
  C    -133.251000   13.361500   -5.568920
  C    -133.217000   12.438600   -4.622510
  C    -133.919000   11.254800   -5.060820
  C    -134.318000   11.281500   -6.345020
  H    -134.307000   10.469300   -4.400960
  C    -132.665000   12.726600   -3.208370
  H    -132.976000   11.788300   -2.604870
  H    -133.279000   13.523100   -2.718020
  C    -131.142000   12.863400   -2.993280
  H    -130.893000   12.707000   -1.910090
  H    -130.630000   12.015800   -3.427890
  C    -130.486000   14.170100   -3.485030
  H    -130.972000   15.053800   -2.945860
  H    -129.427000   14.323700   -3.348860
  H    -130.764000   14.267200   -4.534160
  S    -136.578000   11.437000   -7.780540
  C    -137.483000   10.012700   -8.277550
  C    -136.647000    8.917250   -8.166970
  C    -135.394000    9.116160   -7.427850
  C    -135.308000   10.491200   -7.063320
  H    -136.974000    7.933990   -8.463100
  C    -134.390000    7.954590   -7.177190
  H    -134.946000    7.005470   -7.237340
  H    -134.158000    8.134510   -6.127600
  C    -133.163000    7.799360   -8.153560
  H    -132.572000    8.684840   -8.309240
  H    -133.393000    7.395550   -9.154000
  C    -132.055000    6.881680   -7.635050
  H    -131.506000    7.324190   -6.885810
  H    -131.280000    6.603410   -8.411270
  H    -132.448000    5.991090   -7.252990
  H    -132.783000   14.346100   -5.349760
  H    -138.508000   10.142000   -8.629130

 Total Charge           Charge          ....    0
 Multiplicity           Mult            ....    1
 Number of Electrons    NEL             ....  134
 Basis Dimension        Dim             ....  322

ORBITAL ENERGIES
----------------

  NO   OCC          E(Eh)            E(eV)
   0   2.0000     -88.962047     -2420.7804
   1   2.0000     -88.961008     -2420.7521
   2   2.0000     -10.330571      -281.1091
   3   2.0000     -10.325727      -280.9773
   4   2.0000     -10.320408      -280.8326
   5   2.0000     -10.315057      -280.6870
   6   2.0000     -10.307353      -280.4773
   7   2.0000     -10.307025      -280.4684
   8   2.0000     -10.305321      -280.4220
   9   2.0000     -10.298191      -280.2280
  10   2.0000     -10.297338      -280.2048
  11   2.0000     -10.293894      -280.1111
  12   2.0000     -10.293769      -280.1077
  13   2.0000     -10.288414      -279.9620
  14   2.0000     -10.283446      -279.8268
  15   2.0000     -10.267675      -279.3976
  16   2.0000      -8.077108      -219.7893
  17   2.0000      -8.076261      -219.7662
  18   2.0000      -6.035612      -164.2374
  19   2.0000      -6.034856      -164.2168
  20   2.0000      -6.031493      -164.1253
  21   2.0000      -6.030983      -164.1114
  22   2.0000      -6.027884      -164.0271
  23   2.0000      -6.026584      -163.9917
  24   2.0000      -1.010566       -27.4989
  25   2.0000      -0.983060       -26.7504
  26   2.0000      -0.906499       -24.6671
  27   2.0000      -0.901714       -24.5369
  28   2.0000      -0.869683       -23.6653
  29   2.0000      -0.851790       -23.1784
  30   2.0000      -0.842817       -22.9342
  31   2.0000      -0.815787       -22.1987
  32   2.0000      -0.782612       -21.2959
  33   2.0000      -0.774040       -21.0627
  34   2.0000      -0.707562       -19.2537
  35   2.0000      -0.698423       -19.0051
  36   2.0000      -0.692599       -18.8466
  37   2.0000      -0.661943       -18.0124
  38   2.0000      -0.637205       -17.3392
  39   2.0000      -0.613812       -16.7027
  40   2.0000      -0.592424       -16.1207
  41   2.0000      -0.569406       -15.4943
  42   2.0000      -0.566897       -15.4261
  43   2.0000      -0.541588       -14.7374
  44   2.0000      -0.537230       -14.6188
  45   2.0000      -0.525463       -14.2986
  46   2.0000      -0.517577       -14.0840
  47   2.0000      -0.512355       -13.9419
  48   2.0000      -0.502847       -13.6832
  49   2.0000      -0.497695       -13.5430
  50   2.0000      -0.489892       -13.3306
  51   2.0000      -0.481179       -13.0936
  52   2.0000      -0.479607       -13.0508
  53   2.0000      -0.458966       -12.4891
  54   2.0000      -0.458223       -12.4689
  55   2.0000      -0.443648       -12.0723
  56   2.0000      -0.440427       -11.9846
  57   2.0000      -0.435522       -11.8512
  58   2.0000      -0.429851       -11.6968
  59   2.0000      -0.424123       -11.5410
  60   2.0000      -0.421512       -11.4699
  61   2.0000      -0.417373       -11.3573
  62   2.0000      -0.408093       -11.1048
  63   2.0000      -0.348947        -9.4953
  64   2.0000      -0.329568        -8.9680
  65   2.0000      -0.325202        -8.8492
  66   2.0000      -0.295983        -8.0541
  67   0.0000       0.031054         0.8450
  68   0.0000       0.064949         1.7673
  69   0.0000       0.107619         2.9285
  70   0.0000       0.125097         3.4041
  71   0.0000       0.128107         3.4860

MULLIKEN ATOMIC CHARGES
-----------------------
   0 S :    0.098905
   1 C :   -0.134644
   2 C :   -0.077931
   3 C :    0.030494
   4 C :   -0.151587
   5 H :    0.019488
   6 C :    0.002732
   7 H :    0.030960
   8 H :    0.054277
   9 C :   -0.048280
  10 H :    0.033142
  11 H :    0.026029
  12 C :   -0.068952
  13 H :    0.029084
  14 H :    0.042838
  15 H :    0.031166
  16 S :    0.104205
  17 C :   -0.110017
  18 C :   -0.014309
  19 C :   -0.048138
  20 C :   -0.171742
  21 H :    0.012524
  22 C :    0.090257
  23 H :    0.025229
  24 H :    0.031703
  25 C :   -0.052712
  26 H :    0.032083
  27 H :    0.035166
  28 C :   -0.042424
  29 H :    0.013816
  30 H :    0.036908
  31 H :    0.009228
  32 H :    0.057604
  33 H :    0.072894
Sum of atomic charges:    0.0000000

LOEWDIN ATOMIC CHARGES
----------------------
   0 S :    0.383031
   1 C :   -0.191313
   2 C :   -0.074721
   3 C :   -0.065740
   4 C :   -0.187526
   5 H :    0.034424
   6 C :   -0.039022
   7 H :    0.040644
   8 H :    0.038057
   9 C :   -0.045730
  10 H :    0.029409
  11 H :    0.024597
  12 C :   -0.074380
  13 H :    0.029761
  14 H :    0.026033
  15 H :    0.021816
  16 S :    0.411876
  17 C :   -0.185702
  18 C :   -0.069043
  19 C :   -0.052318
  20 C :   -0.204282
  21 H :    0.024749
  22 C :   -0.028342
  23 H :    0.034417
  24 H :    0.035430
  25 C :   -0.038451
  26 H :    0.026287
  27 H :    0.028658
  28 C :   -0.059461
  29 H :    0.011906
  30 H :    0.035463
  31 H :    0.011401
  32 H :    0.034319
  33 H :    0.033754

  Mayer bond orders larger than 0.100000
B(  0-S ,  1-C ) :   1.1126 B(  0-S ,  4-C ) :   1.1202 B(  1-C ,  2-C ) :   1.6916
B(  1-C , 32-H ) :   0.9531 B(  2-C ,  3-C ) :   1.1964 B(  2-C ,  6-C ) :   1.0007
B(  3-C ,  4-C ) :   1.6614 B(  3-C ,  5-H ) :   0.9858 B(  4-C , 20-C ) :   1.0247
B(  6-C ,  7-H ) :   0.9404 B(  6-C ,  8-H ) :   0.9495 B(  6-C ,  9-C ) :   1.0659
B(  9-C , 10-H ) :   0.9559 B(  9-C , 11-H ) :   0.9529 B(  9-C , 12-C ) :   1.0713
B( 12-C , 13-H ) :   0.9752 B( 12-C , 14-H ) :   0.9742 B( 12-C , 15-H ) :   0.9723
B( 16-S , 17-C ) :   1.1477 B( 16-S , 20-C ) :   1.1639 B( 17-C , 18-C ) :   1.5824
B( 17-C , 20-C ) :   0.1020 B( 17-C , 33-H ) :   0.9748 B( 18-C , 19-C ) :   1.2481
B( 18-C , 21-H ) :   0.9869 B( 19-C , 20-C ) :   1.5645 B( 19-C , 22-C ) :   1.0306
B( 22-C , 23-H ) :   0.9320 B( 22-C , 24-H ) :   0.9394 B( 22-C , 25-C ) :   1.0513
B( 25-C , 26-H ) :   0.9637 B( 25-C , 27-H ) :   0.9596 B( 25-C , 28-C ) :   1.0763
B( 28-C , 29-H ) :   0.9792 B( 28-C , 30-H ) :   0.9735 B( 28-C , 31-H ) :   0.9739

Dispersion correction           -0.013555577
FINAL SINGLE POINT ENERGY     -1339.854556824659

DIPOLE MOMENT
-------------
                                X             Y             Z
Electronic contribution:    -20.26905       9.46710     -12.40203
Nuclear contribution   :     20.44651      -9.85637      12.79574
                        -----------------------------------------
Total Dipole Moment    :      0.17746      -0.38927       0.39371
                        -----------------------------------------
Magnitude (a.u.)       :      0.58140
Magnitude (Debye)      :      1.47781

Rotational constants in cm-1:     0.019242     0.007953     0.006286
Rotational constants in MHz :   576.858795   238.421432   188.452546

                             ****ORCA TERMINATED NORMALLY****
TOTAL RUN TIME: 0 days 0 hours 0 minutes 20 seconds 748 msec
