                         Program Version 4.2.1 -  RELEASE  -
|  1> ! wB97X-D3 SP def2-SVP
|  2> %pal
|  3> nprocs 24
|  4> end
|  5>
|  6> * xyz 0 1
|  7> S 	 -48.8633 	 19.896 	 -90.125
|  8> C 	 -48.9399 	 21.3947 	 -89.1039
|  9> C 	 -50.2425 	 21.8494 	 -89.0093
| 10> C 	 -51.07 	 21.2598 	 -89.9951
| 11> C 	 -50.4309 	 20.2944 	 -90.7707
| 12> H 	 -52.1597 	 21.5077 	 -90.0653
| 13> C 	 -50.7156 	 22.9404 	 -88.0388
| 14> H 	 -49.8145 	 23.3359 	 -87.613
| 15> H 	 -51.1716 	 22.5367 	 -87.1745
| 16> C 	 -51.7131 	 24.0692 	 -88.4822
| 17> H 	 -52.7584 	 23.7837 	 -88.4527
| 18> H 	 -51.7564 	 24.7639 	 -87.6471
| 19> C 	 -51.2792 	 24.8452 	 -89.7705
| 20> H 	 -51.2384 	 24.2058 	 -90.6836
| 21> H 	 -52.0152 	 25.5491 	 -89.9265
| 22> H 	 -50.3658 	 25.3706 	 -89.5545
| 23> S 	 -50.8636 	 17.7018 	 -91.5978
| 24> C 	 -52.0949 	 17.3013 	 -92.7496
| 25> C 	 -52.6271 	 18.4514 	 -93.2573
| 26> C 	 -52.1394 	 19.6673 	 -92.6787
| 27> C 	 -51.1532 	 19.4324 	 -91.7341
| 28> H 	 -53.456 	 18.3687 	 -93.9441
| 29> C 	 -52.6169 	 21.0787 	 -93.0391
| 30> H 	 -52.5704 	 21.2796 	 -94.0894
| 31> H 	 -51.8841 	 21.8409 	 -92.7199
| 32> C 	 -54.0873 	 21.3377 	 -92.6054
| 33> H 	 -54.3095 	 21.1999 	 -91.5924
| 34> H 	 -54.7403 	 20.6736 	 -93.2098
| 35> C 	 -54.4672 	 22.7733 	 -93.0544
| 36> H 	 -53.8263 	 23.5179 	 -92.5536
| 37> H 	 -55.5263 	 22.9397 	 -92.7967
| 38> H 	 -54.3572 	 22.8859 	 -94.0775
| 39> H 	 -48.1226 	 21.7783 	 -88.4657
| 40> H 	 -52.3984 	 16.3091 	 -93.0249
| 41> *
| 42>
| 43>                          ****END OF INPUT****

CARTESIAN COORDINATES (ANGSTROEM)
---------------------------------
  S    -48.863300   19.896000  -90.125000
  C    -48.939900   21.394700  -89.103900
  C    -50.242500   21.849400  -89.009300
  C    -51.070000   21.259800  -89.995100
  C    -50.430900   20.294400  -90.770700
  H    -52.159700   21.507700  -90.065300
  C    -50.715600   22.940400  -88.038800
  H    -49.814500   23.335900  -87.613000
  H    -51.171600   22.536700  -87.174500
  C    -51.713100   24.069200  -88.482200
  H    -52.758400   23.783700  -88.452700
  H    -51.756400   24.763900  -87.647100
  C    -51.279200   24.845200  -89.770500
  H    -51.238400   24.205800  -90.683600
  H    -52.015200   25.549100  -89.926500
  H    -50.365800   25.370600  -89.554500
  S    -50.863600   17.701800  -91.597800
  C    -52.094900   17.301300  -92.749600
  C    -52.627100   18.451400  -93.257300
  C    -52.139400   19.667300  -92.678700
  C    -51.153200   19.432400  -91.734100
  H    -53.456000   18.368700  -93.944100
  C    -52.616900   21.078700  -93.039100
  H    -52.570400   21.279600  -94.089400
  H    -51.884100   21.840900  -92.719900
  C    -54.087300   21.337700  -92.605400
  H    -54.309500   21.199900  -91.592400
  H    -54.740300   20.673600  -93.209800
  C    -54.467200   22.773300  -93.054400
  H    -53.826300   23.517900  -92.553600
  H    -55.526300   22.939700  -92.796700
  H    -54.357200   22.885900  -94.077500
  H    -48.122600   21.778300  -88.465700
  H    -52.398400   16.309100  -93.024900

 Total Charge           Charge          ....    0
 Multiplicity           Mult            ....    1
 Number of Electrons    NEL             ....  134
 Basis Dimension        Dim             ....  322

ORBITAL ENERGIES
----------------

  NO   OCC          E(Eh)            E(eV)
   0   2.0000     -88.970104     -2420.9996
   1   2.0000     -88.960351     -2420.7342
   2   2.0000     -10.333759      -281.1959
   3   2.0000     -10.327796      -281.0336
   4   2.0000     -10.320195      -280.8268
   5   2.0000     -10.313737      -280.6510
   6   2.0000     -10.303292      -280.3668
   7   2.0000     -10.303068      -280.3607
   8   2.0000     -10.296172      -280.1731
   9   2.0000     -10.293154      -280.0910
  10   2.0000     -10.292118      -280.0628
  11   2.0000     -10.292065      -280.0613
  12   2.0000     -10.291301      -280.0405
  13   2.0000     -10.287277      -279.9310
  14   2.0000     -10.275518      -279.6110
  15   2.0000     -10.275292      -279.6049
  16   2.0000      -8.083785      -219.9710
  17   2.0000      -8.075625      -219.7489
  18   2.0000      -6.042422      -164.4227
  19   2.0000      -6.038736      -164.3224
  20   2.0000      -6.034197      -164.1989
  21   2.0000      -6.034170      -164.1981
  22   2.0000      -6.030003      -164.0847
  23   2.0000      -6.026343      -163.9851
  24   2.0000      -1.005185       -27.3525
  25   2.0000      -0.982377       -26.7318
  26   2.0000      -0.907624       -24.6977
  27   2.0000      -0.906087       -24.6559
  28   2.0000      -0.867180       -23.5972
  29   2.0000      -0.850622       -23.1466
  30   2.0000      -0.840400       -22.8685
  31   2.0000      -0.813915       -22.1478
  32   2.0000      -0.786915       -21.4130
  33   2.0000      -0.772777       -21.0283
  34   2.0000      -0.710740       -19.3402
  35   2.0000      -0.704420       -19.1682
  36   2.0000      -0.696851       -18.9623
  37   2.0000      -0.658550       -17.9201
  38   2.0000      -0.631863       -17.1939
  39   2.0000      -0.619950       -16.8697
  40   2.0000      -0.598088       -16.2748
  41   2.0000      -0.566590       -15.4177
  42   2.0000      -0.560798       -15.2601
  43   2.0000      -0.553352       -15.0575
  44   2.0000      -0.537044       -14.6137
  45   2.0000      -0.527784       -14.3617
  46   2.0000      -0.516807       -14.0630
  47   2.0000      -0.511307       -13.9134
  48   2.0000      -0.502877       -13.6840
  49   2.0000      -0.493910       -13.4400
  50   2.0000      -0.491558       -13.3760
  51   2.0000      -0.482318       -13.1245
  52   2.0000      -0.469960       -12.7883
  53   2.0000      -0.463080       -12.6010
  54   2.0000      -0.458661       -12.4808
  55   2.0000      -0.451894       -12.2967
  56   2.0000      -0.449967       -12.2442
  57   2.0000      -0.439292       -11.9537
  58   2.0000      -0.432024       -11.7560
  59   2.0000      -0.429392       -11.6844
  60   2.0000      -0.423038       -11.5114
  61   2.0000      -0.417836       -11.3699
  62   2.0000      -0.410412       -11.1679
  63   2.0000      -0.352022        -9.5790
  64   2.0000      -0.332576        -9.0498
  65   2.0000      -0.327317        -8.9067
  66   2.0000      -0.285812        -7.7773
  67   0.0000       0.025155         0.6845
  68   0.0000       0.072701         1.9783
  69   0.0000       0.097935         2.6649
  70   0.0000       0.119687         3.2569
  71   0.0000       0.128163         3.4875

MULLIKEN ATOMIC CHARGES
-----------------------
   0 S :    0.101373
   1 C :   -0.140700
   2 C :   -0.080273
   3 C :   -0.012574
   4 C :   -0.103671
   5 H :    0.031367
   6 C :    0.112530
   7 H :   -0.000852
   8 H :    0.026104
   9 C :   -0.102453
  10 H :    0.023795
  11 H :    0.019198
  12 C :   -0.017373
  13 H :    0.051053
  14 H :    0.013991
  15 H :    0.033453
  16 S :    0.082385
  17 C :   -0.082950
  18 C :   -0.026094
  19 C :   -0.025606
  20 C :   -0.142194
  21 H :    0.012839
  22 C :    0.041297
  23 H :    0.013525
  24 H :    0.029572
  25 C :   -0.076829
  26 H :    0.026682
  27 H :    0.030710
  28 C :   -0.027217
  29 H :    0.029793
  30 H :    0.034625
  31 H :    0.015030
  32 H :    0.056815
  33 H :    0.052645
Sum of atomic charges:    0.0000000

LOEWDIN ATOMIC CHARGES
----------------------
   0 S :    0.384587
   1 C :   -0.183923
   2 C :   -0.059566
   3 C :   -0.068195
   4 C :   -0.190522
   5 H :    0.039685
   6 C :   -0.029246
   7 H :    0.026844
   8 H :    0.031920
   9 C :   -0.043444
  10 H :    0.020944
  11 H :    0.027691
  12 C :   -0.057912
  13 H :    0.031323
  14 H :    0.015110
  15 H :    0.026933
  16 S :    0.396022
  17 C :   -0.185650
  18 C :   -0.071779
  19 C :   -0.061462
  20 C :   -0.185414
  21 H :    0.028639
  22 C :   -0.034849
  23 H :    0.028089
  24 H :    0.032556
  25 C :   -0.029515
  26 H :    0.012793
  27 H :    0.027522
  28 C :   -0.058068
  29 H :    0.025206
  30 H :    0.027963
  31 H :    0.012712
  32 H :    0.033104
  33 H :    0.029902

  Mayer bond orders larger than 0.100000
B(  0-S ,  1-C ) :   1.1156 B(  0-S ,  4-C ) :   1.1505 B(  1-C ,  2-C ) :   1.6163
B(  1-C , 32-H ) :   0.9619 B(  2-C ,  3-C ) :   1.2542 B(  2-C ,  6-C ) :   1.0231
B(  3-C ,  4-C ) :   1.5430 B(  3-C ,  5-H ) :   0.9860 B(  4-C , 20-C ) :   1.0428
B(  6-C ,  7-H ) :   0.9339 B(  6-C ,  8-H ) :   0.9288 B(  6-C ,  9-C ) :   1.0730
B(  9-C , 10-H ) :   0.9539 B(  9-C , 11-H ) :   0.9484 B(  9-C , 12-C ) :   1.0749
B( 12-C , 13-H ) :   0.9742 B( 12-C , 14-H ) :   0.9726 B( 12-C , 15-H ) :   0.9759
B( 16-S , 17-C ) :   1.1513 B( 16-S , 20-C ) :   1.1359 B( 17-C , 18-C ) :   1.6122
B( 17-C , 33-H ) :   0.9715 B( 18-C , 19-C ) :   1.2349 B( 18-C , 21-H ) :   0.9930
B( 19-C , 20-C ) :   1.6132 B( 19-C , 22-C ) :   1.0369 B( 22-C , 23-H ) :   0.9341
B( 22-C , 24-H ) :   0.9420 B( 22-C , 25-C ) :   1.0493 B( 25-C , 26-H ) :   0.9620
B( 25-C , 27-H ) :   0.9537 B( 25-C , 28-C ) :   1.0841 B( 28-C , 29-H ) :   0.9752
B( 28-C , 30-H ) :   0.9740 B( 28-C , 31-H ) :   0.9745

Dispersion correction           -0.014770740
FINAL SINGLE POINT ENERGY     -1339.871807094561

DIPOLE MOMENT
-------------
                                X             Y             Z
Electronic contribution:     17.89296     -27.62657       0.18838
Nuclear contribution   :    -18.53319      28.19404      -0.01608
                        -----------------------------------------
Total Dipole Moment    :     -0.64023       0.56747       0.17229
                        -----------------------------------------
Magnitude (a.u.)       :      0.87270
Magnitude (Debye)      :      2.21822

Rotational constants in cm-1:     0.016285     0.010759     0.006892
Rotational constants in MHz :   488.201980   322.549038   206.614878

                             ****ORCA TERMINATED NORMALLY****
TOTAL RUN TIME: 0 days 0 hours 0 minutes 22 seconds 310 msec
