                         Program Version 4.2.1 -  RELEASE  -
|  1> ! wB97X-D3 SP def2-SVP
|  2> %pal
|  3> nprocs 24
|  4> end
|  5>
|  6> * xyz 0 1
|  7> S 	 -90.8552 	 6.28565 	 -1.2716
|  8> C 	 -89.3196 	 5.53324 	 -1.15051
|  9> C 	 -89.1569 	 4.77924 	 0.0366149
| 10> C 	 -90.3031 	 4.91093 	 0.860524
| 11> C 	 -91.2354 	 5.78886 	 0.339255
| 12> H 	 -90.4568 	 4.49664 	 1.86524
| 13> C 	 -87.9102 	 3.90002 	 0.276254
| 14> H 	 -87.5221 	 4.13676 	 1.28307
| 15> H 	 -87.101 	 4.18149 	 -0.32807
| 16> C 	 -88.017 	 2.42769 	 -0.0374486
| 17> H 	 -88.5765 	 1.87435 	 0.674153
| 18> H 	 -88.4955 	 2.35043 	 -1.05949
| 19> C 	 -86.673 	 1.66494 	 -0.103465
| 20> H 	 -86.099 	 2.04737 	 -0.854239
| 21> H 	 -86.1639 	 1.7627 	 0.795405
| 22> H 	 -86.8104 	 0.657293 	 -0.376295
| 23> S 	 -94.0135 	 5.25191 	 0.161752
| 24> C 	 -95.0888 	 5.88237 	 1.33796
| 25> C 	 -94.3337 	 6.22649 	 2.44855
| 26> C 	 -92.9418 	 6.35383 	 2.19453
| 27> C 	 -92.5579 	 5.93445 	 0.937047
| 28> H 	 -94.8081 	 6.38358 	 3.40687
| 29> C 	 -92.0698 	 6.85175 	 3.27828
| 30> H 	 -92.3075 	 7.84145 	 3.43108
| 31> H 	 -91.0759 	 6.73631 	 2.99306
| 32> C 	 -92.169 	 6.18001 	 4.65572
| 33> H 	 -93.1303 	 5.98223 	 5.02158
| 34> H 	 -91.6111 	 6.76848 	 5.4316
| 35> C 	 -91.5374 	 4.82295 	 4.62913
| 36> H 	 -92.125 	 4.08912 	 4.1539
| 37> H 	 -91.3661 	 4.57563 	 5.7046
| 38> H 	 -90.5523 	 4.82456 	 4.27238
| 39> H 	 -88.6727 	 5.56848 	 -1.97016
| 40> H 	 -96.0629 	 5.47373 	 1.59784
| 41> *
| 42>
| 43>                          ****END OF INPUT****

CARTESIAN COORDINATES (ANGSTROEM)
---------------------------------
  S    -90.855200    6.285650   -1.271600
  C    -89.319600    5.533240   -1.150510
  C    -89.156900    4.779240    0.036615
  C    -90.303100    4.910930    0.860524
  C    -91.235400    5.788860    0.339255
  H    -90.456800    4.496640    1.865240
  C    -87.910200    3.900020    0.276254
  H    -87.522100    4.136760    1.283070
  H    -87.101000    4.181490   -0.328070
  C    -88.017000    2.427690   -0.037449
  H    -88.576500    1.874350    0.674153
  H    -88.495500    2.350430   -1.059490
  C    -86.673000    1.664940   -0.103465
  H    -86.099000    2.047370   -0.854239
  H    -86.163900    1.762700    0.795405
  H    -86.810400    0.657293   -0.376295
  S    -94.013500    5.251910    0.161752
  C    -95.088800    5.882370    1.337960
  C    -94.333700    6.226490    2.448550
  C    -92.941800    6.353830    2.194530
  C    -92.557900    5.934450    0.937047
  H    -94.808100    6.383580    3.406870
  C    -92.069800    6.851750    3.278280
  H    -92.307500    7.841450    3.431080
  H    -91.075900    6.736310    2.993060
  C    -92.169000    6.180010    4.655720
  H    -93.130300    5.982230    5.021580
  H    -91.611100    6.768480    5.431600
  C    -91.537400    4.822950    4.629130
  H    -92.125000    4.089120    4.153900
  H    -91.366100    4.575630    5.704600
  H    -90.552300    4.824560    4.272380
  H    -88.672700    5.568480   -1.970160
  H    -96.062900    5.473730    1.597840

 Total Charge           Charge          ....    0
 Multiplicity           Mult            ....    1
 Number of Electrons    NEL             ....  134
 Basis Dimension        Dim             ....  322

ORBITAL ENERGIES
----------------

  NO   OCC          E(Eh)            E(eV)
   0   2.0000     -88.971270     -2421.0313
   1   2.0000     -88.960367     -2420.7347
   2   2.0000     -10.326978      -281.0114
   3   2.0000     -10.326791      -281.0063
   4   2.0000     -10.312992      -280.6308
   5   2.0000     -10.309414      -280.5334
   6   2.0000     -10.308463      -280.5076
   7   2.0000     -10.298222      -280.2289
   8   2.0000     -10.295207      -280.1468
   9   2.0000     -10.291237      -280.0388
  10   2.0000     -10.288638      -279.9681
  11   2.0000     -10.285073      -279.8711
  12   2.0000     -10.282405      -279.7985
  13   2.0000     -10.272899      -279.5398
  14   2.0000     -10.267476      -279.3922
  15   2.0000     -10.263106      -279.2733
  16   2.0000      -8.086863      -220.0547
  17   2.0000      -8.075208      -219.7376
  18   2.0000      -6.045029      -164.4936
  19   2.0000      -6.041267      -164.3912
  20   2.0000      -6.037920      -164.3002
  21   2.0000      -6.033803      -164.1881
  22   2.0000      -6.029782      -164.0787
  23   2.0000      -6.025751      -163.9690
  24   2.0000      -1.010884       -27.5075
  25   2.0000      -0.989045       -26.9133
  26   2.0000      -0.919942       -25.0329
  27   2.0000      -0.914415       -24.8825
  28   2.0000      -0.872648       -23.7460
  29   2.0000      -0.857890       -23.3444
  30   2.0000      -0.851702       -23.1760
  31   2.0000      -0.815986       -22.2041
  32   2.0000      -0.788518       -21.4567
  33   2.0000      -0.777130       -21.1468
  34   2.0000      -0.707830       -19.2610
  35   2.0000      -0.700936       -19.0734
  36   2.0000      -0.697989       -18.9932
  37   2.0000      -0.655349       -17.8330
  38   2.0000      -0.650087       -17.6898
  39   2.0000      -0.621992       -16.9253
  40   2.0000      -0.601768       -16.3749
  41   2.0000      -0.574280       -15.6270
  42   2.0000      -0.569546       -15.4981
  43   2.0000      -0.559562       -15.2265
  44   2.0000      -0.549500       -14.9526
  45   2.0000      -0.529996       -14.4219
  46   2.0000      -0.521779       -14.1983
  47   2.0000      -0.513085       -13.9618
  48   2.0000      -0.511570       -13.9205
  49   2.0000      -0.500093       -13.6082
  50   2.0000      -0.495844       -13.4926
  51   2.0000      -0.478060       -13.0087
  52   2.0000      -0.471421       -12.8280
  53   2.0000      -0.466500       -12.6941
  54   2.0000      -0.461387       -12.5550
  55   2.0000      -0.457212       -12.4414
  56   2.0000      -0.441601       -12.0166
  57   2.0000      -0.441044       -12.0014
  58   2.0000      -0.432066       -11.7571
  59   2.0000      -0.425504       -11.5785
  60   2.0000      -0.422764       -11.5040
  61   2.0000      -0.418531       -11.3888
  62   2.0000      -0.412625       -11.2281
  63   2.0000      -0.346903        -9.4397
  64   2.0000      -0.333445        -9.0735
  65   2.0000      -0.321291        -8.7428
  66   2.0000      -0.296769        -8.0755
  67   0.0000       0.030483         0.8295
  68   0.0000       0.059065         1.6072
  69   0.0000       0.112936         3.0731
  70   0.0000       0.121587         3.3085
  71   0.0000       0.125902         3.4260

MULLIKEN ATOMIC CHARGES
-----------------------
   0 S :    0.136557
   1 C :   -0.105151
   2 C :   -0.073842
   3 C :    0.033527
   4 C :   -0.188130
   5 H :    0.013313
   6 C :    0.100726
   7 H :    0.024202
   8 H :   -0.008962
   9 C :   -0.089992
  10 H :    0.022938
  11 H :    0.035522
  12 C :    0.014149
  13 H :    0.001573
  14 H :    0.017897
  15 H :    0.025117
  16 S :    0.094796
  17 C :   -0.064338
  18 C :   -0.087042
  19 C :   -0.060467
  20 C :   -0.136110
  21 H :    0.021135
  22 C :    0.164949
  23 H :    0.015859
  24 H :   -0.005218
  25 C :   -0.089967
  26 H :    0.017180
  27 H :    0.033275
  28 C :   -0.042657
  29 H :    0.039566
  30 H :    0.024377
  31 H :    0.015372
  32 H :    0.030503
  33 H :    0.069344
Sum of atomic charges:   -0.0000000

LOEWDIN ATOMIC CHARGES
----------------------
   0 S :    0.445980
   1 C :   -0.194594
   2 C :   -0.056631
   3 C :   -0.052748
   4 C :   -0.211945
   5 H :    0.036472
   6 C :   -0.033583
   7 H :    0.031258
   8 H :    0.023013
   9 C :   -0.035049
  10 H :    0.015495
  11 H :    0.032048
  12 C :   -0.047486
  13 H :    0.011245
  14 H :    0.017615
  15 H :    0.025996
  16 S :    0.402393
  17 C :   -0.213539
  18 C :   -0.068022
  19 C :   -0.062012
  20 C :   -0.186452
  21 H :    0.027099
  22 C :   -0.021072
  23 H :    0.025833
  24 H :    0.019984
  25 C :   -0.031784
  26 H :    0.014157
  27 H :    0.031677
  28 C :   -0.060661
  29 H :    0.019858
  30 H :    0.033141
  31 H :    0.012137
  32 H :    0.012868
  33 H :    0.037307

  Mayer bond orders larger than 0.100000
B(  0-S ,  1-C ) :   1.1766 B(  0-S ,  4-C ) :   1.1709 B(  1-C ,  2-C ) :   1.5550
B(  1-C , 32-H ) :   0.9778 B(  2-C ,  3-C ) :   1.2789 B(  2-C ,  6-C ) :   1.0306
B(  3-C ,  4-C ) :   1.5376 B(  3-C ,  5-H ) :   0.9897 B(  4-C , 20-C ) :   1.0370
B(  6-C ,  7-H ) :   0.9327 B(  6-C ,  8-H ) :   0.9351 B(  6-C ,  9-C ) :   1.0619
B(  9-C , 10-H ) :   0.9582 B(  9-C , 11-H ) :   0.9541 B(  9-C , 12-C ) :   1.0893
B( 12-C , 13-H ) :   0.9704 B( 12-C , 14-H ) :   0.9745 B( 12-C , 15-H ) :   0.9712
B( 16-S , 17-C ) :   1.1635 B( 16-S , 20-C ) :   1.1411 B( 17-C , 18-C ) :   1.5959
B( 17-C , 33-H ) :   0.9524 B( 18-C , 19-C ) :   1.2612 B( 18-C , 21-H ) :   0.9866
B( 19-C , 20-C ) :   1.5790 B( 19-C , 22-C ) :   1.0520 B( 22-C , 23-H ) :   0.9172
B( 22-C , 24-H ) :   0.9295 B( 22-C , 25-C ) :   1.0767 B( 25-C , 26-H ) :   0.9551
B( 25-C , 27-H ) :   0.9558 B( 25-C , 28-C ) :   1.0861 B( 28-C , 29-H ) :   0.9765
B( 28-C , 30-H ) :   0.9680 B( 28-C , 31-H ) :   0.9654

Dispersion correction           -0.014381275
FINAL SINGLE POINT ENERGY     -1339.849722456413

DIPOLE MOMENT
-------------
                                X             Y             Z
Electronic contribution:    -18.31734      12.91894     -17.33312
Nuclear contribution   :     18.82110     -13.29320      17.89229
                        -----------------------------------------
Total Dipole Moment    :      0.50376      -0.37426       0.55918
                        -----------------------------------------
Magnitude (a.u.)       :      0.84055
Magnitude (Debye)      :      2.13652

Rotational constants in cm-1:     0.019354     0.008237     0.006714
Rotational constants in MHz :   580.219868   246.949553   201.282922

                             ****ORCA TERMINATED NORMALLY****
TOTAL RUN TIME: 0 days 0 hours 0 minutes 20 seconds 726 msec
