                         Program Version 4.2.1 -  RELEASE  -
|  1> ! wB97X-D3 SP def2-SVP
|  2> %pal
|  3> nprocs 24
|  4> end
|  5>
|  6> * xyz 0 1
|  7> S 	 -138.078 	 6.72581 	 1.00397
|  8> C 	 -137.844 	 7.24384 	 -0.635598
|  9> C 	 -136.518 	 7.59217 	 -0.877212
| 10> C 	 -135.688 	 7.15768 	 0.18203
| 11> C 	 -136.382 	 6.7321 	 1.28012
| 12> H 	 -134.618 	 7.06051 	 0.289444
| 13> C 	 -135.978 	 8.05317 	 -2.20248
| 14> H 	 -136.462 	 7.43787 	 -2.98921
| 15> H 	 -134.875 	 8.06659 	 -2.18882
| 16> C 	 -136.484 	 9.4271 	 -2.58742
| 17> H 	 -136.28 	 9.69786 	 -3.61434
| 18> H 	 -137.569 	 9.5178 	 -2.49518
| 19> C 	 -135.992 	 10.4623 	 -1.62096
| 20> H 	 -136.232 	 10.1811 	 -0.528678
| 21> H 	 -134.951 	 10.6613 	 -1.75126
| 22> H 	 -136.38 	 11.4342 	 -1.89895
| 23> S 	 -135.587 	 7.19191 	 3.92946
| 24> C 	 -135.006 	 5.81879 	 4.90534
| 25> C 	 -134.996 	 4.63544 	 4.19861
| 26> C 	 -135.365 	 4.83516 	 2.76666
| 27> C 	 -135.816 	 6.15293 	 2.51081
| 28> H 	 -134.617 	 3.70621 	 4.638
| 29> C 	 -135.349 	 3.68039 	 1.83891
| 30> H 	 -135.972 	 4.12575 	 0.988038
| 31> H 	 -136.006 	 2.83038 	 2.19256
| 32> C 	 -133.995 	 3.24598 	 1.37391
| 33> H 	 -134.133 	 2.41788 	 0.675564
| 34> H 	 -133.299 	 2.88722 	 2.14025
| 35> C 	 -133.332 	 4.46387 	 0.623304
| 36> H 	 -132.374 	 4.22385 	 0.143083
| 37> H 	 -133.093 	 5.25603 	 1.34031
| 38> H 	 -134.001 	 4.87686 	 -0.143166
| 39> H 	 -138.656 	 7.35393 	 -1.37101
| 40> H 	 -134.648 	 5.90508 	 5.88022
| 41> *
| 42>
| 43>                          ****END OF INPUT****

CARTESIAN COORDINATES (ANGSTROEM)
---------------------------------
  S    -138.078000    6.725810    1.003970
  C    -137.844000    7.243840   -0.635598
  C    -136.518000    7.592170   -0.877212
  C    -135.688000    7.157680    0.182030
  C    -136.382000    6.732100    1.280120
  H    -134.618000    7.060510    0.289444
  C    -135.978000    8.053170   -2.202480
  H    -136.462000    7.437870   -2.989210
  H    -134.875000    8.066590   -2.188820
  C    -136.484000    9.427100   -2.587420
  H    -136.280000    9.697860   -3.614340
  H    -137.569000    9.517800   -2.495180
  C    -135.992000   10.462300   -1.620960
  H    -136.232000   10.181100   -0.528678
  H    -134.951000   10.661300   -1.751260
  H    -136.380000   11.434200   -1.898950
  S    -135.587000    7.191910    3.929460
  C    -135.006000    5.818790    4.905340
  C    -134.996000    4.635440    4.198610
  C    -135.365000    4.835160    2.766660
  C    -135.816000    6.152930    2.510810
  H    -134.617000    3.706210    4.638000
  C    -135.349000    3.680390    1.838910
  H    -135.972000    4.125750    0.988038
  H    -136.006000    2.830380    2.192560
  C    -133.995000    3.245980    1.373910
  H    -134.133000    2.417880    0.675564
  H    -133.299000    2.887220    2.140250
  C    -133.332000    4.463870    0.623304
  H    -132.374000    4.223850    0.143083
  H    -133.093000    5.256030    1.340310
  H    -134.001000    4.876860   -0.143166
  H    -138.656000    7.353930   -1.371010
  H    -134.648000    5.905080    5.880220

 Total Charge           Charge          ....    0
 Multiplicity           Mult            ....    1
 Number of Electrons    NEL             ....  134
 Basis Dimension        Dim             ....  322

ORBITAL ENERGIES
----------------

  NO   OCC          E(Eh)            E(eV)
   0   2.0000     -88.968280     -2420.9500
   1   2.0000     -88.964033     -2420.8344
   2   2.0000     -10.330412      -281.1048
   3   2.0000     -10.322822      -280.8983
   4   2.0000     -10.316980      -280.7393
   5   2.0000     -10.316672      -280.7309
   6   2.0000     -10.308751      -280.5154
   7   2.0000     -10.302375      -280.3419
   8   2.0000     -10.298530      -280.2372
   9   2.0000     -10.293362      -280.0966
  10   2.0000     -10.293159      -280.0911
  11   2.0000     -10.291510      -280.0462
  12   2.0000     -10.289426      -279.9895
  13   2.0000     -10.279599      -279.7221
  14   2.0000     -10.277428      -279.6630
  15   2.0000     -10.270766      -279.4817
  16   2.0000      -8.083615      -219.9664
  17   2.0000      -8.077924      -219.8115
  18   2.0000      -6.041957      -164.4100
  19   2.0000      -6.037939      -164.3007
  20   2.0000      -6.036632      -164.2651
  21   2.0000      -6.034609      -164.2101
  22   2.0000      -6.032543      -164.1538
  23   2.0000      -6.028547      -164.0451
  24   2.0000      -1.008785       -27.4504
  25   2.0000      -0.977582       -26.6014
  26   2.0000      -0.920584       -25.0504
  27   2.0000      -0.910813       -24.7845
  28   2.0000      -0.866649       -23.5827
  29   2.0000      -0.852126       -23.1875
  30   2.0000      -0.836902       -22.7733
  31   2.0000      -0.815041       -22.1784
  32   2.0000      -0.781029       -21.2529
  33   2.0000      -0.767327       -20.8800
  34   2.0000      -0.706416       -19.2226
  35   2.0000      -0.700443       -19.0600
  36   2.0000      -0.691294       -18.8111
  37   2.0000      -0.652755       -17.7624
  38   2.0000      -0.647965       -17.6320
  39   2.0000      -0.609507       -16.5855
  40   2.0000      -0.592390       -16.1198
  41   2.0000      -0.578174       -15.7329
  42   2.0000      -0.559668       -15.2293
  43   2.0000      -0.553624       -15.0649
  44   2.0000      -0.543404       -14.7868
  45   2.0000      -0.538076       -14.6418
  46   2.0000      -0.517638       -14.0857
  47   2.0000      -0.511601       -13.9214
  48   2.0000      -0.499503       -13.5922
  49   2.0000      -0.494206       -13.4480
  50   2.0000      -0.486503       -13.2384
  51   2.0000      -0.474829       -12.9208
  52   2.0000      -0.469427       -12.7738
  53   2.0000      -0.460698       -12.5362
  54   2.0000      -0.454536       -12.3685
  55   2.0000      -0.445202       -12.1146
  56   2.0000      -0.440721       -11.9926
  57   2.0000      -0.438404       -11.9296
  58   2.0000      -0.432183       -11.7603
  59   2.0000      -0.425597       -11.5811
  60   2.0000      -0.417994       -11.3742
  61   2.0000      -0.416026       -11.3206
  62   2.0000      -0.406337       -11.0570
  63   2.0000      -0.336802        -9.1649
  64   2.0000      -0.329217        -8.9585
  65   2.0000      -0.319258        -8.6874
  66   2.0000      -0.308932        -8.4065
  67   0.0000       0.045981         1.2512
  68   0.0000       0.050959         1.3867
  69   0.0000       0.114377         3.1124
  70   0.0000       0.118991         3.2379
  71   0.0000       0.123242         3.3536

MULLIKEN ATOMIC CHARGES
-----------------------
   0 S :    0.139461
   1 C :   -0.141022
   2 C :   -0.083485
   3 C :    0.050880
   4 C :   -0.204642
   5 H :    0.008267
   6 C :    0.093882
   7 H :    0.039731
   8 H :    0.031455
   9 C :   -0.077371
  10 H :    0.022845
  11 H :    0.021274
  12 C :   -0.065997
  13 H :    0.066448
  14 H :    0.012812
  15 H :    0.019062
  16 S :    0.099784
  17 C :   -0.071591
  18 C :   -0.022660
  19 C :   -0.039791
  20 C :   -0.182624
  21 H :    0.030062
  22 C :    0.005116
  23 H :    0.040651
  24 H :    0.049338
  25 C :   -0.031886
  26 H :    0.032600
  27 H :    0.035329
  28 C :   -0.097705
  29 H :    0.031467
  30 H :    0.052764
  31 H :    0.038865
  32 H :    0.058162
  33 H :    0.038520
Sum of atomic charges:    0.0000000

LOEWDIN ATOMIC CHARGES
----------------------
   0 S :    0.435928
   1 C :   -0.201451
   2 C :   -0.066680
   3 C :   -0.058540
   4 C :   -0.216811
   5 H :    0.034249
   6 C :   -0.030590
   7 H :    0.040657
   8 H :    0.033417
   9 C :   -0.046902
  10 H :    0.021218
  11 H :    0.022872
  12 C :   -0.072289
  13 H :    0.040463
  14 H :    0.016138
  15 H :    0.022671
  16 S :    0.379408
  17 C :   -0.164073
  18 C :   -0.069083
  19 C :   -0.047895
  20 C :   -0.204664
  21 H :    0.034514
  22 C :   -0.051975
  23 H :    0.041185
  24 H :    0.038940
  25 C :   -0.037090
  26 H :    0.026596
  27 H :    0.024978
  28 C :   -0.068619
  29 H :    0.023955
  30 H :    0.026469
  31 H :    0.024392
  32 H :    0.031328
  33 H :    0.017284

  Mayer bond orders larger than 0.100000
B(  0-S ,  1-C ) :   1.1652 B(  0-S ,  4-C ) :   1.1643 B(  1-C ,  2-C ) :   1.5780
B(  1-C ,  4-C ) :   0.1008 B(  1-C , 32-H ) :   0.9647 B(  2-C ,  3-C ) :   1.2208
B(  2-C ,  6-C ) :   1.0247 B(  3-C ,  4-C ) :   1.5993 B(  3-C ,  5-H ) :   0.9939
B(  4-C , 20-C ) :   0.9999 B(  6-C ,  7-H ) :   0.9359 B(  6-C ,  8-H ) :   0.9472
B(  6-C ,  9-C ) :   1.0663 B(  9-C , 10-H ) :   0.9540 B(  9-C , 11-H ) :   0.9557
B(  9-C , 12-C ) :   1.0823 B( 12-C , 13-H ) :   0.9694 B( 12-C , 14-H ) :   0.9721
B( 12-C , 15-H ) :   0.9696 B( 16-S , 17-C ) :   1.1356 B( 16-S , 20-C ) :   1.1311
B( 17-C , 18-C ) :   1.6470 B( 17-C , 33-H ) :   0.9729 B( 18-C , 19-C ) :   1.1950
B( 18-C , 21-H ) :   0.9836 B( 19-C , 20-C ) :   1.6177 B( 19-C , 22-C ) :   1.0456
B( 22-C , 23-H ) :   0.9339 B( 22-C , 24-H ) :   0.9385 B( 22-C , 25-C ) :   1.0659
B( 25-C , 26-H ) :   0.9543 B( 25-C , 27-H ) :   0.9580 B( 25-C , 28-C ) :   1.0645
B( 28-C , 29-H ) :   0.9720 B( 28-C , 30-H ) :   0.9713 B( 28-C , 31-H ) :   0.9723

Dispersion correction           -0.015966589
FINAL SINGLE POINT ENERGY     -1339.879014913436

DIPOLE MOMENT
-------------
                                X             Y             Z
Electronic contribution:    -11.13930      -0.05132      18.68601
Nuclear contribution   :     11.43535      -0.23638     -19.12419
                        -----------------------------------------
Total Dipole Moment    :      0.29606      -0.28770      -0.43818
                        -----------------------------------------
Magnitude (a.u.)       :      0.60202
Magnitude (Debye)      :      1.53021

Rotational constants in cm-1:     0.021753     0.008493     0.007541
Rotational constants in MHz :   652.130463   254.625907   226.062265

                             ****ORCA TERMINATED NORMALLY****
TOTAL RUN TIME: 0 days 0 hours 0 minutes 22 seconds 706 msec
