                         Program Version 4.2.1 -  RELEASE  -
|  1> ! wB97X-D3 SP def2-SVP
|  2> %pal
|  3> nprocs 24
|  4> end
|  5>
|  6> * xyz 0 1
|  7> S 	 -103.126 	 20.5349 	 -111.188
|  8> C 	 -102.927 	 20.5814 	 -109.445
|  9> C 	 -104.125 	 20.7986 	 -108.793
| 10> C 	 -105.124 	 21.0749 	 -109.777
| 11> C 	 -104.799 	 20.9489 	 -111.138
| 12> H 	 -106.092 	 21.262 	 -109.425
| 13> C 	 -104.373 	 20.7472 	 -107.274
| 14> H 	 -104.202 	 19.6862 	 -106.899
| 15> H 	 -105.392 	 21.0447 	 -107.073
| 16> C 	 -103.463 	 21.6739 	 -106.478
| 17> H 	 -103.395 	 21.2369 	 -105.407
| 18> H 	 -102.487 	 21.5876 	 -106.965
| 19> C 	 -103.756 	 23.1107 	 -106.504
| 20> H 	 -103.743 	 23.6684 	 -107.388
| 21> H 	 -104.747 	 23.2168 	 -106.087
| 22> H 	 -103.025 	 23.6631 	 -105.86
| 23> S 	 -105.241 	 20.0405 	 -113.615
| 24> C 	 -106.196 	 21.0083 	 -114.709
| 25> C 	 -106.978 	 21.9177 	 -114.074
| 26> C 	 -106.533 	 22.1213 	 -112.733
| 27> C 	 -105.644 	 21.15 	 -112.296
| 28> H 	 -107.707 	 22.5493 	 -114.658
| 29> C 	 -107.064 	 23.1677 	 -111.782
| 30> H 	 -106.61 	 24.1159 	 -112.129
| 31> H 	 -106.55 	 22.9927 	 -110.795
| 32> C 	 -108.521 	 23.3667 	 -111.779
| 33> H 	 -108.957 	 22.4331 	 -111.439
| 34> H 	 -109.032 	 23.6323 	 -112.738
| 35> C 	 -108.939 	 24.4277 	 -110.798
| 36> H 	 -108.392 	 24.3602 	 -109.848
| 37> H 	 -110.02 	 24.4714 	 -110.505
| 38> H 	 -108.686 	 25.4164 	 -111.093
| 39> H 	 -101.975 	 20.4087 	 -109.003
| 40> H 	 -106.036 	 20.7817 	 -115.776
| 41> *
| 42>
| 43>                          ****END OF INPUT****

CARTESIAN COORDINATES (ANGSTROEM)
---------------------------------
  S    -103.126000   20.534900  -111.188000
  C    -102.927000   20.581400  -109.445000
  C    -104.125000   20.798600  -108.793000
  C    -105.124000   21.074900  -109.777000
  C    -104.799000   20.948900  -111.138000
  H    -106.092000   21.262000  -109.425000
  C    -104.373000   20.747200  -107.274000
  H    -104.202000   19.686200  -106.899000
  H    -105.392000   21.044700  -107.073000
  C    -103.463000   21.673900  -106.478000
  H    -103.395000   21.236900  -105.407000
  H    -102.487000   21.587600  -106.965000
  C    -103.756000   23.110700  -106.504000
  H    -103.743000   23.668400  -107.388000
  H    -104.747000   23.216800  -106.087000
  H    -103.025000   23.663100  -105.860000
  S    -105.241000   20.040500  -113.615000
  C    -106.196000   21.008300  -114.709000
  C    -106.978000   21.917700  -114.074000
  C    -106.533000   22.121300  -112.733000
  C    -105.644000   21.150000  -112.296000
  H    -107.707000   22.549300  -114.658000
  C    -107.064000   23.167700  -111.782000
  H    -106.610000   24.115900  -112.129000
  H    -106.550000   22.992700  -110.795000
  C    -108.521000   23.366700  -111.779000
  H    -108.957000   22.433100  -111.439000
  H    -109.032000   23.632300  -112.738000
  C    -108.939000   24.427700  -110.798000
  H    -108.392000   24.360200  -109.848000
  H    -110.020000   24.471400  -110.505000
  H    -108.686000   25.416400  -111.093000
  H    -101.975000   20.408700  -109.003000
  H    -106.036000   20.781700  -115.776000

 Total Charge           Charge          ....    0
 Multiplicity           Mult            ....    1
 Number of Electrons    NEL             ....  134
 Basis Dimension        Dim             ....  322

ORBITAL ENERGIES
----------------

  NO   OCC          E(Eh)            E(eV)
   0   2.0000     -88.966782     -2420.9092
   1   2.0000     -88.958971     -2420.6967
   2   2.0000     -10.330460      -281.1061
   3   2.0000     -10.325422      -280.9690
   4   2.0000     -10.319331      -280.8033
   5   2.0000     -10.313053      -280.6324
   6   2.0000     -10.305436      -280.4252
   7   2.0000     -10.302474      -280.3446
   8   2.0000     -10.300237      -280.2837
   9   2.0000     -10.299857      -280.2734
  10   2.0000     -10.291687      -280.0510
  11   2.0000     -10.289748      -279.9983
  12   2.0000     -10.289377      -279.9882
  13   2.0000     -10.286209      -279.9020
  14   2.0000     -10.275455      -279.6093
  15   2.0000     -10.271492      -279.5015
  16   2.0000      -8.081629      -219.9123
  17   2.0000      -8.074522      -219.7189
  18   2.0000      -6.040144      -164.3607
  19   2.0000      -6.035958      -164.2468
  20   2.0000      -6.032961      -164.1652
  21   2.0000      -6.032513      -164.1530
  22   2.0000      -6.028997      -164.0574
  23   2.0000      -6.025220      -163.9546
  24   2.0000      -1.009318       -27.4649
  25   2.0000      -0.986609       -26.8470
  26   2.0000      -0.920697       -25.0534
  27   2.0000      -0.918415       -24.9913
  28   2.0000      -0.873755       -23.7761
  29   2.0000      -0.855010       -23.2660
  30   2.0000      -0.845790       -23.0151
  31   2.0000      -0.813559       -22.1381
  32   2.0000      -0.787532       -21.4298
  33   2.0000      -0.774322       -21.0704
  34   2.0000      -0.706804       -19.2331
  35   2.0000      -0.702814       -19.1245
  36   2.0000      -0.691559       -18.8183
  37   2.0000      -0.659974       -17.9588
  38   2.0000      -0.640462       -17.4278
  39   2.0000      -0.618569       -16.8321
  40   2.0000      -0.600541       -16.3416
  41   2.0000      -0.580754       -15.8031
  42   2.0000      -0.570741       -15.5307
  43   2.0000      -0.552948       -15.0465
  44   2.0000      -0.544154       -14.8072
  45   2.0000      -0.532039       -14.4775
  46   2.0000      -0.515993       -14.0409
  47   2.0000      -0.514083       -13.9889
  48   2.0000      -0.510429       -13.8895
  49   2.0000      -0.498899       -13.5757
  50   2.0000      -0.495347       -13.4791
  51   2.0000      -0.475754       -12.9459
  52   2.0000      -0.471033       -12.8175
  53   2.0000      -0.465273       -12.6607
  54   2.0000      -0.455965       -12.4074
  55   2.0000      -0.453597       -12.3430
  56   2.0000      -0.444416       -12.0932
  57   2.0000      -0.439606       -11.9623
  58   2.0000      -0.431288       -11.7359
  59   2.0000      -0.419388       -11.4121
  60   2.0000      -0.416466       -11.3326
  61   2.0000      -0.413397       -11.2491
  62   2.0000      -0.412067       -11.2129
  63   2.0000      -0.349392        -9.5075
  64   2.0000      -0.331161        -9.0113
  65   2.0000      -0.330741        -8.9999
  66   2.0000      -0.285823        -7.7776
  67   0.0000       0.024630         0.6702
  68   0.0000       0.073504         2.0002
  69   0.0000       0.102892         2.7998
  70   0.0000       0.123950         3.3729
  71   0.0000       0.130851         3.5606

MULLIKEN ATOMIC CHARGES
-----------------------
   0 S :    0.123243
   1 C :   -0.147786
   2 C :   -0.082475
   3 C :    0.022160
   4 C :   -0.121350
   5 H :   -0.015598
   6 C :    0.091680
   7 H :    0.055821
   8 H :    0.008891
   9 C :   -0.105181
  10 H :    0.044317
  11 H :    0.019877
  12 C :   -0.021589
  13 H :    0.028555
  14 H :    0.014494
  15 H :    0.036136
  16 S :    0.071370
  17 C :   -0.114225
  18 C :   -0.019110
  19 C :   -0.050009
  20 C :   -0.143877
  21 H :    0.043769
  22 C :    0.057428
  23 H :    0.023528
  24 H :    0.026876
  25 C :   -0.052379
  26 H :    0.026397
  27 H :    0.041291
  28 C :   -0.047384
  29 H :    0.014631
  30 H :    0.040276
  31 H :    0.012461
  32 H :    0.044566
  33 H :    0.073198
Sum of atomic charges:   -0.0000000

LOEWDIN ATOMIC CHARGES
----------------------
   0 S :    0.424604
   1 C :   -0.191422
   2 C :   -0.064466
   3 C :   -0.066530
   4 C :   -0.212742
   5 H :    0.014178
   6 C :   -0.028871
   7 H :    0.045412
   8 H :    0.022578
   9 C :   -0.051282
  10 H :    0.035691
  11 H :    0.021928
  12 C :   -0.065471
  13 H :    0.020852
  14 H :    0.021141
  15 H :    0.036073
  16 S :    0.384392
  17 C :   -0.171953
  18 C :   -0.080249
  19 C :   -0.049544
  20 C :   -0.190711
  21 H :    0.044443
  22 C :   -0.038229
  23 H :    0.034520
  24 H :    0.039868
  25 C :   -0.047053
  26 H :    0.025771
  27 H :    0.032486
  28 C :   -0.068864
  29 H :    0.023841
  30 H :    0.031722
  31 H :    0.016878
  32 H :    0.019353
  33 H :    0.031657

  Mayer bond orders larger than 0.100000
B(  0-S ,  1-C ) :   1.1613 B(  0-S ,  4-C ) :   1.1583 B(  1-C ,  2-C ) :   1.5620
B(  1-C ,  4-C ) :   0.1019 B(  1-C , 32-H ) :   0.9706 B(  2-C ,  3-C ) :   1.2996
B(  2-C ,  6-C ) :   1.0098 B(  3-C ,  4-C ) :   1.5146 B(  3-C ,  5-H ) :   0.9951
B(  4-C , 20-C ) :   1.0615 B(  6-C ,  7-H ) :   0.9386 B(  6-C ,  8-H ) :   0.9421
B(  6-C ,  9-C ) :   1.0705 B(  9-C , 10-H ) :   0.9524 B(  9-C , 11-H ) :   0.9548
B(  9-C , 12-C ) :   1.0873 B( 12-C , 13-H ) :   0.9732 B( 12-C , 14-H ) :   0.9698
B( 12-C , 15-H ) :   0.9677 B( 16-S , 17-C ) :   1.1672 B( 16-S , 20-C ) :   1.1142
B( 17-C , 18-C ) :   1.6050 B( 17-C , 33-H ) :   0.9657 B( 18-C , 19-C ) :   1.2181
B( 18-C , 21-H ) :   0.9819 B( 19-C , 20-C ) :   1.6133 B( 19-C , 22-C ) :   1.0369
B( 22-C , 23-H ) :   0.9129 B( 22-C , 24-H ) :   0.9363 B( 22-C , 25-C ) :   1.0715
B( 25-C , 26-H ) :   0.9516 B( 25-C , 27-H ) :   0.9449 B( 25-C , 28-C ) :   1.0873
B( 28-C , 29-H ) :   0.9696 B( 28-C , 30-H ) :   0.9740 B( 28-C , 31-H ) :   0.9722

Dispersion correction           -0.013568673
FINAL SINGLE POINT ENERGY     -1339.867521928297

DIPOLE MOMENT
-------------
                                X             Y             Z
Electronic contribution:     11.34142     -17.75093     -22.27373
Nuclear contribution   :    -11.59052      18.17884      22.62250
                        -----------------------------------------
Total Dipole Moment    :     -0.24910       0.42791       0.34876
                        -----------------------------------------
Magnitude (a.u.)       :      0.60563
Magnitude (Debye)      :      1.53940

Rotational constants in cm-1:     0.017744     0.009000     0.006278
Rotational constants in MHz :   531.965919   269.800697   188.198048

                             ****ORCA TERMINATED NORMALLY****
TOTAL RUN TIME: 0 days 0 hours 0 minutes 21 seconds 493 msec
