                         Program Version 4.2.1 -  RELEASE  -
|  1> ! wB97X-D3 SP def2-SVP
|  2> %pal
|  3> nprocs 24
|  4> end
|  5>
|  6> * xyz 0 1
|  7> S 	 -56.1124 	 10.4893 	 -100.008
|  8> C 	 -54.4127 	 10.3356 	 -99.4897
|  9> C 	 -53.8585 	 11.577 	 -99.2586
| 10> C 	 -54.7605 	 12.6344 	 -99.5039
| 11> C 	 -55.9607 	 12.2609 	 -100.12
| 12> H 	 -54.6176 	 13.6648 	 -99.3349
| 13> C 	 -52.4208 	 11.9591 	 -98.91
| 14> H 	 -52.414 	 12.8767 	 -98.2778
| 15> H 	 -51.8338 	 12.0626 	 -99.8859
| 16> C 	 -51.7161 	 10.9127 	 -98.0023
| 17> H 	 -51.8806 	 9.87353 	 -98.3275
| 18> H 	 -50.646 	 11.1351 	 -98.1259
| 19> C 	 -52.0716 	 10.9923 	 -96.518
| 20> H 	 -51.5597 	 11.8396 	 -96.0349
| 21> H 	 -53.1396 	 11.1095 	 -96.3847
| 22> H 	 -51.6547 	 10.1985 	 -95.9249
| 23> S 	 -58.6729 	 12.306 	 -100.113
| 24> C 	 -59.6108 	 13.7523 	 -100.512
| 25> C 	 -58.7736 	 14.7088 	 -100.997
| 26> C 	 -57.4203 	 14.3629 	 -100.907
| 27> C 	 -57.1732 	 13.0145 	 -100.493
| 28> H 	 -59.2127 	 15.6255 	 -101.393
| 29> C 	 -56.4303 	 15.4993 	 -101.033
| 30> H 	 -55.3948 	 15.2287 	 -100.672
| 31> H 	 -56.5782 	 16.261 	 -100.255
| 32> C 	 -56.1934 	 16.0609 	 -102.459
| 33> H 	 -56.0339 	 15.288 	 -103.183
| 34> H 	 -55.3245 	 16.7427 	 -102.382
| 35> C 	 -57.3573 	 17.0614 	 -103.051
| 36> H 	 -58.2012 	 16.3733 	 -103.358
| 37> H 	 -57.0992 	 17.5458 	 -103.978
| 38> H 	 -57.6344 	 17.8078 	 -102.319
| 39> H 	 -54.0443 	 9.34928 	 -99.2947
| 40> H 	 -60.7129 	 13.7668 	 -100.619
| 41> *
| 42>
| 43>                          ****END OF INPUT****

CARTESIAN COORDINATES (ANGSTROEM)
---------------------------------
  S    -56.112400   10.489300  -100.008000
  C    -54.412700   10.335600  -99.489700
  C    -53.858500   11.577000  -99.258600
  C    -54.760500   12.634400  -99.503900
  C    -55.960700   12.260900  -100.120000
  H    -54.617600   13.664800  -99.334900
  C    -52.420800   11.959100  -98.910000
  H    -52.414000   12.876700  -98.277800
  H    -51.833800   12.062600  -99.885900
  C    -51.716100   10.912700  -98.002300
  H    -51.880600    9.873530  -98.327500
  H    -50.646000   11.135100  -98.125900
  C    -52.071600   10.992300  -96.518000
  H    -51.559700   11.839600  -96.034900
  H    -53.139600   11.109500  -96.384700
  H    -51.654700   10.198500  -95.924900
  S    -58.672900   12.306000  -100.113000
  C    -59.610800   13.752300  -100.512000
  C    -58.773600   14.708800  -100.997000
  C    -57.420300   14.362900  -100.907000
  C    -57.173200   13.014500  -100.493000
  H    -59.212700   15.625500  -101.393000
  C    -56.430300   15.499300  -101.033000
  H    -55.394800   15.228700  -100.672000
  H    -56.578200   16.261000  -100.255000
  C    -56.193400   16.060900  -102.459000
  H    -56.033900   15.288000  -103.183000
  H    -55.324500   16.742700  -102.382000
  C    -57.357300   17.061400  -103.051000
  H    -58.201200   16.373300  -103.358000
  H    -57.099200   17.545800  -103.978000
  H    -57.634400   17.807800  -102.319000
  H    -54.044300    9.349280  -99.294700
  H    -60.712900   13.766800  -100.619000

 Total Charge           Charge          ....    0
 Multiplicity           Mult            ....    1
 Number of Electrons    NEL             ....  134
 Basis Dimension        Dim             ....  322

ORBITAL ENERGIES
----------------

  NO   OCC          E(Eh)            E(eV)
   0   2.0000     -88.965404     -2420.8717
   1   2.0000     -88.963901     -2420.8308
   2   2.0000     -10.337619      -281.3009
   3   2.0000     -10.333678      -281.1937
   4   2.0000     -10.319086      -280.7966
   5   2.0000     -10.318069      -280.7689
   6   2.0000     -10.305296      -280.4214
   7   2.0000     -10.304594      -280.4023
   8   2.0000     -10.304460      -280.3986
   9   2.0000     -10.298036      -280.2238
  10   2.0000     -10.294871      -280.1377
  11   2.0000     -10.292896      -280.0840
  12   2.0000     -10.290813      -280.0273
  13   2.0000     -10.288497      -279.9642
  14   2.0000     -10.284414      -279.8531
  15   2.0000     -10.275202      -279.6025
  16   2.0000      -8.080715      -219.8874
  17   2.0000      -8.078040      -219.8147
  18   2.0000      -6.039221      -164.3356
  19   2.0000      -6.036606      -164.2644
  20   2.0000      -6.034990      -164.2204
  21   2.0000      -6.032743      -164.1593
  22   2.0000      -6.031576      -164.1275
  23   2.0000      -6.028666      -164.0483
  24   2.0000      -1.008951       -27.4550
  25   2.0000      -0.984349       -26.7855
  26   2.0000      -0.910076       -24.7644
  27   2.0000      -0.899229       -24.4693
  28   2.0000      -0.871137       -23.7048
  29   2.0000      -0.847837       -23.0708
  30   2.0000      -0.838405       -22.8142
  31   2.0000      -0.814503       -22.1638
  32   2.0000      -0.781962       -21.2783
  33   2.0000      -0.772417       -21.0185
  34   2.0000      -0.708776       -19.2868
  35   2.0000      -0.700824       -19.0704
  36   2.0000      -0.688393       -18.7321
  37   2.0000      -0.663051       -18.0425
  38   2.0000      -0.642248       -17.4765
  39   2.0000      -0.616295       -16.7702
  40   2.0000      -0.600227       -16.3330
  41   2.0000      -0.576007       -15.6739
  42   2.0000      -0.559952       -15.2371
  43   2.0000      -0.544128       -14.8065
  44   2.0000      -0.537861       -14.6359
  45   2.0000      -0.526004       -14.3133
  46   2.0000      -0.517780       -14.0895
  47   2.0000      -0.513330       -13.9684
  48   2.0000      -0.503461       -13.6999
  49   2.0000      -0.495955       -13.4956
  50   2.0000      -0.492161       -13.3924
  51   2.0000      -0.486342       -13.2340
  52   2.0000      -0.471016       -12.8170
  53   2.0000      -0.464672       -12.6444
  54   2.0000      -0.461965       -12.5707
  55   2.0000      -0.450770       -12.2661
  56   2.0000      -0.444081       -12.0841
  57   2.0000      -0.437985       -11.9182
  58   2.0000      -0.431344       -11.7375
  59   2.0000      -0.421156       -11.4602
  60   2.0000      -0.415489       -11.3060
  61   2.0000      -0.410264       -11.1639
  62   2.0000      -0.396895       -10.8001
  63   2.0000      -0.359838        -9.7917
  64   2.0000      -0.334140        -9.0924
  65   2.0000      -0.325288        -8.8515
  66   2.0000      -0.286108        -7.7854
  67   0.0000       0.016214         0.4412
  68   0.0000       0.077204         2.1008
  69   0.0000       0.097300         2.6477
  70   0.0000       0.114678         3.1206
  71   0.0000       0.137541         3.7427

MULLIKEN ATOMIC CHARGES
-----------------------
   0 S :    0.069802
   1 C :   -0.130615
   2 C :   -0.048472
   3 C :    0.028520
   4 C :   -0.120118
   5 H :   -0.003691
   6 C :    0.024156
   7 H :    0.038362
   8 H :    0.069860
   9 C :   -0.089572
  10 H :    0.029835
  11 H :    0.027679
  12 C :   -0.046122
  13 H :    0.020619
  14 H :    0.042188
  15 H :    0.031199
  16 S :    0.089081
  17 C :   -0.102449
  18 C :   -0.038872
  19 C :   -0.028213
  20 C :   -0.111255
  21 H :    0.029947
  22 C :    0.014296
  23 H :    0.014109
  24 H :    0.038059
  25 C :   -0.072883
  26 H :    0.042318
  27 H :    0.035109
  28 C :   -0.091001
  29 H :    0.042110
  30 H :    0.035110
  31 H :    0.038666
  32 H :    0.051189
  33 H :    0.071049
Sum of atomic charges:    0.0000000

LOEWDIN ATOMIC CHARGES
----------------------
   0 S :    0.372813
   1 C :   -0.178546
   2 C :   -0.068241
   3 C :   -0.058799
   4 C :   -0.169250
   5 H :    0.021218
   6 C :   -0.031584
   7 H :    0.035760
   8 H :    0.048239
   9 C :   -0.047665
  10 H :    0.020517
  11 H :    0.025239
  12 C :   -0.069363
  13 H :    0.025677
  14 H :    0.025961
  15 H :    0.026364
  16 S :    0.421025
  17 C :   -0.187168
  18 C :   -0.071315
  19 C :   -0.066280
  20 C :   -0.212240
  21 H :    0.037966
  22 C :   -0.045127
  23 H :    0.032900
  24 H :    0.035207
  25 C :   -0.028919
  26 H :    0.024320
  27 H :    0.025769
  28 C :   -0.076918
  29 H :    0.028546
  30 H :    0.022442
  31 H :    0.021112
  32 H :    0.022705
  33 H :    0.037639

  Mayer bond orders larger than 0.100000
B(  0-S ,  1-C ) :   1.1311 B(  0-S ,  4-C ) :   1.1449 B(  1-C ,  2-C ) :   1.5918
B(  1-C ,  4-C ) :   0.1034 B(  1-C , 32-H ) :   0.9777 B(  2-C ,  3-C ) :   1.2410
B(  2-C ,  6-C ) :   1.0064 B(  3-C ,  4-C ) :   1.5712 B(  3-C ,  5-H ) :   0.9946
B(  4-C , 20-C ) :   1.0521 B(  6-C ,  7-H ) :   0.9488 B(  6-C ,  8-H ) :   0.9400
B(  6-C ,  9-C ) :   1.0655 B(  9-C , 10-H ) :   0.9583 B(  9-C , 11-H ) :   0.9560
B(  9-C , 12-C ) :   1.0800 B( 12-C , 13-H ) :   0.9707 B( 12-C , 14-H ) :   0.9777
B( 12-C , 15-H ) :   0.9731 B( 16-S , 17-C ) :   1.1562 B( 16-S , 20-C ) :   1.1680
B( 17-C , 18-C ) :   1.5942 B( 17-C , 20-C ) :   0.1020 B( 17-C , 33-H ) :   0.9598
B( 18-C , 19-C ) :   1.2806 B( 18-C , 21-H ) :   0.9858 B( 19-C , 20-C ) :   1.5342
B( 19-C , 22-C ) :   1.0330 B( 22-C , 23-H ) :   0.9350 B( 22-C , 24-H ) :   0.9415
B( 22-C , 25-C ) :   1.0665 B( 25-C , 26-H ) :   0.9600 B( 25-C , 27-H ) :   0.9603
B( 25-C , 28-C ) :   1.0677 B( 28-C , 29-H ) :   0.9738 B( 28-C , 30-H ) :   0.9760
B( 28-C , 31-H ) :   0.9776

Dispersion correction           -0.013675739
FINAL SINGLE POINT ENERGY     -1339.861851367611

DIPOLE MOMENT
-------------
                                X             Y             Z
Electronic contribution:    -18.35784     -15.03425      -1.39379
Nuclear contribution   :     18.79187      15.56670       1.49427
                        -----------------------------------------
Total Dipole Moment    :      0.43403       0.53245       0.10048
                        -----------------------------------------
Magnitude (a.u.)       :      0.69425
Magnitude (Debye)      :      1.76464

Rotational constants in cm-1:     0.022278     0.007271     0.005929
Rotational constants in MHz :   667.890181   217.974524   177.732668

                             ****ORCA TERMINATED NORMALLY****
TOTAL RUN TIME: 0 days 0 hours 0 minutes 20 seconds 890 msec
