                         Program Version 4.2.1 -  RELEASE  -
|  1> ! wB97X-D3 SP def2-SVP
|  2> %pal
|  3> nprocs 24
|  4> end
|  5>
|  6> * xyz 0 1
|  7> S 	 -138.386 	 24.9835 	 -17.1232
|  8> C 	 -139.132 	 23.3623 	 -17.1372
|  9> C 	 -139.352 	 22.8718 	 -18.3971
| 10> C 	 -138.773 	 23.7143 	 -19.3417
| 11> C 	 -138.191 	 24.8331 	 -18.8427
| 12> H 	 -138.761 	 23.4157 	 -20.4345
| 13> C 	 -140.047 	 21.5193 	 -18.7334
| 14> H 	 -141.084 	 21.7956 	 -19.0112
| 15> H 	 -140.227 	 20.8454 	 -17.9092
| 16> C 	 -139.454 	 20.6545 	 -19.9158
| 17> H 	 -139.928 	 19.712 	 -20.2311
| 18> H 	 -139.282 	 21.2277 	 -20.8687
| 19> C 	 -138.027 	 20.284 	 -19.5255
| 20> H 	 -138.046 	 19.8457 	 -18.5251
| 21> H 	 -137.65 	 19.6115 	 -20.3011
| 22> H 	 -137.247 	 21.0713 	 -19.5518
| 23> S 	 -135.848 	 26.1056 	 -18.7703
| 24> C 	 -135.551 	 27.3544 	 -19.9505
| 25> C 	 -136.447 	 27.3507 	 -21.0167
| 26> C 	 -137.394 	 26.3171 	 -20.8502
| 27> C 	 -137.367 	 25.787 	 -19.5722
| 28> H 	 -136.327 	 28.0364 	 -21.7992
| 29> C 	 -138.488 	 26.0728 	 -21.8107
| 30> H 	 -139.271 	 26.7536 	 -21.5872
| 31> H 	 -138.986 	 25.1598 	 -21.7289
| 32> C 	 -138.128 	 26.0615 	 -23.2597
| 33> H 	 -137.331 	 25.3941 	 -23.5215
| 34> H 	 -137.708 	 27.0316 	 -23.6244
| 35> C 	 -139.176 	 25.6287 	 -24.15
| 36> H 	 -139.097 	 24.5673 	 -24.2201
| 37> H 	 -139.147 	 26.0195 	 -25.1602
| 38> H 	 -140.214 	 25.6573 	 -23.8237
| 39> H 	 -139.52 	 22.8321 	 -16.2238
| 40> H 	 -134.697 	 28.0397 	 -19.9662
| 41> *
| 42>
| 43>                          ****END OF INPUT****

CARTESIAN COORDINATES (ANGSTROEM)
---------------------------------
  S    -138.386000   24.983500  -17.123200
  C    -139.132000   23.362300  -17.137200
  C    -139.352000   22.871800  -18.397100
  C    -138.773000   23.714300  -19.341700
  C    -138.191000   24.833100  -18.842700
  H    -138.761000   23.415700  -20.434500
  C    -140.047000   21.519300  -18.733400
  H    -141.084000   21.795600  -19.011200
  H    -140.227000   20.845400  -17.909200
  C    -139.454000   20.654500  -19.915800
  H    -139.928000   19.712000  -20.231100
  H    -139.282000   21.227700  -20.868700
  C    -138.027000   20.284000  -19.525500
  H    -138.046000   19.845700  -18.525100
  H    -137.650000   19.611500  -20.301100
  H    -137.247000   21.071300  -19.551800
  S    -135.848000   26.105600  -18.770300
  C    -135.551000   27.354400  -19.950500
  C    -136.447000   27.350700  -21.016700
  C    -137.394000   26.317100  -20.850200
  C    -137.367000   25.787000  -19.572200
  H    -136.327000   28.036400  -21.799200
  C    -138.488000   26.072800  -21.810700
  H    -139.271000   26.753600  -21.587200
  H    -138.986000   25.159800  -21.728900
  C    -138.128000   26.061500  -23.259700
  H    -137.331000   25.394100  -23.521500
  H    -137.708000   27.031600  -23.624400
  C    -139.176000   25.628700  -24.150000
  H    -139.097000   24.567300  -24.220100
  H    -139.147000   26.019500  -25.160200
  H    -140.214000   25.657300  -23.823700
  H    -139.520000   22.832100  -16.223800
  H    -134.697000   28.039700  -19.966200

 Total Charge           Charge          ....    0
 Multiplicity           Mult            ....    1
 Number of Electrons    NEL             ....  134
 Basis Dimension        Dim             ....  322

ORBITAL ENERGIES
----------------

  NO   OCC          E(Eh)            E(eV)
   0   2.0000     -88.969944     -2420.9953
   1   2.0000     -88.964628     -2420.8506
   2   2.0000     -10.325140      -280.9614
   3   2.0000     -10.320610      -280.8381
   4   2.0000     -10.316635      -280.7299
   5   2.0000     -10.314221      -280.6642
   6   2.0000     -10.304136      -280.3898
   7   2.0000     -10.302630      -280.3488
   8   2.0000     -10.298759      -280.2435
   9   2.0000     -10.296865      -280.1920
  10   2.0000     -10.291435      -280.0442
  11   2.0000     -10.289694      -279.9968
  12   2.0000     -10.277918      -279.6764
  13   2.0000     -10.277686      -279.6701
  14   2.0000     -10.273787      -279.5640
  15   2.0000     -10.268033      -279.4074
  16   2.0000      -8.084280      -219.9844
  17   2.0000      -8.079617      -219.8576
  18   2.0000      -6.042754      -164.4317
  19   2.0000      -6.039053      -164.3310
  20   2.0000      -6.037971      -164.3015
  21   2.0000      -6.034868      -164.2171
  22   2.0000      -6.034279      -164.2011
  23   2.0000      -6.030324      -164.0935
  24   2.0000      -1.012686       -27.5566
  25   2.0000      -0.987687       -26.8763
  26   2.0000      -0.928590       -25.2682
  27   2.0000      -0.908054       -24.7094
  28   2.0000      -0.869751       -23.6671
  29   2.0000      -0.863459       -23.4959
  30   2.0000      -0.846275       -23.0283
  31   2.0000      -0.814436       -22.1619
  32   2.0000      -0.787129       -21.4189
  33   2.0000      -0.772541       -21.0219
  34   2.0000      -0.707833       -19.2611
  35   2.0000      -0.700546       -19.0628
  36   2.0000      -0.690038       -18.7769
  37   2.0000      -0.660321       -17.9682
  38   2.0000      -0.638622       -17.3778
  39   2.0000      -0.624351       -16.9895
  40   2.0000      -0.608215       -16.5504
  41   2.0000      -0.574088       -15.6217
  42   2.0000      -0.565839       -15.3973
  43   2.0000      -0.552926       -15.0459
  44   2.0000      -0.539568       -14.6824
  45   2.0000      -0.532690       -14.4952
  46   2.0000      -0.518608       -14.1121
  47   2.0000      -0.515575       -14.0295
  48   2.0000      -0.503864       -13.7108
  49   2.0000      -0.489768       -13.3273
  50   2.0000      -0.485938       -13.2230
  51   2.0000      -0.485002       -13.1976
  52   2.0000      -0.470292       -12.7973
  53   2.0000      -0.467335       -12.7168
  54   2.0000      -0.459514       -12.5040
  55   2.0000      -0.455609       -12.3978
  56   2.0000      -0.449064       -12.2197
  57   2.0000      -0.439685       -11.9644
  58   2.0000      -0.429710       -11.6930
  59   2.0000      -0.425545       -11.5797
  60   2.0000      -0.424081       -11.5398
  61   2.0000      -0.412215       -11.2169
  62   2.0000      -0.400281       -10.8922
  63   2.0000      -0.347365        -9.4523
  64   2.0000      -0.336910        -9.1678
  65   2.0000      -0.329789        -8.9740
  66   2.0000      -0.283811        -7.7229
  67   0.0000       0.026607         0.7240
  68   0.0000       0.074567         2.0291
  69   0.0000       0.104827         2.8525
  70   0.0000       0.113629         3.0920
  71   0.0000       0.128165         3.4875

MULLIKEN ATOMIC CHARGES
-----------------------
   0 S :    0.122463
   1 C :   -0.162175
   2 C :   -0.054184
   3 C :   -0.012696
   4 C :   -0.136701
   5 H :    0.030904
   6 C :    0.072406
   7 H :    0.042442
   8 H :    0.024640
   9 C :   -0.101097
  10 H :    0.044897
  11 H :    0.030349
  12 C :   -0.076378
  13 H :    0.031659
  14 H :    0.026452
  15 H :    0.043417
  16 S :    0.110149
  17 C :   -0.088783
  18 C :   -0.024920
  19 C :   -0.008735
  20 C :   -0.143980
  21 H :    0.002421
  22 C :    0.120053
  23 H :    0.032128
  24 H :   -0.024609
  25 C :   -0.078815
  26 H :    0.019527
  27 H :    0.018480
  28 C :   -0.030879
  29 H :    0.009176
  30 H :    0.034354
  31 H :    0.016486
  32 H :    0.058906
  33 H :    0.052645
Sum of atomic charges:    0.0000000

LOEWDIN ATOMIC CHARGES
----------------------
   0 S :    0.399872
   1 C :   -0.194329
   2 C :   -0.062468
   3 C :   -0.072629
   4 C :   -0.198594
   5 H :    0.038952
   6 C :   -0.029042
   7 H :    0.036500
   8 H :    0.028625
   9 C :   -0.049778
  10 H :    0.032093
  11 H :    0.025216
  12 C :   -0.073379
  13 H :    0.022071
  14 H :    0.023733
  15 H :    0.027693
  16 S :    0.410027
  17 C :   -0.187165
  18 C :   -0.059394
  19 C :   -0.052310
  20 C :   -0.192540
  21 H :    0.024750
  22 C :   -0.027746
  23 H :    0.037236
  24 H :    0.020199
  25 C :   -0.047009
  26 H :    0.026622
  27 H :    0.020062
  28 C :   -0.068624
  29 H :    0.022887
  30 H :    0.030616
  31 H :    0.023874
  32 H :    0.035653
  33 H :    0.028329

  Mayer bond orders larger than 0.100000
B(  0-S ,  1-C ) :   1.1232 B(  0-S ,  4-C ) :   1.1482 B(  1-C ,  2-C ) :   1.6329
B(  1-C , 32-H ) :   0.9568 B(  2-C ,  3-C ) :   1.2649 B(  2-C ,  6-C ) :   0.9969
B(  3-C ,  4-C ) :   1.5819 B(  3-C ,  5-H ) :   0.9724 B(  4-C , 20-C ) :   1.0401
B(  6-C ,  7-H ) :   0.9358 B(  6-C ,  8-H ) :   0.9526 B(  6-C ,  9-C ) :   1.0604
B(  9-C , 10-H ) :   0.9604 B(  9-C , 11-H ) :   0.9542 B(  9-C , 12-C ) :   1.0696
B( 12-C , 13-H ) :   0.9773 B( 12-C , 14-H ) :   0.9746 B( 12-C , 15-H ) :   0.9739
B( 16-S , 17-C ) :   1.1525 B( 16-S , 20-C ) :   1.1472 B( 17-C , 18-C ) :   1.6148
B( 17-C , 20-C ) :   0.1029 B( 17-C , 33-H ) :   0.9642 B( 18-C , 19-C ) :   1.2181
B( 18-C , 21-H ) :   1.0032 B( 19-C , 20-C ) :   1.5856 B( 19-C , 22-C ) :   1.0589
B( 22-C , 23-H ) :   0.9172 B( 22-C , 24-H ) :   0.9266 B( 22-C , 25-C ) :   1.0621
B( 25-C , 26-H ) :   0.9581 B( 25-C , 27-H ) :   0.9491 B( 25-C , 28-C ) :   1.0888
B( 28-C , 29-H ) :   0.9695 B( 28-C , 30-H ) :   0.9695 B( 28-C , 31-H ) :   0.9692

Dispersion correction           -0.014139082
FINAL SINGLE POINT ENERGY     -1339.846658445983

DIPOLE MOMENT
-------------
                                X             Y             Z
Electronic contribution:      9.89307      15.43245      22.45123
Nuclear contribution   :    -10.16872     -15.77416     -23.03844
                        -----------------------------------------
Total Dipole Moment    :     -0.27564      -0.34171      -0.58721
                        -----------------------------------------
Magnitude (a.u.)       :      0.73318
Magnitude (Debye)      :      1.86361

Rotational constants in cm-1:     0.016116     0.009968     0.007128
Rotational constants in MHz :   483.140703   298.838129   213.697407

                             ****ORCA TERMINATED NORMALLY****
TOTAL RUN TIME: 0 days 0 hours 0 minutes 22 seconds 42 msec
