                         Program Version 4.2.1 -  RELEASE  -
|  1> ! wB97X-D3 SP def2-SVP
|  2> %pal
|  3> nprocs 24
|  4> end
|  5>
|  6> * xyz 0 1
|  7> S 	 -77.2536 	 -11.7297 	 -61.3018
|  8> C 	 -78.1564 	 -10.7586 	 -60.1184
|  9> C 	 -79.3645 	 -11.3483 	 -59.8498
| 10> C 	 -79.6084 	 -12.4857 	 -60.7129
| 11> C 	 -78.6207 	 -12.8156 	 -61.5966
| 12> H 	 -80.5491 	 -13.0185 	 -60.6782
| 13> C 	 -80.2963 	 -10.9673 	 -58.7803
| 14> H 	 -80.1508 	 -9.99934 	 -58.4373
| 15> H 	 -80.1526 	 -11.6264 	 -57.8759
| 16> C 	 -81.781 	 -11.0099 	 -59.3424
| 17> H 	 -81.8521 	 -10.5571 	 -60.3236
| 18> H 	 -82.0656 	 -12.0814 	 -59.3132
| 19> C 	 -82.7612 	 -10.2446 	 -58.4466
| 20> H 	 -82.6083 	 -9.20017 	 -58.6414
| 21> H 	 -83.7066 	 -10.4856 	 -58.8699
| 22> H 	 -82.7304 	 -10.441 	 -57.3731
| 23> S 	 -77.7959 	 -13.3376 	 -64.168
| 24> C 	 -78.2351 	 -14.7646 	 -64.9217
| 25> C 	 -78.9521 	 -15.6281 	 -64.0655
| 26> C 	 -79.1897 	 -15.003 	 -62.8252
| 27> C 	 -78.6378 	 -13.7946 	 -62.6448
| 28> H 	 -79.2688 	 -16.6202 	 -64.4931
| 29> C 	 -79.9181 	 -15.7051 	 -61.6307
| 30> H 	 -79.6642 	 -15.1753 	 -60.7169
| 31> H 	 -79.3912 	 -16.6523 	 -61.427
| 32> C 	 -81.4142 	 -15.9257 	 -61.9463
| 33> H 	 -81.7378 	 -16.7592 	 -61.3899
| 34> H 	 -81.5154 	 -16.3546 	 -62.9068
| 35> C 	 -82.4694 	 -14.8456 	 -61.5775
| 36> H 	 -82.3658 	 -13.8963 	 -62.1421
| 37> H 	 -82.4172 	 -14.575 	 -60.5301
| 38> H 	 -83.4355 	 -15.1331 	 -61.9091
| 39> H 	 -77.9341 	 -9.84708 	 -59.6473
| 40> H 	 -78.0531 	 -15.0341 	 -65.9947
| 41> *
| 42>
| 43>                          ****END OF INPUT****

CARTESIAN COORDINATES (ANGSTROEM)
---------------------------------
  S    -77.253600  -11.729700  -61.301800
  C    -78.156400  -10.758600  -60.118400
  C    -79.364500  -11.348300  -59.849800
  C    -79.608400  -12.485700  -60.712900
  C    -78.620700  -12.815600  -61.596600
  H    -80.549100  -13.018500  -60.678200
  C    -80.296300  -10.967300  -58.780300
  H    -80.150800   -9.999340  -58.437300
  H    -80.152600  -11.626400  -57.875900
  C    -81.781000  -11.009900  -59.342400
  H    -81.852100  -10.557100  -60.323600
  H    -82.065600  -12.081400  -59.313200
  C    -82.761200  -10.244600  -58.446600
  H    -82.608300   -9.200170  -58.641400
  H    -83.706600  -10.485600  -58.869900
  H    -82.730400  -10.441000  -57.373100
  S    -77.795900  -13.337600  -64.168000
  C    -78.235100  -14.764600  -64.921700
  C    -78.952100  -15.628100  -64.065500
  C    -79.189700  -15.003000  -62.825200
  C    -78.637800  -13.794600  -62.644800
  H    -79.268800  -16.620200  -64.493100
  C    -79.918100  -15.705100  -61.630700
  H    -79.664200  -15.175300  -60.716900
  H    -79.391200  -16.652300  -61.427000
  C    -81.414200  -15.925700  -61.946300
  H    -81.737800  -16.759200  -61.389900
  H    -81.515400  -16.354600  -62.906800
  C    -82.469400  -14.845600  -61.577500
  H    -82.365800  -13.896300  -62.142100
  H    -82.417200  -14.575000  -60.530100
  H    -83.435500  -15.133100  -61.909100
  H    -77.934100   -9.847080  -59.647300
  H    -78.053100  -15.034100  -65.994700

 Total Charge           Charge          ....    0
 Multiplicity           Mult            ....    1
 Number of Electrons    NEL             ....  134
 Basis Dimension        Dim             ....  322

ORBITAL ENERGIES
----------------

  NO   OCC          E(Eh)            E(eV)
   0   2.0000     -88.963125     -2420.8097
   1   2.0000     -88.962867     -2420.8027
   2   2.0000     -10.329697      -281.0854
   3   2.0000     -10.323324      -280.9119
   4   2.0000     -10.319664      -280.8123
   5   2.0000     -10.307783      -280.4890
   6   2.0000     -10.301387      -280.3150
   7   2.0000     -10.298282      -280.2305
   8   2.0000     -10.294270      -280.1213
   9   2.0000     -10.294242      -280.1206
  10   2.0000     -10.290474      -280.0180
  11   2.0000     -10.288920      -279.9758
  12   2.0000     -10.287176      -279.9283
  13   2.0000     -10.282633      -279.8047
  14   2.0000     -10.280639      -279.7504
  15   2.0000     -10.273685      -279.5612
  16   2.0000      -8.078825      -219.8360
  17   2.0000      -8.076698      -219.7781
  18   2.0000      -6.037197      -164.2805
  19   2.0000      -6.035533      -164.2352
  20   2.0000      -6.033051      -164.1677
  21   2.0000      -6.031357      -164.1216
  22   2.0000      -6.029792      -164.0790
  23   2.0000      -6.027125      -164.0064
  24   2.0000      -1.009843       -27.4792
  25   2.0000      -0.984317       -26.7846
  26   2.0000      -0.912979       -24.8434
  27   2.0000      -0.905572       -24.6419
  28   2.0000      -0.873048       -23.7568
  29   2.0000      -0.853703       -23.2304
  30   2.0000      -0.841226       -22.8909
  31   2.0000      -0.813995       -22.1499
  32   2.0000      -0.787113       -21.4184
  33   2.0000      -0.774066       -21.0634
  34   2.0000      -0.716448       -19.4955
  35   2.0000      -0.705275       -19.1915
  36   2.0000      -0.691439       -18.8150
  37   2.0000      -0.657302       -17.8861
  38   2.0000      -0.639304       -17.3964
  39   2.0000      -0.619787       -16.8653
  40   2.0000      -0.594925       -16.1887
  41   2.0000      -0.574373       -15.6295
  42   2.0000      -0.564975       -15.3737
  43   2.0000      -0.548433       -14.9236
  44   2.0000      -0.538225       -14.6458
  45   2.0000      -0.531169       -14.4538
  46   2.0000      -0.518957       -14.1215
  47   2.0000      -0.512189       -13.9374
  48   2.0000      -0.506521       -13.7831
  49   2.0000      -0.505632       -13.7589
  50   2.0000      -0.491769       -13.3817
  51   2.0000      -0.480241       -13.0680
  52   2.0000      -0.471094       -12.8191
  53   2.0000      -0.462552       -12.5867
  54   2.0000      -0.459203       -12.4956
  55   2.0000      -0.450459       -12.2576
  56   2.0000      -0.447786       -12.1849
  57   2.0000      -0.441811       -12.0223
  58   2.0000      -0.435867       -11.8605
  59   2.0000      -0.429360       -11.6835
  60   2.0000      -0.418077       -11.3765
  61   2.0000      -0.408886       -11.1264
  62   2.0000      -0.398699       -10.8491
  63   2.0000      -0.356982        -9.7140
  64   2.0000      -0.333232        -9.0677
  65   2.0000      -0.322764        -8.7829
  66   2.0000      -0.286343        -7.7918
  67   0.0000       0.028268         0.7692
  68   0.0000       0.076768         2.0890
  69   0.0000       0.107608         2.9282
  70   0.0000       0.123170         3.3516
  71   0.0000       0.130213         3.5433

MULLIKEN ATOMIC CHARGES
-----------------------
   0 S :    0.094118
   1 C :   -0.094176
   2 C :   -0.095491
   3 C :    0.013931
   4 C :   -0.101384
   5 H :   -0.031807
   6 C :    0.102684
   7 H :   -0.012547
   8 H :    0.053872
   9 C :   -0.161447
  10 H :    0.047418
  11 H :    0.046619
  12 C :   -0.006792
  13 H :    0.025314
  14 H :    0.022071
  15 H :    0.037539
  16 S :    0.110902
  17 C :   -0.108275
  18 C :   -0.071571
  19 C :   -0.032931
  20 C :   -0.133757
  21 H :    0.039064
  22 C :    0.047878
  23 H :    0.021431
  24 H :    0.032047
  25 C :   -0.028237
  26 H :    0.005901
  27 H :    0.010245
  28 C :   -0.029094
  29 H :    0.035643
  30 H :    0.041654
  31 H :    0.023250
  32 H :    0.019517
  33 H :    0.076410
Sum of atomic charges:    0.0000000

LOEWDIN ATOMIC CHARGES
----------------------
   0 S :    0.376629
   1 C :   -0.185567
   2 C :   -0.062786
   3 C :   -0.068419
   4 C :   -0.179608
   5 H :    0.024517
   6 C :   -0.029938
   7 H :    0.014936
   8 H :    0.043693
   9 C :   -0.035266
  10 H :    0.029513
  11 H :    0.023161
  12 C :   -0.062703
  13 H :    0.022458
  14 H :    0.023929
  15 H :    0.025614
  16 S :    0.419199
  17 C :   -0.209079
  18 C :   -0.089750
  19 C :   -0.055561
  20 C :   -0.185644
  21 H :    0.041751
  22 C :   -0.025214
  23 H :    0.027865
  24 H :    0.036197
  25 C :   -0.038227
  26 H :    0.020936
  27 H :    0.021004
  28 C :   -0.063855
  29 H :    0.027850
  30 H :    0.023113
  31 H :    0.025184
  32 H :    0.021859
  33 H :    0.042208

  Mayer bond orders larger than 0.100000
B(  0-S ,  1-C ) :   1.1076 B(  0-S ,  4-C ) :   1.1187 B(  1-C ,  2-C ) :   1.6392
B(  1-C , 32-H ) :   0.9699 B(  2-C ,  3-C ) :   1.2139 B(  2-C ,  6-C ) :   1.0488
B(  3-C ,  4-C ) :   1.5852 B(  3-C ,  5-H ) :   0.9881 B(  4-C , 20-C ) :   1.0727
B(  6-C ,  7-H ) :   0.9345 B(  6-C ,  8-H ) :   0.9289 B(  6-C ,  9-C ) :   1.0509
B(  9-C , 10-H ) :   0.9634 B(  9-C , 11-H ) :   0.9498 B(  9-C , 12-C ) :   1.0888
B( 12-C , 13-H ) :   0.9736 B( 12-C , 14-H ) :   0.9719 B( 12-C , 15-H ) :   0.9736
B( 16-S , 17-C ) :   1.2011 B( 16-S , 20-C ) :   1.1085 B( 17-C , 18-C ) :   1.5767
B( 17-C , 20-C ) :   0.1006 B( 17-C , 33-H ) :   0.9589 B( 18-C , 19-C ) :   1.2413
B( 18-C , 21-H ) :   0.9878 B( 19-C , 20-C ) :   1.6254 B( 19-C , 22-C ) :   1.0172
B( 22-C , 23-H ) :   0.9436 B( 22-C , 24-H ) :   0.9409 B( 22-C , 25-C ) :   1.0588
B( 25-C , 26-H ) :   0.9472 B( 25-C , 27-H ) :   0.9554 B( 25-C , 28-C ) :   1.0855
B( 28-C , 29-H ) :   0.9681 B( 28-C , 30-H ) :   0.9664 B( 28-C , 31-H ) :   0.9657

Dispersion correction           -0.014869398
FINAL SINGLE POINT ENERGY     -1339.865554760917

DIPOLE MOMENT
-------------
                                X             Y             Z
Electronic contribution:     27.60180       2.09522     -15.56984
Nuclear contribution   :    -28.34923      -2.38432      15.81523
                        -----------------------------------------
Total Dipole Moment    :     -0.74743      -0.28910       0.24539
                        -----------------------------------------
Magnitude (a.u.)       :      0.83812
Magnitude (Debye)      :      2.13034

Rotational constants in cm-1:     0.018418     0.009738     0.006923
Rotational constants in MHz :   552.158518   291.926483   207.555284

                             ****ORCA TERMINATED NORMALLY****
TOTAL RUN TIME: 0 days 0 hours 0 minutes 21 seconds 194 msec
