                         Program Version 4.2.1 -  RELEASE  -
|  1> ! wB97X-D3 SP def2-SVP
|  2> %pal
|  3> nprocs 24
|  4> end
|  5>
|  6> * xyz 0 1
|  7> S 	 -56.8165 	 -0.154424 	 -18.8362
|  8> C 	 -56.2416 	 -0.0833245 	 -17.1779
|  9> C 	 -57.1012 	 0.561127 	 -16.3915
| 10> C 	 -58.3398 	 0.844116 	 -17.0567
| 11> C 	 -58.2761 	 0.637635 	 -18.4052
| 12> H 	 -59.1963 	 1.22163 	 -16.5082
| 13> C 	 -56.9149 	 0.89004 	 -14.9478
| 14> H 	 -57.5626 	 1.70006 	 -14.677
| 15> H 	 -55.8937 	 1.20979 	 -14.708
| 16> C 	 -57.2376 	 -0.311209 	 -14.0927
| 17> H 	 -58.1599 	 -0.83264 	 -14.4345
| 18> H 	 -56.3976 	 -1.08725 	 -14.3453
| 19> C 	 -57.3325 	 0.0932896 	 -12.6162
| 20> H 	 -57.7428 	 -0.71344 	 -11.9562
| 21> H 	 -56.4269 	 0.565779 	 -12.2194
| 22> H 	 -58.1109 	 0.819551 	 -12.5725
| 23> S 	 -58.5729 	 2.31595 	 -20.5982
| 24> C 	 -60.0851 	 3.06248 	 -20.9174
| 25> C 	 -61.0741 	 2.42042 	 -20.2306
| 26> C 	 -60.6288 	 1.33115 	 -19.4038
| 27> C 	 -59.2506 	 1.25331 	 -19.3772
| 28> H 	 -62.1308 	 2.62334 	 -20.3371
| 29> C 	 -61.5867 	 0.510226 	 -18.6089
| 30> H 	 -62.6311 	 0.787938 	 -18.8621
| 31> H 	 -61.5008 	 0.794313 	 -17.5514
| 32> C 	 -61.4624 	 -1.01407 	 -18.7108
| 33> H 	 -62.2081 	 -1.56076 	 -18.1785
| 34> H 	 -60.6121 	 -1.42967 	 -18.2222
| 35> C 	 -61.4451 	 -1.41032 	 -20.2485
| 36> H 	 -61.7804 	 -0.67685 	 -21.0171
| 37> H 	 -62.1423 	 -2.21066 	 -20.5542
| 38> H 	 -60.5016 	 -1.79208 	 -20.6696
| 39> H 	 -55.2931 	 -0.399762 	 -16.8706
| 40> H 	 -60.368 	 3.86811 	 -21.5621
| 41> *
| 42>
| 43>                          ****END OF INPUT****

CARTESIAN COORDINATES (ANGSTROEM)
---------------------------------
  S    -56.816500   -0.154424  -18.836200
  C    -56.241600   -0.083324  -17.177900
  C    -57.101200    0.561127  -16.391500
  C    -58.339800    0.844116  -17.056700
  C    -58.276100    0.637635  -18.405200
  H    -59.196300    1.221630  -16.508200
  C    -56.914900    0.890040  -14.947800
  H    -57.562600    1.700060  -14.677000
  H    -55.893700    1.209790  -14.708000
  C    -57.237600   -0.311209  -14.092700
  H    -58.159900   -0.832640  -14.434500
  H    -56.397600   -1.087250  -14.345300
  C    -57.332500    0.093290  -12.616200
  H    -57.742800   -0.713440  -11.956200
  H    -56.426900    0.565779  -12.219400
  H    -58.110900    0.819551  -12.572500
  S    -58.572900    2.315950  -20.598200
  C    -60.085100    3.062480  -20.917400
  C    -61.074100    2.420420  -20.230600
  C    -60.628800    1.331150  -19.403800
  C    -59.250600    1.253310  -19.377200
  H    -62.130800    2.623340  -20.337100
  C    -61.586700    0.510226  -18.608900
  H    -62.631100    0.787938  -18.862100
  H    -61.500800    0.794313  -17.551400
  C    -61.462400   -1.014070  -18.710800
  H    -62.208100   -1.560760  -18.178500
  H    -60.612100   -1.429670  -18.222200
  C    -61.445100   -1.410320  -20.248500
  H    -61.780400   -0.676850  -21.017100
  H    -62.142300   -2.210660  -20.554200
  H    -60.501600   -1.792080  -20.669600
  H    -55.293100   -0.399762  -16.870600
  H    -60.368000    3.868110  -21.562100

 Total Charge           Charge          ....    0
 Multiplicity           Mult            ....    1
 Number of Electrons    NEL             ....  134
 Basis Dimension        Dim             ....  322

ORBITAL ENERGIES
----------------

  NO   OCC          E(Eh)            E(eV)
   0   2.0000     -88.965234     -2420.8671
   1   2.0000     -88.963846     -2420.8293
   2   2.0000     -10.331163      -281.1252
   3   2.0000     -10.328499      -281.0527
   4   2.0000     -10.311261      -280.5837
   5   2.0000     -10.304513      -280.4000
   6   2.0000     -10.299205      -280.2556
   7   2.0000     -10.295611      -280.1578
   8   2.0000     -10.293773      -280.1078
   9   2.0000     -10.293018      -280.0873
  10   2.0000     -10.291083      -280.0346
  11   2.0000     -10.288465      -279.9634
  12   2.0000     -10.288032      -279.9516
  13   2.0000     -10.285450      -279.8813
  14   2.0000     -10.282243      -279.7941
  15   2.0000     -10.275485      -279.6102
  16   2.0000      -8.080625      -219.8850
  17   2.0000      -8.079033      -219.8417
  18   2.0000      -6.039228      -164.3357
  19   2.0000      -6.037634      -164.2924
  20   2.0000      -6.035091      -164.2232
  21   2.0000      -6.033394      -164.1770
  22   2.0000      -6.031209      -164.1175
  23   2.0000      -6.029745      -164.0777
  24   2.0000      -1.012171       -27.5426
  25   2.0000      -0.992110       -26.9967
  26   2.0000      -0.920424       -25.0460
  27   2.0000      -0.906670       -24.6717
  28   2.0000      -0.868186       -23.6245
  29   2.0000      -0.848737       -23.0953
  30   2.0000      -0.840491       -22.8709
  31   2.0000      -0.816054       -22.2060
  32   2.0000      -0.782132       -21.2829
  33   2.0000      -0.774340       -21.0709
  34   2.0000      -0.715962       -19.4823
  35   2.0000      -0.699053       -19.0222
  36   2.0000      -0.692674       -18.8486
  37   2.0000      -0.663190       -18.0463
  38   2.0000      -0.643709       -17.5162
  39   2.0000      -0.624953       -17.0058
  40   2.0000      -0.591014       -16.0823
  41   2.0000      -0.574892       -15.6436
  42   2.0000      -0.562063       -15.2945
  43   2.0000      -0.551920       -15.0185
  44   2.0000      -0.540710       -14.7135
  45   2.0000      -0.524874       -14.2825
  46   2.0000      -0.516270       -14.0484
  47   2.0000      -0.509787       -13.8720
  48   2.0000      -0.504317       -13.7232
  49   2.0000      -0.496398       -13.5077
  50   2.0000      -0.487173       -13.2566
  51   2.0000      -0.476135       -12.9563
  52   2.0000      -0.469114       -12.7652
  53   2.0000      -0.468987       -12.7618
  54   2.0000      -0.461927       -12.5697
  55   2.0000      -0.451346       -12.2817
  56   2.0000      -0.441010       -12.0005
  57   2.0000      -0.433902       -11.8071
  58   2.0000      -0.431562       -11.7434
  59   2.0000      -0.423930       -11.5357
  60   2.0000      -0.422812       -11.5053
  61   2.0000      -0.414288       -11.2733
  62   2.0000      -0.410587       -11.1727
  63   2.0000      -0.348733        -9.4895
  64   2.0000      -0.329915        -8.9774
  65   2.0000      -0.327035        -8.8991
  66   2.0000      -0.294393        -8.0108
  67   0.0000       0.035983         0.9792
  68   0.0000       0.071309         1.9404
  69   0.0000       0.117575         3.1994
  70   0.0000       0.126952         3.4545
  71   0.0000       0.131314         3.5732

MULLIKEN ATOMIC CHARGES
-----------------------
   0 S :    0.105380
   1 C :   -0.100102
   2 C :   -0.086636
   3 C :    0.026775
   4 C :   -0.121734
   5 H :    0.008953
   6 C :    0.084108
   7 H :    0.008902
   8 H :    0.027582
   9 C :   -0.123950
  10 H :    0.035440
  11 H :    0.035283
  12 C :   -0.017780
  13 H :    0.043087
  14 H :    0.038002
  15 H :    0.012639
  16 S :    0.112206
  17 C :   -0.061846
  18 C :   -0.048992
  19 C :   -0.047335
  20 C :   -0.144923
  21 H :    0.012210
  22 C :    0.054691
  23 H :    0.020902
  24 H :    0.030419
  25 C :   -0.003192
  26 H :    0.019971
  27 H :    0.025600
  28 C :   -0.098584
  29 H :    0.032048
  30 H :    0.019427
  31 H :    0.035275
  32 H :    0.018840
  33 H :    0.047335
Sum of atomic charges:    0.0000000

LOEWDIN ATOMIC CHARGES
----------------------
   0 S :    0.408550
   1 C :   -0.183085
   2 C :   -0.060092
   3 C :   -0.060756
   4 C :   -0.199591
   5 H :    0.029705
   6 C :   -0.030741
   7 H :    0.023515
   8 H :    0.032606
   9 C :   -0.046448
  10 H :    0.026147
  11 H :    0.029123
  12 C :   -0.069328
  13 H :    0.033647
  14 H :    0.027906
  15 H :    0.019932
  16 S :    0.419249
  17 C :   -0.196520
  18 C :   -0.072748
  19 C :   -0.061383
  20 C :   -0.188523
  21 H :    0.027685
  22 C :   -0.033590
  23 H :    0.032525
  24 H :    0.031586
  25 C :   -0.034269
  26 H :    0.024213
  27 H :    0.024155
  28 C :   -0.086307
  29 H :    0.030162
  30 H :    0.024625
  31 H :    0.028345
  32 H :    0.016748
  33 H :    0.032957

  Mayer bond orders larger than 0.100000
B(  0-S ,  1-C ) :   1.1095 B(  0-S ,  4-C ) :   1.1591 B(  1-C ,  2-C ) :   1.6502
B(  1-C , 32-H ) :   0.9743 B(  2-C ,  3-C ) :   1.2380 B(  2-C ,  6-C ) :   1.0324
B(  3-C ,  4-C ) :   1.5741 B(  3-C ,  5-H ) :   0.9920 B(  4-C , 20-C ) :   1.0063
B(  6-C ,  7-H ) :   0.9383 B(  6-C ,  8-H ) :   0.9367 B(  6-C ,  9-C ) :   1.0547
B(  9-C , 10-H ) :   0.9587 B(  9-C , 11-H ) :   0.9535 B(  9-C , 12-C ) :   1.0699
B( 12-C , 13-H ) :   0.9726 B( 12-C , 14-H ) :   0.9728 B( 12-C , 15-H ) :   0.9713
B( 16-S , 17-C ) :   1.1532 B( 16-S , 20-C ) :   1.1402 B( 17-C , 18-C ) :   1.6062
B( 17-C , 33-H ) :   0.9685 B( 18-C , 19-C ) :   1.2613 B( 18-C , 21-H ) :   0.9849
B( 19-C , 20-C ) :   1.5906 B( 19-C , 22-C ) :   1.0478 B( 22-C , 23-H ) :   0.9386
B( 22-C , 24-H ) :   0.9268 B( 22-C , 25-C ) :   1.0799 B( 25-C , 26-H ) :   0.9606
B( 25-C , 27-H ) :   0.9542 B( 25-C , 28-C ) :   1.0383 B( 28-C , 29-H ) :   0.9813
B( 28-C , 30-H ) :   0.9780 B( 28-C , 31-H ) :   0.9797

Dispersion correction           -0.014822612
FINAL SINGLE POINT ENERGY     -1339.871484278804

DIPOLE MOMENT
-------------
                                X             Y             Z
Electronic contribution:     10.31764       9.37171     -20.12703
Nuclear contribution   :    -10.70833      -9.29759      20.74395
                        -----------------------------------------
Total Dipole Moment    :     -0.39068       0.07413       0.61692
                        -----------------------------------------
Magnitude (a.u.)       :      0.73398
Magnitude (Debye)      :      1.86562

Rotational constants in cm-1:     0.020865     0.008052     0.007185
Rotational constants in MHz :   625.507037   241.384084   215.400559

                             ****ORCA TERMINATED NORMALLY****
TOTAL RUN TIME: 0 days 0 hours 0 minutes 22 seconds 75 msec
