                         Program Version 4.2.1 -  RELEASE  -
|  1> ! wB97X-D3 SP def2-SVP
|  2> %pal
|  3> nprocs 24
|  4> end
|  5>
|  6> * xyz 0 1
|  7> S 	 -117.036 	 30.7045 	 -20.6684
|  8> C 	 -116.894 	 29.966 	 -22.2809
|  9> C 	 -116.478 	 28.6758 	 -22.1206
| 10> C 	 -116.119 	 28.3555 	 -20.7791
| 11> C 	 -116.23 	 29.3765 	 -19.908
| 12> H 	 -115.738 	 27.359 	 -20.4724
| 13> C 	 -116.246 	 27.7475 	 -23.2608
| 14> H 	 -115.423 	 27.0681 	 -22.9802
| 15> H 	 -115.763 	 28.3158 	 -24.0709
| 16> C 	 -117.402 	 26.9154 	 -23.8001
| 17> H 	 -117.809 	 26.2549 	 -23.0154
| 18> H 	 -118.187 	 27.5611 	 -24.114
| 19> C 	 -117.006 	 26.1118 	 -25.0473
| 20> H 	 -116.425 	 26.6475 	 -25.7884
| 21> H 	 -116.444 	 25.1543 	 -24.7726
| 22> H 	 -117.841 	 25.8257 	 -25.674
| 23> S 	 -116.729 	 30.4268 	 -17.4591
| 24> C 	 -115.802 	 29.9134 	 -16.1072
| 25> C 	 -114.855 	 28.9809 	 -16.4839
| 26> C 	 -114.739 	 28.7779 	 -17.8718
| 27> C 	 -115.787 	 29.4487 	 -18.5465
| 28> H 	 -114.307 	 28.3549 	 -15.6974
| 29> C 	 -113.713 	 27.7463 	 -18.5607
| 30> H 	 -113.879 	 27.7337 	 -19.608
| 31> H 	 -114.037 	 26.8206 	 -18.1648
| 32> C 	 -112.237 	 27.8777 	 -18.3194
| 33> H 	 -112.154 	 27.858 	 -17.1815
| 34> H 	 -111.798 	 28.8081 	 -18.5771
| 35> C 	 -111.434 	 26.7839 	 -19.0852
| 36> H 	 -111.796 	 25.7573 	 -18.762
| 37> H 	 -110.361 	 26.6984 	 -18.8775
| 38> H 	 -111.452 	 26.8578 	 -20.1585
| 39> H 	 -117.13 	 30.4288 	 -23.1755
| 40> H 	 -115.915 	 30.2046 	 -15.103
| 41> *
| 42>
| 43>                          ****END OF INPUT****

CARTESIAN COORDINATES (ANGSTROEM)
---------------------------------
  S    -117.036000   30.704500  -20.668400
  C    -116.894000   29.966000  -22.280900
  C    -116.478000   28.675800  -22.120600
  C    -116.119000   28.355500  -20.779100
  C    -116.230000   29.376500  -19.908000
  H    -115.738000   27.359000  -20.472400
  C    -116.246000   27.747500  -23.260800
  H    -115.423000   27.068100  -22.980200
  H    -115.763000   28.315800  -24.070900
  C    -117.402000   26.915400  -23.800100
  H    -117.809000   26.254900  -23.015400
  H    -118.187000   27.561100  -24.114000
  C    -117.006000   26.111800  -25.047300
  H    -116.425000   26.647500  -25.788400
  H    -116.444000   25.154300  -24.772600
  H    -117.841000   25.825700  -25.674000
  S    -116.729000   30.426800  -17.459100
  C    -115.802000   29.913400  -16.107200
  C    -114.855000   28.980900  -16.483900
  C    -114.739000   28.777900  -17.871800
  C    -115.787000   29.448700  -18.546500
  H    -114.307000   28.354900  -15.697400
  C    -113.713000   27.746300  -18.560700
  H    -113.879000   27.733700  -19.608000
  H    -114.037000   26.820600  -18.164800
  C    -112.237000   27.877700  -18.319400
  H    -112.154000   27.858000  -17.181500
  H    -111.798000   28.808100  -18.577100
  C    -111.434000   26.783900  -19.085200
  H    -111.796000   25.757300  -18.762000
  H    -110.361000   26.698400  -18.877500
  H    -111.452000   26.857800  -20.158500
  H    -117.130000   30.428800  -23.175500
  H    -115.915000   30.204600  -15.103000

 Total Charge           Charge          ....    0
 Multiplicity           Mult            ....    1
 Number of Electrons    NEL             ....  134
 Basis Dimension        Dim             ....  322

ORBITAL ENERGIES
----------------

  NO   OCC          E(Eh)            E(eV)
   0   2.0000     -88.968796     -2420.9640
   1   2.0000     -88.960546     -2420.7395
   2   2.0000     -10.328035      -281.0401
   3   2.0000     -10.324001      -280.9304
   4   2.0000     -10.312637      -280.6211
   5   2.0000     -10.310872      -280.5731
   6   2.0000     -10.309556      -280.5373
   7   2.0000     -10.298482      -280.2360
   8   2.0000     -10.296622      -280.1853
   9   2.0000     -10.292594      -280.0757
  10   2.0000     -10.291211      -280.0381
  11   2.0000     -10.289893      -280.0022
  12   2.0000     -10.289270      -279.9853
  13   2.0000     -10.286857      -279.9196
  14   2.0000     -10.286589      -279.9123
  15   2.0000     -10.282110      -279.7905
  16   2.0000      -8.084191      -219.9820
  17   2.0000      -8.075779      -219.7531
  18   2.0000      -6.042629      -164.4283
  19   2.0000      -6.038531      -164.3168
  20   2.0000      -6.035072      -164.2226
  21   2.0000      -6.034465      -164.2061
  22   2.0000      -6.030301      -164.0928
  23   2.0000      -6.026227      -163.9820
  24   2.0000      -1.014082       -27.5946
  25   2.0000      -0.989271       -26.9194
  26   2.0000      -0.914600       -24.8875
  27   2.0000      -0.909423       -24.7467
  28   2.0000      -0.873935       -23.7810
  29   2.0000      -0.853537       -23.2259
  30   2.0000      -0.843203       -22.9447
  31   2.0000      -0.816069       -22.2064
  32   2.0000      -0.785502       -21.3746
  33   2.0000      -0.773707       -21.0536
  34   2.0000      -0.710276       -19.3276
  35   2.0000      -0.706155       -19.2155
  36   2.0000      -0.702220       -19.1084
  37   2.0000      -0.657478       -17.8909
  38   2.0000      -0.642378       -17.4800
  39   2.0000      -0.622913       -16.9503
  40   2.0000      -0.598389       -16.2830
  41   2.0000      -0.571269       -15.5450
  42   2.0000      -0.567916       -15.4538
  43   2.0000      -0.558085       -15.1863
  44   2.0000      -0.526549       -14.3281
  45   2.0000      -0.521400       -14.1880
  46   2.0000      -0.518848       -14.1186
  47   2.0000      -0.511752       -13.9255
  48   2.0000      -0.507247       -13.8029
  49   2.0000      -0.504878       -13.7384
  50   2.0000      -0.498400       -13.5621
  51   2.0000      -0.482543       -13.1307
  52   2.0000      -0.479599       -13.0506
  53   2.0000      -0.460891       -12.5415
  54   2.0000      -0.460408       -12.5283
  55   2.0000      -0.452131       -12.3031
  56   2.0000      -0.445798       -12.1308
  57   2.0000      -0.436439       -11.8761
  58   2.0000      -0.434098       -11.8124
  59   2.0000      -0.425365       -11.5748
  60   2.0000      -0.423084       -11.5127
  61   2.0000      -0.413872       -11.2620
  62   2.0000      -0.409093       -11.1320
  63   2.0000      -0.357350        -9.7240
  64   2.0000      -0.336720        -9.1626
  65   2.0000      -0.327868        -8.9217
  66   2.0000      -0.283983        -7.7276
  67   0.0000       0.022659         0.6166
  68   0.0000       0.080288         2.1848
  69   0.0000       0.097627         2.6566
  70   0.0000       0.118020         3.2115
  71   0.0000       0.142456         3.8764

MULLIKEN ATOMIC CHARGES
-----------------------
   0 S :    0.085752
   1 C :   -0.092225
   2 C :   -0.056075
   3 C :   -0.018696
   4 C :   -0.099562
   5 H :    0.023548
   6 C :    0.025103
   7 H :    0.013232
   8 H :    0.023014
   9 C :   -0.023492
  10 H :    0.035888
  11 H :    0.017686
  12 C :   -0.072344
  13 H :    0.022698
  14 H :    0.043269
  15 H :    0.028657
  16 S :    0.115545
  17 C :   -0.066595
  18 C :   -0.081882
  19 C :   -0.032511
  20 C :   -0.147531
  21 H :    0.047807
  22 C :    0.083993
  23 H :    0.012087
  24 H :    0.023219
  25 C :   -0.050582
  26 H :    0.028712
  27 H :    0.026712
  28 C :   -0.073796
  29 H :    0.027814
  30 H :    0.034460
  31 H :    0.037887
  32 H :    0.018206
  33 H :    0.040004
Sum of atomic charges:    0.0000000

LOEWDIN ATOMIC CHARGES
----------------------
   0 S :    0.386891
   1 C :   -0.168211
   2 C :   -0.063527
   3 C :   -0.073639
   4 C :   -0.191315
   5 H :    0.035856
   6 C :   -0.039832
   7 H :    0.029256
   8 H :    0.033138
   9 C :   -0.036558
  10 H :    0.030004
  11 H :    0.019750
  12 C :   -0.073716
  13 H :    0.022367
  14 H :    0.032389
  15 H :    0.025666
  16 S :    0.429003
  17 C :   -0.194166
  18 C :   -0.082660
  19 C :   -0.050698
  20 C :   -0.198958
  21 H :    0.043248
  22 C :   -0.020735
  23 H :    0.020623
  24 H :    0.027670
  25 C :   -0.040434
  26 H :    0.029396
  27 H :    0.020184
  28 C :   -0.071010
  29 H :    0.029021
  30 H :    0.028971
  31 H :    0.024375
  32 H :    0.014967
  33 H :    0.022686

  Mayer bond orders larger than 0.100000
B(  0-S ,  1-C ) :   1.1134 B(  0-S ,  4-C ) :   1.1375 B(  1-C ,  2-C ) :   1.6159
B(  1-C , 32-H ) :   0.9877 B(  2-C ,  3-C ) :   1.2291 B(  2-C ,  6-C ) :   1.0226
B(  3-C ,  4-C ) :   1.5814 B(  3-C ,  5-H ) :   0.9883 B(  4-C , 20-C ) :   1.0704
B(  6-C ,  7-H ) :   0.9403 B(  6-C ,  8-H ) :   0.9421 B(  6-C ,  9-C ) :   1.0660
B(  9-C , 10-H ) :   0.9536 B(  9-C , 11-H ) :   0.9549 B(  9-C , 12-C ) :   1.0796
B( 12-C , 13-H ) :   0.9729 B( 12-C , 14-H ) :   0.9762 B( 12-C , 15-H ) :   0.9745
B( 16-S , 17-C ) :   1.1619 B( 16-S , 20-C ) :   1.1562 B( 17-C , 18-C ) :   1.5929
B( 17-C , 20-C ) :   0.1087 B( 17-C , 33-H ) :   0.9743 B( 18-C , 19-C ) :   1.2802
B( 18-C , 21-H ) :   0.9714 B( 19-C , 20-C ) :   1.5600 B( 19-C , 22-C ) :   1.0107
B( 22-C , 23-H ) :   0.9370 B( 22-C , 24-H ) :   0.9369 B( 22-C , 25-C ) :   1.0636
B( 25-C , 26-H ) :   0.9553 B( 25-C , 27-H ) :   0.9574 B( 25-C , 28-C ) :   1.0699
B( 28-C , 29-H ) :   0.9756 B( 28-C , 30-H ) :   0.9752 B( 28-C , 31-H ) :   0.9760

Dispersion correction           -0.013204961
FINAL SINGLE POINT ENERGY     -1339.871425468549

DIPOLE MOMENT
-------------
                                X             Y             Z
Electronic contribution:    -14.92304      23.33155      16.20953
Nuclear contribution   :     15.29237     -23.93785     -16.43095
                        -----------------------------------------
Total Dipole Moment    :      0.36934      -0.60629      -0.22142
                        -----------------------------------------
Magnitude (a.u.)       :      0.74366
Magnitude (Debye)      :      1.89023

Rotational constants in cm-1:     0.016935     0.008400     0.006044
Rotational constants in MHz :   507.706982   251.836104   181.183767

                             ****ORCA TERMINATED NORMALLY****
TOTAL RUN TIME: 0 days 0 hours 0 minutes 20 seconds 954 msec
