                         Program Version 4.2.1 -  RELEASE  -
|  1> ! wB97X-D3 SP def2-SVP
|  2> %pal
|  3> nprocs 24
|  4> end
|  5>
|  6> * xyz 0 1
|  7> S 	 -113.472 	 23.2544 	 -114
|  8> C 	 -115.088 	 23.3588 	 -114.765
|  9> C 	 -116.005 	 23.8155 	 -113.834
| 10> C 	 -115.352 	 24.3662 	 -112.666
| 11> C 	 -114.014 	 24.0878 	 -112.555
| 12> H 	 -115.847 	 24.9481 	 -111.805
| 13> C 	 -117.447 	 23.9354 	 -114.138
| 14> H 	 -117.339 	 24.4961 	 -115.058
| 15> H 	 -117.959 	 24.6688 	 -113.442
| 16> C 	 -118.271 	 22.7062 	 -114.495
| 17> H 	 -117.931 	 22.2451 	 -115.457
| 18> H 	 -118.114 	 21.9084 	 -113.71
| 19> C 	 -119.728 	 23.0797 	 -114.622
| 20> H 	 -120.184 	 23.345 	 -113.669
| 21> H 	 -120.07 	 23.7605 	 -115.335
| 22> H 	 -120.156 	 22.1232 	 -114.907
| 23> S 	 -111.723 	 25.4214 	 -112.197
| 24> C 	 -110.953 	 25.4184 	 -110.643
| 25> C 	 -111.735 	 24.8941 	 -109.674
| 26> C 	 -112.904 	 24.2575 	 -110.229
| 27> C 	 -113.068 	 24.5299 	 -111.568
| 28> H 	 -111.404 	 24.8194 	 -108.681
| 29> C 	 -113.875 	 23.5991 	 -109.237
| 30> H 	 -114.863 	 23.6784 	 -109.707
| 31> H 	 -113.877 	 24.2232 	 -108.303
| 32> C 	 -113.361 	 22.1913 	 -108.815
| 33> H 	 -113.9 	 21.8039 	 -107.947
| 34> H 	 -112.287 	 22.2726 	 -108.517
| 35> C 	 -113.239 	 21.2357 	 -110.094
| 36> H 	 -114.184 	 20.9453 	 -110.587
| 37> H 	 -112.64 	 20.3374 	 -109.828
| 38> H 	 -112.677 	 21.7163 	 -110.877
| 39> H 	 -115.349 	 23.0027 	 -115.751
| 40> H 	 -109.915 	 25.7807 	 -110.48
| 41> *
| 42>
| 43>                          ****END OF INPUT****

CARTESIAN COORDINATES (ANGSTROEM)
---------------------------------
  S    -113.472000   23.254400  -114.000000
  C    -115.088000   23.358800  -114.765000
  C    -116.005000   23.815500  -113.834000
  C    -115.352000   24.366200  -112.666000
  C    -114.014000   24.087800  -112.555000
  H    -115.847000   24.948100  -111.805000
  C    -117.447000   23.935400  -114.138000
  H    -117.339000   24.496100  -115.058000
  H    -117.959000   24.668800  -113.442000
  C    -118.271000   22.706200  -114.495000
  H    -117.931000   22.245100  -115.457000
  H    -118.114000   21.908400  -113.710000
  C    -119.728000   23.079700  -114.622000
  H    -120.184000   23.345000  -113.669000
  H    -120.070000   23.760500  -115.335000
  H    -120.156000   22.123200  -114.907000
  S    -111.723000   25.421400  -112.197000
  C    -110.953000   25.418400  -110.643000
  C    -111.735000   24.894100  -109.674000
  C    -112.904000   24.257500  -110.229000
  C    -113.068000   24.529900  -111.568000
  H    -111.404000   24.819400  -108.681000
  C    -113.875000   23.599100  -109.237000
  H    -114.863000   23.678400  -109.707000
  H    -113.877000   24.223200  -108.303000
  C    -113.361000   22.191300  -108.815000
  H    -113.900000   21.803900  -107.947000
  H    -112.287000   22.272600  -108.517000
  C    -113.239000   21.235700  -110.094000
  H    -114.184000   20.945300  -110.587000
  H    -112.640000   20.337400  -109.828000
  H    -112.677000   21.716300  -110.877000
  H    -115.349000   23.002700  -115.751000
  H    -109.915000   25.780700  -110.480000

 Total Charge           Charge          ....    0
 Multiplicity           Mult            ....    1
 Number of Electrons    NEL             ....  134
 Basis Dimension        Dim             ....  322

ORBITAL ENERGIES
----------------

  NO   OCC          E(Eh)            E(eV)
   0   2.0000     -88.962974     -2420.8056
   1   2.0000     -88.961677     -2420.7703
   2   2.0000     -10.326068      -280.9866
   3   2.0000     -10.321104      -280.8515
   4   2.0000     -10.315227      -280.6916
   5   2.0000     -10.314932      -280.6836
   6   2.0000     -10.302816      -280.3539
   7   2.0000     -10.302425      -280.3432
   8   2.0000     -10.299525      -280.2643
   9   2.0000     -10.297032      -280.1965
  10   2.0000     -10.296745      -280.1887
  11   2.0000     -10.295052      -280.1426
  12   2.0000     -10.289347      -279.9874
  13   2.0000     -10.286633      -279.9135
  14   2.0000     -10.275225      -279.6031
  15   2.0000     -10.273601      -279.5589
  16   2.0000      -8.077456      -219.7988
  17   2.0000      -8.076935      -219.7846
  18   2.0000      -6.035927      -164.2459
  19   2.0000      -6.035578      -164.2364
  20   2.0000      -6.031842      -164.1348
  21   2.0000      -6.031535      -164.1264
  22   2.0000      -6.028135      -164.0339
  23   2.0000      -6.027586      -164.0190
  24   2.0000      -1.010133       -27.4871
  25   2.0000      -0.983564       -26.7641
  26   2.0000      -0.918340       -24.9893
  27   2.0000      -0.900315       -24.4988
  28   2.0000      -0.875499       -23.8235
  29   2.0000      -0.846092       -23.0233
  30   2.0000      -0.838744       -22.8234
  31   2.0000      -0.815362       -22.1871
  32   2.0000      -0.780567       -21.2403
  33   2.0000      -0.769296       -20.9336
  34   2.0000      -0.705629       -19.2011
  35   2.0000      -0.705451       -19.1963
  36   2.0000      -0.690900       -18.8004
  37   2.0000      -0.662552       -18.0290
  38   2.0000      -0.638204       -17.3664
  39   2.0000      -0.610519       -16.6131
  40   2.0000      -0.592175       -16.1139
  41   2.0000      -0.572664       -15.5830
  42   2.0000      -0.561749       -15.2860
  43   2.0000      -0.542049       -14.7499
  44   2.0000      -0.536819       -14.6076
  45   2.0000      -0.527597       -14.3566
  46   2.0000      -0.519540       -14.1374
  47   2.0000      -0.508151       -13.8275
  48   2.0000      -0.506123       -13.7723
  49   2.0000      -0.501273       -13.6403
  50   2.0000      -0.498154       -13.5554
  51   2.0000      -0.473313       -12.8795
  52   2.0000      -0.467978       -12.7343
  53   2.0000      -0.459716       -12.5095
  54   2.0000      -0.453961       -12.3529
  55   2.0000      -0.448878       -12.2146
  56   2.0000      -0.447215       -12.1693
  57   2.0000      -0.434263       -11.8169
  58   2.0000      -0.431395       -11.7389
  59   2.0000      -0.421888       -11.4802
  60   2.0000      -0.418844       -11.3973
  61   2.0000      -0.414339       -11.2747
  62   2.0000      -0.407967       -11.1013
  63   2.0000      -0.342086        -9.3086
  64   2.0000      -0.329436        -8.9644
  65   2.0000      -0.321816        -8.7571
  66   2.0000      -0.298791        -8.1305
  67   0.0000       0.032409         0.8819
  68   0.0000       0.071463         1.9446
  69   0.0000       0.111870         3.0441
  70   0.0000       0.115878         3.1532
  71   0.0000       0.128038         3.4841

MULLIKEN ATOMIC CHARGES
-----------------------
   0 S :    0.102337
   1 C :   -0.134301
   2 C :   -0.060714
   3 C :    0.006137
   4 C :   -0.149518
   5 H :    0.043718
   6 C :    0.021810
   7 H :    0.034641
   8 H :    0.031027
   9 C :   -0.084379
  10 H :    0.031374
  11 H :    0.042545
  12 C :   -0.019621
  13 H :    0.030246
  14 H :    0.025029
  15 H :    0.022983
  16 S :    0.111907
  17 C :   -0.101962
  18 C :   -0.002602
  19 C :   -0.063360
  20 C :   -0.176690
  21 H :    0.004033
  22 C :    0.067830
  23 H :    0.028058
  24 H :    0.036875
  25 C :   -0.076241
  26 H :    0.039892
  27 H :    0.031186
  28 C :   -0.070964
  29 H :    0.040258
  30 H :    0.036155
  31 H :    0.034500
  32 H :    0.049321
  33 H :    0.068488
Sum of atomic charges:   -0.0000000

LOEWDIN ATOMIC CHARGES
----------------------
   0 S :    0.383905
   1 C :   -0.187105
   2 C :   -0.061518
   3 C :   -0.074134
   4 C :   -0.198093
   5 H :    0.044340
   6 C :   -0.052798
   7 H :    0.040804
   8 H :    0.035879
   9 C :   -0.039176
  10 H :    0.026964
  11 H :    0.031511
  12 C :   -0.061959
  13 H :    0.026473
  14 H :    0.018245
  15 H :    0.030446
  16 S :    0.417701
  17 C :   -0.185164
  18 C :   -0.069754
  19 C :   -0.049853
  20 C :   -0.214357
  21 H :    0.024001
  22 C :   -0.032160
  23 H :    0.028038
  24 H :    0.036344
  25 C :   -0.038836
  26 H :    0.022937
  27 H :    0.029025
  28 C :   -0.071096
  29 H :    0.025683
  30 H :    0.027467
  31 H :    0.022851
  32 H :    0.026778
  33 H :    0.036613

  Mayer bond orders larger than 0.100000
B(  0-S ,  1-C ) :   1.1208 B(  0-S ,  4-C ) :   1.1371 B(  1-C ,  2-C ) :   1.6117
B(  1-C , 32-H ) :   0.9729 B(  2-C ,  3-C ) :   1.2178 B(  2-C ,  6-C ) :   1.0134
B(  3-C ,  4-C ) :   1.6124 B(  3-C ,  5-H ) :   0.9746 B(  4-C , 20-C ) :   1.0338
B(  6-C ,  7-H ) :   0.9322 B(  6-C ,  8-H ) :   0.9514 B(  6-C ,  9-C ) :   1.0576
B(  9-C , 10-H ) :   0.9509 B(  9-C , 11-H ) :   0.9576 B(  9-C , 12-C ) :   1.0846
B( 12-C , 13-H ) :   0.9730 B( 12-C , 14-H ) :   0.9763 B( 12-C , 15-H ) :   0.9709
B( 16-S , 17-C ) :   1.1543 B( 16-S , 20-C ) :   1.1407 B( 17-C , 18-C ) :   1.6270
B( 17-C , 33-H ) :   0.9603 B( 18-C , 19-C ) :   1.2218 B( 18-C , 21-H ) :   0.9934
B( 19-C , 20-C ) :   1.6140 B( 19-C , 22-C ) :   1.0260 B( 22-C , 23-H ) :   0.9449
B( 22-C , 24-H ) :   0.9427 B( 22-C , 25-C ) :   1.0551 B( 25-C , 26-H ) :   0.9623
B( 25-C , 27-H ) :   0.9585 B( 25-C , 28-C ) :   1.0551 B( 28-C , 29-H ) :   0.9791
B( 28-C , 30-H ) :   0.9776 B( 28-C , 31-H ) :   0.9724

Dispersion correction           -0.014600654
FINAL SINGLE POINT ENERGY     -1339.870238595258

DIPOLE MOMENT
-------------
                                X             Y             Z
Electronic contribution:     21.59713      11.63235      -5.69230
Nuclear contribution   :    -22.06486     -11.68513       5.94821
                        -----------------------------------------
Total Dipole Moment    :     -0.46774      -0.05277       0.25591
                        -----------------------------------------
Magnitude (a.u.)       :      0.53577
Magnitude (Debye)      :      1.36183

Rotational constants in cm-1:     0.022753     0.007641     0.006614
Rotational constants in MHz :   682.129291   229.066342   198.285298

                             ****ORCA TERMINATED NORMALLY****
TOTAL RUN TIME: 0 days 0 hours 0 minutes 21 seconds 641 msec
