                         Program Version 4.2.1 -  RELEASE  -
|  1> ! wB97X-D3 SP def2-SVP
|  2> %pal
|  3> nprocs 24
|  4> end
|  5>
|  6> * xyz 0 1
|  7> S 	 -107.04 	 68.6712 	 -7.15612
|  8> C 	 -106.354 	 70.2262 	 -7.49248
|  9> C 	 -105.684 	 70.0405 	 -8.73661
| 10> C 	 -105.742 	 68.7613 	 -9.3195
| 11> C 	 -106.411 	 67.8667 	 -8.58255
| 12> H 	 -105.405 	 68.2869 	 -10.2617
| 13> C 	 -105.128 	 71.1927 	 -9.51986
| 14> H 	 -105.15 	 72.1421 	 -8.96354
| 15> H 	 -105.862 	 71.3473 	 -10.3111
| 16> C 	 -103.786 	 70.9723 	 -10.1421
| 17> H 	 -103.167 	 70.7031 	 -9.2716
| 18> H 	 -103.942 	 70.0547 	 -10.819
| 19> C 	 -103.118 	 72.1353 	 -10.7727
| 20> H 	 -103.514 	 72.3502 	 -11.7294
| 21> H 	 -103.125 	 73.0467 	 -10.1353
| 22> H 	 -102.071 	 71.9394 	 -10.9479
| 23> S 	 -106.286 	 65.2152 	 -7.60703
| 24> C 	 -106.758 	 63.8415 	 -8.50192
| 25> C 	 -107.284 	 64.1741 	 -9.73052
| 26> C 	 -107.169 	 65.5929 	 -9.93993
| 27> C 	 -106.689 	 66.4429 	 -8.85382
| 28> H 	 -107.54 	 63.474 	 -10.4681
| 29> C 	 -107.663 	 66.1751 	 -11.2587
| 30> H 	 -107.546 	 65.4885 	 -12.0832
| 31> H 	 -107.033 	 67.0233 	 -11.5721
| 32> C 	 -109.088 	 66.7451 	 -11.2297
| 33> H 	 -109.68 	 66.2465 	 -10.3853
| 34> H 	 -109.446 	 66.3542 	 -12.1393
| 35> C 	 -109.099 	 68.2582 	 -11.2629
| 36> H 	 -108.682 	 68.7899 	 -10.3848
| 37> H 	 -110.14 	 68.5772 	 -11.2357
| 38> H 	 -108.734 	 68.7145 	 -12.1423
| 39> H 	 -106.427 	 71.171 	 -6.94435
| 40> H 	 -106.536 	 62.7818 	 -8.16706
| 41> *
| 42>
| 43>                          ****END OF INPUT****

CARTESIAN COORDINATES (ANGSTROEM)
---------------------------------
  S    -107.040000   68.671200   -7.156120
  C    -106.354000   70.226200   -7.492480
  C    -105.684000   70.040500   -8.736610
  C    -105.742000   68.761300   -9.319500
  C    -106.411000   67.866700   -8.582550
  H    -105.405000   68.286900  -10.261700
  C    -105.128000   71.192700   -9.519860
  H    -105.150000   72.142100   -8.963540
  H    -105.862000   71.347300  -10.311100
  C    -103.786000   70.972300  -10.142100
  H    -103.167000   70.703100   -9.271600
  H    -103.942000   70.054700  -10.819000
  C    -103.118000   72.135300  -10.772700
  H    -103.514000   72.350200  -11.729400
  H    -103.125000   73.046700  -10.135300
  H    -102.071000   71.939400  -10.947900
  S    -106.286000   65.215200   -7.607030
  C    -106.758000   63.841500   -8.501920
  C    -107.284000   64.174100   -9.730520
  C    -107.169000   65.592900   -9.939930
  C    -106.689000   66.442900   -8.853820
  H    -107.540000   63.474000  -10.468100
  C    -107.663000   66.175100  -11.258700
  H    -107.546000   65.488500  -12.083200
  H    -107.033000   67.023300  -11.572100
  C    -109.088000   66.745100  -11.229700
  H    -109.680000   66.246500  -10.385300
  H    -109.446000   66.354200  -12.139300
  C    -109.099000   68.258200  -11.262900
  H    -108.682000   68.789900  -10.384800
  H    -110.140000   68.577200  -11.235700
  H    -108.734000   68.714500  -12.142300
  H    -106.427000   71.171000   -6.944350
  H    -106.536000   62.781800   -8.167060

 Total Charge           Charge          ....    0
 Multiplicity           Mult            ....    1
 Number of Electrons    NEL             ....  134
 Basis Dimension        Dim             ....  322

ORBITAL ENERGIES
----------------

  NO   OCC          E(Eh)            E(eV)
   0   2.0000     -88.964866     -2420.8571
   1   2.0000     -88.964237     -2420.8400
   2   2.0000     -10.340164      -281.3702
   3   2.0000     -10.332858      -281.1714
   4   2.0000     -10.324680      -280.9488
   5   2.0000     -10.321934      -280.8741
   6   2.0000     -10.315995      -280.7125
   7   2.0000     -10.304677      -280.4045
   8   2.0000     -10.294639      -280.1314
   9   2.0000     -10.292540      -280.0743
  10   2.0000     -10.284622      -279.8588
  11   2.0000     -10.284363      -279.8517
  12   2.0000     -10.283227      -279.8208
  13   2.0000     -10.282628      -279.8045
  14   2.0000     -10.273732      -279.5625
  15   2.0000     -10.270343      -279.4702
  16   2.0000      -8.079599      -219.8571
  17   2.0000      -8.079052      -219.8422
  18   2.0000      -6.038075      -164.3044
  19   2.0000      -6.037621      -164.2920
  20   2.0000      -6.033746      -164.1866
  21   2.0000      -6.033262      -164.1734
  22   2.0000      -6.030704      -164.1038
  23   2.0000      -6.029966      -164.0837
  24   2.0000      -1.008837       -27.4519
  25   2.0000      -0.987038       -26.8587
  26   2.0000      -0.918593       -24.9962
  27   2.0000      -0.908975       -24.7345
  28   2.0000      -0.873901       -23.7801
  29   2.0000      -0.852357       -23.1938
  30   2.0000      -0.845332       -23.0026
  31   2.0000      -0.822220       -22.3737
  32   2.0000      -0.782317       -21.2879
  33   2.0000      -0.769091       -20.9280
  34   2.0000      -0.709534       -19.3074
  35   2.0000      -0.691857       -18.8264
  36   2.0000      -0.689062       -18.7503
  37   2.0000      -0.657010       -17.8781
  38   2.0000      -0.648378       -17.6433
  39   2.0000      -0.621116       -16.9014
  40   2.0000      -0.598582       -16.2882
  41   2.0000      -0.575309       -15.6550
  42   2.0000      -0.570761       -15.5312
  43   2.0000      -0.553811       -15.0700
  44   2.0000      -0.532273       -14.4839
  45   2.0000      -0.527543       -14.3552
  46   2.0000      -0.518192       -14.1007
  47   2.0000      -0.515041       -14.0150
  48   2.0000      -0.505835       -13.7645
  49   2.0000      -0.502250       -13.6669
  50   2.0000      -0.497969       -13.5504
  51   2.0000      -0.484871       -13.1940
  52   2.0000      -0.477265       -12.9871
  53   2.0000      -0.471229       -12.8228
  54   2.0000      -0.462166       -12.5762
  55   2.0000      -0.450792       -12.2667
  56   2.0000      -0.435472       -11.8498
  57   2.0000      -0.428067       -11.6483
  58   2.0000      -0.421949       -11.4818
  59   2.0000      -0.419207       -11.4072
  60   2.0000      -0.415515       -11.3067
  61   2.0000      -0.404974       -11.0199
  62   2.0000      -0.401728       -10.9316
  63   2.0000      -0.352898        -9.6029
  64   2.0000      -0.330083        -8.9820
  65   2.0000      -0.325290        -8.8516
  66   2.0000      -0.291929        -7.9438
  67   0.0000       0.027916         0.7596
  68   0.0000       0.062219         1.6931
  69   0.0000       0.114497         3.1156
  70   0.0000       0.122714         3.3392
  71   0.0000       0.136756         3.7213

MULLIKEN ATOMIC CHARGES
-----------------------
   0 S :    0.107319
   1 C :   -0.108920
   2 C :   -0.092006
   3 C :    0.013964
   4 C :   -0.146356
   5 H :    0.030596
   6 C :    0.069822
   7 H :    0.002195
   8 H :    0.027886
   9 C :   -0.129699
  10 H :    0.030341
  11 H :    0.043711
  12 C :    0.005589
  13 H :    0.017645
  14 H :    0.029709
  15 H :    0.027720
  16 S :    0.100611
  17 C :   -0.101236
  18 C :   -0.003877
  19 C :   -0.066412
  20 C :   -0.141973
  21 H :    0.008249
  22 C :    0.040622
  23 H :    0.010448
  24 H :    0.007908
  25 C :   -0.040198
  26 H :    0.050636
  27 H :    0.009157
  28 C :   -0.046055
  29 H :    0.049211
  30 H :    0.019756
  31 H :    0.021377
  32 H :    0.064820
  33 H :    0.087438
Sum of atomic charges:    0.0000000

LOEWDIN ATOMIC CHARGES
----------------------
   0 S :    0.414667
   1 C :   -0.210619
   2 C :   -0.061475
   3 C :   -0.076777
   4 C :   -0.190697
   5 H :    0.044708
   6 C :   -0.040654
   7 H :    0.023332
   8 H :    0.029717
   9 C :   -0.054222
  10 H :    0.028160
  11 H :    0.032018
  12 C :   -0.062551
  13 H :    0.018584
  14 H :    0.030955
  15 H :    0.028632
  16 S :    0.418206
  17 C :   -0.196584
  18 C :   -0.080221
  19 C :   -0.042979
  20 C :   -0.204061
  21 H :    0.027253
  22 C :   -0.040477
  23 H :    0.023111
  24 H :    0.027261
  25 C :   -0.038292
  26 H :    0.036439
  27 H :    0.018986
  28 C :   -0.069776
  29 H :    0.032506
  30 H :    0.027518
  31 H :    0.018812
  32 H :    0.041649
  33 H :    0.046873

  Mayer bond orders larger than 0.100000
B(  0-S ,  1-C ) :   1.1403 B(  0-S ,  4-C ) :   1.1575 B(  1-C ,  2-C ) :   1.5623
B(  1-C ,  4-C ) :   0.1062 B(  1-C , 32-H ) :   0.9748 B(  2-C ,  3-C ) :   1.2194
B(  2-C ,  6-C ) :   1.0399 B(  3-C ,  4-C ) :   1.6020 B(  3-C ,  5-H ) :   0.9880
B(  4-C , 20-C ) :   1.0307 B(  6-C ,  7-H ) :   0.9374 B(  6-C ,  8-H ) :   0.9336
B(  6-C ,  9-C ) :   1.0604 B(  9-C , 10-H ) :   0.9562 B(  9-C , 11-H ) :   0.9462
B(  9-C , 12-C ) :   1.1016 B( 12-C , 13-H ) :   0.9694 B( 12-C , 14-H ) :   0.9668
B( 12-C , 15-H ) :   0.9698 B( 16-S , 17-C ) :   1.2110 B( 16-S , 20-C ) :   1.1334
B( 17-C , 18-C ) :   1.5332 B( 17-C , 20-C ) :   0.1090 B( 17-C , 33-H ) :   0.9555
B( 18-C , 19-C ) :   1.2928 B( 18-C , 21-H ) :   1.0016 B( 19-C , 20-C ) :   1.5194
B( 19-C , 22-C ) :   1.0625 B( 22-C , 23-H ) :   0.9397 B( 22-C , 24-H ) :   0.9402
B( 22-C , 25-C ) :   1.0368 B( 25-C , 26-H ) :   0.9612 B( 25-C , 27-H ) :   0.9519
B( 25-C , 28-C ) :   1.0975 B( 28-C , 29-H ) :   0.9732 B( 28-C , 30-H ) :   0.9678
B( 28-C , 31-H ) :   0.9697

Dispersion correction           -0.014712065
FINAL SINGLE POINT ENERGY     -1339.850624443018

DIPOLE MOMENT
-------------
                                X             Y             Z
Electronic contribution:     -2.45049     -16.75882      21.40948
Nuclear contribution   :      2.49414      16.88594     -22.12389
                        -----------------------------------------
Total Dipole Moment    :      0.04365       0.12712      -0.71441
                        -----------------------------------------
Magnitude (a.u.)       :      0.72694
Magnitude (Debye)      :      1.84774

Rotational constants in cm-1:     0.019600     0.008190     0.007254
Rotational constants in MHz :   587.608119   245.540177   217.455059

                             ****ORCA TERMINATED NORMALLY****
TOTAL RUN TIME: 0 days 0 hours 0 minutes 22 seconds 9 msec
