                         Program Version 4.2.1 -  RELEASE  -
|  1> ! wB97X-D3 SP def2-SVP
|  2> %pal
|  3> nprocs 24
|  4> end
|  5>
|  6> * xyz 0 1
|  7> S 	 -55.8541 	 13.802 	 -91.82
|  8> C 	 -54.6661 	 12.505 	 -91.7712
|  9> C 	 -53.4064 	 12.9361 	 -92.1534
| 10> C 	 -53.3325 	 14.358 	 -92.2024
| 11> C 	 -54.5652 	 15.0148 	 -92.0207
| 12> H 	 -52.4314 	 14.8703 	 -92.5751
| 13> C 	 -52.16 	 12.144 	 -92.3963
| 14> H 	 -52.0302 	 12.0426 	 -93.439
| 15> H 	 -52.2447 	 11.1327 	 -91.9853
| 16> C 	 -50.9346 	 12.6835 	 -91.8364
| 17> H 	 -50.6985 	 13.5098 	 -92.5047
| 18> H 	 -51.0875 	 13.2023 	 -90.9092
| 19> C 	 -49.8432 	 11.6328 	 -91.6599
| 20> H 	 -48.859 	 12.0815 	 -91.4418
| 21> H 	 -50.1119 	 10.962 	 -90.8125
| 22> H 	 -49.7326 	 10.9988 	 -92.4604
| 23> S 	 -56.3546 	 16.7559 	 -93.0472
| 24> C 	 -55.8676 	 18.4317 	 -93.2847
| 25> C 	 -54.608 	 18.6799 	 -92.7348
| 26> C 	 -53.9635 	 17.5196 	 -92.2531
| 27> C 	 -54.861 	 16.4353 	 -92.2061
| 28> H 	 -54.2639 	 19.6196 	 -92.7189
| 29> C 	 -52.5777 	 17.6109 	 -91.6645
| 30> H 	 -52.3277 	 16.7432 	 -91.086
| 31> H 	 -52.5569 	 18.3896 	 -90.9052
| 32> C 	 -51.4095 	 17.9598 	 -92.6043
| 33> H 	 -51.5203 	 18.8903 	 -93.0894
| 34> H 	 -51.4438 	 17.2168 	 -93.352
| 35> C 	 -50.0007 	 18.0513 	 -91.963
| 36> H 	 -49.21 	 18.4497 	 -92.7042
| 37> H 	 -49.6967 	 17.0662 	 -91.6705
| 38> H 	 -49.8373 	 18.7483 	 -91.2
| 39> H 	 -54.8683 	 11.4439 	 -91.9031
| 40> H 	 -56.5543 	 19.0798 	 -93.739
| 41> *
| 42>
| 43>                          ****END OF INPUT****

CARTESIAN COORDINATES (ANGSTROEM)
---------------------------------
  S    -55.854100   13.802000  -91.820000
  C    -54.666100   12.505000  -91.771200
  C    -53.406400   12.936100  -92.153400
  C    -53.332500   14.358000  -92.202400
  C    -54.565200   15.014800  -92.020700
  H    -52.431400   14.870300  -92.575100
  C    -52.160000   12.144000  -92.396300
  H    -52.030200   12.042600  -93.439000
  H    -52.244700   11.132700  -91.985300
  C    -50.934600   12.683500  -91.836400
  H    -50.698500   13.509800  -92.504700
  H    -51.087500   13.202300  -90.909200
  C    -49.843200   11.632800  -91.659900
  H    -48.859000   12.081500  -91.441800
  H    -50.111900   10.962000  -90.812500
  H    -49.732600   10.998800  -92.460400
  S    -56.354600   16.755900  -93.047200
  C    -55.867600   18.431700  -93.284700
  C    -54.608000   18.679900  -92.734800
  C    -53.963500   17.519600  -92.253100
  C    -54.861000   16.435300  -92.206100
  H    -54.263900   19.619600  -92.718900
  C    -52.577700   17.610900  -91.664500
  H    -52.327700   16.743200  -91.086000
  H    -52.556900   18.389600  -90.905200
  C    -51.409500   17.959800  -92.604300
  H    -51.520300   18.890300  -93.089400
  H    -51.443800   17.216800  -93.352000
  C    -50.000700   18.051300  -91.963000
  H    -49.210000   18.449700  -92.704200
  H    -49.696700   17.066200  -91.670500
  H    -49.837300   18.748300  -91.200000
  H    -54.868300   11.443900  -91.903100
  H    -56.554300   19.079800  -93.739000

 Total Charge           Charge          ....    0
 Multiplicity           Mult            ....    1
 Number of Electrons    NEL             ....  134
 Basis Dimension        Dim             ....  322

ORBITAL ENERGIES
----------------

  NO   OCC          E(Eh)            E(eV)
   0   2.0000     -88.967815     -2420.9373
   1   2.0000     -88.967564     -2420.9305
   2   2.0000     -10.335551      -281.2446
   3   2.0000     -10.330265      -281.1008
   4   2.0000     -10.318746      -280.7874
   5   2.0000     -10.311043      -280.5777
   6   2.0000     -10.307513      -280.4817
   7   2.0000     -10.298145      -280.2268
   8   2.0000     -10.293916      -280.1117
   9   2.0000     -10.290952      -280.0310
  10   2.0000     -10.290494      -280.0186
  11   2.0000     -10.284218      -279.8478
  12   2.0000     -10.282593      -279.8036
  13   2.0000     -10.281841      -279.7831
  14   2.0000     -10.278309      -279.6870
  15   2.0000     -10.278074      -279.6806
  16   2.0000      -8.082553      -219.9374
  17   2.0000      -8.081605      -219.9117
  18   2.0000      -6.040925      -164.3819
  19   2.0000      -6.040316      -164.3653
  20   2.0000      -6.037078      -164.2773
  21   2.0000      -6.036356      -164.2576
  22   2.0000      -6.033388      -164.1768
  23   2.0000      -6.032130      -164.1426
  24   2.0000      -1.005652       -27.3652
  25   2.0000      -0.981929       -26.7197
  26   2.0000      -0.928075       -25.2542
  27   2.0000      -0.911760       -24.8102
  28   2.0000      -0.871171       -23.7058
  29   2.0000      -0.856648       -23.3106
  30   2.0000      -0.845939       -23.0192
  31   2.0000      -0.811804       -22.0903
  32   2.0000      -0.787678       -21.4338
  33   2.0000      -0.777907       -21.1679
  34   2.0000      -0.716025       -19.4840
  35   2.0000      -0.706977       -19.2378
  36   2.0000      -0.695147       -18.9159
  37   2.0000      -0.671860       -18.2822
  38   2.0000      -0.635513       -17.2932
  39   2.0000      -0.623831       -16.9753
  40   2.0000      -0.606627       -16.5072
  41   2.0000      -0.580150       -15.7867
  42   2.0000      -0.573366       -15.6021
  43   2.0000      -0.566476       -15.4146
  44   2.0000      -0.532371       -14.4865
  45   2.0000      -0.522651       -14.2220
  46   2.0000      -0.522512       -14.2183
  47   2.0000      -0.511058       -13.9066
  48   2.0000      -0.503072       -13.6893
  49   2.0000      -0.493329       -13.4242
  50   2.0000      -0.489729       -13.3262
  51   2.0000      -0.486348       -13.2342
  52   2.0000      -0.475850       -12.9485
  53   2.0000      -0.469872       -12.7859
  54   2.0000      -0.460432       -12.5290
  55   2.0000      -0.454359       -12.3637
  56   2.0000      -0.448431       -12.2024
  57   2.0000      -0.444089       -12.0843
  58   2.0000      -0.431410       -11.7393
  59   2.0000      -0.428848       -11.6695
  60   2.0000      -0.423068       -11.5123
  61   2.0000      -0.421968       -11.4823
  62   2.0000      -0.409556       -11.1446
  63   2.0000      -0.356997        -9.7144
  64   2.0000      -0.336346        -9.1524
  65   2.0000      -0.327485        -8.9113
  66   2.0000      -0.280184        -7.6242
  67   0.0000       0.016571         0.4509
  68   0.0000       0.072974         1.9857
  69   0.0000       0.099269         2.7013
  70   0.0000       0.115417         3.1407
  71   0.0000       0.126828         3.4512

MULLIKEN ATOMIC CHARGES
-----------------------
   0 S :    0.091977
   1 C :   -0.097268
   2 C :   -0.118026
   3 C :   -0.028711
   4 C :   -0.110334
   5 H :    0.019596
   6 C :    0.100557
   7 H :    0.029964
   8 H :    0.009101
   9 C :   -0.100262
  10 H :    0.018553
  11 H :    0.027688
  12 C :   -0.011670
  13 H :    0.035688
  14 H :    0.036590
  15 H :    0.010686
  16 S :    0.088002
  17 C :   -0.083574
  18 C :    0.037785
  19 C :   -0.040912
  20 C :   -0.095479
  21 H :   -0.028858
  22 C :    0.050738
  23 H :    0.016091
  24 H :    0.021603
  25 C :   -0.039850
  26 H :    0.017144
  27 H :    0.014761
  28 C :   -0.057018
  29 H :    0.037185
  30 H :    0.028709
  31 H :    0.023472
  32 H :    0.050928
  33 H :    0.045144
Sum of atomic charges:   -0.0000000

LOEWDIN ATOMIC CHARGES
----------------------
   0 S :    0.384943
   1 C :   -0.207184
   2 C :   -0.055054
   3 C :   -0.075200
   4 C :   -0.175054
   5 H :    0.031923
   6 C :   -0.032675
   7 H :    0.031933
   8 H :    0.028477
   9 C :   -0.046679
  10 H :    0.019837
  11 H :    0.023640
  12 C :   -0.054859
  13 H :    0.031242
  14 H :    0.033377
  15 H :    0.011509
  16 S :    0.407022
  17 C :   -0.164202
  18 C :   -0.045498
  19 C :   -0.050154
  20 C :   -0.196309
  21 H :    0.011726
  22 C :   -0.033243
  23 H :    0.026347
  24 H :    0.032288
  25 C :   -0.031483
  26 H :    0.017973
  27 H :    0.016358
  28 C :   -0.063264
  29 H :    0.039239
  30 H :    0.019997
  31 H :    0.016507
  32 H :    0.030894
  33 H :    0.015624

  Mayer bond orders larger than 0.100000
B(  0-S ,  1-C ) :   1.1214 B(  0-S ,  4-C ) :   1.1469 B(  1-C ,  2-C ) :   1.6398
B(  1-C , 32-H ) :   0.9540 B(  2-C ,  3-C ) :   1.2630 B(  2-C ,  6-C ) :   1.0237
B(  3-C ,  4-C ) :   1.5507 B(  3-C ,  5-H ) :   0.9773 B(  4-C , 20-C ) :   1.0584
B(  6-C ,  7-H ) :   0.9149 B(  6-C ,  8-H ) :   0.9464 B(  6-C ,  9-C ) :   1.0731
B(  9-C , 10-H ) :   0.9382 B(  9-C , 11-H ) :   0.9619 B(  9-C , 12-C ) :   1.0870
B( 12-C , 13-H ) :   0.9723 B( 12-C , 14-H ) :   0.9701 B( 12-C , 15-H ) :   0.9740
B( 16-S , 17-C ) :   1.1649 B( 16-S , 20-C ) :   1.1477 B( 17-C , 18-C ) :   1.5683
B( 17-C , 20-C ) :   0.1002 B( 17-C , 33-H ) :   0.9784 B( 18-C , 19-C ) :   1.2463
B( 18-C , 21-H ) :   1.0159 B( 19-C , 20-C ) :   1.5658 B( 19-C , 22-C ) :   1.0483
B( 22-C , 23-H ) :   0.9398 B( 22-C , 24-H ) :   0.9338 B( 22-C , 25-C ) :   1.0533
B( 25-C , 26-H ) :   0.9551 B( 25-C , 27-H ) :   0.9549 B( 25-C , 28-C ) :   1.0841
B( 28-C , 29-H ) :   0.9735 B( 28-C , 30-H ) :   0.9772 B( 28-C , 31-H ) :   0.9756

Dispersion correction           -0.013913280
FINAL SINGLE POINT ENERGY     -1339.856577333300

DIPOLE MOMENT
-------------
                                X             Y             Z
Electronic contribution:    -34.29559       2.36191      -2.21107
Nuclear contribution   :     35.06251      -2.16009       1.94113
                        -----------------------------------------
Total Dipole Moment    :      0.76692       0.20182      -0.26994
                        -----------------------------------------
Magnitude (a.u.)       :      0.83772
Magnitude (Debye)      :      2.12930

Rotational constants in cm-1:     0.015892     0.010151     0.006407
Rotational constants in MHz :   476.433368   304.313505   192.086938

                             ****ORCA TERMINATED NORMALLY****
TOTAL RUN TIME: 0 days 0 hours 0 minutes 22 seconds 74 msec
