                         Program Version 4.2.1 -  RELEASE  -
|  1> ! wB97X-D3 SP def2-SVP
|  2> %pal
|  3> nprocs 24
|  4> end
|  5>
|  6> * xyz 0 1
|  7> S 	 45.8085 	 -18.9008 	 -110.615
|  8> C 	 45.7225 	 -18.5618 	 -108.947
|  9> C 	 45.3452 	 -19.685 	 -108.226
| 10> C 	 45.0017 	 -20.7542 	 -109.114
| 11> C 	 45.2082 	 -20.4948 	 -110.482
| 12> H 	 44.7244 	 -21.7044 	 -108.754
| 13> C 	 45.2188 	 -19.7799 	 -106.742
| 14> H 	 45.3403 	 -20.8501 	 -106.425
| 15> H 	 44.1958 	 -19.5207 	 -106.538
| 16> C 	 46.1858 	 -18.9054 	 -105.886
| 17> H 	 47.2269 	 -19.2438 	 -105.979
| 18> H 	 46.262 	 -17.8692 	 -106.159
| 19> C 	 45.7901 	 -19.0623 	 -104.394
| 20> H 	 44.7519 	 -19.2837 	 -104.266
| 21> H 	 46.3453 	 -19.8342 	 -103.931
| 22> H 	 46.0175 	 -18.2002 	 -103.768
| 23> S 	 46.4936 	 -21.8863 	 -112.541
| 24> C 	 45.5504 	 -23.0945 	 -113.367
| 25> C 	 44.2587 	 -23.2597 	 -112.861
| 26> C 	 43.9588 	 -22.3421 	 -111.798
| 27> C 	 45.0247 	 -21.4527 	 -111.573
| 28> H 	 43.5983 	 -23.9852 	 -113.341
| 29> C 	 42.5297 	 -22.1671 	 -111.32
| 30> H 	 42.4947 	 -21.9739 	 -110.258
| 31> H 	 41.931 	 -23.0696 	 -111.565
| 32> C 	 41.7646 	 -21.0315 	 -111.94
| 33> H 	 42.3192 	 -20.7635 	 -112.859
| 34> H 	 41.8533 	 -20.1853 	 -111.258
| 35> C 	 40.2298 	 -21.2101 	 -112.042
| 36> H 	 39.7432 	 -21.154 	 -111.067
| 37> H 	 39.9141 	 -22.1593 	 -112.49
| 38> H 	 39.8197 	 -20.4383 	 -112.692
| 39> H 	 46.3226 	 -17.771 	 -108.471
| 40> H 	 45.9192 	 -23.6622 	 -114.191
| 41> *
| 42>
| 43>                          ****END OF INPUT****

CARTESIAN COORDINATES (ANGSTROEM)
---------------------------------
  S     45.808500  -18.900800  -110.615000
  C     45.722500  -18.561800  -108.947000
  C     45.345200  -19.685000  -108.226000
  C     45.001700  -20.754200  -109.114000
  C     45.208200  -20.494800  -110.482000
  H     44.724400  -21.704400  -108.754000
  C     45.218800  -19.779900  -106.742000
  H     45.340300  -20.850100  -106.425000
  H     44.195800  -19.520700  -106.538000
  C     46.185800  -18.905400  -105.886000
  H     47.226900  -19.243800  -105.979000
  H     46.262000  -17.869200  -106.159000
  C     45.790100  -19.062300  -104.394000
  H     44.751900  -19.283700  -104.266000
  H     46.345300  -19.834200  -103.931000
  H     46.017500  -18.200200  -103.768000
  S     46.493600  -21.886300  -112.541000
  C     45.550400  -23.094500  -113.367000
  C     44.258700  -23.259700  -112.861000
  C     43.958800  -22.342100  -111.798000
  C     45.024700  -21.452700  -111.573000
  H     43.598300  -23.985200  -113.341000
  C     42.529700  -22.167100  -111.320000
  H     42.494700  -21.973900  -110.258000
  H     41.931000  -23.069600  -111.565000
  C     41.764600  -21.031500  -111.940000
  H     42.319200  -20.763500  -112.859000
  H     41.853300  -20.185300  -111.258000
  C     40.229800  -21.210100  -112.042000
  H     39.743200  -21.154000  -111.067000
  H     39.914100  -22.159300  -112.490000
  H     39.819700  -20.438300  -112.692000
  H     46.322600  -17.771000  -108.471000
  H     45.919200  -23.662200  -114.191000

 Total Charge           Charge          ....    0
 Multiplicity           Mult            ....    1
 Number of Electrons    NEL             ....  134
 Basis Dimension        Dim             ....  322

ORBITAL ENERGIES
----------------

  NO   OCC          E(Eh)            E(eV)
   0   2.0000     -88.969165     -2420.9741
   1   2.0000     -88.964461     -2420.8461
   2   2.0000     -10.333252      -281.1821
   3   2.0000     -10.327652      -281.0297
   4   2.0000     -10.318309      -280.7755
   5   2.0000     -10.309491      -280.5355
   6   2.0000     -10.307530      -280.4821
   7   2.0000     -10.298499      -280.2364
   8   2.0000     -10.297889      -280.2198
   9   2.0000     -10.296903      -280.1930
  10   2.0000     -10.291372      -280.0425
  11   2.0000     -10.289281      -279.9856
  12   2.0000     -10.287732      -279.9434
  13   2.0000     -10.280304      -279.7413
  14   2.0000     -10.279422      -279.7173
  15   2.0000     -10.273340      -279.5518
  16   2.0000      -8.083098      -219.9523
  17   2.0000      -8.080483      -219.8811
  18   2.0000      -6.041509      -164.3978
  19   2.0000      -6.038873      -164.3261
  20   2.0000      -6.037803      -164.2970
  21   2.0000      -6.034563      -164.2088
  22   2.0000      -6.033929      -164.1916
  23   2.0000      -6.031544      -164.1267
  24   2.0000      -1.006956       -27.4007
  25   2.0000      -0.982250       -26.7284
  26   2.0000      -0.911923       -24.8147
  27   2.0000      -0.910340       -24.7716
  28   2.0000      -0.866364       -23.5750
  29   2.0000      -0.852692       -23.2029
  30   2.0000      -0.847411       -23.0592
  31   2.0000      -0.808933       -22.0122
  32   2.0000      -0.783810       -21.3285
  33   2.0000      -0.771271       -20.9874
  34   2.0000      -0.715427       -19.4678
  35   2.0000      -0.702831       -19.1250
  36   2.0000      -0.684843       -18.6355
  37   2.0000      -0.661631       -18.0039
  38   2.0000      -0.638524       -17.3751
  39   2.0000      -0.615384       -16.7455
  40   2.0000      -0.597678       -16.2636
  41   2.0000      -0.572039       -15.5660
  42   2.0000      -0.565917       -15.3994
  43   2.0000      -0.561355       -15.2752
  44   2.0000      -0.525123       -14.2893
  45   2.0000      -0.524535       -14.2733
  46   2.0000      -0.514120       -13.9899
  47   2.0000      -0.510713       -13.8972
  48   2.0000      -0.509976       -13.8772
  49   2.0000      -0.494824       -13.4649
  50   2.0000      -0.489956       -13.3324
  51   2.0000      -0.478314       -13.0156
  52   2.0000      -0.473151       -12.8751
  53   2.0000      -0.463709       -12.6182
  54   2.0000      -0.457888       -12.4598
  55   2.0000      -0.449973       -12.2444
  56   2.0000      -0.449673       -12.2362
  57   2.0000      -0.437976       -11.9179
  58   2.0000      -0.433775       -11.8036
  59   2.0000      -0.424169       -11.5422
  60   2.0000      -0.423023       -11.5111
  61   2.0000      -0.418777       -11.3955
  62   2.0000      -0.408248       -11.1090
  63   2.0000      -0.341359        -9.2888
  64   2.0000      -0.334238        -9.0951
  65   2.0000      -0.326713        -8.8903
  66   2.0000      -0.292782        -7.9670
  67   0.0000       0.025618         0.6971
  68   0.0000       0.069199         1.8830
  69   0.0000       0.109567         2.9815
  70   0.0000       0.122678         3.3382
  71   0.0000       0.129333         3.5193

MULLIKEN ATOMIC CHARGES
-----------------------
   0 S :    0.119327
   1 C :   -0.128654
   2 C :   -0.110677
   3 C :    0.042063
   4 C :   -0.157237
   5 H :   -0.011194
   6 C :    0.048382
   7 H :    0.036735
   8 H :    0.044680
   9 C :   -0.093077
  10 H :    0.034687
  11 H :    0.031173
  12 C :   -0.028249
  13 H :    0.023048
  14 H :    0.023143
  15 H :    0.027236
  16 S :    0.107728
  17 C :   -0.082513
  18 C :   -0.042742
  19 C :   -0.032719
  20 C :   -0.144846
  21 H :    0.027460
  22 C :    0.076769
  23 H :    0.019790
  24 H :    0.019059
  25 C :   -0.079553
  26 H :    0.040637
  27 H :    0.030632
  28 C :   -0.058560
  29 H :    0.036031
  30 H :    0.025008
  31 H :    0.038976
  32 H :    0.068309
  33 H :    0.049149
Sum of atomic charges:   -0.0000000

LOEWDIN ATOMIC CHARGES
----------------------
   0 S :    0.447384
   1 C :   -0.231654
   2 C :   -0.064240
   3 C :   -0.059520
   4 C :   -0.218777
   5 H :    0.019180
   6 C :   -0.031677
   7 H :    0.038075
   8 H :    0.034883
   9 C :   -0.039013
  10 H :    0.028764
  11 H :    0.018414
  12 C :   -0.061877
  13 H :    0.020950
  14 H :    0.021651
  15 H :    0.027738
  16 S :    0.390239
  17 C :   -0.178566
  18 C :   -0.071811
  19 C :   -0.047212
  20 C :   -0.183024
  21 H :    0.035312
  22 C :   -0.035455
  23 H :    0.029146
  24 H :    0.030643
  25 C :   -0.044505
  26 H :    0.027581
  27 H :    0.027976
  28 C :   -0.065559
  29 H :    0.027053
  30 H :    0.019852
  31 H :    0.030991
  32 H :    0.033805
  33 H :    0.023253

  Mayer bond orders larger than 0.100000
B(  0-S ,  1-C ) :   1.1627 B(  0-S ,  4-C ) :   1.1826 B(  1-C ,  2-C ) :   1.5719
B(  1-C , 32-H ) :   0.9543 B(  2-C ,  3-C ) :   1.3018 B(  2-C ,  6-C ) :   1.0150
B(  3-C ,  4-C ) :   1.5098 B(  3-C ,  5-H ) :   1.0023 B(  4-C , 20-C ) :   1.0401
B(  6-C ,  7-H ) :   0.9478 B(  6-C ,  8-H ) :   0.9337 B(  6-C ,  9-C ) :   1.0585
B(  9-C , 10-H ) :   0.9632 B(  9-C , 11-H ) :   0.9593 B(  9-C , 12-C ) :   1.0720
B( 12-C , 13-H ) :   0.9778 B( 12-C , 14-H ) :   0.9771 B( 12-C , 15-H ) :   0.9746
B( 16-S , 17-C ) :   1.1613 B( 16-S , 20-C ) :   1.1309 B( 17-C , 18-C ) :   1.6154
B( 17-C , 20-C ) :   0.1020 B( 17-C , 33-H ) :   0.9680 B( 18-C , 19-C ) :   1.2262
B( 18-C , 21-H ) :   0.9884 B( 19-C , 20-C ) :   1.5828 B( 19-C , 22-C ) :   1.0713
B( 22-C , 23-H ) :   0.9237 B( 22-C , 24-H ) :   0.9424 B( 22-C , 25-C ) :   1.0535
B( 25-C , 26-H ) :   0.9629 B( 25-C , 27-H ) :   0.9523 B( 25-C , 28-C ) :   1.0801
B( 28-C , 29-H ) :   0.9760 B( 28-C , 30-H ) :   0.9760 B( 28-C , 31-H ) :   0.9742

Dispersion correction           -0.013705836
FINAL SINGLE POINT ENERGY     -1339.880093994342

DIPOLE MOMENT
-------------
                                X             Y             Z
Electronic contribution:     16.58302      -1.33711     -19.32547
Nuclear contribution   :    -16.86996       1.08771      19.75192
                        -----------------------------------------
Total Dipole Moment    :     -0.28694      -0.24940       0.42645
                        -----------------------------------------
Magnitude (a.u.)       :      0.57130
Magnitude (Debye)      :      1.45214

Rotational constants in cm-1:     0.019696     0.007348     0.006208
Rotational constants in MHz :   590.470469   220.273626   186.106605

                             ****ORCA TERMINATED NORMALLY****
TOTAL RUN TIME: 0 days 0 hours 0 minutes 21 seconds 241 msec
