                         Program Version 4.2.1 -  RELEASE  -
|  1> ! wB97X-D3 SP def2-SVP
|  2> %pal
|  3> nprocs 24
|  4> end
|  5>
|  6> * xyz 0 1
|  7> S 	 -81.7952 	 -3.86651 	 -58.0005
|  8> C 	 -80.7589 	 -3.98826 	 -56.5935
|  9> C 	 -79.8462 	 -4.97998 	 -56.8052
| 10> C 	 -79.8983 	 -5.56875 	 -58.1054
| 11> C 	 -80.8834 	 -5.02512 	 -58.8625
| 12> H 	 -79.2591 	 -6.36812 	 -58.4112
| 13> C 	 -78.8235 	 -5.49787 	 -55.8078
| 14> H 	 -79.0815 	 -6.50643 	 -55.6179
| 15> H 	 -79.0583 	 -5.00139 	 -54.8401
| 16> C 	 -77.3808 	 -5.23582 	 -56.1425
| 17> H 	 -77.2271 	 -5.51746 	 -57.2327
| 18> H 	 -77.0904 	 -4.18692 	 -56.1359
| 19> C 	 -76.4731 	 -6.06779 	 -55.1207
| 20> H 	 -75.4822 	 -5.76427 	 -55.4285
| 21> H 	 -76.4314 	 -5.57875 	 -54.1746
| 22> H 	 -76.5377 	 -7.16912 	 -55.0285
| 23> S 	 -82.9503 	 -5.13876 	 -60.6779
| 24> C 	 -82.6142 	 -5.69478 	 -62.3144
| 25> C 	 -81.2984 	 -5.98402 	 -62.4548
| 26> C 	 -80.5405 	 -5.84032 	 -61.2746
| 27> C 	 -81.2871 	 -5.41626 	 -60.1646
| 28> H 	 -80.9297 	 -6.2616 	 -63.3985
| 29> C 	 -79.0335 	 -5.89694 	 -61.3816
| 30> H 	 -78.7664 	 -6.89766 	 -61.7951
| 31> H 	 -78.4752 	 -5.85462 	 -60.4152
| 32> C 	 -78.3908 	 -4.88305 	 -62.3093
| 33> H 	 -78.8079 	 -4.87635 	 -63.3273
| 34> H 	 -77.316 	 -5.21227 	 -62.3653
| 35> C 	 -78.2605 	 -3.48371 	 -61.6542
| 36> H 	 -77.5516 	 -2.82277 	 -62.2333
| 37> H 	 -78.0577 	 -3.69229 	 -60.5909
| 38> H 	 -79.2558 	 -3.00206 	 -61.68
| 39> H 	 -80.7242 	 -3.45534 	 -55.6643
| 40> H 	 -83.4023 	 -5.97154 	 -63.046
| 41> *
| 42>
| 43>                          ****END OF INPUT****

CARTESIAN COORDINATES (ANGSTROEM)
---------------------------------
  S    -81.795200   -3.866510  -58.000500
  C    -80.758900   -3.988260  -56.593500
  C    -79.846200   -4.979980  -56.805200
  C    -79.898300   -5.568750  -58.105400
  C    -80.883400   -5.025120  -58.862500
  H    -79.259100   -6.368120  -58.411200
  C    -78.823500   -5.497870  -55.807800
  H    -79.081500   -6.506430  -55.617900
  H    -79.058300   -5.001390  -54.840100
  C    -77.380800   -5.235820  -56.142500
  H    -77.227100   -5.517460  -57.232700
  H    -77.090400   -4.186920  -56.135900
  C    -76.473100   -6.067790  -55.120700
  H    -75.482200   -5.764270  -55.428500
  H    -76.431400   -5.578750  -54.174600
  H    -76.537700   -7.169120  -55.028500
  S    -82.950300   -5.138760  -60.677900
  C    -82.614200   -5.694780  -62.314400
  C    -81.298400   -5.984020  -62.454800
  C    -80.540500   -5.840320  -61.274600
  C    -81.287100   -5.416260  -60.164600
  H    -80.929700   -6.261600  -63.398500
  C    -79.033500   -5.896940  -61.381600
  H    -78.766400   -6.897660  -61.795100
  H    -78.475200   -5.854620  -60.415200
  C    -78.390800   -4.883050  -62.309300
  H    -78.807900   -4.876350  -63.327300
  H    -77.316000   -5.212270  -62.365300
  C    -78.260500   -3.483710  -61.654200
  H    -77.551600   -2.822770  -62.233300
  H    -78.057700   -3.692290  -60.590900
  H    -79.255800   -3.002060  -61.680000
  H    -80.724200   -3.455340  -55.664300
  H    -83.402300   -5.971540  -63.046000

 Total Charge           Charge          ....    0
 Multiplicity           Mult            ....    1
 Number of Electrons    NEL             ....  134
 Basis Dimension        Dim             ....  322

ORBITAL ENERGIES
----------------

  NO   OCC          E(Eh)            E(eV)
   0   2.0000     -88.965824     -2420.8832
   1   2.0000     -88.964639     -2420.8509
   2   2.0000     -10.328347      -281.0486
   3   2.0000     -10.324138      -280.9341
   4   2.0000     -10.319000      -280.7943
   5   2.0000     -10.308155      -280.4992
   6   2.0000     -10.302956      -280.3577
   7   2.0000     -10.297697      -280.2146
   8   2.0000     -10.294759      -280.1346
   9   2.0000     -10.293350      -280.0963
  10   2.0000     -10.288301      -279.9589
  11   2.0000     -10.288256      -279.9577
  12   2.0000     -10.286312      -279.9048
  13   2.0000     -10.286112      -279.8993
  14   2.0000     -10.282236      -279.7939
  15   2.0000     -10.279238      -279.7123
  16   2.0000      -8.081254      -219.9021
  17   2.0000      -8.079224      -219.8468
  18   2.0000      -6.039912      -164.3544
  19   2.0000      -6.037876      -164.2990
  20   2.0000      -6.035670      -164.2389
  21   2.0000      -6.033708      -164.1855
  22   2.0000      -6.031797      -164.1335
  23   2.0000      -6.029897      -164.0818
  24   2.0000      -1.016132       -27.6504
  25   2.0000      -0.988794       -26.9065
  26   2.0000      -0.914523       -24.8854
  27   2.0000      -0.909325       -24.7440
  28   2.0000      -0.876315       -23.8457
  29   2.0000      -0.850948       -23.1555
  30   2.0000      -0.841805       -22.9067
  31   2.0000      -0.817422       -22.2432
  32   2.0000      -0.782828       -21.3018
  33   2.0000      -0.772003       -21.0073
  34   2.0000      -0.714371       -19.4390
  35   2.0000      -0.703144       -19.1335
  36   2.0000      -0.688787       -18.7429
  37   2.0000      -0.660320       -17.9682
  38   2.0000      -0.637498       -17.3472
  39   2.0000      -0.628900       -17.1132
  40   2.0000      -0.601914       -16.3789
  41   2.0000      -0.571751       -15.5581
  42   2.0000      -0.557755       -15.1773
  43   2.0000      -0.551476       -15.0064
  44   2.0000      -0.537004       -14.6126
  45   2.0000      -0.527791       -14.3619
  46   2.0000      -0.519570       -14.1382
  47   2.0000      -0.510149       -13.8819
  48   2.0000      -0.506090       -13.7714
  49   2.0000      -0.505222       -13.7478
  50   2.0000      -0.492473       -13.4009
  51   2.0000      -0.476219       -12.9586
  52   2.0000      -0.470715       -12.8088
  53   2.0000      -0.464894       -12.6504
  54   2.0000      -0.460680       -12.5357
  55   2.0000      -0.457367       -12.4456
  56   2.0000      -0.448687       -12.2094
  57   2.0000      -0.438618       -11.9354
  58   2.0000      -0.429131       -11.6772
  59   2.0000      -0.426685       -11.6107
  60   2.0000      -0.415495       -11.3062
  61   2.0000      -0.406352       -11.0574
  62   2.0000      -0.401006       -10.9119
  63   2.0000      -0.364838        -9.9277
  64   2.0000      -0.334757        -9.1092
  65   2.0000      -0.328179        -8.9302
  66   2.0000      -0.283495        -7.7143
  67   0.0000       0.022583         0.6145
  68   0.0000       0.081986         2.2309
  69   0.0000       0.107429         2.9233
  70   0.0000       0.118906         3.2356
  71   0.0000       0.133623         3.6361

MULLIKEN ATOMIC CHARGES
-----------------------
   0 S :    0.105843
   1 C :   -0.097400
   2 C :   -0.109239
   3 C :   -0.010560
   4 C :   -0.093278
   5 H :    0.011747
   6 C :    0.092828
   7 H :    0.026461
   8 H :    0.004663
   9 C :   -0.094835
  10 H :    0.030268
  11 H :    0.033441
  12 C :   -0.037655
  13 H :    0.014833
  14 H :    0.022444
  15 H :    0.057109
  16 S :    0.085480
  17 C :   -0.100963
  18 C :   -0.017356
  19 C :   -0.020497
  20 C :   -0.122095
  21 H :    0.000688
  22 C :    0.030838
  23 H :    0.030172
  24 H :    0.017059
  25 C :   -0.101401
  26 H :    0.036579
  27 H :    0.031956
  28 C :   -0.060126
  29 H :    0.050476
  30 H :    0.033626
  31 H :    0.041635
  32 H :    0.031133
  33 H :    0.076126
Sum of atomic charges:   -0.0000000

LOEWDIN ATOMIC CHARGES
----------------------
   0 S :    0.418087
   1 C :   -0.204517
   2 C :   -0.059707
   3 C :   -0.070494
   4 C :   -0.193986
   5 H :    0.027034
   6 C :   -0.036566
   7 H :    0.028275
   8 H :    0.028905
   9 C :   -0.035974
  10 H :    0.024634
  11 H :    0.028501
  12 C :   -0.071451
  13 H :    0.026643
  14 H :    0.024191
  15 H :    0.032491
  16 S :    0.387784
  17 C :   -0.181951
  18 C :   -0.065400
  19 C :   -0.059864
  20 C :   -0.188442
  21 H :    0.024960
  22 C :   -0.040444
  23 H :    0.035317
  24 H :    0.029536
  25 C :   -0.045729
  26 H :    0.021558
  27 H :    0.029341
  28 C :   -0.071858
  29 H :    0.032298
  30 H :    0.027894
  31 H :    0.027724
  32 H :    0.030199
  33 H :    0.041010

  Mayer bond orders larger than 0.100000
B(  0-S ,  1-C ) :   1.1060 B(  0-S ,  4-C ) :   1.1493 B(  1-C ,  2-C ) :   1.6474
B(  1-C , 32-H ) :   0.9667 B(  2-C ,  3-C ) :   1.2296 B(  2-C ,  6-C ) :   1.0192
B(  3-C ,  4-C ) :   1.5520 B(  3-C ,  5-H ) :   1.0004 B(  4-C , 20-C ) :   1.0978
B(  6-C ,  7-H ) :   0.9416 B(  6-C ,  8-H ) :   0.9331 B(  6-C ,  9-C ) :   1.0582
B(  9-C , 10-H ) :   0.9617 B(  9-C , 11-H ) :   0.9530 B(  9-C , 12-C ) :   1.0673
B( 12-C , 13-H ) :   0.9699 B( 12-C , 14-H ) :   0.9715 B( 12-C , 15-H ) :   0.9792
B( 16-S , 17-C ) :   1.1437 B( 16-S , 20-C ) :   1.1277 B( 17-C , 18-C ) :   1.6079
B( 17-C , 33-H ) :   0.9608 B( 18-C , 19-C ) :   1.2488 B( 18-C , 21-H ) :   0.9996
B( 19-C , 20-C ) :   1.5618 B( 19-C , 22-C ) :   1.0469 B( 22-C , 23-H ) :   0.9253
B( 22-C , 24-H ) :   0.9358 B( 22-C , 25-C ) :   1.0902 B( 25-C , 26-H ) :   0.9529
B( 25-C , 27-H ) :   0.9521 B( 25-C , 28-C ) :   1.0642 B( 28-C , 29-H ) :   0.9748
B( 28-C , 30-H ) :   0.9707 B( 28-C , 31-H ) :   0.9772

Dispersion correction           -0.014582746
FINAL SINGLE POINT ENERGY     -1339.874549249796

DIPOLE MOMENT
-------------
                                X             Y             Z
Electronic contribution:    -29.14599       2.64181      -4.47303
Nuclear contribution   :     29.82696      -2.89894       4.43077
                        -----------------------------------------
Total Dipole Moment    :      0.68098      -0.25714      -0.04226
                        -----------------------------------------
Magnitude (a.u.)       :      0.72913
Magnitude (Debye)      :      1.85330

Rotational constants in cm-1:     0.020021     0.008841     0.006940
Rotational constants in MHz :   600.202249   265.051128   208.068408

                             ****ORCA TERMINATED NORMALLY****
TOTAL RUN TIME: 0 days 0 hours 0 minutes 21 seconds 102 msec
