                         Program Version 4.2.1 -  RELEASE  -
|  1> ! wB97X-D3 SP def2-SVP
|  2> %pal
|  3> nprocs 24
|  4> end
|  5>
|  6> * xyz 0 1
|  7> S 	 -48.2186 	 22.8403 	 30.6224
|  8> C 	 -49.3237 	 24.228 	 30.7951
|  9> C 	 -48.7021 	 25.2773 	 31.3311
| 10> C 	 -47.2736 	 25.0441 	 31.4403
| 11> C 	 -46.8447 	 23.7804 	 31.0681
| 12> H 	 -46.5689 	 25.8486 	 31.7066
| 13> C 	 -49.3247 	 26.5581 	 31.7228
| 14> H 	 -48.6234 	 27.3272 	 31.5956
| 15> H 	 -49.5702 	 26.6201 	 32.7865
| 16> C 	 -50.6507 	 27.0181 	 30.9128
| 17> H 	 -50.3584 	 27.2226 	 29.9516
| 18> H 	 -51.3746 	 26.1589 	 30.7805
| 19> C 	 -51.4316 	 28.133 	 31.4592
| 20> H 	 -51.6516 	 28.0278 	 32.497
| 21> H 	 -51.0406 	 29.1266 	 31.3065
| 22> H 	 -52.4637 	 28.1111 	 31.0024
| 23> S 	 -44.4399 	 23.9698 	 29.9722
| 24> C 	 -43.0278 	 23.1706 	 30.693
| 25> C 	 -43.4196 	 22.3169 	 31.6337
| 26> C 	 -44.8033 	 22.3485 	 31.8797
| 27> C 	 -45.4854 	 23.2142 	 31.1056
| 28> H 	 -42.682 	 21.8451 	 32.2495
| 29> C 	 -45.4264 	 21.4626 	 32.9118
| 30> H 	 -46.3187 	 22.0034 	 33.2393
| 31> H 	 -44.7295 	 21.4448 	 33.7727
| 32> C 	 -45.879 	 20.081 	 32.5045
| 33> H 	 -44.982 	 19.6718 	 32.0851
| 34> H 	 -46.5053 	 20.1743 	 31.7039
| 35> C 	 -46.5821 	 19.2407 	 33.5868
| 36> H 	 -45.7128 	 18.9026 	 34.1755
| 37> H 	 -47.0512 	 18.4422 	 33.0332
| 38> H 	 -47.419 	 19.7856 	 34.0578
| 39> H 	 -50.4071 	 24.0788 	 30.7972
| 40> H 	 -42.0492 	 23.2087 	 30.3403
| 41> *
| 42>
| 43>                          ****END OF INPUT****

CARTESIAN COORDINATES (ANGSTROEM)
---------------------------------
  S    -48.218600   22.840300   30.622400
  C    -49.323700   24.228000   30.795100
  C    -48.702100   25.277300   31.331100
  C    -47.273600   25.044100   31.440300
  C    -46.844700   23.780400   31.068100
  H    -46.568900   25.848600   31.706600
  C    -49.324700   26.558100   31.722800
  H    -48.623400   27.327200   31.595600
  H    -49.570200   26.620100   32.786500
  C    -50.650700   27.018100   30.912800
  H    -50.358400   27.222600   29.951600
  H    -51.374600   26.158900   30.780500
  C    -51.431600   28.133000   31.459200
  H    -51.651600   28.027800   32.497000
  H    -51.040600   29.126600   31.306500
  H    -52.463700   28.111100   31.002400
  S    -44.439900   23.969800   29.972200
  C    -43.027800   23.170600   30.693000
  C    -43.419600   22.316900   31.633700
  C    -44.803300   22.348500   31.879700
  C    -45.485400   23.214200   31.105600
  H    -42.682000   21.845100   32.249500
  C    -45.426400   21.462600   32.911800
  H    -46.318700   22.003400   33.239300
  H    -44.729500   21.444800   33.772700
  C    -45.879000   20.081000   32.504500
  H    -44.982000   19.671800   32.085100
  H    -46.505300   20.174300   31.703900
  C    -46.582100   19.240700   33.586800
  H    -45.712800   18.902600   34.175500
  H    -47.051200   18.442200   33.033200
  H    -47.419000   19.785600   34.057800
  H    -50.407100   24.078800   30.797200
  H    -42.049200   23.208700   30.340300

 Total Charge           Charge          ....    0
 Multiplicity           Mult            ....    1
 Number of Electrons    NEL             ....  134
 Basis Dimension        Dim             ....  322

ORBITAL ENERGIES
----------------

  NO   OCC          E(Eh)            E(eV)
   0   2.0000     -88.962588     -2420.7951
   1   2.0000     -88.959709     -2420.7167
   2   2.0000     -10.332113      -281.1511
   3   2.0000     -10.321129      -280.8522
   4   2.0000     -10.311295      -280.5846
   5   2.0000     -10.308200      -280.5004
   6   2.0000     -10.298566      -280.2382
   7   2.0000     -10.297687      -280.2143
   8   2.0000     -10.293568      -280.1022
   9   2.0000     -10.292001      -280.0596
  10   2.0000     -10.286590      -279.9123
  11   2.0000     -10.283957      -279.8407
  12   2.0000     -10.281353      -279.7698
  13   2.0000     -10.279303      -279.7140
  14   2.0000     -10.276455      -279.6366
  15   2.0000     -10.269173      -279.4384
  16   2.0000      -8.077405      -219.7974
  17   2.0000      -8.075115      -219.7350
  18   2.0000      -6.036002      -164.2480
  19   2.0000      -6.033701      -164.1853
  20   2.0000      -6.031897      -164.1363
  21   2.0000      -6.029461      -164.0700
  22   2.0000      -6.028070      -164.0321
  23   2.0000      -6.025803      -163.9704
  24   2.0000      -1.014756       -27.6129
  25   2.0000      -0.991634       -26.9837
  26   2.0000      -0.913953       -24.8699
  27   2.0000      -0.911606       -24.8060
  28   2.0000      -0.879032       -23.9197
  29   2.0000      -0.855188       -23.2709
  30   2.0000      -0.849176       -23.1073
  31   2.0000      -0.818744       -22.2791
  32   2.0000      -0.785624       -21.3779
  33   2.0000      -0.773089       -21.0368
  34   2.0000      -0.713006       -19.4019
  35   2.0000      -0.703604       -19.1460
  36   2.0000      -0.694851       -18.9079
  37   2.0000      -0.670683       -18.2502
  38   2.0000      -0.639741       -17.4082
  39   2.0000      -0.614830       -16.7304
  40   2.0000      -0.596643       -16.2355
  41   2.0000      -0.578496       -15.7417
  42   2.0000      -0.572873       -15.5887
  43   2.0000      -0.565590       -15.3905
  44   2.0000      -0.526184       -14.3182
  45   2.0000      -0.521553       -14.1922
  46   2.0000      -0.519947       -14.1485
  47   2.0000      -0.519026       -14.1234
  48   2.0000      -0.511549       -13.9200
  49   2.0000      -0.502891       -13.6843
  50   2.0000      -0.495541       -13.4844
  51   2.0000      -0.484823       -13.1927
  52   2.0000      -0.476645       -12.9702
  53   2.0000      -0.469626       -12.7792
  54   2.0000      -0.460632       -12.5344
  55   2.0000      -0.455305       -12.3895
  56   2.0000      -0.441710       -12.0195
  57   2.0000      -0.430975       -11.7274
  58   2.0000      -0.427055       -11.6208
  59   2.0000      -0.423430       -11.5221
  60   2.0000      -0.418506       -11.3881
  61   2.0000      -0.410998       -11.1838
  62   2.0000      -0.408563       -11.1176
  63   2.0000      -0.342482        -9.3194
  64   2.0000      -0.331617        -9.0238
  65   2.0000      -0.327306        -8.9065
  66   2.0000      -0.308150        -8.3852
  67   0.0000       0.041552         1.1307
  68   0.0000       0.069046         1.8788
  69   0.0000       0.109755         2.9866
  70   0.0000       0.123063         3.3487
  71   0.0000       0.134382         3.6567

MULLIKEN ATOMIC CHARGES
-----------------------
   0 S :    0.095891
   1 C :   -0.139728
   2 C :   -0.073741
   3 C :    0.032008
   4 C :   -0.153512
   5 H :    0.020035
   6 C :    0.095060
   7 H :    0.009182
   8 H :    0.036419
   9 C :   -0.079783
  10 H :    0.015457
  11 H :    0.026673
  12 C :   -0.040577
  13 H :    0.019019
  14 H :    0.033219
  15 H :    0.034246
  16 S :    0.096025
  17 C :   -0.059553
  18 C :   -0.024526
  19 C :   -0.027773
  20 C :   -0.163025
  21 H :    0.014062
  22 C :    0.049295
  23 H :    0.012933
  24 H :    0.014226
  25 C :   -0.025030
  26 H :    0.005109
  27 H :   -0.011519
  28 C :   -0.021541
  29 H :    0.046428
  30 H :    0.032125
  31 H :    0.043935
  32 H :    0.058614
  33 H :    0.030346
Sum of atomic charges:   -0.0000000

LOEWDIN ATOMIC CHARGES
----------------------
   0 S :    0.397952
   1 C :   -0.185574
   2 C :   -0.068304
   3 C :   -0.062595
   4 C :   -0.204574
   5 H :    0.033640
   6 C :   -0.025604
   7 H :    0.023844
   8 H :    0.035068
   9 C :   -0.035679
  10 H :    0.014206
  11 H :    0.027825
  12 C :   -0.067779
  13 H :    0.020440
  14 H :    0.022680
  15 H :    0.038306
  16 S :    0.408866
  17 C :   -0.160483
  18 C :   -0.070259
  19 C :   -0.061723
  20 C :   -0.203175
  21 H :    0.032457
  22 C :   -0.034045
  23 H :    0.025783
  24 H :    0.026864
  25 C :   -0.036560
  26 H :    0.019372
  27 H :    0.005454
  28 C :   -0.059364
  29 H :    0.033665
  30 H :    0.027948
  31 H :    0.032259
  32 H :    0.030416
  33 H :    0.018673

  Mayer bond orders larger than 0.100000
B(  0-S ,  1-C ) :   1.1153 B(  0-S ,  4-C ) :   1.1582 B(  1-C ,  2-C ) :   1.6601
B(  1-C , 32-H ) :   0.9600 B(  2-C ,  3-C ) :   1.2188 B(  2-C ,  6-C ) :   1.0293
B(  3-C ,  4-C ) :   1.6025 B(  3-C ,  5-H ) :   0.9912 B(  4-C , 20-C ) :   0.9696
B(  6-C ,  7-H ) :   0.9376 B(  6-C ,  8-H ) :   0.9294 B(  6-C ,  9-C ) :   1.0548
B(  9-C , 10-H ) :   0.9559 B(  9-C , 11-H ) :   0.9558 B(  9-C , 12-C ) :   1.0987
B( 12-C , 13-H ) :   0.9702 B( 12-C , 14-H ) :   0.9744 B( 12-C , 15-H ) :   0.9691
B( 16-S , 17-C ) :   1.1390 B( 16-S , 20-C ) :   1.1489 B( 17-C , 18-C ) :   1.6402
B( 17-C , 33-H ) :   0.9708 B( 18-C , 19-C ) :   1.2259 B( 18-C , 21-H ) :   0.9906
B( 19-C , 20-C ) :   1.6461 B( 19-C , 22-C ) :   1.0507 B( 22-C , 23-H ) :   0.9219
B( 22-C , 24-H ) :   0.9310 B( 22-C , 25-C ) :   1.0697 B( 25-C , 26-H ) :   0.9516
B( 25-C , 27-H ) :   0.9438 B( 25-C , 28-C ) :   1.0751 B( 28-C , 29-H ) :   0.9785
B( 28-C , 30-H ) :   0.9741 B( 28-C , 31-H ) :   0.9727

Dispersion correction           -0.013766746
FINAL SINGLE POINT ENERGY     -1339.862113875959

DIPOLE MOMENT
-------------
                                X             Y             Z
Electronic contribution:     14.42739      -2.24427     -11.97872
Nuclear contribution   :    -14.54619       2.44752      12.37698
                        -----------------------------------------
Total Dipole Moment    :     -0.11880       0.20325       0.39826
                        -----------------------------------------
Magnitude (a.u.)       :      0.46264
Magnitude (Debye)      :      1.17594

Rotational constants in cm-1:     0.022230     0.007169     0.005910
Rotational constants in MHz :   666.426686   214.910244   177.176249

                             ****ORCA TERMINATED NORMALLY****
TOTAL RUN TIME: 0 days 0 hours 0 minutes 20 seconds 931 msec
