                         Program Version 4.2.1 -  RELEASE  -
|  1> ! wB97X-D3 SP def2-SVP
|  2> %pal
|  3> nprocs 24
|  4> end
|  5>
|  6> * xyz 0 1
|  7> S 	 23.3648 	 -6.97018 	 -114.991
|  8> C 	 23.4341 	 -8.2392 	 -113.769
|  9> C 	 23.2571 	 -7.71632 	 -112.468
| 10> C 	 23.0973 	 -6.28168 	 -112.551
| 11> C 	 23.1254 	 -5.75728 	 -113.812
| 12> H 	 22.9378 	 -5.55677 	 -111.727
| 13> C 	 23.2613 	 -8.44665 	 -111.113
| 14> H 	 24.0875 	 -7.91627 	 -110.507
| 15> H 	 23.6613 	 -9.42739 	 -111.217
| 16> C 	 22.0007 	 -8.47623 	 -110.266
| 17> H 	 21.7642 	 -7.46273 	 -110.054
| 18> H 	 21.2188 	 -8.89547 	 -110.878
| 19> C 	 22.1264 	 -9.40377 	 -109.047
| 20> H 	 22.3039 	 -10.4154 	 -109.317
| 21> H 	 22.8901 	 -9.00215 	 -108.375
| 22> H 	 21.2712 	 -9.35772 	 -108.388
| 23> S 	 24.4011 	 -3.50143 	 -114.891
| 24> C 	 23.5421 	 -2.01309 	 -114.958
| 25> C 	 22.3092 	 -2.10435 	 -114.376
| 26> C 	 21.985 	 -3.41814 	 -113.952
| 27> C 	 23.0054 	 -4.32205 	 -114.144
| 28> H 	 21.6576 	 -1.276 	 -114.17
| 29> C 	 20.6866 	 -3.78423 	 -113.286
| 30> H 	 20.8779 	 -4.52678 	 -112.514
| 31> H 	 20.0278 	 -4.19684 	 -114.024
| 32> C 	 20.0623 	 -2.50164 	 -112.617
| 33> H 	 19.7267 	 -1.68056 	 -113.309
| 34> H 	 20.8781 	 -2.19199 	 -111.892
| 35> C 	 18.8341 	 -2.91562 	 -111.802
| 36> H 	 19.106 	 -3.69944 	 -111.041
| 37> H 	 18.1111 	 -3.4311 	 -112.44
| 38> H 	 18.2926 	 -2.06259 	 -111.383
| 39> H 	 23.664 	 -9.26789 	 -113.928
| 40> H 	 24.0481 	 -1.12268 	 -115.358
| 41> *
| 42>
| 43>                          ****END OF INPUT****

CARTESIAN COORDINATES (ANGSTROEM)
---------------------------------
  S     23.364800   -6.970180  -114.991000
  C     23.434100   -8.239200  -113.769000
  C     23.257100   -7.716320  -112.468000
  C     23.097300   -6.281680  -112.551000
  C     23.125400   -5.757280  -113.812000
  H     22.937800   -5.556770  -111.727000
  C     23.261300   -8.446650  -111.113000
  H     24.087500   -7.916270  -110.507000
  H     23.661300   -9.427390  -111.217000
  C     22.000700   -8.476230  -110.266000
  H     21.764200   -7.462730  -110.054000
  H     21.218800   -8.895470  -110.878000
  C     22.126400   -9.403770  -109.047000
  H     22.303900  -10.415400  -109.317000
  H     22.890100   -9.002150  -108.375000
  H     21.271200   -9.357720  -108.388000
  S     24.401100   -3.501430  -114.891000
  C     23.542100   -2.013090  -114.958000
  C     22.309200   -2.104350  -114.376000
  C     21.985000   -3.418140  -113.952000
  C     23.005400   -4.322050  -114.144000
  H     21.657600   -1.276000  -114.170000
  C     20.686600   -3.784230  -113.286000
  H     20.877900   -4.526780  -112.514000
  H     20.027800   -4.196840  -114.024000
  C     20.062300   -2.501640  -112.617000
  H     19.726700   -1.680560  -113.309000
  H     20.878100   -2.191990  -111.892000
  C     18.834100   -2.915620  -111.802000
  H     19.106000   -3.699440  -111.041000
  H     18.111100   -3.431100  -112.440000
  H     18.292600   -2.062590  -111.383000
  H     23.664000   -9.267890  -113.928000
  H     24.048100   -1.122680  -115.358000

 Total Charge           Charge          ....    0
 Multiplicity           Mult            ....    1
 Number of Electrons    NEL             ....  134
 Basis Dimension        Dim             ....  322

ORBITAL ENERGIES
----------------

  NO   OCC          E(Eh)            E(eV)
   0   2.0000     -88.967184     -2420.9202
   1   2.0000     -88.961195     -2420.7572
   2   2.0000     -10.324398      -280.9412
   3   2.0000     -10.323531      -280.9176
   4   2.0000     -10.317067      -280.7417
   5   2.0000     -10.316647      -280.7303
   6   2.0000     -10.309392      -280.5328
   7   2.0000     -10.298409      -280.2340
   8   2.0000     -10.297826      -280.2181
   9   2.0000     -10.296686      -280.1871
  10   2.0000     -10.293551      -280.1018
  11   2.0000     -10.290726      -280.0249
  12   2.0000     -10.288739      -279.9708
  13   2.0000     -10.284281      -279.8495
  14   2.0000     -10.281425      -279.7718
  15   2.0000     -10.278622      -279.6955
  16   2.0000      -8.082249      -219.9292
  17   2.0000      -8.076374      -219.7693
  18   2.0000      -6.040781      -164.3780
  19   2.0000      -6.036594      -164.2641
  20   2.0000      -6.034825      -164.2159
  21   2.0000      -6.033085      -164.1686
  22   2.0000      -6.030777      -164.1058
  23   2.0000      -6.027218      -164.0089
  24   2.0000      -1.006821       -27.3970
  25   2.0000      -0.985422       -26.8147
  26   2.0000      -0.913149       -24.8481
  27   2.0000      -0.909559       -24.7504
  28   2.0000      -0.868073       -23.6215
  29   2.0000      -0.851355       -23.1665
  30   2.0000      -0.845104       -22.9964
  31   2.0000      -0.812073       -22.0976
  32   2.0000      -0.783553       -21.3216
  33   2.0000      -0.771067       -20.9818
  34   2.0000      -0.707031       -19.2393
  35   2.0000      -0.701047       -19.0765
  36   2.0000      -0.693040       -18.8586
  37   2.0000      -0.649908       -17.6849
  38   2.0000      -0.643933       -17.5223
  39   2.0000      -0.616890       -16.7864
  40   2.0000      -0.601927       -16.3793
  41   2.0000      -0.575033       -15.6474
  42   2.0000      -0.571668       -15.5559
  43   2.0000      -0.564923       -15.3723
  44   2.0000      -0.528030       -14.3684
  45   2.0000      -0.521447       -14.1893
  46   2.0000      -0.513351       -13.9690
  47   2.0000      -0.505929       -13.7670
  48   2.0000      -0.505361       -13.7516
  49   2.0000      -0.496832       -13.5195
  50   2.0000      -0.490110       -13.3366
  51   2.0000      -0.479485       -13.0475
  52   2.0000      -0.470347       -12.7988
  53   2.0000      -0.469442       -12.7742
  54   2.0000      -0.461695       -12.5634
  55   2.0000      -0.454333       -12.3630
  56   2.0000      -0.448877       -12.2146
  57   2.0000      -0.435574       -11.8526
  58   2.0000      -0.432333       -11.7644
  59   2.0000      -0.430166       -11.7054
  60   2.0000      -0.422578       -11.4989
  61   2.0000      -0.416603       -11.3363
  62   2.0000      -0.411167       -11.1884
  63   2.0000      -0.337378        -9.1805
  64   2.0000      -0.331849        -9.0301
  65   2.0000      -0.327775        -8.9192
  66   2.0000      -0.300836        -8.1862
  67   0.0000       0.039586         1.0772
  68   0.0000       0.067795         1.8448
  69   0.0000       0.120927         3.2906
  70   0.0000       0.121975         3.3191
  71   0.0000       0.126562         3.4439

MULLIKEN ATOMIC CHARGES
-----------------------
   0 S :    0.126613
   1 C :   -0.114641
   2 C :   -0.073365
   3 C :    0.019144
   4 C :   -0.172081
   5 H :    0.024247
   6 C :    0.033532
   7 H :    0.039882
   8 H :    0.000835
   9 C :   -0.033815
  10 H :    0.018238
  11 H :    0.026505
  12 C :   -0.034145
  13 H :    0.034707
  14 H :    0.023375
  15 H :    0.028912
  16 S :    0.101171
  17 C :   -0.090569
  18 C :   -0.015965
  19 C :   -0.055917
  20 C :   -0.179956
  21 H :    0.011318
  22 C :    0.120541
  23 H :    0.017859
  24 H :    0.037070
  25 C :   -0.171781
  26 H :    0.058784
  27 H :    0.050987
  28 C :   -0.029449
  29 H :    0.032496
  30 H :    0.021155
  31 H :    0.038895
  32 H :    0.037075
  33 H :    0.068343
Sum of atomic charges:    0.0000000

LOEWDIN ATOMIC CHARGES
----------------------
   0 S :    0.423799
   1 C :   -0.195104
   2 C :   -0.056951
   3 C :   -0.070271
   4 C :   -0.213639
   5 H :    0.034320
   6 C :   -0.036272
   7 H :    0.040520
   8 H :    0.019795
   9 C :   -0.035054
  10 H :    0.018289
  11 H :    0.024376
  12 C :   -0.059436
  13 H :    0.022793
  14 H :    0.026498
  15 H :    0.027568
  16 S :    0.401629
  17 C :   -0.187194
  18 C :   -0.077216
  19 C :   -0.056188
  20 C :   -0.196949
  21 H :    0.029587
  22 C :   -0.022971
  23 H :    0.030362
  24 H :    0.032201
  25 C :   -0.049818
  26 H :    0.030690
  27 H :    0.033619
  28 C :   -0.073208
  29 H :    0.029073
  30 H :    0.022759
  31 H :    0.025557
  32 H :    0.023146
  33 H :    0.033688

  Mayer bond orders larger than 0.100000
B(  0-S ,  1-C ) :   1.1418 B(  0-S ,  4-C ) :   1.1602 B(  1-C ,  2-C ) :   1.6060
B(  1-C , 32-H ) :   0.9715 B(  2-C ,  3-C ) :   1.2296 B(  2-C ,  6-C ) :   1.0223
B(  3-C ,  4-C ) :   1.6030 B(  3-C ,  5-H ) :   0.9809 B(  4-C , 20-C ) :   1.0065
B(  6-C ,  7-H ) :   0.9397 B(  6-C ,  8-H ) :   0.9410 B(  6-C ,  9-C ) :   1.0601
B(  9-C , 10-H ) :   0.9538 B(  9-C , 11-H ) :   0.9541 B(  9-C , 12-C ) :   1.0876
B( 12-C , 13-H ) :   0.9755 B( 12-C , 14-H ) :   0.9735 B( 12-C , 15-H ) :   0.9729
B( 16-S , 17-C ) :   1.1751 B( 16-S , 20-C ) :   1.1398 B( 17-C , 18-C ) :   1.5678
B( 17-C , 33-H ) :   0.9632 B( 18-C , 19-C ) :   1.2624 B( 18-C , 21-H ) :   0.9916
B( 19-C , 20-C ) :   1.6143 B( 19-C , 22-C ) :   1.0307 B( 22-C , 23-H ) :   0.9357
B( 22-C , 24-H ) :   0.9155 B( 22-C , 25-C ) :   1.0692 B( 25-C , 26-H ) :   0.9443
B( 25-C , 27-H ) :   0.9597 B( 25-C , 28-C ) :   1.0888 B( 28-C , 29-H ) :   0.9718
B( 28-C , 30-H ) :   0.9700 B( 28-C , 31-H ) :   0.9727

Dispersion correction           -0.013514725
FINAL SINGLE POINT ENERGY     -1339.890623695496

DIPOLE MOMENT
-------------
                                X             Y             Z
Electronic contribution:     18.26419       4.64851     -25.22429
Nuclear contribution   :    -18.67182      -4.62839      25.81370
                        -----------------------------------------
Total Dipole Moment    :     -0.40763       0.02012       0.58941
                        -----------------------------------------
Magnitude (a.u.)       :      0.71692
Magnitude (Debye)      :      1.82226

Rotational constants in cm-1:     0.016600     0.008574     0.006236
Rotational constants in MHz :   497.664694   257.046919   186.960090

                             ****ORCA TERMINATED NORMALLY****
TOTAL RUN TIME: 0 days 0 hours 0 minutes 21 seconds 121 msec
