                         Program Version 4.2.1 -  RELEASE  -
|  1> ! wB97X-D3 SP def2-SVP
|  2> %pal
|  3> nprocs 24
|  4> end
|  5>
|  6> * xyz 0 1
|  7> S 	 -132.017 	 9.82805 	 -2.64407
|  8> C 	 -131.13 	 9.89944 	 -1.1499
|  9> C 	 -131.673 	 8.99679 	 -0.263805
| 10> C 	 -132.511 	 8.02602 	 -0.909385
| 11> C 	 -132.734 	 8.30618 	 -2.25582
| 12> H 	 -132.966 	 7.13516 	 -0.385989
| 13> C 	 -131.354 	 9.06862 	 1.19379
| 14> H 	 -132.045 	 8.40996 	 1.76646
| 15> H 	 -131.567 	 10.0788 	 1.51498
| 16> C 	 -129.894 	 8.75365 	 1.60776
| 17> H 	 -129.617 	 7.74912 	 1.19139
| 18> H 	 -129.142 	 9.41174 	 1.08945
| 19> C 	 -129.763 	 8.61331 	 3.12219
| 20> H 	 -130.307 	 9.34046 	 3.68779
| 21> H 	 -130.166 	 7.66948 	 3.49586
| 22> H 	 -128.758 	 8.79778 	 3.46784
| 23> S 	 -132.931 	 7.72924 	 -4.90015
| 24> C 	 -134.199 	 6.68214 	 -5.52473
| 25> C 	 -134.558 	 5.81088 	 -4.52247
| 26> C 	 -134.215 	 6.26996 	 -3.2331
| 27> C 	 -133.351 	 7.4214 	 -3.23221
| 28> H 	 -135.244 	 4.94975 	 -4.73579
| 29> C 	 -134.561 	 5.51153 	 -1.96702
| 30> H 	 -133.649 	 5.24603 	 -1.4041
| 31> H 	 -134.938 	 4.51225 	 -2.33242
| 32> C 	 -135.607 	 6.239 	 -1.11103
| 33> H 	 -136.534 	 6.65733 	 -1.55915
| 34> H 	 -135.098 	 7.1244 	 -0.826929
| 35> C 	 -135.872 	 5.48047 	 0.161895
| 36> H 	 -136.873 	 5.75724 	 0.428117
| 37> H 	 -135.375 	 5.76849 	 1.09048
| 38> H 	 -135.844 	 4.39725 	 0.0011718
| 39> H 	 -130.596 	 10.7154 	 -0.733416
| 40> H 	 -134.452 	 6.60066 	 -6.54444
| 41> *
| 42>
| 43>                          ****END OF INPUT****

CARTESIAN COORDINATES (ANGSTROEM)
---------------------------------
  S    -132.017000    9.828050   -2.644070
  C    -131.130000    9.899440   -1.149900
  C    -131.673000    8.996790   -0.263805
  C    -132.511000    8.026020   -0.909385
  C    -132.734000    8.306180   -2.255820
  H    -132.966000    7.135160   -0.385989
  C    -131.354000    9.068620    1.193790
  H    -132.045000    8.409960    1.766460
  H    -131.567000   10.078800    1.514980
  C    -129.894000    8.753650    1.607760
  H    -129.617000    7.749120    1.191390
  H    -129.142000    9.411740    1.089450
  C    -129.763000    8.613310    3.122190
  H    -130.307000    9.340460    3.687790
  H    -130.166000    7.669480    3.495860
  H    -128.758000    8.797780    3.467840
  S    -132.931000    7.729240   -4.900150
  C    -134.199000    6.682140   -5.524730
  C    -134.558000    5.810880   -4.522470
  C    -134.215000    6.269960   -3.233100
  C    -133.351000    7.421400   -3.232210
  H    -135.244000    4.949750   -4.735790
  C    -134.561000    5.511530   -1.967020
  H    -133.649000    5.246030   -1.404100
  H    -134.938000    4.512250   -2.332420
  C    -135.607000    6.239000   -1.111030
  H    -136.534000    6.657330   -1.559150
  H    -135.098000    7.124400   -0.826929
  C    -135.872000    5.480470    0.161895
  H    -136.873000    5.757240    0.428117
  H    -135.375000    5.768490    1.090480
  H    -135.844000    4.397250    0.001172
  H    -130.596000   10.715400   -0.733416
  H    -134.452000    6.600660   -6.544440

 Total Charge           Charge          ....    0
 Multiplicity           Mult            ....    1
 Number of Electrons    NEL             ....  134
 Basis Dimension        Dim             ....  322

ORBITAL ENERGIES
----------------

  NO   OCC          E(Eh)            E(eV)
   0   2.0000     -88.969213     -2420.9754
   1   2.0000     -88.962028     -2420.7799
   2   2.0000     -10.334416      -281.2138
   3   2.0000     -10.332428      -281.1597
   4   2.0000     -10.314490      -280.6715
   5   2.0000     -10.308402      -280.5059
   6   2.0000     -10.305805      -280.4352
   7   2.0000     -10.300276      -280.2848
   8   2.0000     -10.299898      -280.2745
   9   2.0000     -10.297706      -280.2148
  10   2.0000     -10.297169      -280.2002
  11   2.0000     -10.295982      -280.1679
  12   2.0000     -10.294381      -280.1243
  13   2.0000     -10.281588      -279.7762
  14   2.0000     -10.277151      -279.6555
  15   2.0000     -10.272704      -279.5345
  16   2.0000      -8.084137      -219.9806
  17   2.0000      -8.076889      -219.7833
  18   2.0000      -6.042757      -164.4318
  19   2.0000      -6.038612      -164.3190
  20   2.0000      -6.035368      -164.2307
  21   2.0000      -6.034731      -164.2134
  22   2.0000      -6.031385      -164.1223
  23   2.0000      -6.027644      -164.0205
  24   2.0000      -1.011030       -27.5115
  25   2.0000      -0.987376       -26.8679
  26   2.0000      -0.914438       -24.8831
  27   2.0000      -0.911445       -24.8017
  28   2.0000      -0.873143       -23.7594
  29   2.0000      -0.852141       -23.1879
  30   2.0000      -0.846710       -23.0401
  31   2.0000      -0.818362       -22.2688
  32   2.0000      -0.780591       -21.2410
  33   2.0000      -0.769248       -20.9323
  34   2.0000      -0.711387       -19.3578
  35   2.0000      -0.705044       -19.1852
  36   2.0000      -0.695706       -18.9311
  37   2.0000      -0.662986       -18.0408
  38   2.0000      -0.635461       -17.2918
  39   2.0000      -0.619431       -16.8556
  40   2.0000      -0.596929       -16.2433
  41   2.0000      -0.574803       -15.6412
  42   2.0000      -0.561695       -15.2845
  43   2.0000      -0.555278       -15.1099
  44   2.0000      -0.530644       -14.4396
  45   2.0000      -0.521415       -14.1884
  46   2.0000      -0.519802       -14.1445
  47   2.0000      -0.514662       -14.0047
  48   2.0000      -0.510020       -13.8783
  49   2.0000      -0.504259       -13.7216
  50   2.0000      -0.492051       -13.3894
  51   2.0000      -0.489065       -13.3081
  52   2.0000      -0.473599       -12.8873
  53   2.0000      -0.463953       -12.6248
  54   2.0000      -0.460635       -12.5345
  55   2.0000      -0.450383       -12.2556
  56   2.0000      -0.448524       -12.2050
  57   2.0000      -0.435294       -11.8450
  58   2.0000      -0.433903       -11.8071
  59   2.0000      -0.423947       -11.5362
  60   2.0000      -0.416215       -11.3258
  61   2.0000      -0.414167       -11.2701
  62   2.0000      -0.403859       -10.9896
  63   2.0000      -0.358901        -9.7662
  64   2.0000      -0.328021        -8.9259
  65   2.0000      -0.327243        -8.9047
  66   2.0000      -0.279451        -7.6043
  67   0.0000       0.009485         0.2581
  68   0.0000       0.083357         2.2683
  69   0.0000       0.100116         2.7243
  70   0.0000       0.105985         2.8840
  71   0.0000       0.138562         3.7705

MULLIKEN ATOMIC CHARGES
-----------------------
   0 S :    0.125523
   1 C :   -0.094621
   2 C :   -0.104899
   3 C :   -0.013515
   4 C :   -0.105204
   5 H :    0.029005
   6 C :    0.052159
   7 H :    0.020886
   8 H :    0.029781
   9 C :   -0.099729
  10 H :    0.034211
  11 H :    0.038686
  12 C :   -0.018695
  13 H :    0.010381
  14 H :    0.034380
  15 H :    0.030132
  16 S :    0.086547
  17 C :   -0.086322
  18 C :   -0.034046
  19 C :   -0.053659
  20 C :   -0.123873
  21 H :    0.040089
  22 C :    0.001742
  23 H :    0.049798
  24 H :    0.019158
  25 C :   -0.056715
  26 H :    0.042064
  27 H :    0.007785
  28 C :   -0.023846
  29 H :    0.011923
  30 H :    0.031221
  31 H :    0.032988
  32 H :    0.040054
  33 H :    0.046613
Sum of atomic charges:   -0.0000000

LOEWDIN ATOMIC CHARGES
----------------------
   0 S :    0.425817
   1 C :   -0.201589
   2 C :   -0.061625
   3 C :   -0.074990
   4 C :   -0.201333
   5 H :    0.039052
   6 C :   -0.035813
   7 H :    0.031972
   8 H :    0.030127
   9 C :   -0.045199
  10 H :    0.029826
  11 H :    0.027496
  12 C :   -0.067105
  13 H :    0.019199
  14 H :    0.028701
  15 H :    0.027761
  16 S :    0.404590
  17 C :   -0.175207
  18 C :   -0.076212
  19 C :   -0.061712
  20 C :   -0.191034
  21 H :    0.041513
  22 C :   -0.035698
  23 H :    0.033378
  24 H :    0.029067
  25 C :   -0.046744
  26 H :    0.034491
  27 H :    0.019715
  28 C :   -0.071408
  29 H :    0.026516
  30 H :    0.026106
  31 H :    0.025171
  32 H :    0.023993
  33 H :    0.021179

  Mayer bond orders larger than 0.100000
B(  0-S ,  1-C ) :   1.1305 B(  0-S ,  4-C ) :   1.1628 B(  1-C ,  2-C ) :   1.5900
B(  1-C , 32-H ) :   0.9665 B(  2-C ,  3-C ) :   1.2702 B(  2-C ,  6-C ) :   1.0304
B(  3-C ,  4-C ) :   1.5142 B(  3-C ,  5-H ) :   0.9774 B(  4-C , 20-C ) :   1.1020
B(  6-C ,  7-H ) :   0.9465 B(  6-C ,  8-H ) :   0.9299 B(  6-C ,  9-C ) :   1.0594
B(  9-C , 10-H ) :   0.9577 B(  9-C , 11-H ) :   0.9577 B(  9-C , 12-C ) :   1.0731
B( 12-C , 13-H ) :   0.9729 B( 12-C , 14-H ) :   0.9748 B( 12-C , 15-H ) :   0.9730
B( 16-S , 17-C ) :   1.1630 B( 16-S , 20-C ) :   1.1529 B( 17-C , 18-C ) :   1.5575
B( 17-C , 20-C ) :   0.1109 B( 17-C , 33-H ) :   0.9764 B( 18-C , 19-C ) :   1.3067
B( 18-C , 21-H ) :   0.9759 B( 19-C , 20-C ) :   1.5028 B( 19-C , 22-C ) :   1.0368
B( 22-C , 23-H ) :   0.9423 B( 22-C , 24-H ) :   0.9339 B( 22-C , 25-C ) :   1.0512
B( 25-C , 26-H ) :   0.9608 B( 25-C , 27-H ) :   0.9489 B( 25-C , 28-C ) :   1.0741
B( 28-C , 29-H ) :   0.9700 B( 28-C , 30-H ) :   0.9731 B( 28-C , 31-H ) :   0.9743

Dispersion correction           -0.013858437
FINAL SINGLE POINT ENERGY     -1339.855656899165

DIPOLE MOMENT
-------------
                                X             Y             Z
Electronic contribution:      1.85211       9.47970     -29.75189
Nuclear contribution   :     -2.04205      -9.72051      30.38375
                        -----------------------------------------
Total Dipole Moment    :     -0.18993      -0.24081       0.63186
                        -----------------------------------------
Magnitude (a.u.)       :      0.70236
Magnitude (Debye)      :      1.78526

Rotational constants in cm-1:     0.019040     0.008471     0.006269
Rotational constants in MHz :   570.813150   253.955945   187.952990

                             ****ORCA TERMINATED NORMALLY****
TOTAL RUN TIME: 0 days 0 hours 0 minutes 21 seconds 605 msec
