                         Program Version 4.2.1 -  RELEASE  -
|  1> ! wB97X-D3 SP def2-SVP
|  2> %pal
|  3> nprocs 24
|  4> end
|  5>
|  6> * xyz 0 1
|  7> S 	 -30.5478 	 -36.1469 	 -91.4253
|  8> C 	 -29.8287 	 -35.4793 	 -92.9017
|  9> C 	 -30.2464 	 -36.1463 	 -94.0433
| 10> C 	 -31.096 	 -37.2534 	 -93.6799
| 11> C 	 -31.1463 	 -37.5309 	 -92.3154
| 12> H 	 -31.5868 	 -37.9599 	 -94.386
| 13> C 	 -29.9118 	 -35.8269 	 -95.491
| 14> H 	 -30.1501 	 -36.6595 	 -96.1723
| 15> H 	 -28.862 	 -35.7187 	 -95.5707
| 16> C 	 -30.5824 	 -34.5819 	 -96.0087
| 17> H 	 -31.6399 	 -34.731 	 -95.8915
| 18> H 	 -30.2988 	 -33.6499 	 -95.5324
| 19> C 	 -30.317 	 -34.4345 	 -97.5283
| 20> H 	 -29.2419 	 -34.1744 	 -97.8055
| 21> H 	 -30.5514 	 -35.4387 	 -97.9284
| 22> H 	 -30.9922 	 -33.6164 	 -97.9557
| 23> S 	 -32.2248 	 -40.1106 	 -92.4688
| 24> C 	 -33.2084 	 -40.7662 	 -91.1807
| 25> C 	 -33.3778 	 -39.8269 	 -90.2306
| 26> C 	 -32.7489 	 -38.5382 	 -90.4975
| 27> C 	 -32.0779 	 -38.5077 	 -91.6798
| 28> H 	 -34.092 	 -40.0494 	 -89.5107
| 29> C 	 -32.8877 	 -37.4698 	 -89.3955
| 30> H 	 -31.8392 	 -36.9965 	 -89.2384
| 31> H 	 -33.0428 	 -37.9745 	 -88.4652
| 32> C 	 -33.9723 	 -36.4582 	 -89.5599
| 33> H 	 -33.8873 	 -35.909 	 -90.4933
| 34> H 	 -33.7715 	 -35.6975 	 -88.818
| 35> C 	 -35.3597 	 -37.0072 	 -89.3489
| 36> H 	 -35.2537 	 -37.9689 	 -89.8302
| 37> H 	 -36.13 	 -36.4726 	 -89.8618
| 38> H 	 -35.5244 	 -37.1293 	 -88.2755
| 39> H 	 -29.1089 	 -34.7074 	 -93.0072
| 40> H 	 -33.6866 	 -41.6852 	 -91.1435
| 41> *
| 42>
| 43>                          ****END OF INPUT****

CARTESIAN COORDINATES (ANGSTROEM)
---------------------------------
  S    -30.547800  -36.146900  -91.425300
  C    -29.828700  -35.479300  -92.901700
  C    -30.246400  -36.146300  -94.043300
  C    -31.096000  -37.253400  -93.679900
  C    -31.146300  -37.530900  -92.315400
  H    -31.586800  -37.959900  -94.386000
  C    -29.911800  -35.826900  -95.491000
  H    -30.150100  -36.659500  -96.172300
  H    -28.862000  -35.718700  -95.570700
  C    -30.582400  -34.581900  -96.008700
  H    -31.639900  -34.731000  -95.891500
  H    -30.298800  -33.649900  -95.532400
  C    -30.317000  -34.434500  -97.528300
  H    -29.241900  -34.174400  -97.805500
  H    -30.551400  -35.438700  -97.928400
  H    -30.992200  -33.616400  -97.955700
  S    -32.224800  -40.110600  -92.468800
  C    -33.208400  -40.766200  -91.180700
  C    -33.377800  -39.826900  -90.230600
  C    -32.748900  -38.538200  -90.497500
  C    -32.077900  -38.507700  -91.679800
  H    -34.092000  -40.049400  -89.510700
  C    -32.887700  -37.469800  -89.395500
  H    -31.839200  -36.996500  -89.238400
  H    -33.042800  -37.974500  -88.465200
  C    -33.972300  -36.458200  -89.559900
  H    -33.887300  -35.909000  -90.493300
  H    -33.771500  -35.697500  -88.818000
  C    -35.359700  -37.007200  -89.348900
  H    -35.253700  -37.968900  -89.830200
  H    -36.130000  -36.472600  -89.861800
  H    -35.524400  -37.129300  -88.275500
  H    -29.108900  -34.707400  -93.007200
  H    -33.686600  -41.685200  -91.143500

 Total Charge           Charge          ....    0
 Multiplicity           Mult            ....    1
 Number of Electrons    NEL             ....  134
 Basis Dimension        Dim             ....  322

ORBITAL ENERGIES
----------------

  NO   OCC          E(Eh)            E(eV)
   0   2.0000     -88.972085     -2421.0535
   1   2.0000     -88.961588     -2420.7679
   2   2.0000     -10.335557      -281.2448
   3   2.0000     -10.333748      -281.1956
   4   2.0000     -10.316737      -280.7327
   5   2.0000     -10.310294      -280.5574
   6   2.0000     -10.305755      -280.4339
   7   2.0000     -10.303347      -280.3683
   8   2.0000     -10.300654      -280.2950
   9   2.0000     -10.293518      -280.1009
  10   2.0000     -10.292577      -280.0753
  11   2.0000     -10.291435      -280.0442
  12   2.0000     -10.285627      -279.8862
  13   2.0000     -10.284526      -279.8562
  14   2.0000     -10.274683      -279.5883
  15   2.0000     -10.269189      -279.4388
  16   2.0000      -8.085661      -220.0220
  17   2.0000      -8.075927      -219.7571
  18   2.0000      -6.044369      -164.4756
  19   2.0000      -6.040446      -164.3689
  20   2.0000      -6.036157      -164.2522
  21   2.0000      -6.034751      -164.2139
  22   2.0000      -6.030479      -164.0977
  23   2.0000      -6.026391      -163.9864
  24   2.0000      -1.004532       -27.3347
  25   2.0000      -0.984054       -26.7775
  26   2.0000      -0.918947       -25.0058
  27   2.0000      -0.915061       -24.9001
  28   2.0000      -0.871606       -23.7176
  29   2.0000      -0.849621       -23.1194
  30   2.0000      -0.842543       -22.9268
  31   2.0000      -0.815865       -22.2008
  32   2.0000      -0.782377       -21.2896
  33   2.0000      -0.775004       -21.0889
  34   2.0000      -0.709161       -19.2972
  35   2.0000      -0.700123       -19.0513
  36   2.0000      -0.688654       -18.7392
  37   2.0000      -0.669911       -18.2292
  38   2.0000      -0.634211       -17.2578
  39   2.0000      -0.618256       -16.8236
  40   2.0000      -0.594848       -16.1866
  41   2.0000      -0.580722       -15.8022
  42   2.0000      -0.569736       -15.5033
  43   2.0000      -0.555962       -15.1285
  44   2.0000      -0.550006       -14.9664
  45   2.0000      -0.524617       -14.2756
  46   2.0000      -0.520756       -14.1705
  47   2.0000      -0.515850       -14.0370
  48   2.0000      -0.500710       -13.6250
  49   2.0000      -0.498958       -13.5773
  50   2.0000      -0.487822       -13.2743
  51   2.0000      -0.479602       -13.0506
  52   2.0000      -0.467991       -12.7347
  53   2.0000      -0.465235       -12.6597
  54   2.0000      -0.462203       -12.5772
  55   2.0000      -0.450178       -12.2500
  56   2.0000      -0.442664       -12.0455
  57   2.0000      -0.436508       -11.8780
  58   2.0000      -0.429905       -11.6983
  59   2.0000      -0.427920       -11.6443
  60   2.0000      -0.423640       -11.5278
  61   2.0000      -0.410014       -11.1570
  62   2.0000      -0.401452       -10.9241
  63   2.0000      -0.361248        -9.8301
  64   2.0000      -0.332489        -9.0475
  65   2.0000      -0.328320        -8.9340
  66   2.0000      -0.291143        -7.9224
  67   0.0000       0.021650         0.5891
  68   0.0000       0.078010         2.1228
  69   0.0000       0.104460         2.8425
  70   0.0000       0.118260         3.2180
  71   0.0000       0.121553         3.3076

MULLIKEN ATOMIC CHARGES
-----------------------
   0 S :    0.087776
   1 C :   -0.078758
   2 C :   -0.082610
   3 C :   -0.030359
   4 C :   -0.085597
   5 H :    0.035746
   6 C :    0.075700
   7 H :    0.021698
   8 H :    0.019278
   9 C :   -0.060041
  10 H :    0.028289
  11 H :    0.030933
  12 C :   -0.093013
  13 H :    0.044232
  14 H :    0.029935
  15 H :    0.052266
  16 S :    0.070250
  17 C :   -0.052314
  18 C :   -0.018526
  19 C :   -0.088382
  20 C :   -0.115202
  21 H :    0.002168
  22 C :    0.010827
  23 H :    0.048252
  24 H :    0.011473
  25 C :   -0.029089
  26 H :    0.024097
  27 H :    0.018550
  28 C :   -0.019428
  29 H :    0.016478
  30 H :    0.033292
  31 H :    0.032474
  32 H :    0.027861
  33 H :    0.031748
Sum of atomic charges:   -0.0000000

LOEWDIN ATOMIC CHARGES
----------------------
   0 S :    0.409766
   1 C :   -0.182570
   2 C :   -0.055743
   3 C :   -0.065187
   4 C :   -0.189561
   5 H :    0.032988
   6 C :   -0.030768
   7 H :    0.033277
   8 H :    0.027406
   9 C :   -0.038744
  10 H :    0.024632
  11 H :    0.021997
  12 C :   -0.074462
  13 H :    0.029003
  14 H :    0.023200
  15 H :    0.034471
  16 S :    0.377860
  17 C :   -0.167534
  18 C :   -0.069875
  19 C :   -0.069469
  20 C :   -0.171912
  21 H :    0.019704
  22 C :   -0.039365
  23 H :    0.031871
  24 H :    0.026149
  25 C :   -0.044103
  26 H :    0.023040
  27 H :    0.021967
  28 C :   -0.060412
  29 H :    0.026221
  30 H :    0.025420
  31 H :    0.027165
  32 H :    0.022288
  33 H :    0.021280

  Mayer bond orders larger than 0.100000
B(  0-S ,  1-C ) :   1.1293 B(  0-S ,  4-C ) :   1.1426 B(  1-C ,  2-C ) :   1.6198
B(  1-C , 32-H ) :   0.9685 B(  2-C ,  3-C ) :   1.2516 B(  2-C ,  6-C ) :   1.0202
B(  3-C ,  4-C ) :   1.5617 B(  3-C ,  5-H ) :   0.9800 B(  4-C , 20-C ) :   1.0341
B(  6-C ,  7-H ) :   0.9427 B(  6-C ,  8-H ) :   0.9327 B(  6-C ,  9-C ) :   1.0691
B(  9-C , 10-H ) :   0.9542 B(  9-C , 11-H ) :   0.9552 B(  9-C , 12-C ) :   1.0777
B( 12-C , 13-H ) :   0.9754 B( 12-C , 14-H ) :   0.9733 B( 12-C , 15-H ) :   0.9747
B( 16-S , 17-C ) :   1.1300 B( 16-S , 20-C ) :   1.1106 B( 17-C , 18-C ) :   1.6654
B( 17-C , 33-H ) :   0.9707 B( 18-C , 19-C ) :   1.1987 B( 18-C , 21-H ) :   0.9902
B( 19-C , 20-C ) :   1.6592 B( 19-C , 22-C ) :   1.0203 B( 22-C , 23-H ) :   0.9357
B( 22-C , 24-H ) :   0.9327 B( 22-C , 25-C ) :   1.0770 B( 25-C , 26-H ) :   0.9534
B( 25-C , 27-H ) :   0.9513 B( 25-C , 28-C ) :   1.0663 B( 28-C , 29-H ) :   0.9791
B( 28-C , 30-H ) :   0.9710 B( 28-C , 31-H ) :   0.9738

Dispersion correction           -0.013909529
FINAL SINGLE POINT ENERGY     -1339.867936157222

DIPOLE MOMENT
-------------
                                X             Y             Z
Electronic contribution:      6.68476     -14.35596       7.44182
Nuclear contribution   :     -6.86530      14.63975      -7.58721
                        -----------------------------------------
Total Dipole Moment    :     -0.18053       0.28379      -0.14539
                        -----------------------------------------
Magnitude (a.u.)       :      0.36642
Magnitude (Debye)      :      0.93137

Rotational constants in cm-1:     0.022272     0.007264     0.006321
Rotational constants in MHz :   667.712023   217.774940   189.488707

                             ****ORCA TERMINATED NORMALLY****
TOTAL RUN TIME: 0 days 0 hours 0 minutes 21 seconds 163 msec
