                         Program Version 4.2.1 -  RELEASE  -
|  1> ! wB97X-D3 SP def2-SVP
|  2> %pal
|  3> nprocs 24
|  4> end
|  5>
|  6> * xyz 0 1
|  7> S 	 27.8929 	 -26.0049 	 -133.32
|  8> C 	 27.1032 	 -24.4226 	 -133.138
|  9> C 	 27.0815 	 -24.0265 	 -131.793
| 10> C 	 27.8329 	 -24.9447 	 -131.002
| 11> C 	 28.3536 	 -26.045 	 -131.675
| 12> H 	 27.9417 	 -24.7803 	 -129.995
| 13> C 	 26.4863 	 -22.7489 	 -131.269
| 14> H 	 25.509 	 -22.9766 	 -130.875
| 15> H 	 26.3964 	 -22.0402 	 -132.052
| 16> C 	 27.4667 	 -22.0497 	 -130.277
| 17> H 	 27.7987 	 -22.6526 	 -129.452
| 18> H 	 28.3725 	 -21.7468 	 -130.701
| 19> C 	 26.8267 	 -20.8431 	 -129.724
| 20> H 	 26.5995 	 -20.0808 	 -130.437
| 21> H 	 25.9101 	 -21.1725 	 -129.234
| 22> H 	 27.345 	 -20.3275 	 -128.861
| 23> S 	 28.7032 	 -28.7423 	 -131.677
| 24> C 	 29.6909 	 -29.4771 	 -130.421
| 25> C 	 30.293 	 -28.5118 	 -129.661
| 26> C 	 29.9815 	 -27.216 	 -130.017
| 27> C 	 29.0136 	 -27.1866 	 -131.041
| 28> H 	 30.8362 	 -28.683 	 -128.728
| 29> C 	 30.5458 	 -25.9791 	 -129.196
| 30> H 	 29.873 	 -25.9582 	 -128.35
| 31> H 	 30.4957 	 -25.1025 	 -129.772
| 32> C 	 31.9657 	 -26.0623 	 -128.567
| 33> H 	 32.7874 	 -26.0576 	 -129.243
| 34> H 	 32.1595 	 -26.8952 	 -127.885
| 35> C 	 32.2768 	 -24.6803 	 -127.688
| 36> H 	 32.3577 	 -23.7168 	 -128.227
| 37> H 	 33.1846 	 -24.797 	 -127.055
| 38> H 	 31.4701 	 -24.5934 	 -126.998
| 39> H 	 26.7286 	 -23.7613 	 -134.045
| 40> H 	 29.8572 	 -30.5213 	 -130.141
| 41> *
| 42>
| 43>                          ****END OF INPUT****

CARTESIAN COORDINATES (ANGSTROEM)
---------------------------------
  S     27.892900  -26.004900  -133.320000
  C     27.103200  -24.422600  -133.138000
  C     27.081500  -24.026500  -131.793000
  C     27.832900  -24.944700  -131.002000
  C     28.353600  -26.045000  -131.675000
  H     27.941700  -24.780300  -129.995000
  C     26.486300  -22.748900  -131.269000
  H     25.509000  -22.976600  -130.875000
  H     26.396400  -22.040200  -132.052000
  C     27.466700  -22.049700  -130.277000
  H     27.798700  -22.652600  -129.452000
  H     28.372500  -21.746800  -130.701000
  C     26.826700  -20.843100  -129.724000
  H     26.599500  -20.080800  -130.437000
  H     25.910100  -21.172500  -129.234000
  H     27.345000  -20.327500  -128.861000
  S     28.703200  -28.742300  -131.677000
  C     29.690900  -29.477100  -130.421000
  C     30.293000  -28.511800  -129.661000
  C     29.981500  -27.216000  -130.017000
  C     29.013600  -27.186600  -131.041000
  H     30.836200  -28.683000  -128.728000
  C     30.545800  -25.979100  -129.196000
  H     29.873000  -25.958200  -128.350000
  H     30.495700  -25.102500  -129.772000
  C     31.965700  -26.062300  -128.567000
  H     32.787400  -26.057600  -129.243000
  H     32.159500  -26.895200  -127.885000
  C     32.276800  -24.680300  -127.688000
  H     32.357700  -23.716800  -128.227000
  H     33.184600  -24.797000  -127.055000
  H     31.470100  -24.593400  -126.998000
  H     26.728600  -23.761300  -134.045000
  H     29.857200  -30.521300  -130.141000

 Total Charge           Charge          ....    0
 Multiplicity           Mult            ....    1
 Number of Electrons    NEL             ....  134
 Basis Dimension        Dim             ....  322

ORBITAL ENERGIES
----------------

  NO   OCC          E(Eh)            E(eV)
   0   2.0000     -88.970582     -2421.0126
   1   2.0000     -88.967317     -2420.9238
   2   2.0000     -10.327889      -281.0362
   3   2.0000     -10.326321      -280.9935
   4   2.0000     -10.323616      -280.9199
   5   2.0000     -10.314859      -280.6816
   6   2.0000     -10.301351      -280.3140
   7   2.0000     -10.301336      -280.3136
   8   2.0000     -10.298158      -280.2271
   9   2.0000     -10.298121      -280.2261
  10   2.0000     -10.293300      -280.0949
  11   2.0000     -10.287518      -279.9376
  12   2.0000     -10.286354      -279.9059
  13   2.0000     -10.284995      -279.8689
  14   2.0000     -10.280076      -279.7351
  15   2.0000     -10.274843      -279.5927
  16   2.0000      -8.085489      -220.0173
  17   2.0000      -8.082157      -219.9267
  18   2.0000      -6.043975      -164.4649
  19   2.0000      -6.040657      -164.3746
  20   2.0000      -6.039953      -164.3555
  21   2.0000      -6.036644      -164.2654
  22   2.0000      -6.036291      -164.2558
  23   2.0000      -6.032937      -164.1646
  24   2.0000      -1.011500       -27.5243
  25   2.0000      -0.986390       -26.8410
  26   2.0000      -0.921912       -25.0865
  27   2.0000      -0.898304       -24.4441
  28   2.0000      -0.872510       -23.7422
  29   2.0000      -0.849749       -23.1229
  30   2.0000      -0.846174       -23.0256
  31   2.0000      -0.811204       -22.0740
  32   2.0000      -0.782136       -21.2830
  33   2.0000      -0.769946       -20.9513
  34   2.0000      -0.714527       -19.4433
  35   2.0000      -0.706945       -19.2369
  36   2.0000      -0.693227       -18.8637
  37   2.0000      -0.658657       -17.9230
  38   2.0000      -0.635542       -17.2940
  39   2.0000      -0.627470       -17.0743
  40   2.0000      -0.594291       -16.1715
  41   2.0000      -0.576977       -15.7003
  42   2.0000      -0.566973       -15.4281
  43   2.0000      -0.563560       -15.3352
  44   2.0000      -0.527993       -14.3674
  45   2.0000      -0.517074       -14.0703
  46   2.0000      -0.513220       -13.9654
  47   2.0000      -0.508289       -13.8312
  48   2.0000      -0.507403       -13.8071
  49   2.0000      -0.497969       -13.5504
  50   2.0000      -0.488102       -13.2819
  51   2.0000      -0.484934       -13.1957
  52   2.0000      -0.469600       -12.7785
  53   2.0000      -0.466513       -12.6945
  54   2.0000      -0.460457       -12.5297
  55   2.0000      -0.455967       -12.4075
  56   2.0000      -0.451935       -12.2978
  57   2.0000      -0.439609       -11.9624
  58   2.0000      -0.437100       -11.8941
  59   2.0000      -0.430891       -11.7251
  60   2.0000      -0.426374       -11.6022
  61   2.0000      -0.415076       -11.2948
  62   2.0000      -0.407390       -11.0857
  63   2.0000      -0.353248        -9.6124
  64   2.0000      -0.335441        -9.1278
  65   2.0000      -0.331060        -9.0086
  66   2.0000      -0.281476        -7.6594
  67   0.0000       0.027253         0.7416
  68   0.0000       0.077969         2.1216
  69   0.0000       0.102464         2.7882
  70   0.0000       0.125386         3.4119
  71   0.0000       0.136011         3.7010

MULLIKEN ATOMIC CHARGES
-----------------------
   0 S :    0.105669
   1 C :   -0.179138
   2 C :   -0.082667
   3 C :    0.025452
   4 C :   -0.110740
   5 H :   -0.032955
   6 C :    0.106706
   7 H :    0.043665
   8 H :    0.011945
   9 C :   -0.058678
  10 H :    0.021712
  11 H :    0.017895
  12 C :   -0.055976
  13 H :    0.026950
  14 H :    0.016530
  15 H :    0.033681
  16 S :    0.121406
  17 C :   -0.082677
  18 C :   -0.048147
  19 C :   -0.038498
  20 C :   -0.158772
  21 H :    0.018856
  22 C :    0.081234
  23 H :    0.042909
  24 H :    0.030205
  25 C :   -0.081629
  26 H :    0.035969
  27 H :    0.035488
  28 C :   -0.097724
  29 H :    0.047834
  30 H :    0.040016
  31 H :    0.019044
  32 H :    0.088747
  33 H :    0.055686
Sum of atomic charges:   -0.0000000

LOEWDIN ATOMIC CHARGES
----------------------
   0 S :    0.410044
   1 C :   -0.217920
   2 C :   -0.059756
   3 C :   -0.062099
   4 C :   -0.201808
   5 H :    0.011575
   6 C :   -0.016582
   7 H :    0.035565
   8 H :    0.028407
   9 C :   -0.036979
  10 H :    0.021313
  11 H :    0.020121
  12 C :   -0.068228
  13 H :    0.018918
  14 H :    0.023129
  15 H :    0.031322
  16 S :    0.428114
  17 C :   -0.194781
  18 C :   -0.075628
  19 C :   -0.059444
  20 C :   -0.208382
  21 H :    0.033893
  22 C :   -0.021607
  23 H :    0.034224
  24 H :    0.025454
  25 C :   -0.031054
  26 H :    0.019413
  27 H :    0.022534
  28 C :   -0.070921
  29 H :    0.027891
  30 H :    0.029693
  31 H :    0.014299
  32 H :    0.052827
  33 H :    0.036453

  Mayer bond orders larger than 0.100000
B(  0-S ,  1-C ) :   1.1332 B(  0-S ,  4-C ) :   1.1645 B(  1-C ,  2-C ) :   1.5906
B(  1-C , 32-H ) :   0.9523 B(  2-C ,  3-C ) :   1.2740 B(  2-C ,  6-C ) :   1.0207
B(  3-C ,  4-C ) :   1.5216 B(  3-C ,  5-H ) :   1.0092 B(  4-C , 20-C ) :   1.0544
B(  6-C ,  7-H ) :   0.9322 B(  6-C ,  8-H ) :   0.9435 B(  6-C ,  9-C ) :   1.0606
B(  9-C , 10-H ) :   0.9491 B(  9-C , 11-H ) :   0.9538 B(  9-C , 12-C ) :   1.0988
B( 12-C , 13-H ) :   0.9730 B( 12-C , 14-H ) :   0.9717 B( 12-C , 15-H ) :   0.9705
B( 16-S , 17-C ) :   1.1482 B( 16-S , 20-C ) :   1.1618 B( 17-C , 18-C ) :   1.5899
B( 17-C , 20-C ) :   0.1058 B( 17-C , 33-H ) :   0.9640 B( 18-C , 19-C ) :   1.3083
B( 18-C , 21-H ) :   0.9783 B( 19-C , 20-C ) :   1.5554 B( 19-C , 22-C ) :   1.0174
B( 22-C , 23-H ) :   0.9374 B( 22-C , 24-H ) :   0.9401 B( 22-C , 25-C ) :   1.0624
B( 25-C , 26-H ) :   0.9637 B( 25-C , 27-H ) :   0.9546 B( 25-C , 28-C ) :   1.0605
B( 28-C , 29-H ) :   0.9808 B( 28-C , 30-H ) :   0.9784 B( 28-C , 31-H ) :   0.9796

Dispersion correction           -0.013428090
FINAL SINGLE POINT ENERGY     -1339.855342303050

DIPOLE MOMENT
-------------
                                X             Y             Z
Electronic contribution:     -6.99586     -25.52564     -21.61589
Nuclear contribution   :      7.09218      26.05561      22.24475
                        -----------------------------------------
Total Dipole Moment    :      0.09632       0.52997       0.62886
                        -----------------------------------------
Magnitude (a.u.)       :      0.82802
Magnitude (Debye)      :      2.10466

Rotational constants in cm-1:     0.015163     0.009630     0.006269
Rotational constants in MHz :   454.588769   288.692626   187.944877

                             ****ORCA TERMINATED NORMALLY****
TOTAL RUN TIME: 0 days 0 hours 0 minutes 21 seconds 89 msec
