                         Program Version 4.2.1 -  RELEASE  -
|  1> ! wB97X-D3 SP def2-SVP
|  2> %pal
|  3> nprocs 24
|  4> end
|  5>
|  6> * xyz 0 1
|  7> S 	 -107.025 	 54.3823 	 -69.9903
|  8> C 	 -107.618 	 54.4789 	 -71.6733
|  9> C 	 -108.398 	 53.3239 	 -71.9463
| 10> C 	 -108.202 	 52.2899 	 -70.9363
| 11> C 	 -107.358 	 52.7137 	 -69.8958
| 12> H 	 -108.612 	 51.2541 	 -70.9247
| 13> C 	 -109.277 	 52.9969 	 -73.1003
| 14> H 	 -109.745 	 52.0097 	 -72.9609
| 15> H 	 -108.646 	 52.8327 	 -73.984
| 16> C 	 -110.372 	 53.9865 	 -73.2441
| 17> H 	 -110.996 	 53.9592 	 -72.3763
| 18> H 	 -110.13 	 55.0456 	 -73.2345
| 19> C 	 -111.386 	 53.6324 	 -74.3516
| 20> H 	 -111.86 	 52.6058 	 -74.3193
| 21> H 	 -112.225 	 54.3231 	 -74.3725
| 22> H 	 -110.929 	 53.7286 	 -75.358
| 23> S 	 -105.878 	 50.5801 	 -69.3508
| 24> C 	 -105.633 	 50.1429 	 -67.7469
| 25> C 	 -106.164 	 50.9564 	 -66.7932
| 26> C 	 -106.994 	 51.9609 	 -67.4144
| 27> C 	 -106.927 	 51.8334 	 -68.8097
| 28> H 	 -105.886 	 50.9555 	 -65.7781
| 29> C 	 -107.658 	 53.0843 	 -66.6135
| 30> H 	 -108.054 	 52.5598 	 -65.6383
| 31> H 	 -108.409 	 53.3721 	 -67.2849
| 32> C 	 -106.814 	 54.2445 	 -66.2917
| 33> H 	 -106.142 	 54.5042 	 -67.1722
| 34> H 	 -106.175 	 53.9058 	 -65.4589
| 35> C 	 -107.57 	 55.4862 	 -66.0209
| 36> H 	 -106.981 	 56.2955 	 -65.6237
| 37> H 	 -108.388 	 55.3132 	 -65.2669
| 38> H 	 -108.167 	 55.9081 	 -66.8103
| 39> H 	 -107.586 	 55.2766 	 -72.3843
| 40> H 	 -104.829 	 49.5218 	 -67.529
| 41> *
| 42>
| 43>                          ****END OF INPUT****

CARTESIAN COORDINATES (ANGSTROEM)
---------------------------------
  S    -107.025000   54.382300  -69.990300
  C    -107.618000   54.478900  -71.673300
  C    -108.398000   53.323900  -71.946300
  C    -108.202000   52.289900  -70.936300
  C    -107.358000   52.713700  -69.895800
  H    -108.612000   51.254100  -70.924700
  C    -109.277000   52.996900  -73.100300
  H    -109.745000   52.009700  -72.960900
  H    -108.646000   52.832700  -73.984000
  C    -110.372000   53.986500  -73.244100
  H    -110.996000   53.959200  -72.376300
  H    -110.130000   55.045600  -73.234500
  C    -111.386000   53.632400  -74.351600
  H    -111.860000   52.605800  -74.319300
  H    -112.225000   54.323100  -74.372500
  H    -110.929000   53.728600  -75.358000
  S    -105.878000   50.580100  -69.350800
  C    -105.633000   50.142900  -67.746900
  C    -106.164000   50.956400  -66.793200
  C    -106.994000   51.960900  -67.414400
  C    -106.927000   51.833400  -68.809700
  H    -105.886000   50.955500  -65.778100
  C    -107.658000   53.084300  -66.613500
  H    -108.054000   52.559800  -65.638300
  H    -108.409000   53.372100  -67.284900
  C    -106.814000   54.244500  -66.291700
  H    -106.142000   54.504200  -67.172200
  H    -106.175000   53.905800  -65.458900
  C    -107.570000   55.486200  -66.020900
  H    -106.981000   56.295500  -65.623700
  H    -108.388000   55.313200  -65.266900
  H    -108.167000   55.908100  -66.810300
  H    -107.586000   55.276600  -72.384300
  H    -104.829000   49.521800  -67.529000

 Total Charge           Charge          ....    0
 Multiplicity           Mult            ....    1
 Number of Electrons    NEL             ....  134
 Basis Dimension        Dim             ....  322

ORBITAL ENERGIES
----------------

  NO   OCC          E(Eh)            E(eV)
   0   2.0000     -88.971313     -2421.0325
   1   2.0000     -88.966363     -2420.8978
   2   2.0000     -10.326103      -280.9875
   3   2.0000     -10.321058      -280.8503
   4   2.0000     -10.317601      -280.7562
   5   2.0000     -10.306066      -280.4423
   6   2.0000     -10.302567      -280.3471
   7   2.0000     -10.301555      -280.3196
   8   2.0000     -10.295826      -280.1637
   9   2.0000     -10.290926      -280.0303
  10   2.0000     -10.290354      -280.0148
  11   2.0000     -10.287729      -279.9433
  12   2.0000     -10.284449      -279.8541
  13   2.0000     -10.282384      -279.7979
  14   2.0000     -10.282013      -279.7878
  15   2.0000     -10.272575      -279.5310
  16   2.0000      -8.085242      -220.0106
  17   2.0000      -8.083017      -219.9501
  18   2.0000      -6.043842      -164.4613
  19   2.0000      -6.041129      -164.3875
  20   2.0000      -6.039966      -164.3558
  21   2.0000      -6.037444      -164.2872
  22   2.0000      -6.035865      -164.2442
  23   2.0000      -6.033874      -164.1901
  24   2.0000      -1.012215       -27.5438
  25   2.0000      -0.984734       -26.7960
  26   2.0000      -0.921724       -25.0814
  27   2.0000      -0.919745       -25.0275
  28   2.0000      -0.867236       -23.5987
  29   2.0000      -0.857140       -23.3240
  30   2.0000      -0.846103       -23.0236
  31   2.0000      -0.808603       -22.0032
  32   2.0000      -0.784647       -21.3513
  33   2.0000      -0.772675       -21.0256
  34   2.0000      -0.709518       -19.3070
  35   2.0000      -0.700271       -19.0553
  36   2.0000      -0.689664       -18.7667
  37   2.0000      -0.666456       -18.1352
  38   2.0000      -0.636412       -17.3177
  39   2.0000      -0.611100       -16.6289
  40   2.0000      -0.600136       -16.3305
  41   2.0000      -0.573337       -15.6013
  42   2.0000      -0.571907       -15.5624
  43   2.0000      -0.556618       -15.1463
  44   2.0000      -0.531063       -14.4510
  45   2.0000      -0.527873       -14.3642
  46   2.0000      -0.522908       -14.2291
  47   2.0000      -0.515205       -14.0194
  48   2.0000      -0.500072       -13.6077
  49   2.0000      -0.495880       -13.4936
  50   2.0000      -0.491843       -13.3837
  51   2.0000      -0.479731       -13.0542
  52   2.0000      -0.472482       -12.8569
  53   2.0000      -0.466810       -12.7025
  54   2.0000      -0.457434       -12.4474
  55   2.0000      -0.453165       -12.3312
  56   2.0000      -0.446621       -12.1532
  57   2.0000      -0.437649       -11.9090
  58   2.0000      -0.436599       -11.8805
  59   2.0000      -0.424435       -11.5495
  60   2.0000      -0.424063       -11.5393
  61   2.0000      -0.405030       -11.0214
  62   2.0000      -0.402810       -10.9610
  63   2.0000      -0.339178        -9.2295
  64   2.0000      -0.332360        -9.0440
  65   2.0000      -0.326308        -8.8793
  66   2.0000      -0.291728        -7.9383
  67   0.0000       0.035930         0.9777
  68   0.0000       0.061897         1.6843
  69   0.0000       0.094257         2.5649
  70   0.0000       0.117933         3.2091
  71   0.0000       0.126252         3.4355

MULLIKEN ATOMIC CHARGES
-----------------------
   0 S :    0.120160
   1 C :   -0.105027
   2 C :   -0.098333
   3 C :   -0.006492
   4 C :   -0.142510
   5 H :    0.034514
   6 C :    0.096211
   7 H :    0.016575
   8 H :    0.041559
   9 C :   -0.072065
  10 H :    0.018438
  11 H :    0.027117
  12 C :   -0.071278
  13 H :    0.039224
  14 H :    0.028633
  15 H :    0.027506
  16 S :    0.136210
  17 C :   -0.048678
  18 C :   -0.031862
  19 C :   -0.064405
  20 C :   -0.191613
  21 H :    0.005115
  22 C :    0.065514
  23 H :    0.047707
  24 H :    0.009437
  25 C :   -0.056538
  26 H :    0.039404
  27 H :    0.026753
  28 C :   -0.035108
  29 H :    0.031743
  30 H :    0.015420
  31 H :    0.027099
  32 H :    0.037184
  33 H :    0.032385
Sum of atomic charges:   -0.0000000

LOEWDIN ATOMIC CHARGES
----------------------
   0 S :    0.422625
   1 C :   -0.200802
   2 C :   -0.047300
   3 C :   -0.076858
   4 C :   -0.216623
   5 H :    0.037903
   6 C :   -0.036866
   7 H :    0.035096
   8 H :    0.036120
   9 C :   -0.046560
  10 H :    0.027022
  11 H :    0.025256
  12 C :   -0.072750
  13 H :    0.030537
  14 H :    0.023763
  15 H :    0.022643
  16 S :    0.460508
  17 C :   -0.198634
  18 C :   -0.062829
  19 C :   -0.050411
  20 C :   -0.213711
  21 H :    0.025167
  22 C :   -0.035494
  23 H :    0.045482
  24 H :    0.020756
  25 C :   -0.053254
  26 H :    0.027537
  27 H :    0.027648
  28 C :   -0.069519
  29 H :    0.026054
  30 H :    0.026708
  31 H :    0.024286
  32 H :    0.024290
  33 H :    0.012210

  Mayer bond orders larger than 0.100000
B(  0-S ,  1-C ) :   1.1196 B(  0-S ,  4-C ) :   1.1636 B(  1-C ,  2-C ) :   1.5943
B(  1-C , 32-H ) :   0.9749 B(  2-C ,  3-C ) :   1.2410 B(  2-C ,  6-C ) :   1.0274
B(  3-C ,  4-C ) :   1.5475 B(  3-C ,  5-H ) :   0.9870 B(  4-C , 20-C ) :   1.0150
B(  6-C ,  7-H ) :   0.9395 B(  6-C ,  8-H ) :   0.9326 B(  6-C ,  9-C ) :   1.0558
B(  9-C , 10-H ) :   0.9491 B(  9-C , 11-H ) :   0.9581 B(  9-C , 12-C ) :   1.0838
B( 12-C , 13-H ) :   0.9733 B( 12-C , 14-H ) :   0.9747 B( 12-C , 15-H ) :   0.9753
B( 16-S , 17-C ) :   1.1750 B( 16-S , 20-C ) :   1.1752 B( 17-C , 18-C ) :   1.6059
B( 17-C , 33-H ) :   0.9658 B( 18-C , 19-C ) :   1.2411 B( 18-C , 21-H ) :   0.9975
B( 19-C , 20-C ) :   1.5868 B( 19-C , 22-C ) :   1.0455 B( 22-C , 23-H ) :   0.9264
B( 22-C , 24-H ) :   0.9260 B( 22-C , 25-C ) :   1.0763 B( 25-C , 26-H ) :   0.9474
B( 25-C , 27-H ) :   0.9452 B( 25-C , 28-C ) :   1.0936 B( 28-C , 29-H ) :   0.9710
B( 28-C , 30-H ) :   0.9662 B( 28-C , 31-H ) :   0.9700

Dispersion correction           -0.014373326
FINAL SINGLE POINT ENERGY     -1339.853978037816

DIPOLE MOMENT
-------------
                                X             Y             Z
Electronic contribution:     16.40179     -11.01044       2.53828
Nuclear contribution   :    -16.57276      11.12443      -2.53876
                        -----------------------------------------
Total Dipole Moment    :     -0.17097       0.11400      -0.00048
                        -----------------------------------------
Magnitude (a.u.)       :      0.20549
Magnitude (Debye)      :      0.52232

Rotational constants in cm-1:     0.021096     0.007887     0.006381
Rotational constants in MHz :   632.429946   236.446320   191.296441

                             ****ORCA TERMINATED NORMALLY****
TOTAL RUN TIME: 0 days 0 hours 0 minutes 20 seconds 145 msec
