                         Program Version 4.2.1 -  RELEASE  -
|  1> ! wB97X-D3 SP def2-SVP
|  2> %pal
|  3> nprocs 24
|  4> end
|  5>
|  6> * xyz 0 1
|  7> S 	 -76.2816 	 -4.44434 	 3.194
|  8> C 	 -74.7183 	 -3.60333 	 3.38491
|  9> C 	 -73.7941 	 -4.27736 	 2.56028
| 10> C 	 -74.3161 	 -5.39023 	 1.75591
| 11> C 	 -75.6325 	 -5.61293 	 2.04698
| 12> H 	 -73.7305 	 -5.95299 	 0.987675
| 13> C 	 -72.3667 	 -3.76969 	 2.329
| 14> H 	 -72.1671 	 -2.83365 	 2.86473
| 15> H 	 -72.1542 	 -3.53132 	 1.27729
| 16> C 	 -71.2437 	 -4.72149 	 2.84568
| 17> H 	 -70.2976 	 -4.08544 	 2.86234
| 18> H 	 -71.2661 	 -4.97904 	 3.91186
| 19> C 	 -71.1043 	 -6.05007 	 2.08685
| 20> H 	 -70.0446 	 -6.32172 	 2.14954
| 21> H 	 -71.8056 	 -6.83868 	 2.2912
| 22> H 	 -71.212 	 -5.76567 	 1.07613
| 23> S 	 -76.2995 	 -6.72503 	 -0.354739
| 24> C 	 -77.4884 	 -8.0234 	 -0.430859
| 25> C 	 -78.0307 	 -8.2549 	 0.804737
| 26> C 	 -77.4771 	 -7.4643 	 1.83344
| 27> C 	 -76.4257 	 -6.63932 	 1.40688
| 28> H 	 -78.7818 	 -9.05877 	 0.930068
| 29> C 	 -77.8447 	 -7.61979 	 3.31805
| 30> H 	 -78.6326 	 -8.34235 	 3.21888
| 31> H 	 -78.2429 	 -6.64355 	 3.62714
| 32> C 	 -76.8435 	 -8.38453 	 4.1684
| 33> H 	 -75.8955 	 -7.99757 	 4.00653
| 34> H 	 -76.8283 	 -9.44607 	 3.79057
| 35> C 	 -77.1356 	 -8.40406 	 5.63697
| 36> H 	 -78.1184 	 -8.882 	 5.84301
| 37> H 	 -77.2999 	 -7.38333 	 6.00958
| 38> H 	 -76.3444 	 -8.88861 	 6.26866
| 39> H 	 -74.533 	 -2.70275 	 3.86618
| 40> H 	 -77.8569 	 -8.51404 	 -1.33409
| 41> *
| 42>
| 43>                          ****END OF INPUT****

CARTESIAN COORDINATES (ANGSTROEM)
---------------------------------
  S    -76.281600   -4.444340    3.194000
  C    -74.718300   -3.603330    3.384910
  C    -73.794100   -4.277360    2.560280
  C    -74.316100   -5.390230    1.755910
  C    -75.632500   -5.612930    2.046980
  H    -73.730500   -5.952990    0.987675
  C    -72.366700   -3.769690    2.329000
  H    -72.167100   -2.833650    2.864730
  H    -72.154200   -3.531320    1.277290
  C    -71.243700   -4.721490    2.845680
  H    -70.297600   -4.085440    2.862340
  H    -71.266100   -4.979040    3.911860
  C    -71.104300   -6.050070    2.086850
  H    -70.044600   -6.321720    2.149540
  H    -71.805600   -6.838680    2.291200
  H    -71.212000   -5.765670    1.076130
  S    -76.299500   -6.725030   -0.354739
  C    -77.488400   -8.023400   -0.430859
  C    -78.030700   -8.254900    0.804737
  C    -77.477100   -7.464300    1.833440
  C    -76.425700   -6.639320    1.406880
  H    -78.781800   -9.058770    0.930068
  C    -77.844700   -7.619790    3.318050
  H    -78.632600   -8.342350    3.218880
  H    -78.242900   -6.643550    3.627140
  C    -76.843500   -8.384530    4.168400
  H    -75.895500   -7.997570    4.006530
  H    -76.828300   -9.446070    3.790570
  C    -77.135600   -8.404060    5.636970
  H    -78.118400   -8.882000    5.843010
  H    -77.299900   -7.383330    6.009580
  H    -76.344400   -8.888610    6.268660
  H    -74.533000   -2.702750    3.866180
  H    -77.856900   -8.514040   -1.334090

 Total Charge           Charge          ....    0
 Multiplicity           Mult            ....    1
 Number of Electrons    NEL             ....  134
 Basis Dimension        Dim             ....  322

ORBITAL ENERGIES
----------------

  NO   OCC          E(Eh)            E(eV)
   0   2.0000     -88.969255     -2420.9765
   1   2.0000     -88.967022     -2420.9158
   2   2.0000     -10.333957      -281.2013
   3   2.0000     -10.327478      -281.0250
   4   2.0000     -10.319364      -280.8042
   5   2.0000     -10.318778      -280.7882
   6   2.0000     -10.310633      -280.5666
   7   2.0000     -10.302743      -280.3519
   8   2.0000     -10.301348      -280.3139
   9   2.0000     -10.295431      -280.1529
  10   2.0000     -10.295144      -280.1451
  11   2.0000     -10.290397      -280.0159
  12   2.0000     -10.287794      -279.9451
  13   2.0000     -10.278562      -279.6939
  14   2.0000     -10.277651      -279.6691
  15   2.0000     -10.271793      -279.5097
  16   2.0000      -8.082828      -219.9449
  17   2.0000      -8.081087      -219.8976
  18   2.0000      -6.041604      -164.4004
  19   2.0000      -6.039607      -164.3461
  20   2.0000      -6.037456      -164.2875
  21   2.0000      -6.035634      -164.2379
  22   2.0000      -6.033410      -164.1774
  23   2.0000      -6.031935      -164.1373
  24   2.0000      -1.004985       -27.3470
  25   2.0000      -0.979710       -26.6593
  26   2.0000      -0.910824       -24.7848
  27   2.0000      -0.905307       -24.6347
  28   2.0000      -0.873283       -23.7632
  29   2.0000      -0.850649       -23.1473
  30   2.0000      -0.840027       -22.8583
  31   2.0000      -0.817018       -22.2322
  32   2.0000      -0.782852       -21.3025
  33   2.0000      -0.769332       -20.9346
  34   2.0000      -0.708706       -19.2849
  35   2.0000      -0.696832       -18.9618
  36   2.0000      -0.690808       -18.7978
  37   2.0000      -0.666480       -18.1358
  38   2.0000      -0.636908       -17.3311
  39   2.0000      -0.613769       -16.7015
  40   2.0000      -0.589233       -16.0338
  41   2.0000      -0.569989       -15.5102
  42   2.0000      -0.568365       -15.4660
  43   2.0000      -0.545715       -14.8496
  44   2.0000      -0.537221       -14.6185
  45   2.0000      -0.523496       -14.2450
  46   2.0000      -0.520286       -14.1577
  47   2.0000      -0.512942       -13.9579
  48   2.0000      -0.510832       -13.9004
  49   2.0000      -0.498555       -13.5664
  50   2.0000      -0.494085       -13.4447
  51   2.0000      -0.485239       -13.2040
  52   2.0000      -0.475200       -12.9308
  53   2.0000      -0.462008       -12.5719
  54   2.0000      -0.457899       -12.4601
  55   2.0000      -0.445297       -12.1172
  56   2.0000      -0.437508       -11.9052
  57   2.0000      -0.432869       -11.7790
  58   2.0000      -0.428392       -11.6571
  59   2.0000      -0.426528       -11.6064
  60   2.0000      -0.418573       -11.3900
  61   2.0000      -0.407079       -11.0772
  62   2.0000      -0.400382       -10.8949
  63   2.0000      -0.353813        -9.6277
  64   2.0000      -0.334481        -9.1017
  65   2.0000      -0.328389        -8.9359
  66   2.0000      -0.290460        -7.9038
  67   0.0000       0.023101         0.6286
  68   0.0000       0.071318         1.9406
  69   0.0000       0.102977         2.8021
  70   0.0000       0.114624         3.1191
  71   0.0000       0.126778         3.4498

MULLIKEN ATOMIC CHARGES
-----------------------
   0 S :    0.097903
   1 C :   -0.088630
   2 C :   -0.072006
   3 C :   -0.020244
   4 C :   -0.094659
   5 H :    0.045380
   6 C :    0.038067
   7 H :    0.015146
   8 H :    0.043398
   9 C :   -0.124713
  10 H :    0.031417
  11 H :    0.028448
  12 C :   -0.019952
  13 H :    0.033418
  14 H :    0.054331
  15 H :    0.004353
  16 S :    0.098732
  17 C :   -0.090229
  18 C :   -0.048343
  19 C :   -0.072404
  20 C :   -0.157268
  21 H :    0.029962
  22 C :    0.074536
  23 H :   -0.000475
  24 H :    0.042649
  25 C :   -0.028886
  26 H :    0.016796
  27 H :    0.028225
  28 C :   -0.054740
  29 H :    0.023346
  30 H :    0.026871
  31 H :    0.048315
  32 H :    0.031026
  33 H :    0.060227
Sum of atomic charges:   -0.0000000

LOEWDIN ATOMIC CHARGES
----------------------
   0 S :    0.389591
   1 C :   -0.180754
   2 C :   -0.050811
   3 C :   -0.074324
   4 C :   -0.186694
   5 H :    0.042026
   6 C :   -0.037739
   7 H :    0.029323
   8 H :    0.032674
   9 C :   -0.048141
  10 H :    0.029450
  11 H :    0.022926
  12 C :   -0.068420
  13 H :    0.033808
  14 H :    0.026557
  15 H :    0.014872
  16 S :    0.402645
  17 C :   -0.184221
  18 C :   -0.078309
  19 C :   -0.059285
  20 C :   -0.190187
  21 H :    0.038274
  22 C :   -0.032969
  23 H :    0.026862
  24 H :    0.028316
  25 C :   -0.037411
  26 H :    0.012730
  27 H :    0.032224
  28 C :   -0.070452
  29 H :    0.024729
  30 H :    0.025376
  31 H :    0.033550
  32 H :    0.019307
  33 H :    0.034476

  Mayer bond orders larger than 0.100000
B(  0-S ,  1-C ) :   1.1068 B(  0-S ,  4-C ) :   1.1351 B(  1-C ,  2-C ) :   1.6293
B(  1-C , 32-H ) :   0.9804 B(  2-C ,  3-C ) :   1.2083 B(  2-C ,  6-C ) :   1.0277
B(  3-C ,  4-C ) :   1.5598 B(  3-C ,  5-H ) :   0.9846 B(  4-C , 20-C ) :   1.0685
B(  6-C ,  7-H ) :   0.9423 B(  6-C ,  8-H ) :   0.9471 B(  6-C ,  9-C ) :   1.0694
B(  9-C , 10-H ) :   0.9593 B(  9-C , 11-H ) :   0.9548 B(  9-C , 12-C ) :   1.0720
B( 12-C , 13-H ) :   0.9676 B( 12-C , 14-H ) :   0.9723 B( 12-C , 15-H ) :   0.9711
B( 16-S , 17-C ) :   1.1523 B( 16-S , 20-C ) :   1.1422 B( 17-C , 18-C ) :   1.6056
B( 17-C , 20-C ) :   0.1040 B( 17-C , 33-H ) :   0.9628 B( 18-C , 19-C ) :   1.2753
B( 18-C , 21-H ) :   0.9804 B( 19-C , 20-C ) :   1.5536 B( 19-C , 22-C ) :   1.0314
B( 22-C , 23-H ) :   0.9292 B( 22-C , 24-H ) :   0.9330 B( 22-C , 25-C ) :   1.0567
B( 25-C , 26-H ) :   0.9589 B( 25-C , 27-H ) :   0.9500 B( 25-C , 28-C ) :   1.0899
B( 28-C , 29-H ) :   0.9718 B( 28-C , 30-H ) :   0.9727 B( 28-C , 31-H ) :   0.9721

Dispersion correction           -0.014632490
FINAL SINGLE POINT ENERGY     -1339.872345505485

DIPOLE MOMENT
-------------
                                X             Y             Z
Electronic contribution:    -13.14947       7.15963     -13.21685
Nuclear contribution   :     13.37302      -7.26124      13.25618
                        -----------------------------------------
Total Dipole Moment    :      0.22355      -0.10160       0.03933
                        -----------------------------------------
Magnitude (a.u.)       :      0.24868
Magnitude (Debye)      :      0.63210

Rotational constants in cm-1:     0.017498     0.009176     0.007710
Rotational constants in MHz :   524.580254   275.095089   231.154340

                             ****ORCA TERMINATED NORMALLY****
TOTAL RUN TIME: 0 days 0 hours 0 minutes 21 seconds 547 msec
