                         Program Version 4.2.1 -  RELEASE  -
|  1> ! wB97X-D3 SP def2-SVP
|  2> %pal
|  3> nprocs 24
|  4> end
|  5>
|  6> * xyz 0 1
|  7> S 	 -109.174 	 35.8434 	 -17.2636
|  8> C 	 -109.12 	 34.6081 	 -16.0466
|  9> C 	 -108.165 	 33.6693 	 -16.3576
| 10> C 	 -107.659 	 33.9377 	 -17.6926
| 11> C 	 -108.106 	 35.051 	 -18.3556
| 12> H 	 -106.775 	 33.4828 	 -18.1234
| 13> C 	 -107.674 	 32.4839 	 -15.4962
| 14> H 	 -108.32 	 32.333 	 -14.6875
| 15> H 	 -106.67 	 32.7818 	 -15.1511
| 16> C 	 -107.604 	 31.2097 	 -16.3094
| 17> H 	 -108.641 	 30.9546 	 -16.6803
| 18> H 	 -106.82 	 31.3186 	 -17.058
| 19> C 	 -107.24 	 30.0228 	 -15.4914
| 20> H 	 -107.197 	 29.2321 	 -16.1618
| 21> H 	 -106.281 	 30.2057 	 -14.9889
| 22> H 	 -107.987 	 29.8876 	 -14.7123
| 23> S 	 -107.328 	 37.3181 	 -19.8376
| 24> C 	 -106.495 	 37.0372 	 -21.2998
| 25> C 	 -106.642 	 35.737 	 -21.6852
| 26> C 	 -107.297 	 34.878 	 -20.7426
| 27> C 	 -107.636 	 35.5792 	 -19.599
| 28> H 	 -106.255 	 35.5299 	 -22.6591
| 29> C 	 -107.45 	 33.4015 	 -20.963
| 30> H 	 -108.111 	 33.3619 	 -21.8399
| 31> H 	 -108.009 	 32.9519 	 -20.1452
| 32> C 	 -106.149 	 32.6884 	 -21.3258
| 33> H 	 -105.544 	 32.813 	 -20.3786
| 34> H 	 -105.521 	 33.2216 	 -22.0413
| 35> C 	 -106.207 	 31.1087 	 -21.4948
| 36> H 	 -105.237 	 30.6202 	 -21.6379
| 37> H 	 -106.7 	 30.9352 	 -22.3914
| 38> H 	 -106.728 	 30.6236 	 -20.6249
| 39> H 	 -109.619 	 34.5251 	 -15.1372
| 40> H 	 -106.259 	 37.834 	 -22.0283
| 41> *
| 42>
| 43>                          ****END OF INPUT****

CARTESIAN COORDINATES (ANGSTROEM)
---------------------------------
  S    -109.174000   35.843400  -17.263600
  C    -109.120000   34.608100  -16.046600
  C    -108.165000   33.669300  -16.357600
  C    -107.659000   33.937700  -17.692600
  C    -108.106000   35.051000  -18.355600
  H    -106.775000   33.482800  -18.123400
  C    -107.674000   32.483900  -15.496200
  H    -108.320000   32.333000  -14.687500
  H    -106.670000   32.781800  -15.151100
  C    -107.604000   31.209700  -16.309400
  H    -108.641000   30.954600  -16.680300
  H    -106.820000   31.318600  -17.058000
  C    -107.240000   30.022800  -15.491400
  H    -107.197000   29.232100  -16.161800
  H    -106.281000   30.205700  -14.988900
  H    -107.987000   29.887600  -14.712300
  S    -107.328000   37.318100  -19.837600
  C    -106.495000   37.037200  -21.299800
  C    -106.642000   35.737000  -21.685200
  C    -107.297000   34.878000  -20.742600
  C    -107.636000   35.579200  -19.599000
  H    -106.255000   35.529900  -22.659100
  C    -107.450000   33.401500  -20.963000
  H    -108.111000   33.361900  -21.839900
  H    -108.009000   32.951900  -20.145200
  C    -106.149000   32.688400  -21.325800
  H    -105.544000   32.813000  -20.378600
  H    -105.521000   33.221600  -22.041300
  C    -106.207000   31.108700  -21.494800
  H    -105.237000   30.620200  -21.637900
  H    -106.700000   30.935200  -22.391400
  H    -106.728000   30.623600  -20.624900
  H    -109.619000   34.525100  -15.137200
  H    -106.259000   37.834000  -22.028300

 Total Charge           Charge          ....    0
 Multiplicity           Mult            ....    1
 Number of Electrons    NEL             ....  134
 Basis Dimension        Dim             ....  322

ORBITAL ENERGIES
----------------

  NO   OCC          E(Eh)            E(eV)
   0   2.0000     -88.963575     -2420.8219
   1   2.0000     -88.962483     -2420.7922
   2   2.0000     -10.328855      -281.0624
   3   2.0000     -10.325273      -280.9650
   4   2.0000     -10.314786      -280.6796
   5   2.0000     -10.308532      -280.5094
   6   2.0000     -10.305488      -280.4266
   7   2.0000     -10.301978      -280.3311
   8   2.0000     -10.294768      -280.1349
   9   2.0000     -10.292838      -280.0824
  10   2.0000     -10.292206      -280.0652
  11   2.0000     -10.290895      -280.0295
  12   2.0000     -10.289773      -279.9990
  13   2.0000     -10.285671      -279.8873
  14   2.0000     -10.283380      -279.8250
  15   2.0000     -10.270929      -279.4862
  16   2.0000      -8.078905      -219.8382
  17   2.0000      -8.077940      -219.8119
  18   2.0000      -6.037432      -164.2869
  19   2.0000      -6.036588      -164.2639
  20   2.0000      -6.033416      -164.1776
  21   2.0000      -6.032220      -164.1450
  22   2.0000      -6.029508      -164.0712
  23   2.0000      -6.028635      -164.0475
  24   2.0000      -1.012802       -27.5597
  25   2.0000      -0.990282       -26.9469
  26   2.0000      -0.922917       -25.1139
  27   2.0000      -0.909991       -24.7621
  28   2.0000      -0.880077       -23.9481
  29   2.0000      -0.851323       -23.1657
  30   2.0000      -0.843163       -22.9436
  31   2.0000      -0.817585       -22.2476
  32   2.0000      -0.787575       -21.4310
  33   2.0000      -0.779309       -21.2061
  34   2.0000      -0.712588       -19.3905
  35   2.0000      -0.702122       -19.1057
  36   2.0000      -0.688490       -18.7348
  37   2.0000      -0.657634       -17.8951
  38   2.0000      -0.641840       -17.4653
  39   2.0000      -0.620904       -16.8956
  40   2.0000      -0.598515       -16.2864
  41   2.0000      -0.582574       -15.8526
  42   2.0000      -0.573259       -15.5992
  43   2.0000      -0.559232       -15.2175
  44   2.0000      -0.538719       -14.6593
  45   2.0000      -0.528191       -14.3728
  46   2.0000      -0.521687       -14.1958
  47   2.0000      -0.513736       -13.9795
  48   2.0000      -0.506413       -13.7802
  49   2.0000      -0.503537       -13.7019
  50   2.0000      -0.495710       -13.4890
  51   2.0000      -0.485293       -13.2055
  52   2.0000      -0.472484       -12.8569
  53   2.0000      -0.467767       -12.7286
  54   2.0000      -0.461016       -12.5449
  55   2.0000      -0.450927       -12.2703
  56   2.0000      -0.446235       -12.1427
  57   2.0000      -0.439695       -11.9647
  58   2.0000      -0.431965       -11.7544
  59   2.0000      -0.427905       -11.6439
  60   2.0000      -0.424070       -11.5395
  61   2.0000      -0.410327       -11.1656
  62   2.0000      -0.403092       -10.9687
  63   2.0000      -0.359901        -9.7934
  64   2.0000      -0.329797        -8.9742
  65   2.0000      -0.323866        -8.8128
  66   2.0000      -0.290208        -7.8970
  67   0.0000       0.026796         0.7292
  68   0.0000       0.079486         2.1629
  69   0.0000       0.116998         3.1837
  70   0.0000       0.120675         3.2837
  71   0.0000       0.128551         3.4980

MULLIKEN ATOMIC CHARGES
-----------------------
   0 S :    0.102921
   1 C :   -0.082496
   2 C :   -0.109181
   3 C :   -0.012096
   4 C :   -0.144895
   5 H :    0.012099
   6 C :    0.125660
   7 H :   -0.003982
   8 H :    0.039673
   9 C :   -0.138186
  10 H :    0.041198
  11 H :    0.034167
  12 C :    0.012689
  13 H :    0.023772
  14 H :    0.020214
  15 H :    0.022230
  16 S :    0.106042
  17 C :   -0.094861
  18 C :   -0.054545
  19 C :   -0.035791
  20 C :   -0.137192
  21 H :    0.009878
  22 C :    0.105389
  23 H :    0.028404
  24 H :    0.029203
  25 C :   -0.123145
  26 H :    0.024127
  27 H :    0.035808
  28 C :   -0.027760
  29 H :    0.037075
  30 H :    0.019186
  31 H :    0.044716
  32 H :    0.015417
  33 H :    0.074263
Sum of atomic charges:    0.0000000

LOEWDIN ATOMIC CHARGES
----------------------
   0 S :    0.417661
   1 C :   -0.195033
   2 C :   -0.058447
   3 C :   -0.072511
   4 C :   -0.202230
   5 H :    0.024968
   6 C :   -0.021065
   7 H :    0.018498
   8 H :    0.037322
   9 C :   -0.044162
  10 H :    0.033848
  11 H :    0.022674
  12 C :   -0.054764
  13 H :    0.018514
  14 H :    0.023781
  15 H :    0.022492
  16 S :    0.403223
  17 C :   -0.201618
  18 C :   -0.073710
  19 C :   -0.047731
  20 C :   -0.187509
  21 H :    0.026581
  22 C :   -0.033661
  23 H :    0.034178
  24 H :    0.031746
  25 C :   -0.046425
  26 H :    0.025373
  27 H :    0.023938
  28 C :   -0.062650
  29 H :    0.029940
  30 H :    0.013184
  31 H :    0.033843
  32 H :    0.019398
  33 H :    0.040356

  Mayer bond orders larger than 0.100000
B(  0-S ,  1-C ) :   1.1383 B(  0-S ,  4-C ) :   1.1357 B(  1-C ,  2-C ) :   1.6202
B(  1-C , 32-H ) :   0.9738 B(  2-C ,  3-C ) :   1.2408 B(  2-C ,  6-C ) :   1.0186
B(  3-C ,  4-C ) :   1.5764 B(  3-C ,  5-H ) :   0.9850 B(  4-C , 20-C ) :   1.0829
B(  6-C ,  7-H ) :   0.9394 B(  6-C ,  8-H ) :   0.9274 B(  6-C ,  9-C ) :   1.0848
B(  9-C , 10-H ) :   0.9570 B(  9-C , 11-H ) :   0.9458 B(  9-C , 12-C ) :   1.1009
B( 12-C , 13-H ) :   0.9720 B( 12-C , 14-H ) :   0.9682 B( 12-C , 15-H ) :   0.9721
B( 16-S , 17-C ) :   1.1561 B( 16-S , 20-C ) :   1.1244 B( 17-C , 18-C ) :   1.6326
B( 17-C , 33-H ) :   0.9567 B( 18-C , 19-C ) :   1.2172 B( 18-C , 21-H ) :   0.9927
B( 19-C , 20-C ) :   1.5811 B( 19-C , 22-C ) :   1.0530 B( 22-C , 23-H ) :   0.9181
B( 22-C , 24-H ) :   0.9300 B( 22-C , 25-C ) :   1.0493 B( 25-C , 26-H ) :   0.9556
B( 25-C , 27-H ) :   0.9575 B( 25-C , 28-C ) :   1.0691 B( 28-C , 29-H ) :   0.9757
B( 28-C , 30-H ) :   0.9781 B( 28-C , 31-H ) :   0.9750

Dispersion correction           -0.014016903
FINAL SINGLE POINT ENERGY     -1339.867234785161

DIPOLE MOMENT
-------------
                                X             Y             Z
Electronic contribution:     -8.95334      32.44021      -0.45486
Nuclear contribution   :      9.27090     -33.14709       0.33595
                        -----------------------------------------
Total Dipole Moment    :      0.31757      -0.70688      -0.11890
                        -----------------------------------------
Magnitude (a.u.)       :      0.78400
Magnitude (Debye)      :      1.99278

Rotational constants in cm-1:     0.016451     0.009861     0.006477
Rotational constants in MHz :   493.177132   295.633996   194.185123

                             ****ORCA TERMINATED NORMALLY****
TOTAL RUN TIME: 0 days 0 hours 0 minutes 22 seconds 59 msec
