                         Program Version 4.2.1 -  RELEASE  -
|  1> ! wB97X-D3 SP def2-SVP
|  2> %pal
|  3> nprocs 24
|  4> end
|  5>
|  6> * xyz 0 1
|  7> S 	 -101.001 	 -2.87684 	 -105.683
|  8> C 	 -99.7924 	 -3.62223 	 -106.594
|  9> C 	 -100.187 	 -4.67699 	 -107.471
| 10> C 	 -101.617 	 -4.78474 	 -107.367
| 11> C 	 -102.149 	 -4.0633 	 -106.334
| 12> H 	 -102.205 	 -5.33395 	 -108.088
| 13> C 	 -99.3689 	 -5.43796 	 -108.462
| 14> H 	 -98.4766 	 -4.8674 	 -108.578
| 15> H 	 -99.9425 	 -5.53789 	 -109.409
| 16> C 	 -99.0387 	 -6.86389 	 -107.882
| 17> H 	 -99.894 	 -7.26253 	 -107.374
| 18> H 	 -98.9407 	 -7.50288 	 -108.738
| 19> C 	 -97.6673 	 -6.99809 	 -107.193
| 20> H 	 -96.844 	 -6.78514 	 -107.85
| 21> H 	 -97.5541 	 -6.43463 	 -106.2
| 22> H 	 -97.5837 	 -7.99097 	 -106.831
| 23> S 	 -104.212 	 -2.41911 	 -105.412
| 24> C 	 -105.778 	 -3.14289 	 -105.009
| 25> C 	 -105.763 	 -4.46437 	 -105.348
| 26> C 	 -104.496 	 -4.97443 	 -105.807
| 27> C 	 -103.567 	 -3.96446 	 -105.912
| 28> H 	 -106.542 	 -5.1082 	 -105.08
| 29> C 	 -104.212 	 -6.52837 	 -105.883
| 30> H 	 -103.352 	 -6.60159 	 -106.616
| 31> H 	 -104.971 	 -7.22769 	 -106.244
| 32> C 	 -103.87 	 -7.28419 	 -104.583
| 33> H 	 -104.696 	 -7.02795 	 -103.941
| 34> H 	 -103.051 	 -6.85948 	 -104.145
| 35> C 	 -103.747 	 -8.83636 	 -104.713
| 36> H 	 -104.805 	 -9.37545 	 -104.626
| 37> H 	 -103.155 	 -9.13259 	 -103.883
| 38> H 	 -103.205 	 -9.05377 	 -105.594
| 39> H 	 -98.7954 	 -3.41084 	 -106.395
| 40> H 	 -106.543 	 -2.53527 	 -104.601
| 41> *
| 42>
| 43>                          ****END OF INPUT****

CARTESIAN COORDINATES (ANGSTROEM)
---------------------------------
  S    -101.001000   -2.876840  -105.683000
  C    -99.792400   -3.622230  -106.594000
  C    -100.187000   -4.676990  -107.471000
  C    -101.617000   -4.784740  -107.367000
  C    -102.149000   -4.063300  -106.334000
  H    -102.205000   -5.333950  -108.088000
  C    -99.368900   -5.437960  -108.462000
  H    -98.476600   -4.867400  -108.578000
  H    -99.942500   -5.537890  -109.409000
  C    -99.038700   -6.863890  -107.882000
  H    -99.894000   -7.262530  -107.374000
  H    -98.940700   -7.502880  -108.738000
  C    -97.667300   -6.998090  -107.193000
  H    -96.844000   -6.785140  -107.850000
  H    -97.554100   -6.434630  -106.200000
  H    -97.583700   -7.990970  -106.831000
  S    -104.212000   -2.419110  -105.412000
  C    -105.778000   -3.142890  -105.009000
  C    -105.763000   -4.464370  -105.348000
  C    -104.496000   -4.974430  -105.807000
  C    -103.567000   -3.964460  -105.912000
  H    -106.542000   -5.108200  -105.080000
  C    -104.212000   -6.528370  -105.883000
  H    -103.352000   -6.601590  -106.616000
  H    -104.971000   -7.227690  -106.244000
  C    -103.870000   -7.284190  -104.583000
  H    -104.696000   -7.027950  -103.941000
  H    -103.051000   -6.859480  -104.145000
  C    -103.747000   -8.836360  -104.713000
  H    -104.805000   -9.375450  -104.626000
  H    -103.155000   -9.132590  -103.883000
  H    -103.205000   -9.053770  -105.594000
  H    -98.795400   -3.410840  -106.395000
  H    -106.543000   -2.535270  -104.601000

 Total Charge           Charge          ....    0
 Multiplicity           Mult            ....    1
 Number of Electrons    NEL             ....  134
 Basis Dimension        Dim             ....  322

ORBITAL ENERGIES
----------------

  NO   OCC          E(Eh)            E(eV)
   0   2.0000     -88.968426     -2420.9539
   1   2.0000     -88.962928     -2420.8043
   2   2.0000     -10.328951      -281.0650
   3   2.0000     -10.327832      -281.0346
   4   2.0000     -10.315759      -280.7061
   5   2.0000     -10.306771      -280.4615
   6   2.0000     -10.304853      -280.4093
   7   2.0000     -10.302335      -280.3408
   8   2.0000     -10.296038      -280.1694
   9   2.0000     -10.295119      -280.1444
  10   2.0000     -10.293397      -280.0976
  11   2.0000     -10.289580      -279.9937
  12   2.0000     -10.287328      -279.9324
  13   2.0000     -10.285203      -279.8746
  14   2.0000     -10.281986      -279.7871
  15   2.0000     -10.274639      -279.5872
  16   2.0000      -8.083953      -219.9755
  17   2.0000      -8.077740      -219.8065
  18   2.0000      -6.042285      -164.4189
  19   2.0000      -6.038553      -164.3174
  20   2.0000      -6.036307      -164.2563
  21   2.0000      -6.034678      -164.2119
  22   2.0000      -6.032279      -164.1467
  23   2.0000      -6.028416      -164.0416
  24   2.0000      -1.006431       -27.3864
  25   2.0000      -0.983817       -26.7710
  26   2.0000      -0.911467       -24.8023
  27   2.0000      -0.901447       -24.5296
  28   2.0000      -0.866409       -23.5762
  29   2.0000      -0.856169       -23.2975
  30   2.0000      -0.843741       -22.9594
  31   2.0000      -0.815369       -22.1873
  32   2.0000      -0.780900       -21.2494
  33   2.0000      -0.771405       -20.9910
  34   2.0000      -0.708974       -19.2922
  35   2.0000      -0.697084       -18.9686
  36   2.0000      -0.692913       -18.8551
  37   2.0000      -0.664788       -18.0898
  38   2.0000      -0.643075       -17.4990
  39   2.0000      -0.624430       -16.9916
  40   2.0000      -0.600557       -16.3420
  41   2.0000      -0.567285       -15.4366
  42   2.0000      -0.565476       -15.3874
  43   2.0000      -0.547701       -14.9037
  44   2.0000      -0.538559       -14.6549
  45   2.0000      -0.524760       -14.2795
  46   2.0000      -0.524249       -14.2655
  47   2.0000      -0.509272       -13.8580
  48   2.0000      -0.501230       -13.6392
  49   2.0000      -0.493081       -13.4174
  50   2.0000      -0.483251       -13.1499
  51   2.0000      -0.480571       -13.0770
  52   2.0000      -0.471676       -12.8349
  53   2.0000      -0.464740       -12.6462
  54   2.0000      -0.461486       -12.5577
  55   2.0000      -0.448302       -12.1989
  56   2.0000      -0.445359       -12.1188
  57   2.0000      -0.442782       -12.0487
  58   2.0000      -0.432850       -11.7785
  59   2.0000      -0.428624       -11.6635
  60   2.0000      -0.420823       -11.4512
  61   2.0000      -0.415331       -11.3017
  62   2.0000      -0.408623       -11.1192
  63   2.0000      -0.356626        -9.7043
  64   2.0000      -0.333514        -9.0754
  65   2.0000      -0.325771        -8.8647
  66   2.0000      -0.282381        -7.6840
  67   0.0000       0.025518         0.6944
  68   0.0000       0.074583         2.0295
  69   0.0000       0.100076         2.7232
  70   0.0000       0.118614         3.2276
  71   0.0000       0.130418         3.5489

MULLIKEN ATOMIC CHARGES
-----------------------
   0 S :    0.116607
   1 C :   -0.085340
   2 C :   -0.123438
   3 C :    0.006093
   4 C :   -0.136468
   5 H :    0.027968
   6 C :    0.080793
   7 H :    0.016825
   8 H :    0.041752
   9 C :   -0.054346
  10 H :    0.026484
  11 H :    0.016059
  12 C :   -0.049079
  13 H :    0.038690
  14 H :    0.036890
  15 H :    0.023908
  16 S :    0.082127
  17 C :   -0.090720
  18 C :    0.015919
  19 C :   -0.049781
  20 C :   -0.126091
  21 H :    0.001331
  22 C :    0.023383
  23 H :    0.012035
  24 H :    0.022375
  25 C :   -0.033633
  26 H :    0.013735
  27 H :    0.008108
  28 C :   -0.053298
  29 H :    0.056148
  30 H :    0.032464
  31 H :    0.029675
  32 H :    0.021013
  33 H :    0.051813
Sum of atomic charges:    0.0000000

LOEWDIN ATOMIC CHARGES
----------------------
   0 S :    0.421970
   1 C :   -0.207919
   2 C :   -0.057219
   3 C :   -0.059071
   4 C :   -0.181792
   5 H :    0.031921
   6 C :   -0.027093
   7 H :    0.028042
   8 H :    0.039333
   9 C :   -0.035133
  10 H :    0.021939
  11 H :    0.021827
  12 C :   -0.066439
  13 H :    0.024375
  14 H :    0.031684
  15 H :    0.023402
  16 S :    0.383393
  17 C :   -0.168328
  18 C :   -0.060412
  19 C :   -0.062936
  20 C :   -0.191346
  21 H :    0.022001
  22 C :   -0.038357
  23 H :    0.026309
  24 H :    0.029062
  25 C :   -0.034098
  26 H :    0.021607
  27 H :    0.009051
  28 C :   -0.063727
  29 H :    0.042593
  30 H :    0.025962
  31 H :    0.018828
  32 H :    0.007617
  33 H :    0.022956

  Mayer bond orders larger than 0.100000
B(  0-S ,  1-C ) :   1.1654 B(  0-S ,  4-C ) :   1.1438 B(  1-C ,  2-C ) :   1.5913
B(  1-C , 32-H ) :   0.9670 B(  2-C ,  3-C ) :   1.2466 B(  2-C ,  6-C ) :   1.0364
B(  3-C ,  4-C ) :   1.5883 B(  3-C ,  5-H ) :   0.9785 B(  4-C , 20-C ) :   1.0359
B(  6-C ,  7-H ) :   0.9395 B(  6-C ,  8-H ) :   0.9440 B(  6-C ,  9-C ) :   1.0491
B(  9-C , 10-H ) :   0.9615 B(  9-C , 11-H ) :   0.9526 B(  9-C , 12-C ) :   1.0819
B( 12-C , 13-H ) :   0.9756 B( 12-C , 14-H ) :   0.9736 B( 12-C , 15-H ) :   0.9712
B( 16-S , 17-C ) :   1.1306 B( 16-S , 20-C ) :   1.1416 B( 17-C , 18-C ) :   1.6087
B( 17-C , 33-H ) :   0.9796 B( 18-C , 19-C ) :   1.2377 B( 18-C , 21-H ) :   0.9948
B( 19-C , 20-C ) :   1.6221 B( 19-C , 22-C ) :   1.0350 B( 22-C , 23-H ) :   0.9289
B( 22-C , 24-H ) :   0.9485 B( 22-C , 25-C ) :   1.0560 B( 25-C , 26-H ) :   0.9534
B( 25-C , 27-H ) :   0.9569 B( 25-C , 28-C ) :   1.0746 B( 28-C , 29-H ) :   0.9725
B( 28-C , 30-H ) :   0.9741 B( 28-C , 31-H ) :   0.9781

Dispersion correction           -0.013942916
FINAL SINGLE POINT ENERGY     -1339.854183934575

DIPOLE MOMENT
-------------
                                X             Y             Z
Electronic contribution:     -9.82986      29.46950       3.57746
Nuclear contribution   :     10.01332     -30.13116      -3.68750
                        -----------------------------------------
Total Dipole Moment    :      0.18346      -0.66166      -0.11003
                        -----------------------------------------
Magnitude (a.u.)       :      0.69538
Magnitude (Debye)      :      1.76751

Rotational constants in cm-1:     0.017570     0.009291     0.006630
Rotational constants in MHz :   526.735830   278.530882   198.759496

                             ****ORCA TERMINATED NORMALLY****
TOTAL RUN TIME: 0 days 0 hours 0 minutes 20 seconds 454 msec
