                         Program Version 4.2.1 -  RELEASE  -
|  1> ! wB97X-D3 SP def2-SVP
|  2> %pal
|  3> nprocs 24
|  4> end
|  5>
|  6> * xyz 0 1
|  7> S 	 -33.4238 	 14.2673 	 11.5042
|  8> C 	 -34.0466 	 15.1835 	 10.1724
|  9> C 	 -34.1655 	 14.3462 	 9.11237
| 10> C 	 -33.7871 	 12.9664 	 9.26791
| 11> C 	 -33.3783 	 12.755 	 10.5975
| 12> H 	 -33.9608 	 12.128 	 8.56026
| 13> C 	 -34.6137 	 14.8391 	 7.78807
| 14> H 	 -35.5898 	 15.258 	 7.9702
| 15> H 	 -34.6989 	 13.9895 	 7.08088
| 16> C 	 -33.737 	 15.9775 	 7.18504
| 17> H 	 -33.7708 	 16.8936 	 7.81294
| 18> H 	 -32.6631 	 15.8172 	 7.16376
| 19> C 	 -34.2563 	 16.3861 	 5.83314
| 20> H 	 -35.3361 	 16.6434 	 5.78819
| 21> H 	 -33.6442 	 17.2903 	 5.68506
| 22> H 	 -34.0457 	 15.6591 	 5.03554
| 23> S 	 -32.1267 	 10.3767 	 10.0777
| 24> C 	 -31.9771 	 9.27793 	 11.3371
| 25> C 	 -32.4248 	 9.75987 	 12.5236
| 26> C 	 -33.0076 	 11.026 	 12.4466
| 27> C 	 -32.9801 	 11.4912 	 11.1449
| 28> H 	 -32.2991 	 9.1341 	 13.3802
| 29> C 	 -33.6629 	 11.7316 	 13.641
| 30> H 	 -34.4033 	 11.0768 	 14.0538
| 31> H 	 -34.2008 	 12.601 	 13.3077
| 32> C 	 -32.6874 	 12.0239 	 14.7883
| 33> H 	 -33.2969 	 12.5438 	 15.5301
| 34> H 	 -32.003 	 12.7858 	 14.4546
| 35> C 	 -31.8828 	 10.9024 	 15.4387
| 36> H 	 -31.2617 	 10.4103 	 14.6825
| 37> H 	 -32.4872 	 10.2293 	 15.993
| 38> H 	 -31.3065 	 11.4352 	 16.1391
| 39> H 	 -34.0221 	 16.2515 	 9.98401
| 40> H 	 -31.5644 	 8.26934 	 11.399
| 41> *
| 42>
| 43>                          ****END OF INPUT****

CARTESIAN COORDINATES (ANGSTROEM)
---------------------------------
  S    -33.423800   14.267300   11.504200
  C    -34.046600   15.183500   10.172400
  C    -34.165500   14.346200    9.112370
  C    -33.787100   12.966400    9.267910
  C    -33.378300   12.755000   10.597500
  H    -33.960800   12.128000    8.560260
  C    -34.613700   14.839100    7.788070
  H    -35.589800   15.258000    7.970200
  H    -34.698900   13.989500    7.080880
  C    -33.737000   15.977500    7.185040
  H    -33.770800   16.893600    7.812940
  H    -32.663100   15.817200    7.163760
  C    -34.256300   16.386100    5.833140
  H    -35.336100   16.643400    5.788190
  H    -33.644200   17.290300    5.685060
  H    -34.045700   15.659100    5.035540
  S    -32.126700   10.376700   10.077700
  C    -31.977100    9.277930   11.337100
  C    -32.424800    9.759870   12.523600
  C    -33.007600   11.026000   12.446600
  C    -32.980100   11.491200   11.144900
  H    -32.299100    9.134100   13.380200
  C    -33.662900   11.731600   13.641000
  H    -34.403300   11.076800   14.053800
  H    -34.200800   12.601000   13.307700
  C    -32.687400   12.023900   14.788300
  H    -33.296900   12.543800   15.530100
  H    -32.003000   12.785800   14.454600
  C    -31.882800   10.902400   15.438700
  H    -31.261700   10.410300   14.682500
  H    -32.487200   10.229300   15.993000
  H    -31.306500   11.435200   16.139100
  H    -34.022100   16.251500    9.984010
  H    -31.564400    8.269340   11.399000

 Total Charge           Charge          ....    0
 Multiplicity           Mult            ....    1
 Number of Electrons    NEL             ....  134
 Basis Dimension        Dim             ....  322

ORBITAL ENERGIES
----------------

  NO   OCC          E(Eh)            E(eV)
   0   2.0000     -88.968745     -2420.9626
   1   2.0000     -88.966837     -2420.9107
   2   2.0000     -10.332309      -281.1564
   3   2.0000     -10.322597      -280.8922
   4   2.0000     -10.307903      -280.4923
   5   2.0000     -10.303566      -280.3743
   6   2.0000     -10.298411      -280.2340
   7   2.0000     -10.295776      -280.1623
   8   2.0000     -10.291871      -280.0560
   9   2.0000     -10.287668      -279.9417
  10   2.0000     -10.285033      -279.8700
  11   2.0000     -10.284786      -279.8633
  12   2.0000     -10.281941      -279.7858
  13   2.0000     -10.279841      -279.7287
  14   2.0000     -10.279057      -279.7074
  15   2.0000     -10.271030      -279.4889
  16   2.0000      -8.084249      -219.9836
  17   2.0000      -8.080843      -219.8909
  18   2.0000      -6.042652      -164.4289
  19   2.0000      -6.039564      -164.3449
  20   2.0000      -6.038698      -164.3213
  21   2.0000      -6.035314      -164.2292
  22   2.0000      -6.035037      -164.2217
  23   2.0000      -6.031551      -164.1268
  24   2.0000      -1.014259       -27.5994
  25   2.0000      -0.990258       -26.9463
  26   2.0000      -0.913879       -24.8679
  27   2.0000      -0.910475       -24.7753
  28   2.0000      -0.875604       -23.8264
  29   2.0000      -0.856184       -23.2980
  30   2.0000      -0.848426       -23.0869
  31   2.0000      -0.816897       -22.2289
  32   2.0000      -0.790985       -21.5238
  33   2.0000      -0.767032       -20.8720
  34   2.0000      -0.712175       -19.3793
  35   2.0000      -0.699200       -19.0262
  36   2.0000      -0.690943       -18.8015
  37   2.0000      -0.663919       -18.0661
  38   2.0000      -0.631586       -17.1863
  39   2.0000      -0.611660       -16.6441
  40   2.0000      -0.598619       -16.2892
  41   2.0000      -0.572371       -15.5750
  42   2.0000      -0.561149       -15.2696
  43   2.0000      -0.552090       -15.0231
  44   2.0000      -0.542195       -14.7539
  45   2.0000      -0.528474       -14.3805
  46   2.0000      -0.519923       -14.1478
  47   2.0000      -0.515939       -14.0394
  48   2.0000      -0.508118       -13.8266
  49   2.0000      -0.501657       -13.6508
  50   2.0000      -0.490446       -13.3457
  51   2.0000      -0.481089       -13.0911
  52   2.0000      -0.477404       -12.9908
  53   2.0000      -0.472591       -12.8599
  54   2.0000      -0.464119       -12.6293
  55   2.0000      -0.451990       -12.2993
  56   2.0000      -0.441100       -12.0029
  57   2.0000      -0.437443       -11.9034
  58   2.0000      -0.426782       -11.6133
  59   2.0000      -0.425335       -11.5740
  60   2.0000      -0.415266       -11.3000
  61   2.0000      -0.411251       -11.1907
  62   2.0000      -0.407609       -11.0916
  63   2.0000      -0.360568        -9.8116
  64   2.0000      -0.335458        -9.1283
  65   2.0000      -0.325597        -8.8599
  66   2.0000      -0.280854        -7.6424
  67   0.0000       0.022109         0.6016
  68   0.0000       0.085831         2.3356
  69   0.0000       0.115676         3.1477
  70   0.0000       0.116197         3.1619
  71   0.0000       0.135838         3.6963

MULLIKEN ATOMIC CHARGES
-----------------------
   0 S :    0.101756
   1 C :   -0.114892
   2 C :   -0.091188
   3 C :   -0.024191
   4 C :   -0.118450
   5 H :    0.040737
   6 C :    0.076838
   7 H :    0.030299
   8 H :    0.021899
   9 C :   -0.112570
  10 H :    0.020318
  11 H :    0.033364
  12 C :   -0.049570
  13 H :    0.037491
  14 H :    0.031346
  15 H :    0.039355
  16 S :    0.126000
  17 C :   -0.061132
  18 C :   -0.074993
  19 C :   -0.039852
  20 C :   -0.156301
  21 H :    0.007177
  22 C :    0.111306
  23 H :    0.019244
  24 H :    0.015786
  25 C :   -0.098821
  26 H :    0.023199
  27 H :    0.019386
  28 C :   -0.007023
  29 H :    0.047484
  30 H :    0.021853
  31 H :    0.023430
  32 H :    0.051918
  33 H :    0.048797
Sum of atomic charges:    0.0000000

LOEWDIN ATOMIC CHARGES
----------------------
   0 S :    0.422002
   1 C :   -0.224168
   2 C :   -0.062970
   3 C :   -0.082918
   4 C :   -0.174404
   5 H :    0.038050
   6 C :   -0.034948
   7 H :    0.033419
   8 H :    0.029779
   9 C :   -0.044463
  10 H :    0.021958
  11 H :    0.025716
  12 C :   -0.068958
  13 H :    0.027930
  14 H :    0.031190
  15 H :    0.024726
  16 S :    0.437504
  17 C :   -0.210563
  18 C :   -0.077467
  19 C :   -0.052854
  20 C :   -0.195536
  21 H :    0.027172
  22 C :   -0.031219
  23 H :    0.028798
  24 H :    0.014437
  25 C :   -0.038237
  26 H :    0.024569
  27 H :    0.020401
  28 C :   -0.056504
  29 H :    0.029348
  30 H :    0.018914
  31 H :    0.026293
  32 H :    0.035094
  33 H :    0.037909

  Mayer bond orders larger than 0.100000
B(  0-S ,  1-C ) :   1.1078 B(  0-S ,  4-C ) :   1.1612 B(  1-C ,  2-C ) :   1.6196
B(  1-C , 32-H ) :   0.9664 B(  2-C ,  3-C ) :   1.2531 B(  2-C ,  6-C ) :   1.0291
B(  3-C ,  4-C ) :   1.5173 B(  3-C ,  5-H ) :   0.9829 B(  4-C , 20-C ) :   1.0975
B(  6-C ,  7-H ) :   0.9289 B(  6-C ,  8-H ) :   0.9502 B(  6-C ,  9-C ) :   1.0589
B(  9-C , 10-H ) :   0.9522 B(  9-C , 11-H ) :   0.9577 B(  9-C , 12-C ) :   1.0856
B( 12-C , 13-H ) :   0.9725 B( 12-C , 14-H ) :   0.9746 B( 12-C , 15-H ) :   0.9753
B( 16-S , 17-C ) :   1.1555 B( 16-S , 20-C ) :   1.1406 B( 17-C , 18-C ) :   1.6219
B( 17-C , 33-H ) :   0.9554 B( 18-C , 19-C ) :   1.2493 B( 18-C , 21-H ) :   0.9883
B( 19-C , 20-C ) :   1.5675 B( 19-C , 22-C ) :   1.0300 B( 22-C , 23-H ) :   0.9307
B( 22-C , 24-H ) :   0.9226 B( 22-C , 25-C ) :   1.0717 B( 25-C , 26-H ) :   0.9539
B( 25-C , 27-H ) :   0.9522 B( 25-C , 28-C ) :   1.0859 B( 28-C , 29-H ) :   0.9642
B( 28-C , 30-H ) :   0.9741 B( 28-C , 31-H ) :   0.9673

Dispersion correction           -0.013918668
FINAL SINGLE POINT ENERGY     -1339.875211007344

DIPOLE MOMENT
-------------
                                X             Y             Z
Electronic contribution:      2.92979      -9.49527       0.38668
Nuclear contribution   :     -2.96776       9.49554      -0.35237
                        -----------------------------------------
Total Dipole Moment    :     -0.03796       0.00027       0.03432
                        -----------------------------------------
Magnitude (a.u.)       :      0.05118
Magnitude (Debye)      :      0.13008

Rotational constants in cm-1:     0.028437     0.007040     0.005842
Rotational constants in MHz :   852.519329   211.053190   175.147150

                             ****ORCA TERMINATED NORMALLY****
TOTAL RUN TIME: 0 days 0 hours 0 minutes 20 seconds 161 msec
