                         Program Version 4.2.1 -  RELEASE  -
|  1> ! wB97X-D3 SP def2-SVP
|  2> %pal
|  3> nprocs 24
|  4> end
|  5>
|  6> * xyz 0 1
|  7> S 	 -66.1825 	 9.43813 	 -76.3519
|  8> C 	 -65.7628 	 7.91833 	 -75.5828
|  9> C 	 -66.8992 	 7.25594 	 -75.0472
| 10> C 	 -67.9997 	 8.09888 	 -75.1122
| 11> C 	 -67.8206 	 9.2858 	 -75.7844
| 12> H 	 -69.0503 	 7.88991 	 -74.8387
| 13> C 	 -66.9834 	 5.90981 	 -74.428
| 14> H 	 -67.4319 	 5.97093 	 -73.3927
| 15> H 	 -65.9098 	 5.53409 	 -74.2412
| 16> C 	 -67.7098 	 4.8831 	 -75.3772
| 17> H 	 -67.6705 	 3.95663 	 -74.8321
| 18> H 	 -68.7124 	 5.17869 	 -75.633
| 19> C 	 -67.0541 	 4.74524 	 -76.7465
| 20> H 	 -67.6787 	 4.15799 	 -77.3646
| 21> H 	 -66.7513 	 5.67273 	 -77.2568
| 22> H 	 -66.0586 	 4.15567 	 -76.582
| 23> S 	 -68.3173 	 11.7493 	 -76.8677
| 24> C 	 -69.9972 	 12.2616 	 -77.2088
| 25> C 	 -70.9002 	 11.3618 	 -76.7836
| 26> C 	 -70.2993 	 10.2828 	 -76.0264
| 27> C 	 -68.8821 	 10.2158 	 -76.2402
| 28> H 	 -71.9154 	 11.5285 	 -76.9457
| 29> C 	 -71.1561 	 9.29899 	 -75.3087
| 30> H 	 -70.8234 	 8.31143 	 -75.5807
| 31> H 	 -72.1881 	 9.27297 	 -75.7161
| 32> C 	 -71.1743 	 9.32788 	 -73.7926
| 33> H 	 -71.69 	 10.2479 	 -73.4745
| 34> H 	 -70.1246 	 9.59837 	 -73.5939
| 35> C 	 -71.5506 	 8.01907 	 -73.1393
| 36> H 	 -70.7257 	 7.32285 	 -73.3803
| 37> H 	 -72.4942 	 7.71802 	 -73.5756
| 38> H 	 -71.716 	 8.14339 	 -72.0838
| 39> H 	 -64.7662 	 7.48613 	 -75.4769
| 40> H 	 -70.2524 	 13.133 	 -77.8329
| 41> *
| 42>
| 43>                          ****END OF INPUT****

CARTESIAN COORDINATES (ANGSTROEM)
---------------------------------
  S    -66.182500    9.438130  -76.351900
  C    -65.762800    7.918330  -75.582800
  C    -66.899200    7.255940  -75.047200
  C    -67.999700    8.098880  -75.112200
  C    -67.820600    9.285800  -75.784400
  H    -69.050300    7.889910  -74.838700
  C    -66.983400    5.909810  -74.428000
  H    -67.431900    5.970930  -73.392700
  H    -65.909800    5.534090  -74.241200
  C    -67.709800    4.883100  -75.377200
  H    -67.670500    3.956630  -74.832100
  H    -68.712400    5.178690  -75.633000
  C    -67.054100    4.745240  -76.746500
  H    -67.678700    4.157990  -77.364600
  H    -66.751300    5.672730  -77.256800
  H    -66.058600    4.155670  -76.582000
  S    -68.317300   11.749300  -76.867700
  C    -69.997200   12.261600  -77.208800
  C    -70.900200   11.361800  -76.783600
  C    -70.299300   10.282800  -76.026400
  C    -68.882100   10.215800  -76.240200
  H    -71.915400   11.528500  -76.945700
  C    -71.156100    9.298990  -75.308700
  H    -70.823400    8.311430  -75.580700
  H    -72.188100    9.272970  -75.716100
  C    -71.174300    9.327880  -73.792600
  H    -71.690000   10.247900  -73.474500
  H    -70.124600    9.598370  -73.593900
  C    -71.550600    8.019070  -73.139300
  H    -70.725700    7.322850  -73.380300
  H    -72.494200    7.718020  -73.575600
  H    -71.716000    8.143390  -72.083800
  H    -64.766200    7.486130  -75.476900
  H    -70.252400   13.133000  -77.832900

 Total Charge           Charge          ....    0
 Multiplicity           Mult            ....    1
 Number of Electrons    NEL             ....  134
 Basis Dimension        Dim             ....  322

ORBITAL ENERGIES
----------------

  NO   OCC          E(Eh)            E(eV)
   0   2.0000     -88.972566     -2421.0666
   1   2.0000     -88.964204     -2420.8391
   2   2.0000     -10.336870      -281.2805
   3   2.0000     -10.330932      -281.1189
   4   2.0000     -10.319802      -280.8161
   5   2.0000     -10.317273      -280.7473
   6   2.0000     -10.310163      -280.5538
   7   2.0000     -10.304847      -280.4092
   8   2.0000     -10.301735      -280.3245
   9   2.0000     -10.290409      -280.0163
  10   2.0000     -10.290333      -280.0142
  11   2.0000     -10.289121      -279.9812
  12   2.0000     -10.288997      -279.9778
  13   2.0000     -10.283746      -279.8350
  14   2.0000     -10.282877      -279.8113
  15   2.0000     -10.279288      -279.7136
  16   2.0000      -8.086911      -220.0560
  17   2.0000      -8.078624      -219.8305
  18   2.0000      -6.045402      -164.5037
  19   2.0000      -6.041510      -164.3978
  20   2.0000      -6.037687      -164.2938
  21   2.0000      -6.037318      -164.2838
  22   2.0000      -6.033312      -164.1748
  23   2.0000      -6.029093      -164.0600
  24   2.0000      -1.008092       -27.4316
  25   2.0000      -0.983864       -26.7723
  26   2.0000      -0.918179       -24.9849
  27   2.0000      -0.912610       -24.8334
  28   2.0000      -0.869636       -23.6640
  29   2.0000      -0.854561       -23.2538
  30   2.0000      -0.848602       -23.0916
  31   2.0000      -0.817845       -22.2547
  32   2.0000      -0.781579       -21.2678
  33   2.0000      -0.770283       -20.9605
  34   2.0000      -0.708502       -19.2793
  35   2.0000      -0.697642       -18.9838
  36   2.0000      -0.690494       -18.7893
  37   2.0000      -0.664138       -18.0721
  38   2.0000      -0.636819       -17.3287
  39   2.0000      -0.625834       -17.0298
  40   2.0000      -0.599663       -16.3177
  41   2.0000      -0.573320       -15.6008
  42   2.0000      -0.567947       -15.4546
  43   2.0000      -0.552500       -15.0343
  44   2.0000      -0.542640       -14.7660
  45   2.0000      -0.523936       -14.2570
  46   2.0000      -0.520392       -14.1606
  47   2.0000      -0.518101       -14.0982
  48   2.0000      -0.501311       -13.6414
  49   2.0000      -0.499028       -13.5792
  50   2.0000      -0.490036       -13.3346
  51   2.0000      -0.482610       -13.1325
  52   2.0000      -0.469184       -12.7672
  53   2.0000      -0.464844       -12.6491
  54   2.0000      -0.456948       -12.4342
  55   2.0000      -0.451821       -12.2947
  56   2.0000      -0.445557       -12.1242
  57   2.0000      -0.443755       -12.0752
  58   2.0000      -0.431000       -11.7281
  59   2.0000      -0.428790       -11.6680
  60   2.0000      -0.420573       -11.4444
  61   2.0000      -0.414253       -11.2724
  62   2.0000      -0.406853       -11.0710
  63   2.0000      -0.361285        -9.8311
  64   2.0000      -0.339269        -9.2320
  65   2.0000      -0.325955        -8.8697
  66   2.0000      -0.279031        -7.5928
  67   0.0000       0.014028         0.3817
  68   0.0000       0.081968         2.2305
  69   0.0000       0.094290         2.5658
  70   0.0000       0.114982         3.1288
  71   0.0000       0.128448         3.4952

MULLIKEN ATOMIC CHARGES
-----------------------
   0 S :    0.115006
   1 C :   -0.111939
   2 C :   -0.085070
   3 C :   -0.001278
   4 C :   -0.097826
   5 H :   -0.026481
   6 C :    0.017320
   7 H :    0.052067
   8 H :    0.027002
   9 C :   -0.049500
  10 H :    0.035933
  11 H :    0.030222
  12 C :   -0.080205
  13 H :    0.030916
  14 H :    0.058815
  15 H :    0.026629
  16 S :    0.069447
  17 C :   -0.085169
  18 C :    0.006970
  19 C :   -0.071983
  20 C :   -0.095152
  21 H :   -0.000405
  22 C :    0.017069
  23 H :    0.013171
  24 H :    0.018107
  25 C :   -0.082433
  26 H :    0.024712
  27 H :    0.025973
  28 C :   -0.004676
  29 H :    0.039286
  30 H :    0.028946
  31 H :    0.040543
  32 H :    0.049759
  33 H :    0.064224
Sum of atomic charges:    0.0000000

LOEWDIN ATOMIC CHARGES
----------------------
   0 S :    0.412607
   1 C :   -0.200562
   2 C :   -0.065422
   3 C :   -0.073180
   4 C :   -0.194570
   5 H :    0.031202
   6 C :   -0.039350
   7 H :    0.039195
   8 H :    0.034982
   9 C :   -0.034898
  10 H :    0.025552
  11 H :    0.020543
  12 C :   -0.067605
  13 H :    0.019318
  14 H :    0.030301
  15 H :    0.030102
  16 S :    0.375842
  17 C :   -0.172451
  18 C :   -0.059912
  19 C :   -0.054336
  20 C :   -0.182801
  21 H :    0.025500
  22 C :   -0.044895
  23 H :    0.022783
  24 H :    0.029336
  25 C :   -0.049757
  26 H :    0.024581
  27 H :    0.024593
  28 C :   -0.056206
  29 H :    0.029939
  30 H :    0.025146
  31 H :    0.029457
  32 H :    0.029888
  33 H :    0.035077

  Mayer bond orders larger than 0.100000
B(  0-S ,  1-C ) :   1.1449 B(  0-S ,  4-C ) :   1.1462 B(  1-C ,  2-C ) :   1.5624
B(  1-C ,  4-C ) :   0.1014 B(  1-C , 32-H ) :   0.9638 B(  2-C ,  3-C ) :   1.2755
B(  2-C ,  6-C ) :   1.0354 B(  3-C ,  4-C ) :   1.5651 B(  3-C ,  5-H ) :   0.9788
B(  4-C , 20-C ) :   1.0683 B(  6-C ,  7-H ) :   0.9447 B(  6-C ,  8-H ) :   0.9402
B(  6-C ,  9-C ) :   1.0539 B(  9-C , 10-H ) :   0.9582 B(  9-C , 11-H ) :   0.9614
B(  9-C , 12-C ) :   1.0712 B( 12-C , 13-H ) :   0.9746 B( 12-C , 14-H ) :   0.9727
B( 12-C , 15-H ) :   0.9746 B( 16-S , 17-C ) :   1.1253 B( 16-S , 20-C ) :   1.1349
B( 17-C , 18-C ) :   1.6546 B( 17-C , 33-H ) :   0.9605 B( 18-C , 19-C ) :   1.2158
B( 18-C , 21-H ) :   0.9972 B( 19-C , 20-C ) :   1.5650 B( 19-C , 22-C ) :   1.0581
B( 22-C , 23-H ) :   0.9343 B( 22-C , 24-H ) :   0.9252 B( 22-C , 25-C ) :   1.0409
B( 25-C , 26-H ) :   0.9481 B( 25-C , 27-H ) :   0.9586 B( 25-C , 28-C ) :   1.0737
B( 28-C , 29-H ) :   0.9715 B( 28-C , 30-H ) :   0.9713 B( 28-C , 31-H ) :   0.9695

Dispersion correction           -0.015111915
FINAL SINGLE POINT ENERGY     -1339.869170889215

DIPOLE MOMENT
-------------
                                X             Y             Z
Electronic contribution:     12.02475      23.96812     -10.56080
Nuclear contribution   :    -12.55080     -24.45924      10.77167
                        -----------------------------------------
Total Dipole Moment    :     -0.52604      -0.49112       0.21088
                        -----------------------------------------
Magnitude (a.u.)       :      0.74993
Magnitude (Debye)      :      1.90616

Rotational constants in cm-1:     0.017824     0.010140     0.007265
Rotational constants in MHz :   534.359963   304.000789   217.802797

                             ****ORCA TERMINATED NORMALLY****
TOTAL RUN TIME: 0 days 0 hours 0 minutes 22 seconds 754 msec
