                         Program Version 4.2.1 -  RELEASE  -
|  1> ! wB97X-D3 SP def2-SVP
|  2> %pal
|  3> nprocs 24
|  4> end
|  5>
|  6> * xyz 0 1
|  7> S 	 -50.5466 	 -4.58646 	 20.6844
|  8> C 	 -51.5267 	 -4.66843 	 19.1842
|  9> C 	 -50.6767 	 -5.17622 	 18.1714
| 10> C 	 -49.352 	 -5.18775 	 18.5232
| 11> C 	 -49.0988 	 -4.75843 	 19.7766
| 12> H 	 -48.4268 	 -5.28972 	 17.8838
| 13> C 	 -51.0879 	 -5.44669 	 16.7236
| 14> H 	 -51.4492 	 -6.41441 	 16.6268
| 15> H 	 -50.2044 	 -5.21695 	 16.123
| 16> C 	 -52.1714 	 -4.5339 	 16.2274
| 17> H 	 -53.0285 	 -4.67668 	 16.7815
| 18> H 	 -51.9904 	 -3.45523 	 16.3353
| 19> C 	 -52.5205 	 -4.82695 	 14.745
| 20> H 	 -53.4181 	 -4.22667 	 14.5114
| 21> H 	 -51.6911 	 -4.38693 	 14.2168
| 22> H 	 -52.6879 	 -5.92662 	 14.4756
| 23> S 	 -47.5099 	 -5.68696 	 21.7509
| 24> C 	 -45.8709 	 -5.00536 	 21.9815
| 25> C 	 -45.7487 	 -3.94476 	 21.1217
| 26> C 	 -46.8244 	 -3.80881 	 20.1051
| 27> C 	 -47.8389 	 -4.73403 	 20.3683
| 28> H 	 -44.8418 	 -3.33981 	 21.1302
| 29> C 	 -46.8429 	 -2.65525 	 19.1639
| 30> H 	 -47.0382 	 -1.7358 	 19.7898
| 31> H 	 -47.7112 	 -2.82681 	 18.4976
| 32> C 	 -45.5355 	 -2.39931 	 18.3713
| 33> H 	 -44.708 	 -2.17561 	 19.032
| 34> H 	 -45.7195 	 -1.3838 	 17.8607
| 35> C 	 -45.2412 	 -3.53173 	 17.3012
| 36> H 	 -44.3106 	 -3.40744 	 16.7054
| 37> H 	 -46.055 	 -3.70992 	 16.5983
| 38> H 	 -45.0824 	 -4.51227 	 17.7263
| 39> H 	 -52.5808 	 -4.56722 	 19.1067
| 40> H 	 -45.0522 	 -5.3659 	 22.6284
| 41> *
| 42>
| 43>                          ****END OF INPUT****

CARTESIAN COORDINATES (ANGSTROEM)
---------------------------------
  S    -50.546600   -4.586460   20.684400
  C    -51.526700   -4.668430   19.184200
  C    -50.676700   -5.176220   18.171400
  C    -49.352000   -5.187750   18.523200
  C    -49.098800   -4.758430   19.776600
  H    -48.426800   -5.289720   17.883800
  C    -51.087900   -5.446690   16.723600
  H    -51.449200   -6.414410   16.626800
  H    -50.204400   -5.216950   16.123000
  C    -52.171400   -4.533900   16.227400
  H    -53.028500   -4.676680   16.781500
  H    -51.990400   -3.455230   16.335300
  C    -52.520500   -4.826950   14.745000
  H    -53.418100   -4.226670   14.511400
  H    -51.691100   -4.386930   14.216800
  H    -52.687900   -5.926620   14.475600
  S    -47.509900   -5.686960   21.750900
  C    -45.870900   -5.005360   21.981500
  C    -45.748700   -3.944760   21.121700
  C    -46.824400   -3.808810   20.105100
  C    -47.838900   -4.734030   20.368300
  H    -44.841800   -3.339810   21.130200
  C    -46.842900   -2.655250   19.163900
  H    -47.038200   -1.735800   19.789800
  H    -47.711200   -2.826810   18.497600
  C    -45.535500   -2.399310   18.371300
  H    -44.708000   -2.175610   19.032000
  H    -45.719500   -1.383800   17.860700
  C    -45.241200   -3.531730   17.301200
  H    -44.310600   -3.407440   16.705400
  H    -46.055000   -3.709920   16.598300
  H    -45.082400   -4.512270   17.726300
  H    -52.580800   -4.567220   19.106700
  H    -45.052200   -5.365900   22.628400

 Total Charge           Charge          ....    0
 Multiplicity           Mult            ....    1
 Number of Electrons    NEL             ....  134
 Basis Dimension        Dim             ....  322

ORBITAL ENERGIES
----------------

  NO   OCC          E(Eh)            E(eV)
   0   2.0000     -88.966425     -2420.8995
   1   2.0000     -88.963266     -2420.8135
   2   2.0000     -10.322001      -280.8759
   3   2.0000     -10.319405      -280.8053
   4   2.0000     -10.317091      -280.7423
   5   2.0000     -10.316303      -280.7209
   6   2.0000     -10.304130      -280.3896
   7   2.0000     -10.301247      -280.3112
   8   2.0000     -10.299613      -280.2667
   9   2.0000     -10.296964      -280.1946
  10   2.0000     -10.296719      -280.1880
  11   2.0000     -10.286273      -279.9037
  12   2.0000     -10.284737      -279.8619
  13   2.0000     -10.283838      -279.8375
  14   2.0000     -10.283150      -279.8187
  15   2.0000     -10.277831      -279.6740
  16   2.0000      -8.081020      -219.8957
  17   2.0000      -8.078161      -219.8179
  18   2.0000      -6.039485      -164.3427
  19   2.0000      -6.036912      -164.2727
  20   2.0000      -6.035624      -164.2377
  21   2.0000      -6.032600      -164.1554
  22   2.0000      -6.031735      -164.1319
  23   2.0000      -6.028677      -164.0486
  24   2.0000      -1.015891       -27.6438
  25   2.0000      -0.983061       -26.7505
  26   2.0000      -0.919225       -25.0134
  27   2.0000      -0.903962       -24.5981
  28   2.0000      -0.875251       -23.8168
  29   2.0000      -0.852488       -23.1974
  30   2.0000      -0.837616       -22.7927
  31   2.0000      -0.815037       -22.1783
  32   2.0000      -0.781750       -21.2725
  33   2.0000      -0.770584       -20.9687
  34   2.0000      -0.715768       -19.4770
  35   2.0000      -0.705395       -19.1948
  36   2.0000      -0.693695       -18.8764
  37   2.0000      -0.654048       -17.7975
  38   2.0000      -0.644483       -17.5373
  39   2.0000      -0.615037       -16.7360
  40   2.0000      -0.591987       -16.1088
  41   2.0000      -0.579395       -15.7661
  42   2.0000      -0.565594       -15.3906
  43   2.0000      -0.549474       -14.9519
  44   2.0000      -0.533248       -14.5104
  45   2.0000      -0.522422       -14.2158
  46   2.0000      -0.520299       -14.1581
  47   2.0000      -0.515885       -14.0379
  48   2.0000      -0.506955       -13.7949
  49   2.0000      -0.503058       -13.6889
  50   2.0000      -0.492389       -13.3986
  51   2.0000      -0.478498       -13.0206
  52   2.0000      -0.468910       -12.7597
  53   2.0000      -0.463263       -12.6060
  54   2.0000      -0.459986       -12.5169
  55   2.0000      -0.446146       -12.1402
  56   2.0000      -0.438342       -11.9279
  57   2.0000      -0.435091       -11.8394
  58   2.0000      -0.434153       -11.8139
  59   2.0000      -0.427795       -11.6409
  60   2.0000      -0.423287       -11.5182
  61   2.0000      -0.416410       -11.3311
  62   2.0000      -0.410644       -11.1742
  63   2.0000      -0.345599        -9.4042
  64   2.0000      -0.334572        -9.1042
  65   2.0000      -0.323728        -8.8091
  66   2.0000      -0.290735        -7.9113
  67   0.0000       0.034648         0.9428
  68   0.0000       0.058769         1.5992
  69   0.0000       0.106367         2.8944
  70   0.0000       0.117880         3.2077
  71   0.0000       0.129191         3.5155

MULLIKEN ATOMIC CHARGES
-----------------------
   0 S :    0.114713
   1 C :   -0.117734
   2 C :   -0.068573
   3 C :   -0.005336
   4 C :   -0.169983
   5 H :    0.033376
   6 C :    0.136970
   7 H :    0.020822
   8 H :    0.023550
   9 C :   -0.112699
  10 H :    0.004061
  11 H :    0.031639
  12 C :   -0.063850
  13 H :    0.036349
  14 H :    0.031029
  15 H :    0.048994
  16 S :    0.100844
  17 C :   -0.106515
  18 C :   -0.033808
  19 C :   -0.053943
  20 C :   -0.147448
  21 H :    0.022649
  22 C :    0.040810
  23 H :    0.055292
  24 H :    0.030812
  25 C :   -0.075186
  26 H :    0.032271
  27 H :    0.040766
  28 C :   -0.061683
  29 H :    0.038251
  30 H :    0.029442
  31 H :    0.032566
  32 H :    0.037996
  33 H :    0.073555
Sum of atomic charges:   -0.0000000

LOEWDIN ATOMIC CHARGES
----------------------
   0 S :    0.409032
   1 C :   -0.187366
   2 C :   -0.056678
   3 C :   -0.077128
   4 C :   -0.202814
   5 H :    0.044087
   6 C :   -0.018498
   7 H :    0.026258
   8 H :    0.031355
   9 C :   -0.040973
  10 H :    0.006309
  11 H :    0.027658
  12 C :   -0.066926
  13 H :    0.028790
  14 H :    0.022067
  15 H :    0.033171
  16 S :    0.399873
  17 C :   -0.183326
  18 C :   -0.068153
  19 C :   -0.059457
  20 C :   -0.214224
  21 H :    0.027988
  22 C :   -0.040432
  23 H :    0.045593
  24 H :    0.032274
  25 C :   -0.040619
  26 H :    0.020047
  27 H :    0.034483
  28 C :   -0.075645
  29 H :    0.030982
  30 H :    0.024559
  31 H :    0.024937
  32 H :    0.020443
  33 H :    0.042332

  Mayer bond orders larger than 0.100000
B(  0-S ,  1-C ) :   1.1302 B(  0-S ,  4-C ) :   1.1548 B(  1-C ,  2-C ) :   1.5691
B(  1-C ,  4-C ) :   0.1144 B(  1-C , 32-H ) :   0.9797 B(  2-C ,  3-C ) :   1.2720
B(  2-C ,  6-C ) :   1.0087 B(  3-C ,  4-C ) :   1.5645 B(  3-C ,  5-H ) :   0.9856
B(  4-C , 20-C ) :   1.0617 B(  6-C ,  7-H ) :   0.9175 B(  6-C ,  8-H ) :   0.9561
B(  6-C ,  9-C ) :   1.0844 B(  9-C , 10-H ) :   0.9452 B(  9-C , 11-H ) :   0.9571
B(  9-C , 12-C ) :   1.0824 B( 12-C , 13-H ) :   0.9734 B( 12-C , 14-H ) :   0.9784
B( 12-C , 15-H ) :   0.9741 B( 16-S , 17-C ) :   1.1166 B( 16-S , 20-C ) :   1.1417
B( 17-C , 18-C ) :   1.6517 B( 17-C , 33-H ) :   0.9665 B( 18-C , 19-C ) :   1.2068
B( 18-C , 21-H ) :   0.9812 B( 19-C , 20-C ) :   1.5811 B( 19-C , 22-C ) :   1.0554
B( 22-C , 23-H ) :   0.9311 B( 22-C , 24-H ) :   0.9297 B( 22-C , 25-C ) :   1.0681
B( 25-C , 26-H ) :   0.9573 B( 25-C , 27-H ) :   0.9564 B( 25-C , 28-C ) :   1.0538
B( 28-C , 29-H ) :   0.9766 B( 28-C , 30-H ) :   0.9763 B( 28-C , 31-H ) :   0.9764

Dispersion correction           -0.014245023
FINAL SINGLE POINT ENERGY     -1339.856671030145

DIPOLE MOMENT
-------------
                                X             Y             Z
Electronic contribution:     -0.57812      -7.93101      28.33531
Nuclear contribution   :      0.77781       8.20210     -28.87119
                        -----------------------------------------
Total Dipole Moment    :      0.19970       0.27109      -0.53588
                        -----------------------------------------
Magnitude (a.u.)       :      0.63287
Magnitude (Debye)      :      1.60864

Rotational constants in cm-1:     0.020045     0.008325     0.006425
Rotational constants in MHz :   600.936322   249.564995   192.626152

                             ****ORCA TERMINATED NORMALLY****
TOTAL RUN TIME: 0 days 0 hours 0 minutes 21 seconds 654 msec
