                         Program Version 4.2.1 -  RELEASE  -
|  1> ! wB97X-D3 SP def2-SVP
|  2> %pal
|  3> nprocs 24
|  4> end
|  5>
|  6> * xyz 0 1
|  7> S 	 -52.3214 	 17.6421 	 23.5925
|  8> C 	 -50.765 	 17.2639 	 23.0013
|  9> C 	 -49.8674 	 17.0148 	 24.0036
| 10> C 	 -50.4453 	 17.1886 	 25.2883
| 11> C 	 -51.7847 	 17.5573 	 25.2542
| 12> H 	 -49.9801 	 16.9833 	 26.1856
| 13> C 	 -48.4285 	 16.4942 	 23.7727
| 14> H 	 -47.8469 	 17.1114 	 23.1294
| 15> H 	 -48.3793 	 15.5071 	 23.2104
| 16> C 	 -47.5798 	 16.2526 	 25.0574
| 17> H 	 -48.0804 	 15.554 	 25.7678
| 18> H 	 -46.6591 	 15.7206 	 24.7299
| 19> C 	 -47.3008 	 17.5674 	 25.8049
| 20> H 	 -48.2113 	 18.1391 	 26.0581
| 21> H 	 -46.8456 	 17.338 	 26.7391
| 22> H 	 -46.5184 	 18.134 	 25.3011
| 23> S 	 -53.7019 	 19.3142 	 26.2875
| 24> C 	 -54.461 	 18.8619 	 27.8197
| 25> C 	 -53.9077 	 17.7519 	 28.3788
| 26> C 	 -52.9001 	 17.2016 	 27.5623
| 27> C 	 -52.6765 	 17.8244 	 26.3825
| 28> H 	 -54.3295 	 17.3399 	 29.244
| 29> C 	 -52.0956 	 15.9794 	 28.0698
| 30> H 	 -51.4419 	 15.7704 	 27.2096
| 31> H 	 -52.786 	 15.1278 	 28.2257
| 32> C 	 -51.3283 	 16.1006 	 29.3914
| 33> H 	 -51.7835 	 15.5023 	 30.18
| 34> H 	 -51.4141 	 17.1083 	 29.7161
| 35> C 	 -49.8195 	 15.9257 	 29.2214
| 36> H 	 -49.3139 	 16.3245 	 30.1226
| 37> H 	 -49.316 	 16.5412 	 28.5213
| 38> H 	 -49.5126 	 14.8935 	 29.0295
| 39> H 	 -50.4463 	 17.1581 	 21.994
| 40> H 	 -55.2348 	 19.3702 	 28.2844
| 41> *
| 42>
| 43>                          ****END OF INPUT****

CARTESIAN COORDINATES (ANGSTROEM)
---------------------------------
  S    -52.321400   17.642100   23.592500
  C    -50.765000   17.263900   23.001300
  C    -49.867400   17.014800   24.003600
  C    -50.445300   17.188600   25.288300
  C    -51.784700   17.557300   25.254200
  H    -49.980100   16.983300   26.185600
  C    -48.428500   16.494200   23.772700
  H    -47.846900   17.111400   23.129400
  H    -48.379300   15.507100   23.210400
  C    -47.579800   16.252600   25.057400
  H    -48.080400   15.554000   25.767800
  H    -46.659100   15.720600   24.729900
  C    -47.300800   17.567400   25.804900
  H    -48.211300   18.139100   26.058100
  H    -46.845600   17.338000   26.739100
  H    -46.518400   18.134000   25.301100
  S    -53.701900   19.314200   26.287500
  C    -54.461000   18.861900   27.819700
  C    -53.907700   17.751900   28.378800
  C    -52.900100   17.201600   27.562300
  C    -52.676500   17.824400   26.382500
  H    -54.329500   17.339900   29.244000
  C    -52.095600   15.979400   28.069800
  H    -51.441900   15.770400   27.209600
  H    -52.786000   15.127800   28.225700
  C    -51.328300   16.100600   29.391400
  H    -51.783500   15.502300   30.180000
  H    -51.414100   17.108300   29.716100
  C    -49.819500   15.925700   29.221400
  H    -49.313900   16.324500   30.122600
  H    -49.316000   16.541200   28.521300
  H    -49.512600   14.893500   29.029500
  H    -50.446300   17.158100   21.994000
  H    -55.234800   19.370200   28.284400

 Total Charge           Charge          ....    0
 Multiplicity           Mult            ....    1
 Number of Electrons    NEL             ....  134
 Basis Dimension        Dim             ....  322

ORBITAL ENERGIES
----------------

  NO   OCC          E(Eh)            E(eV)
   0   2.0000     -88.969310     -2420.9780
   1   2.0000     -88.963403     -2420.8173
   2   2.0000     -10.330573      -281.1092
   3   2.0000     -10.328316      -281.0478
   4   2.0000     -10.313081      -280.6332
   5   2.0000     -10.307027      -280.4685
   6   2.0000     -10.299793      -280.2716
   7   2.0000     -10.299766      -280.2709
   8   2.0000     -10.297184      -280.2006
   9   2.0000     -10.294440      -280.1260
  10   2.0000     -10.290089      -280.0076
  11   2.0000     -10.289439      -279.9899
  12   2.0000     -10.286082      -279.8985
  13   2.0000     -10.284623      -279.8588
  14   2.0000     -10.278862      -279.7020
  15   2.0000     -10.275264      -279.6041
  16   2.0000      -8.084472      -219.9897
  17   2.0000      -8.077255      -219.7933
  18   2.0000      -6.042951      -164.4371
  19   2.0000      -6.038813      -164.3244
  20   2.0000      -6.035884      -164.2448
  21   2.0000      -6.035342      -164.2300
  22   2.0000      -6.032020      -164.1396
  23   2.0000      -6.027803      -164.0249
  24   2.0000      -1.009101       -27.4590
  25   2.0000      -0.987246       -26.8643
  26   2.0000      -0.908126       -24.7114
  27   2.0000      -0.906589       -24.6696
  28   2.0000      -0.873682       -23.7741
  29   2.0000      -0.851600       -23.1732
  30   2.0000      -0.843855       -22.9625
  31   2.0000      -0.820389       -22.3239
  32   2.0000      -0.784997       -21.3608
  33   2.0000      -0.776291       -21.1240
  34   2.0000      -0.712410       -19.3857
  35   2.0000      -0.702944       -19.1281
  36   2.0000      -0.691421       -18.8145
  37   2.0000      -0.664565       -18.0837
  38   2.0000      -0.646432       -17.5903
  39   2.0000      -0.630648       -17.1608
  40   2.0000      -0.596308       -16.2264
  41   2.0000      -0.574507       -15.6331
  42   2.0000      -0.561916       -15.2905
  43   2.0000      -0.545829       -14.8528
  44   2.0000      -0.534443       -14.5429
  45   2.0000      -0.529812       -14.4169
  46   2.0000      -0.523495       -14.2450
  47   2.0000      -0.510453       -13.8901
  48   2.0000      -0.506058       -13.7705
  49   2.0000      -0.501559       -13.6481
  50   2.0000      -0.495966       -13.4959
  51   2.0000      -0.484832       -13.1930
  52   2.0000      -0.477194       -12.9851
  53   2.0000      -0.470477       -12.8023
  54   2.0000      -0.458500       -12.4764
  55   2.0000      -0.447036       -12.1645
  56   2.0000      -0.443888       -12.0788
  57   2.0000      -0.432404       -11.7663
  58   2.0000      -0.430125       -11.7043
  59   2.0000      -0.424556       -11.5527
  60   2.0000      -0.423991       -11.5374
  61   2.0000      -0.417284       -11.3549
  62   2.0000      -0.407323       -11.0838
  63   2.0000      -0.350794        -9.5456
  64   2.0000      -0.333463        -9.0740
  65   2.0000      -0.331828        -9.0295
  66   2.0000      -0.292298        -7.9538
  67   0.0000       0.029876         0.8130
  68   0.0000       0.072374         1.9694
  69   0.0000       0.109418         2.9774
  70   0.0000       0.121030         3.2934
  71   0.0000       0.126237         3.4351

MULLIKEN ATOMIC CHARGES
-----------------------
   0 S :    0.135973
   1 C :   -0.098598
   2 C :   -0.074000
   3 C :    0.072175
   4 C :   -0.155837
   5 H :   -0.053292
   6 C :    0.059447
   7 H :    0.020466
   8 H :    0.042592
   9 C :   -0.115522
  10 H :    0.034668
  11 H :    0.035535
  12 C :   -0.053931
  13 H :    0.055156
  14 H :    0.019396
  15 H :    0.032591
  16 S :    0.086980
  17 C :   -0.051669
  18 C :   -0.007981
  19 C :   -0.046287
  20 C :   -0.154020
  21 H :   -0.000561
  22 C :    0.062702
  23 H :    0.019737
  24 H :    0.033653
  25 C :   -0.032102
  26 H :    0.031794
  27 H :    0.021080
  28 C :   -0.065778
  29 H :    0.024280
  30 H :    0.025010
  31 H :    0.041047
  32 H :    0.028001
  33 H :    0.027295
Sum of atomic charges:   -0.0000000

LOEWDIN ATOMIC CHARGES
----------------------
   0 S :    0.435421
   1 C :   -0.203084
   2 C :   -0.063249
   3 C :   -0.056611
   4 C :   -0.194318
   5 H :    0.011098
   6 C :   -0.034932
   7 H :    0.024227
   8 H :    0.039364
   9 C :   -0.046312
  10 H :    0.022732
  11 H :    0.030385
  12 C :   -0.072279
  13 H :    0.031994
  14 H :    0.020742
  15 H :    0.027120
  16 S :    0.363653
  17 C :   -0.152644
  18 C :   -0.066042
  19 C :   -0.055877
  20 C :   -0.179728
  21 H :    0.026136
  22 C :   -0.031775
  23 H :    0.028645
  24 H :    0.034974
  25 C :   -0.040192
  26 H :    0.027505
  27 H :    0.023351
  28 C :   -0.066224
  29 H :    0.031593
  30 H :    0.019196
  31 H :    0.024299
  32 H :    0.025538
  33 H :    0.015294

  Mayer bond orders larger than 0.100000
B(  0-S ,  1-C ) :   1.1519 B(  0-S ,  4-C ) :   1.1660 B(  1-C ,  2-C ) :   1.6114
B(  1-C , 32-H ) :   0.9721 B(  2-C ,  3-C ) :   1.2786 B(  2-C ,  6-C ) :   0.9971
B(  3-C ,  4-C ) :   1.5365 B(  3-C ,  5-H ) :   0.9935 B(  4-C , 20-C ) :   1.0388
B(  6-C ,  7-H ) :   0.9397 B(  6-C ,  8-H ) :   0.9428 B(  6-C ,  9-C ) :   1.0860
B(  9-C , 10-H ) :   0.9545 B(  9-C , 11-H ) :   0.9539 B(  9-C , 12-C ) :   1.0722
B( 12-C , 13-H ) :   0.9734 B( 12-C , 14-H ) :   0.9699 B( 12-C , 15-H ) :   0.9726
B( 16-S , 17-C ) :   1.1387 B( 16-S , 20-C ) :   1.1038 B( 17-C , 18-C ) :   1.6432
B( 17-C , 33-H ) :   0.9713 B( 18-C , 19-C ) :   1.2020 B( 18-C , 21-H ) :   1.0013
B( 19-C , 20-C ) :   1.6605 B( 19-C , 22-C ) :   1.0475 B( 22-C , 23-H ) :   0.9411
B( 22-C , 24-H ) :   0.9333 B( 22-C , 25-C ) :   1.0384 B( 25-C , 26-H ) :   0.9552
B( 25-C , 27-H ) :   0.9606 B( 25-C , 28-C ) :   1.0897 B( 28-C , 29-H ) :   0.9671
B( 28-C , 30-H ) :   0.9697 B( 28-C , 31-H ) :   0.9772

Dispersion correction           -0.015252537
FINAL SINGLE POINT ENERGY     -1339.873697010614

DIPOLE MOMENT
-------------
                                X             Y             Z
Electronic contribution:    -25.13993      12.39953     -13.81829
Nuclear contribution   :     25.59046     -12.79985      14.20748
                        -----------------------------------------
Total Dipole Moment    :      0.45053      -0.40032       0.38919
                        -----------------------------------------
Magnitude (a.u.)       :      0.71743
Magnitude (Debye)      :      1.82355

Rotational constants in cm-1:     0.016945     0.010774     0.007300
Rotational constants in MHz :   508.012161   323.010788   218.842181

                             ****ORCA TERMINATED NORMALLY****
TOTAL RUN TIME: 0 days 0 hours 0 minutes 22 seconds 928 msec
