                         Program Version 4.2.1 -  RELEASE  -
|  1> ! wB97X-D3 SP def2-SVP
|  2> %pal
|  3> nprocs 24
|  4> end
|  5>
|  6> * xyz 0 1
|  7> S 	 -82.4422 	 -3.37325 	 -57.62
|  8> C 	 -81.028 	 -3.58091 	 -56.7504
|  9> C 	 -79.9892 	 -4.0571 	 -57.5658
| 10> C 	 -80.4899 	 -4.53882 	 -58.8337
| 11> C 	 -81.8465 	 -4.33068 	 -58.9347
| 12> H 	 -80.0708 	 -5.13291 	 -59.6052
| 13> C 	 -78.6079 	 -4.19143 	 -57.1517
| 14> H 	 -78.3585 	 -5.2897 	 -57.1565
| 15> H 	 -78.4604 	 -3.80105 	 -56.1566
| 16> C 	 -77.6903 	 -3.343 	 -58.0215
| 17> H 	 -77.6384 	 -3.88295 	 -58.971
| 18> H 	 -78.1254 	 -2.34784 	 -58.196
| 19> C 	 -76.2438 	 -3.25738 	 -57.5388
| 20> H 	 -75.5221 	 -2.90698 	 -58.3004
| 21> H 	 -76.0758 	 -2.63562 	 -56.6394
| 22> H 	 -75.9664 	 -4.27683 	 -57.3398
| 23> S 	 -83.8985 	 -6.00331 	 -59.5633
| 24> C 	 -84.3985 	 -6.29179 	 -61.2269
| 25> C 	 -83.6069 	 -5.54764 	 -62.0357
| 26> C 	 -82.6987 	 -4.66885 	 -61.3113
| 27> C 	 -82.746 	 -4.76668 	 -59.9353
| 28> H 	 -83.4714 	 -5.81645 	 -63.0936
| 29> C 	 -81.8386 	 -3.84699 	 -62.253
| 30> H 	 -81.5924 	 -4.36293 	 -63.14
| 31> H 	 -80.9082 	 -3.73189 	 -61.688
| 32> C 	 -82.3156 	 -2.46565 	 -62.607
| 33> H 	 -83.326 	 -2.60207 	 -63.0398
| 34> H 	 -81.7195 	 -1.97468 	 -63.3561
| 35> C 	 -82.5442 	 -1.45689 	 -61.4404
| 36> H 	 -83.0586 	 -0.569602 	 -61.8369
| 37> H 	 -81.6653 	 -1.28482 	 -60.8548
| 38> H 	 -83.2738 	 -1.98672 	 -60.8483
| 39> H 	 -80.9027 	 -3.14873 	 -55.8401
| 40> H 	 -84.9964 	 -7.14414 	 -61.477
| 41> *
| 42>
| 43>                          ****END OF INPUT****

CARTESIAN COORDINATES (ANGSTROEM)
---------------------------------
  S    -82.442200   -3.373250  -57.620000
  C    -81.028000   -3.580910  -56.750400
  C    -79.989200   -4.057100  -57.565800
  C    -80.489900   -4.538820  -58.833700
  C    -81.846500   -4.330680  -58.934700
  H    -80.070800   -5.132910  -59.605200
  C    -78.607900   -4.191430  -57.151700
  H    -78.358500   -5.289700  -57.156500
  H    -78.460400   -3.801050  -56.156600
  C    -77.690300   -3.343000  -58.021500
  H    -77.638400   -3.882950  -58.971000
  H    -78.125400   -2.347840  -58.196000
  C    -76.243800   -3.257380  -57.538800
  H    -75.522100   -2.906980  -58.300400
  H    -76.075800   -2.635620  -56.639400
  H    -75.966400   -4.276830  -57.339800
  S    -83.898500   -6.003310  -59.563300
  C    -84.398500   -6.291790  -61.226900
  C    -83.606900   -5.547640  -62.035700
  C    -82.698700   -4.668850  -61.311300
  C    -82.746000   -4.766680  -59.935300
  H    -83.471400   -5.816450  -63.093600
  C    -81.838600   -3.846990  -62.253000
  H    -81.592400   -4.362930  -63.140000
  H    -80.908200   -3.731890  -61.688000
  C    -82.315600   -2.465650  -62.607000
  H    -83.326000   -2.602070  -63.039800
  H    -81.719500   -1.974680  -63.356100
  C    -82.544200   -1.456890  -61.440400
  H    -83.058600   -0.569602  -61.836900
  H    -81.665300   -1.284820  -60.854800
  H    -83.273800   -1.986720  -60.848300
  H    -80.902700   -3.148730  -55.840100
  H    -84.996400   -7.144140  -61.477000

 Total Charge           Charge          ....    0
 Multiplicity           Mult            ....    1
 Number of Electrons    NEL             ....  134
 Basis Dimension        Dim             ....  322

ORBITAL ENERGIES
----------------

  NO   OCC          E(Eh)            E(eV)
   0   2.0000     -88.962563     -2420.7944
   1   2.0000     -88.959439     -2420.7094
   2   2.0000     -10.324147      -280.9343
   3   2.0000     -10.322934      -280.9013
   4   2.0000     -10.317405      -280.7509
   5   2.0000     -10.303845      -280.3819
   6   2.0000     -10.303228      -280.3651
   7   2.0000     -10.301771      -280.3254
   8   2.0000     -10.295017      -280.1416
   9   2.0000     -10.293501      -280.1004
  10   2.0000     -10.287992      -279.9505
  11   2.0000     -10.286376      -279.9065
  12   2.0000     -10.283353      -279.8243
  13   2.0000     -10.279658      -279.7237
  14   2.0000     -10.279498      -279.7194
  15   2.0000     -10.267951      -279.4052
  16   2.0000      -8.079361      -219.8506
  17   2.0000      -8.074934      -219.7301
  18   2.0000      -6.037510      -164.2890
  19   2.0000      -6.033642      -164.1838
  20   2.0000      -6.033476      -164.1792
  21   2.0000      -6.030306      -164.0930
  22   2.0000      -6.029254      -164.0643
  23   2.0000      -6.025626      -163.9656
  24   2.0000      -1.016814       -27.6689
  25   2.0000      -0.991654       -26.9843
  26   2.0000      -0.922036       -25.0899
  27   2.0000      -0.908913       -24.7328
  28   2.0000      -0.881015       -23.9736
  29   2.0000      -0.854799       -23.2603
  30   2.0000      -0.841167       -22.8893
  31   2.0000      -0.822448       -22.3800
  32   2.0000      -0.782443       -21.2914
  33   2.0000      -0.772311       -21.0157
  34   2.0000      -0.711923       -19.3724
  35   2.0000      -0.695161       -18.9163
  36   2.0000      -0.689150       -18.7527
  37   2.0000      -0.663498       -18.0547
  38   2.0000      -0.656892       -17.8749
  39   2.0000      -0.621636       -16.9156
  40   2.0000      -0.596808       -16.2400
  41   2.0000      -0.577956       -15.7270
  42   2.0000      -0.567083       -15.4311
  43   2.0000      -0.554288       -15.0829
  44   2.0000      -0.542727       -14.7684
  45   2.0000      -0.524677       -14.2772
  46   2.0000      -0.520578       -14.1656
  47   2.0000      -0.519917       -14.1476
  48   2.0000      -0.513084       -13.9617
  49   2.0000      -0.507054       -13.7977
  50   2.0000      -0.497137       -13.5278
  51   2.0000      -0.481907       -13.1133
  52   2.0000      -0.472085       -12.8461
  53   2.0000      -0.464939       -12.6516
  54   2.0000      -0.457810       -12.4577
  55   2.0000      -0.451512       -12.2863
  56   2.0000      -0.441233       -12.0066
  57   2.0000      -0.435023       -11.8376
  58   2.0000      -0.429585       -11.6896
  59   2.0000      -0.427169       -11.6239
  60   2.0000      -0.411676       -11.2023
  61   2.0000      -0.410481       -11.1698
  62   2.0000      -0.402753       -10.9595
  63   2.0000      -0.348494        -9.4830
  64   2.0000      -0.325735        -8.8637
  65   2.0000      -0.323975        -8.8158
  66   2.0000      -0.301052        -8.1920
  67   0.0000       0.033753         0.9185
  68   0.0000       0.064377         1.7518
  69   0.0000       0.107918         2.9366
  70   0.0000       0.115557         3.1445
  71   0.0000       0.132939         3.6175

MULLIKEN ATOMIC CHARGES
-----------------------
   0 S :    0.129377
   1 C :   -0.060179
   2 C :   -0.109525
   3 C :    0.067470
   4 C :   -0.210460
   5 H :    0.007981
   6 C :    0.078646
   7 H :    0.046552
   8 H :    0.004337
   9 C :   -0.101281
  10 H :    0.025142
  11 H :    0.039481
  12 C :   -0.040786
  13 H :    0.038645
  14 H :    0.038925
  15 H :    0.017627
  16 S :    0.089394
  17 C :   -0.080018
  18 C :   -0.035677
  19 C :   -0.097458
  20 C :   -0.111854
  21 H :    0.038223
  22 C :    0.120339
  23 H :    0.011459
  24 H :    0.001831
  25 C :   -0.077402
  26 H :    0.015021
  27 H :    0.026152
  28 C :   -0.040995
  29 H :    0.038162
  30 H :    0.036403
  31 H :    0.023607
  32 H :    0.009096
  33 H :    0.061763
Sum of atomic charges:   -0.0000000

LOEWDIN ATOMIC CHARGES
----------------------
   0 S :    0.447643
   1 C :   -0.203364
   2 C :   -0.057713
   3 C :   -0.050399
   4 C :   -0.201155
   5 H :    0.029880
   6 C :   -0.039344
   7 H :    0.039881
   8 H :    0.025487
   9 C :   -0.040580
  10 H :    0.023991
  11 H :    0.026623
  12 C :   -0.069625
  13 H :    0.030461
  14 H :    0.025730
  15 H :    0.022324
  16 S :    0.409179
  17 C :   -0.172683
  18 C :   -0.078492
  19 C :   -0.052887
  20 C :   -0.219269
  21 H :    0.037193
  22 C :   -0.032967
  23 H :    0.026285
  24 H :    0.025696
  25 C :   -0.039200
  26 H :    0.023375
  27 H :    0.018143
  28 C :   -0.061544
  29 H :    0.030358
  30 H :    0.019985
  31 H :    0.022207
  32 H :    0.005833
  33 H :    0.028947

  Mayer bond orders larger than 0.100000
B(  0-S ,  1-C ) :   1.1640 B(  0-S ,  4-C ) :   1.1714 B(  1-C ,  2-C ) :   1.5785
B(  1-C , 32-H ) :   0.9814 B(  2-C ,  3-C ) :   1.2037 B(  2-C ,  6-C ) :   1.0642
B(  3-C ,  4-C ) :   1.5945 B(  3-C ,  5-H ) :   0.9976 B(  4-C , 20-C ) :   1.0310
B(  6-C ,  7-H ) :   0.9282 B(  6-C ,  8-H ) :   0.9349 B(  6-C ,  9-C ) :   1.0531
B(  9-C , 10-H ) :   0.9506 B(  9-C , 11-H ) :   0.9593 B(  9-C , 12-C ) :   1.0891
B( 12-C , 13-H ) :   0.9744 B( 12-C , 14-H ) :   0.9754 B( 12-C , 15-H ) :   0.9686
B( 16-S , 17-C ) :   1.1593 B( 16-S , 20-C ) :   1.1363 B( 17-C , 18-C ) :   1.6022
B( 17-C , 33-H ) :   0.9697 B( 18-C , 19-C ) :   1.2451 B( 18-C , 21-H ) :   0.9822
B( 19-C , 20-C ) :   1.5905 B( 19-C , 22-C ) :   1.0401 B( 22-C , 23-H ) :   0.9310
B( 22-C , 24-H ) :   0.9223 B( 22-C , 25-C ) :   1.0820 B( 25-C , 26-H ) :   0.9519
B( 25-C , 27-H ) :   0.9566 B( 25-C , 28-C ) :   1.0767 B( 28-C , 29-H ) :   0.9730
B( 28-C , 30-H ) :   0.9775 B( 28-C , 31-H ) :   0.9756

Dispersion correction           -0.014851517
FINAL SINGLE POINT ENERGY     -1339.865804924460

DIPOLE MOMENT
-------------
                                X             Y             Z
Electronic contribution:    -21.70798     -11.32693       7.22387
Nuclear contribution   :     22.32871      11.20779      -7.55531
                        -----------------------------------------
Total Dipole Moment    :      0.62073      -0.11913      -0.33144
                        -----------------------------------------
Magnitude (a.u.)       :      0.71369
Magnitude (Debye)      :      1.81405

Rotational constants in cm-1:     0.020351     0.008337     0.007285
Rotational constants in MHz :   610.097573   249.937375   218.400139

                             ****ORCA TERMINATED NORMALLY****
TOTAL RUN TIME: 0 days 0 hours 0 minutes 22 seconds 212 msec
