                         Program Version 4.2.1 -  RELEASE  -
|  1> ! wB97X-D3 SP def2-SVP
|  2> %pal
|  3> nprocs 24
|  4> end
|  5>
|  6> * xyz 0 1
|  7> S 	 -59.7973 	 14.5393 	 -90.354
|  8> C 	 -58.4886 	 15.7285 	 -90.3522
|  9> C 	 -57.3687 	 15.265 	 -89.6412
| 10> C 	 -57.5614 	 13.9615 	 -89.1225
| 11> C 	 -58.8319 	 13.4138 	 -89.3672
| 12> H 	 -56.86 	 13.3832 	 -88.5085
| 13> C 	 -56.0858 	 16.1322 	 -89.3787
| 14> H 	 -55.7467 	 15.8383 	 -88.4216
| 15> H 	 -56.3816 	 17.1717 	 -89.2786
| 16> C 	 -54.8497 	 15.9914 	 -90.3187
| 17> H 	 -55.0428 	 16.5876 	 -91.2605
| 18> H 	 -54.0094 	 16.6038 	 -89.975
| 19> C 	 -54.4701 	 14.6223 	 -90.7539
| 20> H 	 -54.2636 	 14.1698 	 -89.826
| 21> H 	 -55.2158 	 14.1726 	 -91.3016
| 22> H 	 -53.5891 	 14.6496 	 -91.4393
| 23> S 	 -60.8234 	 12.0121 	 -87.9713
| 24> C 	 -60.9058 	 10.2859 	 -88.1683
| 25> C 	 -59.7558 	 9.7726 	 -88.7466
| 26> C 	 -58.9272 	 10.8749 	 -89.1427
| 27> C 	 -59.3857 	 12.1134 	 -88.9741
| 28> H 	 -59.5745 	 8.73342 	 -88.8116
| 29> C 	 -57.5756 	 10.6412 	 -89.793
| 30> H 	 -57.151 	 11.5684 	 -90.2709
| 31> H 	 -57.7447 	 9.832 	 -90.5175
| 32> C 	 -56.5677 	 10.0523 	 -88.7706
| 33> H 	 -56.9555 	 9.18332 	 -88.3054
| 34> H 	 -56.3518 	 10.7824 	 -87.936
| 35> C 	 -55.2225 	 9.76582 	 -89.3287
| 36> H 	 -55.2417 	 9.28419 	 -90.2318
| 37> H 	 -54.6276 	 9.17608 	 -88.6469
| 38> H 	 -54.5302 	 10.6034 	 -89.3101
| 39> H 	 -58.4428 	 16.6923 	 -90.8845
| 40> H 	 -61.7199 	 9.61969 	 -87.8509
| 41> *
| 42>
| 43>                          ****END OF INPUT****

CARTESIAN COORDINATES (ANGSTROEM)
---------------------------------
  S    -59.797300   14.539300  -90.354000
  C    -58.488600   15.728500  -90.352200
  C    -57.368700   15.265000  -89.641200
  C    -57.561400   13.961500  -89.122500
  C    -58.831900   13.413800  -89.367200
  H    -56.860000   13.383200  -88.508500
  C    -56.085800   16.132200  -89.378700
  H    -55.746700   15.838300  -88.421600
  H    -56.381600   17.171700  -89.278600
  C    -54.849700   15.991400  -90.318700
  H    -55.042800   16.587600  -91.260500
  H    -54.009400   16.603800  -89.975000
  C    -54.470100   14.622300  -90.753900
  H    -54.263600   14.169800  -89.826000
  H    -55.215800   14.172600  -91.301600
  H    -53.589100   14.649600  -91.439300
  S    -60.823400   12.012100  -87.971300
  C    -60.905800   10.285900  -88.168300
  C    -59.755800    9.772600  -88.746600
  C    -58.927200   10.874900  -89.142700
  C    -59.385700   12.113400  -88.974100
  H    -59.574500    8.733420  -88.811600
  C    -57.575600   10.641200  -89.793000
  H    -57.151000   11.568400  -90.270900
  H    -57.744700    9.832000  -90.517500
  C    -56.567700   10.052300  -88.770600
  H    -56.955500    9.183320  -88.305400
  H    -56.351800   10.782400  -87.936000
  C    -55.222500    9.765820  -89.328700
  H    -55.241700    9.284190  -90.231800
  H    -54.627600    9.176080  -88.646900
  H    -54.530200   10.603400  -89.310100
  H    -58.442800   16.692300  -90.884500
  H    -61.719900    9.619690  -87.850900

 Total Charge           Charge          ....    0
 Multiplicity           Mult            ....    1
 Number of Electrons    NEL             ....  134
 Basis Dimension        Dim             ....  322

ORBITAL ENERGIES
----------------

  NO   OCC          E(Eh)            E(eV)
   0   2.0000     -88.971072     -2421.0259
   1   2.0000     -88.961560     -2420.7671
   2   2.0000     -10.336302      -281.2651
   3   2.0000     -10.321617      -280.8655
   4   2.0000     -10.320862      -280.8449
   5   2.0000     -10.319552      -280.8093
   6   2.0000     -10.307998      -280.4949
   7   2.0000     -10.301524      -280.3187
   8   2.0000     -10.296294      -280.1764
   9   2.0000     -10.296200      -280.1738
  10   2.0000     -10.293778      -280.1079
  11   2.0000     -10.290286      -280.0129
  12   2.0000     -10.287784      -279.9448
  13   2.0000     -10.282792      -279.8090
  14   2.0000     -10.268622      -279.4234
  15   2.0000     -10.264204      -279.3032
  16   2.0000      -8.084595      -219.9930
  17   2.0000      -8.076742      -219.7793
  18   2.0000      -6.043136      -164.4421
  19   2.0000      -6.039120      -164.3328
  20   2.0000      -6.035534      -164.2352
  21   2.0000      -6.035319      -164.2294
  22   2.0000      -6.031291      -164.1198
  23   2.0000      -6.027276      -164.0105
  24   2.0000      -1.007790       -27.4234
  25   2.0000      -0.981931       -26.7197
  26   2.0000      -0.910227       -24.7685
  27   2.0000      -0.909893       -24.7594
  28   2.0000      -0.871040       -23.7022
  29   2.0000      -0.854949       -23.2644
  30   2.0000      -0.846985       -23.0476
  31   2.0000      -0.817111       -22.2347
  32   2.0000      -0.786856       -21.4114
  33   2.0000      -0.772915       -21.0321
  34   2.0000      -0.702200       -19.1078
  35   2.0000      -0.698428       -19.0052
  36   2.0000      -0.694837       -18.9075
  37   2.0000      -0.665727       -18.1154
  38   2.0000      -0.637972       -17.3601
  39   2.0000      -0.614385       -16.7183
  40   2.0000      -0.592214       -16.1150
  41   2.0000      -0.574339       -15.6286
  42   2.0000      -0.570613       -15.5272
  43   2.0000      -0.559414       -15.2224
  44   2.0000      -0.547956       -14.9106
  45   2.0000      -0.525392       -14.2966
  46   2.0000      -0.521642       -14.1946
  47   2.0000      -0.512111       -13.9353
  48   2.0000      -0.509917       -13.8755
  49   2.0000      -0.498808       -13.5732
  50   2.0000      -0.492735       -13.4080
  51   2.0000      -0.477422       -12.9913
  52   2.0000      -0.469649       -12.7798
  53   2.0000      -0.466311       -12.6890
  54   2.0000      -0.465438       -12.6652
  55   2.0000      -0.449358       -12.2276
  56   2.0000      -0.444182       -12.0868
  57   2.0000      -0.438701       -11.9377
  58   2.0000      -0.428552       -11.6615
  59   2.0000      -0.426542       -11.6068
  60   2.0000      -0.421631       -11.4732
  61   2.0000      -0.406016       -11.0483
  62   2.0000      -0.401593       -10.9279
  63   2.0000      -0.342162        -9.3107
  64   2.0000      -0.335630        -9.1330
  65   2.0000      -0.326564        -8.8863
  66   2.0000      -0.298234        -8.1153
  67   0.0000       0.029693         0.8080
  68   0.0000       0.066375         1.8062
  69   0.0000       0.113364         3.0848
  70   0.0000       0.117838         3.2065
  71   0.0000       0.123021         3.3476

MULLIKEN ATOMIC CHARGES
-----------------------
   0 S :    0.124475
   1 C :   -0.122328
   2 C :   -0.109528
   3 C :    0.038666
   4 C :   -0.183394
   5 H :    0.017534
   6 C :    0.094191
   7 H :    0.012887
   8 H :    0.028151
   9 C :   -0.108846
  10 H :    0.011835
  11 H :    0.028019
  12 C :    0.005400
  13 H :    0.017980
  14 H :    0.031483
  15 H :    0.036365
  16 S :    0.103458
  17 C :   -0.094805
  18 C :   -0.016401
  19 C :   -0.027647
  20 C :   -0.144534
  21 H :    0.010407
  22 C :    0.047487
  23 H :    0.048995
  24 H :    0.021493
  25 C :   -0.093206
  26 H :    0.016806
  27 H :    0.025021
  28 C :    0.014343
  29 H :    0.012202
  30 H :    0.010852
  31 H :    0.018565
  32 H :    0.059476
  33 H :    0.064596
Sum of atomic charges:    0.0000000

LOEWDIN ATOMIC CHARGES
----------------------
   0 S :    0.401946
   1 C :   -0.196867
   2 C :   -0.066263
   3 C :   -0.061679
   4 C :   -0.183403
   5 H :    0.033953
   6 C :   -0.023531
   7 H :    0.022599
   8 H :    0.033478
   9 C :   -0.049656
  10 H :    0.020285
  11 H :    0.024959
  12 C :   -0.054839
  13 H :    0.018519
  14 H :    0.017526
  15 H :    0.036035
  16 S :    0.398270
  17 C :   -0.177167
  18 C :   -0.069609
  19 C :   -0.054496
  20 C :   -0.209939
  21 H :    0.028079
  22 C :   -0.030222
  23 H :    0.036106
  24 H :    0.028768
  25 C :   -0.041235
  26 H :    0.015838
  27 H :    0.027484
  28 C :   -0.063657
  29 H :    0.011053
  30 H :    0.028472
  31 H :    0.027145
  32 H :    0.036598
  33 H :    0.035449

  Mayer bond orders larger than 0.100000
B(  0-S ,  1-C ) :   1.1477 B(  0-S ,  4-C ) :   1.1560 B(  1-C ,  2-C ) :   1.6006
B(  1-C ,  4-C ) :   0.1112 B(  1-C , 32-H ) :   0.9629 B(  2-C ,  3-C ) :   1.2560
B(  2-C ,  6-C ) :   1.0045 B(  3-C ,  4-C ) :   1.5586 B(  3-C ,  5-H ) :   0.9901
B(  4-C , 20-C ) :   1.0318 B(  6-C ,  7-H ) :   0.9420 B(  6-C ,  8-H ) :   0.9456
B(  6-C ,  9-C ) :   1.0652 B(  9-C , 10-H ) :   0.9521 B(  9-C , 11-H ) :   0.9558
B(  9-C , 12-C ) :   1.0838 B( 12-C , 13-H ) :   0.9785 B( 12-C , 14-H ) :   0.9681
B( 12-C , 15-H ) :   0.9677 B( 16-S , 17-C ) :   1.1657 B( 16-S , 20-C ) :   1.1037
B( 17-C , 18-C ) :   1.6092 B( 17-C , 33-H ) :   0.9630 B( 18-C , 19-C ) :   1.2089
B( 18-C , 21-H ) :   1.0021 B( 19-C , 20-C ) :   1.6533 B( 19-C , 22-C ) :   1.0492
B( 22-C , 23-H ) :   0.9391 B( 22-C , 24-H ) :   0.9271 B( 22-C , 25-C ) :   1.0629
B( 25-C , 26-H ) :   0.9559 B( 25-C , 27-H ) :   0.9517 B( 25-C , 28-C ) :   1.1008
B( 28-C , 29-H ) :   0.9701 B( 28-C , 30-H ) :   0.9629 B( 28-C , 31-H ) :   0.9694

Dispersion correction           -0.014865476
FINAL SINGLE POINT ENERGY     -1339.862991014238

DIPOLE MOMENT
-------------
                                X             Y             Z
Electronic contribution:    -31.15210       3.45394       3.93660
Nuclear contribution   :     31.83634      -3.65385      -3.94123
                        -----------------------------------------
Total Dipole Moment    :      0.68425      -0.19992      -0.00462
                        -----------------------------------------
Magnitude (a.u.)       :      0.71287
Magnitude (Debye)      :      1.81197

Rotational constants in cm-1:     0.017683     0.009891     0.006818
Rotational constants in MHz :   530.130676   296.532675   204.396235

                             ****ORCA TERMINATED NORMALLY****
TOTAL RUN TIME: 0 days 0 hours 0 minutes 22 seconds 220 msec
