                         Program Version 4.2.1 -  RELEASE  -
|  1> ! wB97X-D3 SP def2-SVP
|  2> %pal
|  3> nprocs 24
|  4> end
|  5>
|  6> * xyz 0 1
|  7> S 	 -135.637 	 73.2572 	 -68.2385
|  8> C 	 -133.934 	 73.6666 	 -68.5299
|  9> C 	 -133.364 	 74.2354 	 -67.3588
| 10> C 	 -134.319 	 74.2265 	 -66.257
| 11> C 	 -135.638 	 73.868 	 -66.5812
| 12> H 	 -134.008 	 74.5441 	 -65.3238
| 13> C 	 -131.904 	 74.5884 	 -67.3253
| 14> H 	 -131.896 	 75.2889 	 -68.1448
| 15> H 	 -131.303 	 73.7359 	 -67.559
| 16> C 	 -131.378 	 75.2519 	 -66.0666
| 17> H 	 -131.426 	 74.6592 	 -65.1974
| 18> H 	 -130.31 	 75.4824 	 -66.2692
| 19> C 	 -132.007 	 76.589 	 -65.6726
| 20> H 	 -133.076 	 76.5696 	 -65.8455
| 21> H 	 -131.86 	 76.7764 	 -64.6363
| 22> H 	 -131.492 	 77.3314 	 -66.1814
| 23> S 	 -137.741 	 72.318 	 -65.6119
| 24> C 	 -138.889 	 73.0274 	 -64.5168
| 25> C 	 -138.745 	 74.425 	 -64.4383
| 26> C 	 -137.578 	 74.8676 	 -65.2261
| 27> C 	 -136.814 	 73.8304 	 -65.6957
| 28> H 	 -139.378 	 75.0248 	 -63.829
| 29> C 	 -137.315 	 76.3409 	 -65.3756
| 30> H 	 -136.33 	 76.4423 	 -65.8905
| 31> H 	 -137.168 	 76.7829 	 -64.3923
| 32> C 	 -138.311 	 77.1744 	 -66.1394
| 33> H 	 -137.934 	 78.1951 	 -66.3474
| 34> H 	 -139.268 	 77.2107 	 -65.6605
| 35> C 	 -138.433 	 76.7156 	 -67.6013
| 36> H 	 -137.466 	 76.5184 	 -67.9893
| 37> H 	 -139.024 	 77.3659 	 -68.2153
| 38> H 	 -138.847 	 75.6485 	 -67.6032
| 39> H 	 -133.325 	 73.4442 	 -69.4426
| 40> H 	 -139.805 	 72.514 	 -64.0576
| 41> *
| 42>
| 43>                          ****END OF INPUT****

CARTESIAN COORDINATES (ANGSTROEM)
---------------------------------
  S    -135.637000   73.257200  -68.238500
  C    -133.934000   73.666600  -68.529900
  C    -133.364000   74.235400  -67.358800
  C    -134.319000   74.226500  -66.257000
  C    -135.638000   73.868000  -66.581200
  H    -134.008000   74.544100  -65.323800
  C    -131.904000   74.588400  -67.325300
  H    -131.896000   75.288900  -68.144800
  H    -131.303000   73.735900  -67.559000
  C    -131.378000   75.251900  -66.066600
  H    -131.426000   74.659200  -65.197400
  H    -130.310000   75.482400  -66.269200
  C    -132.007000   76.589000  -65.672600
  H    -133.076000   76.569600  -65.845500
  H    -131.860000   76.776400  -64.636300
  H    -131.492000   77.331400  -66.181400
  S    -137.741000   72.318000  -65.611900
  C    -138.889000   73.027400  -64.516800
  C    -138.745000   74.425000  -64.438300
  C    -137.578000   74.867600  -65.226100
  C    -136.814000   73.830400  -65.695700
  H    -139.378000   75.024800  -63.829000
  C    -137.315000   76.340900  -65.375600
  H    -136.330000   76.442300  -65.890500
  H    -137.168000   76.782900  -64.392300
  C    -138.311000   77.174400  -66.139400
  H    -137.934000   78.195100  -66.347400
  H    -139.268000   77.210700  -65.660500
  C    -138.433000   76.715600  -67.601300
  H    -137.466000   76.518400  -67.989300
  H    -139.024000   77.365900  -68.215300
  H    -138.847000   75.648500  -67.603200
  H    -133.325000   73.444200  -69.442600
  H    -139.805000   72.514000  -64.057600

 Total Charge           Charge          ....    0
 Multiplicity           Mult            ....    1
 Number of Electrons    NEL             ....  134
 Basis Dimension        Dim             ....  322

ORBITAL ENERGIES
----------------

  NO   OCC          E(Eh)            E(eV)
   0   2.0000     -88.968577     -2420.9581
   1   2.0000     -88.966816     -2420.9101
   2   2.0000     -10.336207      -281.2625
   3   2.0000     -10.330136      -281.0973
   4   2.0000     -10.328535      -281.0537
   5   2.0000     -10.320642      -280.8390
   6   2.0000     -10.309641      -280.5396
   7   2.0000     -10.305642      -280.4308
   8   2.0000     -10.299535      -280.2646
   9   2.0000     -10.295840      -280.1641
  10   2.0000     -10.289957      -280.0040
  11   2.0000     -10.289190      -279.9831
  12   2.0000     -10.282913      -279.8123
  13   2.0000     -10.282348      -279.7969
  14   2.0000     -10.268430      -279.4182
  15   2.0000     -10.266913      -279.3769
  16   2.0000      -8.081995      -219.9223
  17   2.0000      -8.081417      -219.9065
  18   2.0000      -6.040620      -164.3736
  19   2.0000      -6.040079      -164.3589
  20   2.0000      -6.036520      -164.2621
  21   2.0000      -6.036048      -164.2492
  22   2.0000      -6.032859      -164.1625
  23   2.0000      -6.031896      -164.1362
  24   2.0000      -1.000794       -27.2330
  25   2.0000      -0.976846       -26.5813
  26   2.0000      -0.917491       -24.9662
  27   2.0000      -0.912107       -24.8197
  28   2.0000      -0.867310       -23.6007
  29   2.0000      -0.847583       -23.0639
  30   2.0000      -0.840722       -22.8772
  31   2.0000      -0.817400       -22.2426
  32   2.0000      -0.784890       -21.3579
  33   2.0000      -0.772217       -21.0131
  34   2.0000      -0.709975       -19.3194
  35   2.0000      -0.694153       -18.8889
  36   2.0000      -0.686945       -18.6927
  37   2.0000      -0.657389       -17.8885
  38   2.0000      -0.634544       -17.2668
  39   2.0000      -0.625400       -17.0180
  40   2.0000      -0.593356       -16.1460
  41   2.0000      -0.571808       -15.5597
  42   2.0000      -0.560902       -15.2629
  43   2.0000      -0.556870       -15.1532
  44   2.0000      -0.550033       -14.9672
  45   2.0000      -0.539940       -14.6925
  46   2.0000      -0.521139       -14.1809
  47   2.0000      -0.508626       -13.8404
  48   2.0000      -0.503874       -13.7111
  49   2.0000      -0.498393       -13.5620
  50   2.0000      -0.494721       -13.4621
  51   2.0000      -0.482108       -13.1188
  52   2.0000      -0.469969       -12.7885
  53   2.0000      -0.456848       -12.4315
  54   2.0000      -0.453850       -12.3499
  55   2.0000      -0.445252       -12.1159
  56   2.0000      -0.442429       -12.0391
  57   2.0000      -0.438569       -11.9341
  58   2.0000      -0.431057       -11.7297
  59   2.0000      -0.424785       -11.5590
  60   2.0000      -0.423513       -11.5244
  61   2.0000      -0.413134       -11.2419
  62   2.0000      -0.402808       -10.9610
  63   2.0000      -0.340385        -9.2623
  64   2.0000      -0.328023        -8.9260
  65   2.0000      -0.325307        -8.8521
  66   2.0000      -0.296995        -8.0816
  67   0.0000       0.029214         0.7949
  68   0.0000       0.057149         1.5551
  69   0.0000       0.105440         2.8692
  70   0.0000       0.120873         3.2891
  71   0.0000       0.126954         3.4546

MULLIKEN ATOMIC CHARGES
-----------------------
   0 S :    0.114497
   1 C :   -0.150542
   2 C :   -0.140131
   3 C :    0.071426
   4 C :   -0.156214
   5 H :   -0.019611
   6 C :    0.100711
   7 H :    0.030849
   8 H :    0.044930
   9 C :   -0.100829
  10 H :    0.025821
  11 H :    0.031023
  12 C :   -0.020730
  13 H :    0.035630
  14 H :    0.019911
  15 H :    0.016930
  16 S :    0.102722
  17 C :   -0.110347
  18 C :   -0.022110
  19 C :   -0.047174
  20 C :   -0.149083
  21 H :    0.015052
  22 C :    0.061743
  23 H :    0.026534
  24 H :    0.034003
  25 C :   -0.065326
  26 H :    0.034757
  27 H :    0.028269
  28 C :   -0.059974
  29 H :    0.016942
  30 H :    0.038287
  31 H :    0.035397
  32 H :    0.068406
  33 H :    0.088232
Sum of atomic charges:   -0.0000000

LOEWDIN ATOMIC CHARGES
----------------------
   0 S :    0.396612
   1 C :   -0.207890
   2 C :   -0.059420
   3 C :   -0.056142
   4 C :   -0.193962
   5 H :    0.014812
   6 C :   -0.032733
   7 H :    0.037662
   8 H :    0.035059
   9 C :   -0.042811
  10 H :    0.016418
  11 H :    0.032279
  12 C :   -0.056140
  13 H :    0.023671
  14 H :    0.024545
  15 H :    0.016854
  16 S :    0.397672
  17 C :   -0.193790
  18 C :   -0.069566
  19 C :   -0.043234
  20 C :   -0.199474
  21 H :    0.025847
  22 C :   -0.038143
  23 H :    0.034293
  24 H :    0.032937
  25 C :   -0.040628
  26 H :    0.032762
  27 H :    0.017309
  28 C :   -0.065040
  29 H :    0.018544
  30 H :    0.020950
  31 H :    0.031090
  32 H :    0.040743
  33 H :    0.048912

  Mayer bond orders larger than 0.100000
B(  0-S ,  1-C ) :   1.1427 B(  0-S ,  4-C ) :   1.1510 B(  1-C ,  2-C ) :   1.5907
B(  1-C ,  4-C ) :   0.1051 B(  1-C , 32-H ) :   0.9654 B(  2-C ,  3-C ) :   1.2701
B(  2-C ,  6-C ) :   0.9921 B(  3-C ,  4-C ) :   1.5420 B(  3-C ,  5-H ) :   0.9980
B(  4-C , 20-C ) :   1.0397 B(  6-C ,  7-H ) :   0.9345 B(  6-C ,  8-H ) :   0.9398
B(  6-C ,  9-C ) :   1.0933 B(  9-C , 10-H ) :   0.9574 B(  9-C , 11-H ) :   0.9554
B(  9-C , 12-C ) :   1.0744 B( 12-C , 13-H ) :   0.9777 B( 12-C , 14-H ) :   0.9731
B( 12-C , 15-H ) :   0.9758 B( 16-S , 17-C ) :   1.1603 B( 16-S , 20-C ) :   1.1096
B( 17-C , 18-C ) :   1.6216 B( 17-C , 33-H ) :   0.9550 B( 18-C , 19-C ) :   1.1991
B( 18-C , 21-H ) :   0.9959 B( 19-C , 20-C ) :   1.6254 B( 19-C , 22-C ) :   1.0440
B( 22-C , 23-H ) :   0.9292 B( 22-C , 24-H ) :   0.9342 B( 22-C , 25-C ) :   1.0868
B( 25-C , 26-H ) :   0.9549 B( 25-C , 27-H ) :   0.9561 B( 25-C , 28-C ) :   1.0676
B( 28-C , 29-H ) :   0.9726 B( 28-C , 30-H ) :   0.9774 B( 28-C , 31-H ) :   0.9705

Dispersion correction           -0.015221679
FINAL SINGLE POINT ENERGY     -1339.862483820241

DIPOLE MOMENT
-------------
                                X             Y             Z
Electronic contribution:    -10.63498     -21.89480      -2.09267
Nuclear contribution   :     10.93265      22.40567       2.29710
                        -----------------------------------------
Total Dipole Moment    :      0.29767       0.51087       0.20444
                        -----------------------------------------
Magnitude (a.u.)       :      0.62561
Magnitude (Debye)      :      1.59018

Rotational constants in cm-1:     0.019222     0.008834     0.007787
Rotational constants in MHz :   576.254780   264.848866   233.436495

                             ****ORCA TERMINATED NORMALLY****
TOTAL RUN TIME: 0 days 0 hours 0 minutes 21 seconds 217 msec
