                         Program Version 4.2.1 -  RELEASE  -
|  1> ! wB97X-D3 SP def2-SVP
|  2> %pal
|  3> nprocs 24
|  4> end
|  5>
|  6> * xyz 0 1
|  7> S 	 -133.166 	 15.2125 	 -16.185
|  8> C 	 -133.466 	 13.5369 	 -15.5814
|  9> C 	 -133.994 	 12.7559 	 -16.6107
| 10> C 	 -134.253 	 13.5219 	 -17.7911
| 11> C 	 -133.873 	 14.8562 	 -17.7763
| 12> H 	 -134.683 	 13.1108 	 -18.7864
| 13> C 	 -134.38 	 11.3251 	 -16.5591
| 14> H 	 -133.639 	 10.7259 	 -16.0745
| 15> H 	 -134.595 	 10.8631 	 -17.5254
| 16> C 	 -135.621 	 10.9759 	 -15.6093
| 17> H 	 -135.727 	 9.90507 	 -15.6327
| 18> H 	 -135.45 	 11.2768 	 -14.6493
| 19> C 	 -137.052 	 11.6082 	 -15.9459
| 20> H 	 -137.732 	 11.3246 	 -15.1323
| 21> H 	 -136.962 	 12.6806 	 -16.1131
| 22> H 	 -137.362 	 11.2278 	 -16.9032
| 23> S 	 -134.451 	 17.506 	 -18.1761
| 24> C 	 -134.328 	 18.2404 	 -19.7322
| 25> C 	 -134.161 	 17.2696 	 -20.6584
| 26> C 	 -134.183 	 15.9073 	 -20.172
| 27> C 	 -134.196 	 15.8926 	 -18.7575
| 28> H 	 -134.107 	 17.4041 	 -21.7545
| 29> C 	 -133.972 	 14.759 	 -21.1092
| 30> H 	 -133.345 	 13.9976 	 -20.7041
| 31> H 	 -133.365 	 15.0496 	 -21.9368
| 32> C 	 -135.281 	 14.1278 	 -21.5733
| 33> H 	 -135.946 	 14.829 	 -22.082
| 34> H 	 -135.856 	 13.819 	 -20.6959
| 35> C 	 -134.994 	 12.921 	 -22.4145
| 36> H 	 -135.887 	 12.5374 	 -22.8123
| 37> H 	 -134.625 	 12.1006 	 -21.8551
| 38> H 	 -134.273 	 13.0417 	 -23.2541
| 39> H 	 -133.286 	 13.1388 	 -14.6059
| 40> H 	 -134.617 	 19.2731 	 -19.8576
| 41> *
| 42>
| 43>                          ****END OF INPUT****

CARTESIAN COORDINATES (ANGSTROEM)
---------------------------------
  S    -133.166000   15.212500  -16.185000
  C    -133.466000   13.536900  -15.581400
  C    -133.994000   12.755900  -16.610700
  C    -134.253000   13.521900  -17.791100
  C    -133.873000   14.856200  -17.776300
  H    -134.683000   13.110800  -18.786400
  C    -134.380000   11.325100  -16.559100
  H    -133.639000   10.725900  -16.074500
  H    -134.595000   10.863100  -17.525400
  C    -135.621000   10.975900  -15.609300
  H    -135.727000    9.905070  -15.632700
  H    -135.450000   11.276800  -14.649300
  C    -137.052000   11.608200  -15.945900
  H    -137.732000   11.324600  -15.132300
  H    -136.962000   12.680600  -16.113100
  H    -137.362000   11.227800  -16.903200
  S    -134.451000   17.506000  -18.176100
  C    -134.328000   18.240400  -19.732200
  C    -134.161000   17.269600  -20.658400
  C    -134.183000   15.907300  -20.172000
  C    -134.196000   15.892600  -18.757500
  H    -134.107000   17.404100  -21.754500
  C    -133.972000   14.759000  -21.109200
  H    -133.345000   13.997600  -20.704100
  H    -133.365000   15.049600  -21.936800
  C    -135.281000   14.127800  -21.573300
  H    -135.946000   14.829000  -22.082000
  H    -135.856000   13.819000  -20.695900
  C    -134.994000   12.921000  -22.414500
  H    -135.887000   12.537400  -22.812300
  H    -134.625000   12.100600  -21.855100
  H    -134.273000   13.041700  -23.254100
  H    -133.286000   13.138800  -14.605900
  H    -134.617000   19.273100  -19.857600

 Total Charge           Charge          ....    0
 Multiplicity           Mult            ....    1
 Number of Electrons    NEL             ....  134
 Basis Dimension        Dim             ....  322

ORBITAL ENERGIES
----------------

  NO   OCC          E(Eh)            E(eV)
   0   2.0000     -88.969689     -2420.9883
   1   2.0000     -88.962861     -2420.8025
   2   2.0000     -10.336088      -281.2593
   3   2.0000     -10.332668      -281.1662
   4   2.0000     -10.320790      -280.8430
   5   2.0000     -10.315561      -280.7007
   6   2.0000     -10.305720      -280.4329
   7   2.0000     -10.305413      -280.4245
   8   2.0000     -10.301284      -280.3122
   9   2.0000     -10.296189      -280.1735
  10   2.0000     -10.293987      -280.1136
  11   2.0000     -10.286814      -279.9184
  12   2.0000     -10.286040      -279.8974
  13   2.0000     -10.284133      -279.8455
  14   2.0000     -10.276231      -279.6305
  15   2.0000     -10.272051      -279.5167
  16   2.0000      -8.082715      -219.9419
  17   2.0000      -8.078673      -219.8319
  18   2.0000      -6.041541      -164.3987
  19   2.0000      -6.037392      -164.2858
  20   2.0000      -6.037188      -164.2802
  21   2.0000      -6.033283      -164.1740
  22   2.0000      -6.032872      -164.1628
  23   2.0000      -6.029506      -164.0712
  24   2.0000      -1.007572       -27.4174
  25   2.0000      -0.981686       -26.7130
  26   2.0000      -0.919686       -25.0259
  27   2.0000      -0.905972       -24.6528
  28   2.0000      -0.866896       -23.5894
  29   2.0000      -0.855706       -23.2849
  30   2.0000      -0.839663       -22.8484
  31   2.0000      -0.814672       -22.1684
  32   2.0000      -0.784722       -21.3534
  33   2.0000      -0.776281       -21.1237
  34   2.0000      -0.710786       -19.3415
  35   2.0000      -0.706446       -19.2234
  36   2.0000      -0.697737       -18.9864
  37   2.0000      -0.664348       -18.0778
  38   2.0000      -0.636069       -17.3083
  39   2.0000      -0.616965       -16.7885
  40   2.0000      -0.603841       -16.4314
  41   2.0000      -0.575455       -15.6589
  42   2.0000      -0.565820       -15.3968
  43   2.0000      -0.544007       -14.8032
  44   2.0000      -0.538135       -14.6434
  45   2.0000      -0.530197       -14.4274
  46   2.0000      -0.524050       -14.2601
  47   2.0000      -0.513699       -13.9785
  48   2.0000      -0.508442       -13.8354
  49   2.0000      -0.501256       -13.6399
  50   2.0000      -0.495522       -13.4838
  51   2.0000      -0.476377       -12.9629
  52   2.0000      -0.471942       -12.8422
  53   2.0000      -0.468824       -12.7573
  54   2.0000      -0.456446       -12.4205
  55   2.0000      -0.453117       -12.3300
  56   2.0000      -0.443972       -12.0811
  57   2.0000      -0.436292       -11.8721
  58   2.0000      -0.432292       -11.7633
  59   2.0000      -0.425135       -11.5685
  60   2.0000      -0.420846       -11.4518
  61   2.0000      -0.417827       -11.3696
  62   2.0000      -0.412496       -11.2246
  63   2.0000      -0.358029        -9.7425
  64   2.0000      -0.329946        -8.9783
  65   2.0000      -0.329247        -8.9593
  66   2.0000      -0.286275        -7.7899
  67   0.0000       0.017918         0.4876
  68   0.0000       0.076855         2.0913
  69   0.0000       0.103786         2.8241
  70   0.0000       0.121172         3.2973
  71   0.0000       0.127337         3.4650

MULLIKEN ATOMIC CHARGES
-----------------------
   0 S :    0.102516
   1 C :   -0.117967
   2 C :   -0.051453
   3 C :   -0.036244
   4 C :   -0.112831
   5 H :    0.035771
   6 C :    0.071351
   7 H :    0.025736
   8 H :    0.026765
   9 C :   -0.080742
  10 H :    0.027930
  11 H :    0.008386
  12 C :   -0.063101
  13 H :    0.047993
  14 H :    0.044807
  15 H :    0.018072
  16 S :    0.092320
  17 C :   -0.085795
  18 C :   -0.019785
  19 C :   -0.052495
  20 C :   -0.139027
  21 H :    0.025155
  22 C :    0.063046
  23 H :    0.012636
  24 H :    0.009307
  25 C :   -0.076305
  26 H :    0.027746
  27 H :    0.028596
  28 C :   -0.000368
  29 H :    0.015138
  30 H :    0.012636
  31 H :    0.030350
  32 H :    0.041377
  33 H :    0.068480
Sum of atomic charges:    0.0000000

LOEWDIN ATOMIC CHARGES
----------------------
   0 S :    0.378506
   1 C :   -0.179648
   2 C :   -0.063442
   3 C :   -0.079149
   4 C :   -0.183063
   5 H :    0.042299
   6 C :   -0.030042
   7 H :    0.032952
   8 H :    0.031120
   9 C :   -0.023582
  10 H :    0.020661
  11 H :    0.005214
  12 C :   -0.065225
  13 H :    0.030407
  14 H :    0.027365
  15 H :    0.017261
  16 S :    0.420796
  17 C :   -0.194176
  18 C :   -0.071645
  19 C :   -0.053431
  20 C :   -0.198256
  21 H :    0.033981
  22 C :   -0.033921
  23 H :    0.027384
  24 H :    0.027915
  25 C :   -0.036550
  26 H :    0.024708
  27 H :    0.024552
  28 C :   -0.062706
  29 H :    0.020705
  30 H :    0.020262
  31 H :    0.028964
  32 H :    0.026707
  33 H :    0.033076

  Mayer bond orders larger than 0.100000
B(  0-S ,  1-C ) :   1.1208 B(  0-S ,  4-C ) :   1.1340 B(  1-C ,  2-C ) :   1.5944
B(  1-C , 32-H ) :   0.9716 B(  2-C ,  3-C ) :   1.2441 B(  2-C ,  6-C ) :   1.0430
B(  3-C ,  4-C ) :   1.5730 B(  3-C ,  5-H ) :   0.9710 B(  4-C , 20-C ) :   1.0712
B(  6-C ,  7-H ) :   0.9302 B(  6-C ,  8-H ) :   0.9477 B(  6-C ,  9-C ) :   1.0650
B(  9-C , 10-H ) :   0.9610 B(  9-C , 11-H ) :   0.9624 B(  9-C , 12-C ) :   1.0667
B( 12-C , 13-H ) :   0.9768 B( 12-C , 14-H ) :   0.9779 B( 12-C , 15-H ) :   0.9786
B( 16-S , 17-C ) :   1.1531 B( 16-S , 20-C ) :   1.1562 B( 17-C , 18-C ) :   1.5651
B( 17-C , 33-H ) :   0.9730 B( 18-C , 19-C ) :   1.2970 B( 18-C , 21-H ) :   0.9817
B( 19-C , 20-C ) :   1.5291 B( 19-C , 22-C ) :   1.0523 B( 22-C , 23-H ) :   0.9328
B( 22-C , 24-H ) :   0.9325 B( 22-C , 25-C ) :   1.0548 B( 25-C , 26-H ) :   0.9542
B( 25-C , 27-H ) :   0.9500 B( 25-C , 28-C ) :   1.0909 B( 28-C , 29-H ) :   0.9677
B( 28-C , 30-H ) :   0.9681 B( 28-C , 31-H ) :   0.9714

Dispersion correction           -0.014248776
FINAL SINGLE POINT ENERGY     -1339.872626440860

DIPOLE MOMENT
-------------
                                X             Y             Z
Electronic contribution:     11.29613      24.77860      10.71349
Nuclear contribution   :    -11.51333     -25.33443     -11.13974
                        -----------------------------------------
Total Dipole Moment    :     -0.21720      -0.55583      -0.42625
                        -----------------------------------------
Magnitude (a.u.)       :      0.73336
Magnitude (Debye)      :      1.86404

Rotational constants in cm-1:     0.017039     0.009373     0.006845
Rotational constants in MHz :   510.826300   280.993293   205.199660

                             ****ORCA TERMINATED NORMALLY****
TOTAL RUN TIME: 0 days 0 hours 0 minutes 21 seconds 772 msec
