                         Program Version 4.2.1 -  RELEASE  -
|  1> ! wB97X-D3 SP def2-SVP
|  2> %pal
|  3> nprocs 24
|  4> end
|  5>
|  6> * xyz 0 1
|  7> S 	 -106.379 	 55.9606 	 -100.749
|  8> C 	 -107.934 	 55.2436 	 -100.547
|  9> C 	 -109.028 	 56.0994 	 -100.43
| 10> C 	 -108.51 	 57.4791 	 -100.509
| 11> C 	 -107.088 	 57.608 	 -100.67
| 12> H 	 -109.115 	 58.3928 	 -100.415
| 13> C 	 -110.469 	 55.7788 	 -100.183
| 14> H 	 -110.656 	 55.5607 	 -99.1414
| 15> H 	 -110.669 	 54.7826 	 -100.645
| 16> C 	 -111.479 	 56.6629 	 -100.848
| 17> H 	 -112.502 	 56.3915 	 -100.536
| 18> H 	 -111.415 	 57.6807 	 -100.453
| 19> C 	 -111.398 	 56.6281 	 -102.394
| 20> H 	 -112.357 	 56.8736 	 -102.947
| 21> H 	 -110.692 	 57.4017 	 -102.811
| 22> H 	 -111.058 	 55.6649 	 -102.807
| 23> S 	 -104.773 	 58.5974 	 -99.655
| 24> C 	 -104.301 	 60.2638 	 -99.8384
| 25> C 	 -105.273 	 60.9414 	 -100.489
| 26> C 	 -106.327 	 60.1159 	 -100.965
| 27> C 	 -106.285 	 58.8112 	 -100.488
| 28> H 	 -105.364 	 61.9876 	 -100.599
| 29> C 	 -107.47 	 60.751 	 -101.751
| 30> H 	 -108.219 	 60.0112 	 -102.088
| 31> H 	 -107.029 	 61.0243 	 -102.682
| 32> C 	 -108.175 	 61.905 	 -101.088
| 33> H 	 -108.982 	 62.2234 	 -101.756
| 34> H 	 -107.454 	 62.71 	 -101.022
| 35> C 	 -108.787 	 61.5491 	 -99.7315
| 36> H 	 -109.422 	 60.799 	 -100.019
| 37> H 	 -109.342 	 62.3813 	 -99.2728
| 38> H 	 -108.001 	 61.1369 	 -99.1593
| 39> H 	 -107.998 	 54.1911 	 -100.295
| 40> H 	 -103.421 	 60.6993 	 -99.5333
| 41> *
| 42>
| 43>                          ****END OF INPUT****

CARTESIAN COORDINATES (ANGSTROEM)
---------------------------------
  S    -106.379000   55.960600  -100.749000
  C    -107.934000   55.243600  -100.547000
  C    -109.028000   56.099400  -100.430000
  C    -108.510000   57.479100  -100.509000
  C    -107.088000   57.608000  -100.670000
  H    -109.115000   58.392800  -100.415000
  C    -110.469000   55.778800  -100.183000
  H    -110.656000   55.560700  -99.141400
  H    -110.669000   54.782600  -100.645000
  C    -111.479000   56.662900  -100.848000
  H    -112.502000   56.391500  -100.536000
  H    -111.415000   57.680700  -100.453000
  C    -111.398000   56.628100  -102.394000
  H    -112.357000   56.873600  -102.947000
  H    -110.692000   57.401700  -102.811000
  H    -111.058000   55.664900  -102.807000
  S    -104.773000   58.597400  -99.655000
  C    -104.301000   60.263800  -99.838400
  C    -105.273000   60.941400  -100.489000
  C    -106.327000   60.115900  -100.965000
  C    -106.285000   58.811200  -100.488000
  H    -105.364000   61.987600  -100.599000
  C    -107.470000   60.751000  -101.751000
  H    -108.219000   60.011200  -102.088000
  H    -107.029000   61.024300  -102.682000
  C    -108.175000   61.905000  -101.088000
  H    -108.982000   62.223400  -101.756000
  H    -107.454000   62.710000  -101.022000
  C    -108.787000   61.549100  -99.731500
  H    -109.422000   60.799000  -100.019000
  H    -109.342000   62.381300  -99.272800
  H    -108.001000   61.136900  -99.159300
  H    -107.998000   54.191100  -100.295000
  H    -103.421000   60.699300  -99.533300

 Total Charge           Charge          ....    0
 Multiplicity           Mult            ....    1
 Number of Electrons    NEL             ....  134
 Basis Dimension        Dim             ....  322

ORBITAL ENERGIES
----------------

  NO   OCC          E(Eh)            E(eV)
   0   2.0000     -88.970109     -2420.9997
   1   2.0000     -88.962453     -2420.7914
   2   2.0000     -10.338477      -281.3243
   3   2.0000     -10.327996      -281.0391
   4   2.0000     -10.315121      -280.6887
   5   2.0000     -10.311353      -280.5862
   6   2.0000     -10.309548      -280.5371
   7   2.0000     -10.305934      -280.4387
   8   2.0000     -10.299599      -280.2663
   9   2.0000     -10.295838      -280.1640
  10   2.0000     -10.293081      -280.0890
  11   2.0000     -10.287530      -279.9379
  12   2.0000     -10.287141      -279.9273
  13   2.0000     -10.285915      -279.8940
  14   2.0000     -10.282947      -279.8132
  15   2.0000     -10.266830      -279.3746
  16   2.0000      -8.084319      -219.9855
  17   2.0000      -8.077816      -219.8086
  18   2.0000      -6.042934      -164.4366
  19   2.0000      -6.038874      -164.3261
  20   2.0000      -6.036407      -164.2590
  21   2.0000      -6.035024      -164.2213
  22   2.0000      -6.032128      -164.1425
  23   2.0000      -6.028539      -164.0449
  24   2.0000      -1.007153       -27.4060
  25   2.0000      -0.981024       -26.6950
  26   2.0000      -0.918739       -25.0002
  27   2.0000      -0.916117       -24.9288
  28   2.0000      -0.872305       -23.7366
  29   2.0000      -0.849229       -23.1087
  30   2.0000      -0.840405       -22.8686
  31   2.0000      -0.813912       -22.1477
  32   2.0000      -0.785147       -21.3649
  33   2.0000      -0.777050       -21.1446
  34   2.0000      -0.713230       -19.4080
  35   2.0000      -0.698092       -18.9961
  36   2.0000      -0.696482       -18.9522
  37   2.0000      -0.662559       -18.0292
  38   2.0000      -0.639068       -17.3899
  39   2.0000      -0.621271       -16.9056
  40   2.0000      -0.606019       -16.4906
  41   2.0000      -0.566812       -15.4237
  42   2.0000      -0.562826       -15.3153
  43   2.0000      -0.559231       -15.2174
  44   2.0000      -0.552015       -15.0211
  45   2.0000      -0.532264       -14.4836
  46   2.0000      -0.519159       -14.1270
  47   2.0000      -0.507216       -13.8020
  48   2.0000      -0.499352       -13.5881
  49   2.0000      -0.496426       -13.5084
  50   2.0000      -0.489054       -13.3078
  51   2.0000      -0.480272       -13.0689
  52   2.0000      -0.469111       -12.7652
  53   2.0000      -0.467369       -12.7177
  54   2.0000      -0.459854       -12.5133
  55   2.0000      -0.451506       -12.2861
  56   2.0000      -0.446709       -12.1556
  57   2.0000      -0.442798       -12.0492
  58   2.0000      -0.438138       -11.9223
  59   2.0000      -0.428616       -11.6632
  60   2.0000      -0.417221       -11.3532
  61   2.0000      -0.412289       -11.2190
  62   2.0000      -0.407338       -11.0842
  63   2.0000      -0.353937        -9.6311
  64   2.0000      -0.330308        -8.9881
  65   2.0000      -0.328283        -8.9330
  66   2.0000      -0.286532        -7.7969
  67   0.0000       0.022123         0.6020
  68   0.0000       0.076090         2.0705
  69   0.0000       0.106222         2.8905
  70   0.0000       0.112868         3.0713
  71   0.0000       0.125472         3.4143

MULLIKEN ATOMIC CHARGES
-----------------------
   0 S :    0.115706
   1 C :   -0.126726
   2 C :   -0.077418
   3 C :    0.008237
   4 C :   -0.136507
   5 H :    0.009078
   6 C :    0.067743
   7 H :    0.045021
   8 H :    0.022688
   9 C :   -0.063171
  10 H :    0.028803
  11 H :    0.027879
  12 C :   -0.090332
  13 H :    0.042263
  14 H :    0.042851
  15 H :    0.036994
  16 S :    0.087091
  17 C :   -0.037331
  18 C :   -0.009602
  19 C :   -0.090686
  20 C :   -0.138046
  21 H :    0.003253
  22 C :    0.064278
  23 H :    0.016018
  24 H :    0.023428
  25 C :   -0.091351
  26 H :    0.028558
  27 H :    0.018832
  28 C :    0.006665
  29 H :    0.004694
  30 H :    0.045225
  31 H :    0.039488
  32 H :    0.051383
  33 H :    0.024994
Sum of atomic charges:   -0.0000000

LOEWDIN ATOMIC CHARGES
----------------------
   0 S :    0.402241
   1 C :   -0.202350
   2 C :   -0.061584
   3 C :   -0.054929
   4 C :   -0.188558
   5 H :    0.026368
   6 C :   -0.038960
   7 H :    0.036128
   8 H :    0.037179
   9 C :   -0.046144
  10 H :    0.029886
  11 H :    0.021962
  12 C :   -0.077494
  13 H :    0.032727
  14 H :    0.031770
  15 H :    0.026662
  16 S :    0.410257
  17 C :   -0.167476
  18 C :   -0.066960
  19 C :   -0.061547
  20 C :   -0.201039
  21 H :    0.024748
  22 C :   -0.035160
  23 H :    0.028790
  24 H :    0.031270
  25 C :   -0.036516
  26 H :    0.026012
  27 H :    0.012718
  28 C :   -0.051367
  29 H :    0.011838
  30 H :    0.032385
  31 H :    0.024484
  32 H :    0.026290
  33 H :    0.016370

  Mayer bond orders larger than 0.100000
B(  0-S ,  1-C ) :   1.1557 B(  0-S ,  4-C ) :   1.1323 B(  1-C ,  2-C ) :   1.6123
B(  1-C , 32-H ) :   0.9588 B(  2-C ,  3-C ) :   1.2420 B(  2-C ,  6-C ) :   1.0158
B(  3-C ,  4-C ) :   1.5637 B(  3-C ,  5-H ) :   0.9819 B(  4-C , 20-C ) :   1.0748
B(  6-C ,  7-H ) :   0.9322 B(  6-C ,  8-H ) :   0.9391 B(  6-C ,  9-C ) :   1.0870
B(  9-C , 10-H ) :   0.9543 B(  9-C , 11-H ) :   0.9506 B(  9-C , 12-C ) :   1.0583
B( 12-C , 13-H ) :   0.9779 B( 12-C , 14-H ) :   0.9732 B( 12-C , 15-H ) :   0.9781
B( 16-S , 17-C ) :   1.1552 B( 16-S , 20-C ) :   1.1322 B( 17-C , 18-C ) :   1.5874
B( 17-C , 33-H ) :   0.9798 B( 18-C , 19-C ) :   1.2588 B( 18-C , 21-H ) :   0.9943
B( 19-C , 20-C ) :   1.5769 B( 19-C , 22-C ) :   1.0369 B( 22-C , 23-H ) :   0.9373
B( 22-C , 24-H ) :   0.9241 B( 22-C , 25-C ) :   1.0829 B( 25-C , 26-H ) :   0.9527
B( 25-C , 27-H ) :   0.9525 B( 25-C , 28-C ) :   1.0648 B( 28-C , 29-H ) :   0.9703
B( 28-C , 30-H ) :   0.9711 B( 28-C , 31-H ) :   0.9746

Dispersion correction           -0.015145449
FINAL SINGLE POINT ENERGY     -1339.873302670891

DIPOLE MOMENT
-------------
                                X             Y             Z
Electronic contribution:     26.68655     -10.38600       5.20085
Nuclear contribution   :    -27.30687      10.67329      -5.18605
                        -----------------------------------------
Total Dipole Moment    :     -0.62032       0.28729       0.01480
                        -----------------------------------------
Magnitude (a.u.)       :      0.68378
Magnitude (Debye)      :      1.73802

Rotational constants in cm-1:     0.018745     0.009868     0.007019
Rotational constants in MHz :   561.959522   295.825683   210.434583

                             ****ORCA TERMINATED NORMALLY****
TOTAL RUN TIME: 0 days 0 hours 0 minutes 22 seconds 614 msec
