                         Program Version 4.2.1 -  RELEASE  -
|  1> ! wB97X-D3 SP def2-SVP
|  2> %pal
|  3> nprocs 24
|  4> end
|  5>
|  6> * xyz 0 1
|  7> S 	 39.2863 	 -23.6972 	 -125.952
|  8> C 	 38.1324 	 -22.4775 	 -126.482
|  9> C 	 38.5908 	 -21.1369 	 -126.419
| 10> C 	 39.9115 	 -21.1469 	 -125.847
| 11> C 	 40.4086 	 -22.3661 	 -125.532
| 12> H 	 40.4569 	 -20.2232 	 -125.73
| 13> C 	 37.8236 	 -19.831 	 -126.828
| 14> H 	 36.7389 	 -19.9757 	 -126.428
| 15> H 	 37.7502 	 -19.9547 	 -127.905
| 16> C 	 38.3274 	 -18.4302 	 -126.465
| 17> H 	 39.2216 	 -18.226 	 -127.01
| 18> H 	 37.5974 	 -17.7112 	 -126.879
| 19> C 	 38.5096 	 -18.1848 	 -124.915
| 20> H 	 37.7454 	 -18.6483 	 -124.343
| 21> H 	 39.3905 	 -18.6544 	 -124.578
| 22> H 	 38.4573 	 -17.1367 	 -124.739
| 23> S 	 42.6797 	 -23.8067 	 -125.861
| 24> C 	 44.0444 	 -23.4451 	 -124.749
| 25> C 	 43.7314 	 -22.5645 	 -123.786
| 26> C 	 42.4209 	 -22.0814 	 -123.914
| 27> C 	 41.764 	 -22.635 	 -125.01
| 28> H 	 44.4426 	 -22.18 	 -123.085
| 29> C 	 41.7598 	 -21.1214 	 -122.881
| 30> H 	 40.8235 	 -20.9695 	 -123.305
| 31> H 	 42.2711 	 -20.1928 	 -123.057
| 32> C 	 41.7649 	 -21.6936 	 -121.419
| 33> H 	 42.782 	 -21.8324 	 -121.139
| 34> H 	 41.1856 	 -22.6572 	 -121.512
| 35> C 	 41.1781 	 -20.6811 	 -120.456
| 36> H 	 40.0794 	 -20.5217 	 -120.697
| 37> H 	 41.8511 	 -19.782 	 -120.393
| 38> H 	 41.2094 	 -21.0252 	 -119.417
| 39> H 	 37.1732 	 -22.6601 	 -126.907
| 40> H 	 45.0319 	 -23.8897 	 -124.908
| 41> *
| 42>
| 43>                          ****END OF INPUT****

CARTESIAN COORDINATES (ANGSTROEM)
---------------------------------
  S     39.286300  -23.697200  -125.952000
  C     38.132400  -22.477500  -126.482000
  C     38.590800  -21.136900  -126.419000
  C     39.911500  -21.146900  -125.847000
  C     40.408600  -22.366100  -125.532000
  H     40.456900  -20.223200  -125.730000
  C     37.823600  -19.831000  -126.828000
  H     36.738900  -19.975700  -126.428000
  H     37.750200  -19.954700  -127.905000
  C     38.327400  -18.430200  -126.465000
  H     39.221600  -18.226000  -127.010000
  H     37.597400  -17.711200  -126.879000
  C     38.509600  -18.184800  -124.915000
  H     37.745400  -18.648300  -124.343000
  H     39.390500  -18.654400  -124.578000
  H     38.457300  -17.136700  -124.739000
  S     42.679700  -23.806700  -125.861000
  C     44.044400  -23.445100  -124.749000
  C     43.731400  -22.564500  -123.786000
  C     42.420900  -22.081400  -123.914000
  C     41.764000  -22.635000  -125.010000
  H     44.442600  -22.180000  -123.085000
  C     41.759800  -21.121400  -122.881000
  H     40.823500  -20.969500  -123.305000
  H     42.271100  -20.192800  -123.057000
  C     41.764900  -21.693600  -121.419000
  H     42.782000  -21.832400  -121.139000
  H     41.185600  -22.657200  -121.512000
  C     41.178100  -20.681100  -120.456000
  H     40.079400  -20.521700  -120.697000
  H     41.851100  -19.782000  -120.393000
  H     41.209400  -21.025200  -119.417000
  H     37.173200  -22.660100  -126.907000
  H     45.031900  -23.889700  -124.908000

 Total Charge           Charge          ....    0
 Multiplicity           Mult            ....    1
 Number of Electrons    NEL             ....  134
 Basis Dimension        Dim             ....  322

ORBITAL ENERGIES
----------------

  NO   OCC          E(Eh)            E(eV)
   0   2.0000     -88.970198     -2421.0022
   1   2.0000     -88.963484     -2420.8195
   2   2.0000     -10.327518      -281.0261
   3   2.0000     -10.320687      -280.8402
   4   2.0000     -10.314671      -280.6765
   5   2.0000     -10.313705      -280.6502
   6   2.0000     -10.307080      -280.4699
   7   2.0000     -10.306060      -280.4421
   8   2.0000     -10.296107      -280.1713
   9   2.0000     -10.295117      -280.1444
  10   2.0000     -10.290440      -280.0171
  11   2.0000     -10.289970      -280.0043
  12   2.0000     -10.286383      -279.9067
  13   2.0000     -10.285417      -279.8804
  14   2.0000     -10.283811      -279.8367
  15   2.0000     -10.274435      -279.5816
  16   2.0000      -8.083780      -219.9708
  17   2.0000      -8.078483      -219.8267
  18   2.0000      -6.042363      -164.4211
  19   2.0000      -6.038663      -164.3204
  20   2.0000      -6.036898      -164.2723
  21   2.0000      -6.034325      -164.2023
  22   2.0000      -6.033102      -164.1691
  23   2.0000      -6.029175      -164.0622
  24   2.0000      -1.004551       -27.3352
  25   2.0000      -0.978578       -26.6285
  26   2.0000      -0.905739       -24.6464
  27   2.0000      -0.903418       -24.5832
  28   2.0000      -0.868446       -23.6316
  29   2.0000      -0.850716       -23.1492
  30   2.0000      -0.843047       -22.9405
  31   2.0000      -0.815925       -22.2025
  32   2.0000      -0.785231       -21.3672
  33   2.0000      -0.766905       -20.8686
  34   2.0000      -0.707881       -19.2624
  35   2.0000      -0.698182       -18.9985
  36   2.0000      -0.693381       -18.8679
  37   2.0000      -0.659387       -17.9428
  38   2.0000      -0.633529       -17.2392
  39   2.0000      -0.623142       -16.9565
  40   2.0000      -0.591259       -16.0890
  41   2.0000      -0.570765       -15.5313
  42   2.0000      -0.561300       -15.2738
  43   2.0000      -0.549422       -14.9505
  44   2.0000      -0.543048       -14.7771
  45   2.0000      -0.521416       -14.1885
  46   2.0000      -0.513878       -13.9833
  47   2.0000      -0.511379       -13.9153
  48   2.0000      -0.494515       -13.4564
  49   2.0000      -0.493725       -13.4350
  50   2.0000      -0.485775       -13.2186
  51   2.0000      -0.481628       -13.1058
  52   2.0000      -0.466991       -12.7075
  53   2.0000      -0.463298       -12.6070
  54   2.0000      -0.458458       -12.4753
  55   2.0000      -0.452917       -12.3245
  56   2.0000      -0.447319       -12.1722
  57   2.0000      -0.436374       -11.8743
  58   2.0000      -0.434606       -11.8262
  59   2.0000      -0.431186       -11.7332
  60   2.0000      -0.422758       -11.5038
  61   2.0000      -0.416969       -11.3463
  62   2.0000      -0.414708       -11.2848
  63   2.0000      -0.350896        -9.5484
  64   2.0000      -0.333847        -9.0844
  65   2.0000      -0.325639        -8.8611
  66   2.0000      -0.286697        -7.8014
  67   0.0000       0.035129         0.9559
  68   0.0000       0.069202         1.8831
  69   0.0000       0.102594         2.7917
  70   0.0000       0.123844         3.3700
  71   0.0000       0.134385         3.6568

MULLIKEN ATOMIC CHARGES
-----------------------
   0 S :    0.116659
   1 C :   -0.113894
   2 C :   -0.102161
   3 C :    0.017831
   4 C :   -0.141089
   5 H :    0.011267
   6 C :    0.012533
   7 H :    0.048745
   8 H :    0.045544
   9 C :   -0.070097
  10 H :    0.029412
  11 H :    0.036661
  12 C :   -0.006603
  13 H :    0.021979
  14 H :    0.018713
  15 H :    0.033749
  16 S :    0.099764
  17 C :   -0.099292
  18 C :   -0.010703
  19 C :   -0.082319
  20 C :   -0.165918
  21 H :    0.013028
  22 C :    0.125482
  23 H :   -0.005363
  24 H :    0.018673
  25 C :   -0.070834
  26 H :    0.022954
  27 H :    0.054777
  28 C :   -0.061261
  29 H :    0.048878
  30 H :    0.037344
  31 H :    0.031438
  32 H :    0.028051
  33 H :    0.056050
Sum of atomic charges:    0.0000000

LOEWDIN ATOMIC CHARGES
----------------------
   0 S :    0.384455
   1 C :   -0.196721
   2 C :   -0.057752
   3 C :   -0.067567
   4 C :   -0.182253
   5 H :    0.029164
   6 C :   -0.041118
   7 H :    0.042121
   8 H :    0.035232
   9 C :   -0.040816
  10 H :    0.020592
  11 H :    0.033795
  12 C :   -0.052460
  13 H :    0.024223
  14 H :    0.017464
  15 H :    0.025572
  16 S :    0.395413
  17 C :   -0.166209
  18 C :   -0.068823
  19 C :   -0.058677
  20 C :   -0.209489
  21 H :    0.032304
  22 C :   -0.023423
  23 H :    0.016112
  24 H :    0.026320
  25 C :   -0.035805
  26 H :    0.018117
  27 H :    0.038204
  28 C :   -0.075736
  29 H :    0.034489
  30 H :    0.032326
  31 H :    0.024304
  32 H :    0.018323
  33 H :    0.028319

  Mayer bond orders larger than 0.100000
B(  0-S ,  1-C ) :   1.1318 B(  0-S ,  4-C ) :   1.1252 B(  1-C ,  2-C ) :   1.6399
B(  1-C , 32-H ) :   0.9676 B(  2-C ,  3-C ) :   1.2435 B(  2-C ,  6-C ) :   0.9808
B(  3-C ,  4-C ) :   1.6026 B(  3-C ,  5-H ) :   0.9866 B(  4-C , 20-C ) :   1.0148
B(  6-C ,  7-H ) :   0.9454 B(  6-C ,  8-H ) :   0.9385 B(  6-C ,  9-C ) :   1.0920
B(  9-C , 10-H ) :   0.9505 B(  9-C , 11-H ) :   0.9514 B(  9-C , 12-C ) :   1.0650
B( 12-C , 13-H ) :   0.9765 B( 12-C , 14-H ) :   0.9768 B( 12-C , 15-H ) :   0.9758
B( 16-S , 17-C ) :   1.1319 B( 16-S , 20-C ) :   1.1527 B( 17-C , 18-C ) :   1.6271
B( 17-C , 33-H ) :   0.9663 B( 18-C , 19-C ) :   1.2365 B( 18-C , 21-H ) :   0.9929
B( 19-C , 20-C ) :   1.6109 B( 19-C , 22-C ) :   1.0198 B( 22-C , 23-H ) :   0.9257
B( 22-C , 24-H ) :   0.9286 B( 22-C , 25-C ) :   1.0539 B( 25-C , 26-H ) :   0.9546
B( 25-C , 27-H ) :   0.9551 B( 25-C , 28-C ) :   1.0948 B( 28-C , 29-H ) :   0.9731
B( 28-C , 30-H ) :   0.9703 B( 28-C , 31-H ) :   0.9730

Dispersion correction           -0.014525267
FINAL SINGLE POINT ENERGY     -1339.870322434949

DIPOLE MOMENT
-------------
                                X             Y             Z
Electronic contribution:      7.34627     -24.59480     -15.09364
Nuclear contribution   :     -7.38417      25.31727      15.32299
                        -----------------------------------------
Total Dipole Moment    :     -0.03790       0.72247       0.22935
                        -----------------------------------------
Magnitude (a.u.)       :      0.75894
Magnitude (Debye)      :      1.92908

Rotational constants in cm-1:     0.015591     0.009967     0.007208
Rotational constants in MHz :   467.400096   298.790071   216.077256

                             ****ORCA TERMINATED NORMALLY****
TOTAL RUN TIME: 0 days 0 hours 0 minutes 22 seconds 9 msec
