                         Program Version 4.2.1 -  RELEASE  -
|  1> ! wB97X-D3 SP def2-SVP
|  2> %pal
|  3> nprocs 24
|  4> end
|  5>
|  6> * xyz 0 1
|  7> S 	 -143.189 	 7.50152 	 -0.972822
|  8> C 	 -142.625 	 8.70695 	 0.111036
|  9> C 	 -141.288 	 8.605 	 0.2592
| 10> C 	 -140.777 	 7.3902 	 -0.336766
| 11> C 	 -141.71 	 6.6529 	 -0.99157
| 12> H 	 -139.806 	 7.02917 	 -0.186147
| 13> C 	 -140.45 	 9.60095 	 1.09259
| 14> H 	 -140.399 	 10.5351 	 0.534502
| 15> H 	 -139.421 	 9.33892 	 1.04497
| 16> C 	 -140.89 	 9.84386 	 2.49471
| 17> H 	 -142.005 	 10.0109 	 2.35075
| 18> H 	 -140.811 	 8.9069 	 2.98221
| 19> C 	 -140.207 	 10.9216 	 3.37493
| 20> H 	 -140.614 	 10.9223 	 4.36299
| 21> H 	 -139.187 	 10.7193 	 3.48761
| 22> H 	 -140.47 	 11.8816 	 2.83627
| 23> S 	 -141.717 	 3.9314 	 -0.420703
| 24> C 	 -141.579 	 2.80653 	 -1.84142
| 25> C 	 -141.49 	 3.49553 	 -3.0283
| 26> C 	 -141.414 	 4.91439 	 -2.88101
| 27> C 	 -141.572 	 5.30911 	 -1.49043
| 28> H 	 -141.545 	 2.83251 	 -3.94705
| 29> C 	 -141.271 	 5.83345 	 -4.06637
| 30> H 	 -140.374 	 5.31067 	 -4.56161
| 31> H 	 -140.94 	 6.80091 	 -3.72141
| 32> C 	 -142.486 	 5.87301 	 -5.05315
| 33> H 	 -142.688 	 4.82388 	 -5.45582
| 34> H 	 -142.124 	 6.38933 	 -5.94325
| 35> C 	 -143.738 	 6.5676 	 -4.55212
| 36> H 	 -144.219 	 5.98951 	 -3.651
| 37> H 	 -144.52 	 6.73446 	 -5.34867
| 38> H 	 -143.571 	 7.4916 	 -4.05872
| 39> H 	 -143.18 	 9.48408 	 0.52865
| 40> H 	 -141.613 	 1.68909 	 -1.85851
| 41> *
| 42>
| 43>                          ****END OF INPUT****

CARTESIAN COORDINATES (ANGSTROEM)
---------------------------------
  S    -143.189000    7.501520   -0.972822
  C    -142.625000    8.706950    0.111036
  C    -141.288000    8.605000    0.259200
  C    -140.777000    7.390200   -0.336766
  C    -141.710000    6.652900   -0.991570
  H    -139.806000    7.029170   -0.186147
  C    -140.450000    9.600950    1.092590
  H    -140.399000   10.535100    0.534502
  H    -139.421000    9.338920    1.044970
  C    -140.890000    9.843860    2.494710
  H    -142.005000   10.010900    2.350750
  H    -140.811000    8.906900    2.982210
  C    -140.207000   10.921600    3.374930
  H    -140.614000   10.922300    4.362990
  H    -139.187000   10.719300    3.487610
  H    -140.470000   11.881600    2.836270
  S    -141.717000    3.931400   -0.420703
  C    -141.579000    2.806530   -1.841420
  C    -141.490000    3.495530   -3.028300
  C    -141.414000    4.914390   -2.881010
  C    -141.572000    5.309110   -1.490430
  H    -141.545000    2.832510   -3.947050
  C    -141.271000    5.833450   -4.066370
  H    -140.374000    5.310670   -4.561610
  H    -140.940000    6.800910   -3.721410
  C    -142.486000    5.873010   -5.053150
  H    -142.688000    4.823880   -5.455820
  H    -142.124000    6.389330   -5.943250
  C    -143.738000    6.567600   -4.552120
  H    -144.219000    5.989510   -3.651000
  H    -144.520000    6.734460   -5.348670
  H    -143.571000    7.491600   -4.058720
  H    -143.180000    9.484080    0.528650
  H    -141.613000    1.689090   -1.858510

 Total Charge           Charge          ....    0
 Multiplicity           Mult            ....    1
 Number of Electrons    NEL             ....  134
 Basis Dimension        Dim             ....  322

ORBITAL ENERGIES
----------------

  NO   OCC          E(Eh)            E(eV)
   0   2.0000     -88.969611     -2420.9862
   1   2.0000     -88.962195     -2420.7844
   2   2.0000     -10.328825      -281.0616
   3   2.0000     -10.323712      -280.9225
   4   2.0000     -10.320203      -280.8270
   5   2.0000     -10.309235      -280.5286
   6   2.0000     -10.304950      -280.4119
   7   2.0000     -10.298729      -280.2427
   8   2.0000     -10.298379      -280.2331
   9   2.0000     -10.297545      -280.2105
  10   2.0000     -10.294778      -280.1351
  11   2.0000     -10.288302      -279.9589
  12   2.0000     -10.286268      -279.9036
  13   2.0000     -10.284793      -279.8635
  14   2.0000     -10.281620      -279.7771
  15   2.0000     -10.281077      -279.7623
  16   2.0000      -8.082821      -219.9447
  17   2.0000      -8.078297      -219.8216
  18   2.0000      -6.041473      -164.3968
  19   2.0000      -6.037554      -164.2902
  20   2.0000      -6.036721      -164.2675
  21   2.0000      -6.033506      -164.1800
  22   2.0000      -6.032551      -164.1541
  23   2.0000      -6.029085      -164.0597
  24   2.0000      -1.013162       -27.5695
  25   2.0000      -0.978944       -26.6384
  26   2.0000      -0.915306       -24.9067
  27   2.0000      -0.901347       -24.5269
  28   2.0000      -0.873278       -23.7631
  29   2.0000      -0.847764       -23.0688
  30   2.0000      -0.843231       -22.9455
  31   2.0000      -0.818000       -22.2589
  32   2.0000      -0.789044       -21.4710
  33   2.0000      -0.766324       -20.8527
  34   2.0000      -0.710431       -19.3318
  35   2.0000      -0.701231       -19.0815
  36   2.0000      -0.690847       -18.7989
  37   2.0000      -0.652424       -17.7534
  38   2.0000      -0.643945       -17.5226
  39   2.0000      -0.615716       -16.7545
  40   2.0000      -0.589711       -16.0469
  41   2.0000      -0.575766       -15.6674
  42   2.0000      -0.564722       -15.3669
  43   2.0000      -0.544585       -14.8189
  44   2.0000      -0.532427       -14.4881
  45   2.0000      -0.522535       -14.2189
  46   2.0000      -0.517374       -14.0785
  47   2.0000      -0.513765       -13.9803
  48   2.0000      -0.509903       -13.8752
  49   2.0000      -0.501908       -13.6576
  50   2.0000      -0.489841       -13.3293
  51   2.0000      -0.480116       -13.0646
  52   2.0000      -0.474389       -12.9088
  53   2.0000      -0.461613       -12.5611
  54   2.0000      -0.457482       -12.4487
  55   2.0000      -0.452131       -12.3031
  56   2.0000      -0.441866       -12.0238
  57   2.0000      -0.435623       -11.8539
  58   2.0000      -0.431231       -11.7344
  59   2.0000      -0.424596       -11.5539
  60   2.0000      -0.415459       -11.3052
  61   2.0000      -0.411770       -11.2048
  62   2.0000      -0.404674       -11.0117
  63   2.0000      -0.338057        -9.1990
  64   2.0000      -0.330396        -8.9905
  65   2.0000      -0.322609        -8.7786
  66   2.0000      -0.303403        -8.2560
  67   0.0000       0.044273         1.2047
  68   0.0000       0.052143         1.4189
  69   0.0000       0.110964         3.0195
  70   0.0000       0.113348         3.0844
  71   0.0000       0.129734         3.5302

MULLIKEN ATOMIC CHARGES
-----------------------
   0 S :    0.124511
   1 C :   -0.117362
   2 C :   -0.090841
   3 C :    0.054713
   4 C :   -0.172411
   5 H :   -0.012522
   6 C :    0.117370
   7 H :    0.018636
   8 H :   -0.007267
   9 C :   -0.116072
  10 H :    0.022474
  11 H :    0.020933
  12 C :   -0.007454
  13 H :    0.035016
  14 H :    0.028536
  15 H :    0.041466
  16 S :    0.121929
  17 C :   -0.121290
  18 C :   -0.057123
  19 C :   -0.030629
  20 C :   -0.166511
  21 H :    0.046411
  22 C :    0.043976
  23 H :    0.045219
  24 H :    0.029098
  25 C :   -0.055204
  26 H :    0.033821
  27 H :    0.029685
  28 C :   -0.072243
  29 H :    0.043629
  30 H :    0.049178
  31 H :    0.021585
  32 H :    0.029945
  33 H :    0.068801
Sum of atomic charges:    0.0000000

LOEWDIN ATOMIC CHARGES
----------------------
   0 S :    0.443548
   1 C :   -0.193277
   2 C :   -0.060295
   3 C :   -0.050996
   4 C :   -0.218137
   5 H :    0.022407
   6 C :   -0.034702
   7 H :    0.029114
   8 H :    0.019443
   9 C :   -0.046691
  10 H :    0.026037
  11 H :    0.018250
  12 C :   -0.054820
  13 H :    0.027765
  14 H :    0.018980
  15 H :    0.035386
  16 S :    0.389188
  17 C :   -0.178983
  18 C :   -0.082218
  19 C :   -0.051634
  20 C :   -0.212879
  21 H :    0.046013
  22 C :   -0.035804
  23 H :    0.047272
  24 H :    0.027508
  25 C :   -0.044838
  26 H :    0.030037
  27 H :    0.024850
  28 C :   -0.080548
  29 H :    0.034457
  30 H :    0.034399
  31 H :    0.012787
  32 H :    0.017753
  33 H :    0.040626

  Mayer bond orders larger than 0.100000
B(  0-S ,  1-C ) :   1.1499 B(  0-S ,  4-C ) :   1.1568 B(  1-C ,  2-C ) :   1.6147
B(  1-C , 32-H ) :   0.9770 B(  2-C ,  3-C ) :   1.2350 B(  2-C ,  6-C ) :   1.0148
B(  3-C ,  4-C ) :   1.5852 B(  3-C ,  5-H ) :   1.0108 B(  4-C , 20-C ) :   1.0322
B(  6-C ,  7-H ) :   0.9297 B(  6-C ,  8-H ) :   0.9335 B(  6-C ,  9-C ) :   1.0622
B(  9-C , 10-H ) :   0.9565 B(  9-C , 11-H ) :   0.9544 B(  9-C , 12-C ) :   1.0787
B( 12-C , 13-H ) :   0.9729 B( 12-C , 14-H ) :   0.9748 B( 12-C , 15-H ) :   0.9759
B( 16-S , 17-C ) :   1.1325 B( 16-S , 20-C ) :   1.1453 B( 17-C , 18-C ) :   1.6549
B( 17-C , 20-C ) :   0.1038 B( 17-C , 33-H ) :   0.9577 B( 18-C , 19-C ) :   1.2328
B( 18-C , 21-H ) :   0.9718 B( 19-C , 20-C ) :   1.5570 B( 19-C , 22-C ) :   1.0402
B( 22-C , 23-H ) :   0.9338 B( 22-C , 24-H ) :   0.9327 B( 22-C , 25-C ) :   1.0682
B( 25-C , 26-H ) :   0.9533 B( 25-C , 27-H ) :   0.9528 B( 25-C , 28-C ) :   1.0673
B( 28-C , 29-H ) :   0.9715 B( 28-C , 30-H ) :   0.9718 B( 28-C , 31-H ) :   0.9707

Dispersion correction           -0.014781800
FINAL SINGLE POINT ENERGY     -1339.862180926733

DIPOLE MOMENT
-------------
                                X             Y             Z
Electronic contribution:     -3.85952     -16.07104       1.13508
Nuclear contribution   :      4.13909      16.27831      -1.24321
                        -----------------------------------------
Total Dipole Moment    :      0.27957       0.20727      -0.10813
                        -----------------------------------------
Magnitude (a.u.)       :      0.36443
Magnitude (Debye)      :      0.92631

Rotational constants in cm-1:     0.024282     0.007314     0.006283
Rotational constants in MHz :   727.947575   219.274395   188.354272

                             ****ORCA TERMINATED NORMALLY****
TOTAL RUN TIME: 0 days 0 hours 0 minutes 22 seconds 330 msec
