                         Program Version 4.2.1 -  RELEASE  -
|  1> ! wB97X-D3 SP def2-SVP
|  2> %pal
|  3> nprocs 24
|  4> end
|  5>
|  6> * xyz 0 1
|  7> S 	 -133.538 	 5.63695 	 -12.0781
|  8> C 	 -132.175 	 5.95971 	 -10.9491
|  9> C 	 -131.419 	 7.00887 	 -11.4123
| 10> C 	 -131.748 	 7.30649 	 -12.7487
| 11> C 	 -132.861 	 6.69899 	 -13.2851
| 12> H 	 -131.358 	 8.11054 	 -13.4337
| 13> C 	 -130.158 	 7.70956 	 -10.7796
| 14> H 	 -130.23 	 7.65245 	 -9.63022
| 15> H 	 -130.17 	 8.77828 	 -10.907
| 16> C 	 -128.782 	 7.2334 	 -11.1765
| 17> H 	 -128.019 	 7.79659 	 -10.6632
| 18> H 	 -128.611 	 6.26268 	 -10.869
| 19> C 	 -128.513 	 7.34179 	 -12.7195
| 20> H 	 -127.536 	 7.05918 	 -13.1092
| 21> H 	 -129.125 	 6.67024 	 -13.3214
| 22> H 	 -128.819 	 8.3007 	 -13.1753
| 23> S 	 -135.053 	 7.6851 	 -14.7731
| 24> C 	 -135.023 	 7.30931 	 -16.4986
| 25> C 	 -133.857 	 6.81031 	 -16.9568
| 26> C 	 -132.9 	 6.67662 	 -15.8594
| 27> C 	 -133.481 	 6.84845 	 -14.6199
| 28> H 	 -133.778 	 6.76042 	 -18.0007
| 29> C 	 -131.432 	 6.45137 	 -16.1489
| 30> H 	 -131.228 	 5.48184 	 -15.7455
| 31> H 	 -130.8 	 7.14109 	 -15.548
| 32> C 	 -131.013 	 6.4676 	 -17.6768
| 33> H 	 -131.205 	 7.56711 	 -17.9102
| 34> H 	 -131.635 	 5.77807 	 -18.2748
| 35> C 	 -129.586 	 5.94488 	 -17.8648
| 36> H 	 -128.925 	 6.57269 	 -17.2474
| 37> H 	 -129.245 	 6.04329 	 -18.9476
| 38> H 	 -129.459 	 4.94269 	 -17.5813
| 39> H 	 -131.901 	 5.50812 	 -10.0321
| 40> H 	 -135.873 	 7.58761 	 -17.1384
| 41> *
| 42>
| 43>                          ****END OF INPUT****

CARTESIAN COORDINATES (ANGSTROEM)
---------------------------------
  S    -133.538000    5.636950  -12.078100
  C    -132.175000    5.959710  -10.949100
  C    -131.419000    7.008870  -11.412300
  C    -131.748000    7.306490  -12.748700
  C    -132.861000    6.698990  -13.285100
  H    -131.358000    8.110540  -13.433700
  C    -130.158000    7.709560  -10.779600
  H    -130.230000    7.652450   -9.630220
  H    -130.170000    8.778280  -10.907000
  C    -128.782000    7.233400  -11.176500
  H    -128.019000    7.796590  -10.663200
  H    -128.611000    6.262680  -10.869000
  C    -128.513000    7.341790  -12.719500
  H    -127.536000    7.059180  -13.109200
  H    -129.125000    6.670240  -13.321400
  H    -128.819000    8.300700  -13.175300
  S    -135.053000    7.685100  -14.773100
  C    -135.023000    7.309310  -16.498600
  C    -133.857000    6.810310  -16.956800
  C    -132.900000    6.676620  -15.859400
  C    -133.481000    6.848450  -14.619900
  H    -133.778000    6.760420  -18.000700
  C    -131.432000    6.451370  -16.148900
  H    -131.228000    5.481840  -15.745500
  H    -130.800000    7.141090  -15.548000
  C    -131.013000    6.467600  -17.676800
  H    -131.205000    7.567110  -17.910200
  H    -131.635000    5.778070  -18.274800
  C    -129.586000    5.944880  -17.864800
  H    -128.925000    6.572690  -17.247400
  H    -129.245000    6.043290  -18.947600
  H    -129.459000    4.942690  -17.581300
  H    -131.901000    5.508120  -10.032100
  H    -135.873000    7.587610  -17.138400

 Total Charge           Charge          ....    0
 Multiplicity           Mult            ....    1
 Number of Electrons    NEL             ....  134
 Basis Dimension        Dim             ....  322

ORBITAL ENERGIES
----------------

  NO   OCC          E(Eh)            E(eV)
   0   2.0000     -88.966526     -2420.9022
   1   2.0000     -88.963373     -2420.8164
   2   2.0000     -10.327657      -281.0298
   3   2.0000     -10.327548      -281.0269
   4   2.0000     -10.317498      -280.7534
   5   2.0000     -10.317073      -280.7418
   6   2.0000     -10.309764      -280.5429
   7   2.0000     -10.305199      -280.4187
   8   2.0000     -10.303015      -280.3593
   9   2.0000     -10.300117      -280.2804
  10   2.0000     -10.294113      -280.1171
  11   2.0000     -10.292955      -280.0855
  12   2.0000     -10.290646      -280.0227
  13   2.0000     -10.285546      -279.8839
  14   2.0000     -10.284000      -279.8419
  15   2.0000     -10.279080      -279.7080
  16   2.0000      -8.080426      -219.8796
  17   2.0000      -8.077672      -219.8046
  18   2.0000      -6.039076      -164.3316
  19   2.0000      -6.036275      -164.2554
  20   2.0000      -6.035027      -164.2214
  21   2.0000      -6.032592      -164.1552
  22   2.0000      -6.031081      -164.1140
  23   2.0000      -6.028006      -164.0304
  24   2.0000      -1.002946       -27.2916
  25   2.0000      -0.982553       -26.7366
  26   2.0000      -0.909216       -24.7410
  27   2.0000      -0.905303       -24.6345
  28   2.0000      -0.869691       -23.6655
  29   2.0000      -0.848801       -23.0971
  30   2.0000      -0.838477       -22.8161
  31   2.0000      -0.816527       -22.2188
  32   2.0000      -0.787356       -21.4251
  33   2.0000      -0.772752       -21.0277
  34   2.0000      -0.710045       -19.3213
  35   2.0000      -0.704391       -19.1674
  36   2.0000      -0.697833       -18.9890
  37   2.0000      -0.648542       -17.6477
  38   2.0000      -0.642530       -17.4841
  39   2.0000      -0.611373       -16.6363
  40   2.0000      -0.595635       -16.2080
  41   2.0000      -0.577605       -15.7174
  42   2.0000      -0.572117       -15.5681
  43   2.0000      -0.550623       -14.9832
  44   2.0000      -0.540820       -14.7164
  45   2.0000      -0.519320       -14.1314
  46   2.0000      -0.516597       -14.0573
  47   2.0000      -0.503625       -13.7043
  48   2.0000      -0.502679       -13.6786
  49   2.0000      -0.495160       -13.4740
  50   2.0000      -0.492942       -13.4136
  51   2.0000      -0.473586       -12.8869
  52   2.0000      -0.472869       -12.8674
  53   2.0000      -0.462792       -12.5932
  54   2.0000      -0.457704       -12.4548
  55   2.0000      -0.453831       -12.3494
  56   2.0000      -0.446081       -12.1385
  57   2.0000      -0.436645       -11.8817
  58   2.0000      -0.428780       -11.6677
  59   2.0000      -0.425443       -11.5769
  60   2.0000      -0.420357       -11.4385
  61   2.0000      -0.416654       -11.3377
  62   2.0000      -0.413768       -11.2592
  63   2.0000      -0.340758        -9.2725
  64   2.0000      -0.334623        -9.1055
  65   2.0000      -0.325202        -8.8492
  66   2.0000      -0.297978        -8.1084
  67   0.0000       0.035491         0.9658
  68   0.0000       0.058097         1.5809
  69   0.0000       0.104395         2.8407
  70   0.0000       0.112875         3.0715
  71   0.0000       0.126791         3.4502

MULLIKEN ATOMIC CHARGES
-----------------------
   0 S :    0.113776
   1 C :   -0.102364
   2 C :   -0.061616
   3 C :    0.006913
   4 C :   -0.180927
   5 H :    0.031005
   6 C :    0.017961
   7 H :    0.031277
   8 H :    0.030334
   9 C :    0.015960
  10 H :    0.027503
  11 H :    0.007590
  12 C :   -0.081447
  13 H :    0.029885
  14 H :    0.026606
  15 H :    0.021349
  16 S :    0.097411
  17 C :   -0.095172
  18 C :   -0.010949
  19 C :   -0.034339
  20 C :   -0.154154
  21 H :    0.007360
  22 C :    0.051834
  23 H :    0.027664
  24 H :    0.033520
  25 C :   -0.118981
  26 H :    0.052363
  27 H :    0.045154
  28 C :   -0.028258
  29 H :    0.025991
  30 H :    0.045558
  31 H :    0.029887
  32 H :    0.029797
  33 H :    0.061508
Sum of atomic charges:   -0.0000000

LOEWDIN ATOMIC CHARGES
----------------------
   0 S :    0.395542
   1 C :   -0.173255
   2 C :   -0.064371
   3 C :   -0.074180
   4 C :   -0.199531
   5 H :    0.038133
   6 C :   -0.031953
   7 H :    0.037261
   8 H :    0.029683
   9 C :   -0.028772
  10 H :    0.027375
  11 H :    0.014686
  12 C :   -0.077321
  13 H :    0.025536
  14 H :    0.023706
  15 H :    0.022387
  16 S :    0.373511
  17 C :   -0.166260
  18 C :   -0.073643
  19 C :   -0.040307
  20 C :   -0.200104
  21 H :    0.028569
  22 C :   -0.037275
  23 H :    0.030719
  24 H :    0.032255
  25 C :   -0.044644
  26 H :    0.034514
  27 H :    0.025796
  28 C :   -0.063452
  29 H :    0.024916
  30 H :    0.035541
  31 H :    0.019256
  32 H :    0.024881
  33 H :    0.030803

  Mayer bond orders larger than 0.100000
B(  0-S ,  1-C ) :   1.1374 B(  0-S ,  4-C ) :   1.1390 B(  1-C ,  2-C ) :   1.6296
B(  1-C ,  4-C ) :   0.1051 B(  1-C , 32-H ) :   0.9708 B(  2-C ,  3-C ) :   1.2251
B(  2-C ,  6-C ) :   1.0131 B(  3-C ,  4-C ) :   1.6145 B(  3-C ,  5-H ) :   0.9759
B(  4-C , 20-C ) :   1.0235 B(  6-C ,  7-H ) :   0.9423 B(  6-C ,  8-H ) :   0.9456
B(  6-C ,  9-C ) :   1.0838 B(  9-C , 10-H ) :   0.9518 B(  9-C , 11-H ) :   0.9517
B(  9-C , 12-C ) :   1.0715 B( 12-C , 13-H ) :   0.9731 B( 12-C , 14-H ) :   0.9675
B( 12-C , 15-H ) :   0.9750 B( 16-S , 17-C ) :   1.1400 B( 16-S , 20-C ) :   1.1181
B( 17-C , 18-C ) :   1.6629 B( 17-C , 33-H ) :   0.9563 B( 18-C , 19-C ) :   1.1833
B( 18-C , 21-H ) :   0.9958 B( 19-C , 20-C ) :   1.6495 B( 19-C , 22-C ) :   1.0277
B( 22-C , 23-H ) :   0.9212 B( 22-C , 24-H ) :   0.9352 B( 22-C , 25-C ) :   1.0713
B( 25-C , 26-H ) :   0.9556 B( 25-C , 27-H ) :   0.9483 B( 25-C , 28-C ) :   1.0795
B( 28-C , 29-H ) :   0.9733 B( 28-C , 30-H ) :   0.9731 B( 28-C , 31-H ) :   0.9746

Dispersion correction           -0.014847595
FINAL SINGLE POINT ENERGY     -1339.852498785210

DIPOLE MOMENT
-------------
                                X             Y             Z
Electronic contribution:    -29.67508      -1.41175       8.30536
Nuclear contribution   :     30.39105       1.55347      -8.63185
                        -----------------------------------------
Total Dipole Moment    :      0.71596       0.14172      -0.32649
                        -----------------------------------------
Magnitude (a.u.)       :      0.79955
Magnitude (Debye)      :      2.03230

Rotational constants in cm-1:     0.015908     0.010038     0.006804
Rotational constants in MHz :   476.907307   300.934277   203.992048

                             ****ORCA TERMINATED NORMALLY****
TOTAL RUN TIME: 0 days 0 hours 0 minutes 22 seconds 75 msec
