                         Program Version 4.2.1 -  RELEASE  -
|  1> ! wB97X-D3 SP def2-SVP
|  2> %pal
|  3> nprocs 24
|  4> end
|  5>
|  6> * xyz 0 1
|  7> S 	 -54.4087 	 5.5264 	 -19.5394
|  8> C 	 -53.0971 	 4.54012 	 -18.7308
|  9> C 	 -52.1107 	 5.36295 	 -18.1613
| 10> C 	 -52.35 	 6.7737 	 -18.4697
| 11> C 	 -53.5425 	 7.05019 	 -19.121
| 12> H 	 -51.6186 	 7.62043 	 -18.2221
| 13> C 	 -50.9018 	 4.86791 	 -17.3783
| 14> H 	 -51.1392 	 3.84532 	 -16.9626
| 15> H 	 -50.6034 	 5.55118 	 -16.6502
| 16> C 	 -49.6743 	 4.56359 	 -18.2568
| 17> H 	 -50.073 	 4.07196 	 -19.1569
| 18> H 	 -49.2077 	 5.45883 	 -18.6311
| 19> C 	 -48.5807 	 3.68403 	 -17.5459
| 20> H 	 -48.4962 	 4.10184 	 -16.5219
| 21> H 	 -48.8685 	 2.63627 	 -17.5084
| 22> H 	 -47.6728 	 3.80584 	 -18.137
| 23> S 	 -53.8563 	 8.33125 	 -21.5675
| 24> C 	 -54.3532 	 9.99972 	 -21.6076
| 25> C 	 -54.3935 	 10.5501 	 -20.3198
| 26> C 	 -53.861 	 9.66307 	 -19.3681
| 27> C 	 -53.8226 	 8.33092 	 -19.8086
| 28> H 	 -54.6584 	 11.5747 	 -20.1613
| 29> C 	 -53.6445 	 10.1092 	 -17.8971
| 30> H 	 -52.9108 	 9.42451 	 -17.4015
| 31> H 	 -54.6451 	 9.79218 	 -17.453
| 32> C 	 -53.4037 	 11.517 	 -17.4861
| 33> H 	 -54.3277 	 12.0422 	 -17.711
| 34> H 	 -52.6331 	 11.9156 	 -18.1696
| 35> C 	 -53.1038 	 11.6676 	 -16.0227
| 36> H 	 -53.6783 	 10.9144 	 -15.4569
| 37> H 	 -53.3821 	 12.6228 	 -15.6927
| 38> H 	 -52.1125 	 11.6107 	 -15.765
| 39> H 	 -53.0946 	 3.49706 	 -18.6019
| 40> H 	 -54.8806 	 10.4948 	 -22.4298
| 41> *
| 42>
| 43>                          ****END OF INPUT****

CARTESIAN COORDINATES (ANGSTROEM)
---------------------------------
  S    -54.408700    5.526400  -19.539400
  C    -53.097100    4.540120  -18.730800
  C    -52.110700    5.362950  -18.161300
  C    -52.350000    6.773700  -18.469700
  C    -53.542500    7.050190  -19.121000
  H    -51.618600    7.620430  -18.222100
  C    -50.901800    4.867910  -17.378300
  H    -51.139200    3.845320  -16.962600
  H    -50.603400    5.551180  -16.650200
  C    -49.674300    4.563590  -18.256800
  H    -50.073000    4.071960  -19.156900
  H    -49.207700    5.458830  -18.631100
  C    -48.580700    3.684030  -17.545900
  H    -48.496200    4.101840  -16.521900
  H    -48.868500    2.636270  -17.508400
  H    -47.672800    3.805840  -18.137000
  S    -53.856300    8.331250  -21.567500
  C    -54.353200    9.999720  -21.607600
  C    -54.393500   10.550100  -20.319800
  C    -53.861000    9.663070  -19.368100
  C    -53.822600    8.330920  -19.808600
  H    -54.658400   11.574700  -20.161300
  C    -53.644500   10.109200  -17.897100
  H    -52.910800    9.424510  -17.401500
  H    -54.645100    9.792180  -17.453000
  C    -53.403700   11.517000  -17.486100
  H    -54.327700   12.042200  -17.711000
  H    -52.633100   11.915600  -18.169600
  C    -53.103800   11.667600  -16.022700
  H    -53.678300   10.914400  -15.456900
  H    -53.382100   12.622800  -15.692700
  H    -52.112500   11.610700  -15.765000
  H    -53.094600    3.497060  -18.601900
  H    -54.880600   10.494800  -22.429800

 Total Charge           Charge          ....    0
 Multiplicity           Mult            ....    1
 Number of Electrons    NEL             ....  134
 Basis Dimension        Dim             ....  322

ORBITAL ENERGIES
----------------

  NO   OCC          E(Eh)            E(eV)
   0   2.0000     -88.970853     -2421.0200
   1   2.0000     -88.964707     -2420.8528
   2   2.0000     -10.337131      -281.2876
   3   2.0000     -10.327768      -281.0328
   4   2.0000     -10.323855      -280.9264
   5   2.0000     -10.314749      -280.6786
   6   2.0000     -10.311923      -280.6017
   7   2.0000     -10.307378      -280.4780
   8   2.0000     -10.305424      -280.4248
   9   2.0000     -10.295709      -280.1605
  10   2.0000     -10.293720      -280.1064
  11   2.0000     -10.290993      -280.0322
  12   2.0000     -10.285908      -279.8938
  13   2.0000     -10.285086      -279.8714
  14   2.0000     -10.284317      -279.8505
  15   2.0000     -10.269631      -279.4509
  16   2.0000      -8.083267      -219.9569
  17   2.0000      -8.079197      -219.8461
  18   2.0000      -6.042112      -164.4142
  19   2.0000      -6.038156      -164.3066
  20   2.0000      -6.037724      -164.2948
  21   2.0000      -6.033740      -164.1864
  22   2.0000      -6.033729      -164.1861
  23   2.0000      -6.029950      -164.0833
  24   2.0000      -0.999076       -27.1863
  25   2.0000      -0.973143       -26.4806
  26   2.0000      -0.916081       -24.9278
  27   2.0000      -0.909423       -24.7466
  28   2.0000      -0.863315       -23.4920
  29   2.0000      -0.853470       -23.2241
  30   2.0000      -0.839657       -22.8482
  31   2.0000      -0.810482       -22.0543
  32   2.0000      -0.783453       -21.3188
  33   2.0000      -0.773757       -21.0550
  34   2.0000      -0.705175       -19.1888
  35   2.0000      -0.698092       -18.9961
  36   2.0000      -0.695291       -18.9198
  37   2.0000      -0.651435       -17.7265
  38   2.0000      -0.640024       -17.4159
  39   2.0000      -0.613586       -16.6965
  40   2.0000      -0.594358       -16.1733
  41   2.0000      -0.576516       -15.6878
  42   2.0000      -0.573719       -15.6117
  43   2.0000      -0.561486       -15.2788
  44   2.0000      -0.526562       -14.3285
  45   2.0000      -0.521928       -14.2024
  46   2.0000      -0.514399       -13.9975
  47   2.0000      -0.510138       -13.8816
  48   2.0000      -0.503969       -13.7137
  49   2.0000      -0.497943       -13.5497
  50   2.0000      -0.492301       -13.3962
  51   2.0000      -0.486545       -13.2396
  52   2.0000      -0.468220       -12.7409
  53   2.0000      -0.463864       -12.6224
  54   2.0000      -0.461304       -12.5527
  55   2.0000      -0.450052       -12.2465
  56   2.0000      -0.440892       -11.9973
  57   2.0000      -0.433699       -11.8016
  58   2.0000      -0.427469       -11.6320
  59   2.0000      -0.425844       -11.5878
  60   2.0000      -0.421080       -11.4582
  61   2.0000      -0.419308       -11.4100
  62   2.0000      -0.416119       -11.3232
  63   2.0000      -0.343442        -9.3455
  64   2.0000      -0.327111        -8.9011
  65   2.0000      -0.325863        -8.8672
  66   2.0000      -0.290099        -7.8940
  67   0.0000       0.021488         0.5847
  68   0.0000       0.062389         1.6977
  69   0.0000       0.103028         2.8035
  70   0.0000       0.112456         3.0601
  71   0.0000       0.127470         3.4686

MULLIKEN ATOMIC CHARGES
-----------------------
   0 S :    0.095565
   1 C :   -0.102278
   2 C :   -0.092397
   3 C :    0.008555
   4 C :   -0.144068
   5 H :    0.055049
   6 C :    0.075115
   7 H :    0.028792
   8 H :    0.018399
   9 C :   -0.098719
  10 H :    0.026549
  11 H :    0.022052
  12 C :   -0.051763
  13 H :    0.037753
  14 H :    0.041935
  15 H :    0.044982
  16 S :    0.115535
  17 C :   -0.097608
  18 C :   -0.047451
  19 C :   -0.029686
  20 C :   -0.155160
  21 H :    0.020879
  22 C :   -0.016211
  23 H :    0.020892
  24 H :    0.047738
  25 C :   -0.068243
  26 H :    0.025918
  27 H :    0.034147
  28 C :    0.026642
  29 H :    0.029140
  30 H :    0.011801
  31 H :    0.014965
  32 H :    0.035095
  33 H :    0.066087
Sum of atomic charges:    0.0000000

LOEWDIN ATOMIC CHARGES
----------------------
   0 S :    0.358005
   1 C :   -0.163994
   2 C :   -0.055393
   3 C :   -0.060262
   4 C :   -0.186361
   5 H :    0.044794
   6 C :   -0.029728
   7 H :    0.038134
   8 H :    0.020734
   9 C :   -0.041372
  10 H :    0.022749
  11 H :    0.017060
  12 C :   -0.064338
  13 H :    0.028669
  14 H :    0.024712
  15 H :    0.030358
  16 S :    0.413974
  17 C :   -0.199126
  18 C :   -0.072391
  19 C :   -0.054893
  20 C :   -0.202187
  21 H :    0.029286
  22 C :   -0.046704
  23 H :    0.026444
  24 H :    0.043477
  25 C :   -0.048233
  26 H :    0.023573
  27 H :    0.027031
  28 C :   -0.048739
  29 H :    0.032578
  30 H :    0.023090
  31 H :    0.016551
  32 H :    0.018842
  33 H :    0.033663

  Mayer bond orders larger than 0.100000
B(  0-S ,  1-C ) :   1.1167 B(  0-S ,  4-C ) :   1.1232 B(  1-C ,  2-C ) :   1.6332
B(  1-C , 32-H ) :   0.9701 B(  2-C ,  3-C ) :   1.2156 B(  2-C ,  6-C ) :   1.0413
B(  3-C ,  4-C ) :   1.6094 B(  3-C ,  5-H ) :   0.9662 B(  4-C , 20-C ) :   1.0317
B(  6-C ,  7-H ) :   0.9429 B(  6-C ,  8-H ) :   0.9365 B(  6-C ,  9-C ) :   1.0580
B(  9-C , 10-H ) :   0.9577 B(  9-C , 11-H ) :   0.9583 B(  9-C , 12-C ) :   1.0711
B( 12-C , 13-H ) :   0.9754 B( 12-C , 14-H ) :   0.9772 B( 12-C , 15-H ) :   0.9763
B( 16-S , 17-C ) :   1.1690 B( 16-S , 20-C ) :   1.1503 B( 17-C , 18-C ) :   1.5902
B( 17-C , 20-C ) :   0.1106 B( 17-C , 33-H ) :   0.9593 B( 18-C , 19-C ) :   1.2681
B( 18-C , 21-H ) :   0.9875 B( 19-C , 20-C ) :   1.5674 B( 19-C , 22-C ) :   1.0288
B( 22-C , 23-H ) :   0.9435 B( 22-C , 24-H ) :   0.9261 B( 22-C , 25-C ) :   1.0782
B( 25-C , 26-H ) :   0.9408 B( 25-C , 27-H ) :   0.9569 B( 25-C , 28-C ) :   1.0877
B( 28-C , 29-H ) :   0.9710 B( 28-C , 30-H ) :   0.9684 B( 28-C , 31-H ) :   0.9706

Dispersion correction           -0.013223539
FINAL SINGLE POINT ENERGY     -1339.854159689464

DIPOLE MOMENT
-------------
                                X             Y             Z
Electronic contribution:    -17.73269      -4.50728     -20.16718
Nuclear contribution   :     18.18650       4.72953      20.67978
                        -----------------------------------------
Total Dipole Moment    :      0.45381       0.22225       0.51261
                        -----------------------------------------
Magnitude (a.u.)       :      0.71980
Magnitude (Debye)      :      1.82957

Rotational constants in cm-1:     0.016995     0.007665     0.006082
Rotational constants in MHz :   509.511959   229.780586   182.336408

                             ****ORCA TERMINATED NORMALLY****
TOTAL RUN TIME: 0 days 0 hours 0 minutes 20 seconds 803 msec
