                         Program Version 4.2.1 -  RELEASE  -
|  1> ! wB97X-D3 SP def2-SVP
|  2> %pal
|  3> nprocs 24
|  4> end
|  5>
|  6> * xyz 0 1
|  7> S 	 -50.2144 	 -43.9225 	 -75.5242
|  8> C 	 -51.6823 	 -44.1644 	 -76.5335
|  9> C 	 -51.5648 	 -45.2213 	 -77.4155
| 10> C 	 -50.2703 	 -45.8397 	 -77.2794
| 11> C 	 -49.4337 	 -45.1153 	 -76.4989
| 12> H 	 -49.8526 	 -46.6339 	 -77.7446
| 13> C 	 -52.6059 	 -45.8104 	 -78.3672
| 14> H 	 -53.5415 	 -45.3851 	 -78.2555
| 15> H 	 -52.7999 	 -46.723 	 -77.9642
| 16> C 	 -52.1419 	 -45.9834 	 -79.85
| 17> H 	 -52.2819 	 -44.9885 	 -80.2698
| 18> H 	 -51.0347 	 -46.2225 	 -79.8989
| 19> C 	 -52.9421 	 -46.996 	 -80.659
| 20> H 	 -54.0274 	 -47.1096 	 -80.5217
| 21> H 	 -52.8113 	 -46.797 	 -81.7688
| 22> H 	 -52.5091 	 -47.9921 	 -80.4274
| 23> S 	 -47.6258 	 -46.1393 	 -74.6312
| 24> C 	 -46.0756 	 -46.5427 	 -75.206
| 25> C 	 -45.8041 	 -46.1608 	 -76.5312
| 26> C 	 -46.924 	 -45.613 	 -77.2013
| 27> C 	 -48.0185 	 -45.5508 	 -76.3248
| 28> H 	 -44.8478 	 -46.2851 	 -77.0649
| 29> C 	 -46.8755 	 -45.2628 	 -78.6498
| 30> H 	 -45.9747 	 -44.6473 	 -78.9393
| 31> H 	 -47.685 	 -44.5294 	 -78.8036
| 32> C 	 -46.9498 	 -46.4352 	 -79.5892
| 33> H 	 -47.9685 	 -46.8904 	 -79.3671
| 34> H 	 -46.2582 	 -47.2142 	 -79.2548
| 35> C 	 -46.9171 	 -46.0702 	 -81.1349
| 36> H 	 -47.7528 	 -45.4233 	 -81.4642
| 37> H 	 -47.0415 	 -46.9228 	 -81.7681
| 38> H 	 -45.9376 	 -45.6896 	 -81.4852
| 39> H 	 -52.5928 	 -43.7071 	 -76.4493
| 40> H 	 -45.3929 	 -47.0247 	 -74.5146
| 41> *
| 42>
| 43>                          ****END OF INPUT****

CARTESIAN COORDINATES (ANGSTROEM)
---------------------------------
  S    -50.214400  -43.922500  -75.524200
  C    -51.682300  -44.164400  -76.533500
  C    -51.564800  -45.221300  -77.415500
  C    -50.270300  -45.839700  -77.279400
  C    -49.433700  -45.115300  -76.498900
  H    -49.852600  -46.633900  -77.744600
  C    -52.605900  -45.810400  -78.367200
  H    -53.541500  -45.385100  -78.255500
  H    -52.799900  -46.723000  -77.964200
  C    -52.141900  -45.983400  -79.850000
  H    -52.281900  -44.988500  -80.269800
  H    -51.034700  -46.222500  -79.898900
  C    -52.942100  -46.996000  -80.659000
  H    -54.027400  -47.109600  -80.521700
  H    -52.811300  -46.797000  -81.768800
  H    -52.509100  -47.992100  -80.427400
  S    -47.625800  -46.139300  -74.631200
  C    -46.075600  -46.542700  -75.206000
  C    -45.804100  -46.160800  -76.531200
  C    -46.924000  -45.613000  -77.201300
  C    -48.018500  -45.550800  -76.324800
  H    -44.847800  -46.285100  -77.064900
  C    -46.875500  -45.262800  -78.649800
  H    -45.974700  -44.647300  -78.939300
  H    -47.685000  -44.529400  -78.803600
  C    -46.949800  -46.435200  -79.589200
  H    -47.968500  -46.890400  -79.367100
  H    -46.258200  -47.214200  -79.254800
  C    -46.917100  -46.070200  -81.134900
  H    -47.752800  -45.423300  -81.464200
  H    -47.041500  -46.922800  -81.768100
  H    -45.937600  -45.689600  -81.485200
  H    -52.592800  -43.707100  -76.449300
  H    -45.392900  -47.024700  -74.514600

 Total Charge           Charge          ....    0
 Multiplicity           Mult            ....    1
 Number of Electrons    NEL             ....  134
 Basis Dimension        Dim             ....  322

ORBITAL ENERGIES
----------------

  NO   OCC          E(Eh)            E(eV)
   0   2.0000     -88.967134     -2420.9188
   1   2.0000     -88.966763     -2420.9087
   2   2.0000     -10.332058      -281.1496
   3   2.0000     -10.322300      -280.8841
   4   2.0000     -10.317999      -280.7670
   5   2.0000     -10.307949      -280.4935
   6   2.0000     -10.305366      -280.4233
   7   2.0000     -10.302827      -280.3542
   8   2.0000     -10.297702      -280.2147
   9   2.0000     -10.295353      -280.1508
  10   2.0000     -10.295226      -280.1473
  11   2.0000     -10.294005      -280.1141
  12   2.0000     -10.288172      -279.9554
  13   2.0000     -10.287227      -279.9297
  14   2.0000     -10.282901      -279.8120
  15   2.0000     -10.280260      -279.7401
  16   2.0000      -8.081463      -219.9078
  17   2.0000      -8.081422      -219.9067
  18   2.0000      -6.040047      -164.3580
  19   2.0000      -6.039585      -164.3455
  20   2.0000      -6.036322      -164.2567
  21   2.0000      -6.036137      -164.2516
  22   2.0000      -6.032373      -164.1492
  23   2.0000      -6.031861      -164.1353
  24   2.0000      -1.002675       -27.2842
  25   2.0000      -0.980805       -26.6891
  26   2.0000      -0.912138       -24.8205
  27   2.0000      -0.910367       -24.7723
  28   2.0000      -0.863102       -23.4862
  29   2.0000      -0.852599       -23.2004
  30   2.0000      -0.846971       -23.0472
  31   2.0000      -0.808569       -22.0023
  32   2.0000      -0.788915       -21.4675
  33   2.0000      -0.776135       -21.1197
  34   2.0000      -0.706959       -19.2373
  35   2.0000      -0.702490       -19.1157
  36   2.0000      -0.691383       -18.8135
  37   2.0000      -0.660241       -17.9661
  38   2.0000      -0.649361       -17.6700
  39   2.0000      -0.620342       -16.8804
  40   2.0000      -0.602611       -16.3979
  41   2.0000      -0.563258       -15.3270
  42   2.0000      -0.559799       -15.2329
  43   2.0000      -0.552259       -15.0277
  44   2.0000      -0.524606       -14.2753
  45   2.0000      -0.520253       -14.1568
  46   2.0000      -0.516667       -14.0592
  47   2.0000      -0.512125       -13.9356
  48   2.0000      -0.507137       -13.7999
  49   2.0000      -0.495375       -13.4798
  50   2.0000      -0.487836       -13.2747
  51   2.0000      -0.480635       -13.0788
  52   2.0000      -0.469086       -12.7645
  53   2.0000      -0.462764       -12.5925
  54   2.0000      -0.462389       -12.5822
  55   2.0000      -0.455591       -12.3973
  56   2.0000      -0.448175       -12.1955
  57   2.0000      -0.440039       -11.9741
  58   2.0000      -0.436655       -11.8820
  59   2.0000      -0.431313       -11.7366
  60   2.0000      -0.425282       -11.5725
  61   2.0000      -0.417471       -11.3600
  62   2.0000      -0.408507       -11.1160
  63   2.0000      -0.337377        -9.1805
  64   2.0000      -0.333594        -9.0776
  65   2.0000      -0.327310        -8.9066
  66   2.0000      -0.294157        -8.0044
  67   0.0000       0.036815         1.0018
  68   0.0000       0.061809         1.6819
  69   0.0000       0.102940         2.8011
  70   0.0000       0.116422         3.1680
  71   0.0000       0.124465         3.3869

MULLIKEN ATOMIC CHARGES
-----------------------
   0 S :    0.111284
   1 C :   -0.079242
   2 C :   -0.089141
   3 C :    0.058490
   4 C :   -0.143030
   5 H :   -0.034457
   6 C :    0.174679
   7 H :   -0.012007
   8 H :   -0.001917
   9 C :   -0.099406
  10 H :    0.035027
  11 H :    0.048672
  12 C :   -0.084346
  13 H :    0.040638
  14 H :    0.046311
  15 H :    0.036545
  16 S :    0.105918
  17 C :   -0.090708
  18 C :   -0.035257
  19 C :   -0.006390
  20 C :   -0.207196
  21 H :    0.024142
  22 C :    0.045555
  23 H :    0.031490
  24 H :    0.031344
  25 C :   -0.084385
  26 H :    0.025386
  27 H :    0.033195
  28 C :   -0.041412
  29 H :    0.042478
  30 H :    0.024435
  31 H :    0.035853
  32 H :   -0.002069
  33 H :    0.059524
Sum of atomic charges:    0.0000000

LOEWDIN ATOMIC CHARGES
----------------------
   0 S :    0.388112
   1 C :   -0.176248
   2 C :   -0.042982
   3 C :   -0.050979
   4 C :   -0.198074
   5 H :    0.010064
   6 C :   -0.021669
   7 H :    0.020343
   8 H :    0.021793
   9 C :   -0.041033
  10 H :    0.024365
  11 H :    0.033576
  12 C :   -0.078204
  13 H :    0.026413
  14 H :    0.035640
  15 H :    0.028527
  16 S :    0.393817
  17 C :   -0.193536
  18 C :   -0.076594
  19 C :   -0.051825
  20 C :   -0.169502
  21 H :    0.034737
  22 C :   -0.043174
  23 H :    0.035690
  24 H :    0.034427
  25 C :   -0.042678
  26 H :    0.027561
  27 H :    0.025356
  28 C :   -0.070861
  29 H :    0.032547
  30 H :    0.024222
  31 H :    0.027640
  32 H :    0.007855
  33 H :    0.024673

  Mayer bond orders larger than 0.100000
B(  0-S ,  1-C ) :   1.1028 B(  0-S ,  4-C ) :   1.1377 B(  1-C ,  2-C ) :   1.6655
B(  1-C , 32-H ) :   0.9732 B(  2-C ,  3-C ) :   1.1756 B(  2-C ,  6-C ) :   1.0188
B(  3-C ,  4-C ) :   1.6200 B(  3-C ,  5-H ) :   1.0048 B(  4-C , 20-C ) :   1.0114
B(  6-C ,  7-H ) :   0.9269 B(  6-C ,  8-H ) :   0.9280 B(  6-C ,  9-C ) :   1.0390
B(  9-C , 10-H ) :   0.9607 B(  9-C , 11-H ) :   0.9614 B(  9-C , 12-C ) :   1.0690
B( 12-C , 13-H ) :   0.9777 B( 12-C , 14-H ) :   0.9750 B( 12-C , 15-H ) :   0.9759
B( 16-S , 17-C ) :   1.1778 B( 16-S , 20-C ) :   1.1388 B( 17-C , 18-C ) :   1.5772
B( 17-C , 20-C ) :   0.1044 B( 17-C , 33-H ) :   0.9682 B( 18-C , 19-C ) :   1.2467
B( 18-C , 21-H ) :   0.9848 B( 19-C , 20-C ) :   1.6087 B( 19-C , 22-C ) :   1.0516
B( 22-C , 23-H ) :   0.9336 B( 22-C , 24-H ) :   0.9277 B( 22-C , 25-C ) :   1.0560
B( 25-C , 26-H ) :   0.9481 B( 25-C , 27-H ) :   0.9586 B( 25-C , 28-C ) :   1.0700
B( 28-C , 29-H ) :   0.9749 B( 28-C , 30-H ) :   0.9745 B( 28-C , 31-H ) :   0.9752

Dispersion correction           -0.014434345
FINAL SINGLE POINT ENERGY     -1339.854839427392

DIPOLE MOMENT
-------------
                                X             Y             Z
Electronic contribution:      5.69748       8.37407      31.83145
Nuclear contribution   :     -5.80206      -8.74502     -32.49125
                        -----------------------------------------
Total Dipole Moment    :     -0.10457      -0.37095      -0.65981
                        -----------------------------------------
Magnitude (a.u.)       :      0.76412
Magnitude (Debye)      :      1.94225

Rotational constants in cm-1:     0.015559     0.009972     0.006791
Rotational constants in MHz :   466.449699   298.951353   203.581920

                             ****ORCA TERMINATED NORMALLY****
TOTAL RUN TIME: 0 days 0 hours 0 minutes 21 seconds 690 msec
