                         Program Version 4.2.1 -  RELEASE  -
|  1> ! wB97X-D3 SP def2-SVP
|  2> %pal
|  3> nprocs 24
|  4> end
|  5>
|  6> * xyz 0 1
|  7> S 	 -111.814 	 58.7152 	 -20.6489
|  8> C 	 -111.324 	 60.2175 	 -19.9543
|  9> C 	 -111.792 	 61.2558 	 -20.7007
| 10> C 	 -112.761 	 60.848 	 -21.6905
| 11> C 	 -112.942 	 59.4643 	 -21.7171
| 12> H 	 -113.329 	 61.5473 	 -22.3179
| 13> C 	 -111.568 	 62.7066 	 -20.5072
| 14> H 	 -111.409 	 63.1132 	 -21.4535
| 15> H 	 -110.518 	 62.7944 	 -20.1108
| 16> C 	 -112.662 	 63.4245 	 -19.7311
| 17> H 	 -113.62 	 63.2927 	 -20.1969
| 18> H 	 -112.746 	 62.9313 	 -18.8266
| 19> C 	 -112.466 	 64.911 	 -19.2886
| 20> H 	 -112.35 	 65.6864 	 -20.0707
| 21> H 	 -113.349 	 65.1719 	 -18.7345
| 22> H 	 -111.549 	 65.0018 	 -18.6318
| 23> S 	 -115.492 	 58.6623 	 -22.5663
| 24> C 	 -115.606 	 57.7226 	 -24.0174
| 25> C 	 -114.348 	 57.5883 	 -24.5964
| 26> C 	 -113.27 	 58.0196 	 -23.8099
| 27> C 	 -113.766 	 58.6639 	 -22.6708
| 28> H 	 -114.319 	 57.1947 	 -25.6433
| 29> C 	 -111.767 	 57.8017 	 -24.0485
| 30> H 	 -111.509 	 56.9346 	 -24.7156
| 31> H 	 -111.243 	 57.552 	 -23.1414
| 32> C 	 -110.987 	 58.9872 	 -24.7013
| 33> H 	 -111.143 	 59.9056 	 -24.1827
| 34> H 	 -111.345 	 59.1038 	 -25.6766
| 35> C 	 -109.448 	 58.7878 	 -24.6579
| 36> H 	 -109.045 	 57.8248 	 -24.9114
| 37> H 	 -109.047 	 58.9801 	 -23.685
| 38> H 	 -108.886 	 59.3714 	 -25.2926
| 39> H 	 -110.514 	 60.2668 	 -19.1891
| 40> H 	 -116.524 	 57.3667 	 -24.4544
| 41> *
| 42>
| 43>                          ****END OF INPUT****

CARTESIAN COORDINATES (ANGSTROEM)
---------------------------------
  S    -111.814000   58.715200  -20.648900
  C    -111.324000   60.217500  -19.954300
  C    -111.792000   61.255800  -20.700700
  C    -112.761000   60.848000  -21.690500
  C    -112.942000   59.464300  -21.717100
  H    -113.329000   61.547300  -22.317900
  C    -111.568000   62.706600  -20.507200
  H    -111.409000   63.113200  -21.453500
  H    -110.518000   62.794400  -20.110800
  C    -112.662000   63.424500  -19.731100
  H    -113.620000   63.292700  -20.196900
  H    -112.746000   62.931300  -18.826600
  C    -112.466000   64.911000  -19.288600
  H    -112.350000   65.686400  -20.070700
  H    -113.349000   65.171900  -18.734500
  H    -111.549000   65.001800  -18.631800
  S    -115.492000   58.662300  -22.566300
  C    -115.606000   57.722600  -24.017400
  C    -114.348000   57.588300  -24.596400
  C    -113.270000   58.019600  -23.809900
  C    -113.766000   58.663900  -22.670800
  H    -114.319000   57.194700  -25.643300
  C    -111.767000   57.801700  -24.048500
  H    -111.509000   56.934600  -24.715600
  H    -111.243000   57.552000  -23.141400
  C    -110.987000   58.987200  -24.701300
  H    -111.143000   59.905600  -24.182700
  H    -111.345000   59.103800  -25.676600
  C    -109.448000   58.787800  -24.657900
  H    -109.045000   57.824800  -24.911400
  H    -109.047000   58.980100  -23.685000
  H    -108.886000   59.371400  -25.292600
  H    -110.514000   60.266800  -19.189100
  H    -116.524000   57.366700  -24.454400

 Total Charge           Charge          ....    0
 Multiplicity           Mult            ....    1
 Number of Electrons    NEL             ....  134
 Basis Dimension        Dim             ....  322

ORBITAL ENERGIES
----------------

  NO   OCC          E(Eh)            E(eV)
   0   2.0000     -88.969987     -2420.9964
   1   2.0000     -88.963945     -2420.8320
   2   2.0000     -10.330003      -281.0937
   3   2.0000     -10.326232      -280.9911
   4   2.0000     -10.315360      -280.6952
   5   2.0000     -10.313855      -280.6543
   6   2.0000     -10.305139      -280.4171
   7   2.0000     -10.296756      -280.1890
   8   2.0000     -10.296400      -280.1793
   9   2.0000     -10.295958      -280.1673
  10   2.0000     -10.294127      -280.1174
  11   2.0000     -10.285563      -279.8844
  12   2.0000     -10.284910      -279.8666
  13   2.0000     -10.281492      -279.7736
  14   2.0000     -10.277916      -279.6763
  15   2.0000     -10.264136      -279.3013
  16   2.0000      -8.084980      -220.0035
  17   2.0000      -8.079368      -219.8508
  18   2.0000      -6.043278      -164.4460
  19   2.0000      -6.039391      -164.3402
  20   2.0000      -6.037848      -164.2982
  21   2.0000      -6.036017      -164.2484
  22   2.0000      -6.033658      -164.1842
  23   2.0000      -6.030247      -164.0914
  24   2.0000      -1.010093       -27.4860
  25   2.0000      -0.990644       -26.9568
  26   2.0000      -0.914473       -24.8841
  27   2.0000      -0.901693       -24.5363
  28   2.0000      -0.865130       -23.5414
  29   2.0000      -0.852366       -23.1941
  30   2.0000      -0.847249       -23.0548
  31   2.0000      -0.812238       -22.1021
  32   2.0000      -0.784283       -21.3414
  33   2.0000      -0.774697       -21.0806
  34   2.0000      -0.709473       -19.3057
  35   2.0000      -0.706833       -19.2339
  36   2.0000      -0.693253       -18.8644
  37   2.0000      -0.656438       -17.8626
  38   2.0000      -0.641645       -17.4601
  39   2.0000      -0.618812       -16.8387
  40   2.0000      -0.597869       -16.2688
  41   2.0000      -0.569441       -15.4953
  42   2.0000      -0.563480       -15.3331
  43   2.0000      -0.554626       -15.0921
  44   2.0000      -0.531318       -14.4579
  45   2.0000      -0.519251       -14.1295
  46   2.0000      -0.514445       -13.9988
  47   2.0000      -0.510133       -13.8814
  48   2.0000      -0.505662       -13.7598
  49   2.0000      -0.498685       -13.5699
  50   2.0000      -0.487229       -13.2582
  51   2.0000      -0.480235       -13.0679
  52   2.0000      -0.469032       -12.7630
  53   2.0000      -0.463452       -12.6112
  54   2.0000      -0.457228       -12.4418
  55   2.0000      -0.448461       -12.2033
  56   2.0000      -0.443954       -12.0806
  57   2.0000      -0.442049       -12.0288
  58   2.0000      -0.432819       -11.7776
  59   2.0000      -0.430589       -11.7169
  60   2.0000      -0.422713       -11.5026
  61   2.0000      -0.417207       -11.3528
  62   2.0000      -0.415197       -11.2981
  63   2.0000      -0.335642        -9.1333
  64   2.0000      -0.334040        -9.0897
  65   2.0000      -0.326918        -8.8959
  66   2.0000      -0.301663        -8.2087
  67   0.0000       0.041289         1.1235
  68   0.0000       0.059964         1.6317
  69   0.0000       0.113810         3.0969
  70   0.0000       0.126595         3.4448
  71   0.0000       0.127596         3.4721

MULLIKEN ATOMIC CHARGES
-----------------------
   0 S :    0.107919
   1 C :   -0.130150
   2 C :   -0.122116
   3 C :    0.033223
   4 C :   -0.165525
   5 H :    0.022775
   6 C :    0.102990
   7 H :    0.002403
   8 H :    0.012674
   9 C :   -0.023820
  10 H :    0.021825
  11 H :    0.009594
  12 C :   -0.065526
  13 H :    0.034288
  14 H :    0.035453
  15 H :    0.038216
  16 S :    0.133443
  17 C :   -0.103795
  18 C :   -0.067236
  19 C :    0.033559
  20 C :   -0.182776
  21 H :    0.034570
  22 C :    0.045983
  23 H :    0.028864
  24 H :    0.017223
  25 C :   -0.032326
  26 H :    0.028522
  27 H :    0.014449
  28 C :   -0.015373
  29 H :    0.006431
  30 H :    0.021662
  31 H :    0.005601
  32 H :    0.062537
  33 H :    0.054438
Sum of atomic charges:   -0.0000000

LOEWDIN ATOMIC CHARGES
----------------------
   0 S :    0.431296
   1 C :   -0.210141
   2 C :   -0.068692
   3 C :   -0.062844
   4 C :   -0.199067
   5 H :    0.034296
   6 C :   -0.035863
   7 H :    0.021395
   8 H :    0.033980
   9 C :   -0.032974
  10 H :    0.024111
  11 H :    0.020110
  12 C :   -0.066739
  13 H :    0.022985
  14 H :    0.026253
  15 H :    0.030516
  16 S :    0.434381
  17 C :   -0.198900
  18 C :   -0.074845
  19 C :   -0.055098
  20 C :   -0.210846
  21 H :    0.039275
  22 C :   -0.032379
  23 H :    0.036105
  24 H :    0.018552
  25 C :   -0.025081
  26 H :    0.022456
  27 H :    0.013635
  28 C :   -0.062233
  29 H :    0.020100
  30 H :    0.024744
  31 H :    0.016310
  32 H :    0.036890
  33 H :    0.028310

  Mayer bond orders larger than 0.100000
B(  0-S ,  1-C ) :   1.1401 B(  0-S ,  4-C ) :   1.1785 B(  1-C ,  2-C ) :   1.6104
B(  1-C , 32-H ) :   0.9650 B(  2-C ,  3-C ) :   1.2362 B(  2-C ,  6-C ) :   1.0408
B(  3-C ,  4-C ) :   1.5730 B(  3-C ,  5-H ) :   0.9937 B(  4-C , 20-C ) :   0.9851
B(  6-C ,  7-H ) :   0.9244 B(  6-C ,  8-H ) :   0.9330 B(  6-C ,  9-C ) :   1.0570
B(  9-C , 10-H ) :   0.9543 B(  9-C , 11-H ) :   0.9501 B(  9-C , 12-C ) :   1.0797
B( 12-C , 13-H ) :   0.9780 B( 12-C , 14-H ) :   0.9747 B( 12-C , 15-H ) :   0.9766
B( 16-S , 17-C ) :   1.1645 B( 16-S , 20-C ) :   1.1804 B( 17-C , 18-C ) :   1.5837
B( 17-C , 20-C ) :   0.1062 B( 17-C , 33-H ) :   0.9713 B( 18-C , 19-C ) :   1.2824
B( 18-C , 21-H ) :   0.9814 B( 19-C , 20-C ) :   1.5518 B( 19-C , 22-C ) :   1.0291
B( 22-C , 23-H ) :   0.9399 B( 22-C , 24-H ) :   0.9398 B( 22-C , 25-C ) :   1.0550
B( 25-C , 26-H ) :   0.9579 B( 25-C , 27-H ) :   0.9596 B( 25-C , 28-C ) :   1.0755
B( 28-C , 29-H ) :   0.9728 B( 28-C , 30-H ) :   0.9749 B( 28-C , 31-H ) :   0.9718

Dispersion correction           -0.014772181
FINAL SINGLE POINT ENERGY     -1339.873667075223

DIPOLE MOMENT
-------------
                                X             Y             Z
Electronic contribution:    -15.49044     -17.24076       2.70188
Nuclear contribution   :     15.72702      17.62486      -2.96738
                        -----------------------------------------
Total Dipole Moment    :      0.23658       0.38410      -0.26550
                        -----------------------------------------
Magnitude (a.u.)       :      0.52344
Magnitude (Debye)      :      1.33049

Rotational constants in cm-1:     0.018392     0.008531     0.006964
Rotational constants in MHz :   551.387455   255.739503   208.763676

                             ****ORCA TERMINATED NORMALLY****
TOTAL RUN TIME: 0 days 0 hours 0 minutes 21 seconds 572 msec
