                         Program Version 4.2.1 -  RELEASE  -
|  1> ! wB97X-D3 SP def2-SVP
|  2> %pal
|  3> nprocs 24
|  4> end
|  5>
|  6> * xyz 0 1
|  7> S 	 23.8347 	 -8.91693 	 -114.584
|  8> C 	 24.6286 	 -8.53375 	 -113.09
|  9> C 	 23.7788 	 -7.87536 	 -112.228
| 10> C 	 22.4771 	 -7.69586 	 -112.792
| 11> C 	 22.3325 	 -8.16627 	 -114.124
| 12> H 	 21.5629 	 -7.19396 	 -112.402
| 13> C 	 24.1646 	 -7.33476 	 -110.871
| 14> H 	 23.3362 	 -6.68092 	 -110.619
| 15> H 	 25.0125 	 -6.63184 	 -111.066
| 16> C 	 24.5124 	 -8.31628 	 -109.757
| 17> H 	 25.3379 	 -8.96131 	 -110.13
| 18> H 	 25.0757 	 -7.84662 	 -108.897
| 19> C 	 23.271 	 -9.08753 	 -109.246
| 20> H 	 22.489 	 -8.44819 	 -108.949
| 21> H 	 23.0219 	 -9.90842 	 -109.874
| 22> H 	 23.6531 	 -9.58932 	 -108.296
| 23> S 	 20.8079 	 -10.0203 	 -115.374
| 24> C 	 19.1779 	 -9.57116 	 -115.842
| 25> C 	 18.9397 	 -8.23182 	 -115.697
| 26> C 	 19.9817 	 -7.5922 	 -115.011
| 27> C 	 21.1105 	 -8.39597 	 -114.861
| 28> H 	 17.9726 	 -7.8737 	 -115.943
| 29> C 	 19.8876 	 -6.20428 	 -114.517
| 30> H 	 19.5197 	 -5.60583 	 -115.388
| 31> H 	 20.8958 	 -5.94999 	 -114.3
| 32> C 	 18.9402 	 -5.94339 	 -113.324
| 33> H 	 19.2144 	 -4.96207 	 -112.764
| 34> H 	 19.0884 	 -6.72633 	 -112.56
| 35> C 	 17.4731 	 -6.07816 	 -113.611
| 36> H 	 17.1227 	 -5.35604 	 -114.311
| 37> H 	 17.0979 	 -5.89302 	 -112.574
| 38> H 	 17.2291 	 -7.07139 	 -113.84
| 39> H 	 25.709 	 -8.46208 	 -112.899
| 40> H 	 18.5127 	 -10.3729 	 -116.214
| 41> *
| 42>
| 43>                          ****END OF INPUT****

CARTESIAN COORDINATES (ANGSTROEM)
---------------------------------
  S     23.834700   -8.916930  -114.584000
  C     24.628600   -8.533750  -113.090000
  C     23.778800   -7.875360  -112.228000
  C     22.477100   -7.695860  -112.792000
  C     22.332500   -8.166270  -114.124000
  H     21.562900   -7.193960  -112.402000
  C     24.164600   -7.334760  -110.871000
  H     23.336200   -6.680920  -110.619000
  H     25.012500   -6.631840  -111.066000
  C     24.512400   -8.316280  -109.757000
  H     25.337900   -8.961310  -110.130000
  H     25.075700   -7.846620  -108.897000
  C     23.271000   -9.087530  -109.246000
  H     22.489000   -8.448190  -108.949000
  H     23.021900   -9.908420  -109.874000
  H     23.653100   -9.589320  -108.296000
  S     20.807900  -10.020300  -115.374000
  C     19.177900   -9.571160  -115.842000
  C     18.939700   -8.231820  -115.697000
  C     19.981700   -7.592200  -115.011000
  C     21.110500   -8.395970  -114.861000
  H     17.972600   -7.873700  -115.943000
  C     19.887600   -6.204280  -114.517000
  H     19.519700   -5.605830  -115.388000
  H     20.895800   -5.949990  -114.300000
  C     18.940200   -5.943390  -113.324000
  H     19.214400   -4.962070  -112.764000
  H     19.088400   -6.726330  -112.560000
  C     17.473100   -6.078160  -113.611000
  H     17.122700   -5.356040  -114.311000
  H     17.097900   -5.893020  -112.574000
  H     17.229100   -7.071390  -113.840000
  H     25.709000   -8.462080  -112.899000
  H     18.512700  -10.372900  -116.214000

 Total Charge           Charge          ....    0
 Multiplicity           Mult            ....    1
 Number of Electrons    NEL             ....  134
 Basis Dimension        Dim             ....  322

ORBITAL ENERGIES
----------------

  NO   OCC          E(Eh)            E(eV)
   0   2.0000     -88.966874     -2420.9117
   1   2.0000     -88.964493     -2420.8469
   2   2.0000     -10.330266      -281.1008
   3   2.0000     -10.323323      -280.9119
   4   2.0000     -10.318814      -280.7892
   5   2.0000     -10.311921      -280.6016
   6   2.0000     -10.301347      -280.3139
   7   2.0000     -10.298975      -280.2494
   8   2.0000     -10.298297      -280.2309
   9   2.0000     -10.294529      -280.1284
  10   2.0000     -10.294021      -280.1146
  11   2.0000     -10.291933      -280.0577
  12   2.0000     -10.290487      -280.0184
  13   2.0000     -10.285862      -279.8925
  14   2.0000     -10.276563      -279.6395
  15   2.0000     -10.274580      -279.5855
  16   2.0000      -8.081664      -219.9133
  17   2.0000      -8.079822      -219.8631
  18   2.0000      -6.040204      -164.3623
  19   2.0000      -6.038162      -164.3067
  20   2.0000      -6.035917      -164.2457
  21   2.0000      -6.034292      -164.2014
  22   2.0000      -6.032647      -164.1567
  23   2.0000      -6.030664      -164.1027
  24   2.0000      -1.011894       -27.5350
  25   2.0000      -0.987417       -26.8690
  26   2.0000      -0.915875       -24.9222
  27   2.0000      -0.910578       -24.7781
  28   2.0000      -0.872379       -23.7386
  29   2.0000      -0.859161       -23.3790
  30   2.0000      -0.844474       -22.9793
  31   2.0000      -0.815351       -22.1868
  32   2.0000      -0.785783       -21.3822
  33   2.0000      -0.772625       -21.0242
  34   2.0000      -0.706170       -19.2159
  35   2.0000      -0.702861       -19.1258
  36   2.0000      -0.689491       -18.7620
  37   2.0000      -0.668530       -18.1916
  38   2.0000      -0.634883       -17.2760
  39   2.0000      -0.608824       -16.5669
  40   2.0000      -0.594420       -16.1750
  41   2.0000      -0.572427       -15.5765
  42   2.0000      -0.559303       -15.2194
  43   2.0000      -0.551606       -15.0100
  44   2.0000      -0.547544       -14.8994
  45   2.0000      -0.542296       -14.7566
  46   2.0000      -0.522099       -14.2070
  47   2.0000      -0.513041       -13.9605
  48   2.0000      -0.507855       -13.8194
  49   2.0000      -0.496044       -13.4980
  50   2.0000      -0.488159       -13.2835
  51   2.0000      -0.486370       -13.2348
  52   2.0000      -0.477298       -12.9879
  53   2.0000      -0.466761       -12.7012
  54   2.0000      -0.457482       -12.4487
  55   2.0000      -0.444336       -12.0910
  56   2.0000      -0.437864       -11.9149
  57   2.0000      -0.433622       -11.7995
  58   2.0000      -0.429345       -11.6831
  59   2.0000      -0.427148       -11.6233
  60   2.0000      -0.422266       -11.4905
  61   2.0000      -0.413472       -11.2511
  62   2.0000      -0.409459       -11.1420
  63   2.0000      -0.354896        -9.6572
  64   2.0000      -0.331168        -9.0115
  65   2.0000      -0.329702        -8.9717
  66   2.0000      -0.284854        -7.7513
  67   0.0000       0.027280         0.7423
  68   0.0000       0.067208         1.8288
  69   0.0000       0.113399         3.0857
  70   0.0000       0.120061         3.2670
  71   0.0000       0.127883         3.4799

MULLIKEN ATOMIC CHARGES
-----------------------
   0 S :    0.107170
   1 C :   -0.113205
   2 C :   -0.109155
   3 C :    0.018733
   4 C :   -0.181524
   5 H :    0.018033
   6 C :    0.062956
   7 H :    0.013419
   8 H :    0.036803
   9 C :   -0.086847
  10 H :    0.025038
  11 H :    0.033267
  12 C :   -0.030230
  13 H :    0.031155
  14 H :    0.047474
  15 H :    0.029351
  16 S :    0.107506
  17 C :   -0.126667
  18 C :    0.003646
  19 C :   -0.072937
  20 C :   -0.118819
  21 H :    0.008577
  22 C :    0.089877
  23 H :    0.032626
  24 H :    0.016146
  25 C :   -0.133152
  26 H :    0.047213
  27 H :    0.029937
  28 C :   -0.013282
  29 H :    0.031602
  30 H :    0.034846
  31 H :    0.030611
  32 H :    0.059930
  33 H :    0.069903
Sum of atomic charges:   -0.0000000

LOEWDIN ATOMIC CHARGES
----------------------
   0 S :    0.419625
   1 C :   -0.214065
   2 C :   -0.066656
   3 C :   -0.071273
   4 C :   -0.201401
   5 H :    0.034861
   6 C :   -0.039634
   7 H :    0.026212
   8 H :    0.038001
   9 C :   -0.048923
  10 H :    0.026031
  11 H :    0.029316
  12 C :   -0.059755
  13 H :    0.019562
  14 H :    0.026574
  15 H :    0.035554
  16 S :    0.413026
  17 C :   -0.179056
  18 C :   -0.068535
  19 C :   -0.057643
  20 C :   -0.209355
  21 H :    0.028628
  22 C :   -0.038574
  23 H :    0.037215
  24 H :    0.024927
  25 C :   -0.049050
  26 H :    0.033522
  27 H :    0.023403
  28 C :   -0.058187
  29 H :    0.018847
  30 H :    0.039263
  31 H :    0.018009
  32 H :    0.037305
  33 H :    0.032224

  Mayer bond orders larger than 0.100000
B(  0-S ,  1-C ) :   1.1472 B(  0-S ,  4-C ) :   1.1665 B(  1-C ,  2-C ) :   1.5907
B(  1-C ,  4-C ) :   0.1038 B(  1-C , 32-H ) :   0.9587 B(  2-C ,  3-C ) :   1.2710
B(  2-C ,  6-C ) :   1.0088 B(  3-C ,  4-C ) :   1.5275 B(  3-C ,  5-H ) :   0.9811
B(  4-C , 20-C ) :   1.0422 B(  6-C ,  7-H ) :   0.9459 B(  6-C ,  8-H ) :   0.9344
B(  6-C ,  9-C ) :   1.0739 B(  9-C , 10-H ) :   0.9527 B(  9-C , 11-H ) :   0.9576
B(  9-C , 12-C ) :   1.0665 B( 12-C , 13-H ) :   0.9779 B( 12-C , 14-H ) :   0.9776
B( 12-C , 15-H ) :   0.9733 B( 16-S , 17-C ) :   1.1693 B( 16-S , 20-C ) :   1.1464
B( 17-C , 18-C ) :   1.5846 B( 17-C , 33-H ) :   0.9643 B( 18-C , 19-C ) :   1.2390
B( 18-C , 21-H ) :   0.9984 B( 19-C , 20-C ) :   1.5839 B( 19-C , 22-C ) :   1.0542
B( 22-C , 23-H ) :   0.9337 B( 22-C , 24-H ) :   0.9237 B( 22-C , 25-C ) :   1.0545
B( 25-C , 26-H ) :   0.9595 B( 25-C , 27-H ) :   0.9523 B( 25-C , 28-C ) :   1.0767
B( 28-C , 29-H ) :   0.9760 B( 28-C , 30-H ) :   0.9694 B( 28-C , 31-H ) :   0.9680

Dispersion correction           -0.014552407
FINAL SINGLE POINT ENERGY     -1339.870316665020

DIPOLE MOMENT
-------------
                                X             Y             Z
Electronic contribution:      7.49865     -12.79000     -21.81300
Nuclear contribution   :     -7.80633      13.12360      22.33362
                        -----------------------------------------
Total Dipole Moment    :     -0.30768       0.33359       0.52061
                        -----------------------------------------
Magnitude (a.u.)       :      0.69064
Magnitude (Debye)      :      1.75548

Rotational constants in cm-1:     0.019164     0.008725     0.006971
Rotational constants in MHz :   574.526991   261.574155   208.973683

                             ****ORCA TERMINATED NORMALLY****
TOTAL RUN TIME: 0 days 0 hours 0 minutes 22 seconds 18 msec
