                         Program Version 4.2.1 -  RELEASE  -
|  1> ! wB97X-D3 SP def2-SVP
|  2> %pal
|  3> nprocs 24
|  4> end
|  5>
|  6> * xyz 0 1
|  7> S 	 -17.0645 	 -27.8811 	 -98.5911
|  8> C 	 -15.7322 	 -28.6864 	 -99.5405
|  9> C 	 -16.179 	 -29.7469 	 -100.278
| 10> C 	 -17.5886 	 -29.9232 	 -100.257
| 11> C 	 -18.1886 	 -28.9144 	 -99.4774
| 12> H 	 -18.1198 	 -30.7333 	 -100.717
| 13> C 	 -15.1766 	 -30.6494 	 -101.116
| 14> H 	 -15.0251 	 -31.5755 	 -100.639
| 15> H 	 -14.2166 	 -30.151 	 -101.069
| 16> C 	 -15.5113 	 -30.8479 	 -102.61
| 17> H 	 -14.6435 	 -31.1135 	 -103.205
| 18> H 	 -16.2431 	 -31.6547 	 -102.63
| 19> C 	 -15.9114 	 -29.5654 	 -103.357
| 20> H 	 -16.9476 	 -29.2863 	 -103.121
| 21> H 	 -15.3545 	 -28.6301 	 -103.135
| 22> H 	 -15.8022 	 -29.9131 	 -104.447
| 23> S 	 -20.3735 	 -30.061 	 -98.16
| 24> C 	 -21.9361 	 -29.5275 	 -98.5036
| 25> C 	 -21.9116 	 -28.4041 	 -99.3202
| 26> C 	 -20.6094 	 -28.0135 	 -99.6345
| 27> C 	 -19.6169 	 -28.9052 	 -99.2488
| 28> H 	 -22.8701 	 -28.0072 	 -99.6727
| 29> C 	 -20.3571 	 -26.8156 	 -100.504
| 30> H 	 -20.8496 	 -27.0107 	 -101.429
| 31> H 	 -19.325 	 -26.9157 	 -100.831
| 32> C 	 -20.6001 	 -25.4066 	 -99.8582
| 33> H 	 -21.6677 	 -25.1119 	 -99.7072
| 34> H 	 -20.2143 	 -24.5498 	 -100.539
| 35> C 	 -19.8707 	 -25.2684 	 -98.4983
| 36> H 	 -20.2539 	 -25.8475 	 -97.6496
| 37> H 	 -20.0243 	 -24.3019 	 -98.045
| 38> H 	 -18.859 	 -25.5408 	 -98.5442
| 39> H 	 -14.754 	 -28.3039 	 -99.6042
| 40> H 	 -22.8788 	 -30.0259 	 -98.3113
| 41> *
| 42>
| 43>                          ****END OF INPUT****

CARTESIAN COORDINATES (ANGSTROEM)
---------------------------------
  S    -17.064500  -27.881100  -98.591100
  C    -15.732200  -28.686400  -99.540500
  C    -16.179000  -29.746900  -100.278000
  C    -17.588600  -29.923200  -100.257000
  C    -18.188600  -28.914400  -99.477400
  H    -18.119800  -30.733300  -100.717000
  C    -15.176600  -30.649400  -101.116000
  H    -15.025100  -31.575500  -100.639000
  H    -14.216600  -30.151000  -101.069000
  C    -15.511300  -30.847900  -102.610000
  H    -14.643500  -31.113500  -103.205000
  H    -16.243100  -31.654700  -102.630000
  C    -15.911400  -29.565400  -103.357000
  H    -16.947600  -29.286300  -103.121000
  H    -15.354500  -28.630100  -103.135000
  H    -15.802200  -29.913100  -104.447000
  S    -20.373500  -30.061000  -98.160000
  C    -21.936100  -29.527500  -98.503600
  C    -21.911600  -28.404100  -99.320200
  C    -20.609400  -28.013500  -99.634500
  C    -19.616900  -28.905200  -99.248800
  H    -22.870100  -28.007200  -99.672700
  C    -20.357100  -26.815600  -100.504000
  H    -20.849600  -27.010700  -101.429000
  H    -19.325000  -26.915700  -100.831000
  C    -20.600100  -25.406600  -99.858200
  H    -21.667700  -25.111900  -99.707200
  H    -20.214300  -24.549800  -100.539000
  C    -19.870700  -25.268400  -98.498300
  H    -20.253900  -25.847500  -97.649600
  H    -20.024300  -24.301900  -98.045000
  H    -18.859000  -25.540800  -98.544200
  H    -14.754000  -28.303900  -99.604200
  H    -22.878800  -30.025900  -98.311300

 Total Charge           Charge          ....    0
 Multiplicity           Mult            ....    1
 Number of Electrons    NEL             ....  134
 Basis Dimension        Dim             ....  322

ORBITAL ENERGIES
----------------

  NO   OCC          E(Eh)            E(eV)
   0   2.0000     -88.973477     -2421.0914
   1   2.0000     -88.962279     -2420.7867
   2   2.0000     -10.334753      -281.2229
   3   2.0000     -10.319419      -280.8057
   4   2.0000     -10.316278      -280.7202
   5   2.0000     -10.310202      -280.5549
   6   2.0000     -10.306082      -280.4428
   7   2.0000     -10.300408      -280.2884
   8   2.0000     -10.298105      -280.2257
   9   2.0000     -10.295683      -280.1598
  10   2.0000     -10.292260      -280.0666
  11   2.0000     -10.288144      -279.9546
  12   2.0000     -10.286534      -279.9108
  13   2.0000     -10.284505      -279.8556
  14   2.0000     -10.283431      -279.8264
  15   2.0000     -10.264938      -279.3232
  16   2.0000      -8.086335      -220.0404
  17   2.0000      -8.077912      -219.8112
  18   2.0000      -6.044917      -164.4906
  19   2.0000      -6.041282      -164.3916
  20   2.0000      -6.036953      -164.2738
  21   2.0000      -6.036238      -164.2544
  22   2.0000      -6.032147      -164.1431
  23   2.0000      -6.028961      -164.0564
  24   2.0000      -1.007807       -27.4238
  25   2.0000      -0.982606       -26.7381
  26   2.0000      -0.907494       -24.6942
  27   2.0000      -0.900968       -24.5166
  28   2.0000      -0.867996       -23.6194
  29   2.0000      -0.845700       -23.0127
  30   2.0000      -0.844701       -22.9855
  31   2.0000      -0.811664       -22.0865
  32   2.0000      -0.784875       -21.3575
  33   2.0000      -0.772400       -21.0181
  34   2.0000      -0.709774       -19.3139
  35   2.0000      -0.696639       -18.9565
  36   2.0000      -0.690262       -18.7830
  37   2.0000      -0.655707       -17.8427
  38   2.0000      -0.639646       -17.4057
  39   2.0000      -0.617424       -16.8010
  40   2.0000      -0.589451       -16.0398
  41   2.0000      -0.564772       -15.3682
  42   2.0000      -0.560881       -15.2623
  43   2.0000      -0.552555       -15.0358
  44   2.0000      -0.547619       -14.9015
  45   2.0000      -0.530103       -14.4248
  46   2.0000      -0.518095       -14.0981
  47   2.0000      -0.507825       -13.8186
  48   2.0000      -0.500342       -13.6150
  49   2.0000      -0.494770       -13.4634
  50   2.0000      -0.487170       -13.2566
  51   2.0000      -0.475548       -12.9403
  52   2.0000      -0.464743       -12.6463
  53   2.0000      -0.459482       -12.5032
  54   2.0000      -0.458952       -12.4887
  55   2.0000      -0.451786       -12.2937
  56   2.0000      -0.440209       -11.9787
  57   2.0000      -0.436449       -11.8764
  58   2.0000      -0.433116       -11.7857
  59   2.0000      -0.422916       -11.5081
  60   2.0000      -0.415862       -11.3162
  61   2.0000      -0.408278       -11.1098
  62   2.0000      -0.403640       -10.9836
  63   2.0000      -0.339861        -9.2481
  64   2.0000      -0.328396        -8.9361
  65   2.0000      -0.322075        -8.7641
  66   2.0000      -0.307721        -8.3735
  67   0.0000       0.029775         0.8102
  68   0.0000       0.059093         1.6080
  69   0.0000       0.098515         2.6807
  70   0.0000       0.125355         3.4111
  71   0.0000       0.128265         3.4903

MULLIKEN ATOMIC CHARGES
-----------------------
   0 S :    0.119484
   1 C :   -0.119749
   2 C :   -0.077620
   3 C :    0.030950
   4 C :   -0.162614
   5 H :    0.019818
   6 C :    0.114122
   7 H :    0.031813
   8 H :    0.003937
   9 C :   -0.097085
  10 H :    0.034533
  11 H :    0.034786
  12 C :   -0.084284
  13 H :    0.035335
  14 H :    0.044006
  15 H :    0.047972
  16 S :    0.123033
  17 C :   -0.090288
  18 C :   -0.050256
  19 C :   -0.033099
  20 C :   -0.187999
  21 H :    0.021595
  22 C :    0.096116
  23 H :    0.022615
  24 H :    0.016269
  25 C :   -0.091172
  26 H :    0.035445
  27 H :    0.045798
  28 C :   -0.038502
  29 H :    0.027920
  30 H :    0.021467
  31 H :    0.015951
  32 H :    0.033462
  33 H :    0.056239
Sum of atomic charges:   -0.0000000

LOEWDIN ATOMIC CHARGES
----------------------
   0 S :    0.384608
   1 C :   -0.168610
   2 C :   -0.055239
   3 C :   -0.048635
   4 C :   -0.185779
   5 H :    0.033770
   6 C :   -0.022295
   7 H :    0.025412
   8 H :    0.025526
   9 C :   -0.047643
  10 H :    0.027954
  11 H :    0.023147
  12 C :   -0.075324
  13 H :    0.023002
  14 H :    0.030708
  15 H :    0.037271
  16 S :    0.431011
  17 C :   -0.205995
  18 C :   -0.078752
  19 C :   -0.055955
  20 C :   -0.213427
  21 H :    0.034673
  22 C :   -0.035153
  23 H :    0.029354
  24 H :    0.030059
  25 C :   -0.042382
  26 H :    0.024681
  27 H :    0.035435
  28 C :   -0.073422
  29 H :    0.028892
  30 H :    0.025602
  31 H :    0.007184
  32 H :    0.017598
  33 H :    0.032723

  Mayer bond orders larger than 0.100000
B(  0-S ,  1-C ) :   1.1113 B(  0-S ,  4-C ) :   1.1490 B(  1-C ,  2-C ) :   1.6514
B(  1-C , 32-H ) :   0.9671 B(  2-C ,  3-C ) :   1.2209 B(  2-C ,  6-C ) :   1.0053
B(  3-C ,  4-C ) :   1.5649 B(  3-C ,  5-H ) :   0.9995 B(  4-C , 20-C ) :   1.0488
B(  6-C ,  7-H ) :   0.9446 B(  6-C ,  8-H ) :   0.9388 B(  6-C ,  9-C ) :   1.0698
B(  9-C , 10-H ) :   0.9666 B(  9-C , 11-H ) :   0.9555 B(  9-C , 12-C ) :   1.0623
B( 12-C , 13-H ) :   0.9705 B( 12-C , 14-H ) :   0.9754 B( 12-C , 15-H ) :   0.9794
B( 16-S , 17-C ) :   1.1905 B( 16-S , 20-C ) :   1.1430 B( 17-C , 18-C ) :   1.5735
B( 17-C , 20-C ) :   0.1046 B( 17-C , 33-H ) :   0.9639 B( 18-C , 19-C ) :   1.2633
B( 18-C , 21-H ) :   0.9957 B( 19-C , 20-C ) :   1.5561 B( 19-C , 22-C ) :   1.0474
B( 22-C , 23-H ) :   0.9395 B( 22-C , 24-H ) :   0.9282 B( 22-C , 25-C ) :   1.0492
B( 25-C , 26-H ) :   0.9595 B( 25-C , 27-H ) :   0.9591 B( 25-C , 28-C ) :   1.0729
B( 28-C , 29-H ) :   0.9669 B( 28-C , 30-H ) :   0.9707 B( 28-C , 31-H ) :   0.9753

Dispersion correction           -0.015711573
FINAL SINGLE POINT ENERGY     -1339.862380693485

DIPOLE MOMENT
-------------
                                X             Y             Z
Electronic contribution:     -5.34714      -7.27858      16.39987
Nuclear contribution   :      5.41886       7.17530     -16.88889
                        -----------------------------------------
Total Dipole Moment    :      0.07172      -0.10328      -0.48902
                        -----------------------------------------
Magnitude (a.u.)       :      0.50493
Magnitude (Debye)      :      1.28342

Rotational constants in cm-1:     0.020462     0.008524     0.007772
Rotational constants in MHz :   613.432893   255.554769   232.999295

                             ****ORCA TERMINATED NORMALLY****
TOTAL RUN TIME: 0 days 0 hours 0 minutes 21 seconds 81 msec
