                         Program Version 4.2.1 -  RELEASE  -
|  1> ! wB97X-D3 SP def2-SVP
|  2> %pal
|  3> nprocs 24
|  4> end
|  5>
|  6> * xyz 0 1
|  7> S 	 9.17246 	 -18.2419 	 -113.67
|  8> C 	 7.74674 	 -17.6404 	 -114.51
|  9> C 	 6.56674 	 -18.2035 	 -114.011
| 10> C 	 6.83664 	 -19.1359 	 -112.958
| 11> C 	 8.14647 	 -19.2436 	 -112.613
| 12> H 	 6.0775 	 -19.5901 	 -112.319
| 13> C 	 5.17839 	 -17.9725 	 -114.528
| 14> H 	 4.99537 	 -16.895 	 -114.307
| 15> H 	 4.47964 	 -18.4875 	 -113.922
| 16> C 	 5.01781 	 -18.2374 	 -115.966
| 17> H 	 5.64958 	 -17.5329 	 -116.486
| 18> H 	 5.56542 	 -19.1863 	 -116.173
| 19> C 	 3.60338 	 -18.0908 	 -116.377
| 20> H 	 3.43326 	 -17.8132 	 -117.414
| 21> H 	 3.13642 	 -18.9476 	 -116.121
| 22> H 	 3.07713 	 -17.2985 	 -115.886
| 23> S 	 8.32415 	 -21.6628 	 -111.347
| 24> C 	 9.09837 	 -21.8368 	 -109.77
| 25> C 	 9.5122 	 -20.6035 	 -109.308
| 26> C 	 9.33876 	 -19.5257 	 -110.288
| 27> C 	 8.65576 	 -19.9245 	 -111.456
| 28> H 	 9.88712 	 -20.6309 	 -108.311
| 29> C 	 9.87594 	 -18.1606 	 -109.986
| 30> H 	 9.99172 	 -17.5775 	 -110.944
| 31> H 	 10.9066 	 -18.351 	 -109.603
| 32> C 	 9.17928 	 -17.4268 	 -108.859
| 33> H 	 9.8814 	 -16.6561 	 -108.593
| 34> H 	 8.9638 	 -18.1593 	 -108.059
| 35> C 	 7.81424 	 -16.7614 	 -109.185
| 36> H 	 7.06304 	 -17.5624 	 -109.211
| 37> H 	 7.93292 	 -16.2318 	 -110.176
| 38> H 	 7.57355 	 -16.1029 	 -108.319
| 39> H 	 7.68127 	 -16.8696 	 -115.323
| 40> H 	 9.31697 	 -22.7882 	 -109.179
| 41> *
| 42>
| 43>                          ****END OF INPUT****

CARTESIAN COORDINATES (ANGSTROEM)
---------------------------------
  S      9.172460  -18.241900  -113.670000
  C      7.746740  -17.640400  -114.510000
  C      6.566740  -18.203500  -114.011000
  C      6.836640  -19.135900  -112.958000
  C      8.146470  -19.243600  -112.613000
  H      6.077500  -19.590100  -112.319000
  C      5.178390  -17.972500  -114.528000
  H      4.995370  -16.895000  -114.307000
  H      4.479640  -18.487500  -113.922000
  C      5.017810  -18.237400  -115.966000
  H      5.649580  -17.532900  -116.486000
  H      5.565420  -19.186300  -116.173000
  C      3.603380  -18.090800  -116.377000
  H      3.433260  -17.813200  -117.414000
  H      3.136420  -18.947600  -116.121000
  H      3.077130  -17.298500  -115.886000
  S      8.324150  -21.662800  -111.347000
  C      9.098370  -21.836800  -109.770000
  C      9.512200  -20.603500  -109.308000
  C      9.338760  -19.525700  -110.288000
  C      8.655760  -19.924500  -111.456000
  H      9.887120  -20.630900  -108.311000
  C      9.875940  -18.160600  -109.986000
  H      9.991720  -17.577500  -110.944000
  H     10.906600  -18.351000  -109.603000
  C      9.179280  -17.426800  -108.859000
  H      9.881400  -16.656100  -108.593000
  H      8.963800  -18.159300  -108.059000
  C      7.814240  -16.761400  -109.185000
  H      7.063040  -17.562400  -109.211000
  H      7.932920  -16.231800  -110.176000
  H      7.573550  -16.102900  -108.319000
  H      7.681270  -16.869600  -115.323000
  H      9.316970  -22.788200  -109.179000

 Total Charge           Charge          ....    0
 Multiplicity           Mult            ....    1
 Number of Electrons    NEL             ....  134
 Basis Dimension        Dim             ....  322

ORBITAL ENERGIES
----------------

  NO   OCC          E(Eh)            E(eV)
   0   2.0000     -88.970968     -2421.0231
   1   2.0000     -88.962331     -2420.7881
   2   2.0000     -10.329652      -281.0841
   3   2.0000     -10.329282      -281.0740
   4   2.0000     -10.323625      -280.9201
   5   2.0000     -10.319756      -280.8148
   6   2.0000     -10.309887      -280.5463
   7   2.0000     -10.300213      -280.2831
   8   2.0000     -10.295073      -280.1432
   9   2.0000     -10.292472      -280.0724
  10   2.0000     -10.290290      -280.0130
  11   2.0000     -10.284680      -279.8604
  12   2.0000     -10.282312      -279.7959
  13   2.0000     -10.279970      -279.7322
  14   2.0000     -10.279533      -279.7203
  15   2.0000     -10.265471      -279.3377
  16   2.0000      -8.084396      -219.9876
  17   2.0000      -8.076421      -219.7706
  18   2.0000      -6.043047      -164.4397
  19   2.0000      -6.039057      -164.3311
  20   2.0000      -6.035105      -164.2236
  21   2.0000      -6.035101      -164.2234
  22   2.0000      -6.030924      -164.1098
  23   2.0000      -6.027103      -164.0058
  24   2.0000      -1.002533       -27.2803
  25   2.0000      -0.978382       -26.6231
  26   2.0000      -0.927743       -25.2452
  27   2.0000      -0.907335       -24.6898
  28   2.0000      -0.873279       -23.7631
  29   2.0000      -0.854063       -23.2402
  30   2.0000      -0.839149       -22.8344
  31   2.0000      -0.816481       -22.2176
  32   2.0000      -0.784085       -21.3360
  33   2.0000      -0.767730       -20.8910
  34   2.0000      -0.713566       -19.4171
  35   2.0000      -0.702782       -19.1237
  36   2.0000      -0.682218       -18.5641
  37   2.0000      -0.654068       -17.7981
  38   2.0000      -0.635015       -17.2796
  39   2.0000      -0.617211       -16.7952
  40   2.0000      -0.593665       -16.1544
  41   2.0000      -0.581616       -15.8266
  42   2.0000      -0.567484       -15.4420
  43   2.0000      -0.544610       -14.8196
  44   2.0000      -0.538710       -14.6590
  45   2.0000      -0.525534       -14.3005
  46   2.0000      -0.521045       -14.1784
  47   2.0000      -0.518122       -14.0988
  48   2.0000      -0.512016       -13.9327
  49   2.0000      -0.500888       -13.6299
  50   2.0000      -0.491117       -13.3640
  51   2.0000      -0.473186       -12.8760
  52   2.0000      -0.471351       -12.8261
  53   2.0000      -0.462286       -12.5794
  54   2.0000      -0.457696       -12.4545
  55   2.0000      -0.451738       -12.2924
  56   2.0000      -0.438186       -11.9236
  57   2.0000      -0.434706       -11.8289
  58   2.0000      -0.432419       -11.7667
  59   2.0000      -0.425625       -11.5819
  60   2.0000      -0.415563       -11.3080
  61   2.0000      -0.411294       -11.1919
  62   2.0000      -0.405545       -11.0355
  63   2.0000      -0.347541        -9.4571
  64   2.0000      -0.331447        -9.0191
  65   2.0000      -0.322102        -8.7648
  66   2.0000      -0.293146        -7.9769
  67   0.0000       0.031409         0.8547
  68   0.0000       0.065870         1.7924
  69   0.0000       0.108523         2.9531
  70   0.0000       0.117476         3.1967
  71   0.0000       0.122576         3.3355

MULLIKEN ATOMIC CHARGES
-----------------------
   0 S :    0.118717
   1 C :   -0.142806
   2 C :   -0.116524
   3 C :    0.028627
   4 C :   -0.142142
   5 H :    0.022652
   6 C :    0.089877
   7 H :    0.032847
   8 H :    0.000224
   9 C :   -0.081346
  10 H :    0.008604
  11 H :    0.039721
  12 C :    0.037308
  13 H :    0.027376
  14 H :    0.010941
  15 H :    0.010995
  16 S :    0.094695
  17 C :   -0.120352
  18 C :   -0.047322
  19 C :   -0.026246
  20 C :   -0.163591
  21 H :    0.017966
  22 C :    0.049000
  23 H :    0.029398
  24 H :    0.032943
  25 C :   -0.085160
  26 H :    0.029514
  27 H :    0.030713
  28 C :   -0.064214
  29 H :    0.038280
  30 H :    0.047980
  31 H :    0.043697
  32 H :    0.062602
  33 H :    0.085025
Sum of atomic charges:    0.0000000

LOEWDIN ATOMIC CHARGES
----------------------
   0 S :    0.398180
   1 C :   -0.207261
   2 C :   -0.059387
   3 C :   -0.060673
   4 C :   -0.188861
   5 H :    0.035269
   6 C :   -0.031499
   7 H :    0.038148
   8 H :    0.020714
   9 C :   -0.045043
  10 H :    0.018611
  11 H :    0.032428
  12 C :   -0.053028
  13 H :    0.029950
  14 H :    0.014955
  15 H :    0.026454
  16 S :    0.388682
  17 C :   -0.193369
  18 C :   -0.078051
  19 C :   -0.052307
  20 C :   -0.196674
  21 H :    0.029548
  22 C :   -0.044381
  23 H :    0.026395
  24 H :    0.039174
  25 C :   -0.043287
  26 H :    0.021652
  27 H :    0.026508
  28 C :   -0.069618
  29 H :    0.025264
  30 H :    0.032435
  31 H :    0.030465
  32 H :    0.038231
  33 H :    0.050374

  Mayer bond orders larger than 0.100000
B(  0-S ,  1-C ) :   1.1308 B(  0-S ,  4-C ) :   1.1242 B(  1-C ,  2-C ) :   1.6179
B(  1-C , 32-H ) :   0.9599 B(  2-C ,  3-C ) :   1.2455 B(  2-C ,  6-C ) :   1.0175
B(  3-C ,  4-C ) :   1.5958 B(  3-C ,  5-H ) :   0.9843 B(  4-C , 20-C ) :   1.0464
B(  6-C ,  7-H ) :   0.9179 B(  6-C ,  8-H ) :   0.9446 B(  6-C ,  9-C ) :   1.0725
B(  9-C , 10-H ) :   0.9442 B(  9-C , 11-H ) :   0.9594 B(  9-C , 12-C ) :   1.0783
B( 12-C , 13-H ) :   0.9695 B( 12-C , 14-H ) :   0.9719 B( 12-C , 15-H ) :   0.9649
B( 16-S , 17-C ) :   1.1439 B( 16-S , 20-C ) :   1.1244 B( 17-C , 18-C ) :   1.6466
B( 17-C , 33-H ) :   0.9553 B( 18-C , 19-C ) :   1.1997 B( 18-C , 21-H ) :   0.9910
B( 19-C , 20-C ) :   1.5868 B( 19-C , 22-C ) :   1.0519 B( 22-C , 23-H ) :   0.9322
B( 22-C , 24-H ) :   0.9269 B( 22-C , 25-C ) :   1.0753 B( 25-C , 26-H ) :   0.9550
B( 25-C , 27-H ) :   0.9561 B( 25-C , 28-C ) :   1.0711 B( 28-C , 29-H ) :   0.9781
B( 28-C , 30-H ) :   0.9752 B( 28-C , 31-H ) :   0.9739

Dispersion correction           -0.014409417
FINAL SINGLE POINT ENERGY     -1339.868099142669

DIPOLE MOMENT
-------------
                                X             Y             Z
Electronic contribution:     14.57565     -14.55905       0.34334
Nuclear contribution   :    -14.89033      14.88076      -0.09719
                        -----------------------------------------
Total Dipole Moment    :     -0.31468       0.32171       0.24615
                        -----------------------------------------
Magnitude (a.u.)       :      0.51294
Magnitude (Debye)      :      1.30379

Rotational constants in cm-1:     0.021820     0.007549     0.006726
Rotational constants in MHz :   654.136319   226.314878   201.628928

                             ****ORCA TERMINATED NORMALLY****
TOTAL RUN TIME: 0 days 0 hours 0 minutes 20 seconds 433 msec
