                         Program Version 4.2.1 -  RELEASE  -
|  1> ! wB97X-D3 SP def2-SVP
|  2> %pal
|  3> nprocs 24
|  4> end
|  5>
|  6> * xyz 0 1
|  7> S 	 -43.5717 	 8.50316 	 29.8733
|  8> C 	 -45.2009 	 8.10955 	 30.4627
|  9> C 	 -46.1275 	 8.91238 	 29.857
| 10> C 	 -45.5608 	 9.8859 	 29.0508
| 11> C 	 -44.1676 	 9.82402 	 28.986
| 12> H 	 -46.0531 	 10.5934 	 28.4573
| 13> C 	 -47.5915 	 8.78042 	 30.0364
| 14> H 	 -47.88 	 7.90006 	 29.548
| 15> H 	 -47.986 	 9.62722 	 29.5084
| 16> C 	 -48.157 	 8.78361 	 31.4799
| 17> H 	 -49.3124 	 8.72432 	 31.3507
| 18> H 	 -47.7878 	 7.88661 	 32.0431
| 19> C 	 -47.7926 	 10.0239 	 32.3293
| 20> H 	 -48.0969 	 9.83723 	 33.3283
| 21> H 	 -46.6869 	 10.1717 	 32.2866
| 22> H 	 -48.133 	 10.9832 	 31.9251
| 23> S 	 -41.9242 	 9.78199 	 27.4182
| 24> C 	 -41.246 	 11.3023 	 26.8638
| 25> C 	 -42.0195 	 12.3483 	 27.2288
| 26> C 	 -43.08 	 12.0811 	 28.1188
| 27> C 	 -43.1647 	 10.692 	 28.3569
| 28> H 	 -41.7913 	 13.3203 	 26.8295
| 29> C 	 -44.1163 	 13.0783 	 28.6961
| 30> H 	 -43.6251 	 13.7583 	 29.3943
| 31> H 	 -44.8938 	 12.5985 	 29.3776
| 32> C 	 -44.9519 	 13.8519 	 27.6341
| 33> H 	 -44.2677 	 14.489 	 27.0355
| 34> H 	 -45.5551 	 14.592 	 28.2166
| 35> C 	 -45.8153 	 12.9361 	 26.679
| 36> H 	 -45.3382 	 12.0965 	 26.219
| 37> H 	 -46.1145 	 13.5205 	 25.8699
| 38> H 	 -46.6401 	 12.6654 	 27.2766
| 39> H 	 -45.441 	 7.3252 	 31.1698
| 40> H 	 -40.6511 	 11.4742 	 26.0629
| 41> *
| 42>
| 43>                          ****END OF INPUT****

CARTESIAN COORDINATES (ANGSTROEM)
---------------------------------
  S    -43.571700    8.503160   29.873300
  C    -45.200900    8.109550   30.462700
  C    -46.127500    8.912380   29.857000
  C    -45.560800    9.885900   29.050800
  C    -44.167600    9.824020   28.986000
  H    -46.053100   10.593400   28.457300
  C    -47.591500    8.780420   30.036400
  H    -47.880000    7.900060   29.548000
  H    -47.986000    9.627220   29.508400
  C    -48.157000    8.783610   31.479900
  H    -49.312400    8.724320   31.350700
  H    -47.787800    7.886610   32.043100
  C    -47.792600   10.023900   32.329300
  H    -48.096900    9.837230   33.328300
  H    -46.686900   10.171700   32.286600
  H    -48.133000   10.983200   31.925100
  S    -41.924200    9.781990   27.418200
  C    -41.246000   11.302300   26.863800
  C    -42.019500   12.348300   27.228800
  C    -43.080000   12.081100   28.118800
  C    -43.164700   10.692000   28.356900
  H    -41.791300   13.320300   26.829500
  C    -44.116300   13.078300   28.696100
  H    -43.625100   13.758300   29.394300
  H    -44.893800   12.598500   29.377600
  C    -44.951900   13.851900   27.634100
  H    -44.267700   14.489000   27.035500
  H    -45.555100   14.592000   28.216600
  C    -45.815300   12.936100   26.679000
  H    -45.338200   12.096500   26.219000
  H    -46.114500   13.520500   25.869900
  H    -46.640100   12.665400   27.276600
  H    -45.441000    7.325200   31.169800
  H    -40.651100   11.474200   26.062900

 Total Charge           Charge          ....    0
 Multiplicity           Mult            ....    1
 Number of Electrons    NEL             ....  134
 Basis Dimension        Dim             ....  322

ORBITAL ENERGIES
----------------

  NO   OCC          E(Eh)            E(eV)
   0   2.0000     -88.966737     -2420.9080
   1   2.0000     -88.965110     -2420.8637
   2   2.0000     -10.334247      -281.2091
   3   2.0000     -10.326978      -281.0114
   4   2.0000     -10.309189      -280.5273
   5   2.0000     -10.309017      -280.5226
   6   2.0000     -10.306178      -280.4453
   7   2.0000     -10.301551      -280.3195
   8   2.0000     -10.300646      -280.2948
   9   2.0000     -10.298515      -280.2368
  10   2.0000     -10.291847      -280.0554
  11   2.0000     -10.290569      -280.0206
  12   2.0000     -10.285956      -279.8951
  13   2.0000     -10.283185      -279.8197
  14   2.0000     -10.277000      -279.6514
  15   2.0000     -10.273284      -279.5503
  16   2.0000      -8.080617      -219.8848
  17   2.0000      -8.080380      -219.8783
  18   2.0000      -6.039174      -164.3343
  19   2.0000      -6.038740      -164.3225
  20   2.0000      -6.035338      -164.2299
  21   2.0000      -6.034692      -164.2123
  22   2.0000      -6.031372      -164.1220
  23   2.0000      -6.031268      -164.1192
  24   2.0000      -1.010232       -27.4898
  25   2.0000      -0.985659       -26.8211
  26   2.0000      -0.915731       -24.9183
  27   2.0000      -0.901439       -24.5294
  28   2.0000      -0.867867       -23.6159
  29   2.0000      -0.849628       -23.1196
  30   2.0000      -0.844379       -22.9767
  31   2.0000      -0.816336       -22.2136
  32   2.0000      -0.789913       -21.4946
  33   2.0000      -0.780043       -21.2260
  34   2.0000      -0.709162       -19.2973
  35   2.0000      -0.702493       -19.1158
  36   2.0000      -0.695478       -18.9249
  37   2.0000      -0.656584       -17.8666
  38   2.0000      -0.640089       -17.4177
  39   2.0000      -0.616032       -16.7631
  40   2.0000      -0.597425       -16.2568
  41   2.0000      -0.573502       -15.6058
  42   2.0000      -0.559896       -15.2356
  43   2.0000      -0.553587       -15.0639
  44   2.0000      -0.541813       -14.7435
  45   2.0000      -0.534873       -14.5546
  46   2.0000      -0.519692       -14.1415
  47   2.0000      -0.513092       -13.9620
  48   2.0000      -0.499867       -13.6021
  49   2.0000      -0.496981       -13.5235
  50   2.0000      -0.491934       -13.3862
  51   2.0000      -0.482003       -13.1160
  52   2.0000      -0.477268       -12.9871
  53   2.0000      -0.466870       -12.7042
  54   2.0000      -0.458587       -12.4788
  55   2.0000      -0.450611       -12.2617
  56   2.0000      -0.440480       -11.9861
  57   2.0000      -0.438406       -11.9296
  58   2.0000      -0.435984       -11.8637
  59   2.0000      -0.428122       -11.6498
  60   2.0000      -0.418699       -11.3934
  61   2.0000      -0.412804       -11.2330
  62   2.0000      -0.412258       -11.2181
  63   2.0000      -0.349520        -9.5109
  64   2.0000      -0.334915        -9.1135
  65   2.0000      -0.333339        -9.0706
  66   2.0000      -0.286113        -7.7855
  67   0.0000       0.024327         0.6620
  68   0.0000       0.068295         1.8584
  69   0.0000       0.101364         2.7583
  70   0.0000       0.124975         3.4007
  71   0.0000       0.131749         3.5851

MULLIKEN ATOMIC CHARGES
-----------------------
   0 S :    0.111595
   1 C :   -0.135399
   2 C :   -0.094460
   3 C :    0.047659
   4 C :   -0.139142
   5 H :   -0.044187
   6 C :    0.135814
   7 H :    0.031455
   8 H :    0.004809
   9 C :   -0.132083
  10 H :    0.048320
  11 H :    0.037179
  12 C :   -0.045247
  13 H :    0.037368
  14 H :    0.041579
  15 H :    0.026760
  16 S :    0.085665
  17 C :   -0.009914
  18 C :   -0.076153
  19 C :   -0.000411
  20 C :   -0.152243
  21 H :    0.012214
  22 C :    0.034397
  23 H :    0.036315
  24 H :    0.035155
  25 C :   -0.117588
  26 H :    0.027180
  27 H :    0.037032
  28 C :   -0.008916
  29 H :    0.046928
  30 H :    0.019762
  31 H :    0.035569
  32 H :    0.041811
  33 H :    0.021173
Sum of atomic charges:    0.0000000

LOEWDIN ATOMIC CHARGES
----------------------
   0 S :    0.426009
   1 C :   -0.195198
   2 C :   -0.066868
   3 C :   -0.068757
   4 C :   -0.202198
   5 H :    0.018608
   6 C :   -0.027725
   7 H :    0.030412
   8 H :    0.026822
   9 C :   -0.042968
  10 H :    0.034522
  11 H :    0.025000
  12 C :   -0.069725
  13 H :    0.022723
  14 H :    0.032084
  15 H :    0.023774
  16 S :    0.380901
  17 C :   -0.174981
  18 C :   -0.063096
  19 C :   -0.056482
  20 C :   -0.174469
  21 H :    0.028926
  22 C :   -0.038208
  23 H :    0.031589
  24 H :    0.037049
  25 C :   -0.039398
  26 H :    0.017425
  27 H :    0.029402
  28 C :   -0.056159
  29 H :    0.029085
  30 H :    0.022423
  31 H :    0.020295
  32 H :    0.026186
  33 H :    0.012996

  Mayer bond orders larger than 0.100000
B(  0-S ,  1-C ) :   1.1349 B(  0-S ,  4-C ) :   1.1934 B(  1-C ,  2-C ) :   1.5743
B(  1-C ,  4-C ) :   0.1071 B(  1-C , 32-H ) :   0.9766 B(  2-C ,  3-C ) :   1.2722
B(  2-C ,  6-C ) :   1.0105 B(  3-C ,  4-C ) :   1.5276 B(  3-C ,  5-H ) :   1.0076
B(  4-C , 20-C ) :   1.0107 B(  6-C ,  7-H ) :   0.9279 B(  6-C ,  8-H ) :   0.9364
B(  6-C ,  9-C ) :   1.0746 B(  9-C , 10-H ) :   0.9562 B(  9-C , 11-H ) :   0.9546
B(  9-C , 12-C ) :   1.0726 B( 12-C , 13-H ) :   0.9753 B( 12-C , 14-H ) :   0.9710
B( 12-C , 15-H ) :   0.9752 B( 16-S , 17-C ) :   1.1257 B( 16-S , 20-C ) :   1.1455
B( 17-C , 18-C ) :   1.6497 B( 17-C , 33-H ) :   0.9660 B( 18-C , 19-C ) :   1.2353
B( 18-C , 21-H ) :   0.9861 B( 19-C , 20-C ) :   1.5901 B( 19-C , 22-C ) :   1.0253
B( 22-C , 23-H ) :   0.9354 B( 22-C , 24-H ) :   0.9438 B( 22-C , 25-C ) :   1.0663
B( 25-C , 26-H ) :   0.9615 B( 25-C , 27-H ) :   0.9587 B( 25-C , 28-C ) :   1.0599
B( 28-C , 29-H ) :   0.9758 B( 28-C , 30-H ) :   0.9701 B( 28-C , 31-H ) :   0.9708

Dispersion correction           -0.015313326
FINAL SINGLE POINT ENERGY     -1339.867181024985

DIPOLE MOMENT
-------------
                                X             Y             Z
Electronic contribution:     24.18529     -13.47171      -5.26325
Nuclear contribution   :    -24.79686      13.94998       5.11894
                        -----------------------------------------
Total Dipole Moment    :     -0.61157       0.47828      -0.14432
                        -----------------------------------------
Magnitude (a.u.)       :      0.78968
Magnitude (Debye)      :      2.00722

Rotational constants in cm-1:     0.020396     0.009210     0.006987
Rotational constants in MHz :   611.468915   276.104588   209.455318

                             ****ORCA TERMINATED NORMALLY****
TOTAL RUN TIME: 0 days 0 hours 0 minutes 22 seconds 375 msec
