                         Program Version 4.2.1 -  RELEASE  -
|  1> ! wB97X-D3 SP def2-SVP
|  2> %pal
|  3> nprocs 24
|  4> end
|  5>
|  6> * xyz 0 1
|  7> S 	 -41.9928 	 -7.91858 	 3.69006
|  8> C 	 -42.8583 	 -9.20712 	 4.48919
|  9> C 	 -43.5473 	 -8.82013 	 5.6098
| 10> C 	 -43.2862 	 -7.46244 	 5.92717
| 11> C 	 -42.5284 	 -6.81151 	 4.94316
| 12> H 	 -43.6669 	 -6.94287 	 6.82054
| 13> C 	 -44.2298 	 -9.79412 	 6.58784
| 14> H 	 -45.0078 	 -10.3835 	 6.06978
| 15> H 	 -44.7826 	 -9.3577 	 7.39421
| 16> C 	 -43.3118 	 -10.807 	 7.28379
| 17> H 	 -43.9401 	 -11.4949 	 7.89033
| 18> H 	 -42.9348 	 -11.499 	 6.50207
| 19> C 	 -42.0923 	 -10.2487 	 8.07427
| 20> H 	 -42.3867 	 -9.39564 	 8.7405
| 21> H 	 -41.724 	 -11.0961 	 8.70378
| 22> H 	 -41.3617 	 -9.80101 	 7.39896
| 23> S 	 -41.952 	 -4.52482 	 3.63799
| 24> C 	 -41.1208 	 -3.21889 	 4.45724
| 25> C 	 -40.7528 	 -3.63569 	 5.73738
| 26> C 	 -41.1492 	 -4.98991 	 6.04455
| 27> C 	 -41.95 	 -5.51428 	 5.07446
| 28> H 	 -40.332 	 -2.99189 	 6.56154
| 29> C 	 -40.7177 	 -5.64385 	 7.35285
| 30> H 	 -39.7837 	 -5.28463 	 7.52345
| 31> H 	 -40.5425 	 -6.73588 	 7.17884
| 32> C 	 -41.6177 	 -5.36416 	 8.60412
| 33> H 	 -42.1845 	 -6.25033 	 8.74728
| 34> H 	 -42.2936 	 -4.48569 	 8.65073
| 35> C 	 -40.7506 	 -5.17748 	 9.85403
| 36> H 	 -40.0529 	 -4.36573 	 9.80204
| 37> H 	 -40.0854 	 -6.02933 	 10.0541
| 38> H 	 -41.4436 	 -5.06978 	 10.7162
| 39> H 	 -42.8977 	 -10.2438 	 4.14191
| 40> H 	 -41.0954 	 -2.1773 	 4.16416
| 41> *
| 42>
| 43>                          ****END OF INPUT****

CARTESIAN COORDINATES (ANGSTROEM)
---------------------------------
  S    -41.992800   -7.918580    3.690060
  C    -42.858300   -9.207120    4.489190
  C    -43.547300   -8.820130    5.609800
  C    -43.286200   -7.462440    5.927170
  C    -42.528400   -6.811510    4.943160
  H    -43.666900   -6.942870    6.820540
  C    -44.229800   -9.794120    6.587840
  H    -45.007800  -10.383500    6.069780
  H    -44.782600   -9.357700    7.394210
  C    -43.311800  -10.807000    7.283790
  H    -43.940100  -11.494900    7.890330
  H    -42.934800  -11.499000    6.502070
  C    -42.092300  -10.248700    8.074270
  H    -42.386700   -9.395640    8.740500
  H    -41.724000  -11.096100    8.703780
  H    -41.361700   -9.801010    7.398960
  S    -41.952000   -4.524820    3.637990
  C    -41.120800   -3.218890    4.457240
  C    -40.752800   -3.635690    5.737380
  C    -41.149200   -4.989910    6.044550
  C    -41.950000   -5.514280    5.074460
  H    -40.332000   -2.991890    6.561540
  C    -40.717700   -5.643850    7.352850
  H    -39.783700   -5.284630    7.523450
  H    -40.542500   -6.735880    7.178840
  C    -41.617700   -5.364160    8.604120
  H    -42.184500   -6.250330    8.747280
  H    -42.293600   -4.485690    8.650730
  C    -40.750600   -5.177480    9.854030
  H    -40.052900   -4.365730    9.802040
  H    -40.085400   -6.029330   10.054100
  H    -41.443600   -5.069780   10.716200
  H    -42.897700  -10.243800    4.141910
  H    -41.095400   -2.177300    4.164160

 Total Charge           Charge          ....    0
 Multiplicity           Mult            ....    1
 Number of Electrons    NEL             ....  134
 Basis Dimension        Dim             ....  322

ORBITAL ENERGIES
----------------

  NO   OCC          E(Eh)            E(eV)
   0   2.0000     -88.971686     -2421.0427
   1   2.0000     -88.962528     -2420.7935
   2   2.0000     -10.326777      -281.0059
   3   2.0000     -10.319265      -280.8015
   4   2.0000     -10.319171      -280.7989
   5   2.0000     -10.313929      -280.6563
   6   2.0000     -10.301313      -280.3130
   7   2.0000     -10.299932      -280.2754
   8   2.0000     -10.299410      -280.2612
   9   2.0000     -10.297490      -280.2090
  10   2.0000     -10.293926      -280.1120
  11   2.0000     -10.292124      -280.0629
  12   2.0000     -10.289946      -280.0037
  13   2.0000     -10.289736      -279.9979
  14   2.0000     -10.286071      -279.8982
  15   2.0000     -10.279090      -279.7082
  16   2.0000      -8.086152      -220.0354
  17   2.0000      -8.077651      -219.8040
  18   2.0000      -6.044647      -164.4832
  19   2.0000      -6.040775      -164.3778
  20   2.0000      -6.036865      -164.2714
  21   2.0000      -6.036252      -164.2548
  22   2.0000      -6.032106      -164.1419
  23   2.0000      -6.028281      -164.0379
  24   2.0000      -1.009640       -27.4737
  25   2.0000      -0.983854       -26.7720
  26   2.0000      -0.909328       -24.7441
  27   2.0000      -0.907677       -24.6991
  28   2.0000      -0.868489       -23.6328
  29   2.0000      -0.853377       -23.2216
  30   2.0000      -0.845257       -23.0006
  31   2.0000      -0.808930       -22.0121
  32   2.0000      -0.784558       -21.3489
  33   2.0000      -0.773743       -21.0546
  34   2.0000      -0.708359       -19.2754
  35   2.0000      -0.699221       -19.0268
  36   2.0000      -0.694538       -18.8994
  37   2.0000      -0.665101       -18.0983
  38   2.0000      -0.636934       -17.3318
  39   2.0000      -0.612866       -16.6769
  40   2.0000      -0.595274       -16.1982
  41   2.0000      -0.571576       -15.5534
  42   2.0000      -0.559026       -15.2119
  43   2.0000      -0.546867       -14.8810
  44   2.0000      -0.539805       -14.6888
  45   2.0000      -0.530137       -14.4258
  46   2.0000      -0.517454       -14.0806
  47   2.0000      -0.505988       -13.7686
  48   2.0000      -0.502867       -13.6837
  49   2.0000      -0.498714       -13.5707
  50   2.0000      -0.494227       -13.4486
  51   2.0000      -0.474990       -12.9251
  52   2.0000      -0.471221       -12.8226
  53   2.0000      -0.467063       -12.7094
  54   2.0000      -0.461208       -12.5501
  55   2.0000      -0.447573       -12.1791
  56   2.0000      -0.443763       -12.0754
  57   2.0000      -0.438197       -11.9239
  58   2.0000      -0.435007       -11.8371
  59   2.0000      -0.426072       -11.5940
  60   2.0000      -0.422954       -11.5092
  61   2.0000      -0.415311       -11.3012
  62   2.0000      -0.411486       -11.1971
  63   2.0000      -0.345446        -9.4001
  64   2.0000      -0.337872        -9.1940
  65   2.0000      -0.327542        -8.9129
  66   2.0000      -0.290667        -7.9095
  67   0.0000       0.032046         0.8720
  68   0.0000       0.060989         1.6596
  69   0.0000       0.107684         2.9302
  70   0.0000       0.115994         3.1563
  71   0.0000       0.124969         3.4006

MULLIKEN ATOMIC CHARGES
-----------------------
   0 S :    0.130558
   1 C :   -0.137025
   2 C :   -0.050455
   3 C :   -0.012491
   4 C :   -0.128059
   5 H :    0.025780
   6 C :    0.066866
   7 H :    0.030974
   8 H :    0.014626
   9 C :   -0.105407
  10 H :    0.029362
  11 H :    0.022145
  12 C :   -0.066223
  13 H :    0.029276
  14 H :    0.050813
  15 H :    0.051408
  16 S :    0.093365
  17 C :   -0.080434
  18 C :   -0.055285
  19 C :   -0.060989
  20 C :   -0.175003
  21 H :    0.038966
  22 C :    0.105149
  23 H :   -0.010035
  24 H :    0.043418
  25 C :   -0.050285
  26 H :    0.026298
  27 H :    0.046509
  28 C :   -0.081771
  29 H :    0.028259
  30 H :    0.026734
  31 H :    0.037510
  32 H :    0.050672
  33 H :    0.064775
Sum of atomic charges:    0.0000000

LOEWDIN ATOMIC CHARGES
----------------------
   0 S :    0.414376
   1 C :   -0.197572
   2 C :   -0.067305
   3 C :   -0.059474
   4 C :   -0.196589
   5 H :    0.036563
   6 C :   -0.034520
   7 H :    0.036063
   8 H :    0.024495
   9 C :   -0.047014
  10 H :    0.025137
  11 H :    0.020469
  12 C :   -0.072486
  13 H :    0.024597
  14 H :    0.035530
  15 H :    0.028158
  16 S :    0.399816
  17 C :   -0.188839
  18 C :   -0.073998
  19 C :   -0.055778
  20 C :   -0.203394
  21 H :    0.038812
  22 C :   -0.022623
  23 H :    0.014123
  24 H :    0.042571
  25 C :   -0.037610
  26 H :    0.019238
  27 H :    0.032234
  28 C :   -0.067600
  29 H :    0.017534
  30 H :    0.022971
  31 H :    0.029297
  32 H :    0.029739
  33 H :    0.033079

  Mayer bond orders larger than 0.100000
B(  0-S ,  1-C ) :   1.1441 B(  0-S ,  4-C ) :   1.1509 B(  1-C ,  2-C ) :   1.6093
B(  1-C , 32-H ) :   0.9630 B(  2-C ,  3-C ) :   1.2426 B(  2-C ,  6-C ) :   1.0210
B(  3-C ,  4-C ) :   1.5592 B(  3-C ,  5-H ) :   0.9974 B(  4-C , 20-C ) :   1.0503
B(  6-C ,  7-H ) :   0.9358 B(  6-C ,  8-H ) :   0.9478 B(  6-C ,  9-C ) :   1.0814
B(  9-C , 10-H ) :   0.9569 B(  9-C , 11-H ) :   0.9534 B(  9-C , 12-C ) :   1.0640
B( 12-C , 13-H ) :   0.9773 B( 12-C , 14-H ) :   0.9732 B( 12-C , 15-H ) :   0.9724
B( 16-S , 17-C ) :   1.1449 B( 16-S , 20-C ) :   1.1255 B( 17-C , 18-C ) :   1.6143
B( 17-C , 33-H ) :   0.9680 B( 18-C , 19-C ) :   1.2360 B( 18-C , 21-H ) :   0.9742
B( 19-C , 20-C ) :   1.6107 B( 19-C , 22-C ) :   1.0448 B( 22-C , 23-H ) :   0.9360
B( 22-C , 24-H ) :   0.9261 B( 22-C , 25-C ) :   1.0348 B( 25-C , 26-H ) :   0.9525
B( 25-C , 27-H ) :   0.9682 B( 25-C , 28-C ) :   1.0805 B( 28-C , 29-H ) :   0.9782
B( 28-C , 30-H ) :   0.9742 B( 28-C , 31-H ) :   0.9748

Dispersion correction           -0.015468593
FINAL SINGLE POINT ENERGY     -1339.877417103543

DIPOLE MOMENT
-------------
                                X             Y             Z
Electronic contribution:     -0.96011      10.87001     -29.84595
Nuclear contribution   :      0.97450     -11.07177      30.62119
                        -----------------------------------------
Total Dipole Moment    :      0.01439      -0.20176       0.77524
                        -----------------------------------------
Magnitude (a.u.)       :      0.80119
Magnitude (Debye)      :      2.03647

Rotational constants in cm-1:     0.017432     0.010448     0.007040
Rotational constants in MHz :   522.594353   313.234243   211.056151

                             ****ORCA TERMINATED NORMALLY****
TOTAL RUN TIME: 0 days 0 hours 0 minutes 22 seconds 493 msec
