                         Program Version 4.2.1 -  RELEASE  -
|  1> ! wB97X-D3 SP def2-SVP
|  2> %pal
|  3> nprocs 24
|  4> end
|  5>
|  6> * xyz 0 1
|  7> S 	 1.92169 	 -17.947 	 -102.122
|  8> C 	 3.51128 	 -18.4997 	 -102.598
|  9> C 	 4.08257 	 -17.6314 	 -103.539
| 10> C 	 3.19322 	 -16.5335 	 -103.725
| 11> C 	 1.93824 	 -16.6856 	 -103.246
| 12> H 	 3.48756 	 -15.7424 	 -104.387
| 13> C 	 5.50203 	 -17.6032 	 -104.074
| 14> H 	 5.71097 	 -16.5864 	 -104.439
| 15> H 	 5.54823 	 -18.1851 	 -104.963
| 16> C 	 6.68062 	 -18.0721 	 -103.113
| 17> H 	 6.5824 	 -17.4701 	 -102.2
| 18> H 	 6.61614 	 -19.1445 	 -102.836
| 19> C 	 8.01721 	 -18.0413 	 -103.83
| 20> H 	 8.89297 	 -18.0711 	 -103.203
| 21> H 	 8.23231 	 -18.8749 	 -104.523
| 22> H 	 8.04311 	 -17.1794 	 -104.492
| 23> S 	 -0.0101245 	 -15.5921 	 -104.817
| 24> C 	 -0.871245 	 -14.215 	 -104.242
| 25> C 	 -0.529928 	 -13.8533 	 -103.007
| 26> C 	 0.506891 	 -14.7024 	 -102.483
| 27> C 	 0.882907 	 -15.6837 	 -103.345
| 28> H 	 -1.01529 	 -13.0742 	 -102.61
| 29> C 	 1.10078 	 -14.5347 	 -101.146
| 30> H 	 1.44089 	 -15.5306 	 -100.776
| 31> H 	 0.255455 	 -14.3867 	 -100.539
| 32> C 	 2.03361 	 -13.32 	 -100.908
| 33> H 	 1.46981 	 -12.4151 	 -101.14
| 34> H 	 2.94571 	 -13.536 	 -101.499
| 35> C 	 2.59179 	 -13.303 	 -99.4984
| 36> H 	 3.37698 	 -12.547 	 -99.3922
| 37> H 	 2.92396 	 -14.3525 	 -99.208
| 38> H 	 1.76867 	 -13.2244 	 -98.777
| 39> H 	 4.16666 	 -19.1767 	 -102.064
| 40> H 	 -1.53261 	 -13.5976 	 -104.854
| 41> *
| 42>
| 43>                          ****END OF INPUT****

CARTESIAN COORDINATES (ANGSTROEM)
---------------------------------
  S      1.921690  -17.947000  -102.122000
  C      3.511280  -18.499700  -102.598000
  C      4.082570  -17.631400  -103.539000
  C      3.193220  -16.533500  -103.725000
  C      1.938240  -16.685600  -103.246000
  H      3.487560  -15.742400  -104.387000
  C      5.502030  -17.603200  -104.074000
  H      5.710970  -16.586400  -104.439000
  H      5.548230  -18.185100  -104.963000
  C      6.680620  -18.072100  -103.113000
  H      6.582400  -17.470100  -102.200000
  H      6.616140  -19.144500  -102.836000
  C      8.017210  -18.041300  -103.830000
  H      8.892970  -18.071100  -103.203000
  H      8.232310  -18.874900  -104.523000
  H      8.043110  -17.179400  -104.492000
  S     -0.010124  -15.592100  -104.817000
  C     -0.871245  -14.215000  -104.242000
  C     -0.529928  -13.853300  -103.007000
  C      0.506891  -14.702400  -102.483000
  C      0.882907  -15.683700  -103.345000
  H     -1.015290  -13.074200  -102.610000
  C      1.100780  -14.534700  -101.146000
  H      1.440890  -15.530600  -100.776000
  H      0.255455  -14.386700  -100.539000
  C      2.033610  -13.320000  -100.908000
  H      1.469810  -12.415100  -101.140000
  H      2.945710  -13.536000  -101.499000
  C      2.591790  -13.303000  -99.498400
  H      3.376980  -12.547000  -99.392200
  H      2.923960  -14.352500  -99.208000
  H      1.768670  -13.224400  -98.777000
  H      4.166660  -19.176700  -102.064000
  H     -1.532610  -13.597600  -104.854000

 Total Charge           Charge          ....    0
 Multiplicity           Mult            ....    1
 Number of Electrons    NEL             ....  134
 Basis Dimension        Dim             ....  322

ORBITAL ENERGIES
----------------

  NO   OCC          E(Eh)            E(eV)
   0   2.0000     -88.967562     -2420.9304
   1   2.0000     -88.958704     -2420.6894
   2   2.0000     -10.319605      -280.8107
   3   2.0000     -10.316129      -280.7161
   4   2.0000     -10.313861      -280.6544
   5   2.0000     -10.308356      -280.5046
   6   2.0000     -10.300752      -280.2977
   7   2.0000     -10.297240      -280.2022
   8   2.0000     -10.296745      -280.1887
   9   2.0000     -10.295126      -280.1446
  10   2.0000     -10.287180      -279.9284
  11   2.0000     -10.285967      -279.8954
  12   2.0000     -10.280669      -279.7512
  13   2.0000     -10.280158      -279.7373
  14   2.0000     -10.280152      -279.7371
  15   2.0000     -10.278922      -279.7037
  16   2.0000      -8.082775      -219.9435
  17   2.0000      -8.074904      -219.7293
  18   2.0000      -6.041198      -164.3894
  19   2.0000      -6.037104      -164.2780
  20   2.0000      -6.033706      -164.1855
  21   2.0000      -6.033340      -164.1755
  22   2.0000      -6.029212      -164.0632
  23   2.0000      -6.025642      -163.9661
  24   2.0000      -1.017285       -27.6817
  25   2.0000      -0.994299       -27.0562
  26   2.0000      -0.912031       -24.8176
  27   2.0000      -0.909743       -24.7554
  28   2.0000      -0.874446       -23.7949
  29   2.0000      -0.855347       -23.2752
  30   2.0000      -0.851690       -23.1757
  31   2.0000      -0.819601       -22.3025
  32   2.0000      -0.784094       -21.3363
  33   2.0000      -0.769078       -20.9277
  34   2.0000      -0.711847       -19.3703
  35   2.0000      -0.699983       -19.0475
  36   2.0000      -0.691617       -18.8199
  37   2.0000      -0.665009       -18.0958
  38   2.0000      -0.639707       -17.4073
  39   2.0000      -0.622306       -16.9338
  40   2.0000      -0.595752       -16.2112
  41   2.0000      -0.578922       -15.7533
  42   2.0000      -0.567250       -15.4357
  43   2.0000      -0.564811       -15.3693
  44   2.0000      -0.534482       -14.5440
  45   2.0000      -0.527705       -14.3596
  46   2.0000      -0.525361       -14.2958
  47   2.0000      -0.512997       -13.9593
  48   2.0000      -0.504650       -13.7322
  49   2.0000      -0.497905       -13.5487
  50   2.0000      -0.490546       -13.3484
  51   2.0000      -0.480550       -13.0764
  52   2.0000      -0.467065       -12.7095
  53   2.0000      -0.464759       -12.6467
  54   2.0000      -0.459605       -12.5065
  55   2.0000      -0.452329       -12.3085
  56   2.0000      -0.439839       -11.9686
  57   2.0000      -0.435322       -11.8457
  58   2.0000      -0.431176       -11.7329
  59   2.0000      -0.429104       -11.6765
  60   2.0000      -0.425027       -11.5656
  61   2.0000      -0.416368       -11.3300
  62   2.0000      -0.409274       -11.1369
  63   2.0000      -0.334129        -9.0921
  64   2.0000      -0.332767        -9.0551
  65   2.0000      -0.323189        -8.7944
  66   2.0000      -0.309114        -8.4114
  67   0.0000       0.044060         1.1989
  68   0.0000       0.070354         1.9144
  69   0.0000       0.112634         3.0649
  70   0.0000       0.127826         3.4783
  71   0.0000       0.133106         3.6220

MULLIKEN ATOMIC CHARGES
-----------------------
   0 S :    0.120014
   1 C :   -0.116301
   2 C :   -0.093261
   3 C :    0.029845
   4 C :   -0.143288
   5 H :    0.004413
   6 C :    0.064351
   7 H :    0.023720
   8 H :    0.031552
   9 C :   -0.095384
  10 H :    0.047135
  11 H :    0.039898
  12 C :   -0.048278
  13 H :    0.033970
  14 H :    0.030925
  15 H :    0.019860
  16 S :    0.107891
  17 C :   -0.081748
  18 C :    0.012413
  19 C :   -0.013537
  20 C :   -0.184209
  21 H :   -0.038680
  22 C :    0.072507
  23 H :    0.008813
  24 H :   -0.001344
  25 C :   -0.052987
  26 H :    0.036381
  27 H :    0.037173
  28 C :   -0.046826
  29 H :    0.050086
  30 H :    0.028156
  31 H :    0.015927
  32 H :    0.048079
  33 H :    0.052730
Sum of atomic charges:    0.0000000

LOEWDIN ATOMIC CHARGES
----------------------
   0 S :    0.443486
   1 C :   -0.204016
   2 C :   -0.061714
   3 C :   -0.057974
   4 C :   -0.220420
   5 H :    0.025947
   6 C :   -0.030407
   7 H :    0.032161
   8 H :    0.030588
   9 C :   -0.042641
  10 H :    0.027520
  11 H :    0.028323
  12 C :   -0.070756
  13 H :    0.026505
  14 H :    0.029961
  15 H :    0.021170
  16 S :    0.418184
  17 C :   -0.181305
  18 C :   -0.061346
  19 C :   -0.051592
  20 C :   -0.209463
  21 H :    0.012256
  22 C :   -0.041413
  23 H :    0.024210
  24 H :    0.023465
  25 C :   -0.036371
  26 H :    0.025914
  27 H :    0.031046
  28 C :   -0.071959
  29 H :    0.028058
  30 H :    0.032780
  31 H :    0.020526
  32 H :    0.027659
  33 H :    0.031616

  Mayer bond orders larger than 0.100000
B(  0-S ,  1-C ) :   1.1584 B(  0-S ,  4-C ) :   1.1594 B(  1-C ,  2-C ) :   1.5846
B(  1-C , 32-H ) :   0.9632 B(  2-C ,  3-C ) :   1.2860 B(  2-C ,  6-C ) :   1.0185
B(  3-C ,  4-C ) :   1.5756 B(  3-C ,  5-H ) :   0.9895 B(  4-C , 20-C ) :   0.9902
B(  6-C ,  7-H ) :   0.9435 B(  6-C ,  8-H ) :   0.9283 B(  6-C ,  9-C ) :   1.0593
B(  9-C , 10-H ) :   0.9630 B(  9-C , 11-H ) :   0.9529 B(  9-C , 12-C ) :   1.0731
B( 12-C , 13-H ) :   0.9728 B( 12-C , 14-H ) :   0.9738 B( 12-C , 15-H ) :   0.9755
B( 16-S , 17-C ) :   1.1545 B( 16-S , 20-C ) :   1.1373 B( 17-C , 18-C ) :   1.6447
B( 17-C , 33-H ) :   0.9602 B( 18-C , 19-C ) :   1.1922 B( 18-C , 21-H ) :   1.0186
B( 19-C , 20-C ) :   1.6452 B( 19-C , 22-C ) :   1.0520 B( 22-C , 23-H ) :   0.9212
B( 22-C , 24-H ) :   0.9141 B( 22-C , 25-C ) :   1.0650 B( 25-C , 26-H ) :   0.9524
B( 25-C , 27-H ) :   0.9543 B( 25-C , 28-C ) :   1.0880 B( 28-C , 29-H ) :   0.9742
B( 28-C , 30-H ) :   0.9692 B( 28-C , 31-H ) :   0.9702

Dispersion correction           -0.013933681
FINAL SINGLE POINT ENERGY     -1339.862597411832

DIPOLE MOMENT
-------------
                                X             Y             Z
Electronic contribution:    -24.09712      -6.17696      -9.79473
Nuclear contribution   :     24.62102       6.56403       9.96084
                        -----------------------------------------
Total Dipole Moment    :      0.52390       0.38706       0.16611
                        -----------------------------------------
Magnitude (a.u.)       :      0.67222
Magnitude (Debye)      :      1.70865

Rotational constants in cm-1:     0.019227     0.007810     0.006613
Rotational constants in MHz :   576.417886   234.126319   198.241168

                             ****ORCA TERMINATED NORMALLY****
TOTAL RUN TIME: 0 days 0 hours 0 minutes 21 seconds 392 msec
