                         Program Version 4.2.1 -  RELEASE  -
|  1> ! wB97X-D3 SP def2-SVP
|  2> %pal
|  3> nprocs 24
|  4> end
|  5>
|  6> * xyz 0 1
|  7> S 	 -100.413 	 -3.51989 	 -105.841
|  8> C 	 -99.8796 	 -4.46374 	 -107.215
|  9> C 	 -100.653 	 -4.22862 	 -108.312
| 10> C 	 -101.752 	 -3.35212 	 -107.936
| 11> C 	 -101.834 	 -3.04375 	 -106.577
| 12> H 	 -102.45 	 -2.90599 	 -108.588
| 13> C 	 -100.45 	 -4.97972 	 -109.712
| 14> H 	 -100.798 	 -4.35988 	 -110.529
| 15> H 	 -101.022 	 -5.85238 	 -109.682
| 16> C 	 -99.022 	 -5.34986 	 -110.166
| 17> H 	 -98.5351 	 -4.38462 	 -110.039
| 18> H 	 -98.5647 	 -6.04326 	 -109.396
| 19> C 	 -98.8237 	 -5.86166 	 -111.585
| 20> H 	 -97.7822 	 -6.16575 	 -111.771
| 21> H 	 -99.5472 	 -6.65655 	 -111.735
| 22> H 	 -99.1926 	 -5.0953 	 -112.269
| 23> S 	 -102.488 	 -1.45491 	 -104.395
| 24> C 	 -103.991 	 -0.550249 	 -104.267
| 25> C 	 -104.794 	 -0.923634 	 -105.306
| 26> C 	 -104.129 	 -1.72315 	 -106.298
| 27> C 	 -102.912 	 -2.20289 	 -105.949
| 28> H 	 -105.799 	 -0.399637 	 -105.384
| 29> C 	 -104.891 	 -1.9466 	 -107.669
| 30> H 	 -104.244 	 -1.66974 	 -108.551
| 31> H 	 -105.702 	 -1.20597 	 -107.702
| 32> C 	 -105.564 	 -3.31673 	 -107.716
| 33> H 	 -106.215 	 -3.324 	 -106.849
| 34> H 	 -104.855 	 -4.18261 	 -107.565
| 35> C 	 -106.54 	 -3.50769 	 -108.936
| 36> H 	 -106.094 	 -3.53976 	 -109.889
| 37> H 	 -107.339 	 -2.75388 	 -109.008
| 38> H 	 -107.156 	 -4.40782 	 -109.001
| 39> H 	 -99.0648 	 -5.11635 	 -107.165
| 40> H 	 -104.166 	 0.129104 	 -103.456
| 41> *
| 42>
| 43>                          ****END OF INPUT****

CARTESIAN COORDINATES (ANGSTROEM)
---------------------------------
  S    -100.413000   -3.519890  -105.841000
  C    -99.879600   -4.463740  -107.215000
  C    -100.653000   -4.228620  -108.312000
  C    -101.752000   -3.352120  -107.936000
  C    -101.834000   -3.043750  -106.577000
  H    -102.450000   -2.905990  -108.588000
  C    -100.450000   -4.979720  -109.712000
  H    -100.798000   -4.359880  -110.529000
  H    -101.022000   -5.852380  -109.682000
  C    -99.022000   -5.349860  -110.166000
  H    -98.535100   -4.384620  -110.039000
  H    -98.564700   -6.043260  -109.396000
  C    -98.823700   -5.861660  -111.585000
  H    -97.782200   -6.165750  -111.771000
  H    -99.547200   -6.656550  -111.735000
  H    -99.192600   -5.095300  -112.269000
  S    -102.488000   -1.454910  -104.395000
  C    -103.991000   -0.550249  -104.267000
  C    -104.794000   -0.923634  -105.306000
  C    -104.129000   -1.723150  -106.298000
  C    -102.912000   -2.202890  -105.949000
  H    -105.799000   -0.399637  -105.384000
  C    -104.891000   -1.946600  -107.669000
  H    -104.244000   -1.669740  -108.551000
  H    -105.702000   -1.205970  -107.702000
  C    -105.564000   -3.316730  -107.716000
  H    -106.215000   -3.324000  -106.849000
  H    -104.855000   -4.182610  -107.565000
  C    -106.540000   -3.507690  -108.936000
  H    -106.094000   -3.539760  -109.889000
  H    -107.339000   -2.753880  -109.008000
  H    -107.156000   -4.407820  -109.001000
  H    -99.064800   -5.116350  -107.165000
  H    -104.166000    0.129104  -103.456000

 Total Charge           Charge          ....    0
 Multiplicity           Mult            ....    1
 Number of Electrons    NEL             ....  134
 Basis Dimension        Dim             ....  322

ORBITAL ENERGIES
----------------

  NO   OCC          E(Eh)            E(eV)
   0   2.0000     -88.966291     -2420.8959
   1   2.0000     -88.959529     -2420.7119
   2   2.0000     -10.335950      -281.2555
   3   2.0000     -10.333321      -281.1840
   4   2.0000     -10.320932      -280.8468
   5   2.0000     -10.310690      -280.5681
   6   2.0000     -10.309705      -280.5413
   7   2.0000     -10.309171      -280.5268
   8   2.0000     -10.303044      -280.3601
   9   2.0000     -10.301760      -280.3251
  10   2.0000     -10.296495      -280.1819
  11   2.0000     -10.294029      -280.1148
  12   2.0000     -10.293576      -280.1024
  13   2.0000     -10.290194      -280.0104
  14   2.0000     -10.284915      -279.8668
  15   2.0000     -10.277234      -279.6578
  16   2.0000      -8.082525      -219.9367
  17   2.0000      -8.074550      -219.7197
  18   2.0000      -6.040966      -164.3830
  19   2.0000      -6.036876      -164.2718
  20   2.0000      -6.033216      -164.1722
  21   2.0000      -6.033198      -164.1717
  22   2.0000      -6.028962      -164.0564
  23   2.0000      -6.025172      -163.9533
  24   2.0000      -1.013303       -27.5734
  25   2.0000      -0.990527       -26.9536
  26   2.0000      -0.911201       -24.7950
  27   2.0000      -0.901837       -24.5402
  28   2.0000      -0.872407       -23.7394
  29   2.0000      -0.849471       -23.1153
  30   2.0000      -0.838933       -22.8285
  31   2.0000      -0.817497       -22.2452
  32   2.0000      -0.787199       -21.4208
  33   2.0000      -0.779897       -21.2221
  34   2.0000      -0.707167       -19.2430
  35   2.0000      -0.699711       -19.0401
  36   2.0000      -0.690194       -18.7811
  37   2.0000      -0.668831       -18.1998
  38   2.0000      -0.644598       -17.5404
  39   2.0000      -0.615101       -16.7377
  40   2.0000      -0.594009       -16.1638
  41   2.0000      -0.576066       -15.6755
  42   2.0000      -0.568979       -15.4827
  43   2.0000      -0.557872       -15.1805
  44   2.0000      -0.529773       -14.4159
  45   2.0000      -0.521475       -14.1900
  46   2.0000      -0.518946       -14.1212
  47   2.0000      -0.513348       -13.9689
  48   2.0000      -0.506148       -13.7730
  49   2.0000      -0.501738       -13.6530
  50   2.0000      -0.491188       -13.3659
  51   2.0000      -0.485922       -13.2226
  52   2.0000      -0.483160       -13.1475
  53   2.0000      -0.467274       -12.7152
  54   2.0000      -0.461887       -12.5686
  55   2.0000      -0.449517       -12.2320
  56   2.0000      -0.444934       -12.1073
  57   2.0000      -0.431766       -11.7490
  58   2.0000      -0.430822       -11.7233
  59   2.0000      -0.421828       -11.4785
  60   2.0000      -0.417135       -11.3508
  61   2.0000      -0.415147       -11.2967
  62   2.0000      -0.403922       -10.9913
  63   2.0000      -0.365345        -9.9415
  64   2.0000      -0.334087        -9.0910
  65   2.0000      -0.326382        -8.8813
  66   2.0000      -0.292185        -7.9508
  67   0.0000       0.023334         0.6350
  68   0.0000       0.087000         2.3674
  69   0.0000       0.099504         2.7076
  70   0.0000       0.121807         3.3145
  71   0.0000       0.136393         3.7115

MULLIKEN ATOMIC CHARGES
-----------------------
   0 S :    0.109398
   1 C :   -0.116526
   2 C :   -0.049698
   3 C :   -0.010370
   4 C :   -0.081607
   5 H :   -0.023504
   6 C :    0.084604
   7 H :    0.018355
   8 H :    0.031932
   9 C :   -0.142562
  10 H :    0.031739
  11 H :    0.034720
  12 C :   -0.016320
  13 H :    0.056386
  14 H :    0.023791
  15 H :    0.027714
  16 S :    0.055610
  17 C :   -0.086998
  18 C :   -0.036808
  19 C :   -0.110426
  20 C :   -0.074388
  21 H :    0.048371
  22 C :    0.029476
  23 H :    0.052781
  24 H :    0.011311
  25 C :   -0.053488
  26 H :    0.025835
  27 H :    0.052075
  28 C :   -0.044535
  29 H :    0.016198
  30 H :    0.020963
  31 H :    0.025204
  32 H :    0.028751
  33 H :    0.062018
Sum of atomic charges:    0.0000000

LOEWDIN ATOMIC CHARGES
----------------------
   0 S :    0.435420
   1 C :   -0.185718
   2 C :   -0.053715
   3 C :   -0.066917
   4 C :   -0.211643
   5 H :    0.017701
   6 C :   -0.020702
   7 H :    0.027778
   8 H :    0.021839
   9 C :   -0.052798
  10 H :    0.023426
  11 H :    0.022289
  12 C :   -0.062035
  13 H :    0.036307
  14 H :    0.024730
  15 H :    0.027321
  16 S :    0.374075
  17 C :   -0.168472
  18 C :   -0.083874
  19 C :   -0.063682
  20 C :   -0.174022
  21 H :    0.045085
  22 C :   -0.030225
  23 H :    0.030972
  24 H :    0.028244
  25 C :   -0.041651
  26 H :    0.027145
  27 H :    0.032764
  28 C :   -0.076497
  29 H :    0.016028
  30 H :    0.025767
  31 H :    0.029091
  32 H :    0.016026
  33 H :    0.029942

  Mayer bond orders larger than 0.100000
B(  0-S ,  1-C ) :   1.1417 B(  0-S ,  4-C ) :   1.1713 B(  1-C ,  2-C ) :   1.6061
B(  1-C , 32-H ) :   0.9808 B(  2-C ,  3-C ) :   1.2518 B(  2-C ,  6-C ) :   0.9995
B(  3-C ,  4-C ) :   1.5456 B(  3-C ,  5-H ) :   1.0062 B(  4-C , 20-C ) :   1.0404
B(  6-C ,  7-H ) :   0.9473 B(  6-C ,  8-H ) :   0.9406 B(  6-C ,  9-C ) :   1.0603
B(  9-C , 10-H ) :   0.9620 B(  9-C , 11-H ) :   0.9492 B(  9-C , 12-C ) :   1.0867
B( 12-C , 13-H ) :   0.9717 B( 12-C , 14-H ) :   0.9737 B( 12-C , 15-H ) :   0.9700
B( 16-S , 17-C ) :   1.1522 B( 16-S , 20-C ) :   1.1135 B( 17-C , 18-C ) :   1.6206
B( 17-C , 33-H ) :   0.9731 B( 18-C , 19-C ) :   1.2335 B( 18-C , 21-H ) :   0.9753
B( 19-C , 20-C ) :   1.6528 B( 19-C , 22-C ) :   1.0213 B( 22-C , 23-H ) :   0.9432
B( 22-C , 24-H ) :   0.9334 B( 22-C , 25-C ) :   1.0557 B( 25-C , 26-H ) :   0.9511
B( 25-C , 27-H ) :   0.9605 B( 25-C , 28-C ) :   1.0664 B( 28-C , 29-H ) :   0.9776
B( 28-C , 30-H ) :   0.9741 B( 28-C , 31-H ) :   0.9753

Dispersion correction           -0.013354647
FINAL SINGLE POINT ENERGY     -1339.859241995374

DIPOLE MOMENT
-------------
                                X             Y             Z
Electronic contribution:      7.12423      11.55935      28.15279
Nuclear contribution   :     -7.46298     -11.58237     -28.79209
                        -----------------------------------------
Total Dipole Moment    :     -0.33874      -0.02302      -0.63930
                        -----------------------------------------
Magnitude (a.u.)       :      0.72386
Magnitude (Debye)      :      1.83991

Rotational constants in cm-1:     0.019124     0.007752     0.005716
Rotational constants in MHz :   573.334004   232.386481   171.369258

                             ****ORCA TERMINATED NORMALLY****
TOTAL RUN TIME: 0 days 0 hours 0 minutes 20 seconds 761 msec
