                         Program Version 4.2.1 -  RELEASE  -
|  1> ! wB97X-D3 SP def2-SVP
|  2> %pal
|  3> nprocs 24
|  4> end
|  5>
|  6> * xyz 0 1
|  7> S 	 -19.8932 	 -34.5312 	 -95.8546
|  8> C 	 -18.86 	 -35.9763 	 -95.7719
|  9> C 	 -17.4984 	 -35.6226 	 -95.8206
| 10> C 	 -17.3151 	 -34.2373 	 -96.0655
| 11> C 	 -18.5027 	 -33.4893 	 -96.0956
| 12> H 	 -16.4271 	 -33.7157 	 -96.3917
| 13> C 	 -16.3531 	 -36.5942 	 -95.7253
| 14> H 	 -16.0611 	 -36.8743 	 -96.6931
| 15> H 	 -16.9157 	 -37.4139 	 -95.2453
| 16> C 	 -15.192 	 -36.1585 	 -94.8034
| 17> H 	 -14.7029 	 -35.2366 	 -94.9919
| 18> H 	 -15.6526 	 -36.0965 	 -93.7398
| 19> C 	 -13.9952 	 -37.0866 	 -94.8047
| 20> H 	 -13.4208 	 -36.9496 	 -95.7884
| 21> H 	 -13.2732 	 -36.9012 	 -94.0138
| 22> H 	 -14.2029 	 -38.1432 	 -94.8479
| 23> S 	 -18.394 	 -31.6701 	 -98.1511
| 24> C 	 -18.4455 	 -30.0015 	 -97.5638
| 25> C 	 -18.5415 	 -29.7968 	 -96.2046
| 26> C 	 -18.6395 	 -31.0243 	 -95.5018
| 27> C 	 -18.5489 	 -32.0743 	 -96.4176
| 28> H 	 -18.363 	 -28.7918 	 -95.7663
| 29> C 	 -18.5399 	 -30.9843 	 -93.9542
| 30> H 	 -18.8951 	 -32.0377 	 -93.7136
| 31> H 	 -19.2652 	 -30.2149 	 -93.684
| 32> C 	 -17.1624 	 -30.7222 	 -93.2927
| 33> H 	 -16.6733 	 -29.9191 	 -93.8221
| 34> H 	 -16.3604 	 -31.4665 	 -93.4964
| 35> C 	 -17.1201 	 -30.476 	 -91.7487
| 36> H 	 -17.5146 	 -31.3787 	 -91.3083
| 37> H 	 -17.6145 	 -29.5845 	 -91.5223
| 38> H 	 -16.0225 	 -30.4057 	 -91.4859
| 39> H 	 -19.124 	 -36.9701 	 -95.4433
| 40> H 	 -18.3746 	 -29.1134 	 -98.2576
| 41> *
| 42>
| 43>                          ****END OF INPUT****

CARTESIAN COORDINATES (ANGSTROEM)
---------------------------------
  S    -19.893200  -34.531200  -95.854600
  C    -18.860000  -35.976300  -95.771900
  C    -17.498400  -35.622600  -95.820600
  C    -17.315100  -34.237300  -96.065500
  C    -18.502700  -33.489300  -96.095600
  H    -16.427100  -33.715700  -96.391700
  C    -16.353100  -36.594200  -95.725300
  H    -16.061100  -36.874300  -96.693100
  H    -16.915700  -37.413900  -95.245300
  C    -15.192000  -36.158500  -94.803400
  H    -14.702900  -35.236600  -94.991900
  H    -15.652600  -36.096500  -93.739800
  C    -13.995200  -37.086600  -94.804700
  H    -13.420800  -36.949600  -95.788400
  H    -13.273200  -36.901200  -94.013800
  H    -14.202900  -38.143200  -94.847900
  S    -18.394000  -31.670100  -98.151100
  C    -18.445500  -30.001500  -97.563800
  C    -18.541500  -29.796800  -96.204600
  C    -18.639500  -31.024300  -95.501800
  C    -18.548900  -32.074300  -96.417600
  H    -18.363000  -28.791800  -95.766300
  C    -18.539900  -30.984300  -93.954200
  H    -18.895100  -32.037700  -93.713600
  H    -19.265200  -30.214900  -93.684000
  C    -17.162400  -30.722200  -93.292700
  H    -16.673300  -29.919100  -93.822100
  H    -16.360400  -31.466500  -93.496400
  C    -17.120100  -30.476000  -91.748700
  H    -17.514600  -31.378700  -91.308300
  H    -17.614500  -29.584500  -91.522300
  H    -16.022500  -30.405700  -91.485900
  H    -19.124000  -36.970100  -95.443300
  H    -18.374600  -29.113400  -98.257600

 Total Charge           Charge          ....    0
 Multiplicity           Mult            ....    1
 Number of Electrons    NEL             ....  134
 Basis Dimension        Dim             ....  322

ORBITAL ENERGIES
----------------

  NO   OCC          E(Eh)            E(eV)
   0   2.0000     -88.974416     -2421.1169
   1   2.0000     -88.968042     -2420.9435
   2   2.0000     -10.327565      -281.0273
   3   2.0000     -10.324455      -280.9427
   4   2.0000     -10.320884      -280.8455
   5   2.0000     -10.314620      -280.6751
   6   2.0000     -10.306009      -280.4408
   7   2.0000     -10.302795      -280.3533
   8   2.0000     -10.299612      -280.2667
   9   2.0000     -10.293356      -280.0965
  10   2.0000     -10.292349      -280.0690
  11   2.0000     -10.291403      -280.0433
  12   2.0000     -10.289202      -279.9834
  13   2.0000     -10.288663      -279.9687
  14   2.0000     -10.281101      -279.7630
  15   2.0000     -10.280276      -279.7405
  16   2.0000      -8.088107      -220.0886
  17   2.0000      -8.081572      -219.9107
  18   2.0000      -6.046430      -164.5317
  19   2.0000      -6.043225      -164.4445
  20   2.0000      -6.040139      -164.3605
  21   2.0000      -6.038641      -164.3198
  22   2.0000      -6.036155      -164.2521
  23   2.0000      -6.032438      -164.1510
  24   2.0000      -1.000463       -27.2240
  25   2.0000      -0.977307       -26.5939
  26   2.0000      -0.911478       -24.8026
  27   2.0000      -0.900978       -24.5168
  28   2.0000      -0.865973       -23.5643
  29   2.0000      -0.854686       -23.2572
  30   2.0000      -0.846024       -23.0215
  31   2.0000      -0.809135       -22.0177
  32   2.0000      -0.785279       -21.3685
  33   2.0000      -0.766815       -20.8661
  34   2.0000      -0.707902       -19.2630
  35   2.0000      -0.698349       -19.0030
  36   2.0000      -0.687334       -18.7033
  37   2.0000      -0.658393       -17.9158
  38   2.0000      -0.634951       -17.2779
  39   2.0000      -0.610014       -16.5993
  40   2.0000      -0.588931       -16.0256
  41   2.0000      -0.572461       -15.5775
  42   2.0000      -0.563155       -15.3242
  43   2.0000      -0.556961       -15.1557
  44   2.0000      -0.529177       -14.3996
  45   2.0000      -0.523765       -14.2524
  46   2.0000      -0.517807       -14.0902
  47   2.0000      -0.504623       -13.7315
  48   2.0000      -0.502128       -13.6636
  49   2.0000      -0.499177       -13.5833
  50   2.0000      -0.481484       -13.1018
  51   2.0000      -0.476501       -12.9662
  52   2.0000      -0.466666       -12.6986
  53   2.0000      -0.459564       -12.5054
  54   2.0000      -0.459188       -12.4952
  55   2.0000      -0.448738       -12.2108
  56   2.0000      -0.448408       -12.2018
  57   2.0000      -0.443231       -12.0609
  58   2.0000      -0.429607       -11.6902
  59   2.0000      -0.423811       -11.5325
  60   2.0000      -0.422502       -11.4969
  61   2.0000      -0.411635       -11.2012
  62   2.0000      -0.407212       -11.0808
  63   2.0000      -0.341112        -9.2821
  64   2.0000      -0.329063        -8.9543
  65   2.0000      -0.317611        -8.6426
  66   2.0000      -0.303547        -8.2599
  67   0.0000       0.040366         1.0984
  68   0.0000       0.050055         1.3621
  69   0.0000       0.095796         2.6067
  70   0.0000       0.120705         3.2845
  71   0.0000       0.128877         3.5069

MULLIKEN ATOMIC CHARGES
-----------------------
   0 S :    0.120626
   1 C :   -0.118537
   2 C :   -0.118660
   3 C :    0.039202
   4 C :   -0.185270
   5 H :    0.013600
   6 C :    0.116806
   7 H :    0.032385
   8 H :    0.016049
   9 C :   -0.094993
  10 H :    0.032442
  11 H :    0.042846
  12 C :   -0.062693
  13 H :    0.027310
  14 H :    0.040596
  15 H :    0.021453
  16 S :    0.134506
  17 C :   -0.107030
  18 C :   -0.049822
  19 C :   -0.018259
  20 C :   -0.215266
  21 H :    0.036792
  22 C :    0.084602
  23 H :    0.041856
  24 H :    0.034269
  25 C :   -0.093561
  26 H :    0.007104
  27 H :    0.026625
  28 C :   -0.026343
  29 H :    0.040962
  30 H :    0.030949
  31 H :    0.041177
  32 H :    0.044068
  33 H :    0.064207
Sum of atomic charges:    0.0000000

LOEWDIN ATOMIC CHARGES
----------------------
   0 S :    0.400589
   1 C :   -0.203903
   2 C :   -0.061540
   3 C :   -0.064793
   4 C :   -0.202664
   5 H :    0.029571
   6 C :   -0.025422
   7 H :    0.025279
   8 H :    0.037153
   9 C :   -0.044934
  10 H :    0.020740
  11 H :    0.035910
  12 C :   -0.072604
  13 H :    0.030732
  14 H :    0.027399
  15 H :    0.017989
  16 S :    0.393067
  17 C :   -0.183029
  18 C :   -0.078479
  19 C :   -0.049374
  20 C :   -0.193198
  21 H :    0.040066
  22 C :   -0.030201
  23 H :    0.038294
  24 H :    0.033801
  25 C :   -0.051434
  26 H :    0.016459
  27 H :    0.029948
  28 C :   -0.053206
  29 H :    0.026700
  30 H :    0.014997
  31 H :    0.037386
  32 H :    0.025577
  33 H :    0.033122

  Mayer bond orders larger than 0.100000
B(  0-S ,  1-C ) :   1.1356 B(  0-S ,  4-C ) :   1.1505 B(  1-C ,  2-C ) :   1.6083
B(  1-C ,  4-C ) :   0.1021 B(  1-C , 32-H ) :   0.9601 B(  2-C ,  3-C ) :   1.2418
B(  2-C ,  6-C ) :   1.0128 B(  3-C ,  4-C ) :   1.5750 B(  3-C ,  5-H ) :   0.9895
B(  4-C , 20-C ) :   1.0320 B(  6-C ,  7-H ) :   0.9403 B(  6-C ,  8-H ) :   0.9338
B(  6-C ,  9-C ) :   1.0593 B(  9-C , 10-H ) :   0.9585 B(  9-C , 11-H ) :   0.9563
B(  9-C , 12-C ) :   1.0813 B( 12-C , 13-H ) :   0.9724 B( 12-C , 14-H ) :   0.9746
B( 12-C , 15-H ) :   0.9747 B( 16-S , 17-C ) :   1.1345 B( 16-S , 20-C ) :   1.1362
B( 17-C , 18-C ) :   1.6652 B( 17-C , 33-H ) :   0.9539 B( 18-C , 19-C ) :   1.2107
B( 18-C , 21-H ) :   0.9775 B( 19-C , 20-C ) :   1.6321 B( 19-C , 22-C ) :   1.0344
B( 22-C , 23-H ) :   0.9265 B( 22-C , 24-H ) :   0.9342 B( 22-C , 25-C ) :   1.0577
B( 25-C , 26-H ) :   0.9540 B( 25-C , 27-H ) :   0.9537 B( 25-C , 28-C ) :   1.0764
B( 28-C , 29-H ) :   0.9785 B( 28-C , 30-H ) :   0.9794 B( 28-C , 31-H ) :   0.9740

Dispersion correction           -0.013895511
FINAL SINGLE POINT ENERGY     -1339.851974164767

DIPOLE MOMENT
-------------
                                X             Y             Z
Electronic contribution:    -20.37593       4.17254     -20.00535
Nuclear contribution   :     20.99285      -4.02773      20.31010
                        -----------------------------------------
Total Dipole Moment    :      0.61692       0.14480       0.30476
                        -----------------------------------------
Magnitude (a.u.)       :      0.70316
Magnitude (Debye)      :      1.78729

Rotational constants in cm-1:     0.015467     0.008636     0.007033
Rotational constants in MHz :   463.686935   258.914076   210.856330

                             ****ORCA TERMINATED NORMALLY****
TOTAL RUN TIME: 0 days 0 hours 0 minutes 19 seconds 905 msec
