                         Program Version 4.2.1 -  RELEASE  -
|  1> ! wB97X-D3 SP def2-SVP
|  2> %pal
|  3> nprocs 24
|  4> end
|  5>
|  6> * xyz 0 1
|  7> S 	 -69.9417 	 0.515086 	 -67.6319
|  8> C 	 -69.5128 	 1.42745 	 -69.0575
|  9> C 	 -69.6874 	 0.701298 	 -70.2268
| 10> C 	 -70.1804 	 -0.61353 	 -70.0466
| 11> C 	 -70.2525 	 -0.933196 	 -68.6887
| 12> H 	 -70.3474 	 -1.36893 	 -70.7777
| 13> C 	 -69.465 	 1.34142 	 -71.5811
| 14> H 	 -68.4526 	 1.68948 	 -71.6906
| 15> H 	 -69.8509 	 2.3295 	 -71.3051
| 16> C 	 -70.1437 	 0.810912 	 -72.8025
| 17> H 	 -69.6658 	 -0.0710814 	 -73.0961
| 18> H 	 -71.2437 	 0.569223 	 -72.6556
| 19> C 	 -70.1269 	 1.76256 	 -74.03
| 20> H 	 -69.0714 	 1.94315 	 -74.2848
| 21> H 	 -70.6568 	 1.26063 	 -74.8889
| 22> H 	 -70.5843 	 2.68168 	 -73.9453
| 23> S 	 -71.6568 	 -1.84886 	 -66.4005
| 24> C 	 -72.3592 	 -3.43293 	 -66.4592
| 25> C 	 -71.9303 	 -4.21644 	 -67.5036
| 26> C 	 -71.1553 	 -3.43471 	 -68.4092
| 27> C 	 -70.9295 	 -2.07818 	 -68.0277
| 28> H 	 -72.3893 	 -5.13897 	 -67.5764
| 29> C 	 -70.8626 	 -4.03731 	 -69.7324
| 30> H 	 -71.0181 	 -3.30698 	 -70.532
| 31> H 	 -71.5313 	 -4.83275 	 -70.0062
| 32> C 	 -69.4678 	 -4.60187 	 -69.7829
| 33> H 	 -69.3373 	 -5.50703 	 -69.1662
| 34> H 	 -68.7897 	 -3.81788 	 -69.3256
| 35> C 	 -69.0519 	 -4.92613 	 -71.2094
| 36> H 	 -67.9577 	 -5.01468 	 -71.2515
| 37> H 	 -69.4482 	 -4.20491 	 -71.9464
| 38> H 	 -69.4089 	 -5.85107 	 -71.5398
| 39> H 	 -69.3874 	 2.50996 	 -69.0722
| 40> H 	 -73.0058 	 -3.90764 	 -65.6745
| 41> *
| 42>
| 43>                          ****END OF INPUT****

CARTESIAN COORDINATES (ANGSTROEM)
---------------------------------
  S    -69.941700    0.515086  -67.631900
  C    -69.512800    1.427450  -69.057500
  C    -69.687400    0.701298  -70.226800
  C    -70.180400   -0.613530  -70.046600
  C    -70.252500   -0.933196  -68.688700
  H    -70.347400   -1.368930  -70.777700
  C    -69.465000    1.341420  -71.581100
  H    -68.452600    1.689480  -71.690600
  H    -69.850900    2.329500  -71.305100
  C    -70.143700    0.810912  -72.802500
  H    -69.665800   -0.071081  -73.096100
  H    -71.243700    0.569223  -72.655600
  C    -70.126900    1.762560  -74.030000
  H    -69.071400    1.943150  -74.284800
  H    -70.656800    1.260630  -74.888900
  H    -70.584300    2.681680  -73.945300
  S    -71.656800   -1.848860  -66.400500
  C    -72.359200   -3.432930  -66.459200
  C    -71.930300   -4.216440  -67.503600
  C    -71.155300   -3.434710  -68.409200
  C    -70.929500   -2.078180  -68.027700
  H    -72.389300   -5.138970  -67.576400
  C    -70.862600   -4.037310  -69.732400
  H    -71.018100   -3.306980  -70.532000
  H    -71.531300   -4.832750  -70.006200
  C    -69.467800   -4.601870  -69.782900
  H    -69.337300   -5.507030  -69.166200
  H    -68.789700   -3.817880  -69.325600
  C    -69.051900   -4.926130  -71.209400
  H    -67.957700   -5.014680  -71.251500
  H    -69.448200   -4.204910  -71.946400
  H    -69.408900   -5.851070  -71.539800
  H    -69.387400    2.509960  -69.072200
  H    -73.005800   -3.907640  -65.674500

 Total Charge           Charge          ....    0
 Multiplicity           Mult            ....    1
 Number of Electrons    NEL             ....  134
 Basis Dimension        Dim             ....  322

ORBITAL ENERGIES
----------------

  NO   OCC          E(Eh)            E(eV)
   0   2.0000     -88.968174     -2420.9471
   1   2.0000     -88.967167     -2420.9197
   2   2.0000     -10.340826      -281.3882
   3   2.0000     -10.335710      -281.2490
   4   2.0000     -10.318045      -280.7683
   5   2.0000     -10.311562      -280.5919
   6   2.0000     -10.305648      -280.4309
   7   2.0000     -10.302663      -280.3497
   8   2.0000     -10.296775      -280.1895
   9   2.0000     -10.290519      -280.0193
  10   2.0000     -10.287827      -279.9460
  11   2.0000     -10.287031      -279.9243
  12   2.0000     -10.284859      -279.8652
  13   2.0000     -10.284434      -279.8537
  14   2.0000     -10.279994      -279.7329
  15   2.0000     -10.273059      -279.5442
  16   2.0000      -8.081866      -219.9187
  17   2.0000      -8.081338      -219.9044
  18   2.0000      -6.040469      -164.3695
  19   2.0000      -6.039903      -164.3541
  20   2.0000      -6.036684      -164.2665
  21   2.0000      -6.036009      -164.2482
  22   2.0000      -6.032447      -164.1512
  23   2.0000      -6.031991      -164.1388
  24   2.0000      -1.000062       -27.2131
  25   2.0000      -0.980874       -26.6909
  26   2.0000      -0.916773       -24.9467
  27   2.0000      -0.913752       -24.8645
  28   2.0000      -0.868009       -23.6197
  29   2.0000      -0.853889       -23.2355
  30   2.0000      -0.847255       -23.0550
  31   2.0000      -0.820644       -22.3309
  32   2.0000      -0.783881       -21.3305
  33   2.0000      -0.767757       -20.8917
  34   2.0000      -0.717402       -19.5215
  35   2.0000      -0.697309       -18.9747
  36   2.0000      -0.687302       -18.7024
  37   2.0000      -0.661752       -18.0072
  38   2.0000      -0.639101       -17.3908
  39   2.0000      -0.627281       -17.0692
  40   2.0000      -0.597734       -16.2652
  41   2.0000      -0.575186       -15.6516
  42   2.0000      -0.566770       -15.4226
  43   2.0000      -0.559614       -15.2279
  44   2.0000      -0.533489       -14.5170
  45   2.0000      -0.526573       -14.3288
  46   2.0000      -0.511049       -13.9064
  47   2.0000      -0.506177       -13.7738
  48   2.0000      -0.502200       -13.6656
  49   2.0000      -0.501032       -13.6338
  50   2.0000      -0.490881       -13.3575
  51   2.0000      -0.485026       -13.1982
  52   2.0000      -0.477596       -12.9960
  53   2.0000      -0.465431       -12.6650
  54   2.0000      -0.458008       -12.4630
  55   2.0000      -0.456170       -12.4130
  56   2.0000      -0.444792       -12.1034
  57   2.0000      -0.439531       -11.9603
  58   2.0000      -0.433740       -11.8027
  59   2.0000      -0.423630       -11.5276
  60   2.0000      -0.419105       -11.4044
  61   2.0000      -0.414574       -11.2811
  62   2.0000      -0.406704       -11.0670
  63   2.0000      -0.357692        -9.7333
  64   2.0000      -0.336696        -9.1620
  65   2.0000      -0.325260        -8.8508
  66   2.0000      -0.275576        -7.4988
  67   0.0000       0.014301         0.3892
  68   0.0000       0.073108         1.9894
  69   0.0000       0.092642         2.5209
  70   0.0000       0.120955         3.2914
  71   0.0000       0.132019         3.5924

MULLIKEN ATOMIC CHARGES
-----------------------
   0 S :    0.083826
   1 C :   -0.125400
   2 C :   -0.079686
   3 C :    0.006796
   4 C :   -0.096817
   5 H :    0.003289
   6 C :    0.077722
   7 H :    0.025740
   8 H :    0.004388
   9 C :   -0.061982
  10 H :    0.024238
  11 H :    0.041449
  12 C :   -0.044403
  13 H :    0.028896
  14 H :    0.038541
  15 H :    0.021015
  16 S :    0.094642
  17 C :   -0.105800
  18 C :   -0.003971
  19 C :   -0.038064
  20 C :   -0.122167
  21 H :   -0.002510
  22 C :    0.049416
  23 H :    0.014065
  24 H :    0.012227
  25 C :   -0.105674
  26 H :    0.032893
  27 H :    0.044626
  28 C :   -0.007840
  29 H :    0.036319
  30 H :    0.022786
  31 H :    0.010023
  32 H :    0.051953
  33 H :    0.069464
Sum of atomic charges:   -0.0000000

LOEWDIN ATOMIC CHARGES
----------------------
   0 S :    0.378144
   1 C :   -0.209182
   2 C :   -0.054641
   3 C :   -0.062499
   4 C :   -0.154152
   5 H :    0.026612
   6 C :   -0.046491
   7 H :    0.034330
   8 H :    0.036633
   9 C :   -0.041252
  10 H :    0.017205
  11 H :    0.034792
  12 C :   -0.057345
  13 H :    0.025649
  14 H :    0.034621
  15 H :    0.011496
  16 S :    0.389584
  17 C :   -0.187958
  18 C :   -0.068412
  19 C :   -0.048863
  20 C :   -0.189347
  21 H :    0.024081
  22 C :   -0.036489
  23 H :    0.025002
  24 H :    0.027116
  25 C :   -0.042916
  26 H :    0.027333
  27 H :    0.031048
  28 C :   -0.063650
  29 H :    0.030978
  30 H :    0.024319
  31 H :    0.014975
  32 H :    0.029390
  33 H :    0.039888

  Mayer bond orders larger than 0.100000
B(  0-S ,  1-C ) :   1.1303 B(  0-S ,  4-C ) :   1.1408 B(  1-C ,  2-C ) :   1.6164
B(  1-C , 32-H ) :   0.9639 B(  2-C ,  3-C ) :   1.2591 B(  2-C ,  6-C ) :   0.9977
B(  3-C ,  4-C ) :   1.5529 B(  3-C ,  5-H ) :   0.9885 B(  4-C , 20-C ) :   1.0779
B(  6-C ,  7-H ) :   0.9293 B(  6-C ,  8-H ) :   0.9308 B(  6-C ,  9-C ) :   1.0722
B(  9-C , 10-H ) :   0.9453 B(  9-C , 11-H ) :   0.9545 B(  9-C , 12-C ) :   1.0866
B( 12-C , 13-H ) :   0.9749 B( 12-C , 14-H ) :   0.9742 B( 12-C , 15-H ) :   0.9792
B( 16-S , 17-C ) :   1.1643 B( 16-S , 20-C ) :   1.1150 B( 17-C , 18-C ) :   1.6272
B( 17-C , 33-H ) :   0.9536 B( 18-C , 19-C ) :   1.2378 B( 18-C , 21-H ) :   1.0010
B( 19-C , 20-C ) :   1.5729 B( 19-C , 22-C ) :   1.0496 B( 22-C , 23-H ) :   0.9435
B( 22-C , 24-H ) :   0.9304 B( 22-C , 25-C ) :   1.0556 B( 25-C , 26-H ) :   0.9501
B( 25-C , 27-H ) :   0.9621 B( 25-C , 28-C ) :   1.0787 B( 28-C , 29-H ) :   0.9728
B( 28-C , 30-H ) :   0.9747 B( 28-C , 31-H ) :   0.9703

Dispersion correction           -0.013700923
FINAL SINGLE POINT ENERGY     -1339.853718803345

DIPOLE MOMENT
-------------
                                X             Y             Z
Electronic contribution:     -5.93727       5.05405      30.61002
Nuclear contribution   :      5.75903      -5.28952     -31.30944
                        -----------------------------------------
Total Dipole Moment    :     -0.17824      -0.23547      -0.69942
                        -----------------------------------------
Magnitude (a.u.)       :      0.75921
Magnitude (Debye)      :      1.92977

Rotational constants in cm-1:     0.017204     0.008885     0.006450
Rotational constants in MHz :   515.751895   266.369365   193.362806

                             ****ORCA TERMINATED NORMALLY****
TOTAL RUN TIME: 0 days 0 hours 0 minutes 21 seconds 542 msec
