                         Program Version 4.2.1 -  RELEASE  -
|  1> ! wB97X-D3 SP def2-SVP
|  2> %pal
|  3> nprocs 24
|  4> end
|  5>
|  6> * xyz 0 1
|  7> S 	 -130.745 	 32.9361 	 -15.1599
|  8> C 	 -129.259 	 31.9118 	 -15.2313
|  9> C 	 -129.232 	 31.1181 	 -16.3477
| 10> C 	 -130.544 	 31.228 	 -17.0193
| 11> C 	 -131.443 	 32.0916 	 -16.4885
| 12> H 	 -130.819 	 30.6823 	 -17.9345
| 13> C 	 -128.195 	 30.1062 	 -16.7201
| 14> H 	 -127.274 	 30.1354 	 -16.0572
| 15> H 	 -127.895 	 30.4642 	 -17.7158
| 16> C 	 -128.651 	 28.6872 	 -16.6499
| 17> H 	 -129.204 	 28.4549 	 -17.5443
| 18> H 	 -127.737 	 28.1692 	 -16.7313
| 19> C 	 -129.374 	 28.1883 	 -15.3431
| 20> H 	 -130.296 	 28.751 	 -15.1925
| 21> H 	 -129.564 	 27.0949 	 -15.2827
| 22> H 	 -128.635 	 28.3304 	 -14.5433
| 23> S 	 -133.218 	 33.9472 	 -17.3933
| 24> C 	 -134.854 	 33.5133 	 -17.8771
| 25> C 	 -134.904 	 32.1078 	 -17.8357
| 26> C 	 -133.691 	 31.3823 	 -17.4215
| 27> C 	 -132.715 	 32.3133 	 -17.0821
| 28> H 	 -135.818 	 31.5994 	 -18.0811
| 29> C 	 -133.628 	 29.8282 	 -17.3299
| 30> H 	 -133.149 	 29.5274 	 -16.4186
| 31> H 	 -132.942 	 29.482 	 -18.1523
| 32> C 	 -134.944 	 28.9669 	 -17.5312
| 33> H 	 -135.328 	 28.9654 	 -18.562
| 34> H 	 -135.696 	 29.4785 	 -16.8923
| 35> C 	 -134.732 	 27.4407 	 -17.2758
| 36> H 	 -134.357 	 27.3102 	 -16.2399
| 37> H 	 -134.115 	 26.8659 	 -17.9429
| 38> H 	 -135.714 	 26.9853 	 -17.3858
| 39> H 	 -128.445 	 31.9426 	 -14.5113
| 40> H 	 -135.632 	 34.1784 	 -18.2634
| 41> *
| 42>
| 43>                          ****END OF INPUT****

CARTESIAN COORDINATES (ANGSTROEM)
---------------------------------
  S    -130.745000   32.936100  -15.159900
  C    -129.259000   31.911800  -15.231300
  C    -129.232000   31.118100  -16.347700
  C    -130.544000   31.228000  -17.019300
  C    -131.443000   32.091600  -16.488500
  H    -130.819000   30.682300  -17.934500
  C    -128.195000   30.106200  -16.720100
  H    -127.274000   30.135400  -16.057200
  H    -127.895000   30.464200  -17.715800
  C    -128.651000   28.687200  -16.649900
  H    -129.204000   28.454900  -17.544300
  H    -127.737000   28.169200  -16.731300
  C    -129.374000   28.188300  -15.343100
  H    -130.296000   28.751000  -15.192500
  H    -129.564000   27.094900  -15.282700
  H    -128.635000   28.330400  -14.543300
  S    -133.218000   33.947200  -17.393300
  C    -134.854000   33.513300  -17.877100
  C    -134.904000   32.107800  -17.835700
  C    -133.691000   31.382300  -17.421500
  C    -132.715000   32.313300  -17.082100
  H    -135.818000   31.599400  -18.081100
  C    -133.628000   29.828200  -17.329900
  H    -133.149000   29.527400  -16.418600
  H    -132.942000   29.482000  -18.152300
  C    -134.944000   28.966900  -17.531200
  H    -135.328000   28.965400  -18.562000
  H    -135.696000   29.478500  -16.892300
  C    -134.732000   27.440700  -17.275800
  H    -134.357000   27.310200  -16.239900
  H    -134.115000   26.865900  -17.942900
  H    -135.714000   26.985300  -17.385800
  H    -128.445000   31.942600  -14.511300
  H    -135.632000   34.178400  -18.263400

 Total Charge           Charge          ....    0
 Multiplicity           Mult            ....    1
 Number of Electrons    NEL             ....  134
 Basis Dimension        Dim             ....  322

ORBITAL ENERGIES
----------------

  NO   OCC          E(Eh)            E(eV)
   0   2.0000     -88.963700     -2420.8253
   1   2.0000     -88.963629     -2420.8234
   2   2.0000     -10.325617      -280.9743
   3   2.0000     -10.322674      -280.8942
   4   2.0000     -10.322179      -280.8808
   5   2.0000     -10.316602      -280.7290
   6   2.0000     -10.311628      -280.5937
   7   2.0000     -10.303223      -280.3650
   8   2.0000     -10.302641      -280.3491
   9   2.0000     -10.299368      -280.2600
  10   2.0000     -10.298466      -280.2355
  11   2.0000     -10.298353      -280.2324
  12   2.0000     -10.293102      -280.0895
  13   2.0000     -10.284970      -279.8683
  14   2.0000     -10.284733      -279.8618
  15   2.0000     -10.283004      -279.8148
  16   2.0000      -8.078397      -219.8243
  17   2.0000      -8.078230      -219.8198
  18   2.0000      -6.037033      -164.2760
  19   2.0000      -6.036942      -164.2735
  20   2.0000      -6.032900      -164.1635
  21   2.0000      -6.032714      -164.1585
  22   2.0000      -6.029194      -164.0627
  23   2.0000      -6.028617      -164.0470
  24   2.0000      -1.007231       -27.4082
  25   2.0000      -0.978599       -26.6290
  26   2.0000      -0.919497       -25.0208
  27   2.0000      -0.899016       -24.4635
  28   2.0000      -0.871852       -23.7243
  29   2.0000      -0.847662       -23.0660
  30   2.0000      -0.836757       -22.7693
  31   2.0000      -0.810410       -22.0524
  32   2.0000      -0.786166       -21.3927
  33   2.0000      -0.776626       -21.1331
  34   2.0000      -0.709732       -19.3128
  35   2.0000      -0.701180       -19.0801
  36   2.0000      -0.698567       -19.0090
  37   2.0000      -0.652561       -17.7571
  38   2.0000      -0.634981       -17.2787
  39   2.0000      -0.618398       -16.8275
  40   2.0000      -0.594644       -16.1811
  41   2.0000      -0.567325       -15.4377
  42   2.0000      -0.564848       -15.3703
  43   2.0000      -0.558911       -15.2087
  44   2.0000      -0.542340       -14.7578
  45   2.0000      -0.526440       -14.3252
  46   2.0000      -0.511794       -13.9266
  47   2.0000      -0.509320       -13.8593
  48   2.0000      -0.505895       -13.7661
  49   2.0000      -0.498171       -13.5559
  50   2.0000      -0.492431       -13.3997
  51   2.0000      -0.480335       -13.0706
  52   2.0000      -0.468729       -12.7548
  53   2.0000      -0.465820       -12.6756
  54   2.0000      -0.459992       -12.5170
  55   2.0000      -0.455545       -12.3960
  56   2.0000      -0.447786       -12.1849
  57   2.0000      -0.439655       -11.9636
  58   2.0000      -0.429034       -11.6746
  59   2.0000      -0.420311       -11.4372
  60   2.0000      -0.417763       -11.3679
  61   2.0000      -0.411900       -11.2084
  62   2.0000      -0.407680       -11.0935
  63   2.0000      -0.350231        -9.5303
  64   2.0000      -0.328445        -8.9375
  65   2.0000      -0.325343        -8.8530
  66   2.0000      -0.292978        -7.9723
  67   0.0000       0.032072         0.8727
  68   0.0000       0.075569         2.0563
  69   0.0000       0.113269         3.0822
  70   0.0000       0.122134         3.3234
  71   0.0000       0.131428         3.5763

MULLIKEN ATOMIC CHARGES
-----------------------
   0 S :    0.105658
   1 C :   -0.135715
   2 C :   -0.062979
   3 C :   -0.024788
   4 C :   -0.118884
   5 H :    0.016936
   6 C :    0.046251
   7 H :    0.024794
   8 H :    0.044297
   9 C :   -0.053434
  10 H :    0.023254
  11 H :    0.018032
  12 C :   -0.059500
  13 H :    0.058401
  14 H :    0.042391
  15 H :    0.023687
  16 S :    0.104808
  17 C :   -0.098204
  18 C :   -0.053590
  19 C :   -0.018427
  20 C :   -0.172020
  21 H :    0.014229
  22 C :    0.044603
  23 H :    0.034495
  24 H :    0.042379
  25 C :   -0.110856
  26 H :    0.038212
  27 H :    0.046795
  28 C :   -0.047234
  29 H :    0.037374
  30 H :    0.036108
  31 H :    0.035112
  32 H :    0.045268
  33 H :    0.072545
Sum of atomic charges:   -0.0000000

LOEWDIN ATOMIC CHARGES
----------------------
   0 S :    0.384863
   1 C :   -0.178412
   2 C :   -0.060387
   3 C :   -0.064120
   4 C :   -0.206865
   5 H :    0.030331
   6 C :   -0.035506
   7 H :    0.034809
   8 H :    0.041364
   9 C :   -0.041472
  10 H :    0.018137
  11 H :    0.021464
  12 C :   -0.064042
  13 H :    0.028244
  14 H :    0.032306
  15 H :    0.025828
  16 S :    0.407046
  17 C :   -0.196535
  18 C :   -0.069638
  19 C :   -0.054797
  20 C :   -0.198766
  21 H :    0.022902
  22 C :   -0.035719
  23 H :    0.028196
  24 H :    0.036767
  25 C :   -0.043691
  26 H :    0.025630
  27 H :    0.027533
  28 C :   -0.064648
  29 H :    0.027482
  30 H :    0.024035
  31 H :    0.030408
  32 H :    0.027839
  33 H :    0.039414

  Mayer bond orders larger than 0.100000
B(  0-S ,  1-C ) :   1.1104 B(  0-S ,  4-C ) :   1.1193 B(  1-C ,  2-C ) :   1.6519
B(  1-C , 32-H ) :   0.9658 B(  2-C ,  3-C ) :   1.1801 B(  2-C ,  6-C ) :   1.0296
B(  3-C ,  4-C ) :   1.6079 B(  3-C ,  5-H ) :   0.9906 B(  4-C , 20-C ) :   1.0676
B(  6-C ,  7-H ) :   0.9463 B(  6-C ,  8-H ) :   0.9300 B(  6-C ,  9-C ) :   1.0753
B(  9-C , 10-H ) :   0.9510 B(  9-C , 11-H ) :   0.9561 B(  9-C , 12-C ) :   1.0687
B( 12-C , 13-H ) :   0.9737 B( 12-C , 14-H ) :   0.9753 B( 12-C , 15-H ) :   0.9743
B( 16-S , 17-C ) :   1.1382 B( 16-S , 20-C ) :   1.1535 B( 17-C , 18-C ) :   1.5939
B( 17-C , 33-H ) :   0.9693 B( 18-C , 19-C ) :   1.2548 B( 18-C , 21-H ) :   0.9818
B( 19-C , 20-C ) :   1.5849 B( 19-C , 22-C ) :   1.0256 B( 22-C , 23-H ) :   0.9382
B( 22-C , 24-H ) :   0.9326 B( 22-C , 25-C ) :   1.0652 B( 25-C , 26-H ) :   0.9545
B( 25-C , 27-H ) :   0.9558 B( 25-C , 28-C ) :   1.0750 B( 28-C , 29-H ) :   0.9764
B( 28-C , 30-H ) :   0.9769 B( 28-C , 31-H ) :   0.9731

Dispersion correction           -0.014573670
FINAL SINGLE POINT ENERGY     -1339.871108390096

DIPOLE MOMENT
-------------
                                X             Y             Z
Electronic contribution:     -1.30974      31.41540       2.15744
Nuclear contribution   :      1.38088     -32.28269      -2.43130
                        -----------------------------------------
Total Dipole Moment    :      0.07114      -0.86729      -0.27387
                        -----------------------------------------
Magnitude (a.u.)       :      0.91228
Magnitude (Debye)      :      2.31884

Rotational constants in cm-1:     0.015651     0.010395     0.006781
Rotational constants in MHz :   469.215158   311.624112   203.293457

                             ****ORCA TERMINATED NORMALLY****
TOTAL RUN TIME: 0 days 0 hours 0 minutes 22 seconds 63 msec
