                         Program Version 4.2.1 -  RELEASE  -
|  1> ! wB97X-D3 SP def2-SVP
|  2> %pal
|  3> nprocs 24
|  4> end
|  5>
|  6> * xyz 0 1
|  7> S 	 -118.586 	 60.2679 	 -39.2735
|  8> C 	 -119.353 	 61.8148 	 -39.3581
|  9> C 	 -120.136 	 62.039 	 -38.2372
| 10> C 	 -120.247 	 60.8125 	 -37.3876
| 11> C 	 -119.489 	 59.7632 	 -37.8144
| 12> H 	 -120.92 	 60.7057 	 -36.5604
| 13> C 	 -121.232 	 63.1367 	 -38.1372
| 14> H 	 -120.715 	 64.0801 	 -38.483
| 15> H 	 -121.351 	 63.2966 	 -37.0539
| 16> C 	 -122.482 	 63.0773 	 -39.025
| 17> H 	 -122.985 	 64.0319 	 -38.9542
| 18> H 	 -122.175 	 63.0661 	 -40.0761
| 19> C 	 -123.397 	 61.8772 	 -38.6476
| 20> H 	 -124.361 	 61.9642 	 -39.0875
| 21> H 	 -122.957 	 61.0763 	 -39.0872
| 22> H 	 -123.453 	 61.7359 	 -37.5581
| 23> S 	 -119.295 	 58.4883 	 -35.4063
| 24> C 	 -119.288 	 56.685 	 -35.3982
| 25> C 	 -119.155 	 56.1469 	 -36.6309
| 26> C 	 -119.265 	 57.1754 	 -37.6386
| 27> C 	 -119.395 	 58.4547 	 -37.1513
| 28> H 	 -119.073 	 55.0733 	 -36.8717
| 29> C 	 -119.413 	 56.8315 	 -39.1065
| 30> H 	 -120.195 	 57.4622 	 -39.4864
| 31> H 	 -119.978 	 55.9718 	 -39.0813
| 32> C 	 -118.179 	 56.5432 	 -40.0097
| 33> H 	 -117.777 	 57.5114 	 -40.2829
| 34> H 	 -118.541 	 56.0526 	 -40.9296
| 35> C 	 -117.058 	 55.6144 	 -39.4774
| 36> H 	 -116.52 	 56.1527 	 -38.7023
| 37> H 	 -116.309 	 55.5851 	 -40.3103
| 38> H 	 -117.436 	 54.724 	 -39.0728
| 39> H 	 -119.195 	 62.4948 	 -40.1272
| 40> H 	 -119.464 	 56.0448 	 -34.5364
| 41> *
| 42>
| 43>                          ****END OF INPUT****

CARTESIAN COORDINATES (ANGSTROEM)
---------------------------------
  S    -118.586000   60.267900  -39.273500
  C    -119.353000   61.814800  -39.358100
  C    -120.136000   62.039000  -38.237200
  C    -120.247000   60.812500  -37.387600
  C    -119.489000   59.763200  -37.814400
  H    -120.920000   60.705700  -36.560400
  C    -121.232000   63.136700  -38.137200
  H    -120.715000   64.080100  -38.483000
  H    -121.351000   63.296600  -37.053900
  C    -122.482000   63.077300  -39.025000
  H    -122.985000   64.031900  -38.954200
  H    -122.175000   63.066100  -40.076100
  C    -123.397000   61.877200  -38.647600
  H    -124.361000   61.964200  -39.087500
  H    -122.957000   61.076300  -39.087200
  H    -123.453000   61.735900  -37.558100
  S    -119.295000   58.488300  -35.406300
  C    -119.288000   56.685000  -35.398200
  C    -119.155000   56.146900  -36.630900
  C    -119.265000   57.175400  -37.638600
  C    -119.395000   58.454700  -37.151300
  H    -119.073000   55.073300  -36.871700
  C    -119.413000   56.831500  -39.106500
  H    -120.195000   57.462200  -39.486400
  H    -119.978000   55.971800  -39.081300
  C    -118.179000   56.543200  -40.009700
  H    -117.777000   57.511400  -40.282900
  H    -118.541000   56.052600  -40.929600
  C    -117.058000   55.614400  -39.477400
  H    -116.520000   56.152700  -38.702300
  H    -116.309000   55.585100  -40.310300
  H    -117.436000   54.724000  -39.072800
  H    -119.195000   62.494800  -40.127200
  H    -119.464000   56.044800  -34.536400

 Total Charge           Charge          ....    0
 Multiplicity           Mult            ....    1
 Number of Electrons    NEL             ....  134
 Basis Dimension        Dim             ....  322

ORBITAL ENERGIES
----------------

  NO   OCC          E(Eh)            E(eV)
   0   2.0000     -88.966052     -2420.8893
   1   2.0000     -88.965447     -2420.8729
   2   2.0000     -10.332766      -281.1689
   3   2.0000     -10.326021      -280.9853
   4   2.0000     -10.320357      -280.8312
   5   2.0000     -10.314009      -280.6584
   6   2.0000     -10.306833      -280.4632
   7   2.0000     -10.300675      -280.2956
   8   2.0000     -10.297519      -280.2097
   9   2.0000     -10.297092      -280.1981
  10   2.0000     -10.296633      -280.1856
  11   2.0000     -10.288977      -279.9773
  12   2.0000     -10.286143      -279.9002
  13   2.0000     -10.278641      -279.6960
  14   2.0000     -10.276867      -279.6478
  15   2.0000     -10.266437      -279.3639
  16   2.0000      -8.080062      -219.8697
  17   2.0000      -8.079684      -219.8594
  18   2.0000      -6.038787      -164.3237
  19   2.0000      -6.038386      -164.3128
  20   2.0000      -6.034871      -164.2172
  21   2.0000      -6.034181      -164.1984
  22   2.0000      -6.030436      -164.0965
  23   2.0000      -6.030348      -164.0941
  24   2.0000      -1.003370       -27.3031
  25   2.0000      -0.980735       -26.6871
  26   2.0000      -0.904683       -24.6177
  27   2.0000      -0.902673       -24.5630
  28   2.0000      -0.874982       -23.8095
  29   2.0000      -0.847230       -23.0543
  30   2.0000      -0.839215       -22.8362
  31   2.0000      -0.820600       -22.3297
  32   2.0000      -0.784314       -21.3423
  33   2.0000      -0.773041       -21.0355
  34   2.0000      -0.706369       -19.2213
  35   2.0000      -0.705656       -19.2019
  36   2.0000      -0.689703       -18.7678
  37   2.0000      -0.667677       -18.1684
  38   2.0000      -0.643089       -17.4993
  39   2.0000      -0.604591       -16.4518
  40   2.0000      -0.590005       -16.0549
  41   2.0000      -0.568339       -15.4653
  42   2.0000      -0.554895       -15.0995
  43   2.0000      -0.547441       -14.8966
  44   2.0000      -0.544255       -14.8099
  45   2.0000      -0.540226       -14.7003
  46   2.0000      -0.523655       -14.2494
  47   2.0000      -0.516466       -14.0538
  48   2.0000      -0.500046       -13.6069
  49   2.0000      -0.494730       -13.4623
  50   2.0000      -0.482496       -13.1294
  51   2.0000      -0.478689       -13.0258
  52   2.0000      -0.471434       -12.8284
  53   2.0000      -0.469320       -12.7708
  54   2.0000      -0.459609       -12.5066
  55   2.0000      -0.446797       -12.1580
  56   2.0000      -0.443904       -12.0792
  57   2.0000      -0.437923       -11.9165
  58   2.0000      -0.434513       -11.8237
  59   2.0000      -0.416984       -11.3467
  60   2.0000      -0.416053       -11.3214
  61   2.0000      -0.410192       -11.1619
  62   2.0000      -0.406084       -11.0501
  63   2.0000      -0.355647        -9.6776
  64   2.0000      -0.333760        -9.0821
  65   2.0000      -0.323550        -8.8042
  66   2.0000      -0.294729        -8.0200
  67   0.0000       0.025819         0.7026
  68   0.0000       0.078557         2.1376
  69   0.0000       0.102645         2.7931
  70   0.0000       0.110983         3.0200
  71   0.0000       0.124779         3.3954

MULLIKEN ATOMIC CHARGES
-----------------------
   0 S :    0.103176
   1 C :   -0.098439
   2 C :   -0.068438
   3 C :   -0.006678
   4 C :   -0.113840
   5 H :    0.012495
   6 C :   -0.013091
   7 H :    0.026498
   8 H :    0.035007
   9 C :   -0.039944
  10 H :    0.026047
  11 H :    0.022296
  12 C :   -0.004156
  13 H :    0.025003
  14 H :    0.019441
  15 H :    0.033743
  16 S :    0.097476
  17 C :   -0.089379
  18 C :   -0.017473
  19 C :   -0.094374
  20 C :   -0.134253
  21 H :    0.033157
  22 C :    0.091070
  23 H :    0.021256
  24 H :   -0.017234
  25 C :   -0.059349
  26 H :    0.023474
  27 H :    0.029214
  28 C :   -0.039322
  29 H :    0.033758
  30 H :    0.044235
  31 H :    0.027331
  32 H :    0.033289
  33 H :    0.058006
Sum of atomic charges:    0.0000000

LOEWDIN ATOMIC CHARGES
----------------------
   0 S :    0.399929
   1 C :   -0.182986
   2 C :   -0.067145
   3 C :   -0.063282
   4 C :   -0.182427
   5 H :    0.024730
   6 C :   -0.042357
   7 H :    0.034686
   8 H :    0.029958
   9 C :   -0.034486
  10 H :    0.022567
  11 H :    0.025379
  12 C :   -0.054047
  13 H :    0.022824
  14 H :    0.015368
  15 H :    0.028290
  16 S :    0.384301
  17 C :   -0.164702
  18 C :   -0.067881
  19 C :   -0.058257
  20 C :   -0.193615
  21 H :    0.039415
  22 C :   -0.043284
  23 H :    0.034276
  24 H :    0.019582
  25 C :   -0.033999
  26 H :    0.014136
  27 H :    0.025895
  28 C :   -0.061678
  29 H :    0.026628
  30 H :    0.038489
  31 H :    0.014492
  32 H :    0.017551
  33 H :    0.031653

  Mayer bond orders larger than 0.100000
B(  0-S ,  1-C ) :   1.1422 B(  0-S ,  4-C ) :   1.1139 B(  1-C ,  2-C ) :   1.6129
B(  1-C , 32-H ) :   0.9807 B(  2-C ,  3-C ) :   1.1961 B(  2-C ,  6-C ) :   1.0360
B(  3-C ,  4-C ) :   1.6046 B(  3-C ,  5-H ) :   0.9934 B(  4-C , 20-C ) :   1.0557
B(  6-C ,  7-H ) :   0.9387 B(  6-C ,  8-H ) :   0.9470 B(  6-C ,  9-C ) :   1.0689
B(  9-C , 10-H ) :   0.9540 B(  9-C , 11-H ) :   0.9523 B(  9-C , 12-C ) :   1.0672
B( 12-C , 13-H ) :   0.9729 B( 12-C , 14-H ) :   0.9749 B( 12-C , 15-H ) :   0.9775
B( 16-S , 17-C ) :   1.1266 B( 16-S , 20-C ) :   1.1145 B( 17-C , 18-C ) :   1.6494
B( 17-C , 33-H ) :   0.9629 B( 18-C , 19-C ) :   1.2173 B( 18-C , 21-H ) :   0.9816
B( 19-C , 20-C ) :   1.6265 B( 19-C , 22-C ) :   1.0301 B( 22-C , 23-H ) :   0.9349
B( 22-C , 24-H ) :   0.9197 B( 22-C , 25-C ) :   1.0542 B( 25-C , 26-H ) :   0.9553
B( 25-C , 27-H ) :   0.9561 B( 25-C , 28-C ) :   1.0837 B( 28-C , 29-H ) :   0.9712
B( 28-C , 30-H ) :   0.9718 B( 28-C , 31-H ) :   0.9767

Dispersion correction           -0.015146280
FINAL SINGLE POINT ENERGY     -1339.861457190780

DIPOLE MOMENT
-------------
                                X             Y             Z
Electronic contribution:      8.71297       0.34523      11.63700
Nuclear contribution   :     -9.13329      -0.47936     -11.92506
                        -----------------------------------------
Total Dipole Moment    :     -0.42032      -0.13413      -0.28806
                        -----------------------------------------
Magnitude (a.u.)       :      0.52691
Magnitude (Debye)      :      1.33930

Rotational constants in cm-1:     0.021439     0.008333     0.007020
Rotational constants in MHz :   642.728795   249.803027   210.467378

                             ****ORCA TERMINATED NORMALLY****
TOTAL RUN TIME: 0 days 0 hours 0 minutes 21 seconds 619 msec
