                         Program Version 4.2.1 -  RELEASE  -
|  1> ! wB97X-D3 SP def2-SVP
|  2> %pal
|  3> nprocs 24
|  4> end
|  5>
|  6> * xyz 0 1
|  7> S 	 31.0284 	 -8.01514 	 -116.381
|  8> C 	 32.531 	 -8.84858 	 -116.29
|  9> C 	 33.2815 	 -8.33581 	 -115.241
| 10> C 	 32.4694 	 -7.6149 	 -114.294
| 11> C 	 31.2113 	 -7.36163 	 -114.798
| 12> H 	 32.7789 	 -7.29523 	 -113.33
| 13> C 	 34.6851 	 -8.80337 	 -114.909
| 14> H 	 35.2755 	 -7.87015 	 -114.958
| 15> H 	 34.9861 	 -9.38264 	 -115.75
| 16> C 	 34.9992 	 -9.53154 	 -113.6
| 17> H 	 36.0765 	 -9.51104 	 -113.637
| 18> H 	 34.6565 	 -8.99388 	 -112.766
| 19> C 	 34.4398 	 -10.9324 	 -113.617
| 20> H 	 34.8604 	 -11.5567 	 -112.791
| 21> H 	 33.3957 	 -11.0043 	 -113.448
| 22> H 	 34.6594 	 -11.5481 	 -114.531
| 23> S 	 28.4752 	 -7.20969 	 -114.275
| 24> C 	 27.9208 	 -6.24681 	 -112.948
| 25> C 	 28.9236 	 -5.41761 	 -112.493
| 26> C 	 30.2403 	 -5.71264 	 -113.055
| 27> C 	 30.1923 	 -6.68051 	 -114.024
| 28> H 	 28.7091 	 -4.69704 	 -111.647
| 29> C 	 31.4534 	 -5.1066 	 -112.31
| 30> H 	 31.2196 	 -4.03924 	 -112.086
| 31> H 	 32.2742 	 -5.05072 	 -112.987
| 32> C 	 31.8536 	 -5.97797 	 -111.069
| 33> H 	 31.8721 	 -7.0644 	 -111.284
| 34> H 	 31.0589 	 -5.92111 	 -110.27
| 35> C 	 33.0986 	 -5.50614 	 -110.45
| 36> H 	 33.9572 	 -5.63948 	 -111.051
| 37> H 	 33.1093 	 -6.03794 	 -109.537
| 38> H 	 32.9978 	 -4.42997 	 -110.231
| 39> H 	 33.0145 	 -9.469 	 -117.057
| 40> H 	 26.8882 	 -6.14226 	 -112.576
| 41> *
| 42>
| 43>                          ****END OF INPUT****

CARTESIAN COORDINATES (ANGSTROEM)
---------------------------------
  S     31.028400   -8.015140  -116.381000
  C     32.531000   -8.848580  -116.290000
  C     33.281500   -8.335810  -115.241000
  C     32.469400   -7.614900  -114.294000
  C     31.211300   -7.361630  -114.798000
  H     32.778900   -7.295230  -113.330000
  C     34.685100   -8.803370  -114.909000
  H     35.275500   -7.870150  -114.958000
  H     34.986100   -9.382640  -115.750000
  C     34.999200   -9.531540  -113.600000
  H     36.076500   -9.511040  -113.637000
  H     34.656500   -8.993880  -112.766000
  C     34.439800  -10.932400  -113.617000
  H     34.860400  -11.556700  -112.791000
  H     33.395700  -11.004300  -113.448000
  H     34.659400  -11.548100  -114.531000
  S     28.475200   -7.209690  -114.275000
  C     27.920800   -6.246810  -112.948000
  C     28.923600   -5.417610  -112.493000
  C     30.240300   -5.712640  -113.055000
  C     30.192300   -6.680510  -114.024000
  H     28.709100   -4.697040  -111.647000
  C     31.453400   -5.106600  -112.310000
  H     31.219600   -4.039240  -112.086000
  H     32.274200   -5.050720  -112.987000
  C     31.853600   -5.977970  -111.069000
  H     31.872100   -7.064400  -111.284000
  H     31.058900   -5.921110  -110.270000
  C     33.098600   -5.506140  -110.450000
  H     33.957200   -5.639480  -111.051000
  H     33.109300   -6.037940  -109.537000
  H     32.997800   -4.429970  -110.231000
  H     33.014500   -9.469000  -117.057000
  H     26.888200   -6.142260  -112.576000

 Total Charge           Charge          ....    0
 Multiplicity           Mult            ....    1
 Number of Electrons    NEL             ....  134
 Basis Dimension        Dim             ....  322

ORBITAL ENERGIES
----------------

  NO   OCC          E(Eh)            E(eV)
   0   2.0000     -88.966841     -2420.9108
   1   2.0000     -88.961503     -2420.7656
   2   2.0000     -10.330147      -281.0976
   3   2.0000     -10.326723      -281.0044
   4   2.0000     -10.317862      -280.7633
   5   2.0000     -10.311501      -280.5902
   6   2.0000     -10.306900      -280.4650
   7   2.0000     -10.298628      -280.2399
   8   2.0000     -10.298044      -280.2240
   9   2.0000     -10.297536      -280.2102
  10   2.0000     -10.293485      -280.1000
  11   2.0000     -10.289247      -279.9846
  12   2.0000     -10.287285      -279.9313
  13   2.0000     -10.284867      -279.8654
  14   2.0000     -10.277146      -279.6553
  15   2.0000     -10.271995      -279.5152
  16   2.0000      -8.082327      -219.9313
  17   2.0000      -8.075894      -219.7562
  18   2.0000      -6.040846      -164.3798
  19   2.0000      -6.036827      -164.2704
  20   2.0000      -6.034599      -164.2098
  21   2.0000      -6.032929      -164.1643
  22   2.0000      -6.030504      -164.0983
  23   2.0000      -6.026403      -163.9868
  24   2.0000      -1.008595       -27.4453
  25   2.0000      -0.982472       -26.7344
  26   2.0000      -0.915982       -24.9251
  27   2.0000      -0.914265       -24.8784
  28   2.0000      -0.872367       -23.7383
  29   2.0000      -0.856004       -23.2930
  30   2.0000      -0.845895       -23.0180
  31   2.0000      -0.812104       -22.0985
  32   2.0000      -0.782932       -21.3047
  33   2.0000      -0.774374       -21.0718
  34   2.0000      -0.711831       -19.3699
  35   2.0000      -0.699488       -19.0340
  36   2.0000      -0.693198       -18.8629
  37   2.0000      -0.658778       -17.9263
  38   2.0000      -0.635142       -17.2831
  39   2.0000      -0.623848       -16.9758
  40   2.0000      -0.593145       -16.1403
  41   2.0000      -0.567362       -15.4387
  42   2.0000      -0.565496       -15.3879
  43   2.0000      -0.551596       -15.0097
  44   2.0000      -0.542742       -14.7688
  45   2.0000      -0.538548       -14.6546
  46   2.0000      -0.520641       -14.1673
  47   2.0000      -0.513471       -13.9723
  48   2.0000      -0.502946       -13.6859
  49   2.0000      -0.500271       -13.6131
  50   2.0000      -0.491016       -13.3612
  51   2.0000      -0.485898       -13.2220
  52   2.0000      -0.469205       -12.7677
  53   2.0000      -0.466887       -12.7046
  54   2.0000      -0.457434       -12.4474
  55   2.0000      -0.452083       -12.3018
  56   2.0000      -0.442711       -12.0468
  57   2.0000      -0.438236       -11.9250
  58   2.0000      -0.434350       -11.8193
  59   2.0000      -0.428634       -11.6637
  60   2.0000      -0.419783       -11.4229
  61   2.0000      -0.413305       -11.2466
  62   2.0000      -0.411371       -11.1940
  63   2.0000      -0.357666        -9.7326
  64   2.0000      -0.327567        -8.9136
  65   2.0000      -0.326289        -8.8788
  66   2.0000      -0.286572        -7.7980
  67   0.0000       0.026862         0.7309
  68   0.0000       0.080255         2.1839
  69   0.0000       0.107148         2.9156
  70   0.0000       0.120471         3.2782
  71   0.0000       0.125464         3.4141

MULLIKEN ATOMIC CHARGES
-----------------------
   0 S :    0.124783
   1 C :   -0.127663
   2 C :   -0.096680
   3 C :   -0.002113
   4 C :   -0.090296
   5 H :   -0.025098
   6 C :    0.046257
   7 H :    0.032390
   8 H :   -0.002457
   9 C :    0.004794
  10 H :    0.029013
  11 H :    0.018193
  12 C :   -0.068550
  13 H :    0.029398
  14 H :    0.036174
  15 H :    0.029911
  16 S :    0.090624
  17 C :   -0.094627
  18 C :   -0.060905
  19 C :   -0.049576
  20 C :   -0.145126
  21 H :    0.040121
  22 C :    0.054282
  23 H :    0.035017
  24 H :    0.016578
  25 C :   -0.124019
  26 H :    0.043628
  27 H :    0.028356
  28 C :    0.024270
  29 H :    0.023830
  30 H :    0.027256
  31 H :    0.025700
  32 H :    0.058053
  33 H :    0.068482
Sum of atomic charges:   -0.0000000

LOEWDIN ATOMIC CHARGES
----------------------
   0 S :    0.424708
   1 C :   -0.216637
   2 C :   -0.061242
   3 C :   -0.062139
   4 C :   -0.195949
   5 H :    0.021223
   6 C :   -0.033167
   7 H :    0.034841
   8 H :    0.021440
   9 C :   -0.031178
  10 H :    0.029501
  11 H :    0.018392
  12 C :   -0.070157
  13 H :    0.029381
  14 H :    0.023332
  15 H :    0.029427
  16 S :    0.376078
  17 C :   -0.193555
  18 C :   -0.082490
  19 C :   -0.053831
  20 C :   -0.174160
  21 H :    0.039185
  22 C :   -0.030449
  23 H :    0.036468
  24 H :    0.020298
  25 C :   -0.045100
  26 H :    0.027049
  27 H :    0.029288
  28 C :   -0.057782
  29 H :    0.017047
  30 H :    0.026754
  31 H :    0.029916
  32 H :    0.034687
  33 H :    0.038819

  Mayer bond orders larger than 0.100000
B(  0-S ,  1-C ) :   1.1323 B(  0-S ,  4-C ) :   1.1516 B(  1-C ,  2-C ) :   1.6002
B(  1-C , 32-H ) :   0.9605 B(  2-C ,  3-C ) :   1.2260 B(  2-C ,  6-C ) :   1.0404
B(  3-C ,  4-C ) :   1.5572 B(  3-C ,  5-H ) :   1.0011 B(  4-C , 20-C ) :   1.0764
B(  6-C ,  7-H ) :   0.9271 B(  6-C ,  8-H ) :   0.9392 B(  6-C ,  9-C ) :   1.0765
B(  9-C , 10-H ) :   0.9489 B(  9-C , 11-H ) :   0.9513 B(  9-C , 12-C ) :   1.0774
B( 12-C , 13-H ) :   0.9722 B( 12-C , 14-H ) :   0.9761 B( 12-C , 15-H ) :   0.9749
B( 16-S , 17-C ) :   1.1452 B( 16-S , 20-C ) :   1.1027 B( 17-C , 18-C ) :   1.6474
B( 17-C , 33-H ) :   0.9612 B( 18-C , 19-C ) :   1.2060 B( 18-C , 21-H ) :   0.9768
B( 19-C , 20-C ) :   1.6359 B( 19-C , 22-C ) :   1.0508 B( 22-C , 23-H ) :   0.9319
B( 22-C , 24-H ) :   0.9368 B( 22-C , 25-C ) :   1.0470 B( 25-C , 26-H ) :   0.9522
B( 25-C , 27-H ) :   0.9521 B( 25-C , 28-C ) :   1.0898 B( 28-C , 29-H ) :   0.9735
B( 28-C , 30-H ) :   0.9691 B( 28-C , 31-H ) :   0.9667

Dispersion correction           -0.014737931
FINAL SINGLE POINT ENERGY     -1339.875015594335

DIPOLE MOMENT
-------------
                                X             Y             Z
Electronic contribution:    -23.55905       2.54698     -18.77966
Nuclear contribution   :     24.12722      -2.43747      19.43258
                        -----------------------------------------
Total Dipole Moment    :      0.56818       0.10951       0.65293
                        -----------------------------------------
Magnitude (a.u.)       :      0.87243
Magnitude (Debye)      :      2.21753

Rotational constants in cm-1:     0.016999     0.010158     0.007130
Rotational constants in MHz :   509.620676   304.523886   213.756361

                             ****ORCA TERMINATED NORMALLY****
TOTAL RUN TIME: 0 days 0 hours 0 minutes 22 seconds 283 msec
