                         Program Version 4.2.1 -  RELEASE  -
|  1> ! wB97X-D3 SP def2-SVP
|  2> %pal
|  3> nprocs 24
|  4> end
|  5>
|  6> * xyz 0 1
|  7> S 	 -76.2967 	 -3.96943 	 5.58551
|  8> C 	 -74.6535 	 -4.40112 	 5.22192
|  9> C 	 -74.2809 	 -5.59396 	 5.8216
| 10> C 	 -75.3656 	 -6.11325 	 6.56735
| 11> C 	 -76.5438 	 -5.43185 	 6.49923
| 12> H 	 -75.2862 	 -6.80431 	 7.28305
| 13> C 	 -72.8673 	 -6.21243 	 5.98811
| 14> H 	 -72.198 	 -5.93297 	 5.17163
| 15> H 	 -72.926 	 -7.25695 	 5.76659
| 16> C 	 -72.1321 	 -6.05113 	 7.35519
| 17> H 	 -71.1771 	 -6.51762 	 7.1945
| 18> H 	 -71.9756 	 -4.99624 	 7.49107
| 19> C 	 -72.7685 	 -6.5995 	 8.6038
| 20> H 	 -72.0252 	 -7.1105 	 9.20475
| 21> H 	 -73.2272 	 -5.8471 	 9.27354
| 22> H 	 -73.5056 	 -7.38679 	 8.36659
| 23> S 	 -77.763 	 -4.23351 	 8.6308
| 24> C 	 -79.0494 	 -5.14049 	 9.42187
| 25> C 	 -79.261 	 -6.40604 	 8.93386
| 26> C 	 -78.5126 	 -6.62376 	 7.72596
| 27> C 	 -77.6925 	 -5.54711 	 7.37862
| 28> H 	 -79.9281 	 -7.05003 	 9.49778
| 29> C 	 -78.6226 	 -7.96047 	 7.0269
| 30> H 	 -79.1598 	 -8.66292 	 7.65538
| 31> H 	 -77.5925 	 -8.34569 	 6.99654
| 32> C 	 -79.3488 	 -7.82553 	 5.67351
| 33> H 	 -78.8225 	 -7.20638 	 4.97349
| 34> H 	 -80.1993 	 -7.21593 	 5.7377
| 35> C 	 -79.4621 	 -9.23235 	 4.85238
| 36> H 	 -80.1624 	 -9.90621 	 5.38019
| 37> H 	 -78.5189 	 -9.70289 	 4.75943
| 38> H 	 -79.984 	 -8.96755 	 3.87687
| 39> H 	 -73.9538 	 -3.75229 	 4.6254
| 40> H 	 -79.5869 	 -4.8568 	 10.2894
| 41> *
| 42>
| 43>                          ****END OF INPUT****

CARTESIAN COORDINATES (ANGSTROEM)
---------------------------------
  S    -76.296700   -3.969430    5.585510
  C    -74.653500   -4.401120    5.221920
  C    -74.280900   -5.593960    5.821600
  C    -75.365600   -6.113250    6.567350
  C    -76.543800   -5.431850    6.499230
  H    -75.286200   -6.804310    7.283050
  C    -72.867300   -6.212430    5.988110
  H    -72.198000   -5.932970    5.171630
  H    -72.926000   -7.256950    5.766590
  C    -72.132100   -6.051130    7.355190
  H    -71.177100   -6.517620    7.194500
  H    -71.975600   -4.996240    7.491070
  C    -72.768500   -6.599500    8.603800
  H    -72.025200   -7.110500    9.204750
  H    -73.227200   -5.847100    9.273540
  H    -73.505600   -7.386790    8.366590
  S    -77.763000   -4.233510    8.630800
  C    -79.049400   -5.140490    9.421870
  C    -79.261000   -6.406040    8.933860
  C    -78.512600   -6.623760    7.725960
  C    -77.692500   -5.547110    7.378620
  H    -79.928100   -7.050030    9.497780
  C    -78.622600   -7.960470    7.026900
  H    -79.159800   -8.662920    7.655380
  H    -77.592500   -8.345690    6.996540
  C    -79.348800   -7.825530    5.673510
  H    -78.822500   -7.206380    4.973490
  H    -80.199300   -7.215930    5.737700
  C    -79.462100   -9.232350    4.852380
  H    -80.162400   -9.906210    5.380190
  H    -78.518900   -9.702890    4.759430
  H    -79.984000   -8.967550    3.876870
  H    -73.953800   -3.752290    4.625400
  H    -79.586900   -4.856800   10.289400

 Total Charge           Charge          ....    0
 Multiplicity           Mult            ....    1
 Number of Electrons    NEL             ....  134
 Basis Dimension        Dim             ....  322

ORBITAL ENERGIES
----------------

  NO   OCC          E(Eh)            E(eV)
   0   2.0000     -88.965746     -2420.8810
   1   2.0000     -88.963479     -2420.8193
   2   2.0000     -10.328355      -281.0488
   3   2.0000     -10.322172      -280.8806
   4   2.0000     -10.318902      -280.7916
   5   2.0000     -10.313208      -280.6366
   6   2.0000     -10.307034      -280.4687
   7   2.0000     -10.301494      -280.3179
   8   2.0000     -10.294265      -280.1212
   9   2.0000     -10.292670      -280.0778
  10   2.0000     -10.291896      -280.0567
  11   2.0000     -10.285371      -279.8792
  12   2.0000     -10.284517      -279.8559
  13   2.0000     -10.282237      -279.7939
  14   2.0000     -10.279483      -279.7190
  15   2.0000     -10.278394      -279.6893
  16   2.0000      -8.079319      -219.8494
  17   2.0000      -8.078750      -219.8340
  18   2.0000      -6.037869      -164.2988
  19   2.0000      -6.037144      -164.2790
  20   2.0000      -6.034185      -164.1985
  21   2.0000      -6.033144      -164.1702
  22   2.0000      -6.029890      -164.0816
  23   2.0000      -6.029626      -164.0745
  24   2.0000      -1.006524       -27.3889
  25   2.0000      -0.979417       -26.6513
  26   2.0000      -0.908475       -24.7209
  27   2.0000      -0.900131       -24.4938
  28   2.0000      -0.870021       -23.6745
  29   2.0000      -0.849131       -23.1060
  30   2.0000      -0.840238       -22.8640
  31   2.0000      -0.814299       -22.1582
  32   2.0000      -0.786292       -21.3961
  33   2.0000      -0.769281       -20.9332
  34   2.0000      -0.712238       -19.3810
  35   2.0000      -0.700492       -19.0614
  36   2.0000      -0.693406       -18.8685
  37   2.0000      -0.660773       -17.9806
  38   2.0000      -0.646228       -17.5848
  39   2.0000      -0.621627       -16.9153
  40   2.0000      -0.588912       -16.0251
  41   2.0000      -0.572715       -15.5844
  42   2.0000      -0.555284       -15.1100
  43   2.0000      -0.543157       -14.7800
  44   2.0000      -0.537729       -14.6324
  45   2.0000      -0.524775       -14.2799
  46   2.0000      -0.516726       -14.0608
  47   2.0000      -0.506941       -13.7946
  48   2.0000      -0.499294       -13.5865
  49   2.0000      -0.494955       -13.4684
  50   2.0000      -0.492534       -13.4025
  51   2.0000      -0.481215       -13.0945
  52   2.0000      -0.473844       -12.8939
  53   2.0000      -0.465982       -12.6800
  54   2.0000      -0.458104       -12.4656
  55   2.0000      -0.451256       -12.2793
  56   2.0000      -0.443212       -12.0604
  57   2.0000      -0.435523       -11.8512
  58   2.0000      -0.434547       -11.8246
  59   2.0000      -0.423074       -11.5124
  60   2.0000      -0.416588       -11.3359
  61   2.0000      -0.411999       -11.2111
  62   2.0000      -0.409675       -11.1478
  63   2.0000      -0.343244        -9.3401
  64   2.0000      -0.329793        -8.9741
  65   2.0000      -0.327166        -8.9026
  66   2.0000      -0.295128        -8.0308
  67   0.0000       0.031522         0.8577
  68   0.0000       0.062141         1.6909
  69   0.0000       0.104926         2.8552
  70   0.0000       0.124808         3.3962
  71   0.0000       0.128199         3.4885

MULLIKEN ATOMIC CHARGES
-----------------------
   0 S :    0.102469
   1 C :   -0.142882
   2 C :   -0.060828
   3 C :    0.086208
   4 C :   -0.164862
   5 H :   -0.052239
   6 C :    0.051620
   7 H :    0.014527
   8 H :    0.016035
   9 C :   -0.039136
  10 H :    0.027275
  11 H :    0.026631
  12 C :   -0.060450
  13 H :    0.025925
  14 H :    0.049648
  15 H :    0.030290
  16 S :    0.099382
  17 C :   -0.066502
  18 C :   -0.047556
  19 C :   -0.065555
  20 C :   -0.137342
  21 H :    0.023047
  22 C :    0.114803
  23 H :    0.011278
  24 H :    0.028090
  25 C :   -0.069047
  26 H :    0.024443
  27 H :    0.015935
  28 C :   -0.065175
  29 H :    0.032964
  30 H :    0.039884
  31 H :    0.048736
  32 H :    0.066199
  33 H :    0.036185
Sum of atomic charges:    0.0000000

LOEWDIN ATOMIC CHARGES
----------------------
   0 S :    0.412005
   1 C :   -0.201910
   2 C :   -0.066273
   3 C :   -0.045029
   4 C :   -0.204319
   5 H :    0.005888
   6 C :   -0.032548
   7 H :    0.031159
   8 H :    0.025333
   9 C :   -0.037017
  10 H :    0.026016
  11 H :    0.024885
  12 C :   -0.072085
  13 H :    0.028196
  14 H :    0.033798
  15 H :    0.025038
  16 S :    0.375186
  17 C :   -0.169659
  18 C :   -0.074248
  19 C :   -0.045183
  20 C :   -0.186403
  21 H :    0.035130
  22 C :   -0.029199
  23 H :    0.026448
  24 H :    0.033501
  25 C :   -0.036525
  26 H :    0.024357
  27 H :    0.019693
  28 C :   -0.063531
  29 H :    0.021867
  30 H :    0.020080
  31 H :    0.036097
  32 H :    0.038497
  33 H :    0.020757

  Mayer bond orders larger than 0.100000
B(  0-S ,  1-C ) :   1.1570 B(  0-S ,  4-C ) :   1.1456 B(  1-C ,  2-C ) :   1.6011
B(  1-C , 32-H ) :   0.9609 B(  2-C ,  3-C ) :   1.2521 B(  2-C ,  6-C ) :   1.0223
B(  3-C ,  4-C ) :   1.5853 B(  3-C ,  5-H ) :   1.0057 B(  4-C , 20-C ) :   1.0263
B(  6-C ,  7-H ) :   0.9394 B(  6-C ,  8-H ) :   0.9367 B(  6-C ,  9-C ) :   1.0820
B(  9-C , 10-H ) :   0.9548 B(  9-C , 11-H ) :   0.9558 B(  9-C , 12-C ) :   1.0755
B( 12-C , 13-H ) :   0.9694 B( 12-C , 14-H ) :   0.9754 B( 12-C , 15-H ) :   0.9744
B( 16-S , 17-C ) :   1.1480 B( 16-S , 20-C ) :   1.1101 B( 17-C , 18-C ) :   1.6540
B( 17-C , 33-H ) :   0.9635 B( 18-C , 19-C ) :   1.2121 B( 18-C , 21-H ) :   0.9903
B( 19-C , 20-C ) :   1.6267 B( 19-C , 22-C ) :   1.0397 B( 22-C , 23-H ) :   0.9383
B( 22-C , 24-H ) :   0.9264 B( 22-C , 25-C ) :   1.0539 B( 25-C , 26-H ) :   0.9576
B( 25-C , 27-H ) :   0.9570 B( 25-C , 28-C ) :   1.0622 B( 28-C , 29-H ) :   0.9812
B( 28-C , 30-H ) :   0.9776 B( 28-C , 31-H ) :   0.9775

Dispersion correction           -0.014435297
FINAL SINGLE POINT ENERGY     -1339.855256287549

DIPOLE MOMENT
-------------
                                X             Y             Z
Electronic contribution:     -7.50027      20.59932       2.14704
Nuclear contribution   :      7.85291     -21.13298      -1.85974
                        -----------------------------------------
Total Dipole Moment    :      0.35264      -0.53366       0.28730
                        -----------------------------------------
Magnitude (a.u.)       :      0.70121
Magnitude (Debye)      :      1.78232

Rotational constants in cm-1:     0.016537     0.008995     0.007974
Rotational constants in MHz :   495.771363   269.675230   239.067771

                             ****ORCA TERMINATED NORMALLY****
TOTAL RUN TIME: 0 days 0 hours 0 minutes 21 seconds 534 msec
