                         Program Version 4.2.1 -  RELEASE  -
|  1> ! wB97X-D3 SP def2-SVP
|  2> %pal
|  3> nprocs 24
|  4> end
|  5>
|  6> * xyz 0 1
|  7> S 	 -56.8654 	 3.70261 	 -24.6016
|  8> C 	 -55.4455 	 4.6423 	 -24.9745
|  9> C 	 -54.5822 	 3.93338 	 -25.8295
| 10> C 	 -54.9641 	 2.55848 	 -25.9467
| 11> C 	 -56.164 	 2.22769 	 -25.3459
| 12> H 	 -54.3877 	 1.8617 	 -26.5632
| 13> C 	 -53.2253 	 4.43373 	 -26.2837
| 14> H 	 -53.3563 	 5.47948 	 -26.2156
| 15> H 	 -53.1853 	 4.20084 	 -27.3694
| 16> C 	 -51.9664 	 3.8268 	 -25.6875
| 17> H 	 -51.9929 	 4.26625 	 -24.6143
| 18> H 	 -52.0212 	 2.7364 	 -25.6575
| 19> C 	 -50.6691 	 4.13456 	 -26.4227
| 20> H 	 -50.7177 	 3.68134 	 -27.4303
| 21> H 	 -50.4146 	 5.18065 	 -26.2617
| 22> H 	 -49.895 	 3.58079 	 -26.005
| 23> S 	 -57.4471 	 0.432543 	 -23.7373
| 24> C 	 -57.5813 	 -1.22222 	 -24.3575
| 25> C 	 -57.1874 	 -1.35554 	 -25.7088
| 26> C 	 -56.708 	 -0.105359 	 -26.2011
| 27> C 	 -56.7512 	 0.882242 	 -25.2639
| 28> H 	 -57.2737 	 -2.34419 	 -26.1872
| 29> C 	 -56.1906 	 -0.000538449 	 -27.5951
| 30> H 	 -56.3489 	 1.07801 	 -27.8838
| 31> H 	 -56.9169 	 -0.354767 	 -28.3129
| 32> C 	 -54.8567 	 -0.636508 	 -27.9046
| 33> H 	 -55.0079 	 -1.69667 	 -28.0793
| 34> H 	 -54.3316 	 -0.440817 	 -27.0051
| 35> C 	 -54.2192 	 0.126925 	 -29.0237
| 36> H 	 -53.201 	 -0.338652 	 -29.1431
| 37> H 	 -54.0393 	 1.13643 	 -28.753
| 38> H 	 -54.6962 	 0.170756 	 -30.0145
| 39> H 	 -55.3767 	 5.68588 	 -24.7902
| 40> H 	 -58.0928 	 -2.02973 	 -23.8126
| 41> *
| 42>
| 43>                          ****END OF INPUT****

CARTESIAN COORDINATES (ANGSTROEM)
---------------------------------
  S    -56.865400    3.702610  -24.601600
  C    -55.445500    4.642300  -24.974500
  C    -54.582200    3.933380  -25.829500
  C    -54.964100    2.558480  -25.946700
  C    -56.164000    2.227690  -25.345900
  H    -54.387700    1.861700  -26.563200
  C    -53.225300    4.433730  -26.283700
  H    -53.356300    5.479480  -26.215600
  H    -53.185300    4.200840  -27.369400
  C    -51.966400    3.826800  -25.687500
  H    -51.992900    4.266250  -24.614300
  H    -52.021200    2.736400  -25.657500
  C    -50.669100    4.134560  -26.422700
  H    -50.717700    3.681340  -27.430300
  H    -50.414600    5.180650  -26.261700
  H    -49.895000    3.580790  -26.005000
  S    -57.447100    0.432543  -23.737300
  C    -57.581300   -1.222220  -24.357500
  C    -57.187400   -1.355540  -25.708800
  C    -56.708000   -0.105359  -26.201100
  C    -56.751200    0.882242  -25.263900
  H    -57.273700   -2.344190  -26.187200
  C    -56.190600   -0.000538  -27.595100
  H    -56.348900    1.078010  -27.883800
  H    -56.916900   -0.354767  -28.312900
  C    -54.856700   -0.636508  -27.904600
  H    -55.007900   -1.696670  -28.079300
  H    -54.331600   -0.440817  -27.005100
  C    -54.219200    0.126925  -29.023700
  H    -53.201000   -0.338652  -29.143100
  H    -54.039300    1.136430  -28.753000
  H    -54.696200    0.170756  -30.014500
  H    -55.376700    5.685880  -24.790200
  H    -58.092800   -2.029730  -23.812600

 Total Charge           Charge          ....    0
 Multiplicity           Mult            ....    1
 Number of Electrons    NEL             ....  134
 Basis Dimension        Dim             ....  322

ORBITAL ENERGIES
----------------

  NO   OCC          E(Eh)            E(eV)
   0   2.0000     -88.969291     -2420.9775
   1   2.0000     -88.966646     -2420.9055
   2   2.0000     -10.332862      -281.1715
   3   2.0000     -10.324761      -280.9510
   4   2.0000     -10.321940      -280.8743
   5   2.0000     -10.313729      -280.6508
   6   2.0000     -10.301097      -280.3071
   7   2.0000     -10.299578      -280.2658
   8   2.0000     -10.298958      -280.2489
   9   2.0000     -10.293504      -280.1005
  10   2.0000     -10.292441      -280.0715
  11   2.0000     -10.288025      -279.9514
  12   2.0000     -10.284035      -279.8428
  13   2.0000     -10.283915      -279.8396
  14   2.0000     -10.280946      -279.7588
  15   2.0000     -10.276631      -279.6413
  16   2.0000      -8.083864      -219.9731
  17   2.0000      -8.080642      -219.8854
  18   2.0000      -6.042283      -164.4189
  19   2.0000      -6.039263      -164.3367
  20   2.0000      -6.038582      -164.3182
  21   2.0000      -6.035268      -164.2280
  22   2.0000      -6.034540      -164.2082
  23   2.0000      -6.031331      -164.1208
  24   2.0000      -1.005188       -27.3526
  25   2.0000      -0.980425       -26.6787
  26   2.0000      -0.921460       -25.0742
  27   2.0000      -0.911730       -24.8094
  28   2.0000      -0.867040       -23.5934
  29   2.0000      -0.859085       -23.3769
  30   2.0000      -0.848540       -23.0899
  31   2.0000      -0.814404       -22.1611
  32   2.0000      -0.782963       -21.3055
  33   2.0000      -0.770920       -20.9778
  34   2.0000      -0.709780       -19.3141
  35   2.0000      -0.698956       -19.0195
  36   2.0000      -0.692336       -18.8394
  37   2.0000      -0.664126       -18.0718
  38   2.0000      -0.637823       -17.3560
  39   2.0000      -0.622479       -16.9385
  40   2.0000      -0.598916       -16.2973
  41   2.0000      -0.576234       -15.6801
  42   2.0000      -0.569382       -15.4937
  43   2.0000      -0.561831       -15.2882
  44   2.0000      -0.533808       -14.5257
  45   2.0000      -0.529366       -14.4048
  46   2.0000      -0.513398       -13.9703
  47   2.0000      -0.507478       -13.8092
  48   2.0000      -0.503272       -13.6947
  49   2.0000      -0.500823       -13.6281
  50   2.0000      -0.493943       -13.4409
  51   2.0000      -0.482666       -13.1340
  52   2.0000      -0.473054       -12.8724
  53   2.0000      -0.466890       -12.7047
  54   2.0000      -0.456045       -12.4096
  55   2.0000      -0.452111       -12.3026
  56   2.0000      -0.449020       -12.2185
  57   2.0000      -0.438072       -11.9206
  58   2.0000      -0.432678       -11.7738
  59   2.0000      -0.426025       -11.5927
  60   2.0000      -0.419113       -11.4046
  61   2.0000      -0.411170       -11.1885
  62   2.0000      -0.405279       -11.0282
  63   2.0000      -0.351460        -9.5637
  64   2.0000      -0.334950        -9.1145
  65   2.0000      -0.326990        -8.8979
  66   2.0000      -0.286303        -7.7907
  67   0.0000       0.026127         0.7109
  68   0.0000       0.072816         1.9814
  69   0.0000       0.102237         2.7820
  70   0.0000       0.116148         3.1606
  71   0.0000       0.123454         3.3594

MULLIKEN ATOMIC CHARGES
-----------------------
   0 S :    0.099627
   1 C :   -0.115271
   2 C :   -0.101353
   3 C :    0.015444
   4 C :   -0.126588
   5 H :   -0.008481
   6 C :    0.086497
   7 H :    0.007136
   8 H :    0.014424
   9 C :   -0.105403
  10 H :    0.040515
  11 H :    0.029129
  12 C :   -0.003817
  13 H :    0.033264
  14 H :    0.040867
  15 H :    0.014060
  16 S :    0.118243
  17 C :   -0.114366
  18 C :   -0.039728
  19 C :   -0.038913
  20 C :   -0.129999
  21 H :    0.033833
  22 C :   -0.008655
  23 H :    0.033196
  24 H :    0.015298
  25 C :   -0.000001
  26 H :    0.037831
  27 H :    0.028748
  28 C :   -0.056679
  29 H :    0.033982
  30 H :    0.018896
  31 H :    0.040286
  32 H :    0.044121
  33 H :    0.063855
Sum of atomic charges:   -0.0000000

LOEWDIN ATOMIC CHARGES
----------------------
   0 S :    0.384780
   1 C :   -0.197472
   2 C :   -0.060940
   3 C :   -0.064482
   4 C :   -0.175830
   5 H :    0.028794
   6 C :   -0.038050
   7 H :    0.022926
   8 H :    0.029803
   9 C :   -0.044863
  10 H :    0.034088
  11 H :    0.023931
  12 C :   -0.062256
  13 H :    0.032409
  14 H :    0.029715
  15 H :    0.019674
  16 S :    0.406138
  17 C :   -0.181864
  18 C :   -0.066165
  19 C :   -0.061015
  20 C :   -0.199377
  21 H :    0.039438
  22 C :   -0.049288
  23 H :    0.037871
  24 H :    0.029029
  25 C :   -0.034739
  26 H :    0.028725
  27 H :    0.022464
  28 C :   -0.062520
  29 H :    0.031540
  30 H :    0.017186
  31 H :    0.028947
  32 H :    0.021857
  33 H :    0.029544

  Mayer bond orders larger than 0.100000
B(  0-S ,  1-C ) :   1.1405 B(  0-S ,  4-C ) :   1.1367 B(  1-C ,  2-C ) :   1.5899
B(  1-C , 32-H ) :   0.9678 B(  2-C ,  3-C ) :   1.2471 B(  2-C ,  6-C ) :   1.0441
B(  3-C ,  4-C ) :   1.5718 B(  3-C ,  5-H ) :   0.9843 B(  4-C , 20-C ) :   1.0412
B(  6-C ,  7-H ) :   0.9383 B(  6-C ,  8-H ) :   0.9259 B(  6-C ,  9-C ) :   1.0565
B(  9-C , 10-H ) :   0.9528 B(  9-C , 11-H ) :   0.9539 B(  9-C , 12-C ) :   1.0929
B( 12-C , 13-H ) :   0.9666 B( 12-C , 14-H ) :   0.9748 B( 12-C , 15-H ) :   0.9696
B( 16-S , 17-C ) :   1.1521 B( 16-S , 20-C ) :   1.1321 B( 17-C , 18-C ) :   1.6163
B( 17-C , 33-H ) :   0.9634 B( 18-C , 19-C ) :   1.2168 B( 18-C , 21-H ) :   0.9907
B( 19-C , 20-C ) :   1.6172 B( 19-C , 22-C ) :   1.0552 B( 22-C , 23-H ) :   0.9389
B( 22-C , 24-H ) :   0.9200 B( 22-C , 25-C ) :   1.0346 B( 25-C , 26-H ) :   0.9467
B( 25-C , 27-H ) :   0.9549 B( 25-C , 28-C ) :   1.0931 B( 28-C , 29-H ) :   0.9707
B( 28-C , 30-H ) :   0.9729 B( 28-C , 31-H ) :   0.9721

Dispersion correction           -0.014667649
FINAL SINGLE POINT ENERGY     -1339.865091871817

DIPOLE MOMENT
-------------
                                X             Y             Z
Electronic contribution:    -25.66340      -0.01573      19.43808
Nuclear contribution   :     26.14464      -0.22817     -19.95251
                        -----------------------------------------
Total Dipole Moment    :      0.48125      -0.24391      -0.51443
                        -----------------------------------------
Magnitude (a.u.)       :      0.74547
Magnitude (Debye)      :      1.89483

Rotational constants in cm-1:     0.017224     0.009584     0.006939
Rotational constants in MHz :   516.355687   287.318152   208.021656

                             ****ORCA TERMINATED NORMALLY****
TOTAL RUN TIME: 0 days 0 hours 0 minutes 21 seconds 87 msec
