                         Program Version 4.2.1 -  RELEASE  -
|  1> ! wB97X-D3 SP def2-SVP
|  2> %pal
|  3> nprocs 24
|  4> end
|  5>
|  6> * xyz 0 1
|  7> S 	 -134.121 	 62.3816 	 -56.4144
|  8> C 	 -135.069 	 62.9966 	 -57.7949
|  9> C 	 -134.638 	 64.2471 	 -58.1414
| 10> C 	 -133.572 	 64.6234 	 -57.3133
| 11> C 	 -133.233 	 63.7774 	 -56.2812
| 12> H 	 -133.065 	 65.5928 	 -57.3944
| 13> C 	 -135.239 	 65.2419 	 -59.1415
| 14> H 	 -135.733 	 64.6955 	 -59.9524
| 15> H 	 -134.46 	 65.8762 	 -59.5738
| 16> C 	 -136.179 	 66.2676 	 -58.4716
| 17> H 	 -136.963 	 65.7442 	 -57.9615
| 18> H 	 -135.75 	 66.8886 	 -57.6623
| 19> C 	 -136.782 	 67.1544 	 -59.4873
| 20> H 	 -137.297 	 66.6694 	 -60.2626
| 21> H 	 -137.433 	 67.8472 	 -59.038
| 22> H 	 -135.986 	 67.7279 	 -60.0059
| 23> S 	 -132.483 	 63.4423 	 -53.6854
| 24> C 	 -130.953 	 63.9244 	 -53.1695
| 25> C 	 -130.182 	 64.3228 	 -54.2444
| 26> C 	 -130.857 	 64.325 	 -55.5176
| 27> C 	 -132.162 	 63.8687 	 -55.338
| 28> H 	 -129.171 	 64.6558 	 -54.1431
| 29> C 	 -130.171 	 64.8393 	 -56.746
| 30> H 	 -129.136 	 65.0407 	 -56.5306
| 31> H 	 -130.634 	 65.7683 	 -57.0425
| 32> C 	 -130.08 	 63.9448 	 -58.0016
| 33> H 	 -130.958 	 64.0838 	 -58.6089
| 34> H 	 -130.06 	 63.0145 	 -57.655
| 35> C 	 -128.882 	 64.3912 	 -58.9125
| 36> H 	 -127.95 	 64.1071 	 -58.457
| 37> H 	 -129.02 	 65.4352 	 -59.1537
| 38> H 	 -128.841 	 63.9208 	 -59.8614
| 39> H 	 -135.811 	 62.4846 	 -58.3193
| 40> H 	 -130.476 	 63.8865 	 -52.1946
| 41> *
| 42>
| 43>                          ****END OF INPUT****

CARTESIAN COORDINATES (ANGSTROEM)
---------------------------------
  S    -134.121000   62.381600  -56.414400
  C    -135.069000   62.996600  -57.794900
  C    -134.638000   64.247100  -58.141400
  C    -133.572000   64.623400  -57.313300
  C    -133.233000   63.777400  -56.281200
  H    -133.065000   65.592800  -57.394400
  C    -135.239000   65.241900  -59.141500
  H    -135.733000   64.695500  -59.952400
  H    -134.460000   65.876200  -59.573800
  C    -136.179000   66.267600  -58.471600
  H    -136.963000   65.744200  -57.961500
  H    -135.750000   66.888600  -57.662300
  C    -136.782000   67.154400  -59.487300
  H    -137.297000   66.669400  -60.262600
  H    -137.433000   67.847200  -59.038000
  H    -135.986000   67.727900  -60.005900
  S    -132.483000   63.442300  -53.685400
  C    -130.953000   63.924400  -53.169500
  C    -130.182000   64.322800  -54.244400
  C    -130.857000   64.325000  -55.517600
  C    -132.162000   63.868700  -55.338000
  H    -129.171000   64.655800  -54.143100
  C    -130.171000   64.839300  -56.746000
  H    -129.136000   65.040700  -56.530600
  H    -130.634000   65.768300  -57.042500
  C    -130.080000   63.944800  -58.001600
  H    -130.958000   64.083800  -58.608900
  H    -130.060000   63.014500  -57.655000
  C    -128.882000   64.391200  -58.912500
  H    -127.950000   64.107100  -58.457000
  H    -129.020000   65.435200  -59.153700
  H    -128.841000   63.920800  -59.861400
  H    -135.811000   62.484600  -58.319300
  H    -130.476000   63.886500  -52.194600

 Total Charge           Charge          ....    0
 Multiplicity           Mult            ....    1
 Number of Electrons    NEL             ....  134
 Basis Dimension        Dim             ....  322

ORBITAL ENERGIES
----------------

  NO   OCC          E(Eh)            E(eV)
   0   2.0000     -88.967818     -2420.9374
   1   2.0000     -88.963020     -2420.8069
   2   2.0000     -10.323314      -280.9116
   3   2.0000     -10.318513      -280.7810
   4   2.0000     -10.312621      -280.6207
   5   2.0000     -10.308234      -280.5013
   6   2.0000     -10.302319      -280.3404
   7   2.0000     -10.297801      -280.2174
   8   2.0000     -10.297240      -280.2021
   9   2.0000     -10.288853      -279.9739
  10   2.0000     -10.286261      -279.9034
  11   2.0000     -10.284987      -279.8687
  12   2.0000     -10.282019      -279.7880
  13   2.0000     -10.274053      -279.5712
  14   2.0000     -10.271825      -279.5106
  15   2.0000     -10.267974      -279.4058
  16   2.0000      -8.083775      -219.9707
  17   2.0000      -8.079134      -219.8444
  18   2.0000      -6.042225      -164.4173
  19   2.0000      -6.037953      -164.3011
  20   2.0000      -6.037546      -164.2900
  21   2.0000      -6.034688      -164.2122
  22   2.0000      -6.033333      -164.1753
  23   2.0000      -6.029999      -164.0846
  24   2.0000      -1.018790       -27.7227
  25   2.0000      -0.992883       -27.0177
  26   2.0000      -0.919510       -25.0211
  27   2.0000      -0.911833       -24.8122
  28   2.0000      -0.878717       -23.9111
  29   2.0000      -0.854627       -23.2556
  30   2.0000      -0.845559       -23.0088
  31   2.0000      -0.811311       -22.0769
  32   2.0000      -0.786993       -21.4152
  33   2.0000      -0.777920       -21.1683
  34   2.0000      -0.715257       -19.4631
  35   2.0000      -0.702704       -19.1216
  36   2.0000      -0.695819       -18.9342
  37   2.0000      -0.665086       -18.0979
  38   2.0000      -0.642034       -17.4706
  39   2.0000      -0.622405       -16.9365
  40   2.0000      -0.600585       -16.3427
  41   2.0000      -0.575797       -15.6682
  42   2.0000      -0.572472       -15.5777
  43   2.0000      -0.562480       -15.3059
  44   2.0000      -0.531456       -14.4616
  45   2.0000      -0.527815       -14.3626
  46   2.0000      -0.521813       -14.1993
  47   2.0000      -0.512362       -13.9421
  48   2.0000      -0.507551       -13.8112
  49   2.0000      -0.502213       -13.6659
  50   2.0000      -0.497333       -13.5331
  51   2.0000      -0.482005       -13.1160
  52   2.0000      -0.471879       -12.8405
  53   2.0000      -0.465881       -12.6773
  54   2.0000      -0.458939       -12.4884
  55   2.0000      -0.450309       -12.2535
  56   2.0000      -0.446065       -12.1380
  57   2.0000      -0.442216       -12.0333
  58   2.0000      -0.435801       -11.8587
  59   2.0000      -0.430662       -11.7189
  60   2.0000      -0.421832       -11.4786
  61   2.0000      -0.415750       -11.3131
  62   2.0000      -0.413263       -11.2455
  63   2.0000      -0.350991        -9.5509
  64   2.0000      -0.331287        -9.0148
  65   2.0000      -0.329188        -8.9577
  66   2.0000      -0.289457        -7.8765
  67   0.0000       0.032183         0.8757
  68   0.0000       0.079084         2.1520
  69   0.0000       0.113677         3.0933
  70   0.0000       0.123763         3.3677
  71   0.0000       0.142548         3.8789

MULLIKEN ATOMIC CHARGES
-----------------------
   0 S :    0.107661
   1 C :   -0.114411
   2 C :   -0.048833
   3 C :   -0.017585
   4 C :   -0.118153
   5 H :    0.001027
   6 C :    0.064193
   7 H :    0.026199
   8 H :    0.020522
   9 C :   -0.071460
  10 H :    0.016910
  11 H :    0.034786
  12 C :    0.001447
  13 H :    0.013405
  14 H :    0.023047
  15 H :    0.017028
  16 S :    0.131526
  17 C :   -0.067095
  18 C :   -0.055729
  19 C :   -0.031503
  20 C :   -0.163554
  21 H :    0.005365
  22 C :    0.066994
  23 H :    0.003083
  24 H :    0.029537
  25 C :   -0.012935
  26 H :    0.028486
  27 H :   -0.000167
  28 C :   -0.046494
  29 H :    0.032469
  30 H :    0.030512
  31 H :    0.021063
  32 H :    0.015887
  33 H :    0.056773
Sum of atomic charges:   -0.0000000

LOEWDIN ATOMIC CHARGES
----------------------
   0 S :    0.434357
   1 C :   -0.183822
   2 C :   -0.060864
   3 C :   -0.075709
   4 C :   -0.223380
   5 H :    0.027086
   6 C :   -0.022933
   7 H :    0.030867
   8 H :    0.030444
   9 C :   -0.040496
  10 H :    0.020030
  11 H :    0.030444
  12 C :   -0.057868
  13 H :    0.016958
  14 H :    0.021893
  15 H :    0.026245
  16 S :    0.444397
  17 C :   -0.213283
  18 C :   -0.069710
  19 C :   -0.051036
  20 C :   -0.208950
  21 H :    0.024098
  22 C :   -0.028930
  23 H :    0.027652
  24 H :    0.029966
  25 C :   -0.019076
  26 H :    0.023398
  27 H :    0.004035
  28 C :   -0.059307
  29 H :    0.022844
  30 H :    0.026347
  31 H :    0.022183
  32 H :    0.014779
  33 H :    0.037340

  Mayer bond orders larger than 0.100000
B(  0-S ,  1-C ) :   1.1351 B(  0-S ,  4-C ) :   1.1808 B(  1-C ,  2-C ) :   1.5921
B(  1-C ,  4-C ) :   0.1031 B(  1-C , 32-H ) :   0.9810 B(  2-C ,  3-C ) :   1.2665
B(  2-C ,  6-C ) :   1.0268 B(  3-C ,  4-C ) :   1.5497 B(  3-C ,  5-H ) :   0.9968
B(  4-C , 20-C ) :   1.0309 B(  6-C ,  7-H ) :   0.9422 B(  6-C ,  8-H ) :   0.9384
B(  6-C ,  9-C ) :   1.0605 B(  9-C , 10-H ) :   0.9496 B(  9-C , 11-H ) :   0.9536
B(  9-C , 12-C ) :   1.1000 B( 12-C , 13-H ) :   0.9711 B( 12-C , 14-H ) :   0.9695
B( 12-C , 15-H ) :   0.9683 B( 16-S , 17-C ) :   1.1641 B( 16-S , 20-C ) :   1.1554
B( 17-C , 18-C ) :   1.5871 B( 17-C , 33-H ) :   0.9652 B( 18-C , 19-C ) :   1.2727
B( 18-C , 21-H ) :   0.9880 B( 19-C , 20-C ) :   1.5554 B( 19-C , 22-C ) :   1.0563
B( 22-C , 23-H ) :   0.9331 B( 22-C , 24-H ) :   0.9203 B( 22-C , 25-C ) :   1.0578
B( 25-C , 26-H ) :   0.9491 B( 25-C , 27-H ) :   0.9618 B( 25-C , 28-C ) :   1.0887
B( 28-C , 29-H ) :   0.9752 B( 28-C , 30-H ) :   0.9747 B( 28-C , 31-H ) :   0.9741

Dispersion correction           -0.014091227
FINAL SINGLE POINT ENERGY     -1339.872884324253

DIPOLE MOMENT
-------------
                                X             Y             Z
Electronic contribution:     -2.48015     -16.55863      23.13304
Nuclear contribution   :      2.66426      17.01620     -23.57206
                        -----------------------------------------
Total Dipole Moment    :      0.18411       0.45757      -0.43902
                        -----------------------------------------
Magnitude (a.u.)       :      0.66031
Magnitude (Debye)      :      1.67838

Rotational constants in cm-1:     0.017585     0.008603     0.006986
Rotational constants in MHz :   527.177069   257.920343   209.426516

                             ****ORCA TERMINATED NORMALLY****
TOTAL RUN TIME: 0 days 0 hours 0 minutes 21 seconds 902 msec
