                         Program Version 4.2.1 -  RELEASE  -
|  1> ! wB97X-D3 SP def2-SVP
|  2> %pal
|  3> nprocs 24
|  4> end
|  5>
|  6> * xyz 0 1
|  7> S 	 -67.308 	 -43.0294 	 -90.6443
|  8> C 	 -65.7836 	 -43.5626 	 -89.8841
|  9> C 	 -65.6831 	 -44.936 	 -89.7608
| 10> C 	 -66.915 	 -45.5747 	 -90.1335
| 11> C 	 -67.8892 	 -44.7505 	 -90.7182
| 12> H 	 -67.1362 	 -46.598 	 -90.0552
| 13> C 	 -64.5766 	 -45.764 	 -89.1237
| 14> H 	 -63.6938 	 -45.6207 	 -89.7699
| 15> H 	 -64.7899 	 -46.8004 	 -89.1894
| 16> C 	 -64.2638 	 -45.3268 	 -87.5971
| 17> H 	 -63.2962 	 -45.8663 	 -87.4223
| 18> H 	 -64.1038 	 -44.227 	 -87.6104
| 19> C 	 -65.243 	 -45.8021 	 -86.5479
| 20> H 	 -66.2067 	 -45.3382 	 -86.8636
| 21> H 	 -65.3275 	 -46.9242 	 -86.6298
| 22> H 	 -64.9735 	 -45.7487 	 -85.4764
| 23> S 	 -70.5119 	 -43.8002 	 -90.6904
| 24> C 	 -71.7833 	 -44.7017 	 -91.4404
| 25> C 	 -71.2771 	 -45.8222 	 -92.0526
| 26> C 	 -69.8639 	 -46.0117 	 -91.872
| 27> C 	 -69.2531 	 -45.0147 	 -91.1472
| 28> H 	 -71.935 	 -46.3847 	 -92.6076
| 29> C 	 -69.1151 	 -47.1749 	 -92.5468
| 30> H 	 -69.796 	 -47.9611 	 -92.6497
| 31> H 	 -68.3049 	 -47.4902 	 -91.8827
| 32> C 	 -68.5761 	 -46.8333 	 -93.9225
| 33> H 	 -67.986 	 -47.7259 	 -94.2518
| 34> H 	 -67.8726 	 -45.9642 	 -93.8276
| 35> C 	 -69.6157 	 -46.4206 	 -94.9712
| 36> H 	 -70.4254 	 -47.1011 	 -95.1285
| 37> H 	 -69.2935 	 -46.0922 	 -95.9685
| 38> H 	 -70.1613 	 -45.6367 	 -94.5598
| 39> H 	 -64.9853 	 -42.856 	 -89.7557
| 40> H 	 -72.7866 	 -44.3481 	 -91.6108
| 41> *
| 42>
| 43>                          ****END OF INPUT****

CARTESIAN COORDINATES (ANGSTROEM)
---------------------------------
  S    -67.308000  -43.029400  -90.644300
  C    -65.783600  -43.562600  -89.884100
  C    -65.683100  -44.936000  -89.760800
  C    -66.915000  -45.574700  -90.133500
  C    -67.889200  -44.750500  -90.718200
  H    -67.136200  -46.598000  -90.055200
  C    -64.576600  -45.764000  -89.123700
  H    -63.693800  -45.620700  -89.769900
  H    -64.789900  -46.800400  -89.189400
  C    -64.263800  -45.326800  -87.597100
  H    -63.296200  -45.866300  -87.422300
  H    -64.103800  -44.227000  -87.610400
  C    -65.243000  -45.802100  -86.547900
  H    -66.206700  -45.338200  -86.863600
  H    -65.327500  -46.924200  -86.629800
  H    -64.973500  -45.748700  -85.476400
  S    -70.511900  -43.800200  -90.690400
  C    -71.783300  -44.701700  -91.440400
  C    -71.277100  -45.822200  -92.052600
  C    -69.863900  -46.011700  -91.872000
  C    -69.253100  -45.014700  -91.147200
  H    -71.935000  -46.384700  -92.607600
  C    -69.115100  -47.174900  -92.546800
  H    -69.796000  -47.961100  -92.649700
  H    -68.304900  -47.490200  -91.882700
  C    -68.576100  -46.833300  -93.922500
  H    -67.986000  -47.725900  -94.251800
  H    -67.872600  -45.964200  -93.827600
  C    -69.615700  -46.420600  -94.971200
  H    -70.425400  -47.101100  -95.128500
  H    -69.293500  -46.092200  -95.968500
  H    -70.161300  -45.636700  -94.559800
  H    -64.985300  -42.856000  -89.755700
  H    -72.786600  -44.348100  -91.610800

 Total Charge           Charge          ....    0
 Multiplicity           Mult            ....    1
 Number of Electrons    NEL             ....  134
 Basis Dimension        Dim             ....  322

ORBITAL ENERGIES
----------------

  NO   OCC          E(Eh)            E(eV)
   0   2.0000     -88.967083     -2420.9174
   1   2.0000     -88.962995     -2420.8062
   2   2.0000     -10.339428      -281.3501
   3   2.0000     -10.332025      -281.1487
   4   2.0000     -10.319055      -280.7958
   5   2.0000     -10.316694      -280.7315
   6   2.0000     -10.306556      -280.4556
   7   2.0000     -10.305987      -280.4402
   8   2.0000     -10.299406      -280.2611
   9   2.0000     -10.298389      -280.2334
  10   2.0000     -10.297178      -280.2005
  11   2.0000     -10.290045      -280.0064
  12   2.0000     -10.289474      -279.9908
  13   2.0000     -10.289439      -279.9899
  14   2.0000     -10.285379      -279.8794
  15   2.0000     -10.267287      -279.3871
  16   2.0000      -8.080310      -219.8764
  17   2.0000      -8.077458      -219.7988
  18   2.0000      -6.038972      -164.3288
  19   2.0000      -6.036118      -164.2511
  20   2.0000      -6.035072      -164.2227
  21   2.0000      -6.031938      -164.1374
  22   2.0000      -6.030953      -164.1106
  23   2.0000      -6.028108      -164.0332
  24   2.0000      -1.000805       -27.2333
  25   2.0000      -0.977805       -26.6074
  26   2.0000      -0.910957       -24.7884
  27   2.0000      -0.904712       -24.6185
  28   2.0000      -0.868933       -23.6449
  29   2.0000      -0.848767       -23.0961
  30   2.0000      -0.840731       -22.8775
  31   2.0000      -0.815663       -22.1953
  32   2.0000      -0.789033       -21.4707
  33   2.0000      -0.775555       -21.1039
  34   2.0000      -0.711502       -19.3609
  35   2.0000      -0.698408       -19.0047
  36   2.0000      -0.689459       -18.7611
  37   2.0000      -0.667664       -18.1681
  38   2.0000      -0.643844       -17.5199
  39   2.0000      -0.614530       -16.7222
  40   2.0000      -0.593629       -16.1535
  41   2.0000      -0.576229       -15.6800
  42   2.0000      -0.557190       -15.1619
  43   2.0000      -0.549592       -14.9551
  44   2.0000      -0.545460       -14.8427
  45   2.0000      -0.535914       -14.5830
  46   2.0000      -0.513411       -13.9706
  47   2.0000      -0.512864       -13.9557
  48   2.0000      -0.504095       -13.7171
  49   2.0000      -0.494378       -13.4527
  50   2.0000      -0.489533       -13.3209
  51   2.0000      -0.476773       -12.9737
  52   2.0000      -0.475473       -12.9383
  53   2.0000      -0.470861       -12.8128
  54   2.0000      -0.461464       -12.5571
  55   2.0000      -0.447000       -12.1635
  56   2.0000      -0.445784       -12.1304
  57   2.0000      -0.438682       -11.9371
  58   2.0000      -0.426152       -11.5962
  59   2.0000      -0.422898       -11.5076
  60   2.0000      -0.420893       -11.4531
  61   2.0000      -0.408133       -11.1059
  62   2.0000      -0.406184       -11.0528
  63   2.0000      -0.354796        -9.6545
  64   2.0000      -0.331443        -9.0190
  65   2.0000      -0.330870        -9.0034
  66   2.0000      -0.288461        -7.8494
  67   0.0000       0.018569         0.5053
  68   0.0000       0.067648         1.8408
  69   0.0000       0.100013         2.7215
  70   0.0000       0.120508         3.2792
  71   0.0000       0.136736         3.7208

MULLIKEN ATOMIC CHARGES
-----------------------
   0 S :    0.087419
   1 C :   -0.132375
   2 C :   -0.073967
   3 C :    0.033037
   4 C :   -0.142008
   5 H :   -0.002476
   6 C :    0.065031
   7 H :    0.042986
   8 H :    0.011556
   9 C :   -0.094359
  10 H :    0.032629
  11 H :    0.042577
  12 C :   -0.061648
  13 H :    0.054428
  14 H :    0.022778
  15 H :    0.051865
  16 S :    0.088928
  17 C :   -0.078459
  18 C :   -0.017882
  19 C :   -0.065850
  20 C :   -0.140862
  21 H :   -0.014897
  22 C :    0.119003
  23 H :    0.004522
  24 H :    0.020241
  25 C :   -0.072761
  26 H :    0.036984
  27 H :    0.042874
  28 C :   -0.030347
  29 H :    0.006368
  30 H :    0.039459
  31 H :    0.014617
  32 H :    0.051866
  33 H :    0.058724
Sum of atomic charges:   -0.0000000

LOEWDIN ATOMIC CHARGES
----------------------
   0 S :    0.363897
   1 C :   -0.181630
   2 C :   -0.064162
   3 C :   -0.056346
   4 C :   -0.166943
   5 H :    0.020633
   6 C :   -0.026430
   7 H :    0.039006
   8 H :    0.022255
   9 C :   -0.039081
  10 H :    0.025202
  11 H :    0.024732
  12 C :   -0.080041
  13 H :    0.034969
  14 H :    0.029001
  15 H :    0.033519
  16 S :    0.386472
  17 C :   -0.182545
  18 C :   -0.067749
  19 C :   -0.053749
  20 C :   -0.183107
  21 H :    0.016536
  22 C :   -0.022717
  23 H :    0.020691
  24 H :    0.032099
  25 C :   -0.037190
  26 H :    0.026367
  27 H :    0.032474
  28 C :   -0.070556
  29 H :    0.018386
  30 H :    0.031397
  31 H :    0.019479
  32 H :    0.023067
  33 H :    0.032063

  Mayer bond orders larger than 0.100000
B(  0-S ,  1-C ) :   1.1326 B(  0-S ,  4-C ) :   1.1264 B(  1-C ,  2-C ) :   1.6153
B(  1-C ,  4-C ) :   0.1016 B(  1-C , 32-H ) :   0.9667 B(  2-C ,  3-C ) :   1.2244
B(  2-C ,  6-C ) :   1.0213 B(  3-C ,  4-C ) :   1.5887 B(  3-C ,  5-H ) :   0.9912
B(  4-C , 20-C ) :   1.0706 B(  6-C ,  7-H ) :   0.9359 B(  6-C ,  8-H ) :   0.9455
B(  6-C ,  9-C ) :   1.0585 B(  9-C , 10-H ) :   0.9569 B(  9-C , 11-H ) :   0.9599
B(  9-C , 12-C ) :   1.0678 B( 12-C , 13-H ) :   0.9758 B( 12-C , 14-H ) :   0.9696
B( 12-C , 15-H ) :   0.9735 B( 16-S , 17-C ) :   1.1554 B( 16-S , 20-C ) :   1.1171
B( 17-C , 18-C ) :   1.6156 B( 17-C , 33-H ) :   0.9649 B( 18-C , 19-C ) :   1.2246
B( 18-C , 21-H ) :   1.0039 B( 19-C , 20-C ) :   1.6080 B( 19-C , 22-C ) :   1.0383
B( 22-C , 23-H ) :   0.9271 B( 22-C , 24-H ) :   0.9309 B( 22-C , 25-C ) :   1.0785
B( 25-C , 26-H ) :   0.9566 B( 25-C , 27-H ) :   0.9558 B( 25-C , 28-C ) :   1.0694
B( 28-C , 29-H ) :   0.9713 B( 28-C , 30-H ) :   0.9737 B( 28-C , 31-H ) :   0.9677

Dispersion correction           -0.014612322
FINAL SINGLE POINT ENERGY     -1339.873329086405

DIPOLE MOMENT
-------------
                                X             Y             Z
Electronic contribution:    -11.51302      16.39611       0.80677
Nuclear contribution   :     11.73933     -16.97358      -0.90948
                        -----------------------------------------
Total Dipole Moment    :      0.22630      -0.57747      -0.10270
                        -----------------------------------------
Magnitude (a.u.)       :      0.62867
Magnitude (Debye)      :      1.59796

Rotational constants in cm-1:     0.021978     0.007700     0.006858
Rotational constants in MHz :   658.873004   230.825264   205.593712

                             ****ORCA TERMINATED NORMALLY****
TOTAL RUN TIME: 0 days 0 hours 0 minutes 21 seconds 580 msec
