                         Program Version 4.2.1 -  RELEASE  -
|  1> ! wB97X-D3 SP def2-SVP
|  2> %pal
|  3> nprocs 24
|  4> end
|  5>
|  6> * xyz 0 1
|  7> S 	 -118.121 	 43.3381 	 -114.211
|  8> C 	 -118.312 	 42.9846 	 -115.896
|  9> C 	 -117.157 	 42.4778 	 -116.428
| 10> C 	 -116.185 	 42.1537 	 -115.456
| 11> C 	 -116.613 	 42.4924 	 -114.202
| 12> H 	 -115.214 	 41.6356 	 -115.684
| 13> C 	 -116.89 	 42.3296 	 -117.908
| 14> H 	 -115.816 	 42.3826 	 -118.165
| 15> H 	 -117.376 	 43.2129 	 -118.325
| 16> C 	 -117.585 	 41.1117 	 -118.566
| 17> H 	 -116.967 	 40.2774 	 -118.247
| 18> H 	 -118.62 	 40.9826 	 -118.199
| 19> C 	 -117.623 	 41.1102 	 -120.08
| 20> H 	 -116.606 	 41.2617 	 -120.447
| 21> H 	 -118.176 	 40.213 	 -120.455
| 22> H 	 -118.18 	 41.9824 	 -120.353
| 23> S 	 -115.536 	 43.5215 	 -111.865
| 24> C 	 -114.334 	 42.6373 	 -110.994
| 25> C 	 -114.197 	 41.3862 	 -111.508
| 26> C 	 -115.036 	 41.1471 	 -112.659
| 27> C 	 -115.934 	 42.2075 	 -112.964
| 28> H 	 -113.52 	 40.7155 	 -111.047
| 29> C 	 -114.688 	 39.932 	 -113.535
| 30> H 	 -113.845 	 40.092 	 -114.204
| 31> H 	 -115.543 	 39.6584 	 -114.215
| 32> C 	 -114.491 	 38.6829 	 -112.708
| 33> H 	 -115.337 	 38.6794 	 -112.004
| 34> H 	 -113.485 	 38.7474 	 -112.271
| 35> C 	 -114.567 	 37.2948 	 -113.504
| 36> H 	 -114.497 	 36.4691 	 -112.88
| 37> H 	 -113.782 	 37.2 	 -114.225
| 38> H 	 -115.494 	 37.1969 	 -114.15
| 39> H 	 -119.184 	 43.2362 	 -116.438
| 40> H 	 -113.702 	 43.1664 	 -110.305
| 41> *
| 42>
| 43>                          ****END OF INPUT****

CARTESIAN COORDINATES (ANGSTROEM)
---------------------------------
  S    -118.121000   43.338100  -114.211000
  C    -118.312000   42.984600  -115.896000
  C    -117.157000   42.477800  -116.428000
  C    -116.185000   42.153700  -115.456000
  C    -116.613000   42.492400  -114.202000
  H    -115.214000   41.635600  -115.684000
  C    -116.890000   42.329600  -117.908000
  H    -115.816000   42.382600  -118.165000
  H    -117.376000   43.212900  -118.325000
  C    -117.585000   41.111700  -118.566000
  H    -116.967000   40.277400  -118.247000
  H    -118.620000   40.982600  -118.199000
  C    -117.623000   41.110200  -120.080000
  H    -116.606000   41.261700  -120.447000
  H    -118.176000   40.213000  -120.455000
  H    -118.180000   41.982400  -120.353000
  S    -115.536000   43.521500  -111.865000
  C    -114.334000   42.637300  -110.994000
  C    -114.197000   41.386200  -111.508000
  C    -115.036000   41.147100  -112.659000
  C    -115.934000   42.207500  -112.964000
  H    -113.520000   40.715500  -111.047000
  C    -114.688000   39.932000  -113.535000
  H    -113.845000   40.092000  -114.204000
  H    -115.543000   39.658400  -114.215000
  C    -114.491000   38.682900  -112.708000
  H    -115.337000   38.679400  -112.004000
  H    -113.485000   38.747400  -112.271000
  C    -114.567000   37.294800  -113.504000
  H    -114.497000   36.469100  -112.880000
  H    -113.782000   37.200000  -114.225000
  H    -115.494000   37.196900  -114.150000
  H    -119.184000   43.236200  -116.438000
  H    -113.702000   43.166400  -110.305000

 Total Charge           Charge          ....    0
 Multiplicity           Mult            ....    1
 Number of Electrons    NEL             ....  134
 Basis Dimension        Dim             ....  322

ORBITAL ENERGIES
----------------

  NO   OCC          E(Eh)            E(eV)
   0   2.0000     -88.965432     -2420.8725
   1   2.0000     -88.960932     -2420.7500
   2   2.0000     -10.327998      -281.0391
   3   2.0000     -10.325474      -280.9704
   4   2.0000     -10.316137      -280.7164
   5   2.0000     -10.309482      -280.5353
   6   2.0000     -10.307290      -280.4756
   7   2.0000     -10.296532      -280.1829
   8   2.0000     -10.293480      -280.0998
   9   2.0000     -10.293160      -280.0911
  10   2.0000     -10.292282      -280.0672
  11   2.0000     -10.291898      -280.0568
  12   2.0000     -10.290634      -280.0224
  13   2.0000     -10.284553      -279.8569
  14   2.0000     -10.278649      -279.6963
  15   2.0000     -10.278457      -279.6910
  16   2.0000      -8.081146      -219.8992
  17   2.0000      -8.076398      -219.7700
  18   2.0000      -6.039529      -164.3439
  19   2.0000      -6.035679      -164.2392
  20   2.0000      -6.034884      -164.2175
  21   2.0000      -6.031825      -164.1343
  22   2.0000      -6.030666      -164.1028
  23   2.0000      -6.027259      -164.0101
  24   2.0000      -1.012287       -27.5457
  25   2.0000      -0.988393       -26.8955
  26   2.0000      -0.913474       -24.8569
  27   2.0000      -0.906983       -24.6803
  28   2.0000      -0.874681       -23.8013
  29   2.0000      -0.854776       -23.2596
  30   2.0000      -0.840264       -22.8647
  31   2.0000      -0.816354       -22.2141
  32   2.0000      -0.783402       -21.3175
  33   2.0000      -0.772108       -21.0101
  34   2.0000      -0.705234       -19.1904
  35   2.0000      -0.698735       -19.0136
  36   2.0000      -0.693435       -18.8693
  37   2.0000      -0.654280       -17.8039
  38   2.0000      -0.639928       -17.4133
  39   2.0000      -0.623513       -16.9667
  40   2.0000      -0.602155       -16.3855
  41   2.0000      -0.578100       -15.7309
  42   2.0000      -0.572270       -15.5722
  43   2.0000      -0.561346       -15.2750
  44   2.0000      -0.528867       -14.3912
  45   2.0000      -0.523258       -14.2386
  46   2.0000      -0.519881       -14.1467
  47   2.0000      -0.513148       -13.9635
  48   2.0000      -0.503958       -13.7134
  49   2.0000      -0.499444       -13.5906
  50   2.0000      -0.489512       -13.3203
  51   2.0000      -0.481928       -13.1139
  52   2.0000      -0.472609       -12.8603
  53   2.0000      -0.466619       -12.6973
  54   2.0000      -0.462582       -12.5875
  55   2.0000      -0.447596       -12.1797
  56   2.0000      -0.445978       -12.1357
  57   2.0000      -0.435053       -11.8384
  58   2.0000      -0.431780       -11.7493
  59   2.0000      -0.425843       -11.5878
  60   2.0000      -0.417761       -11.3679
  61   2.0000      -0.416178       -11.3248
  62   2.0000      -0.410372       -11.1668
  63   2.0000      -0.355064        -9.6618
  64   2.0000      -0.332643        -9.0517
  65   2.0000      -0.325192        -8.8489
  66   2.0000      -0.286734        -7.8024
  67   0.0000       0.027800         0.7565
  68   0.0000       0.069843         1.9005
  69   0.0000       0.108718         2.9584
  70   0.0000       0.117241         3.1903
  71   0.0000       0.134298         3.6544

MULLIKEN ATOMIC CHARGES
-----------------------
   0 S :    0.118340
   1 C :   -0.112701
   2 C :   -0.072529
   3 C :   -0.006772
   4 C :   -0.143267
   5 H :    0.032560
   6 C :    0.052762
   7 H :    0.031242
   8 H :    0.016378
   9 C :   -0.092743
  10 H :    0.021445
  11 H :    0.031647
  12 C :   -0.022240
  13 H :    0.028577
  14 H :    0.050822
  15 H :    0.016652
  16 S :    0.077890
  17 C :   -0.085370
  18 C :   -0.018463
  19 C :   -0.070193
  20 C :   -0.082603
  21 H :    0.014053
  22 C :    0.021705
  23 H :    0.044078
  24 H :    0.033628
  25 C :   -0.114327
  26 H :    0.047264
  27 H :    0.040865
  28 C :   -0.027456
  29 H :    0.025907
  30 H :    0.016006
  31 H :    0.033832
  32 H :    0.030172
  33 H :    0.062839
Sum of atomic charges:    0.0000000

LOEWDIN ATOMIC CHARGES
----------------------
   0 S :    0.421781
   1 C :   -0.194885
   2 C :   -0.061869
   3 C :   -0.066195
   4 C :   -0.196998
   5 H :    0.043599
   6 C :   -0.033135
   7 H :    0.032110
   8 H :    0.028019
   9 C :   -0.043322
  10 H :    0.019635
  11 H :    0.025068
  12 C :   -0.064762
  13 H :    0.024978
  14 H :    0.035611
  15 H :    0.018654
  16 S :    0.406663
  17 C :   -0.179336
  18 C :   -0.071549
  19 C :   -0.051221
  20 C :   -0.203699
  21 H :    0.027561
  22 C :   -0.043192
  23 H :    0.027417
  24 H :    0.034229
  25 C :   -0.040070
  26 H :    0.031002
  27 H :    0.023377
  28 C :   -0.063263
  29 H :    0.016376
  30 H :    0.018401
  31 H :    0.031071
  32 H :    0.018835
  33 H :    0.029110

  Mayer bond orders larger than 0.100000
B(  0-S ,  1-C ) :   1.1387 B(  0-S ,  4-C ) :   1.1597 B(  1-C ,  2-C ) :   1.6078
B(  1-C , 32-H ) :   0.9753 B(  2-C ,  3-C ) :   1.2516 B(  2-C ,  6-C ) :   1.0134
B(  3-C ,  4-C ) :   1.5597 B(  3-C ,  5-H ) :   0.9884 B(  4-C , 20-C ) :   1.0294
B(  6-C ,  7-H ) :   0.9458 B(  6-C ,  8-H ) :   0.9380 B(  6-C ,  9-C ) :   1.0595
B(  9-C , 10-H ) :   0.9544 B(  9-C , 11-H ) :   0.9593 B(  9-C , 12-C ) :   1.0839
B( 12-C , 13-H ) :   0.9717 B( 12-C , 14-H ) :   0.9724 B( 12-C , 15-H ) :   0.9743
B( 16-S , 17-C ) :   1.1772 B( 16-S , 20-C ) :   1.1353 B( 17-C , 18-C ) :   1.5814
B( 17-C , 33-H ) :   0.9695 B( 18-C , 19-C ) :   1.2402 B( 18-C , 21-H ) :   1.0039
B( 19-C , 20-C ) :   1.5844 B( 19-C , 22-C ) :   1.0402 B( 22-C , 23-H ) :   0.9355
B( 22-C , 24-H ) :   0.9390 B( 22-C , 25-C ) :   1.0581 B( 25-C , 26-H ) :   0.9635
B( 25-C , 27-H ) :   0.9467 B( 25-C , 28-C ) :   1.0813 B( 28-C , 29-H ) :   0.9774
B( 28-C , 30-H ) :   0.9743 B( 28-C , 31-H ) :   0.9743

Dispersion correction           -0.013442967
FINAL SINGLE POINT ENERGY     -1339.873426976057

DIPOLE MOMENT
-------------
                                X             Y             Z
Electronic contribution:     -5.15491      22.88673      21.09483
Nuclear contribution   :      5.61680     -23.27721     -21.57685
                        -----------------------------------------
Total Dipole Moment    :      0.46188      -0.39048      -0.48202
                        -----------------------------------------
Magnitude (a.u.)       :      0.77341
Magnitude (Debye)      :      1.96584

Rotational constants in cm-1:     0.017251     0.008428     0.006084
Rotational constants in MHz :   517.186837   252.662448   182.405093

                             ****ORCA TERMINATED NORMALLY****
TOTAL RUN TIME: 0 days 0 hours 0 minutes 21 seconds 310 msec
