                         Program Version 4.2.1 -  RELEASE  -
|  1> ! wB97X-D3 SP def2-SVP
|  2> %pal
|  3> nprocs 24
|  4> end
|  5>
|  6> * xyz 0 1
|  7> S 	 -34.8459 	 -39.2708 	 -80.5255
|  8> C 	 -35.1767 	 -37.5944 	 -80.1381
|  9> C 	 -34.137 	 -36.8352 	 -80.6969
| 10> C 	 -33.185 	 -37.6133 	 -81.4375
| 11> C 	 -33.6205 	 -38.8804 	 -81.7018
| 12> H 	 -32.2321 	 -37.3118 	 -81.866
| 13> C 	 -33.9435 	 -35.3444 	 -80.3319
| 14> H 	 -34.9837 	 -35.0732 	 -80.3124
| 15> H 	 -33.4509 	 -34.8433 	 -81.1389
| 16> C 	 -33.1986 	 -35.1054 	 -79.0567
| 17> H 	 -33.7671 	 -35.5343 	 -78.2174
| 18> H 	 -32.3025 	 -35.6981 	 -79.0826
| 19> C 	 -32.7549 	 -33.619 	 -78.886
| 20> H 	 -31.8482 	 -33.5166 	 -78.3142
| 21> H 	 -32.4372 	 -33.142 	 -79.8459
| 22> H 	 -33.6478 	 -33.1034 	 -78.4877
| 23> S 	 -32.8983 	 -41.5607 	 -81.8782
| 24> C 	 -32.0862 	 -42.0948 	 -83.3601
| 25> C 	 -31.8127 	 -41.0561 	 -84.2171
| 26> C 	 -32.2358 	 -39.7753 	 -83.7363
| 27> C 	 -32.9663 	 -39.8728 	 -82.5323
| 28> H 	 -31.214 	 -41.1692 	 -85.05
| 29> C 	 -31.9713 	 -38.4918 	 -84.5271
| 30> H 	 -30.8727 	 -38.3793 	 -84.6667
| 31> H 	 -32.3763 	 -37.6463 	 -84.0046
| 32> C 	 -32.5476 	 -38.4135 	 -85.8886
| 33> H 	 -33.659 	 -38.5202 	 -85.9683
| 34> H 	 -32.254 	 -39.3065 	 -86.4922
| 35> C 	 -31.9632 	 -37.2352 	 -86.5897
| 36> H 	 -32.2531 	 -36.3382 	 -86.1694
| 37> H 	 -32.3032 	 -37.0437 	 -87.5746
| 38> H 	 -30.9262 	 -37.3038 	 -86.6358
| 39> H 	 -35.8943 	 -37.2553 	 -79.3405
| 40> H 	 -31.7031 	 -43.0636 	 -83.5844
| 41> *
| 42>
| 43>                          ****END OF INPUT****

CARTESIAN COORDINATES (ANGSTROEM)
---------------------------------
  S    -34.845900  -39.270800  -80.525500
  C    -35.176700  -37.594400  -80.138100
  C    -34.137000  -36.835200  -80.696900
  C    -33.185000  -37.613300  -81.437500
  C    -33.620500  -38.880400  -81.701800
  H    -32.232100  -37.311800  -81.866000
  C    -33.943500  -35.344400  -80.331900
  H    -34.983700  -35.073200  -80.312400
  H    -33.450900  -34.843300  -81.138900
  C    -33.198600  -35.105400  -79.056700
  H    -33.767100  -35.534300  -78.217400
  H    -32.302500  -35.698100  -79.082600
  C    -32.754900  -33.619000  -78.886000
  H    -31.848200  -33.516600  -78.314200
  H    -32.437200  -33.142000  -79.845900
  H    -33.647800  -33.103400  -78.487700
  S    -32.898300  -41.560700  -81.878200
  C    -32.086200  -42.094800  -83.360100
  C    -31.812700  -41.056100  -84.217100
  C    -32.235800  -39.775300  -83.736300
  C    -32.966300  -39.872800  -82.532300
  H    -31.214000  -41.169200  -85.050000
  C    -31.971300  -38.491800  -84.527100
  H    -30.872700  -38.379300  -84.666700
  H    -32.376300  -37.646300  -84.004600
  C    -32.547600  -38.413500  -85.888600
  H    -33.659000  -38.520200  -85.968300
  H    -32.254000  -39.306500  -86.492200
  C    -31.963200  -37.235200  -86.589700
  H    -32.253100  -36.338200  -86.169400
  H    -32.303200  -37.043700  -87.574600
  H    -30.926200  -37.303800  -86.635800
  H    -35.894300  -37.255300  -79.340500
  H    -31.703100  -43.063600  -83.584400

 Total Charge           Charge          ....    0
 Multiplicity           Mult            ....    1
 Number of Electrons    NEL             ....  134
 Basis Dimension        Dim             ....  322

ORBITAL ENERGIES
----------------

  NO   OCC          E(Eh)            E(eV)
   0   2.0000     -88.968486     -2420.9556
   1   2.0000     -88.962242     -2420.7857
   2   2.0000     -10.335345      -281.2390
   3   2.0000     -10.328248      -281.0459
   4   2.0000     -10.320169      -280.8261
   5   2.0000     -10.319038      -280.7953
   6   2.0000     -10.309570      -280.5377
   7   2.0000     -10.304975      -280.4126
   8   2.0000     -10.292739      -280.0797
   9   2.0000     -10.292369      -280.0696
  10   2.0000     -10.290004      -280.0052
  11   2.0000     -10.285159      -279.8734
  12   2.0000     -10.284394      -279.8526
  13   2.0000     -10.284109      -279.8448
  14   2.0000     -10.283585      -279.8306
  15   2.0000     -10.261912      -279.2408
  16   2.0000      -8.081848      -219.9183
  17   2.0000      -8.077262      -219.7935
  18   2.0000      -6.040563      -164.3721
  19   2.0000      -6.036691      -164.2667
  20   2.0000      -6.035814      -164.2429
  21   2.0000      -6.032339      -164.1483
  22   2.0000      -6.031927      -164.1371
  23   2.0000      -6.027731      -164.0229
  24   2.0000      -1.005850       -27.3706
  25   2.0000      -0.980042       -26.6683
  26   2.0000      -0.922738       -25.1090
  27   2.0000      -0.912897       -24.8412
  28   2.0000      -0.870465       -23.6866
  29   2.0000      -0.855554       -23.2808
  30   2.0000      -0.841064       -22.8865
  31   2.0000      -0.817436       -22.2436
  32   2.0000      -0.786027       -21.3889
  33   2.0000      -0.770801       -20.9746
  34   2.0000      -0.708753       -19.2862
  35   2.0000      -0.700535       -19.0625
  36   2.0000      -0.699103       -19.0236
  37   2.0000      -0.663519       -18.0553
  38   2.0000      -0.640830       -17.4379
  39   2.0000      -0.618458       -16.8291
  40   2.0000      -0.601358       -16.3638
  41   2.0000      -0.579191       -15.7606
  42   2.0000      -0.572580       -15.5807
  43   2.0000      -0.559997       -15.2383
  44   2.0000      -0.531697       -14.4682
  45   2.0000      -0.523908       -14.2563
  46   2.0000      -0.519637       -14.1401
  47   2.0000      -0.510251       -13.8846
  48   2.0000      -0.507061       -13.7978
  49   2.0000      -0.501432       -13.6446
  50   2.0000      -0.494713       -13.4618
  51   2.0000      -0.484276       -13.1778
  52   2.0000      -0.467334       -12.7168
  53   2.0000      -0.463927       -12.6241
  54   2.0000      -0.458783       -12.4841
  55   2.0000      -0.457070       -12.4375
  56   2.0000      -0.448341       -12.2000
  57   2.0000      -0.440905       -11.9976
  58   2.0000      -0.438665       -11.9367
  59   2.0000      -0.428960       -11.6726
  60   2.0000      -0.415950       -11.3186
  61   2.0000      -0.410277       -11.1642
  62   2.0000      -0.402966       -10.9653
  63   2.0000      -0.356526        -9.7016
  64   2.0000      -0.334059        -9.0902
  65   2.0000      -0.323062        -8.7910
  66   2.0000      -0.284341        -7.7373
  67   0.0000       0.016688         0.4541
  68   0.0000       0.073552         2.0014
  69   0.0000       0.094102         2.5607
  70   0.0000       0.121626         3.3096
  71   0.0000       0.129938         3.5358

MULLIKEN ATOMIC CHARGES
-----------------------
   0 S :    0.089397
   1 C :   -0.128398
   2 C :   -0.131244
   3 C :    0.011479
   4 C :   -0.128194
   5 H :    0.025289
   6 C :    0.087650
   7 H :    0.022165
   8 H :    0.009044
   9 C :   -0.054951
  10 H :    0.025040
  11 H :    0.017157
  12 C :   -0.050975
  13 H :    0.035404
  14 H :    0.029223
  15 H :    0.046932
  16 S :    0.091274
  17 C :   -0.059422
  18 C :   -0.008365
  19 C :   -0.030524
  20 C :   -0.141245
  21 H :   -0.007809
  22 C :    0.061654
  23 H :    0.033898
  24 H :    0.014750
  25 C :   -0.101221
  26 H :    0.040110
  27 H :    0.019021
  28 C :    0.033943
  29 H :    0.000714
  30 H :    0.011177
  31 H :    0.012106
  32 H :    0.078601
  33 H :    0.046322
Sum of atomic charges:   -0.0000000

LOEWDIN ATOMIC CHARGES
----------------------
   0 S :    0.399529
   1 C :   -0.212014
   2 C :   -0.059325
   3 C :   -0.070755
   4 C :   -0.190797
   5 H :    0.032073
   6 C :   -0.029444
   7 H :    0.028793
   8 H :    0.022681
   9 C :   -0.042456
  10 H :    0.026059
  11 H :    0.021513
  12 C :   -0.067948
  13 H :    0.024964
  14 H :    0.028625
  15 H :    0.031146
  16 S :    0.369266
  17 C :   -0.166752
  18 C :   -0.061086
  19 C :   -0.046910
  20 C :   -0.173512
  21 H :    0.019163
  22 C :   -0.032878
  23 H :    0.038825
  24 H :    0.026818
  25 C :   -0.046889
  26 H :    0.031244
  27 H :    0.022413
  28 C :   -0.054002
  29 H :    0.016596
  30 H :    0.025398
  31 H :    0.018807
  32 H :    0.044123
  33 H :    0.026732

  Mayer bond orders larger than 0.100000
B(  0-S ,  1-C ) :   1.1323 B(  0-S ,  4-C ) :   1.1526 B(  1-C ,  2-C ) :   1.5854
B(  1-C ,  4-C ) :   0.1011 B(  1-C , 32-H ) :   0.9654 B(  2-C ,  3-C ) :   1.2477
B(  2-C ,  6-C ) :   1.0166 B(  3-C ,  4-C ) :   1.5446 B(  3-C ,  5-H ) :   0.9889
B(  4-C , 20-C ) :   1.0884 B(  6-C ,  7-H ) :   0.9382 B(  6-C ,  8-H ) :   0.9393
B(  6-C ,  9-C ) :   1.0710 B(  9-C , 10-H ) :   0.9542 B(  9-C , 11-H ) :   0.9552
B(  9-C , 12-C ) :   1.0691 B( 12-C , 13-H ) :   0.9771 B( 12-C , 14-H ) :   0.9745
B( 12-C , 15-H ) :   0.9781 B( 16-S , 17-C ) :   1.1339 B( 16-S , 20-C ) :   1.1148
B( 17-C , 18-C ) :   1.6329 B( 17-C , 33-H ) :   0.9670 B( 18-C , 19-C ) :   1.2309
B( 18-C , 21-H ) :   0.9943 B( 19-C , 20-C ) :   1.6008 B( 19-C , 22-C ) :   1.0389
B( 22-C , 23-H ) :   0.9308 B( 22-C , 24-H ) :   0.9317 B( 22-C , 25-C ) :   1.0690
B( 25-C , 26-H ) :   0.9509 B( 25-C , 27-H ) :   0.9505 B( 25-C , 28-C ) :   1.0864
B( 28-C , 29-H ) :   0.9678 B( 28-C , 30-H ) :   0.9630 B( 28-C , 31-H ) :   0.9699

Dispersion correction           -0.013295607
FINAL SINGLE POINT ENERGY     -1339.855349414142

DIPOLE MOMENT
-------------
                                X             Y             Z
Electronic contribution:     -8.08827     -27.13661       8.43084
Nuclear contribution   :      8.59853      27.68665      -8.72735
                        -----------------------------------------
Total Dipole Moment    :      0.51025       0.55004      -0.29652
                        -----------------------------------------
Magnitude (a.u.)       :      0.80674
Magnitude (Debye)      :      2.05056

Rotational constants in cm-1:     0.017405     0.008220     0.006149
Rotational constants in MHz :   521.776823   246.431720   184.352277

                             ****ORCA TERMINATED NORMALLY****
TOTAL RUN TIME: 0 days 0 hours 0 minutes 20 seconds 112 msec
