                         Program Version 4.2.1 -  RELEASE  -
|  1> ! wB97X-D3 SP def2-SVP
|  2> %pal
|  3> nprocs 24
|  4> end
|  5>
|  6> * xyz 0 1
|  7> S 	 -36.3047 	 17.7179 	 15.528
|  8> C 	 -36.4743 	 19.3802 	 15.9505
|  9> C 	 -35.2529 	 20.0689 	 15.9834
| 10> C 	 -34.2225 	 19.2142 	 15.4954
| 11> C 	 -34.6172 	 17.8842 	 15.1845
| 12> H 	 -33.128 	 19.4395 	 15.3438
| 13> C 	 -34.9881 	 21.3456 	 16.7077
| 14> H 	 -35.7486 	 21.3446 	 17.5785
| 15> H 	 -35.2085 	 22.1936 	 16.0685
| 16> C 	 -33.569 	 21.503 	 17.3204
| 17> H 	 -33.3427 	 20.6978 	 18.0069
| 18> H 	 -32.8733 	 21.3411 	 16.4608
| 19> C 	 -33.4352 	 22.888 	 17.8938
| 20> H 	 -34.1577 	 23.1342 	 18.7478
| 21> H 	 -32.3745 	 23.2236 	 18.1197
| 22> H 	 -33.7249 	 23.7101 	 17.2228
| 23> S 	 -34.3416 	 15.1517 	 15.033
| 24> C 	 -32.8854 	 14.4383 	 14.4753
| 25> C 	 -31.9909 	 15.3882 	 14.0356
| 26> C 	 -32.3851 	 16.7614 	 14.2667
| 27> C 	 -33.6861 	 16.7914 	 14.8383
| 28> H 	 -31.1017 	 15.108 	 13.457
| 29> C 	 -31.4702 	 17.9084 	 13.8527
| 30> H 	 -30.5162 	 17.4883 	 13.7111
| 31> H 	 -31.4201 	 18.5098 	 14.7149
| 32> C 	 -31.7932 	 18.7577 	 12.6381
| 33> H 	 -32.5781 	 19.3638 	 12.9277
| 34> H 	 -32.2225 	 18.1854 	 11.8594
| 35> C 	 -30.6104 	 19.568 	 12.1504
| 36> H 	 -30.9125 	 20.2409 	 11.3192
| 37> H 	 -29.9652 	 18.8059 	 11.6682
| 38> H 	 -30.2072 	 20.1395 	 13.0331
| 39> H 	 -37.3937 	 19.8426 	 16.2769
| 40> H 	 -32.7258 	 13.3832 	 14.3578
| 41> *
| 42>
| 43>                          ****END OF INPUT****

CARTESIAN COORDINATES (ANGSTROEM)
---------------------------------
  S    -36.304700   17.717900   15.528000
  C    -36.474300   19.380200   15.950500
  C    -35.252900   20.068900   15.983400
  C    -34.222500   19.214200   15.495400
  C    -34.617200   17.884200   15.184500
  H    -33.128000   19.439500   15.343800
  C    -34.988100   21.345600   16.707700
  H    -35.748600   21.344600   17.578500
  H    -35.208500   22.193600   16.068500
  C    -33.569000   21.503000   17.320400
  H    -33.342700   20.697800   18.006900
  H    -32.873300   21.341100   16.460800
  C    -33.435200   22.888000   17.893800
  H    -34.157700   23.134200   18.747800
  H    -32.374500   23.223600   18.119700
  H    -33.724900   23.710100   17.222800
  S    -34.341600   15.151700   15.033000
  C    -32.885400   14.438300   14.475300
  C    -31.990900   15.388200   14.035600
  C    -32.385100   16.761400   14.266700
  C    -33.686100   16.791400   14.838300
  H    -31.101700   15.108000   13.457000
  C    -31.470200   17.908400   13.852700
  H    -30.516200   17.488300   13.711100
  H    -31.420100   18.509800   14.714900
  C    -31.793200   18.757700   12.638100
  H    -32.578100   19.363800   12.927700
  H    -32.222500   18.185400   11.859400
  C    -30.610400   19.568000   12.150400
  H    -30.912500   20.240900   11.319200
  H    -29.965200   18.805900   11.668200
  H    -30.207200   20.139500   13.033100
  H    -37.393700   19.842600   16.276900
  H    -32.725800   13.383200   14.357800

 Total Charge           Charge          ....    0
 Multiplicity           Mult            ....    1
 Number of Electrons    NEL             ....  134
 Basis Dimension        Dim             ....  322

ORBITAL ENERGIES
----------------

  NO   OCC          E(Eh)            E(eV)
   0   2.0000     -88.971816     -2421.0462
   1   2.0000     -88.966460     -2420.9004
   2   2.0000     -10.336424      -281.2684
   3   2.0000     -10.332886      -281.1721
   4   2.0000     -10.313839      -280.6538
   5   2.0000     -10.312916      -280.6287
   6   2.0000     -10.310025      -280.5500
   7   2.0000     -10.302639      -280.3491
   8   2.0000     -10.299255      -280.2570
   9   2.0000     -10.298383      -280.2332
  10   2.0000     -10.295027      -280.1419
  11   2.0000     -10.294332      -280.1230
  12   2.0000     -10.290135      -280.0088
  13   2.0000     -10.287361      -279.9333
  14   2.0000     -10.286115      -279.8994
  15   2.0000     -10.271816      -279.5103
  16   2.0000      -8.086683      -220.0498
  17   2.0000      -8.081495      -219.9087
  18   2.0000      -6.045164      -164.4973
  19   2.0000      -6.041109      -164.3869
  20   2.0000      -6.040073      -164.3587
  21   2.0000      -6.037549      -164.2901
  22   2.0000      -6.035975      -164.2472
  23   2.0000      -6.032189      -164.1442
  24   2.0000      -1.005717       -27.3669
  25   2.0000      -0.984499       -26.7896
  26   2.0000      -0.918696       -24.9990
  27   2.0000      -0.914886       -24.8953
  28   2.0000      -0.868032       -23.6203
  29   2.0000      -0.856444       -23.3050
  30   2.0000      -0.846365       -23.0308
  31   2.0000      -0.810052       -22.0426
  32   2.0000      -0.782885       -21.3034
  33   2.0000      -0.770082       -20.9550
  34   2.0000      -0.713304       -19.4100
  35   2.0000      -0.704692       -19.1757
  36   2.0000      -0.689687       -18.7673
  37   2.0000      -0.662260       -18.0210
  38   2.0000      -0.634668       -17.2702
  39   2.0000      -0.619186       -16.8489
  40   2.0000      -0.598577       -16.2881
  41   2.0000      -0.575412       -15.6577
  42   2.0000      -0.568966       -15.4824
  43   2.0000      -0.561880       -15.2895
  44   2.0000      -0.534010       -14.5312
  45   2.0000      -0.521314       -14.1857
  46   2.0000      -0.516668       -14.0593
  47   2.0000      -0.509052       -13.8520
  48   2.0000      -0.502657       -13.6780
  49   2.0000      -0.494706       -13.4616
  50   2.0000      -0.492483       -13.4012
  51   2.0000      -0.484149       -13.1744
  52   2.0000      -0.477091       -12.9823
  53   2.0000      -0.467168       -12.7123
  54   2.0000      -0.459863       -12.5135
  55   2.0000      -0.452579       -12.3153
  56   2.0000      -0.447470       -12.1763
  57   2.0000      -0.441915       -12.0251
  58   2.0000      -0.433151       -11.7866
  59   2.0000      -0.424973       -11.5641
  60   2.0000      -0.419670       -11.4198
  61   2.0000      -0.415103       -11.2955
  62   2.0000      -0.413864       -11.2618
  63   2.0000      -0.360041        -9.7972
  64   2.0000      -0.334893        -9.1129
  65   2.0000      -0.327529        -8.9125
  66   2.0000      -0.276340        -7.5196
  67   0.0000       0.018380         0.5001
  68   0.0000       0.080274         2.1844
  69   0.0000       0.105493         2.8706
  70   0.0000       0.116462         3.1691
  71   0.0000       0.127450         3.4681

MULLIKEN ATOMIC CHARGES
-----------------------
   0 S :    0.124489
   1 C :   -0.122158
   2 C :   -0.053606
   3 C :   -0.040626
   4 C :   -0.115326
   5 H :    0.014435
   6 C :    0.013515
   7 H :    0.042694
   8 H :    0.039014
   9 C :   -0.063753
  10 H :    0.044597
  11 H :    0.036773
  12 C :   -0.070717
  13 H :    0.039811
  14 H :    0.043611
  15 H :    0.020151
  16 S :    0.093962
  17 C :   -0.073345
  18 C :   -0.047573
  19 C :   -0.069081
  20 C :   -0.145346
  21 H :    0.024668
  22 C :    0.087526
  23 H :   -0.010394
  24 H :    0.020249
  25 C :   -0.004990
  26 H :   -0.000214
  27 H :    0.014562
  28 C :   -0.072800
  29 H :    0.044075
  30 H :    0.039929
  31 H :    0.048154
  32 H :    0.044037
  33 H :    0.053677
Sum of atomic charges:    0.0000000

LOEWDIN ATOMIC CHARGES
----------------------
   0 S :    0.432445
   1 C :   -0.209166
   2 C :   -0.068113
   3 C :   -0.078058
   4 C :   -0.207274
   5 H :    0.033368
   6 C :   -0.035162
   7 H :    0.040561
   8 H :    0.031264
   9 C :   -0.042320
  10 H :    0.028465
  11 H :    0.027397
  12 C :   -0.083164
  13 H :    0.034604
  14 H :    0.033391
  15 H :    0.025586
  16 S :    0.405356
  17 C :   -0.197088
  18 C :   -0.074277
  19 C :   -0.051622
  20 C :   -0.181851
  21 H :    0.033551
  22 C :   -0.024143
  23 H :    0.022589
  24 H :    0.022995
  25 C :   -0.037361
  26 H :    0.011975
  27 H :    0.021320
  28 C :   -0.065963
  29 H :    0.031897
  30 H :    0.030248
  31 H :    0.033194
  32 H :    0.026441
  33 H :    0.028913

  Mayer bond orders larger than 0.100000
B(  0-S ,  1-C ) :   1.1601 B(  0-S ,  4-C ) :   1.1664 B(  1-C ,  2-C ) :   1.5700
B(  1-C ,  4-C ) :   0.1012 B(  1-C , 32-H ) :   0.9686 B(  2-C ,  3-C ) :   1.2959
B(  2-C ,  6-C ) :   1.0078 B(  3-C ,  4-C ) :   1.5210 B(  3-C ,  5-H ) :   0.9725
B(  4-C , 20-C ) :   1.0899 B(  6-C ,  7-H ) :   0.9497 B(  6-C ,  8-H ) :   0.9296
B(  6-C ,  9-C ) :   1.0808 B(  9-C , 10-H ) :   0.9559 B(  9-C , 11-H ) :   0.9426
B(  9-C , 12-C ) :   1.0810 B( 12-C , 13-H ) :   0.9711 B( 12-C , 14-H ) :   0.9720
B( 12-C , 15-H ) :   0.9700 B( 16-S , 17-C ) :   1.1557 B( 16-S , 20-C ) :   1.1411
B( 17-C , 18-C ) :   1.6044 B( 17-C , 33-H ) :   0.9686 B( 18-C , 19-C ) :   1.2654
B( 18-C , 21-H ) :   0.9823 B( 19-C , 20-C ) :   1.5577 B( 19-C , 22-C ) :   1.0359
B( 22-C , 23-H ) :   0.9238 B( 22-C , 24-H ) :   0.9205 B( 22-C , 25-C ) :   1.0635
B( 25-C , 26-H ) :   0.9420 B( 25-C , 27-H ) :   0.9500 B( 25-C , 28-C ) :   1.0867
B( 28-C , 29-H ) :   0.9724 B( 28-C , 30-H ) :   0.9758 B( 28-C , 31-H ) :   0.9728

Dispersion correction           -0.013794553
FINAL SINGLE POINT ENERGY     -1339.870801014106

DIPOLE MOMENT
-------------
                                X             Y             Z
Electronic contribution:    -17.90247     -26.37238       1.00674
Nuclear contribution   :     18.31733      26.83222      -1.10406
                        -----------------------------------------
Total Dipole Moment    :      0.41487       0.45984      -0.09732
                        -----------------------------------------
Magnitude (a.u.)       :      0.62693
Magnitude (Debye)      :      1.59352

Rotational constants in cm-1:     0.016122     0.009404     0.006676
Rotational constants in MHz :   483.335639   281.915081   200.140641

                             ****ORCA TERMINATED NORMALLY****
TOTAL RUN TIME: 0 days 0 hours 0 minutes 21 seconds 785 msec
