                         Program Version 4.2.1 -  RELEASE  -
|  1> ! wB97X-D3 SP def2-SVP
|  2> %pal
|  3> nprocs 24
|  4> end
|  5>
|  6> * xyz 0 1
|  7> S 	 -123.193 	 66.5338 	 -40.548
|  8> C 	 -122.44 	 66.6863 	 -38.8985
|  9> C 	 -123.14 	 67.6033 	 -38.113
| 10> C 	 -124.306 	 68.1433 	 -38.8156
| 11> C 	 -124.515 	 67.5275 	 -40.0515
| 12> H 	 -125.033 	 68.868 	 -38.3776
| 13> C 	 -122.869 	 67.8592 	 -36.6517
| 14> H 	 -122.836 	 68.8663 	 -36.3185
| 15> H 	 -121.745 	 67.5806 	 -36.5686
| 16> C 	 -123.748 	 67.1194 	 -35.631
| 17> H 	 -123.467 	 67.3614 	 -34.6578
| 18> H 	 -124.772 	 67.4422 	 -35.7427
| 19> C 	 -123.691 	 65.5532 	 -35.6541
| 20> H 	 -123.81 	 65.2847 	 -36.6552
| 21> H 	 -122.754 	 65.2385 	 -35.2367
| 22> H 	 -124.497 	 65.0955 	 -35.0251
| 23> S 	 -125.323 	 68.0913 	 -42.6391
| 24> C 	 -127.038 	 68.3249 	 -42.9817
| 25> C 	 -127.76 	 68.4578 	 -41.8232
| 26> C 	 -126.914 	 68.2414 	 -40.6718
| 27> C 	 -125.608 	 67.9459 	 -40.969
| 28> H 	 -128.83 	 68.6028 	 -41.7681
| 29> C 	 -127.512 	 68.2482 	 -39.2379
| 30> H 	 -127.648 	 69.3011 	 -39.007
| 31> H 	 -126.772 	 67.7894 	 -38.5967
| 32> C 	 -128.745 	 67.3587 	 -39.0541
| 33> H 	 -128.466 	 66.3115 	 -39.1582
| 34> H 	 -129.56 	 67.5073 	 -39.808
| 35> C 	 -129.289 	 67.4519 	 -37.6287
| 36> H 	 -130.294 	 67.0559 	 -37.7173
| 37> H 	 -129.454 	 68.467 	 -37.2498
| 38> H 	 -128.691 	 66.7784 	 -36.9859
| 39> H 	 -121.57 	 66.143 	 -38.5936
| 40> H 	 -127.425 	 68.4207 	 -44.0077
| 41> *
| 42>
| 43>                          ****END OF INPUT****

CARTESIAN COORDINATES (ANGSTROEM)
---------------------------------
  S    -123.193000   66.533800  -40.548000
  C    -122.440000   66.686300  -38.898500
  C    -123.140000   67.603300  -38.113000
  C    -124.306000   68.143300  -38.815600
  C    -124.515000   67.527500  -40.051500
  H    -125.033000   68.868000  -38.377600
  C    -122.869000   67.859200  -36.651700
  H    -122.836000   68.866300  -36.318500
  H    -121.745000   67.580600  -36.568600
  C    -123.748000   67.119400  -35.631000
  H    -123.467000   67.361400  -34.657800
  H    -124.772000   67.442200  -35.742700
  C    -123.691000   65.553200  -35.654100
  H    -123.810000   65.284700  -36.655200
  H    -122.754000   65.238500  -35.236700
  H    -124.497000   65.095500  -35.025100
  S    -125.323000   68.091300  -42.639100
  C    -127.038000   68.324900  -42.981700
  C    -127.760000   68.457800  -41.823200
  C    -126.914000   68.241400  -40.671800
  C    -125.608000   67.945900  -40.969000
  H    -128.830000   68.602800  -41.768100
  C    -127.512000   68.248200  -39.237900
  H    -127.648000   69.301100  -39.007000
  H    -126.772000   67.789400  -38.596700
  C    -128.745000   67.358700  -39.054100
  H    -128.466000   66.311500  -39.158200
  H    -129.560000   67.507300  -39.808000
  C    -129.289000   67.451900  -37.628700
  H    -130.294000   67.055900  -37.717300
  H    -129.454000   68.467000  -37.249800
  H    -128.691000   66.778400  -36.985900
  H    -121.570000   66.143000  -38.593600
  H    -127.425000   68.420700  -44.007700

 Total Charge           Charge          ....    0
 Multiplicity           Mult            ....    1
 Number of Electrons    NEL             ....  134
 Basis Dimension        Dim             ....  322

ORBITAL ENERGIES
----------------

  NO   OCC          E(Eh)            E(eV)
   0   2.0000     -88.971453     -2421.0363
   1   2.0000     -88.962729     -2420.7989
   2   2.0000     -10.334786      -281.2238
   3   2.0000     -10.322462      -280.8885
   4   2.0000     -10.322222      -280.8820
   5   2.0000     -10.319601      -280.8106
   6   2.0000     -10.310390      -280.5600
   7   2.0000     -10.300768      -280.2981
   8   2.0000     -10.299092      -280.2525
   9   2.0000     -10.298344      -280.2322
  10   2.0000     -10.295503      -280.1549
  11   2.0000     -10.289354      -279.9876
  12   2.0000     -10.287517      -279.9376
  13   2.0000     -10.282923      -279.8126
  14   2.0000     -10.278713      -279.6980
  15   2.0000     -10.272262      -279.5225
  16   2.0000      -8.085344      -220.0134
  17   2.0000      -8.078416      -219.8249
  18   2.0000      -6.043956      -164.4644
  19   2.0000      -6.040105      -164.3596
  20   2.0000      -6.036931      -164.2732
  21   2.0000      -6.035902      -164.2452
  22   2.0000      -6.032836      -164.1618
  23   2.0000      -6.029067      -164.0593
  24   2.0000      -1.007790       -27.4234
  25   2.0000      -0.980881       -26.6911
  26   2.0000      -0.911102       -24.7923
  27   2.0000      -0.908076       -24.7100
  28   2.0000      -0.866609       -23.5816
  29   2.0000      -0.851458       -23.1694
  30   2.0000      -0.842200       -22.9174
  31   2.0000      -0.812713       -22.1151
  32   2.0000      -0.784526       -21.3480
  33   2.0000      -0.772422       -21.0187
  34   2.0000      -0.705966       -19.2103
  35   2.0000      -0.695338       -18.9211
  36   2.0000      -0.694628       -18.9018
  37   2.0000      -0.659484       -17.9455
  38   2.0000      -0.636643       -17.3239
  39   2.0000      -0.617169       -16.7940
  40   2.0000      -0.595000       -16.1908
  41   2.0000      -0.572618       -15.5817
  42   2.0000      -0.568976       -15.4826
  43   2.0000      -0.551617       -15.0103
  44   2.0000      -0.542718       -14.7681
  45   2.0000      -0.526152       -14.3173
  46   2.0000      -0.519124       -14.1261
  47   2.0000      -0.515536       -14.0284
  48   2.0000      -0.500414       -13.6170
  49   2.0000      -0.497019       -13.5246
  50   2.0000      -0.490447       -13.3457
  51   2.0000      -0.479617       -13.0510
  52   2.0000      -0.471190       -12.8217
  53   2.0000      -0.464064       -12.6278
  54   2.0000      -0.459886       -12.5141
  55   2.0000      -0.451643       -12.2898
  56   2.0000      -0.442599       -12.0437
  57   2.0000      -0.439351       -11.9554
  58   2.0000      -0.435211       -11.8427
  59   2.0000      -0.421698       -11.4750
  60   2.0000      -0.418602       -11.3907
  61   2.0000      -0.413208       -11.2440
  62   2.0000      -0.407882       -11.0990
  63   2.0000      -0.353425        -9.6172
  64   2.0000      -0.332576        -9.0499
  65   2.0000      -0.329719        -8.9721
  66   2.0000      -0.290471        -7.9041
  67   0.0000       0.026837         0.7303
  68   0.0000       0.079232         2.1560
  69   0.0000       0.101215         2.7542
  70   0.0000       0.116899         3.1810
  71   0.0000       0.130393         3.5482

MULLIKEN ATOMIC CHARGES
-----------------------
   0 S :    0.104459
   1 C :   -0.116610
   2 C :   -0.071132
   3 C :   -0.007315
   4 C :   -0.133866
   5 H :    0.042339
   6 C :    0.038583
   7 H :    0.026527
   8 H :    0.024315
   9 C :   -0.043811
  10 H :    0.012773
  11 H :    0.022821
  12 C :   -0.046055
  13 H :    0.032358
  14 H :    0.023405
  15 H :    0.038221
  16 S :    0.095637
  17 C :   -0.108075
  18 C :   -0.007144
  19 C :   -0.091732
  20 C :   -0.121774
  21 H :    0.021787
  22 C :    0.070837
  23 H :    0.041449
  24 H :    0.024860
  25 C :   -0.112822
  26 H :    0.033464
  27 H :    0.030973
  28 C :   -0.038574
  29 H :    0.024585
  30 H :    0.032558
  31 H :    0.044210
  32 H :    0.045543
  33 H :    0.067203
Sum of atomic charges:    0.0000000

LOEWDIN ATOMIC CHARGES
----------------------
   0 S :    0.389031
   1 C :   -0.174856
   2 C :   -0.057173
   3 C :   -0.070067
   4 C :   -0.191865
   5 H :    0.039837
   6 C :   -0.038038
   7 H :    0.028793
   8 H :    0.037946
   9 C :   -0.031242
  10 H :    0.015786
  11 H :    0.020685
  12 C :   -0.057321
  13 H :    0.015574
  14 H :    0.019934
  15 H :    0.032147
  16 S :    0.408254
  17 C :   -0.179633
  18 C :   -0.067728
  19 C :   -0.060668
  20 C :   -0.215426
  21 H :    0.032447
  22 C :   -0.032985
  23 H :    0.030593
  24 H :    0.029048
  25 C :   -0.044819
  26 H :    0.029670
  27 H :    0.019759
  28 C :   -0.066753
  29 H :    0.027522
  30 H :    0.023903
  31 H :    0.029757
  32 H :    0.024316
  33 H :    0.033576

  Mayer bond orders larger than 0.100000
B(  0-S ,  1-C ) :   1.1100 B(  0-S ,  4-C ) :   1.1546 B(  1-C ,  2-C ) :   1.6219
B(  1-C , 32-H ) :   0.9715 B(  2-C ,  3-C ) :   1.2144 B(  2-C ,  6-C ) :   1.0312
B(  3-C ,  4-C ) :   1.5628 B(  3-C ,  5-H ) :   0.9815 B(  4-C , 20-C ) :   1.0328
B(  6-C ,  7-H ) :   0.9409 B(  6-C ,  8-H ) :   0.9398 B(  6-C ,  9-C ) :   1.0671
B(  9-C , 10-H ) :   0.9555 B(  9-C , 11-H ) :   0.9566 B(  9-C , 12-C ) :   1.0712
B( 12-C , 13-H ) :   0.9808 B( 12-C , 14-H ) :   0.9783 B( 12-C , 15-H ) :   0.9752
B( 16-S , 17-C ) :   1.1511 B( 16-S , 20-C ) :   1.1338 B( 17-C , 18-C ) :   1.6018
B( 17-C , 33-H ) :   0.9674 B( 18-C , 19-C ) :   1.2458 B( 18-C , 21-H ) :   0.9926
B( 19-C , 20-C ) :   1.6211 B( 19-C , 22-C ) :   1.0278 B( 22-C , 23-H ) :   0.9357
B( 22-C , 24-H ) :   0.9313 B( 22-C , 25-C ) :   1.0644 B( 25-C , 26-H ) :   0.9548
B( 25-C , 27-H ) :   0.9604 B( 25-C , 28-C ) :   1.0836 B( 28-C , 29-H ) :   0.9722
B( 28-C , 30-H ) :   0.9752 B( 28-C , 31-H ) :   0.9769

Dispersion correction           -0.014302883
FINAL SINGLE POINT ENERGY     -1339.877026252611

DIPOLE MOMENT
-------------
                                X             Y             Z
Electronic contribution:     12.07447       3.01930     -28.71893
Nuclear contribution   :    -12.46638      -2.92095      29.33905
                        -----------------------------------------
Total Dipole Moment    :     -0.39191       0.09835       0.62012
                        -----------------------------------------
Magnitude (a.u.)       :      0.74014
Magnitude (Debye)      :      1.88130

Rotational constants in cm-1:     0.017112     0.009898     0.006779
Rotational constants in MHz :   512.994909   296.731139   203.222213

                             ****ORCA TERMINATED NORMALLY****
TOTAL RUN TIME: 0 days 0 hours 0 minutes 22 seconds 90 msec
