                         Program Version 4.2.1 -  RELEASE  -
|  1> ! wB97X-D3 SP def2-SVP
|  2> %pal
|  3> nprocs 24
|  4> end
|  5>
|  6> * xyz 0 1
|  7> S 	 -101.82 	 15.2081 	 -122.967
|  8> C 	 -103.234 	 15.9861 	 -123.735
|  9> C 	 -104.183 	 15.0249 	 -124.13
| 10> C 	 -103.76 	 13.6926 	 -123.798
| 11> C 	 -102.588 	 13.6528 	 -123.104
| 12> H 	 -104.253 	 12.725 	 -123.988
| 13> C 	 -105.43 	 15.2434 	 -124.936
| 14> H 	 -105.441 	 14.517 	 -125.666
| 15> H 	 -105.236 	 16.2097 	 -125.456
| 16> C 	 -106.747 	 15.1072 	 -124.132
| 17> H 	 -106.82 	 15.7826 	 -123.315
| 18> H 	 -107.501 	 15.5521 	 -124.864
| 19> C 	 -107.173 	 13.6852 	 -123.593
| 20> H 	 -106.923 	 12.8521 	 -124.349
| 21> H 	 -106.655 	 13.3104 	 -122.714
| 22> H 	 -108.238 	 13.6 	 -123.355
| 23> S 	 -100.29 	 12.1961 	 -122.902
| 24> C 	 -100.271 	 10.6249 	 -122.063
| 25> C 	 -101.548 	 10.2328 	 -121.826
| 26> C 	 -102.511 	 11.2439 	 -121.932
| 27> C 	 -101.969 	 12.387 	 -122.59
| 28> H 	 -101.719 	 9.23366 	 -121.406
| 29> C 	 -103.938 	 11.0159 	 -121.547
| 30> H 	 -104.213 	 9.97727 	 -121.599
| 31> H 	 -104.583 	 11.4686 	 -122.294
| 32> C 	 -104.465 	 11.4552 	 -120.157
| 33> H 	 -103.891 	 10.9334 	 -119.447
| 34> H 	 -105.503 	 11.2858 	 -120.095
| 35> C 	 -104.264 	 12.9212 	 -119.88
| 36> H 	 -104.241 	 13.0812 	 -118.862
| 37> H 	 -105.055 	 13.4634 	 -120.398
| 38> H 	 -103.304 	 13.2315 	 -120.258
| 39> H 	 -103.334 	 17.0327 	 -124.017
| 40> H 	 -99.4974 	 9.86747 	 -121.962
| 41> *
| 42>
| 43>                          ****END OF INPUT****

CARTESIAN COORDINATES (ANGSTROEM)
---------------------------------
  S    -101.820000   15.208100  -122.967000
  C    -103.234000   15.986100  -123.735000
  C    -104.183000   15.024900  -124.130000
  C    -103.760000   13.692600  -123.798000
  C    -102.588000   13.652800  -123.104000
  H    -104.253000   12.725000  -123.988000
  C    -105.430000   15.243400  -124.936000
  H    -105.441000   14.517000  -125.666000
  H    -105.236000   16.209700  -125.456000
  C    -106.747000   15.107200  -124.132000
  H    -106.820000   15.782600  -123.315000
  H    -107.501000   15.552100  -124.864000
  C    -107.173000   13.685200  -123.593000
  H    -106.923000   12.852100  -124.349000
  H    -106.655000   13.310400  -122.714000
  H    -108.238000   13.600000  -123.355000
  S    -100.290000   12.196100  -122.902000
  C    -100.271000   10.624900  -122.063000
  C    -101.548000   10.232800  -121.826000
  C    -102.511000   11.243900  -121.932000
  C    -101.969000   12.387000  -122.590000
  H    -101.719000    9.233660  -121.406000
  C    -103.938000   11.015900  -121.547000
  H    -104.213000    9.977270  -121.599000
  H    -104.583000   11.468600  -122.294000
  C    -104.465000   11.455200  -120.157000
  H    -103.891000   10.933400  -119.447000
  H    -105.503000   11.285800  -120.095000
  C    -104.264000   12.921200  -119.880000
  H    -104.241000   13.081200  -118.862000
  H    -105.055000   13.463400  -120.398000
  H    -103.304000   13.231500  -120.258000
  H    -103.334000   17.032700  -124.017000
  H    -99.497400    9.867470  -121.962000

 Total Charge           Charge          ....    0
 Multiplicity           Mult            ....    1
 Number of Electrons    NEL             ....  134
 Basis Dimension        Dim             ....  322

ORBITAL ENERGIES
----------------

  NO   OCC          E(Eh)            E(eV)
   0   2.0000     -88.969696     -2420.9885
   1   2.0000     -88.968917     -2420.9673
   2   2.0000     -10.332767      -281.1689
   3   2.0000     -10.329687      -281.0851
   4   2.0000     -10.319625      -280.8113
   5   2.0000     -10.314571      -280.6737
   6   2.0000     -10.303943      -280.3845
   7   2.0000     -10.303621      -280.3758
   8   2.0000     -10.298471      -280.2357
   9   2.0000     -10.293343      -280.0961
  10   2.0000     -10.292566      -280.0750
  11   2.0000     -10.292055      -280.0610
  12   2.0000     -10.290025      -280.0058
  13   2.0000     -10.285507      -279.8829
  14   2.0000     -10.272098      -279.5180
  15   2.0000     -10.256052      -279.0814
  16   2.0000      -8.083684      -219.9682
  17   2.0000      -8.083487      -219.9629
  18   2.0000      -6.042353      -164.4208
  19   2.0000      -6.041973      -164.4104
  20   2.0000      -6.038335      -164.3115
  21   2.0000      -6.037983      -164.3019
  22   2.0000      -6.034294      -164.2015
  23   2.0000      -6.034268      -164.2008
  24   2.0000      -1.007077       -27.4040
  25   2.0000      -0.983986       -26.7756
  26   2.0000      -0.912527       -24.8311
  27   2.0000      -0.909824       -24.7576
  28   2.0000      -0.867325       -23.6011
  29   2.0000      -0.851880       -23.1808
  30   2.0000      -0.842905       -22.9366
  31   2.0000      -0.818063       -22.2606
  32   2.0000      -0.785905       -21.3856
  33   2.0000      -0.774075       -21.0636
  34   2.0000      -0.709714       -19.3123
  35   2.0000      -0.702850       -19.1255
  36   2.0000      -0.689877       -18.7725
  37   2.0000      -0.657951       -17.9038
  38   2.0000      -0.639674       -17.4064
  39   2.0000      -0.616385       -16.7727
  40   2.0000      -0.595999       -16.2180
  41   2.0000      -0.573911       -15.6169
  42   2.0000      -0.559244       -15.2178
  43   2.0000      -0.547300       -14.8928
  44   2.0000      -0.545955       -14.8562
  45   2.0000      -0.531550       -14.4642
  46   2.0000      -0.514745       -14.0069
  47   2.0000      -0.510276       -13.8853
  48   2.0000      -0.501057       -13.6345
  49   2.0000      -0.497201       -13.5295
  50   2.0000      -0.489228       -13.3126
  51   2.0000      -0.482470       -13.1287
  52   2.0000      -0.472812       -12.8659
  53   2.0000      -0.466532       -12.6950
  54   2.0000      -0.459809       -12.5121
  55   2.0000      -0.449201       -12.2234
  56   2.0000      -0.445661       -12.1270
  57   2.0000      -0.438288       -11.9264
  58   2.0000      -0.429546       -11.6885
  59   2.0000      -0.426071       -11.5940
  60   2.0000      -0.423766       -11.5313
  61   2.0000      -0.415301       -11.3009
  62   2.0000      -0.410843       -11.1796
  63   2.0000      -0.349484        -9.5100
  64   2.0000      -0.333509        -9.0753
  65   2.0000      -0.328932        -8.9507
  66   2.0000      -0.289993        -7.8911
  67   0.0000       0.025606         0.6968
  68   0.0000       0.074058         2.0152
  69   0.0000       0.097595         2.6557
  70   0.0000       0.117773         3.2048
  71   0.0000       0.129887         3.5344

MULLIKEN ATOMIC CHARGES
-----------------------
   0 S :    0.114824
   1 C :   -0.125070
   2 C :   -0.102045
   3 C :    0.006055
   4 C :   -0.127830
   5 H :    0.027486
   6 C :    0.100123
   7 H :    0.010446
   8 H :    0.026399
   9 C :   -0.058717
  10 H :    0.025277
  11 H :    0.040399
  12 C :   -0.085466
  13 H :    0.031638
  14 H :    0.039475
  15 H :    0.045950
  16 S :    0.108494
  17 C :   -0.080774
  18 C :   -0.056287
  19 C :   -0.036995
  20 C :   -0.157566
  21 H :    0.026675
  22 C :    0.063566
  23 H :    0.012793
  24 H :   -0.006768
  25 C :   -0.026809
  26 H :    0.009370
  27 H :    0.018341
  28 C :   -0.011328
  29 H :    0.012682
  30 H :    0.027030
  31 H :    0.025247
  32 H :    0.049344
  33 H :    0.054040
Sum of atomic charges:   -0.0000000

LOEWDIN ATOMIC CHARGES
----------------------
   0 S :    0.394595
   1 C :   -0.196610
   2 C :   -0.055867
   3 C :   -0.069343
   4 C :   -0.196383
   5 H :    0.036046
   6 C :   -0.028119
   7 H :    0.022105
   8 H :    0.038211
   9 C :   -0.037342
  10 H :    0.019697
  11 H :    0.035108
  12 C :   -0.076242
  13 H :    0.029586
  14 H :    0.022605
  15 H :    0.031648
  16 S :    0.414699
  17 C :   -0.188512
  18 C :   -0.068782
  19 C :   -0.065168
  20 C :   -0.198776
  21 H :    0.035494
  22 C :   -0.033943
  23 H :    0.029609
  24 H :    0.022281
  25 C :   -0.024721
  26 H :    0.015294
  27 H :    0.019431
  28 C :   -0.053967
  29 H :    0.014665
  30 H :    0.024610
  31 H :    0.023728
  32 H :    0.030042
  33 H :    0.034320

  Mayer bond orders larger than 0.100000
B(  0-S ,  1-C ) :   1.1179 B(  0-S ,  4-C ) :   1.1459 B(  1-C ,  2-C ) :   1.6262
B(  1-C , 32-H ) :   0.9658 B(  2-C ,  3-C ) :   1.2178 B(  2-C ,  6-C ) :   1.0226
B(  3-C ,  4-C ) :   1.6013 B(  3-C ,  5-H ) :   0.9836 B(  4-C , 20-C ) :   1.0141
B(  6-C ,  7-H ) :   0.9369 B(  6-C ,  8-H ) :   0.9398 B(  6-C ,  9-C ) :   1.0623
B(  9-C , 10-H ) :   0.9574 B(  9-C , 11-H ) :   0.9576 B(  9-C , 12-C ) :   1.0616
B( 12-C , 13-H ) :   0.9746 B( 12-C , 14-H ) :   0.9736 B( 12-C , 15-H ) :   0.9724
B( 16-S , 17-C ) :   1.1345 B( 16-S , 20-C ) :   1.1739 B( 17-C , 18-C ) :   1.6281
B( 17-C , 20-C ) :   0.1032 B( 17-C , 33-H ) :   0.9623 B( 18-C , 19-C ) :   1.2736
B( 18-C , 21-H ) :   0.9757 B( 19-C , 20-C ) :   1.5444 B( 19-C , 22-C ) :   1.0425
B( 22-C , 23-H ) :   0.9311 B( 22-C , 24-H ) :   0.9287 B( 22-C , 25-C ) :   1.0821
B( 25-C , 26-H ) :   0.9521 B( 25-C , 27-H ) :   0.9541 B( 25-C , 28-C ) :   1.0921
B( 28-C , 29-H ) :   0.9712 B( 28-C , 30-H ) :   0.9759 B( 28-C , 31-H ) :   0.9715

Dispersion correction           -0.016282047
FINAL SINGLE POINT ENERGY     -1339.865190756802

DIPOLE MOMENT
-------------
                                X             Y             Z
Electronic contribution:     27.90536       2.89086      -4.78861
Nuclear contribution   :    -28.56510      -3.17872       4.68459
                        -----------------------------------------
Total Dipole Moment    :     -0.65974      -0.28786      -0.10402
                        -----------------------------------------
Magnitude (a.u.)       :      0.72728
Magnitude (Debye)      :      1.84861

Rotational constants in cm-1:     0.018968     0.010341     0.007874
Rotational constants in MHz :   568.651003   310.006451   236.062579

                             ****ORCA TERMINATED NORMALLY****
TOTAL RUN TIME: 0 days 0 hours 0 minutes 23 seconds 497 msec
