                         Program Version 4.2.1 -  RELEASE  -
|  1> ! wB97X-D3 SP def2-SVP
|  2> %pal
|  3> nprocs 24
|  4> end
|  5>
|  6> * xyz 0 1
|  7> S 	 -51.6674 	 25.6374 	 27.8719
|  8> C 	 -52.9855 	 26.6303 	 28.3792
|  9> C 	 -52.6499 	 27.9597 	 28.416
| 10> C 	 -51.263 	 28.1693 	 28.065
| 11> C 	 -50.577 	 27.0021 	 27.9546
| 12> H 	 -50.7009 	 29.1425 	 28.0436
| 13> C 	 -53.6466 	 29.0952 	 28.8402
| 14> H 	 -53.0105 	 29.9159 	 29.2495
| 15> H 	 -54.2162 	 28.691 	 29.668
| 16> C 	 -54.5169 	 29.6235 	 27.7445
| 17> H 	 -53.9587 	 30.3442 	 27.0794
| 18> H 	 -54.9654 	 28.8095 	 27.1917
| 19> C 	 -55.7208 	 30.2868 	 28.4301
| 20> H 	 -56.4242 	 30.6443 	 27.6929
| 21> H 	 -56.3491 	 29.6402 	 29.152
| 22> H 	 -55.404 	 31.2059 	 28.9116
| 23> S 	 -48.3289 	 27.7671 	 26.5699
| 24> C 	 -46.8434 	 26.9893 	 26.9773
| 25> C 	 -46.9277 	 26.1752 	 28.14
| 26> C 	 -48.2528 	 26.2305 	 28.6783
| 27> C 	 -49.1609 	 26.9222 	 27.8544
| 28> H 	 -46.1345 	 25.6048 	 28.5277
| 29> C 	 -48.5817 	 25.4436 	 29.9944
| 30> H 	 -48.992 	 24.4718 	 29.6542
| 31> H 	 -49.3448 	 26.0261 	 30.5419
| 32> C 	 -47.4293 	 25.2815 	 30.9839
| 33> H 	 -47.1142 	 26.2932 	 31.1791
| 34> H 	 -46.5716 	 24.7298 	 30.5653
| 35> C 	 -47.9419 	 24.7055 	 32.3594
| 36> H 	 -48.8595 	 25.1247 	 32.6466
| 37> H 	 -47.2939 	 24.8908 	 33.2055
| 38> H 	 -48.0925 	 23.6795 	 32.1385
| 39> H 	 -53.9456 	 26.3632 	 28.4932
| 40> H 	 -45.9719 	 27.2883 	 26.4105
| 41> *
| 42>
| 43>                          ****END OF INPUT****

CARTESIAN COORDINATES (ANGSTROEM)
---------------------------------
  S    -51.667400   25.637400   27.871900
  C    -52.985500   26.630300   28.379200
  C    -52.649900   27.959700   28.416000
  C    -51.263000   28.169300   28.065000
  C    -50.577000   27.002100   27.954600
  H    -50.700900   29.142500   28.043600
  C    -53.646600   29.095200   28.840200
  H    -53.010500   29.915900   29.249500
  H    -54.216200   28.691000   29.668000
  C    -54.516900   29.623500   27.744500
  H    -53.958700   30.344200   27.079400
  H    -54.965400   28.809500   27.191700
  C    -55.720800   30.286800   28.430100
  H    -56.424200   30.644300   27.692900
  H    -56.349100   29.640200   29.152000
  H    -55.404000   31.205900   28.911600
  S    -48.328900   27.767100   26.569900
  C    -46.843400   26.989300   26.977300
  C    -46.927700   26.175200   28.140000
  C    -48.252800   26.230500   28.678300
  C    -49.160900   26.922200   27.854400
  H    -46.134500   25.604800   28.527700
  C    -48.581700   25.443600   29.994400
  H    -48.992000   24.471800   29.654200
  H    -49.344800   26.026100   30.541900
  C    -47.429300   25.281500   30.983900
  H    -47.114200   26.293200   31.179100
  H    -46.571600   24.729800   30.565300
  C    -47.941900   24.705500   32.359400
  H    -48.859500   25.124700   32.646600
  H    -47.293900   24.890800   33.205500
  H    -48.092500   23.679500   32.138500
  H    -53.945600   26.363200   28.493200
  H    -45.971900   27.288300   26.410500

 Total Charge           Charge          ....    0
 Multiplicity           Mult            ....    1
 Number of Electrons    NEL             ....  134
 Basis Dimension        Dim             ....  322

ORBITAL ENERGIES
----------------

  NO   OCC          E(Eh)            E(eV)
   0   2.0000     -88.966751     -2420.9084
   1   2.0000     -88.964607     -2420.8500
   2   2.0000     -10.320283      -280.8292
   3   2.0000     -10.319986      -280.8211
   4   2.0000     -10.318965      -280.7933
   5   2.0000     -10.305366      -280.4233
   6   2.0000     -10.299920      -280.2751
   7   2.0000     -10.298842      -280.2457
   8   2.0000     -10.295149      -280.1452
   9   2.0000     -10.294675      -280.1323
  10   2.0000     -10.293145      -280.0907
  11   2.0000     -10.292921      -280.0846
  12   2.0000     -10.288609      -279.9673
  13   2.0000     -10.287688      -279.9422
  14   2.0000     -10.281566      -279.7756
  15   2.0000     -10.272217      -279.5212
  16   2.0000      -8.081790      -219.9167
  17   2.0000      -8.079558      -219.8560
  18   2.0000      -6.040081      -164.3590
  19   2.0000      -6.038098      -164.3050
  20   2.0000      -6.036197      -164.2533
  21   2.0000      -6.034141      -164.1973
  22   2.0000      -6.032848      -164.1621
  23   2.0000      -6.030170      -164.0893
  24   2.0000      -1.007537       -27.4165
  25   2.0000      -0.982527       -26.7359
  26   2.0000      -0.913477       -24.8570
  27   2.0000      -0.905201       -24.6318
  28   2.0000      -0.872186       -23.7334
  29   2.0000      -0.849752       -23.1229
  30   2.0000      -0.843356       -22.9489
  31   2.0000      -0.808590       -22.0028
  32   2.0000      -0.780806       -21.2468
  33   2.0000      -0.768885       -20.9224
  34   2.0000      -0.706584       -19.2271
  35   2.0000      -0.697116       -18.9695
  36   2.0000      -0.695167       -18.9165
  37   2.0000      -0.661027       -17.9874
  38   2.0000      -0.638291       -17.3688
  39   2.0000      -0.610779       -16.6201
  40   2.0000      -0.596966       -16.2443
  41   2.0000      -0.574965       -15.6456
  42   2.0000      -0.572725       -15.5846
  43   2.0000      -0.561561       -15.2808
  44   2.0000      -0.522849       -14.2274
  45   2.0000      -0.520872       -14.1736
  46   2.0000      -0.517711       -14.0876
  47   2.0000      -0.507371       -13.8063
  48   2.0000      -0.504425       -13.7261
  49   2.0000      -0.498931       -13.5766
  50   2.0000      -0.487941       -13.2775
  51   2.0000      -0.478053       -13.0085
  52   2.0000      -0.468417       -12.7463
  53   2.0000      -0.466595       -12.6967
  54   2.0000      -0.457049       -12.4369
  55   2.0000      -0.454218       -12.3599
  56   2.0000      -0.443893       -12.0789
  57   2.0000      -0.439318       -11.9544
  58   2.0000      -0.431443       -11.7402
  59   2.0000      -0.429051       -11.6751
  60   2.0000      -0.424999       -11.5648
  61   2.0000      -0.410409       -11.1678
  62   2.0000      -0.408967       -11.1285
  63   2.0000      -0.341420        -9.2905
  64   2.0000      -0.332568        -9.0496
  65   2.0000      -0.325508        -8.8575
  66   2.0000      -0.289748        -7.8844
  67   0.0000       0.032376         0.8810
  68   0.0000       0.068974         1.8769
  69   0.0000       0.110711         3.0126
  70   0.0000       0.119489         3.2515
  71   0.0000       0.134239         3.6528

MULLIKEN ATOMIC CHARGES
-----------------------
   0 S :    0.126631
   1 C :   -0.060181
   2 C :   -0.099118
   3 C :    0.002690
   4 C :   -0.159162
   5 H :    0.031908
   6 C :    0.047335
   7 H :    0.028895
   8 H :    0.025688
   9 C :   -0.047832
  10 H :    0.048211
  11 H :    0.028973
  12 C :   -0.078745
  13 H :    0.024716
  14 H :    0.047949
  15 H :    0.025286
  16 S :    0.122246
  17 C :   -0.102378
  18 C :   -0.012530
  19 C :   -0.046157
  20 C :   -0.177652
  21 H :    0.005608
  22 C :    0.057177
  23 H :    0.045472
  24 H :    0.038435
  25 C :   -0.119691
  26 H :    0.026805
  27 H :    0.041251
  28 C :    0.001143
  29 H :    0.012848
  30 H :    0.036595
  31 H :    0.026671
  32 H :   -0.010648
  33 H :    0.061561
Sum of atomic charges:   -0.0000000

LOEWDIN ATOMIC CHARGES
----------------------
   0 S :    0.414395
   1 C :   -0.190370
   2 C :   -0.057831
   3 C :   -0.069239
   4 C :   -0.199033
   5 H :    0.038269
   6 C :   -0.031083
   7 H :    0.033979
   8 H :    0.028970
   9 C :   -0.042423
  10 H :    0.035886
  11 H :    0.023487
  12 C :   -0.072666
  13 H :    0.020774
  14 H :    0.034434
  15 H :    0.021284
  16 S :    0.426563
  17 C :   -0.189756
  18 C :   -0.065733
  19 C :   -0.048765
  20 C :   -0.214010
  21 H :    0.023565
  22 C :   -0.033035
  23 H :    0.032316
  24 H :    0.035113
  25 C :   -0.041599
  26 H :    0.022103
  27 H :    0.021932
  28 C :   -0.052794
  29 H :    0.018393
  30 H :    0.027422
  31 H :    0.023194
  32 H :    0.002675
  33 H :    0.023583

  Mayer bond orders larger than 0.100000
B(  0-S ,  1-C ) :   1.1281 B(  0-S ,  4-C ) :   1.1355 B(  1-C ,  2-C ) :   1.6374
B(  1-C , 32-H ) :   0.9787 B(  2-C ,  3-C ) :   1.2342 B(  2-C ,  6-C ) :   1.0042
B(  3-C ,  4-C ) :   1.5893 B(  3-C ,  5-H ) :   0.9848 B(  4-C , 20-C ) :   1.0668
B(  6-C ,  7-H ) :   0.9395 B(  6-C ,  8-H ) :   0.9510 B(  6-C ,  9-C ) :   1.0683
B(  9-C , 10-H ) :   0.9503 B(  9-C , 11-H ) :   0.9586 B(  9-C , 12-C ) :   1.0791
B( 12-C , 13-H ) :   0.9730 B( 12-C , 14-H ) :   0.9753 B( 12-C , 15-H ) :   0.9727
B( 16-S , 17-C ) :   1.1890 B( 16-S , 20-C ) :   1.1473 B( 17-C , 18-C ) :   1.5432
B( 17-C , 20-C ) :   0.1088 B( 17-C , 33-H ) :   0.9694 B( 18-C , 19-C ) :   1.2740
B( 18-C , 21-H ) :   0.9989 B( 19-C , 20-C ) :   1.5632 B( 19-C , 22-C ) :   1.0195
B( 22-C , 23-H ) :   0.9341 B( 22-C , 24-H ) :   0.9387 B( 22-C , 25-C ) :   1.0719
B( 25-C , 26-H ) :   0.9596 B( 25-C , 27-H ) :   0.9518 B( 25-C , 28-C ) :   1.0753
B( 28-C , 29-H ) :   0.9735 B( 28-C , 30-H ) :   0.9765 B( 28-C , 31-H ) :   0.9775

Dispersion correction           -0.013512084
FINAL SINGLE POINT ENERGY     -1339.867186465079

DIPOLE MOMENT
-------------
                                X             Y             Z
Electronic contribution:      9.77885      -5.02078     -17.24350
Nuclear contribution   :     -9.86500       5.24658      17.60768
                        -----------------------------------------
Total Dipole Moment    :     -0.08615       0.22580       0.36418
                        -----------------------------------------
Magnitude (a.u.)       :      0.43708
Magnitude (Debye)      :      1.11096

Rotational constants in cm-1:     0.020646     0.007073     0.005987
Rotational constants in MHz :   618.948945   212.055933   179.471151

                             ****ORCA TERMINATED NORMALLY****
TOTAL RUN TIME: 0 days 0 hours 0 minutes 19 seconds 639 msec
