                         Program Version 4.2.1 -  RELEASE  -
|  1> ! wB97X-D3 SP def2-SVP
|  2> %pal
|  3> nprocs 24
|  4> end
|  5>
|  6> * xyz 0 1
|  7> S 	 -52.2266 	 24.4732 	 29.2723
|  8> C 	 -53.1319 	 25.8848 	 28.8272
|  9> C 	 -53.1979 	 25.9505 	 27.4436
| 10> C 	 -52.262 	 25.0939 	 26.8115
| 11> C 	 -51.6162 	 24.2912 	 27.6556
| 12> H 	 -52.1346 	 25.0099 	 25.7814
| 13> C 	 -53.9978 	 26.8897 	 26.5497
| 14> H 	 -54.752 	 26.2418 	 26.1273
| 15> H 	 -53.4511 	 27.0778 	 25.626
| 16> C 	 -54.6725 	 28.1124 	 27.2237
| 17> H 	 -55.3815 	 28.493 	 26.4477
| 18> H 	 -55.3018 	 27.8533 	 28.0758
| 19> C 	 -53.696 	 29.1523 	 27.6978
| 20> H 	 -53.2082 	 28.7467 	 28.5783
| 21> H 	 -52.9151 	 29.2818 	 26.8597
| 22> H 	 -54.1506 	 30.1035 	 28.0063
| 23> S 	 -50.991 	 21.9082 	 26.4481
| 24> C 	 -49.2298 	 21.5341 	 26.255
| 25> C 	 -48.4699 	 22.426 	 26.9623
| 26> C 	 -49.2318 	 23.541 	 27.5214
| 27> C 	 -50.5744 	 23.3692 	 27.2559
| 28> H 	 -47.441 	 22.2027 	 26.9832
| 29> C 	 -48.5887 	 24.6375 	 28.4148
| 30> H 	 -49.3291 	 25.4341 	 28.5559
| 31> H 	 -47.7265 	 25.0534 	 27.9061
| 32> C 	 -48.2327 	 24.2398 	 29.8045
| 33> H 	 -47.2732 	 23.6972 	 29.8323
| 34> H 	 -48.9488 	 23.6685 	 30.3811
| 35> C 	 -48.0339 	 25.5019 	 30.6543
| 36> H 	 -48.8896 	 26.187 	 30.6635
| 37> H 	 -47.1826 	 26.045 	 30.2683
| 38> H 	 -47.848 	 25.3039 	 31.761
| 39> H 	 -53.7037 	 26.4337 	 29.5174
| 40> H 	 -48.9182 	 20.6197 	 25.704
| 41> *
| 42>
| 43>                          ****END OF INPUT****

CARTESIAN COORDINATES (ANGSTROEM)
---------------------------------
  S    -52.226600   24.473200   29.272300
  C    -53.131900   25.884800   28.827200
  C    -53.197900   25.950500   27.443600
  C    -52.262000   25.093900   26.811500
  C    -51.616200   24.291200   27.655600
  H    -52.134600   25.009900   25.781400
  C    -53.997800   26.889700   26.549700
  H    -54.752000   26.241800   26.127300
  H    -53.451100   27.077800   25.626000
  C    -54.672500   28.112400   27.223700
  H    -55.381500   28.493000   26.447700
  H    -55.301800   27.853300   28.075800
  C    -53.696000   29.152300   27.697800
  H    -53.208200   28.746700   28.578300
  H    -52.915100   29.281800   26.859700
  H    -54.150600   30.103500   28.006300
  S    -50.991000   21.908200   26.448100
  C    -49.229800   21.534100   26.255000
  C    -48.469900   22.426000   26.962300
  C    -49.231800   23.541000   27.521400
  C    -50.574400   23.369200   27.255900
  H    -47.441000   22.202700   26.983200
  C    -48.588700   24.637500   28.414800
  H    -49.329100   25.434100   28.555900
  H    -47.726500   25.053400   27.906100
  C    -48.232700   24.239800   29.804500
  H    -47.273200   23.697200   29.832300
  H    -48.948800   23.668500   30.381100
  C    -48.033900   25.501900   30.654300
  H    -48.889600   26.187000   30.663500
  H    -47.182600   26.045000   30.268300
  H    -47.848000   25.303900   31.761000
  H    -53.703700   26.433700   29.517400
  H    -48.918200   20.619700   25.704000

 Total Charge           Charge          ....    0
 Multiplicity           Mult            ....    1
 Number of Electrons    NEL             ....  134
 Basis Dimension        Dim             ....  322

ORBITAL ENERGIES
----------------

  NO   OCC          E(Eh)            E(eV)
   0   2.0000     -88.963471     -2420.8191
   1   2.0000     -88.962585     -2420.7950
   2   2.0000     -10.322314      -280.8844
   3   2.0000     -10.320419      -280.8329
   4   2.0000     -10.317573      -280.7554
   5   2.0000     -10.309754      -280.5427
   6   2.0000     -10.305998      -280.4404
   7   2.0000     -10.299514      -280.2640
   8   2.0000     -10.294572      -280.1295
   9   2.0000     -10.292859      -280.0829
  10   2.0000     -10.290426      -280.0167
  11   2.0000     -10.290281      -280.0128
  12   2.0000     -10.280898      -279.7575
  13   2.0000     -10.280215      -279.7389
  14   2.0000     -10.279360      -279.7156
  15   2.0000     -10.276100      -279.6269
  16   2.0000      -8.078115      -219.8167
  17   2.0000      -8.077759      -219.8070
  18   2.0000      -6.036618      -164.2647
  19   2.0000      -6.036227      -164.2541
  20   2.0000      -6.032803      -164.1609
  21   2.0000      -6.032312      -164.1475
  22   2.0000      -6.028729      -164.0500
  23   2.0000      -6.028435      -164.0420
  24   2.0000      -1.011528       -27.5251
  25   2.0000      -0.983511       -26.7627
  26   2.0000      -0.911515       -24.8036
  27   2.0000      -0.910743       -24.7826
  28   2.0000      -0.871814       -23.7233
  29   2.0000      -0.853664       -23.2294
  30   2.0000      -0.844086       -22.9688
  31   2.0000      -0.815757       -22.1979
  32   2.0000      -0.782224       -21.2854
  33   2.0000      -0.768574       -20.9140
  34   2.0000      -0.705763       -19.2048
  35   2.0000      -0.695811       -18.9340
  36   2.0000      -0.690028       -18.7766
  37   2.0000      -0.660978       -17.9861
  38   2.0000      -0.650156       -17.6916
  39   2.0000      -0.611506       -16.6399
  40   2.0000      -0.595369       -16.2008
  41   2.0000      -0.576406       -15.6848
  42   2.0000      -0.570613       -15.5272
  43   2.0000      -0.554960       -15.1012
  44   2.0000      -0.535481       -14.5712
  45   2.0000      -0.525824       -14.3084
  46   2.0000      -0.518840       -14.1184
  47   2.0000      -0.512633       -13.9495
  48   2.0000      -0.501681       -13.6514
  49   2.0000      -0.499042       -13.5796
  50   2.0000      -0.485756       -13.2181
  51   2.0000      -0.475683       -12.9440
  52   2.0000      -0.474373       -12.9084
  53   2.0000      -0.465099       -12.6560
  54   2.0000      -0.459604       -12.5064
  55   2.0000      -0.443667       -12.0728
  56   2.0000      -0.440912       -11.9978
  57   2.0000      -0.434382       -11.8201
  58   2.0000      -0.431305       -11.7364
  59   2.0000      -0.427970       -11.6457
  60   2.0000      -0.419829       -11.4241
  61   2.0000      -0.413399       -11.2492
  62   2.0000      -0.410456       -11.1691
  63   2.0000      -0.336153        -9.1472
  64   2.0000      -0.335129        -9.1193
  65   2.0000      -0.316475        -8.6117
  66   2.0000      -0.308681        -8.3996
  67   0.0000       0.042787         1.1643
  68   0.0000       0.066194         1.8012
  69   0.0000       0.108455         2.9512
  70   0.0000       0.120357         3.2751
  71   0.0000       0.127565         3.4712

MULLIKEN ATOMIC CHARGES
-----------------------
   0 S :    0.113216
   1 C :   -0.131543
   2 C :   -0.066557
   3 C :    0.037179
   4 C :   -0.156131
   5 H :   -0.011055
   6 C :    0.060705
   7 H :    0.028637
   8 H :    0.022930
   9 C :   -0.071931
  10 H :    0.031789
  11 H :    0.028027
  12 C :   -0.052011
  13 H :    0.026596
  14 H :    0.041538
  15 H :    0.041811
  16 S :    0.102729
  17 C :   -0.128611
  18 C :   -0.001689
  19 C :   -0.010044
  20 C :   -0.178335
  21 H :    0.006464
  22 C :    0.085858
  23 H :    0.026867
  24 H :    0.027167
  25 C :   -0.040645
  26 H :    0.026901
  27 H :    0.029674
  28 C :   -0.093594
  29 H :    0.035156
  30 H :    0.022550
  31 H :    0.039693
  32 H :    0.033104
  33 H :    0.073556
Sum of atomic charges:   -0.0000000

LOEWDIN ATOMIC CHARGES
----------------------
   0 S :    0.409681
   1 C :   -0.202735
   2 C :   -0.054244
   3 C :   -0.055303
   4 C :   -0.194631
   5 H :    0.023651
   6 C :   -0.035895
   7 H :    0.037745
   8 H :    0.031937
   9 C :   -0.048035
  10 H :    0.028897
  11 H :    0.023378
  12 C :   -0.069762
  13 H :    0.022610
  14 H :    0.034627
  15 H :    0.027252
  16 S :    0.385019
  17 C :   -0.169861
  18 C :   -0.062481
  19 C :   -0.047796
  20 C :   -0.207872
  21 H :    0.026583
  22 C :   -0.028417
  23 H :    0.032031
  24 H :    0.032182
  25 C :   -0.042060
  26 H :    0.024773
  27 H :    0.024066
  28 C :   -0.069831
  29 H :    0.022713
  30 H :    0.018708
  31 H :    0.031493
  32 H :    0.015777
  33 H :    0.035801

  Mayer bond orders larger than 0.100000
B(  0-S ,  1-C ) :   1.1309 B(  0-S ,  4-C ) :   1.1456 B(  1-C ,  2-C ) :   1.6068
B(  1-C , 32-H ) :   0.9731 B(  2-C ,  3-C ) :   1.2256 B(  2-C ,  6-C ) :   1.0107
B(  3-C ,  4-C ) :   1.6075 B(  3-C ,  5-H ) :   1.0105 B(  4-C , 20-C ) :   1.0033
B(  6-C ,  7-H ) :   0.9223 B(  6-C ,  8-H ) :   0.9425 B(  6-C ,  9-C ) :   1.0780
B(  9-C , 10-H ) :   0.9516 B(  9-C , 11-H ) :   0.9512 B(  9-C , 12-C ) :   1.0764
B( 12-C , 13-H ) :   0.9733 B( 12-C , 14-H ) :   0.9747 B( 12-C , 15-H ) :   0.9729
B( 16-S , 17-C ) :   1.1217 B( 16-S , 20-C ) :   1.1490 B( 17-C , 18-C ) :   1.6496
B( 17-C , 33-H ) :   0.9649 B( 18-C , 19-C ) :   1.1840 B( 18-C , 21-H ) :   0.9980
B( 19-C , 20-C ) :   1.6327 B( 19-C , 22-C ) :   1.0447 B( 22-C , 23-H ) :   0.9330
B( 22-C , 24-H ) :   0.9279 B( 22-C , 25-C ) :   1.0713 B( 25-C , 26-H ) :   0.9492
B( 25-C , 27-H ) :   0.9554 B( 25-C , 28-C ) :   1.0809 B( 28-C , 29-H ) :   0.9748
B( 28-C , 30-H ) :   0.9747 B( 28-C , 31-H ) :   0.9746

Dispersion correction           -0.014683748
FINAL SINGLE POINT ENERGY     -1339.877445402792

DIPOLE MOMENT
-------------
                                X             Y             Z
Electronic contribution:     -2.85545     -22.29546      -5.80569
Nuclear contribution   :      2.93019      22.58909       5.64655
                        -----------------------------------------
Total Dipole Moment    :      0.07474       0.29362      -0.15914
                        -----------------------------------------
Magnitude (a.u.)       :      0.34223
Magnitude (Debye)      :      0.86989

Rotational constants in cm-1:     0.019778     0.008592     0.006838
Rotational constants in MHz :   592.916186   257.570486   205.009188

                             ****ORCA TERMINATED NORMALLY****
TOTAL RUN TIME: 0 days 0 hours 0 minutes 21 seconds 564 msec
