                         Program Version 4.2.1 -  RELEASE  -
|  1> ! wB97X-D3 SP def2-SVP
|  2> %pal
|  3> nprocs 24
|  4> end
|  5>
|  6> * xyz 0 1
|  7> S 	 -96.8398 	 -0.182637 	 -102.285
|  8> C 	 -97.3122 	 0.508195 	 -100.822
|  9> C 	 -98.0027 	 1.71576 	 -100.942
| 10> C 	 -97.8821 	 2.17259 	 -102.246
| 11> C 	 -97.2906 	 1.20847 	 -103.069
| 12> H 	 -98.316 	 3.0742 	 -102.712
| 13> C 	 -98.6943 	 2.45497 	 -99.8692
| 14> H 	 -97.9505 	 3.02298 	 -99.3537
| 15> H 	 -99.1957 	 1.78957 	 -99.1631
| 16> C 	 -99.7332 	 3.48164 	 -100.374
| 17> H 	 -99.2996 	 4.1817 	 -101.111
| 18> H 	 -100.609 	 3.00865 	 -100.823
| 19> C 	 -100.156 	 4.43592 	 -99.2714
| 20> H 	 -100.407 	 3.77977 	 -98.4349
| 21> H 	 -99.5133 	 5.22589 	 -98.849
| 22> H 	 -101.113 	 4.9507 	 -99.576
| 23> S 	 -96.9259 	 0.0434399 	 -105.538
| 24> C 	 -96.679 	 1.05316 	 -106.909
| 25> C 	 -96.7694 	 2.42593 	 -106.562
| 26> C 	 -96.7136 	 2.59447 	 -105.159
| 27> C 	 -96.9804 	 1.41781 	 -104.491
| 28> H 	 -96.7831 	 3.1813 	 -107.359
| 29> C 	 -96.6898 	 3.95822 	 -104.543
| 30> H 	 -95.8185 	 4.50045 	 -104.964
| 31> H 	 -96.4685 	 3.93451 	 -103.484
| 32> C 	 -97.8023 	 4.8285 	 -104.961
| 33> H 	 -98.6981 	 4.31189 	 -104.884
| 34> H 	 -97.6823 	 4.99008 	 -106.036
| 35> C 	 -97.8308 	 6.15328 	 -104.162
| 36> H 	 -97.0381 	 6.71357 	 -104.453
| 37> H 	 -97.6108 	 5.95044 	 -103.122
| 38> H 	 -98.7219 	 6.73113 	 -104.418
| 39> H 	 -97.1064 	 -0.0705193 	 -99.9249
| 40> H 	 -96.6141 	 0.727431 	 -107.92
| 41> *
| 42>
| 43>                          ****END OF INPUT****

CARTESIAN COORDINATES (ANGSTROEM)
---------------------------------
  S    -96.839800   -0.182637  -102.285000
  C    -97.312200    0.508195  -100.822000
  C    -98.002700    1.715760  -100.942000
  C    -97.882100    2.172590  -102.246000
  C    -97.290600    1.208470  -103.069000
  H    -98.316000    3.074200  -102.712000
  C    -98.694300    2.454970  -99.869200
  H    -97.950500    3.022980  -99.353700
  H    -99.195700    1.789570  -99.163100
  C    -99.733200    3.481640  -100.374000
  H    -99.299600    4.181700  -101.111000
  H    -100.609000    3.008650  -100.823000
  C    -100.156000    4.435920  -99.271400
  H    -100.407000    3.779770  -98.434900
  H    -99.513300    5.225890  -98.849000
  H    -101.113000    4.950700  -99.576000
  S    -96.925900    0.043440  -105.538000
  C    -96.679000    1.053160  -106.909000
  C    -96.769400    2.425930  -106.562000
  C    -96.713600    2.594470  -105.159000
  C    -96.980400    1.417810  -104.491000
  H    -96.783100    3.181300  -107.359000
  C    -96.689800    3.958220  -104.543000
  H    -95.818500    4.500450  -104.964000
  H    -96.468500    3.934510  -103.484000
  C    -97.802300    4.828500  -104.961000
  H    -98.698100    4.311890  -104.884000
  H    -97.682300    4.990080  -106.036000
  C    -97.830800    6.153280  -104.162000
  H    -97.038100    6.713570  -104.453000
  H    -97.610800    5.950440  -103.122000
  H    -98.721900    6.731130  -104.418000
  H    -97.106400   -0.070519  -99.924900
  H    -96.614100    0.727431  -107.920000

 Total Charge           Charge          ....    0
 Multiplicity           Mult            ....    1
 Number of Electrons    NEL             ....  134
 Basis Dimension        Dim             ....  322

ORBITAL ENERGIES
----------------

  NO   OCC          E(Eh)            E(eV)
   0   2.0000     -88.968084     -2420.9447
   1   2.0000     -88.965036     -2420.8617
   2   2.0000     -10.319907      -280.8190
   3   2.0000     -10.318067      -280.7689
   4   2.0000     -10.312377      -280.6140
   5   2.0000     -10.304818      -280.4083
   6   2.0000     -10.296493      -280.1818
   7   2.0000     -10.295268      -280.1485
   8   2.0000     -10.294904      -280.1386
   9   2.0000     -10.289531      -279.9924
  10   2.0000     -10.289466      -279.9906
  11   2.0000     -10.287876      -279.9473
  12   2.0000     -10.281580      -279.7760
  13   2.0000     -10.281548      -279.7751
  14   2.0000     -10.276454      -279.6365
  15   2.0000     -10.272347      -279.5248
  16   2.0000      -8.085776      -220.0252
  17   2.0000      -8.080569      -219.8835
  18   2.0000      -6.043716      -164.4579
  19   2.0000      -6.039935      -164.3550
  20   2.0000      -6.038966      -164.3286
  21   2.0000      -6.036918      -164.2729
  22   2.0000      -6.034995      -164.2206
  23   2.0000      -6.031422      -164.1233
  24   2.0000      -1.021681       -27.8014
  25   2.0000      -0.993493       -27.0343
  26   2.0000      -0.923782       -25.1374
  27   2.0000      -0.919775       -25.0283
  28   2.0000      -0.867817       -23.6145
  29   2.0000      -0.860227       -23.4080
  30   2.0000      -0.851012       -23.1572
  31   2.0000      -0.810432       -22.0530
  32   2.0000      -0.786341       -21.3974
  33   2.0000      -0.772929       -21.0325
  34   2.0000      -0.710661       -19.3381
  35   2.0000      -0.703904       -19.1542
  36   2.0000      -0.687757       -18.7148
  37   2.0000      -0.661389       -17.9973
  38   2.0000      -0.639883       -17.4121
  39   2.0000      -0.627719       -17.0811
  40   2.0000      -0.601668       -16.3722
  41   2.0000      -0.575035       -15.6475
  42   2.0000      -0.570864       -15.5340
  43   2.0000      -0.564830       -15.3698
  44   2.0000      -0.534643       -14.5484
  45   2.0000      -0.525089       -14.2884
  46   2.0000      -0.519133       -14.1263
  47   2.0000      -0.509775       -13.8717
  48   2.0000      -0.504111       -13.7176
  49   2.0000      -0.500149       -13.6098
  50   2.0000      -0.487721       -13.2716
  51   2.0000      -0.484005       -13.1704
  52   2.0000      -0.472405       -12.8548
  53   2.0000      -0.466977       -12.7071
  54   2.0000      -0.463922       -12.6240
  55   2.0000      -0.458692       -12.4816
  56   2.0000      -0.450254       -12.2520
  57   2.0000      -0.445826       -12.1316
  58   2.0000      -0.439583       -11.9617
  59   2.0000      -0.427715       -11.6387
  60   2.0000      -0.419742       -11.4218
  61   2.0000      -0.413900       -11.2628
  62   2.0000      -0.411663       -11.2019
  63   2.0000      -0.348722        -9.4892
  64   2.0000      -0.338079        -9.1996
  65   2.0000      -0.328578        -8.9411
  66   2.0000      -0.275086        -7.4855
  67   0.0000       0.029590         0.8052
  68   0.0000       0.081902         2.2287
  69   0.0000       0.105165         2.8617
  70   0.0000       0.123890         3.3712
  71   0.0000       0.124675         3.3926

MULLIKEN ATOMIC CHARGES
-----------------------
   0 S :    0.143031
   1 C :   -0.155321
   2 C :   -0.041876
   3 C :   -0.047612
   4 C :   -0.122074
   5 H :    0.021374
   6 C :    0.107773
   7 H :    0.031289
   8 H :    0.031086
   9 C :   -0.110494
  10 H :    0.040338
  11 H :    0.044137
  12 C :   -0.074908
  13 H :    0.017730
  14 H :    0.045685
  15 H :    0.036839
  16 S :    0.107660
  17 C :   -0.083561
  18 C :   -0.065528
  19 C :   -0.041630
  20 C :   -0.121236
  21 H :    0.030469
  22 C :    0.026329
  23 H :    0.016343
  24 H :    0.025685
  25 C :   -0.073070
  26 H :    0.013314
  27 H :    0.023396
  28 C :    0.026559
  29 H :   -0.004204
  30 H :    0.023392
  31 H :    0.042132
  32 H :    0.041444
  33 H :    0.045510
Sum of atomic charges:    0.0000000

LOEWDIN ATOMIC CHARGES
----------------------
   0 S :    0.479771
   1 C :   -0.223700
   2 C :   -0.062191
   3 C :   -0.072051
   4 C :   -0.221372
   5 H :    0.037183
   6 C :   -0.028849
   7 H :    0.035256
   8 H :    0.033353
   9 C :   -0.041574
  10 H :    0.025554
  11 H :    0.029060
  12 C :   -0.075621
  13 H :    0.020612
  14 H :    0.027578
  15 H :    0.032632
  16 S :    0.418057
  17 C :   -0.196104
  18 C :   -0.066217
  19 C :   -0.062118
  20 C :   -0.200662
  21 H :    0.033035
  22 C :   -0.041193
  23 H :    0.034555
  24 H :    0.025229
  25 C :   -0.036088
  26 H :    0.008984
  27 H :    0.025195
  28 C :   -0.051825
  29 H :    0.012129
  30 H :    0.026028
  31 H :    0.032490
  32 H :    0.020955
  33 H :    0.021906

  Mayer bond orders larger than 0.100000
B(  0-S ,  1-C ) :   1.1825 B(  0-S ,  4-C ) :   1.2082 B(  1-C ,  2-C ) :   1.5282
B(  1-C ,  4-C ) :   0.1029 B(  1-C , 32-H ) :   0.9769 B(  2-C ,  3-C ) :   1.2987
B(  2-C ,  6-C ) :   1.0244 B(  3-C ,  4-C ) :   1.5048 B(  3-C ,  5-H ) :   0.9846
B(  4-C , 20-C ) :   1.0375 B(  6-C ,  7-H ) :   0.9247 B(  6-C ,  8-H ) :   0.9332
B(  6-C ,  9-C ) :   1.0842 B(  9-C , 10-H ) :   0.9444 B(  9-C , 11-H ) :   0.9562
B(  9-C , 12-C ) :   1.0803 B( 12-C , 13-H ) :   0.9711 B( 12-C , 14-H ) :   0.9771
B( 12-C , 15-H ) :   0.9719 B( 16-S , 17-C ) :   1.1658 B( 16-S , 20-C ) :   1.1408
B( 17-C , 18-C ) :   1.5932 B( 17-C , 20-C ) :   0.1020 B( 17-C , 33-H ) :   0.9727
B( 18-C , 19-C ) :   1.2386 B( 18-C , 21-H ) :   0.9860 B( 19-C , 20-C ) :   1.5836
B( 19-C , 22-C ) :   1.0632 B( 22-C , 23-H ) :   0.9140 B( 22-C , 24-H ) :   0.9390
B( 22-C , 25-C ) :   1.0607 B( 25-C , 26-H ) :   0.9570 B( 25-C , 27-H ) :   0.9432
B( 25-C , 28-C ) :   1.0796 B( 28-C , 29-H ) :   0.9664 B( 28-C , 30-H ) :   0.9716
B( 28-C , 31-H ) :   0.9720

Dispersion correction           -0.014442223
FINAL SINGLE POINT ENERGY     -1339.864450780730

DIPOLE MOMENT
-------------
                                X             Y             Z
Electronic contribution:     11.76995     -29.63529     -11.38240
Nuclear contribution   :    -11.97955      30.23405      11.54700
                        -----------------------------------------
Total Dipole Moment    :     -0.20961       0.59876       0.16460
                        -----------------------------------------
Magnitude (a.u.)       :      0.65540
Magnitude (Debye)      :      1.66588

Rotational constants in cm-1:     0.017452     0.010281     0.006828
Rotational constants in MHz :   523.185957   308.213629   204.707431

                             ****ORCA TERMINATED NORMALLY****
TOTAL RUN TIME: 0 days 0 hours 0 minutes 21 seconds 616 msec
