                         Program Version 4.2.1 -  RELEASE  -
|  1> ! wB97X-D3 SP def2-SVP
|  2> %pal
|  3> nprocs 24
|  4> end
|  5>
|  6> * xyz 0 1
|  7> S 	 -135.991 	 13.5622 	 -5.73853
|  8> C 	 -134.689 	 14.3955 	 -5.08751
|  9> C 	 -133.915 	 13.5372 	 -4.33186
| 10> C 	 -134.351 	 12.1432 	 -4.46874
| 11> C 	 -135.347 	 11.9911 	 -5.43076
| 12> H 	 -134.006 	 11.3248 	 -3.98966
| 13> C 	 -132.653 	 13.8449 	 -3.55542
| 14> H 	 -132.909 	 14.0543 	 -2.5106
| 15> H 	 -132.163 	 14.7101 	 -4.04539
| 16> C 	 -131.507 	 12.8144 	 -3.76833
| 17> H 	 -130.711 	 13.2034 	 -3.06664
| 18> H 	 -131.74 	 11.7769 	 -3.55425
| 19> C 	 -131.049 	 12.9754 	 -5.19874
| 20> H 	 -131.914 	 13.0347 	 -5.82794
| 21> H 	 -130.486 	 13.9314 	 -5.38664
| 22> H 	 -130.414 	 12.1802 	 -5.46783
| 23> S 	 -137.401 	 10.3577 	 -5.29982
| 24> C 	 -137.426 	 8.83086 	 -6.12138
| 25> C 	 -136.247 	 8.62998 	 -6.77348
| 26> C 	 -135.343 	 9.79529 	 -6.69838
| 27> C 	 -135.934 	 10.7959 	 -5.9825
| 28> H 	 -135.976 	 7.69951 	 -7.2647
| 29> C 	 -133.916 	 9.71883 	 -7.11807
| 30> H 	 -133.436 	 8.84617 	 -6.53602
| 31> H 	 -133.479 	 10.7413 	 -6.86272
| 32> C 	 -133.796 	 9.33253 	 -8.55502
| 33> H 	 -134.347 	 10.0868 	 -9.11137
| 34> H 	 -134.186 	 8.37262 	 -8.60823
| 35> C 	 -132.365 	 9.28351 	 -9.16558
| 36> H 	 -131.854 	 10.2366 	 -8.99917
| 37> H 	 -132.532 	 9.13274 	 -10.1787
| 38> H 	 -131.683 	 8.50567 	 -8.78103
| 39> H 	 -134.7 	 15.5595 	 -4.97519
| 40> H 	 -138.234 	 8.11183 	 -5.91852
| 41> *
| 42>
| 43>                          ****END OF INPUT****

CARTESIAN COORDINATES (ANGSTROEM)
---------------------------------
  S    -135.991000   13.562200   -5.738530
  C    -134.689000   14.395500   -5.087510
  C    -133.915000   13.537200   -4.331860
  C    -134.351000   12.143200   -4.468740
  C    -135.347000   11.991100   -5.430760
  H    -134.006000   11.324800   -3.989660
  C    -132.653000   13.844900   -3.555420
  H    -132.909000   14.054300   -2.510600
  H    -132.163000   14.710100   -4.045390
  C    -131.507000   12.814400   -3.768330
  H    -130.711000   13.203400   -3.066640
  H    -131.740000   11.776900   -3.554250
  C    -131.049000   12.975400   -5.198740
  H    -131.914000   13.034700   -5.827940
  H    -130.486000   13.931400   -5.386640
  H    -130.414000   12.180200   -5.467830
  S    -137.401000   10.357700   -5.299820
  C    -137.426000    8.830860   -6.121380
  C    -136.247000    8.629980   -6.773480
  C    -135.343000    9.795290   -6.698380
  C    -135.934000   10.795900   -5.982500
  H    -135.976000    7.699510   -7.264700
  C    -133.916000    9.718830   -7.118070
  H    -133.436000    8.846170   -6.536020
  H    -133.479000   10.741300   -6.862720
  C    -133.796000    9.332530   -8.555020
  H    -134.347000   10.086800   -9.111370
  H    -134.186000    8.372620   -8.608230
  C    -132.365000    9.283510   -9.165580
  H    -131.854000   10.236600   -8.999170
  H    -132.532000    9.132740  -10.178700
  H    -131.683000    8.505670   -8.781030
  H    -134.700000   15.559500   -4.975190
  H    -138.234000    8.111830   -5.918520

 Total Charge           Charge          ....    0
 Multiplicity           Mult            ....    1
 Number of Electrons    NEL             ....  134
 Basis Dimension        Dim             ....  322

ORBITAL ENERGIES
----------------

  NO   OCC          E(Eh)            E(eV)
   0   2.0000     -88.960083     -2420.7269
   1   2.0000     -88.958633     -2420.6875
   2   2.0000     -10.324399      -280.9412
   3   2.0000     -10.317810      -280.7619
   4   2.0000     -10.316271      -280.7200
   5   2.0000     -10.315954      -280.7114
   6   2.0000     -10.302040      -280.3328
   7   2.0000     -10.300764      -280.2980
   8   2.0000     -10.297267      -280.2029
   9   2.0000     -10.295239      -280.1477
  10   2.0000     -10.292667      -280.0777
  11   2.0000     -10.289654      -279.9957
  12   2.0000     -10.288774      -279.9718
  13   2.0000     -10.277798      -279.6731
  14   2.0000     -10.273516      -279.5566
  15   2.0000     -10.270146      -279.4649
  16   2.0000      -8.077157      -219.7906
  17   2.0000      -8.075587      -219.7479
  18   2.0000      -6.035589      -164.2367
  19   2.0000      -6.033950      -164.1921
  20   2.0000      -6.031354      -164.1215
  21   2.0000      -6.029734      -164.0774
  22   2.0000      -6.027809      -164.0250
  23   2.0000      -6.026397      -163.9866
  24   2.0000      -1.019072       -27.7304
  25   2.0000      -0.993980       -27.0476
  26   2.0000      -0.917630       -24.9700
  27   2.0000      -0.915740       -24.9185
  28   2.0000      -0.877359       -23.8742
  29   2.0000      -0.850477       -23.1427
  30   2.0000      -0.842703       -22.9311
  31   2.0000      -0.817495       -22.2452
  32   2.0000      -0.781447       -21.2643
  33   2.0000      -0.770670       -20.9710
  34   2.0000      -0.707884       -19.2625
  35   2.0000      -0.696540       -18.9538
  36   2.0000      -0.684865       -18.6361
  37   2.0000      -0.659989       -17.9592
  38   2.0000      -0.645982       -17.5781
  39   2.0000      -0.622302       -16.9337
  40   2.0000      -0.597494       -16.2586
  41   2.0000      -0.578012       -15.7285
  42   2.0000      -0.567427       -15.4405
  43   2.0000      -0.562641       -15.3102
  44   2.0000      -0.539040       -14.6680
  45   2.0000      -0.528567       -14.3830
  46   2.0000      -0.517497       -14.0818
  47   2.0000      -0.513426       -13.9710
  48   2.0000      -0.502975       -13.6866
  49   2.0000      -0.502456       -13.6725
  50   2.0000      -0.493702       -13.4343
  51   2.0000      -0.484986       -13.1971
  52   2.0000      -0.466861       -12.7039
  53   2.0000      -0.460733       -12.5372
  54   2.0000      -0.457050       -12.4370
  55   2.0000      -0.448353       -12.2003
  56   2.0000      -0.439961       -11.9720
  57   2.0000      -0.437434       -11.9032
  58   2.0000      -0.433516       -11.7966
  59   2.0000      -0.426360       -11.6019
  60   2.0000      -0.424411       -11.5488
  61   2.0000      -0.414835       -11.2882
  62   2.0000      -0.407988       -11.1019
  63   2.0000      -0.343554        -9.3486
  64   2.0000      -0.321632        -8.7520
  65   2.0000      -0.321140        -8.7387
  66   2.0000      -0.306184        -8.3317
  67   0.0000       0.043604         1.1865
  68   0.0000       0.064184         1.7465
  69   0.0000       0.107131         2.9152
  70   0.0000       0.118218         3.2169
  71   0.0000       0.137711         3.7473

MULLIKEN ATOMIC CHARGES
-----------------------
   0 S :    0.118221
   1 C :   -0.131875
   2 C :   -0.135991
   3 C :    0.098738
   4 C :   -0.207250
   5 H :   -0.033375
   6 C :    0.052758
   7 H :    0.048055
   8 H :    0.021169
   9 C :   -0.094938
  10 H :    0.039789
  11 H :    0.037790
  12 C :   -0.051432
  13 H :    0.044161
  14 H :    0.033040
  15 H :    0.026168
  16 S :    0.109131
  17 C :   -0.095078
  18 C :   -0.034484
  19 C :   -0.044509
  20 C :   -0.141631
  21 H :    0.023932
  22 C :    0.043357
  23 H :    0.043320
  24 H :    0.047670
  25 C :   -0.100503
  26 H :    0.034027
  27 H :    0.014575
  28 C :   -0.006569
  29 H :    0.027155
  30 H :    0.024541
  31 H :    0.030046
  32 H :    0.089999
  33 H :    0.069994
Sum of atomic charges:    0.0000000

LOEWDIN ATOMIC CHARGES
----------------------
   0 S :    0.440960
   1 C :   -0.239980
   2 C :   -0.073966
   3 C :   -0.044537
   4 C :   -0.206118
   5 H :    0.010019
   6 C :   -0.036408
   7 H :    0.031564
   8 H :    0.035146
   9 C :   -0.041516
  10 H :    0.032485
  11 H :    0.018476
  12 C :   -0.064661
  13 H :    0.023463
  14 H :    0.031022
  15 H :    0.018688
  16 S :    0.438866
  17 C :   -0.189603
  18 C :   -0.069010
  19 C :   -0.055436
  20 C :   -0.231827
  21 H :    0.029593
  22 C :   -0.041198
  23 H :    0.041405
  24 H :    0.037642
  25 C :   -0.036460
  26 H :    0.028734
  27 H :    0.013206
  28 C :   -0.059227
  29 H :    0.025695
  30 H :    0.018923
  31 H :    0.025564
  32 H :    0.053768
  33 H :    0.034727

  Mayer bond orders larger than 0.100000
B(  0-S ,  1-C ) :   1.1647 B(  0-S ,  4-C ) :   1.1771 B(  1-C ,  2-C ) :   1.5919
B(  1-C , 32-H ) :   0.9542 B(  2-C ,  3-C ) :   1.2379 B(  2-C ,  6-C ) :   1.0186
B(  3-C ,  4-C ) :   1.5491 B(  3-C ,  5-H ) :   1.0200 B(  4-C , 20-C ) :   0.9933
B(  6-C ,  7-H ) :   0.9358 B(  6-C ,  8-H ) :   0.9517 B(  6-C ,  9-C ) :   1.0644
B(  9-C , 10-H ) :   0.9553 B(  9-C , 11-H ) :   0.9558 B(  9-C , 12-C ) :   1.0747
B( 12-C , 13-H ) :   0.9755 B( 12-C , 14-H ) :   0.9671 B( 12-C , 15-H ) :   0.9732
B( 16-S , 17-C ) :   1.1512 B( 16-S , 20-C ) :   1.1738 B( 17-C , 18-C ) :   1.6202
B( 17-C , 33-H ) :   0.9686 B( 18-C , 19-C ) :   1.2071 B( 18-C , 21-H ) :   0.9893
B( 19-C , 20-C ) :   1.6206 B( 19-C , 22-C ) :   1.0613 B( 22-C , 23-H ) :   0.9310
B( 22-C , 24-H ) :   0.9270 B( 22-C , 25-C ) :   1.0614 B( 25-C , 26-H ) :   0.9569
B( 25-C , 27-H ) :   0.9549 B( 25-C , 28-C ) :   1.0902 B( 28-C , 29-H ) :   0.9733
B( 28-C , 30-H ) :   0.9742 B( 28-C , 31-H ) :   0.9725

Dispersion correction           -0.014740019
FINAL SINGLE POINT ENERGY     -1339.855452656886

DIPOLE MOMENT
-------------
                                X             Y             Z
Electronic contribution:    -28.27369       4.10376       6.33700
Nuclear contribution   :     28.81985      -4.43852      -6.19267
                        -----------------------------------------
Total Dipole Moment    :      0.54616      -0.33475       0.14433
                        -----------------------------------------
Magnitude (a.u.)       :      0.65664
Magnitude (Debye)      :      1.66906

Rotational constants in cm-1:     0.016420     0.010459     0.007436
Rotational constants in MHz :   492.252890   313.566649   222.928506

                             ****ORCA TERMINATED NORMALLY****
TOTAL RUN TIME: 0 days 0 hours 0 minutes 22 seconds 440 msec
