                         Program Version 4.2.1 -  RELEASE  -
|  1> ! wB97X-D3 SP def2-SVP
|  2> %pal
|  3> nprocs 24
|  4> end
|  5>
|  6> * xyz 0 1
|  7> S 	 -108.872 	 42.1229 	 -9.77261
|  8> C 	 -108.702 	 42.4693 	 -8.06982
|  9> C 	 -109.807 	 43.1954 	 -7.53279
| 10> C 	 -110.768 	 43.462 	 -8.53667
| 11> C 	 -110.354 	 43.1989 	 -9.80649
| 12> H 	 -111.701 	 44.0172 	 -8.31572
| 13> C 	 -110.077 	 43.5019 	 -6.01037
| 14> H 	 -109.388 	 42.7411 	 -5.54042
| 15> H 	 -111.149 	 43.3143 	 -5.84069
| 16> C 	 -109.503 	 44.8778 	 -5.50749
| 17> H 	 -109.271 	 44.8329 	 -4.4445
| 18> H 	 -108.559 	 45.018 	 -6.05008
| 19> C 	 -110.459 	 46.0652 	 -5.79963
| 20> H 	 -110.139 	 47.0882 	 -5.62033
| 21> H 	 -111.006 	 46.0277 	 -6.69013
| 22> H 	 -111.204 	 46.0986 	 -5.05235
| 23> S 	 -111.448 	 41.9461 	 -12.0471
| 24> C 	 -111.965 	 42.8568 	 -13.3913
| 25> C 	 -112.397 	 44.1299 	 -12.9463
| 26> C 	 -111.788 	 44.4277 	 -11.6284
| 27> C 	 -111.099 	 43.3623 	 -11.0553
| 28> H 	 -112.943 	 44.7591 	 -13.6327
| 29> C 	 -111.835 	 45.8514 	 -11.0364
| 30> H 	 -111.52 	 45.7251 	 -10.0086
| 31> H 	 -112.851 	 46.136 	 -11.0643
| 32> C 	 -111.05 	 46.9454 	 -11.7318
| 33> H 	 -111.413 	 47.1045 	 -12.7493
| 34> H 	 -110.098 	 46.5385 	 -11.8923
| 35> C 	 -110.867 	 48.3482 	 -11.0266
| 36> H 	 -109.935 	 48.695 	 -11.4547
| 37> H 	 -110.655 	 48.0456 	 -10.0502
| 38> H 	 -111.634 	 49.1227 	 -11.1215
| 39> H 	 -107.813 	 42.2724 	 -7.46743
| 40> H 	 -112.124 	 42.4954 	 -14.3936
| 41> *
| 42>
| 43>                          ****END OF INPUT****

CARTESIAN COORDINATES (ANGSTROEM)
---------------------------------
  S    -108.872000   42.122900   -9.772610
  C    -108.702000   42.469300   -8.069820
  C    -109.807000   43.195400   -7.532790
  C    -110.768000   43.462000   -8.536670
  C    -110.354000   43.198900   -9.806490
  H    -111.701000   44.017200   -8.315720
  C    -110.077000   43.501900   -6.010370
  H    -109.388000   42.741100   -5.540420
  H    -111.149000   43.314300   -5.840690
  C    -109.503000   44.877800   -5.507490
  H    -109.271000   44.832900   -4.444500
  H    -108.559000   45.018000   -6.050080
  C    -110.459000   46.065200   -5.799630
  H    -110.139000   47.088200   -5.620330
  H    -111.006000   46.027700   -6.690130
  H    -111.204000   46.098600   -5.052350
  S    -111.448000   41.946100  -12.047100
  C    -111.965000   42.856800  -13.391300
  C    -112.397000   44.129900  -12.946300
  C    -111.788000   44.427700  -11.628400
  C    -111.099000   43.362300  -11.055300
  H    -112.943000   44.759100  -13.632700
  C    -111.835000   45.851400  -11.036400
  H    -111.520000   45.725100  -10.008600
  H    -112.851000   46.136000  -11.064300
  C    -111.050000   46.945400  -11.731800
  H    -111.413000   47.104500  -12.749300
  H    -110.098000   46.538500  -11.892300
  C    -110.867000   48.348200  -11.026600
  H    -109.935000   48.695000  -11.454700
  H    -110.655000   48.045600  -10.050200
  H    -111.634000   49.122700  -11.121500
  H    -107.813000   42.272400   -7.467430
  H    -112.124000   42.495400  -14.393600

 Total Charge           Charge          ....    0
 Multiplicity           Mult            ....    1
 Number of Electrons    NEL             ....  134
 Basis Dimension        Dim             ....  322

ORBITAL ENERGIES
----------------

  NO   OCC          E(Eh)            E(eV)
   0   2.0000     -88.971799     -2421.0457
   1   2.0000     -88.959484     -2420.7106
   2   2.0000     -10.336074      -281.2589
   3   2.0000     -10.326964      -281.0110
   4   2.0000     -10.322778      -280.8971
   5   2.0000     -10.316721      -280.7323
   6   2.0000     -10.310266      -280.5566
   7   2.0000     -10.308006      -280.4951
   8   2.0000     -10.307788      -280.4892
   9   2.0000     -10.300239      -280.2838
  10   2.0000     -10.299025      -280.2507
  11   2.0000     -10.296290      -280.1763
  12   2.0000     -10.283188      -279.8198
  13   2.0000     -10.277558      -279.6666
  14   2.0000     -10.275034      -279.5979
  15   2.0000     -10.271090      -279.4906
  16   2.0000      -8.085118      -220.0072
  17   2.0000      -8.075058      -219.7335
  18   2.0000      -6.043627      -164.4555
  19   2.0000      -6.039985      -164.3563
  20   2.0000      -6.035777      -164.2419
  21   2.0000      -6.033605      -164.1827
  22   2.0000      -6.029602      -164.0738
  23   2.0000      -6.025558      -163.9638
  24   2.0000      -1.001892       -27.2629
  25   2.0000      -0.979798       -26.6617
  26   2.0000      -0.905061       -24.6280
  27   2.0000      -0.902423       -24.5562
  28   2.0000      -0.866722       -23.5847
  29   2.0000      -0.850440       -23.1417
  30   2.0000      -0.841740       -22.9049
  31   2.0000      -0.813913       -22.1477
  32   2.0000      -0.783695       -21.3254
  33   2.0000      -0.772078       -21.0093
  34   2.0000      -0.708063       -19.2674
  35   2.0000      -0.703287       -19.1374
  36   2.0000      -0.694714       -18.9041
  37   2.0000      -0.658000       -17.9051
  38   2.0000      -0.637165       -17.3381
  39   2.0000      -0.618611       -16.8333
  40   2.0000      -0.586708       -15.9651
  41   2.0000      -0.568607       -15.4726
  42   2.0000      -0.566003       -15.4017
  43   2.0000      -0.550664       -14.9843
  44   2.0000      -0.543220       -14.7818
  45   2.0000      -0.522730       -14.2242
  46   2.0000      -0.515420       -14.0253
  47   2.0000      -0.509162       -13.8550
  48   2.0000      -0.503696       -13.7063
  49   2.0000      -0.499544       -13.5933
  50   2.0000      -0.493230       -13.4215
  51   2.0000      -0.478479       -13.0201
  52   2.0000      -0.472937       -12.8693
  53   2.0000      -0.465509       -12.6671
  54   2.0000      -0.458301       -12.4710
  55   2.0000      -0.446644       -12.1538
  56   2.0000      -0.444069       -12.0837
  57   2.0000      -0.435921       -11.8620
  58   2.0000      -0.432501       -11.7690
  59   2.0000      -0.431032       -11.7290
  60   2.0000      -0.415994       -11.3198
  61   2.0000      -0.412023       -11.2117
  62   2.0000      -0.407771       -11.0960
  63   2.0000      -0.349743        -9.5170
  64   2.0000      -0.330568        -8.9952
  65   2.0000      -0.319362        -8.6903
  66   2.0000      -0.289585        -7.8800
  67   0.0000       0.018958         0.5159
  68   0.0000       0.062384         1.6976
  69   0.0000       0.093356         2.5404
  70   0.0000       0.117062         3.1854
  71   0.0000       0.128498         3.4966

MULLIKEN ATOMIC CHARGES
-----------------------
   0 S :    0.115475
   1 C :   -0.113739
   2 C :   -0.125360
   3 C :    0.045073
   4 C :   -0.172298
   5 H :    0.036897
   6 C :    0.026953
   7 H :    0.035352
   8 H :    0.047152
   9 C :   -0.044175
  10 H :    0.038367
  11 H :    0.034274
  12 C :   -0.019691
  13 H :    0.024690
  14 H :    0.014825
  15 H :    0.001951
  16 S :    0.099490
  17 C :   -0.099708
  18 C :   -0.031829
  19 C :   -0.085421
  20 C :   -0.131131
  21 H :    0.023786
  22 C :    0.119426
  23 H :    0.000964
  24 H :    0.014636
  25 C :   -0.080192
  26 H :    0.016173
  27 H :    0.015039
  28 C :   -0.015427
  29 H :    0.028599
  30 H :    0.014521
  31 H :    0.047873
  32 H :    0.056569
  33 H :    0.060883
Sum of atomic charges:   -0.0000000

LOEWDIN ATOMIC CHARGES
----------------------
   0 S :    0.386019
   1 C :   -0.198031
   2 C :   -0.066775
   3 C :   -0.058233
   4 C :   -0.172933
   5 H :    0.038826
   6 C :   -0.028192
   7 H :    0.039747
   8 H :    0.033661
   9 C :   -0.035091
  10 H :    0.025613
  11 H :    0.027159
  12 C :   -0.072789
  13 H :    0.029719
  14 H :    0.015551
  15 H :    0.021717
  16 S :    0.405636
  17 C :   -0.191529
  18 C :   -0.071272
  19 C :   -0.050151
  20 C :   -0.202734
  21 H :    0.028937
  22 C :   -0.031520
  23 H :    0.023099
  24 H :    0.025136
  25 C :   -0.037970
  26 H :    0.019873
  27 H :    0.018630
  28 C :   -0.056210
  29 H :    0.030940
  30 H :    0.017501
  31 H :    0.026792
  32 H :    0.029984
  33 H :    0.028891

  Mayer bond orders larger than 0.100000
B(  0-S ,  1-C ) :   1.1543 B(  0-S ,  4-C ) :   1.1247 B(  1-C ,  2-C ) :   1.6045
B(  1-C ,  4-C ) :   0.1081 B(  1-C , 32-H ) :   0.9590 B(  2-C ,  3-C ) :   1.2583
B(  2-C ,  6-C ) :   1.0064 B(  3-C ,  4-C ) :   1.5802 B(  3-C ,  5-H ) :   0.9736
B(  4-C , 20-C ) :   1.0559 B(  6-C ,  7-H ) :   0.9409 B(  6-C ,  8-H ) :   0.9541
B(  6-C ,  9-C ) :   1.0520 B(  9-C , 10-H ) :   0.9616 B(  9-C , 11-H ) :   0.9581
B(  9-C , 12-C ) :   1.0641 B( 12-C , 13-H ) :   0.9719 B( 12-C , 14-H ) :   0.9808
B( 12-C , 15-H ) :   0.9679 B( 16-S , 17-C ) :   1.1685 B( 16-S , 20-C ) :   1.1258
B( 17-C , 18-C ) :   1.5964 B( 17-C , 33-H ) :   0.9716 B( 18-C , 19-C ) :   1.2105
B( 18-C , 21-H ) :   0.9950 B( 19-C , 20-C ) :   1.6059 B( 19-C , 22-C ) :   1.0522
B( 22-C , 23-H ) :   0.9253 B( 22-C , 24-H ) :   0.9272 B( 22-C , 25-C ) :   1.0770
B( 25-C , 26-H ) :   0.9509 B( 25-C , 27-H ) :   0.9554 B( 25-C , 28-C ) :   1.0713
B( 28-C , 29-H ) :   0.9752 B( 28-C , 30-H ) :   0.9754 B( 28-C , 31-H ) :   0.9795

Dispersion correction           -0.013962200
FINAL SINGLE POINT ENERGY     -1339.838666283346

DIPOLE MOMENT
-------------
                                X             Y             Z
Electronic contribution:      2.19761     -27.04964     -15.01376
Nuclear contribution   :     -2.35411      27.58182      15.39406
                        -----------------------------------------
Total Dipole Moment    :     -0.15650       0.53218       0.38030
                        -----------------------------------------
Magnitude (a.u.)       :      0.67256
Magnitude (Debye)      :      1.70950

Rotational constants in cm-1:     0.016181     0.009572     0.006681
Rotational constants in MHz :   485.088702   286.966982   200.289855

                             ****ORCA TERMINATED NORMALLY****
TOTAL RUN TIME: 0 days 0 hours 0 minutes 20 seconds 293 msec
