                         Program Version 4.2.1 -  RELEASE  -
|  1> ! wB97X-D3 SP def2-SVP
|  2> %pal
|  3> nprocs 24
|  4> end
|  5>
|  6> * xyz 0 1
|  7> S 	 -0.53245 	 -24.0311 	 -106.573
|  8> C 	 -0.16786 	 -23.8582 	 -108.229
|  9> C 	 -1.15028 	 -24.4502 	 -109.069
| 10> C 	 -2.1674 	 -25.0983 	 -108.288
| 11> C 	 -2.09002 	 -24.7825 	 -106.936
| 12> H 	 -2.97349 	 -25.711 	 -108.627
| 13> C 	 -1.01435 	 -24.557 	 -110.562
| 14> H 	 -1.86896 	 -25.0224 	 -111.053
| 15> H 	 -0.24181 	 -25.3174 	 -110.723
| 16> C 	 -0.772574 	 -23.2454 	 -111.366
| 17> H 	 -1.46179 	 -22.4861 	 -111.033
| 18> H 	 0.235897 	 -22.7757 	 -111.135
| 19> C 	 -0.864894 	 -23.3621 	 -112.92
| 20> H 	 -0.0927813 	 -24.0287 	 -113.32
| 21> H 	 -1.83349 	 -23.7271 	 -113.273
| 22> H 	 -0.600429 	 -22.3443 	 -113.396
| 23> S 	 -2.62401 	 -26.1617 	 -104.529
| 24> C 	 -4.18155 	 -25.9902 	 -103.779
| 25> C 	 -5.03828 	 -25.305 	 -104.555
| 26> C 	 -4.46321 	 -24.788 	 -105.766
| 27> C 	 -3.07993 	 -25.1002 	 -105.867
| 28> H 	 -6.00588 	 -25.1938 	 -104.093
| 29> C 	 -5.26717 	 -24.0183 	 -106.814
| 30> H 	 -4.50967 	 -23.5955 	 -107.414
| 31> H 	 -5.89145 	 -23.2906 	 -106.254
| 32> C 	 -6.11853 	 -24.8407 	 -107.832
| 33> H 	 -5.55182 	 -25.6267 	 -108.33
| 34> H 	 -6.4212 	 -24.173 	 -108.659
| 35> C 	 -7.32797 	 -25.4661 	 -107.183
| 36> H 	 -7.7226 	 -24.6954 	 -106.5
| 37> H 	 -7.08882 	 -26.3358 	 -106.613
| 38> H 	 -7.97762 	 -25.7539 	 -108.001
| 39> H 	 0.840412 	 -23.6796 	 -108.571
| 40> H 	 -4.35497 	 -26.5884 	 -102.892
| 41> *
| 42>
| 43>                          ****END OF INPUT****

CARTESIAN COORDINATES (ANGSTROEM)
---------------------------------
  S     -0.532450  -24.031100  -106.573000
  C     -0.167860  -23.858200  -108.229000
  C     -1.150280  -24.450200  -109.069000
  C     -2.167400  -25.098300  -108.288000
  C     -2.090020  -24.782500  -106.936000
  H     -2.973490  -25.711000  -108.627000
  C     -1.014350  -24.557000  -110.562000
  H     -1.868960  -25.022400  -111.053000
  H     -0.241810  -25.317400  -110.723000
  C     -0.772574  -23.245400  -111.366000
  H     -1.461790  -22.486100  -111.033000
  H      0.235897  -22.775700  -111.135000
  C     -0.864894  -23.362100  -112.920000
  H     -0.092781  -24.028700  -113.320000
  H     -1.833490  -23.727100  -113.273000
  H     -0.600429  -22.344300  -113.396000
  S     -2.624010  -26.161700  -104.529000
  C     -4.181550  -25.990200  -103.779000
  C     -5.038280  -25.305000  -104.555000
  C     -4.463210  -24.788000  -105.766000
  C     -3.079930  -25.100200  -105.867000
  H     -6.005880  -25.193800  -104.093000
  C     -5.267170  -24.018300  -106.814000
  H     -4.509670  -23.595500  -107.414000
  H     -5.891450  -23.290600  -106.254000
  C     -6.118530  -24.840700  -107.832000
  H     -5.551820  -25.626700  -108.330000
  H     -6.421200  -24.173000  -108.659000
  C     -7.327970  -25.466100  -107.183000
  H     -7.722600  -24.695400  -106.500000
  H     -7.088820  -26.335800  -106.613000
  H     -7.977620  -25.753900  -108.001000
  H      0.840412  -23.679600  -108.571000
  H     -4.354970  -26.588400  -102.892000

 Total Charge           Charge          ....    0
 Multiplicity           Mult            ....    1
 Number of Electrons    NEL             ....  134
 Basis Dimension        Dim             ....  322

ORBITAL ENERGIES
----------------

  NO   OCC          E(Eh)            E(eV)
   0   2.0000     -88.967342     -2420.9244
   1   2.0000     -88.960631     -2420.7418
   2   2.0000     -10.332879      -281.1719
   3   2.0000     -10.332200      -281.1534
   4   2.0000     -10.313373      -280.6412
   5   2.0000     -10.313219      -280.6370
   6   2.0000     -10.310183      -280.5543
   7   2.0000     -10.307733      -280.4877
   8   2.0000     -10.297899      -280.2201
   9   2.0000     -10.295019      -280.1417
  10   2.0000     -10.294648      -280.1316
  11   2.0000     -10.291307      -280.0407
  12   2.0000     -10.289735      -279.9979
  13   2.0000     -10.289655      -279.9957
  14   2.0000     -10.286289      -279.9042
  15   2.0000     -10.271908      -279.5128
  16   2.0000      -8.082449      -219.9346
  17   2.0000      -8.075830      -219.7545
  18   2.0000      -6.040788      -164.3782
  19   2.0000      -6.036848      -164.2710
  20   2.0000      -6.034204      -164.1990
  21   2.0000      -6.033426      -164.1779
  22   2.0000      -6.030284      -164.0924
  23   2.0000      -6.026701      -163.9949
  24   2.0000      -1.002905       -27.2904
  25   2.0000      -0.984682       -26.7946
  26   2.0000      -0.908424       -24.7195
  27   2.0000      -0.905136       -24.6300
  28   2.0000      -0.866521       -23.5792
  29   2.0000      -0.851458       -23.1693
  30   2.0000      -0.846881       -23.0448
  31   2.0000      -0.817418       -22.2431
  32   2.0000      -0.782079       -21.2815
  33   2.0000      -0.767556       -20.8863
  34   2.0000      -0.703961       -19.1558
  35   2.0000      -0.701145       -19.0791
  36   2.0000      -0.687704       -18.7134
  37   2.0000      -0.657953       -17.9038
  38   2.0000      -0.644724       -17.5438
  39   2.0000      -0.614817       -16.7300
  40   2.0000      -0.590599       -16.0710
  41   2.0000      -0.573395       -15.6029
  42   2.0000      -0.561475       -15.2785
  43   2.0000      -0.554271       -15.0825
  44   2.0000      -0.546344       -14.8668
  45   2.0000      -0.522980       -14.2310
  46   2.0000      -0.516773       -14.0621
  47   2.0000      -0.507853       -13.8194
  48   2.0000      -0.503115       -13.6905
  49   2.0000      -0.495422       -13.4811
  50   2.0000      -0.491043       -13.3620
  51   2.0000      -0.486933       -13.2501
  52   2.0000      -0.473599       -12.8873
  53   2.0000      -0.461783       -12.5657
  54   2.0000      -0.458747       -12.4831
  55   2.0000      -0.446640       -12.1537
  56   2.0000      -0.441946       -12.0260
  57   2.0000      -0.433161       -11.7869
  58   2.0000      -0.432139       -11.7591
  59   2.0000      -0.427306       -11.6276
  60   2.0000      -0.422615       -11.4999
  61   2.0000      -0.416972       -11.3464
  62   2.0000      -0.412477       -11.2241
  63   2.0000      -0.344055        -9.3622
  64   2.0000      -0.329887        -8.9767
  65   2.0000      -0.324610        -8.8331
  66   2.0000      -0.295551        -8.0423
  67   0.0000       0.028687         0.7806
  68   0.0000       0.065806         1.7907
  69   0.0000       0.115968         3.1557
  70   0.0000       0.123088         3.3494
  71   0.0000       0.129238         3.5168

MULLIKEN ATOMIC CHARGES
-----------------------
   0 S :    0.126972
   1 C :   -0.106998
   2 C :   -0.106305
   3 C :    0.054481
   4 C :   -0.181717
   5 H :    0.007691
   6 C :    0.062371
   7 H :    0.011333
   8 H :    0.040235
   9 C :   -0.088047
  10 H :    0.033972
  11 H :    0.031889
  12 C :   -0.079946
  13 H :    0.032538
  14 H :    0.038812
  15 H :    0.047840
  16 S :    0.090064
  17 C :   -0.103699
  18 C :   -0.029336
  19 C :   -0.033187
  20 C :   -0.162245
  21 H :    0.019264
  22 C :    0.080453
  23 H :    0.019545
  24 H :    0.039210
  25 C :   -0.085302
  26 H :    0.020627
  27 H :    0.034822
  28 C :   -0.030637
  29 H :    0.024310
  30 H :    0.036060
  31 H :    0.034092
  32 H :    0.057616
  33 H :    0.063221
Sum of atomic charges:    0.0000000

LOEWDIN ATOMIC CHARGES
----------------------
   0 S :    0.428228
   1 C :   -0.215665
   2 C :   -0.060764
   3 C :   -0.055032
   4 C :   -0.194989
   5 H :    0.028915
   6 C :   -0.041358
   7 H :    0.028523
   8 H :    0.036386
   9 C :   -0.043755
  10 H :    0.023715
  11 H :    0.026985
  12 C :   -0.073247
  13 H :    0.023761
  14 H :    0.022129
  15 H :    0.038848
  16 S :    0.394356
  17 C :   -0.179754
  18 C :   -0.081569
  19 C :   -0.047548
  20 C :   -0.201558
  21 H :    0.034922
  22 C :   -0.028437
  23 H :    0.026750
  24 H :    0.034682
  25 C :   -0.038630
  26 H :    0.020318
  27 H :    0.027077
  28 C :   -0.063871
  29 H :    0.024581
  30 H :    0.021780
  31 H :    0.027687
  32 H :    0.027357
  33 H :    0.029177

  Mayer bond orders larger than 0.100000
B(  0-S ,  1-C ) :   1.1693 B(  0-S ,  4-C ) :   1.1678 B(  1-C ,  2-C ) :   1.5597
B(  1-C ,  4-C ) :   0.1039 B(  1-C , 32-H ) :   0.9675 B(  2-C ,  3-C ) :   1.2685
B(  2-C ,  6-C ) :   1.0312 B(  3-C ,  4-C ) :   1.5433 B(  3-C ,  5-H ) :   0.9995
B(  4-C , 20-C ) :   1.0230 B(  6-C ,  7-H ) :   0.9456 B(  6-C ,  8-H ) :   0.9332
B(  6-C ,  9-C ) :   1.0482 B(  9-C , 10-H ) :   0.9608 B(  9-C , 11-H ) :   0.9539
B(  9-C , 12-C ) :   1.0825 B( 12-C , 13-H ) :   0.9763 B( 12-C , 14-H ) :   0.9753
B( 12-C , 15-H ) :   0.9744 B( 16-S , 17-C ) :   1.1574 B( 16-S , 20-C ) :   1.1541
B( 17-C , 18-C ) :   1.6194 B( 17-C , 33-H ) :   0.9660 B( 18-C , 19-C ) :   1.2132
B( 18-C , 21-H ) :   0.9959 B( 19-C , 20-C ) :   1.5856 B( 19-C , 22-C ) :   1.0421
B( 22-C , 23-H ) :   0.9193 B( 22-C , 24-H ) :   0.9406 B( 22-C , 25-C ) :   1.0803
B( 25-C , 26-H ) :   0.9484 B( 25-C , 27-H ) :   0.9571 B( 25-C , 28-C ) :   1.0809
B( 28-C , 29-H ) :   0.9752 B( 28-C , 30-H ) :   0.9734 B( 28-C , 31-H ) :   0.9709

Dispersion correction           -0.014181699
FINAL SINGLE POINT ENERGY     -1339.880175480000

DIPOLE MOMENT
-------------
                                X             Y             Z
Electronic contribution:     12.77567      -4.82350      26.29325
Nuclear contribution   :    -13.12043       4.67747     -26.81113
                        -----------------------------------------
Total Dipole Moment    :     -0.34476      -0.14603      -0.51788
                        -----------------------------------------
Magnitude (a.u.)       :      0.63905
Magnitude (Debye)      :      1.62433

Rotational constants in cm-1:     0.019896     0.007897     0.005990
Rotational constants in MHz :   596.471808   236.750166   179.569008

                             ****ORCA TERMINATED NORMALLY****
TOTAL RUN TIME: 0 days 0 hours 0 minutes 21 seconds 301 msec
