                         Program Version 4.2.1 -  RELEASE  -
|  1> ! wB97X-D3 SP def2-SVP
|  2> %pal
|  3> nprocs 24
|  4> end
|  5>
|  6> * xyz 0 1
|  7> S 	 -88.0823 	 -5.19449 	 -60.566
|  8> C 	 -88.2835 	 -3.64153 	 -61.305
|  9> C 	 -87.1874 	 -2.86637 	 -61.065
| 10> C 	 -86.2083 	 -3.51072 	 -60.2539
| 11> C 	 -86.5473 	 -4.8062 	 -59.8393
| 12> H 	 -85.2714 	 -3.09404 	 -59.8866
| 13> C 	 -86.9665 	 -1.40543 	 -61.4461
| 14> H 	 -86.7345 	 -0.826527 	 -60.5643
| 15> H 	 -87.8844 	 -1.10518 	 -61.9781
| 16> C 	 -85.8689 	 -1.11367 	 -62.4425
| 17> H 	 -85.8231 	 -0.0692618 	 -62.7233
| 18> H 	 -84.8996 	 -1.31144 	 -62.0012
| 19> C 	 -85.8623 	 -1.99718 	 -63.6778
| 20> H 	 -86.803 	 -2.09012 	 -64.2359
| 21> H 	 -84.9998 	 -1.81186 	 -64.3386
| 22> H 	 -85.6696 	 -3.0668 	 -63.3142
| 23> S 	 -85.6723 	 -7.32592 	 -59.6694
| 24> C 	 -84.7072 	 -7.89065 	 -58.4003
| 25> C 	 -84.3906 	 -6.90229 	 -57.488
| 26> C 	 -84.9527 	 -5.6722 	 -57.883
| 27> C 	 -85.7233 	 -5.70897 	 -59.041
| 28> H 	 -83.8551 	 -7.15886 	 -56.5521
| 29> C 	 -84.8239 	 -4.36061 	 -57.1636
| 30> H 	 -85.7407 	 -3.7763 	 -57.376
| 31> H 	 -83.9115 	 -3.92821 	 -57.5302
| 32> C 	 -84.6846 	 -4.3542 	 -55.6348
| 33> H 	 -84.5877 	 -3.26028 	 -55.4092
| 34> H 	 -83.688 	 -4.78409 	 -55.4726
| 35> C 	 -85.7552 	 -4.94291 	 -54.8103
| 36> H 	 -85.9226 	 -5.97124 	 -55.0657
| 37> H 	 -86.641 	 -4.3653 	 -55.0111
| 38> H 	 -85.4538 	 -4.98838 	 -53.8311
| 39> H 	 -89.1164 	 -3.30142 	 -61.9396
| 40> H 	 -84.374 	 -8.9437 	 -58.2879
| 41> *
| 42>
| 43>                          ****END OF INPUT****

CARTESIAN COORDINATES (ANGSTROEM)
---------------------------------
  S    -88.082300   -5.194490  -60.566000
  C    -88.283500   -3.641530  -61.305000
  C    -87.187400   -2.866370  -61.065000
  C    -86.208300   -3.510720  -60.253900
  C    -86.547300   -4.806200  -59.839300
  H    -85.271400   -3.094040  -59.886600
  C    -86.966500   -1.405430  -61.446100
  H    -86.734500   -0.826527  -60.564300
  H    -87.884400   -1.105180  -61.978100
  C    -85.868900   -1.113670  -62.442500
  H    -85.823100   -0.069262  -62.723300
  H    -84.899600   -1.311440  -62.001200
  C    -85.862300   -1.997180  -63.677800
  H    -86.803000   -2.090120  -64.235900
  H    -84.999800   -1.811860  -64.338600
  H    -85.669600   -3.066800  -63.314200
  S    -85.672300   -7.325920  -59.669400
  C    -84.707200   -7.890650  -58.400300
  C    -84.390600   -6.902290  -57.488000
  C    -84.952700   -5.672200  -57.883000
  C    -85.723300   -5.708970  -59.041000
  H    -83.855100   -7.158860  -56.552100
  C    -84.823900   -4.360610  -57.163600
  H    -85.740700   -3.776300  -57.376000
  H    -83.911500   -3.928210  -57.530200
  C    -84.684600   -4.354200  -55.634800
  H    -84.587700   -3.260280  -55.409200
  H    -83.688000   -4.784090  -55.472600
  C    -85.755200   -4.942910  -54.810300
  H    -85.922600   -5.971240  -55.065700
  H    -86.641000   -4.365300  -55.011100
  H    -85.453800   -4.988380  -53.831100
  H    -89.116400   -3.301420  -61.939600
  H    -84.374000   -8.943700  -58.287900

 Total Charge           Charge          ....    0
 Multiplicity           Mult            ....    1
 Number of Electrons    NEL             ....  134
 Basis Dimension        Dim             ....  322

ORBITAL ENERGIES
----------------

  NO   OCC          E(Eh)            E(eV)
   0   2.0000     -88.968214     -2420.9482
   1   2.0000     -88.963494     -2420.8198
   2   2.0000     -10.333407      -281.1863
   3   2.0000     -10.324639      -280.9477
   4   2.0000     -10.316349      -280.7221
   5   2.0000     -10.315556      -280.7006
   6   2.0000     -10.302467      -280.3444
   7   2.0000     -10.299208      -280.2557
   8   2.0000     -10.296206      -280.1740
   9   2.0000     -10.292785      -280.0809
  10   2.0000     -10.291825      -280.0548
  11   2.0000     -10.285456      -279.8815
  12   2.0000     -10.282453      -279.7998
  13   2.0000     -10.281132      -279.7638
  14   2.0000     -10.277855      -279.6747
  15   2.0000     -10.263419      -279.2818
  16   2.0000      -8.083072      -219.9516
  17   2.0000      -8.079800      -219.8625
  18   2.0000      -6.041670      -164.4022
  19   2.0000      -6.038080      -164.3045
  20   2.0000      -6.037410      -164.2863
  21   2.0000      -6.033912      -164.1911
  22   2.0000      -6.033855      -164.1895
  23   2.0000      -6.030867      -164.1082
  24   2.0000      -1.014608       -27.6089
  25   2.0000      -0.992713       -27.0131
  26   2.0000      -0.916806       -24.9476
  27   2.0000      -0.915039       -24.8995
  28   2.0000      -0.873854       -23.7788
  29   2.0000      -0.857910       -23.3449
  30   2.0000      -0.843189       -22.9443
  31   2.0000      -0.816367       -22.2145
  32   2.0000      -0.787303       -21.4236
  33   2.0000      -0.777469       -21.1560
  34   2.0000      -0.709036       -19.2938
  35   2.0000      -0.693955       -18.8835
  36   2.0000      -0.691778       -18.8242
  37   2.0000      -0.654434       -17.8081
  38   2.0000      -0.637418       -17.3450
  39   2.0000      -0.621256       -16.9052
  40   2.0000      -0.594852       -16.1867
  41   2.0000      -0.570667       -15.5286
  42   2.0000      -0.568430       -15.4678
  43   2.0000      -0.558335       -15.1931
  44   2.0000      -0.541921       -14.7464
  45   2.0000      -0.539168       -14.6715
  46   2.0000      -0.527067       -14.3422
  47   2.0000      -0.513873       -13.9832
  48   2.0000      -0.509635       -13.8679
  49   2.0000      -0.498555       -13.5664
  50   2.0000      -0.491949       -13.3866
  51   2.0000      -0.484627       -13.1874
  52   2.0000      -0.475324       -12.9342
  53   2.0000      -0.472281       -12.8514
  54   2.0000      -0.454594       -12.3701
  55   2.0000      -0.446233       -12.1426
  56   2.0000      -0.440142       -11.9769
  57   2.0000      -0.437676       -11.9098
  58   2.0000      -0.434942       -11.8354
  59   2.0000      -0.422083       -11.4855
  60   2.0000      -0.412655       -11.2289
  61   2.0000      -0.407275       -11.0825
  62   2.0000      -0.405875       -11.0444
  63   2.0000      -0.353495        -9.6191
  64   2.0000      -0.333028        -9.0622
  65   2.0000      -0.330228        -8.9860
  66   2.0000      -0.291123        -7.9218
  67   0.0000       0.029661         0.8071
  68   0.0000       0.076302         2.0763
  69   0.0000       0.119781         3.2594
  70   0.0000       0.123902         3.3715
  71   0.0000       0.133550         3.6341

MULLIKEN ATOMIC CHARGES
-----------------------
   0 S :    0.119975
   1 C :   -0.128422
   2 C :   -0.096758
   3 C :    0.011725
   4 C :   -0.139819
   5 H :    0.013989
   6 C :    0.107181
   7 H :    0.038784
   8 H :    0.013223
   9 C :   -0.068018
  10 H :    0.030905
  11 H :    0.016077
  12 C :   -0.090560
  13 H :    0.030838
  14 H :    0.039329
  15 H :    0.042939
  16 S :    0.111018
  17 C :   -0.101266
  18 C :   -0.058602
  19 C :   -0.032851
  20 C :   -0.168375
  21 H :    0.034793
  22 C :    0.040646
  23 H :    0.038783
  24 H :    0.038195
  25 C :   -0.119127
  26 H :    0.029289
  27 H :    0.015034
  28 C :    0.040842
  29 H :    0.018641
  30 H :    0.030107
  31 H :    0.016981
  32 H :    0.056359
  33 H :    0.068142
Sum of atomic charges:    0.0000000

LOEWDIN ATOMIC CHARGES
----------------------
   0 S :    0.419272
   1 C :   -0.208079
   2 C :   -0.070210
   3 C :   -0.066094
   4 C :   -0.201911
   5 H :    0.029786
   6 C :   -0.025154
   7 H :    0.034685
   8 H :    0.029622
   9 C :   -0.047068
  10 H :    0.023300
  11 H :    0.020945
  12 C :   -0.076255
  13 H :    0.020261
  14 H :    0.028441
  15 H :    0.034945
  16 S :    0.441267
  17 C :   -0.204129
  18 C :   -0.087110
  19 C :   -0.058496
  20 C :   -0.205724
  21 H :    0.040789
  22 C :   -0.035305
  23 H :    0.033550
  24 H :    0.033169
  25 C :   -0.047025
  26 H :    0.029848
  27 H :    0.016687
  28 C :   -0.054390
  29 H :    0.024918
  30 H :    0.029810
  31 H :    0.019531
  32 H :    0.039008
  33 H :    0.037116

  Mayer bond orders larger than 0.100000
B(  0-S ,  1-C ) :   1.1385 B(  0-S ,  4-C ) :   1.1575 B(  1-C ,  2-C ) :   1.6082
B(  1-C , 32-H ) :   0.9608 B(  2-C ,  3-C ) :   1.2398 B(  2-C ,  6-C ) :   1.0210
B(  3-C ,  4-C ) :   1.5452 B(  3-C ,  5-H ) :   0.9978 B(  4-C , 20-C ) :   1.0526
B(  6-C ,  7-H ) :   0.9430 B(  6-C ,  8-H ) :   0.9368 B(  6-C ,  9-C ) :   1.0774
B(  9-C , 10-H ) :   0.9575 B(  9-C , 11-H ) :   0.9497 B(  9-C , 12-C ) :   1.0787
B( 12-C , 13-H ) :   0.9784 B( 12-C , 14-H ) :   0.9732 B( 12-C , 15-H ) :   0.9661
B( 16-S , 17-C ) :   1.2001 B( 16-S , 20-C ) :   1.1487 B( 17-C , 18-C ) :   1.5631
B( 17-C , 20-C ) :   0.1035 B( 17-C , 33-H ) :   0.9604 B( 18-C , 19-C ) :   1.2646
B( 18-C , 21-H ) :   0.9907 B( 19-C , 20-C ) :   1.5697 B( 19-C , 22-C ) :   1.0286
B( 22-C , 23-H ) :   0.9389 B( 22-C , 24-H ) :   0.9262 B( 22-C , 25-C ) :   1.0890
B( 25-C , 26-H ) :   0.9528 B( 25-C , 27-H ) :   0.9452 B( 25-C , 28-C ) :   1.0903
B( 28-C , 29-H ) :   0.9672 B( 28-C , 30-H ) :   0.9697 B( 28-C , 31-H ) :   0.9664

Dispersion correction           -0.014445718
FINAL SINGLE POINT ENERGY     -1339.884265544861

DIPOLE MOMENT
-------------
                                X             Y             Z
Electronic contribution:     -7.61530     -19.13739      -5.12767
Nuclear contribution   :      7.95150      19.52306       5.41165
                        -----------------------------------------
Total Dipole Moment    :      0.33620       0.38567       0.28398
                        -----------------------------------------
Magnitude (a.u.)       :      0.58516
Magnitude (Debye)      :      1.48737

Rotational constants in cm-1:     0.020683     0.008065     0.006954
Rotational constants in MHz :   620.051142   241.796210   208.478790

                             ****ORCA TERMINATED NORMALLY****
TOTAL RUN TIME: 0 days 0 hours 0 minutes 21 seconds 644 msec
