                         Program Version 4.2.1 -  RELEASE  -
|  1> ! wB97X-D3 SP def2-SVP
|  2> %pal
|  3> nprocs 24
|  4> end
|  5>
|  6> * xyz 0 1
|  7> S 	 -100.175 	 3.22707 	 -117.03
|  8> C 	 -100.82 	 4.71196 	 -117.915
|  9> C 	 -101.073 	 5.71129 	 -117.04
| 10> C 	 -100.535 	 5.33517 	 -115.752
| 11> C 	 -99.9724 	 4.09496 	 -115.524
| 12> H 	 -100.654 	 6.05625 	 -114.914
| 13> C 	 -101.875 	 6.99921 	 -117.268
| 14> H 	 -102.251 	 7.35445 	 -116.33
| 15> H 	 -102.752 	 6.76698 	 -117.907
| 16> C 	 -100.958 	 8.0788 	 -117.947
| 17> H 	 -99.9369 	 7.99909 	 -117.501
| 18> H 	 -100.878 	 7.94079 	 -118.992
| 19> C 	 -101.54 	 9.51126 	 -117.771
| 20> H 	 -102.619 	 9.58327 	 -118.077
| 21> H 	 -101.619 	 9.89372 	 -116.747
| 22> H 	 -100.973 	 10.1854 	 -118.385
| 23> S 	 -98.3269 	 4.56024 	 -113.378
| 24> C 	 -97.5188 	 3.25234 	 -112.636
| 25> C 	 -98.2802 	 2.07641 	 -112.772
| 26> C 	 -99.3185 	 2.16433 	 -113.762
| 27> C 	 -99.3596 	 3.51634 	 -114.341
| 28> H 	 -98.1387 	 1.0958 	 -112.285
| 29> C 	 -100.272 	 1.11962 	 -114.195
| 30> H 	 -99.7686 	 0.524223 	 -114.897
| 31> H 	 -101.094 	 1.50728 	 -114.813
| 32> C 	 -101.008 	 0.41495 	 -112.99
| 33> H 	 -101.683 	 1.14832 	 -112.567
| 34> H 	 -100.175 	 0.154417 	 -112.237
| 35> C 	 -101.889 	 -0.782897 	 -113.454
| 36> H 	 -102.46 	 -1.07989 	 -112.637
| 37> H 	 -101.315 	 -1.66057 	 -113.781
| 38> H 	 -102.672 	 -0.56551 	 -114.148
| 39> H 	 -101.044 	 4.75166 	 -119.052
| 40> H 	 -96.641 	 3.28751 	 -112.033
| 41> *
| 42>
| 43>                          ****END OF INPUT****

CARTESIAN COORDINATES (ANGSTROEM)
---------------------------------
  S    -100.175000    3.227070  -117.030000
  C    -100.820000    4.711960  -117.915000
  C    -101.073000    5.711290  -117.040000
  C    -100.535000    5.335170  -115.752000
  C    -99.972400    4.094960  -115.524000
  H    -100.654000    6.056250  -114.914000
  C    -101.875000    6.999210  -117.268000
  H    -102.251000    7.354450  -116.330000
  H    -102.752000    6.766980  -117.907000
  C    -100.958000    8.078800  -117.947000
  H    -99.936900    7.999090  -117.501000
  H    -100.878000    7.940790  -118.992000
  C    -101.540000    9.511260  -117.771000
  H    -102.619000    9.583270  -118.077000
  H    -101.619000    9.893720  -116.747000
  H    -100.973000   10.185400  -118.385000
  S    -98.326900    4.560240  -113.378000
  C    -97.518800    3.252340  -112.636000
  C    -98.280200    2.076410  -112.772000
  C    -99.318500    2.164330  -113.762000
  C    -99.359600    3.516340  -114.341000
  H    -98.138700    1.095800  -112.285000
  C    -100.272000    1.119620  -114.195000
  H    -99.768600    0.524223  -114.897000
  H    -101.094000    1.507280  -114.813000
  C    -101.008000    0.414950  -112.990000
  H    -101.683000    1.148320  -112.567000
  H    -100.175000    0.154417  -112.237000
  C    -101.889000   -0.782897  -113.454000
  H    -102.460000   -1.079890  -112.637000
  H    -101.315000   -1.660570  -113.781000
  H    -102.672000   -0.565510  -114.148000
  H    -101.044000    4.751660  -119.052000
  H    -96.641000    3.287510  -112.033000

 Total Charge           Charge          ....    0
 Multiplicity           Mult            ....    1
 Number of Electrons    NEL             ....  134
 Basis Dimension        Dim             ....  322

ORBITAL ENERGIES
----------------

  NO   OCC          E(Eh)            E(eV)
   0   2.0000     -88.968291     -2420.9503
   1   2.0000     -88.961658     -2420.7698
   2   2.0000     -10.333679      -281.1937
   3   2.0000     -10.333192      -281.1804
   4   2.0000     -10.322897      -280.9003
   5   2.0000     -10.319974      -280.8208
   6   2.0000     -10.311218      -280.5825
   7   2.0000     -10.301887      -280.3286
   8   2.0000     -10.301770      -280.3254
   9   2.0000     -10.299821      -280.2724
  10   2.0000     -10.299443      -280.2621
  11   2.0000     -10.292848      -280.0826
  12   2.0000     -10.291556      -280.0475
  13   2.0000     -10.285375      -279.8793
  14   2.0000     -10.281221      -279.7662
  15   2.0000     -10.273881      -279.5665
  16   2.0000      -8.083385      -219.9601
  17   2.0000      -8.075006      -219.7321
  18   2.0000      -6.041794      -164.4056
  19   2.0000      -6.037830      -164.2977
  20   2.0000      -6.034237      -164.1999
  21   2.0000      -6.033934      -164.1917
  22   2.0000      -6.029803      -164.0793
  23   2.0000      -6.025284      -163.9563
  24   2.0000      -1.001456       -27.2510
  25   2.0000      -0.979467       -26.6527
  26   2.0000      -0.908293       -24.7159
  27   2.0000      -0.906793       -24.6751
  28   2.0000      -0.867278       -23.5998
  29   2.0000      -0.850722       -23.1493
  30   2.0000      -0.835732       -22.7414
  31   2.0000      -0.805986       -21.9320
  32   2.0000      -0.784260       -21.3408
  33   2.0000      -0.772365       -21.0171
  34   2.0000      -0.708443       -19.2777
  35   2.0000      -0.703466       -19.1423
  36   2.0000      -0.699513       -19.0347
  37   2.0000      -0.656026       -17.8514
  38   2.0000      -0.623464       -16.9653
  39   2.0000      -0.615482       -16.7481
  40   2.0000      -0.600561       -16.3421
  41   2.0000      -0.566025       -15.4023
  42   2.0000      -0.561838       -15.2884
  43   2.0000      -0.559187       -15.2163
  44   2.0000      -0.524937       -14.2843
  45   2.0000      -0.522513       -14.2183
  46   2.0000      -0.519729       -14.1425
  47   2.0000      -0.515300       -14.0220
  48   2.0000      -0.509411       -13.8618
  49   2.0000      -0.495123       -13.4730
  50   2.0000      -0.478550       -13.0220
  51   2.0000      -0.476248       -12.9594
  52   2.0000      -0.472355       -12.8534
  53   2.0000      -0.464577       -12.6418
  54   2.0000      -0.458946       -12.4886
  55   2.0000      -0.456873       -12.4322
  56   2.0000      -0.445151       -12.1132
  57   2.0000      -0.438549       -11.9335
  58   2.0000      -0.435642       -11.8544
  59   2.0000      -0.425042       -11.5660
  60   2.0000      -0.423881       -11.5344
  61   2.0000      -0.414273       -11.2729
  62   2.0000      -0.398313       -10.8386
  63   2.0000      -0.353383        -9.6160
  64   2.0000      -0.327469        -8.9109
  65   2.0000      -0.323816        -8.8115
  66   2.0000      -0.278064        -7.5665
  67   0.0000       0.018049         0.4911
  68   0.0000       0.067088         1.8256
  69   0.0000       0.092098         2.5061
  70   0.0000       0.118036         3.2119
  71   0.0000       0.136775         3.7218

MULLIKEN ATOMIC CHARGES
-----------------------
   0 S :    0.076142
   1 C :   -0.182786
   2 C :   -0.067982
   3 C :   -0.026609
   4 C :   -0.090330
   5 H :    0.009174
   6 C :    0.081766
   7 H :    0.019792
   8 H :    0.041672
   9 C :   -0.076371
  10 H :    0.051604
  11 H :    0.027947
  12 C :   -0.066705
  13 H :    0.027715
  14 H :    0.034078
  15 H :    0.034737
  16 S :    0.126639
  17 C :   -0.077608
  18 C :   -0.041536
  19 C :   -0.053391
  20 C :   -0.165110
  21 H :    0.029073
  22 C :    0.069980
  23 H :    0.026105
  24 H :    0.024934
  25 C :   -0.121631
  26 H :    0.042211
  27 H :    0.043823
  28 C :   -0.009965
  29 H :    0.012725
  30 H :    0.038419
  31 H :    0.026849
  32 H :    0.078488
  33 H :    0.056151
Sum of atomic charges:   -0.0000000

LOEWDIN ATOMIC CHARGES
----------------------
   0 S :    0.363929
   1 C :   -0.184057
   2 C :   -0.066844
   3 C :   -0.084519
   4 C :   -0.190866
   5 H :    0.024872
   6 C :   -0.021283
   7 H :    0.026570
   8 H :    0.037183
   9 C :   -0.033768
  10 H :    0.033127
  11 H :    0.019579
  12 C :   -0.072829
  13 H :    0.028673
  14 H :    0.023753
  15 H :    0.022846
  16 S :    0.437575
  17 C :   -0.194475
  18 C :   -0.077429
  19 C :   -0.045156
  20 C :   -0.203975
  21 H :    0.033555
  22 C :   -0.045392
  23 H :    0.025433
  24 H :    0.030237
  25 C :   -0.030240
  26 H :    0.028253
  27 H :    0.029461
  28 C :   -0.064847
  29 H :    0.019972
  30 H :    0.029212
  31 H :    0.026025
  32 H :    0.047293
  33 H :    0.028132

  Mayer bond orders larger than 0.100000
B(  0-S ,  1-C ) :   1.1119 B(  0-S ,  4-C ) :   1.1120 B(  1-C ,  2-C ) :   1.6420
B(  1-C , 32-H ) :   0.9536 B(  2-C ,  3-C ) :   1.2380 B(  2-C ,  6-C ) :   1.0150
B(  3-C ,  4-C ) :   1.5793 B(  3-C ,  5-H ) :   0.9818 B(  4-C , 20-C ) :   1.0833
B(  6-C ,  7-H ) :   0.9484 B(  6-C ,  8-H ) :   0.9408 B(  6-C ,  9-C ) :   1.0493
B(  9-C , 10-H ) :   0.9619 B(  9-C , 11-H ) :   0.9570 B(  9-C , 12-C ) :   1.0797
B( 12-C , 13-H ) :   0.9715 B( 12-C , 14-H ) :   0.9782 B( 12-C , 15-H ) :   0.9764
B( 16-S , 17-C ) :   1.1892 B( 16-S , 20-C ) :   1.1561 B( 17-C , 18-C ) :   1.5279
B( 17-C , 20-C ) :   0.1101 B( 17-C , 33-H ) :   0.9749 B( 18-C , 19-C ) :   1.3053
B( 18-C , 21-H ) :   0.9799 B( 19-C , 20-C ) :   1.4852 B( 19-C , 22-C ) :   1.0473
B( 22-C , 23-H ) :   0.9301 B( 22-C , 24-H ) :   0.9355 B( 22-C , 25-C ) :   1.0393
B( 25-C , 26-H ) :   0.9579 B( 25-C , 27-H ) :   0.9616 B( 25-C , 28-C ) :   1.0832
B( 28-C , 29-H ) :   0.9704 B( 28-C , 30-H ) :   0.9763 B( 28-C , 31-H ) :   0.9707

Dispersion correction           -0.013376152
FINAL SINGLE POINT ENERGY     -1339.847667880336

DIPOLE MOMENT
-------------
                                X             Y             Z
Electronic contribution:     13.86507      -2.81478       2.83933
Nuclear contribution   :    -14.21754       2.86181      -2.74807
                        -----------------------------------------
Total Dipole Moment    :     -0.35247       0.04703       0.09126
                        -----------------------------------------
Magnitude (a.u.)       :      0.36711
Magnitude (Debye)      :      0.93313

Rotational constants in cm-1:     0.022180     0.006841     0.005748
Rotational constants in MHz :   664.925240   205.076484   172.312031

                             ****ORCA TERMINATED NORMALLY****
TOTAL RUN TIME: 0 days 0 hours 0 minutes 20 seconds 237 msec
