                         Program Version 4.2.1 -  RELEASE  -
|  1> ! wB97X-D3 SP def2-SVP
|  2> %pal
|  3> nprocs 24
|  4> end
|  5>
|  6> * xyz 0 1
|  7> S 	 -111.406 	 64.9873 	 -76.3072
|  8> C 	 -110.549 	 63.555 	 -76.7832
|  9> C 	 -111.333 	 62.4045 	 -76.6585
| 10> C 	 -112.662 	 62.7549 	 -76.2647
| 11> C 	 -112.941 	 64.1469 	 -76.2178
| 12> H 	 -113.429 	 62.0257 	 -76.1893
| 13> C 	 -111.049 	 60.946 	 -76.9219
| 14> H 	 -110.165 	 60.9892 	 -77.5339
| 15> H 	 -111.905 	 60.6524 	 -77.5846
| 16> C 	 -110.842 	 59.931 	 -75.8611
| 17> H 	 -110.671 	 58.9539 	 -76.4273
| 18> H 	 -109.884 	 60.0216 	 -75.3844
| 19> C 	 -111.953 	 59.7925 	 -74.7659
| 20> H 	 -112.969 	 59.6399 	 -75.1824
| 21> H 	 -111.848 	 59.1254 	 -73.932
| 22> H 	 -112.067 	 60.7473 	 -74.2067
| 23> S 	 -114.267 	 66.2278 	 -75.0844
| 24> C 	 -115.969 	 66.4146 	 -75.3127
| 25> C 	 -116.464 	 65.3824 	 -76.0301
| 26> C 	 -115.486 	 64.428 	 -76.4409
| 27> C 	 -114.247 	 64.7692 	 -75.9394
| 28> H 	 -117.488 	 65.3616 	 -76.3013
| 29> C 	 -115.865 	 63.3806 	 -77.534
| 30> H 	 -116.691 	 62.8063 	 -77.1146
| 31> H 	 -115.203 	 62.5612 	 -77.6749
| 32> C 	 -116.273 	 63.941 	 -78.8764
| 33> H 	 -117.024 	 64.7149 	 -78.6988
| 34> H 	 -116.725 	 63.151 	 -79.464
| 35> C 	 -115.23 	 64.6035 	 -79.7532
| 36> H 	 -114.656 	 65.2212 	 -79.0513
| 37> H 	 -115.61 	 65.3384 	 -80.4763
| 38> H 	 -114.389 	 64.0584 	 -80.2073
| 39> H 	 -109.428 	 63.5599 	 -76.9235
| 40> H 	 -116.429 	 67.2997 	 -75.04
| 41> *
| 42>
| 43>                          ****END OF INPUT****

CARTESIAN COORDINATES (ANGSTROEM)
---------------------------------
  S    -111.406000   64.987300  -76.307200
  C    -110.549000   63.555000  -76.783200
  C    -111.333000   62.404500  -76.658500
  C    -112.662000   62.754900  -76.264700
  C    -112.941000   64.146900  -76.217800
  H    -113.429000   62.025700  -76.189300
  C    -111.049000   60.946000  -76.921900
  H    -110.165000   60.989200  -77.533900
  H    -111.905000   60.652400  -77.584600
  C    -110.842000   59.931000  -75.861100
  H    -110.671000   58.953900  -76.427300
  H    -109.884000   60.021600  -75.384400
  C    -111.953000   59.792500  -74.765900
  H    -112.969000   59.639900  -75.182400
  H    -111.848000   59.125400  -73.932000
  H    -112.067000   60.747300  -74.206700
  S    -114.267000   66.227800  -75.084400
  C    -115.969000   66.414600  -75.312700
  C    -116.464000   65.382400  -76.030100
  C    -115.486000   64.428000  -76.440900
  C    -114.247000   64.769200  -75.939400
  H    -117.488000   65.361600  -76.301300
  C    -115.865000   63.380600  -77.534000
  H    -116.691000   62.806300  -77.114600
  H    -115.203000   62.561200  -77.674900
  C    -116.273000   63.941000  -78.876400
  H    -117.024000   64.714900  -78.698800
  H    -116.725000   63.151000  -79.464000
  C    -115.230000   64.603500  -79.753200
  H    -114.656000   65.221200  -79.051300
  H    -115.610000   65.338400  -80.476300
  H    -114.389000   64.058400  -80.207300
  H    -109.428000   63.559900  -76.923500
  H    -116.429000   67.299700  -75.040000

 Total Charge           Charge          ....    0
 Multiplicity           Mult            ....    1
 Number of Electrons    NEL             ....  134
 Basis Dimension        Dim             ....  322

ORBITAL ENERGIES
----------------

  NO   OCC          E(Eh)            E(eV)
   0   2.0000     -88.968007     -2420.9426
   1   2.0000     -88.963433     -2420.8181
   2   2.0000     -10.332930      -281.1733
   3   2.0000     -10.326043      -280.9859
   4   2.0000     -10.319670      -280.8125
   5   2.0000     -10.309373      -280.5323
   6   2.0000     -10.304709      -280.4054
   7   2.0000     -10.301221      -280.3105
   8   2.0000     -10.295098      -280.1439
   9   2.0000     -10.293920      -280.1118
  10   2.0000     -10.291944      -280.0580
  11   2.0000     -10.290283      -280.0128
  12   2.0000     -10.290190      -280.0103
  13   2.0000     -10.284300      -279.8500
  14   2.0000     -10.282332      -279.7965
  15   2.0000     -10.270614      -279.4776
  16   2.0000      -8.082655      -219.9402
  17   2.0000      -8.080285      -219.8757
  18   2.0000      -6.041254      -164.3909
  19   2.0000      -6.038620      -164.3192
  20   2.0000      -6.037138      -164.2789
  21   2.0000      -6.034526      -164.2078
  22   2.0000      -6.033377      -164.1765
  23   2.0000      -6.031075      -164.1139
  24   2.0000      -1.014834       -27.6150
  25   2.0000      -0.987567       -26.8731
  26   2.0000      -0.915264       -24.9056
  27   2.0000      -0.910932       -24.7877
  28   2.0000      -0.870884       -23.6980
  29   2.0000      -0.851212       -23.1627
  30   2.0000      -0.843553       -22.9542
  31   2.0000      -0.812766       -22.1165
  32   2.0000      -0.789246       -21.4765
  33   2.0000      -0.780880       -21.2488
  34   2.0000      -0.708510       -19.2795
  35   2.0000      -0.701691       -19.0940
  36   2.0000      -0.695351       -18.9215
  37   2.0000      -0.666013       -18.1231
  38   2.0000      -0.635225       -17.2854
  39   2.0000      -0.621164       -16.9027
  40   2.0000      -0.607936       -16.5428
  41   2.0000      -0.570215       -15.5163
  42   2.0000      -0.553336       -15.0570
  43   2.0000      -0.550427       -14.9779
  44   2.0000      -0.538977       -14.6663
  45   2.0000      -0.535236       -14.5645
  46   2.0000      -0.518798       -14.1172
  47   2.0000      -0.511946       -13.9308
  48   2.0000      -0.500619       -13.6225
  49   2.0000      -0.498353       -13.5609
  50   2.0000      -0.490047       -13.3348
  51   2.0000      -0.481739       -13.1088
  52   2.0000      -0.469878       -12.7860
  53   2.0000      -0.467375       -12.7179
  54   2.0000      -0.465297       -12.6614
  55   2.0000      -0.447975       -12.1900
  56   2.0000      -0.445297       -12.1171
  57   2.0000      -0.442238       -12.0339
  58   2.0000      -0.430747       -11.7212
  59   2.0000      -0.423929       -11.5357
  60   2.0000      -0.418327       -11.3832
  61   2.0000      -0.408230       -11.1085
  62   2.0000      -0.404517       -11.0075
  63   2.0000      -0.356875        -9.7111
  64   2.0000      -0.334743        -9.1088
  65   2.0000      -0.327347        -8.9076
  66   2.0000      -0.287550        -7.8246
  67   0.0000       0.024970         0.6795
  68   0.0000       0.082117         2.2345
  69   0.0000       0.108330         2.9478
  70   0.0000       0.114439         3.1140
  71   0.0000       0.135067         3.6753

MULLIKEN ATOMIC CHARGES
-----------------------
   0 S :    0.110722
   1 C :   -0.147134
   2 C :   -0.092331
   3 C :    0.017839
   4 C :   -0.126521
   5 H :   -0.004527
   6 C :    0.056079
   7 H :    0.015444
   8 H :    0.040230
   9 C :   -0.029222
  10 H :    0.035640
  11 H :    0.020805
  12 C :   -0.076970
  13 H :    0.029093
  14 H :    0.033478
  15 H :    0.039901
  16 S :    0.098035
  17 C :   -0.066251
  18 C :   -0.020312
  19 C :   -0.054428
  20 C :   -0.136561
  21 H :    0.009396
  22 C :    0.094320
  23 H :    0.019752
  24 H :    0.001881
  25 C :   -0.047652
  26 H :    0.021319
  27 H :    0.027268
  28 C :   -0.059880
  29 H :    0.018783
  30 H :    0.036266
  31 H :    0.033354
  32 H :    0.069056
  33 H :    0.033128
Sum of atomic charges:   -0.0000000

LOEWDIN ATOMIC CHARGES
----------------------
   0 S :    0.410784
   1 C :   -0.215890
   2 C :   -0.067516
   3 C :   -0.059113
   4 C :   -0.192333
   5 H :    0.017730
   6 C :   -0.037361
   7 H :    0.032822
   8 H :    0.040427
   9 C :   -0.040577
  10 H :    0.035698
  11 H :    0.022836
  12 C :   -0.079059
  13 H :    0.024342
  14 H :    0.025438
  15 H :    0.033216
  16 S :    0.432019
  17 C :   -0.176233
  18 C :   -0.061976
  19 C :   -0.059755
  20 C :   -0.211282
  21 H :    0.026972
  22 C :   -0.030157
  23 H :    0.036420
  24 H :    0.022130
  25 C :   -0.039597
  26 H :    0.026143
  27 H :    0.023973
  28 C :   -0.080043
  29 H :    0.029154
  30 H :    0.029582
  31 H :    0.026904
  32 H :    0.039428
  33 H :    0.014876

  Mayer bond orders larger than 0.100000
B(  0-S ,  1-C ) :   1.1482 B(  0-S ,  4-C ) :   1.1562 B(  1-C ,  2-C ) :   1.5854
B(  1-C ,  4-C ) :   0.1007 B(  1-C , 32-H ) :   0.9586 B(  2-C ,  3-C ) :   1.2767
B(  2-C ,  6-C ) :   1.0049 B(  3-C ,  4-C ) :   1.5266 B(  3-C ,  5-H ) :   0.9929
B(  4-C , 20-C ) :   1.0598 B(  6-C ,  7-H ) :   0.9309 B(  6-C ,  8-H ) :   0.9406
B(  6-C ,  9-C ) :   1.0936 B(  9-C , 10-H ) :   0.9482 B(  9-C , 11-H ) :   0.9520
B(  9-C , 12-C ) :   1.0662 B( 12-C , 13-H ) :   0.9752 B( 12-C , 14-H ) :   0.9762
B( 12-C , 15-H ) :   0.9685 B( 16-S , 17-C ) :   1.1550 B( 16-S , 20-C ) :   1.1595
B( 17-C , 18-C ) :   1.5955 B( 17-C , 33-H ) :   0.9828 B( 18-C , 19-C ) :   1.2474
B( 18-C , 21-H ) :   0.9979 B( 19-C , 20-C ) :   1.5858 B( 19-C , 22-C ) :   1.0302
B( 22-C , 23-H ) :   0.9246 B( 22-C , 24-H ) :   0.9343 B( 22-C , 25-C ) :   1.0885
B( 25-C , 26-H ) :   0.9514 B( 25-C , 27-H ) :   0.9500 B( 25-C , 28-C ) :   1.0737
B( 28-C , 29-H ) :   0.9706 B( 28-C , 30-H ) :   0.9742 B( 28-C , 31-H ) :   0.9738

Dispersion correction           -0.014902131
FINAL SINGLE POINT ENERGY     -1339.870287565047

DIPOLE MOMENT
-------------
                                X             Y             Z
Electronic contribution:      4.31431      21.30221      10.45130
Nuclear contribution   :     -4.51077     -21.74446     -10.65325
                        -----------------------------------------
Total Dipole Moment    :     -0.19646      -0.44225      -0.20194
                        -----------------------------------------
Magnitude (a.u.)       :      0.52437
Magnitude (Debye)      :      1.33283

Rotational constants in cm-1:     0.019025     0.008762     0.007727
Rotational constants in MHz :   570.344597   262.690305   231.658145

                             ****ORCA TERMINATED NORMALLY****
TOTAL RUN TIME: 0 days 0 hours 0 minutes 22 seconds 378 msec
