                         Program Version 4.2.1 -  RELEASE  -
|  1> ! wB97X-D3 SP def2-SVP
|  2> %pal
|  3> nprocs 24
|  4> end
|  5>
|  6> * xyz 0 1
|  7> S 	 -42.8285 	 -8.82377 	 -20.2933
|  8> C 	 -43.2317 	 -10.4887 	 -20.3293
|  9> C 	 -42.8038 	 -11.1879 	 -19.2202
| 10> C 	 -42.2199 	 -10.322 	 -18.3068
| 11> C 	 -42.0519 	 -9.05206 	 -18.7443
| 12> H 	 -41.8424 	 -10.6732 	 -17.3575
| 13> C 	 -42.9631 	 -12.6322 	 -18.882
| 14> H 	 -42.1896 	 -13.076 	 -18.2865
| 15> H 	 -42.9101 	 -13.0772 	 -19.9048
| 16> C 	 -44.2999 	 -12.948 	 -18.2147
| 17> H 	 -44.1588 	 -12.4878 	 -17.2239
| 18> H 	 -45.1369 	 -12.5074 	 -18.6957
| 19> C 	 -44.5341 	 -14.404 	 -18.1193
| 20> H 	 -45.5441 	 -14.6564 	 -17.7165
| 21> H 	 -44.4712 	 -14.9095 	 -19.1319
| 22> H 	 -43.8839 	 -14.89 	 -17.4824
| 23> S 	 -40.6872 	 -6.68019 	 -18.6244
| 24> C 	 -40.4369 	 -6.03015 	 -16.9857
| 25> C 	 -41.3367 	 -6.57942 	 -16.1155
| 26> C 	 -42.0022 	 -7.65597 	 -16.6162
| 27> C 	 -41.5758 	 -7.94969 	 -17.9185
| 28> H 	 -41.4994 	 -6.07988 	 -15.216
| 29> C 	 -43.1469 	 -8.26121 	 -15.8687
| 30> H 	 -43.139 	 -9.34337 	 -15.9897
| 31> H 	 -44.0888 	 -7.8916 	 -16.288
| 32> C 	 -43.243 	 -8.1177 	 -14.2801
| 33> H 	 -43.0958 	 -7.03615 	 -14.1259
| 34> H 	 -42.4616 	 -8.57413 	 -13.6501
| 35> C 	 -44.5913 	 -8.50501 	 -13.6551
| 36> H 	 -44.5494 	 -8.56096 	 -12.5954
| 37> H 	 -44.6715 	 -9.58763 	 -13.9102
| 38> H 	 -45.4769 	 -8.03128 	 -14.0053
| 39> H 	 -43.9327 	 -10.8806 	 -21.0563
| 40> H 	 -40.0364 	 -5.08875 	 -16.7667
| 41> *
| 42>
| 43>                          ****END OF INPUT****

CARTESIAN COORDINATES (ANGSTROEM)
---------------------------------
  S    -42.828500   -8.823770  -20.293300
  C    -43.231700  -10.488700  -20.329300
  C    -42.803800  -11.187900  -19.220200
  C    -42.219900  -10.322000  -18.306800
  C    -42.051900   -9.052060  -18.744300
  H    -41.842400  -10.673200  -17.357500
  C    -42.963100  -12.632200  -18.882000
  H    -42.189600  -13.076000  -18.286500
  H    -42.910100  -13.077200  -19.904800
  C    -44.299900  -12.948000  -18.214700
  H    -44.158800  -12.487800  -17.223900
  H    -45.136900  -12.507400  -18.695700
  C    -44.534100  -14.404000  -18.119300
  H    -45.544100  -14.656400  -17.716500
  H    -44.471200  -14.909500  -19.131900
  H    -43.883900  -14.890000  -17.482400
  S    -40.687200   -6.680190  -18.624400
  C    -40.436900   -6.030150  -16.985700
  C    -41.336700   -6.579420  -16.115500
  C    -42.002200   -7.655970  -16.616200
  C    -41.575800   -7.949690  -17.918500
  H    -41.499400   -6.079880  -15.216000
  C    -43.146900   -8.261210  -15.868700
  H    -43.139000   -9.343370  -15.989700
  H    -44.088800   -7.891600  -16.288000
  C    -43.243000   -8.117700  -14.280100
  H    -43.095800   -7.036150  -14.125900
  H    -42.461600   -8.574130  -13.650100
  C    -44.591300   -8.505010  -13.655100
  H    -44.549400   -8.560960  -12.595400
  H    -44.671500   -9.587630  -13.910200
  H    -45.476900   -8.031280  -14.005300
  H    -43.932700  -10.880600  -21.056300
  H    -40.036400   -5.088750  -16.766700

 Total Charge           Charge          ....    0
 Multiplicity           Mult            ....    1
 Number of Electrons    NEL             ....  134
 Basis Dimension        Dim             ....  322

ORBITAL ENERGIES
----------------

  NO   OCC          E(Eh)            E(eV)
   0   2.0000     -88.967906     -2420.9398
   1   2.0000     -88.967401     -2420.9261
   2   2.0000     -10.321761      -280.8694
   3   2.0000     -10.320467      -280.8342
   4   2.0000     -10.309217      -280.5280
   5   2.0000     -10.306998      -280.4677
   6   2.0000     -10.294751      -280.1344
   7   2.0000     -10.293878      -280.1107
   8   2.0000     -10.293862      -280.1102
   9   2.0000     -10.292365      -280.0695
  10   2.0000     -10.289433      -279.9897
  11   2.0000     -10.281789      -279.7817
  12   2.0000     -10.281602      -279.7766
  13   2.0000     -10.279940      -279.7314
  14   2.0000     -10.277730      -279.6713
  15   2.0000     -10.275684      -279.6156
  16   2.0000      -8.082928      -219.9476
  17   2.0000      -8.082892      -219.9467
  18   2.0000      -6.041246      -164.3907
  19   2.0000      -6.041186      -164.3890
  20   2.0000      -6.037740      -164.2953
  21   2.0000      -6.037415      -164.2864
  22   2.0000      -6.033699      -164.1853
  23   2.0000      -6.033598      -164.1825
  24   2.0000      -1.016587       -27.6627
  25   2.0000      -0.994821       -27.0705
  26   2.0000      -0.922025       -25.0896
  27   2.0000      -0.904394       -24.6098
  28   2.0000      -0.874239       -23.7893
  29   2.0000      -0.860080       -23.4040
  30   2.0000      -0.855384       -23.2762
  31   2.0000      -0.817918       -22.2567
  32   2.0000      -0.783556       -21.3217
  33   2.0000      -0.770573       -20.9683
  34   2.0000      -0.706130       -19.2148
  35   2.0000      -0.702385       -19.1129
  36   2.0000      -0.701113       -19.0782
  37   2.0000      -0.660978       -17.9861
  38   2.0000      -0.641896       -17.4669
  39   2.0000      -0.627634       -17.0788
  40   2.0000      -0.600092       -16.3293
  41   2.0000      -0.585840       -15.9415
  42   2.0000      -0.565384       -15.3849
  43   2.0000      -0.560268       -15.2457
  44   2.0000      -0.530682       -14.4406
  45   2.0000      -0.522781       -14.2256
  46   2.0000      -0.522447       -14.2165
  47   2.0000      -0.512903       -13.9568
  48   2.0000      -0.505914       -13.7666
  49   2.0000      -0.500764       -13.6265
  50   2.0000      -0.491501       -13.3744
  51   2.0000      -0.477796       -13.0015
  52   2.0000      -0.470858       -12.8127
  53   2.0000      -0.468610       -12.7515
  54   2.0000      -0.459480       -12.5031
  55   2.0000      -0.454644       -12.3715
  56   2.0000      -0.449154       -12.2221
  57   2.0000      -0.441947       -12.0260
  58   2.0000      -0.439095       -11.9484
  59   2.0000      -0.432267       -11.7626
  60   2.0000      -0.424874       -11.5614
  61   2.0000      -0.418823       -11.3967
  62   2.0000      -0.398571       -10.8457
  63   2.0000      -0.350909        -9.5487
  64   2.0000      -0.338211        -9.2032
  65   2.0000      -0.328963        -8.9515
  66   2.0000      -0.281329        -7.6554
  67   0.0000       0.024863         0.6766
  68   0.0000       0.067760         1.8438
  69   0.0000       0.102242         2.7822
  70   0.0000       0.123907         3.3717
  71   0.0000       0.133110         3.6221

MULLIKEN ATOMIC CHARGES
-----------------------
   0 S :    0.115948
   1 C :   -0.137461
   2 C :   -0.056854
   3 C :   -0.019427
   4 C :   -0.100576
   5 H :    0.008613
   6 C :    0.042341
   7 H :    0.023416
   8 H :    0.024160
   9 C :   -0.044633
  10 H :    0.021779
  11 H :    0.021331
  12 C :   -0.020854
  13 H :    0.032087
  14 H :    0.032030
  15 H :    0.008911
  16 S :    0.108228
  17 C :   -0.049658
  18 C :   -0.051475
  19 C :   -0.007096
  20 C :   -0.164291
  21 H :   -0.004549
  22 C :    0.082855
  23 H :    0.016207
  24 H :    0.044087
  25 C :   -0.116833
  26 H :    0.023674
  27 H :    0.037462
  28 C :   -0.023833
  29 H :    0.027372
  30 H :    0.016856
  31 H :    0.035298
  32 H :    0.045037
  33 H :    0.029847
Sum of atomic charges:    0.0000000

LOEWDIN ATOMIC CHARGES
----------------------
   0 S :    0.420488
   1 C :   -0.208739
   2 C :   -0.064639
   3 C :   -0.062202
   4 C :   -0.193959
   5 H :    0.029495
   6 C :   -0.029939
   7 H :    0.028207
   8 H :    0.033656
   9 C :   -0.037678
  10 H :    0.026684
  11 H :    0.020578
  12 C :   -0.064380
  13 H :    0.030466
  14 H :    0.031734
  15 H :    0.011707
  16 S :    0.418368
  17 C :   -0.173886
  18 C :   -0.058310
  19 C :   -0.064032
  20 C :   -0.206569
  21 H :    0.023606
  22 C :   -0.028519
  23 H :    0.027255
  24 H :    0.039410
  25 C :   -0.044597
  26 H :    0.015474
  27 H :    0.028396
  28 C :   -0.063544
  29 H :    0.024800
  30 H :    0.028941
  31 H :    0.020965
  32 H :    0.025620
  33 H :    0.015143

  Mayer bond orders larger than 0.100000
B(  0-S ,  1-C ) :   1.1556 B(  0-S ,  4-C ) :   1.1484 B(  1-C ,  2-C ) :   1.5874
B(  1-C , 32-H ) :   0.9653 B(  2-C ,  3-C ) :   1.2773 B(  2-C ,  6-C ) :   1.0197
B(  3-C ,  4-C ) :   1.5714 B(  3-C ,  5-H ) :   0.9969 B(  4-C , 20-C ) :   1.0441
B(  6-C ,  7-H ) :   0.9456 B(  6-C ,  8-H ) :   0.9347 B(  6-C ,  9-C ) :   1.0649
B(  9-C , 10-H ) :   0.9488 B(  9-C , 11-H ) :   0.9565 B(  9-C , 12-C ) :   1.0966
B( 12-C , 13-H ) :   0.9705 B( 12-C , 14-H ) :   0.9708 B( 12-C , 15-H ) :   0.9691
B( 16-S , 17-C ) :   1.1473 B( 16-S , 20-C ) :   1.1712 B( 17-C , 18-C ) :   1.5876
B( 17-C , 20-C ) :   0.1116 B( 17-C , 33-H ) :   0.9659 B( 18-C , 19-C ) :   1.2978
B( 18-C , 21-H ) :   0.9967 B( 19-C , 20-C ) :   1.5195 B( 19-C , 22-C ) :   1.0397
B( 22-C , 23-H ) :   0.9252 B( 22-C , 24-H ) :   0.9287 B( 22-C , 25-C ) :   1.0524
B( 25-C , 26-H ) :   0.9489 B( 25-C , 27-H ) :   0.9597 B( 25-C , 28-C ) :   1.0886
B( 28-C , 29-H ) :   0.9711 B( 28-C , 30-H ) :   0.9713 B( 28-C , 31-H ) :   0.9762

Dispersion correction           -0.013727228
FINAL SINGLE POINT ENERGY     -1339.853808824980

DIPOLE MOMENT
-------------
                                X             Y             Z
Electronic contribution:     15.68560      20.63826     -20.17462
Nuclear contribution   :    -16.21137     -20.95156      20.72333
                        -----------------------------------------
Total Dipole Moment    :     -0.52577      -0.31330       0.54872
                        -----------------------------------------
Magnitude (a.u.)       :      0.82200
Magnitude (Debye)      :      2.08936

Rotational constants in cm-1:     0.016632     0.009224     0.006395
Rotational constants in MHz :   498.613326   276.533124   191.729516

                             ****ORCA TERMINATED NORMALLY****
TOTAL RUN TIME: 0 days 0 hours 0 minutes 21 seconds 655 msec
