                         Program Version 4.2.1 -  RELEASE  -
|  1> ! wB97X-D3 SP def2-SVP
|  2> %pal
|  3> nprocs 24
|  4> end
|  5>
|  6> * xyz 0 1
|  7> S 	 -138.008 	 26.2467 	 -20.0629
|  8> C 	 -139.157 	 25.0873 	 -20.6479
|  9> C 	 -138.518 	 24.1062 	 -21.3776
| 10> C 	 -137.086 	 24.3895 	 -21.518
| 11> C 	 -136.693 	 25.4991 	 -20.7654
| 12> H 	 -136.408 	 23.8145 	 -22.0632
| 13> C 	 -139.166 	 22.8799 	 -21.9928
| 14> H 	 -139.222 	 22.945 	 -23.0762
| 15> H 	 -140.176 	 22.9655 	 -21.6481
| 16> C 	 -138.484 	 21.5118 	 -21.7284
| 17> H 	 -138.929 	 20.6581 	 -22.3059
| 18> H 	 -137.491 	 21.5334 	 -22.2608
| 19> C 	 -138.176 	 21.1492 	 -20.3128
| 20> H 	 -139.082 	 21.4868 	 -19.7843
| 21> H 	 -138.033 	 20.0654 	 -20.2623
| 22> H 	 -137.354 	 21.7513 	 -19.9567
| 23> S 	 -135.201 	 27.4579 	 -21.701
| 24> C 	 -133.568 	 27.7386 	 -21.0517
| 25> C 	 -133.172 	 26.6957 	 -20.2742
| 26> C 	 -134.208 	 25.7158 	 -20.0613
| 27> C 	 -135.379 	 26.0226 	 -20.8003
| 28> H 	 -132.219 	 26.716 	 -19.7282
| 29> C 	 -134.057 	 24.4644 	 -19.1767
| 30> H 	 -134.889 	 23.7874 	 -19.3531
| 31> H 	 -134.133 	 24.7389 	 -18.1025
| 32> C 	 -132.685 	 23.7258 	 -19.2736
| 33> H 	 -132.67 	 22.8715 	 -18.6297
| 34> H 	 -131.863 	 24.2994 	 -18.8263
| 35> C 	 -132.324 	 23.2083 	 -20.6725
| 36> H 	 -133.089 	 22.6331 	 -21.2044
| 37> H 	 -131.424 	 22.6175 	 -20.3414
| 38> H 	 -131.998 	 24.0313 	 -21.3432
| 39> H 	 -140.188 	 25.1126 	 -20.4935
| 40> H 	 -132.863 	 28.5169 	 -21.2906
| 41> *
| 42>
| 43>                          ****END OF INPUT****

CARTESIAN COORDINATES (ANGSTROEM)
---------------------------------
  S    -138.008000   26.246700  -20.062900
  C    -139.157000   25.087300  -20.647900
  C    -138.518000   24.106200  -21.377600
  C    -137.086000   24.389500  -21.518000
  C    -136.693000   25.499100  -20.765400
  H    -136.408000   23.814500  -22.063200
  C    -139.166000   22.879900  -21.992800
  H    -139.222000   22.945000  -23.076200
  H    -140.176000   22.965500  -21.648100
  C    -138.484000   21.511800  -21.728400
  H    -138.929000   20.658100  -22.305900
  H    -137.491000   21.533400  -22.260800
  C    -138.176000   21.149200  -20.312800
  H    -139.082000   21.486800  -19.784300
  H    -138.033000   20.065400  -20.262300
  H    -137.354000   21.751300  -19.956700
  S    -135.201000   27.457900  -21.701000
  C    -133.568000   27.738600  -21.051700
  C    -133.172000   26.695700  -20.274200
  C    -134.208000   25.715800  -20.061300
  C    -135.379000   26.022600  -20.800300
  H    -132.219000   26.716000  -19.728200
  C    -134.057000   24.464400  -19.176700
  H    -134.889000   23.787400  -19.353100
  H    -134.133000   24.738900  -18.102500
  C    -132.685000   23.725800  -19.273600
  H    -132.670000   22.871500  -18.629700
  H    -131.863000   24.299400  -18.826300
  C    -132.324000   23.208300  -20.672500
  H    -133.089000   22.633100  -21.204400
  H    -131.424000   22.617500  -20.341400
  H    -131.998000   24.031300  -21.343200
  H    -140.188000   25.112600  -20.493500
  H    -132.863000   28.516900  -21.290600

 Total Charge           Charge          ....    0
 Multiplicity           Mult            ....    1
 Number of Electrons    NEL             ....  134
 Basis Dimension        Dim             ....  322

ORBITAL ENERGIES
----------------

  NO   OCC          E(Eh)            E(eV)
   0   2.0000     -88.966857     -2420.9113
   1   2.0000     -88.965118     -2420.8639
   2   2.0000     -10.320969      -280.8478
   3   2.0000     -10.320604      -280.8379
   4   2.0000     -10.315326      -280.6943
   5   2.0000     -10.309874      -280.5459
   6   2.0000     -10.307867      -280.4913
   7   2.0000     -10.303500      -280.3725
   8   2.0000     -10.294316      -280.1226
   9   2.0000     -10.293361      -280.0966
  10   2.0000     -10.291787      -280.0538
  11   2.0000     -10.290633      -280.0224
  12   2.0000     -10.289945      -280.0036
  13   2.0000     -10.287006      -279.9237
  14   2.0000     -10.280653      -279.7508
  15   2.0000     -10.273121      -279.5458
  16   2.0000      -8.083297      -219.9577
  17   2.0000      -8.080212      -219.8737
  18   2.0000      -6.041702      -164.4031
  19   2.0000      -6.038778      -164.3235
  20   2.0000      -6.037411      -164.2863
  21   2.0000      -6.034545      -164.2083
  22   2.0000      -6.034190      -164.1987
  23   2.0000      -6.030992      -164.1116
  24   2.0000      -1.016091       -27.6492
  25   2.0000      -0.985983       -26.8300
  26   2.0000      -0.914487       -24.8844
  27   2.0000      -0.902288       -24.5525
  28   2.0000      -0.878384       -23.9020
  29   2.0000      -0.848496       -23.0888
  30   2.0000      -0.843913       -22.9640
  31   2.0000      -0.817917       -22.2566
  32   2.0000      -0.786092       -21.3906
  33   2.0000      -0.770932       -20.9781
  34   2.0000      -0.711720       -19.3669
  35   2.0000      -0.693804       -18.8794
  36   2.0000      -0.692162       -18.8347
  37   2.0000      -0.654190       -17.8014
  38   2.0000      -0.646169       -17.5832
  39   2.0000      -0.618617       -16.8334
  40   2.0000      -0.591906       -16.1066
  41   2.0000      -0.570292       -15.5184
  42   2.0000      -0.556415       -15.1408
  43   2.0000      -0.546361       -14.8672
  44   2.0000      -0.542561       -14.7638
  45   2.0000      -0.540388       -14.7047
  46   2.0000      -0.520307       -14.1583
  47   2.0000      -0.513298       -13.9676
  48   2.0000      -0.508640       -13.8408
  49   2.0000      -0.505091       -13.7442
  50   2.0000      -0.498498       -13.5648
  51   2.0000      -0.477412       -12.9910
  52   2.0000      -0.472386       -12.8543
  53   2.0000      -0.465747       -12.6736
  54   2.0000      -0.453856       -12.3500
  55   2.0000      -0.448513       -12.2047
  56   2.0000      -0.445345       -12.1184
  57   2.0000      -0.438207       -11.9242
  58   2.0000      -0.431225       -11.7342
  59   2.0000      -0.424649       -11.5553
  60   2.0000      -0.414501       -11.2791
  61   2.0000      -0.412840       -11.2339
  62   2.0000      -0.401038       -10.9128
  63   2.0000      -0.340722        -9.2715
  64   2.0000      -0.327831        -8.9207
  65   2.0000      -0.324144        -8.8204
  66   2.0000      -0.303311        -8.2535
  67   0.0000       0.042626         1.1599
  68   0.0000       0.063126         1.7177
  69   0.0000       0.116526         3.1708
  70   0.0000       0.120153         3.2695
  71   0.0000       0.126660         3.4466

MULLIKEN ATOMIC CHARGES
-----------------------
   0 S :    0.140560
   1 C :   -0.107519
   2 C :   -0.107888
   3 C :    0.047893
   4 C :   -0.155877
   5 H :   -0.012296
   6 C :    0.118717
   7 H :    0.037800
   8 H :    0.004041
   9 C :   -0.144992
  10 H :    0.034260
  11 H :    0.019597
  12 C :   -0.010241
  13 H :    0.025793
  14 H :    0.042104
  15 H :    0.039541
  16 S :    0.119004
  17 C :   -0.083366
  18 C :   -0.043297
  19 C :   -0.026858
  20 C :   -0.197739
  21 H :    0.029432
  22 C :    0.086830
  23 H :    0.025049
  24 H :    0.037076
  25 C :   -0.096762
  26 H :    0.018476
  27 H :    0.025256
  28 C :   -0.067829
  29 H :    0.041969
  30 H :    0.040000
  31 H :    0.045125
  32 H :    0.025138
  33 H :    0.051003
Sum of atomic charges:   -0.0000000

LOEWDIN ATOMIC CHARGES
----------------------
   0 S :    0.457042
   1 C :   -0.199717
   2 C :   -0.058358
   3 C :   -0.052147
   4 C :   -0.233844
   5 H :    0.017740
   6 C :   -0.032351
   7 H :    0.037153
   8 H :    0.023086
   9 C :   -0.055916
  10 H :    0.029305
  11 H :    0.022520
  12 C :   -0.065388
  13 H :    0.027775
  14 H :    0.031428
  15 H :    0.025420
  16 S :    0.421759
  17 C :   -0.179636
  18 C :   -0.074930
  19 C :   -0.050673
  20 C :   -0.220803
  21 H :    0.036591
  22 C :   -0.035197
  23 H :    0.027964
  24 H :    0.037029
  25 C :   -0.047485
  26 H :    0.021571
  27 H :    0.024178
  28 C :   -0.072090
  29 H :    0.025471
  30 H :    0.036293
  31 H :    0.027731
  32 H :    0.017976
  33 H :    0.030503

  Mayer bond orders larger than 0.100000
B(  0-S ,  1-C ) :   1.1453 B(  0-S ,  4-C ) :   1.1848 B(  1-C ,  2-C ) :   1.6012
B(  1-C , 32-H ) :   0.9741 B(  2-C ,  3-C ) :   1.2353 B(  2-C ,  6-C ) :   1.0242
B(  3-C ,  4-C ) :   1.5384 B(  3-C ,  5-H ) :   1.0070 B(  4-C , 20-C ) :   1.0296
B(  6-C ,  7-H ) :   0.9346 B(  6-C ,  8-H ) :   0.9356 B(  6-C ,  9-C ) :   1.0706
B(  9-C , 10-H ) :   0.9570 B(  9-C , 11-H ) :   0.9481 B(  9-C , 12-C ) :   1.0747
B( 12-C , 13-H ) :   0.9780 B( 12-C , 14-H ) :   0.9714 B( 12-C , 15-H ) :   0.9689
B( 16-S , 17-C ) :   1.1403 B( 16-S , 20-C ) :   1.1663 B( 17-C , 18-C ) :   1.6342
B( 17-C , 33-H ) :   0.9643 B( 18-C , 19-C ) :   1.2432 B( 18-C , 21-H ) :   0.9800
B( 19-C , 20-C ) :   1.5784 B( 19-C , 22-C ) :   1.0401 B( 22-C , 23-H ) :   0.9396
B( 22-C , 24-H ) :   0.9289 B( 22-C , 25-C ) :   1.0760 B( 25-C , 26-H ) :   0.9576
B( 25-C , 27-H ) :   0.9495 B( 25-C , 28-C ) :   1.0647 B( 28-C , 29-H ) :   0.9771
B( 28-C , 30-H ) :   0.9771 B( 28-C , 31-H ) :   0.9738

Dispersion correction           -0.014950969
FINAL SINGLE POINT ENERGY     -1339.872612291232

DIPOLE MOMENT
-------------
                                X             Y             Z
Electronic contribution:     -6.56374      26.94510      -2.27471
Nuclear contribution   :      6.76436     -27.42729       2.35568
                        -----------------------------------------
Total Dipole Moment    :      0.20062      -0.48218       0.08097
                        -----------------------------------------
Magnitude (a.u.)       :      0.52849
Magnitude (Debye)      :      1.34332

Rotational constants in cm-1:     0.018254     0.009753     0.007205
Rotational constants in MHz :   547.249890   292.393260   215.988713

                             ****ORCA TERMINATED NORMALLY****
TOTAL RUN TIME: 0 days 0 hours 0 minutes 20 seconds 984 msec
