                         Program Version 4.2.1 -  RELEASE  -
|  1> ! wB97X-D3 SP def2-SVP
|  2> %pal
|  3> nprocs 24
|  4> end
|  5>
|  6> * xyz 0 1
|  7> S 	 -60.2612 	 8.40791 	 -92.4888
|  8> C 	 -59.6735 	 9.96753 	 -91.9436
|  9> C 	 -59.7493 	 10.9118 	 -92.9353
| 10> C 	 -60.3448 	 10.3787 	 -94.1402
| 11> C 	 -60.6534 	 9.05257 	 -94.0681
| 12> H 	 -60.5096 	 10.9696 	 -95.0415
| 13> C 	 -59.26 	 12.3834 	 -92.9483
| 14> H 	 -59.0635 	 12.6532 	 -93.9214
| 15> H 	 -58.2156 	 12.4021 	 -92.4592
| 16> C 	 -60.1767 	 13.4365 	 -92.2777
| 17> H 	 -61.2186 	 13.3591 	 -92.4973
| 18> H 	 -60.0978 	 13.1655 	 -91.1842
| 19> C 	 -59.6685 	 14.9233 	 -92.1693
| 20> H 	 -60.2281 	 15.4847 	 -91.4754
| 21> H 	 -58.6104 	 14.921 	 -91.829
| 22> H 	 -59.7737 	 15.5111 	 -93.0411
| 23> S 	 -60.316 	 6.78016 	 -95.6365
| 24> C 	 -61.6311 	 6.23693 	 -96.6428
| 25> C 	 -62.7198 	 7.09492 	 -96.5311
| 26> C 	 -62.4815 	 8.19866 	 -95.6766
| 27> C 	 -61.2357 	 8.15855 	 -95.0808
| 28> H 	 -63.5415 	 6.88742 	 -97.2015
| 29> C 	 -63.4891 	 9.30883 	 -95.4373
| 30> H 	 -63.8471 	 9.69478 	 -96.3961
| 31> H 	 -63.017 	 10.1033 	 -94.8587
| 32> C 	 -64.6619 	 8.78719 	 -94.6059
| 33> H 	 -64.3323 	 8.3852 	 -93.5987
| 34> H 	 -65.0804 	 7.89356 	 -95.0208
| 35> C 	 -65.9216 	 9.7568 	 -94.4493
| 36> H 	 -65.6245 	 10.5655 	 -93.8228
| 37> H 	 -66.6805 	 9.20275 	 -93.9461
| 38> H 	 -66.1116 	 10.1945 	 -95.4464
| 39> H 	 -59.2853 	 10.1867 	 -90.9232
| 40> H 	 -61.5927 	 5.38359 	 -97.3471
| 41> *
| 42>
| 43>                          ****END OF INPUT****

CARTESIAN COORDINATES (ANGSTROEM)
---------------------------------
  S    -60.261200    8.407910  -92.488800
  C    -59.673500    9.967530  -91.943600
  C    -59.749300   10.911800  -92.935300
  C    -60.344800   10.378700  -94.140200
  C    -60.653400    9.052570  -94.068100
  H    -60.509600   10.969600  -95.041500
  C    -59.260000   12.383400  -92.948300
  H    -59.063500   12.653200  -93.921400
  H    -58.215600   12.402100  -92.459200
  C    -60.176700   13.436500  -92.277700
  H    -61.218600   13.359100  -92.497300
  H    -60.097800   13.165500  -91.184200
  C    -59.668500   14.923300  -92.169300
  H    -60.228100   15.484700  -91.475400
  H    -58.610400   14.921000  -91.829000
  H    -59.773700   15.511100  -93.041100
  S    -60.316000    6.780160  -95.636500
  C    -61.631100    6.236930  -96.642800
  C    -62.719800    7.094920  -96.531100
  C    -62.481500    8.198660  -95.676600
  C    -61.235700    8.158550  -95.080800
  H    -63.541500    6.887420  -97.201500
  C    -63.489100    9.308830  -95.437300
  H    -63.847100    9.694780  -96.396100
  H    -63.017000   10.103300  -94.858700
  C    -64.661900    8.787190  -94.605900
  H    -64.332300    8.385200  -93.598700
  H    -65.080400    7.893560  -95.020800
  C    -65.921600    9.756800  -94.449300
  H    -65.624500   10.565500  -93.822800
  H    -66.680500    9.202750  -93.946100
  H    -66.111600   10.194500  -95.446400
  H    -59.285300   10.186700  -90.923200
  H    -61.592700    5.383590  -97.347100

 Total Charge           Charge          ....    0
 Multiplicity           Mult            ....    1
 Number of Electrons    NEL             ....  134
 Basis Dimension        Dim             ....  322

ORBITAL ENERGIES
----------------

  NO   OCC          E(Eh)            E(eV)
   0   2.0000     -88.966182     -2420.8929
   1   2.0000     -88.966141     -2420.8918
   2   2.0000     -10.328901      -281.0637
   3   2.0000     -10.324874      -280.9541
   4   2.0000     -10.319934      -280.8197
   5   2.0000     -10.317983      -280.7666
   6   2.0000     -10.304016      -280.3865
   7   2.0000     -10.302554      -280.3467
   8   2.0000     -10.297757      -280.2162
   9   2.0000     -10.294215      -280.1198
  10   2.0000     -10.293478      -280.0998
  11   2.0000     -10.292516      -280.0736
  12   2.0000     -10.290645      -280.0227
  13   2.0000     -10.284201      -279.8473
  14   2.0000     -10.278075      -279.6806
  15   2.0000     -10.276012      -279.6245
  16   2.0000      -8.080985      -219.8948
  17   2.0000      -8.080852      -219.8912
  18   2.0000      -6.039419      -164.3409
  19   2.0000      -6.039396      -164.3403
  20   2.0000      -6.035407      -164.2318
  21   2.0000      -6.035354      -164.2303
  22   2.0000      -6.031901      -164.1364
  23   2.0000      -6.031570      -164.1274
  24   2.0000      -1.007660       -27.4198
  25   2.0000      -0.985330       -26.8122
  26   2.0000      -0.904046       -24.6003
  27   2.0000      -0.903452       -24.5842
  28   2.0000      -0.867209       -23.5980
  29   2.0000      -0.848084       -23.0775
  30   2.0000      -0.844002       -22.9665
  31   2.0000      -0.814518       -22.1642
  32   2.0000      -0.785421       -21.3724
  33   2.0000      -0.773363       -21.0443
  34   2.0000      -0.704746       -19.1771
  35   2.0000      -0.699689       -19.0395
  36   2.0000      -0.693059       -18.8591
  37   2.0000      -0.658448       -17.9173
  38   2.0000      -0.640429       -17.4270
  39   2.0000      -0.619645       -16.8614
  40   2.0000      -0.594413       -16.1748
  41   2.0000      -0.567851       -15.4520
  42   2.0000      -0.559820       -15.2335
  43   2.0000      -0.556161       -15.1339
  44   2.0000      -0.529827       -14.4173
  45   2.0000      -0.522438       -14.2163
  46   2.0000      -0.518695       -14.1144
  47   2.0000      -0.508529       -13.8378
  48   2.0000      -0.501736       -13.6529
  49   2.0000      -0.495697       -13.4886
  50   2.0000      -0.490769       -13.3545
  51   2.0000      -0.482366       -13.1258
  52   2.0000      -0.470974       -12.8158
  53   2.0000      -0.465693       -12.6722
  54   2.0000      -0.461374       -12.5546
  55   2.0000      -0.451182       -12.2773
  56   2.0000      -0.446243       -12.1429
  57   2.0000      -0.441037       -12.0012
  58   2.0000      -0.435591       -11.8530
  59   2.0000      -0.423184       -11.5154
  60   2.0000      -0.414558       -11.2807
  61   2.0000      -0.411906       -11.2085
  62   2.0000      -0.406967       -11.0741
  63   2.0000      -0.342356        -9.3160
  64   2.0000      -0.333769        -9.0823
  65   2.0000      -0.329579        -8.9683
  66   2.0000      -0.300568        -8.1789
  67   0.0000       0.039737         1.0813
  68   0.0000       0.064315         1.7501
  69   0.0000       0.118053         3.2124
  70   0.0000       0.122900         3.3443
  71   0.0000       0.128196         3.4884

MULLIKEN ATOMIC CHARGES
-----------------------
   0 S :    0.115484
   1 C :   -0.140129
   2 C :   -0.092259
   3 C :    0.037743
   4 C :   -0.164507
   5 H :    0.018591
   6 C :    0.088820
   7 H :    0.000737
   8 H :    0.035528
   9 C :   -0.091381
  10 H :    0.031889
  11 H :    0.027819
  12 C :   -0.028085
  13 H :    0.022030
  14 H :    0.033354
  15 H :    0.023205
  16 S :    0.116997
  17 C :   -0.114357
  18 C :   -0.044085
  19 C :   -0.017577
  20 C :   -0.177214
  21 H :    0.020223
  22 C :    0.129173
  23 H :    0.024019
  24 H :    0.023279
  25 C :   -0.141002
  26 H :    0.031577
  27 H :    0.016006
  28 C :   -0.009430
  29 H :    0.022308
  30 H :    0.038466
  31 H :    0.031315
  32 H :    0.061622
  33 H :    0.069841
Sum of atomic charges:    0.0000000

LOEWDIN ATOMIC CHARGES
----------------------
   0 S :    0.405894
   1 C :   -0.200064
   2 C :   -0.064569
   3 C :   -0.062984
   4 C :   -0.193281
   5 H :    0.034177
   6 C :   -0.027475
   7 H :    0.013090
   8 H :    0.041109
   9 C :   -0.043827
  10 H :    0.020078
  11 H :    0.031212
  12 C :   -0.062126
  13 H :    0.022379
  14 H :    0.030940
  15 H :    0.015699
  16 S :    0.413170
  17 C :   -0.191069
  18 C :   -0.074755
  19 C :   -0.051456
  20 C :   -0.209007
  21 H :    0.032686
  22 C :   -0.027518
  23 H :    0.030102
  24 H :    0.030821
  25 C :   -0.044572
  26 H :    0.029384
  27 H :    0.013623
  28 C :   -0.058718
  29 H :    0.018627
  30 H :    0.025436
  31 H :    0.027410
  32 H :    0.038098
  33 H :    0.037485

  Mayer bond orders larger than 0.100000
B(  0-S ,  1-C ) :   1.1325 B(  0-S ,  4-C ) :   1.1517 B(  1-C ,  2-C ) :   1.6402
B(  1-C , 32-H ) :   0.9634 B(  2-C ,  3-C ) :   1.2276 B(  2-C ,  6-C ) :   1.0137
B(  3-C ,  4-C ) :   1.6053 B(  3-C ,  5-H ) :   0.9929 B(  4-C , 20-C ) :   1.0038
B(  6-C ,  7-H ) :   0.9428 B(  6-C ,  8-H ) :   0.9415 B(  6-C ,  9-C ) :   1.0528
B(  9-C , 10-H ) :   0.9626 B(  9-C , 11-H ) :   0.9603 B(  9-C , 12-C ) :   1.0716
B( 12-C , 13-H ) :   0.9747 B( 12-C , 14-H ) :   0.9745 B( 12-C , 15-H ) :   0.9771
B( 16-S , 17-C ) :   1.1645 B( 16-S , 20-C ) :   1.1506 B( 17-C , 18-C ) :   1.6036
B( 17-C , 20-C ) :   0.1011 B( 17-C , 33-H ) :   0.9634 B( 18-C , 19-C ) :   1.2368
B( 18-C , 21-H ) :   0.9926 B( 19-C , 20-C ) :   1.5966 B( 19-C , 22-C ) :   1.0492
B( 22-C , 23-H ) :   0.9292 B( 22-C , 24-H ) :   0.9262 B( 22-C , 25-C ) :   1.0604
B( 25-C , 26-H ) :   0.9517 B( 25-C , 27-H ) :   0.9635 B( 25-C , 28-C ) :   1.0710
B( 28-C , 29-H ) :   0.9784 B( 28-C , 30-H ) :   0.9755 B( 28-C , 31-H ) :   0.9746

Dispersion correction           -0.013657056
FINAL SINGLE POINT ENERGY     -1339.881830082823

DIPOLE MOMENT
-------------
                                X             Y             Z
Electronic contribution:     13.04800     -25.88459      -4.48878
Nuclear contribution   :    -13.30849      26.40627       4.35128
                        -----------------------------------------
Total Dipole Moment    :     -0.26049       0.52167      -0.13750
                        -----------------------------------------
Magnitude (a.u.)       :      0.59908
Magnitude (Debye)      :      1.52275

Rotational constants in cm-1:     0.018201     0.007901     0.006312
Rotational constants in MHz :   545.655238   236.880787   189.218727

                             ****ORCA TERMINATED NORMALLY****
TOTAL RUN TIME: 0 days 0 hours 0 minutes 19 seconds 604 msec
