                         Program Version 4.2.1 -  RELEASE  -
|  1> ! wB97X-D3 SP def2-SVP
|  2> %pal
|  3> nprocs 24
|  4> end
|  5>
|  6> * xyz 0 1
|  7> S 	 -51.7256 	 21.4373 	 32.5148
|  8> C 	 -50.0039 	 21.8895 	 32.571
|  9> C 	 -49.235 	 20.7995 	 32.8509
| 10> C 	 -50.0254 	 19.6122 	 33.1483
| 11> C 	 -51.3968 	 19.7218 	 32.9939
| 12> H 	 -49.6391 	 18.6412 	 33.4589
| 13> C 	 -47.7778 	 20.9137 	 33.2177
| 14> H 	 -47.4556 	 20.0084 	 33.7955
| 15> H 	 -47.6188 	 21.7868 	 33.8758
| 16> C 	 -46.7765 	 21.0381 	 32.0456
| 17> H 	 -47.1252 	 21.7907 	 31.3801
| 18> H 	 -45.8985 	 21.399 	 32.5472
| 19> C 	 -46.5282 	 19.6785 	 31.2412
| 20> H 	 -45.8456 	 19.8176 	 30.4374
| 21> H 	 -46.1163 	 18.8412 	 31.7293
| 22> H 	 -47.4812 	 19.2821 	 30.904
| 23> S 	 -53.2279 	 19.1436 	 35.004
| 24> C 	 -54.346 	 17.8922 	 34.7046
| 25> C 	 -54.0577 	 17.204 	 33.5397
| 26> C 	 -52.8878 	 17.6964 	 32.8357
| 27> C 	 -52.4541 	 18.8205 	 33.4772
| 28> H 	 -54.6476 	 16.369 	 33.2032
| 29> C 	 -52.521 	 17.1237 	 31.4347
| 30> H 	 -52.7944 	 17.9415 	 30.7658
| 31> H 	 -53.2014 	 16.2792 	 31.2784
| 32> C 	 -51.122 	 16.5919 	 31.15
| 33> H 	 -50.9887 	 15.6886 	 31.735
| 34> H 	 -50.4749 	 17.3651 	 31.5761
| 35> C 	 -50.9094 	 16.3532 	 29.6083
| 36> H 	 -51.3144 	 15.3749 	 29.2689
| 37> H 	 -49.8243 	 16.2076 	 29.5343
| 38> H 	 -51.308 	 17.215 	 29.0204
| 39> H 	 -49.7052 	 22.9121 	 32.4495
| 40> H 	 -55.2615 	 17.7128 	 35.2409
| 41> *
| 42>
| 43>                          ****END OF INPUT****

CARTESIAN COORDINATES (ANGSTROEM)
---------------------------------
  S    -51.725600   21.437300   32.514800
  C    -50.003900   21.889500   32.571000
  C    -49.235000   20.799500   32.850900
  C    -50.025400   19.612200   33.148300
  C    -51.396800   19.721800   32.993900
  H    -49.639100   18.641200   33.458900
  C    -47.777800   20.913700   33.217700
  H    -47.455600   20.008400   33.795500
  H    -47.618800   21.786800   33.875800
  C    -46.776500   21.038100   32.045600
  H    -47.125200   21.790700   31.380100
  H    -45.898500   21.399000   32.547200
  C    -46.528200   19.678500   31.241200
  H    -45.845600   19.817600   30.437400
  H    -46.116300   18.841200   31.729300
  H    -47.481200   19.282100   30.904000
  S    -53.227900   19.143600   35.004000
  C    -54.346000   17.892200   34.704600
  C    -54.057700   17.204000   33.539700
  C    -52.887800   17.696400   32.835700
  C    -52.454100   18.820500   33.477200
  H    -54.647600   16.369000   33.203200
  C    -52.521000   17.123700   31.434700
  H    -52.794400   17.941500   30.765800
  H    -53.201400   16.279200   31.278400
  C    -51.122000   16.591900   31.150000
  H    -50.988700   15.688600   31.735000
  H    -50.474900   17.365100   31.576100
  C    -50.909400   16.353200   29.608300
  H    -51.314400   15.374900   29.268900
  H    -49.824300   16.207600   29.534300
  H    -51.308000   17.215000   29.020400
  H    -49.705200   22.912100   32.449500
  H    -55.261500   17.712800   35.240900

 Total Charge           Charge          ....    0
 Multiplicity           Mult            ....    1
 Number of Electrons    NEL             ....  134
 Basis Dimension        Dim             ....  322

ORBITAL ENERGIES
----------------

  NO   OCC          E(Eh)            E(eV)
   0   2.0000     -88.967363     -2420.9250
   1   2.0000     -88.960308     -2420.7330
   2   2.0000     -10.332045      -281.1492
   3   2.0000     -10.322750      -280.8963
   4   2.0000     -10.317452      -280.7522
   5   2.0000     -10.312586      -280.6197
   6   2.0000     -10.303390      -280.3695
   7   2.0000     -10.302094      -280.3342
   8   2.0000     -10.300105      -280.2801
   9   2.0000     -10.294842      -280.1369
  10   2.0000     -10.292816      -280.0818
  11   2.0000     -10.291236      -280.0388
  12   2.0000     -10.287535      -279.9380
  13   2.0000     -10.287403      -279.9345
  14   2.0000     -10.285740      -279.8892
  15   2.0000     -10.273536      -279.5571
  16   2.0000      -8.083028      -219.9504
  17   2.0000      -8.074014      -219.7051
  18   2.0000      -6.041450      -164.3962
  19   2.0000      -6.037483      -164.2883
  20   2.0000      -6.033741      -164.1864
  21   2.0000      -6.032703      -164.1582
  22   2.0000      -6.028590      -164.0463
  23   2.0000      -6.024708      -163.9407
  24   2.0000      -1.005631       -27.3646
  25   2.0000      -0.979946       -26.6657
  26   2.0000      -0.906421       -24.6650
  27   2.0000      -0.904015       -24.5995
  28   2.0000      -0.865477       -23.5508
  29   2.0000      -0.850030       -23.1305
  30   2.0000      -0.836580       -22.7645
  31   2.0000      -0.812686       -22.1143
  32   2.0000      -0.782719       -21.2989
  33   2.0000      -0.774361       -21.0714
  34   2.0000      -0.705962       -19.2102
  35   2.0000      -0.704846       -19.1798
  36   2.0000      -0.688886       -18.7455
  37   2.0000      -0.661127       -17.9902
  38   2.0000      -0.644949       -17.5500
  39   2.0000      -0.608925       -16.5697
  40   2.0000      -0.592607       -16.1256
  41   2.0000      -0.572962       -15.5911
  42   2.0000      -0.567447       -15.4410
  43   2.0000      -0.545795       -14.8518
  44   2.0000      -0.533305       -14.5120
  45   2.0000      -0.518795       -14.1171
  46   2.0000      -0.515054       -14.0153
  47   2.0000      -0.508729       -13.8432
  48   2.0000      -0.505788       -13.7632
  49   2.0000      -0.494239       -13.4489
  50   2.0000      -0.487450       -13.2642
  51   2.0000      -0.481422       -13.1002
  52   2.0000      -0.475516       -12.9394
  53   2.0000      -0.466488       -12.6938
  54   2.0000      -0.459083       -12.4923
  55   2.0000      -0.449597       -12.2341
  56   2.0000      -0.442205       -12.0330
  57   2.0000      -0.438631       -11.9358
  58   2.0000      -0.431457       -11.7406
  59   2.0000      -0.422842       -11.5061
  60   2.0000      -0.420853       -11.4520
  61   2.0000      -0.411746       -11.2042
  62   2.0000      -0.409656       -11.1473
  63   2.0000      -0.335396        -9.1266
  64   2.0000      -0.331064        -9.0087
  65   2.0000      -0.321196        -8.7402
  66   2.0000      -0.309370        -8.4184
  67   0.0000       0.034002         0.9253
  68   0.0000       0.061241         1.6664
  69   0.0000       0.113516         3.0889
  70   0.0000       0.121273         3.3000
  71   0.0000       0.126361         3.4385

MULLIKEN ATOMIC CHARGES
-----------------------
   0 S :    0.078552
   1 C :   -0.128407
   2 C :   -0.039088
   3 C :    0.050823
   4 C :   -0.184426
   5 H :    0.023908
   6 C :   -0.006008
   7 H :    0.030859
   8 H :    0.041718
   9 C :   -0.033623
  10 H :    0.022744
  11 H :    0.023962
  12 C :   -0.039983
  13 H :    0.029267
  14 H :    0.013184
  15 H :    0.030308
  16 S :    0.144235
  17 C :   -0.084272
  18 C :   -0.044554
  19 C :   -0.021187
  20 C :   -0.197859
  21 H :    0.012115
  22 C :    0.062579
  23 H :    0.043453
  24 H :    0.014180
  25 C :   -0.080044
  26 H :    0.027862
  27 H :    0.030503
  28 C :   -0.057511
  29 H :    0.038812
  30 H :    0.037882
  31 H :    0.052409
  32 H :    0.052650
  33 H :    0.054957
Sum of atomic charges:   -0.0000000

LOEWDIN ATOMIC CHARGES
----------------------
   0 S :    0.358210
   1 C :   -0.169121
   2 C :   -0.075652
   3 C :   -0.054958
   4 C :   -0.181383
   5 H :    0.030692
   6 C :   -0.036307
   7 H :    0.033739
   8 H :    0.035186
   9 C :   -0.027876
  10 H :    0.018511
  11 H :    0.021314
  12 C :   -0.065284
  13 H :    0.023524
  14 H :    0.018428
  15 H :    0.026960
  16 S :    0.432965
  17 C :   -0.200683
  18 C :   -0.069929
  19 C :   -0.049424
  20 C :   -0.214384
  21 H :    0.026249
  22 C :   -0.029250
  23 H :    0.035501
  24 H :    0.027356
  25 C :   -0.042710
  26 H :    0.023653
  27 H :    0.022200
  28 C :   -0.066437
  29 H :    0.028559
  30 H :    0.030075
  31 H :    0.033225
  32 H :    0.026899
  33 H :    0.030150

  Mayer bond orders larger than 0.100000
B(  0-S ,  1-C ) :   1.1375 B(  0-S ,  4-C ) :   1.1254 B(  1-C ,  2-C ) :   1.6171
B(  1-C , 32-H ) :   0.9738 B(  2-C ,  3-C ) :   1.2152 B(  2-C ,  6-C ) :   1.0162
B(  3-C ,  4-C ) :   1.6157 B(  3-C ,  5-H ) :   0.9793 B(  4-C , 20-C ) :   1.0205
B(  6-C ,  7-H ) :   0.9494 B(  6-C ,  8-H ) :   0.9514 B(  6-C ,  9-C ) :   1.0675
B(  9-C , 10-H ) :   0.9610 B(  9-C , 11-H ) :   0.9582 B(  9-C , 12-C ) :   1.0625
B( 12-C , 13-H ) :   0.9777 B( 12-C , 14-H ) :   0.9766 B( 12-C , 15-H ) :   0.9781
B( 16-S , 17-C ) :   1.1538 B( 16-S , 20-C ) :   1.1514 B( 17-C , 18-C ) :   1.6240
B( 17-C , 33-H ) :   0.9654 B( 18-C , 19-C ) :   1.2408 B( 18-C , 21-H ) :   0.9869
B( 19-C , 20-C ) :   1.6171 B( 19-C , 22-C ) :   1.0210 B( 22-C , 23-H ) :   0.9350
B( 22-C , 24-H ) :   0.9388 B( 22-C , 25-C ) :   1.0656 B( 25-C , 26-H ) :   0.9514
B( 25-C , 27-H ) :   0.9565 B( 25-C , 28-C ) :   1.0722 B( 28-C , 29-H ) :   0.9755
B( 28-C , 30-H ) :   0.9748 B( 28-C , 31-H ) :   0.9755

Dispersion correction           -0.014382164
FINAL SINGLE POINT ENERGY     -1339.874330373362

DIPOLE MOMENT
-------------
                                X             Y             Z
Electronic contribution:    -21.43598      11.20703      16.38938
Nuclear contribution   :     21.79350     -11.51152     -16.49457
                        -----------------------------------------
Total Dipole Moment    :      0.35752      -0.30449      -0.10519
                        -----------------------------------------
Magnitude (a.u.)       :      0.48124
Magnitude (Debye)      :      1.22322

Rotational constants in cm-1:     0.017746     0.009144     0.006895
Rotational constants in MHz :   531.996970   274.122688   206.710325

                             ****ORCA TERMINATED NORMALLY****
TOTAL RUN TIME: 0 days 0 hours 0 minutes 21 seconds 649 msec
