                         Program Version 4.2.1 -  RELEASE  -
|  1> ! wB97X-D3 SP def2-SVP
|  2> %pal
|  3> nprocs 24
|  4> end
|  5>
|  6> * xyz 0 1
|  7> S 	 -82.8552 	 1.22386 	 -113.324
|  8> C 	 -82.8006 	 2.99915 	 -113.69
|  9> C 	 -83.9877 	 3.36215 	 -114.345
| 10> C 	 -85.0431 	 2.30134 	 -114.275
| 11> C 	 -84.5918 	 1.0608 	 -113.779
| 12> H 	 -86.0743 	 2.2783 	 -114.532
| 13> C 	 -84.3459 	 4.81018 	 -114.616
| 14> H 	 -84.2768 	 4.80108 	 -115.729
| 15> H 	 -83.4665 	 5.37337 	 -114.361
| 16> C 	 -85.6386 	 5.32504 	 -114.012
| 17> H 	 -85.9651 	 6.28075 	 -114.4
| 18> H 	 -86.4047 	 4.70417 	 -114.333
| 19> C 	 -85.6819 	 5.50603 	 -112.45
| 20> H 	 -85.368 	 4.60762 	 -111.871
| 21> H 	 -85.0277 	 6.29905 	 -112.205
| 22> H 	 -86.6883 	 5.82881 	 -112.067
| 23> S 	 -85.3687 	 -0.652003 	 -111.909
| 24> C 	 -86.7376 	 -1.65537 	 -112.238
| 25> C 	 -87.1465 	 -1.63932 	 -113.565
| 26> C 	 -86.3266 	 -0.709585 	 -114.359
| 27> C 	 -85.3529 	 -0.112148 	 -113.534
| 28> H 	 -88.022 	 -2.15215 	 -113.835
| 29> C 	 -86.6719 	 -0.460059 	 -115.827
| 30> H 	 -86.1151 	 0.326786 	 -116.295
| 31> H 	 -87.7052 	 -0.107169 	 -115.789
| 32> C 	 -86.3904 	 -1.65481 	 -116.853
| 33> H 	 -86.9756 	 -2.59345 	 -116.626
| 34> H 	 -85.3353 	 -1.98374 	 -116.725
| 35> C 	 -86.6089 	 -1.39576 	 -118.35
| 36> H 	 -86.9961 	 -2.23315 	 -118.938
| 37> H 	 -85.7919 	 -0.866056 	 -118.868
| 38> H 	 -87.4786 	 -0.718878 	 -118.523
| 39> H 	 -81.9489 	 3.66464 	 -113.452
| 40> H 	 -87.2553 	 -2.37827 	 -111.546
| 41> *
| 42>
| 43>                          ****END OF INPUT****

CARTESIAN COORDINATES (ANGSTROEM)
---------------------------------
  S    -82.855200    1.223860  -113.324000
  C    -82.800600    2.999150  -113.690000
  C    -83.987700    3.362150  -114.345000
  C    -85.043100    2.301340  -114.275000
  C    -84.591800    1.060800  -113.779000
  H    -86.074300    2.278300  -114.532000
  C    -84.345900    4.810180  -114.616000
  H    -84.276800    4.801080  -115.729000
  H    -83.466500    5.373370  -114.361000
  C    -85.638600    5.325040  -114.012000
  H    -85.965100    6.280750  -114.400000
  H    -86.404700    4.704170  -114.333000
  C    -85.681900    5.506030  -112.450000
  H    -85.368000    4.607620  -111.871000
  H    -85.027700    6.299050  -112.205000
  H    -86.688300    5.828810  -112.067000
  S    -85.368700   -0.652003  -111.909000
  C    -86.737600   -1.655370  -112.238000
  C    -87.146500   -1.639320  -113.565000
  C    -86.326600   -0.709585  -114.359000
  C    -85.352900   -0.112148  -113.534000
  H    -88.022000   -2.152150  -113.835000
  C    -86.671900   -0.460059  -115.827000
  H    -86.115100    0.326786  -116.295000
  H    -87.705200   -0.107169  -115.789000
  C    -86.390400   -1.654810  -116.853000
  H    -86.975600   -2.593450  -116.626000
  H    -85.335300   -1.983740  -116.725000
  C    -86.608900   -1.395760  -118.350000
  H    -86.996100   -2.233150  -118.938000
  H    -85.791900   -0.866056  -118.868000
  H    -87.478600   -0.718878  -118.523000
  H    -81.948900    3.664640  -113.452000
  H    -87.255300   -2.378270  -111.546000

 Total Charge           Charge          ....    0
 Multiplicity           Mult            ....    1
 Number of Electrons    NEL             ....  134
 Basis Dimension        Dim             ....  322

ORBITAL ENERGIES
----------------

  NO   OCC          E(Eh)            E(eV)
   0   2.0000     -88.970941     -2421.0224
   1   2.0000     -88.959677     -2420.7159
   2   2.0000     -10.332168      -281.1526
   3   2.0000     -10.325363      -280.9674
   4   2.0000     -10.324349      -280.9398
   5   2.0000     -10.321913      -280.8735
   6   2.0000     -10.316045      -280.7138
   7   2.0000     -10.311986      -280.6034
   8   2.0000     -10.300162      -280.2817
   9   2.0000     -10.299815      -280.2722
  10   2.0000     -10.298629      -280.2399
  11   2.0000     -10.296532      -280.1829
  12   2.0000     -10.292974      -280.0861
  13   2.0000     -10.284540      -279.8566
  14   2.0000     -10.283311      -279.8231
  15   2.0000     -10.279699      -279.7248
  16   2.0000      -8.086581      -220.0470
  17   2.0000      -8.072836      -219.6730
  18   2.0000      -6.045004      -164.4929
  19   2.0000      -6.040981      -164.3834
  20   2.0000      -6.037314      -164.2837
  21   2.0000      -6.031580      -164.1276
  22   2.0000      -6.027606      -164.0195
  23   2.0000      -6.023392      -163.9048
  24   2.0000      -1.006610       -27.3913
  25   2.0000      -0.968693       -26.3595
  26   2.0000      -0.908642       -24.7254
  27   2.0000      -0.900622       -24.5072
  28   2.0000      -0.869897       -23.6711
  29   2.0000      -0.852651       -23.2018
  30   2.0000      -0.833412       -22.6783
  31   2.0000      -0.813601       -22.1392
  32   2.0000      -0.782964       -21.3055
  33   2.0000      -0.769375       -20.9358
  34   2.0000      -0.714754       -19.4494
  35   2.0000      -0.699958       -19.0468
  36   2.0000      -0.691060       -18.8047
  37   2.0000      -0.662646       -18.0315
  38   2.0000      -0.639682       -17.4066
  39   2.0000      -0.613044       -16.6818
  40   2.0000      -0.594006       -16.1637
  41   2.0000      -0.562391       -15.3034
  42   2.0000      -0.554310       -15.0836
  43   2.0000      -0.550572       -14.9818
  44   2.0000      -0.533971       -14.5301
  45   2.0000      -0.521989       -14.2040
  46   2.0000      -0.517715       -14.0877
  47   2.0000      -0.508917       -13.8483
  48   2.0000      -0.507283       -13.8039
  49   2.0000      -0.500565       -13.6211
  50   2.0000      -0.485594       -13.2137
  51   2.0000      -0.475684       -12.9440
  52   2.0000      -0.466992       -12.7075
  53   2.0000      -0.459922       -12.5151
  54   2.0000      -0.458819       -12.4851
  55   2.0000      -0.456990       -12.4353
  56   2.0000      -0.442905       -12.0521
  57   2.0000      -0.438736       -11.9386
  58   2.0000      -0.429110       -11.6767
  59   2.0000      -0.424870       -11.5613
  60   2.0000      -0.420416       -11.4401
  61   2.0000      -0.414193       -11.2708
  62   2.0000      -0.402685       -10.9576
  63   2.0000      -0.346339        -9.4244
  64   2.0000      -0.330820        -9.0021
  65   2.0000      -0.321474        -8.7478
  66   2.0000      -0.292760        -7.9664
  67   0.0000       0.026103         0.7103
  68   0.0000       0.071112         1.9351
  69   0.0000       0.112361         3.0575
  70   0.0000       0.114162         3.1065
  71   0.0000       0.122912         3.3446

MULLIKEN ATOMIC CHARGES
-----------------------
   0 S :    0.072161
   1 C :   -0.140179
   2 C :   -0.096135
   3 C :    0.035513
   4 C :   -0.165602
   5 H :    0.006643
   6 C :    0.069007
   7 H :    0.041048
   8 H :    0.003283
   9 C :   -0.016293
  10 H :    0.019469
  11 H :    0.010318
  12 C :   -0.070019
  13 H :    0.052930
  14 H :    0.020741
  15 H :    0.037805
  16 S :    0.140875
  17 C :   -0.110206
  18 C :   -0.025696
  19 C :   -0.046815
  20 C :   -0.147576
  21 H :    0.007860
  22 C :    0.078462
  23 H :    0.021534
  24 H :    0.037241
  25 C :   -0.091822
  26 H :    0.032976
  27 H :    0.045632
  28 C :   -0.074380
  29 H :    0.039149
  30 H :    0.046667
  31 H :    0.016894
  32 H :    0.074815
  33 H :    0.073701
Sum of atomic charges:    0.0000000

LOEWDIN ATOMIC CHARGES
----------------------
   0 S :    0.340349
   1 C :   -0.186942
   2 C :   -0.058153
   3 C :   -0.062580
   4 C :   -0.175952
   5 H :    0.025201
   6 C :   -0.036110
   7 H :    0.042579
   8 H :    0.023777
   9 C :   -0.035782
  10 H :    0.027147
  11 H :    0.014059
  12 C :   -0.064323
  13 H :    0.031637
  14 H :    0.016816
  15 H :    0.031916
  16 S :    0.444232
  17 C :   -0.200140
  18 C :   -0.063979
  19 C :   -0.041845
  20 C :   -0.223434
  21 H :    0.024298
  22 C :   -0.033349
  23 H :    0.027525
  24 H :    0.034507
  25 C :   -0.046138
  26 H :    0.026425
  27 H :    0.032514
  28 C :   -0.083572
  29 H :    0.032358
  30 H :    0.028531
  31 H :    0.027417
  32 H :    0.038820
  33 H :    0.042191

  Mayer bond orders larger than 0.100000
B(  0-S ,  1-C ) :   1.1101 B(  0-S ,  4-C ) :   1.1149 B(  1-C ,  2-C ) :   1.6337
B(  1-C , 32-H ) :   0.9645 B(  2-C ,  3-C ) :   1.1661 B(  2-C ,  6-C ) :   1.0265
B(  3-C ,  4-C ) :   1.6247 B(  3-C ,  5-H ) :   0.9883 B(  4-C , 20-C ) :   1.0600
B(  6-C ,  7-H ) :   0.9263 B(  6-C ,  8-H ) :   0.9472 B(  6-C ,  9-C ) :   1.0672
B(  9-C , 10-H ) :   0.9504 B(  9-C , 11-H ) :   0.9511 B(  9-C , 12-C ) :   1.0674
B( 12-C , 13-H ) :   0.9789 B( 12-C , 14-H ) :   0.9770 B( 12-C , 15-H ) :   0.9755
B( 16-S , 17-C ) :   1.1580 B( 16-S , 20-C ) :   1.1498 B( 17-C , 18-C ) :   1.6318
B( 17-C , 33-H ) :   0.9570 B( 18-C , 19-C ) :   1.2177 B( 18-C , 21-H ) :   0.9960
B( 19-C , 20-C ) :   1.5717 B( 19-C , 22-C ) :   1.0491 B( 22-C , 23-H ) :   0.9384
B( 22-C , 24-H ) :   0.9326 B( 22-C , 25-C ) :   1.0431 B( 25-C , 26-H ) :   0.9612
B( 25-C , 27-H ) :   0.9589 B( 25-C , 28-C ) :   1.0753 B( 28-C , 29-H ) :   0.9748
B( 28-C , 30-H ) :   0.9762 B( 28-C , 31-H ) :   0.9711

Dispersion correction           -0.013998253
FINAL SINGLE POINT ENERGY     -1339.854084471178

DIPOLE MOMENT
-------------
                                X             Y             Z
Electronic contribution:     12.01850     -11.26580      16.70222
Nuclear contribution   :    -12.67228      11.53168     -17.03553
                        -----------------------------------------
Total Dipole Moment    :     -0.65378       0.26588      -0.33331
                        -----------------------------------------
Magnitude (a.u.)       :      0.78052
Magnitude (Debye)      :      1.98393

Rotational constants in cm-1:     0.016626     0.008449     0.007164
Rotational constants in MHz :   498.440134   253.299712   214.785659

                             ****ORCA TERMINATED NORMALLY****
TOTAL RUN TIME: 0 days 0 hours 0 minutes 21 seconds 227 msec
