                         Program Version 4.2.1 -  RELEASE  -
|  1> ! wB97X-D3 SP def2-SVP
|  2> %pal
|  3> nprocs 24
|  4> end
|  5>
|  6> * xyz 0 1
|  7> S 	 25.3223 	 -0.721046 	 -112.268
|  8> C 	 24.4727 	 -0.766541 	 -113.813
|  9> C 	 23.4257 	 0.124547 	 -113.897
| 10> C 	 23.439 	 0.987627 	 -112.794
| 11> C 	 24.372 	 0.610987 	 -111.772
| 12> H 	 22.8069 	 1.88399 	 -112.571
| 13> C 	 22.4985 	 0.241668 	 -115.054
| 14> H 	 23.1956 	 0.383478 	 -115.909
| 15> H 	 21.8424 	 1.09816 	 -115.126
| 16> C 	 21.5081 	 -0.96334 	 -115.258
| 17> H 	 22.0287 	 -1.9225 	 -115.508
| 18> H 	 21.0109 	 -1.19402 	 -114.297
| 19> C 	 20.4292 	 -0.710366 	 -116.365
| 20> H 	 19.5067 	 -1.32048 	 -116.329
| 21> H 	 19.9939 	 0.287878 	 -116.178
| 22> H 	 20.8602 	 -0.673589 	 -117.328
| 23> S 	 23.9905 	 0.492341 	 -109.075
| 24> C 	 24.7211 	 1.79341 	 -108.077
| 25> C 	 25.3882 	 2.83285 	 -108.826
| 26> C 	 25.4044 	 2.45217 	 -110.215
| 27> C 	 24.5957 	 1.27258 	 -110.459
| 28> H 	 25.8493 	 3.6602 	 -108.34
| 29> C 	 26.1635 	 3.22201 	 -111.234
| 30> H 	 26.4906 	 2.51752 	 -111.949
| 31> H 	 27.101 	 3.55691 	 -110.838
| 32> C 	 25.5133 	 4.30932 	 -112.091
| 33> H 	 24.6897 	 3.99133 	 -112.712
| 34> H 	 26.2228 	 4.70122 	 -112.782
| 35> C 	 24.9442 	 5.41418 	 -111.282
| 36> H 	 25.6724 	 5.98711 	 -110.695
| 37> H 	 24.4042 	 4.92821 	 -110.489
| 38> H 	 24.412 	 6.09693 	 -111.894
| 39> H 	 24.6459 	 -1.54294 	 -114.56
| 40> H 	 24.5554 	 2.02036 	 -106.982
| 41> *
| 42>
| 43>                          ****END OF INPUT****

CARTESIAN COORDINATES (ANGSTROEM)
---------------------------------
  S     25.322300   -0.721046  -112.268000
  C     24.472700   -0.766541  -113.813000
  C     23.425700    0.124547  -113.897000
  C     23.439000    0.987627  -112.794000
  C     24.372000    0.610987  -111.772000
  H     22.806900    1.883990  -112.571000
  C     22.498500    0.241668  -115.054000
  H     23.195600    0.383478  -115.909000
  H     21.842400    1.098160  -115.126000
  C     21.508100   -0.963340  -115.258000
  H     22.028700   -1.922500  -115.508000
  H     21.010900   -1.194020  -114.297000
  C     20.429200   -0.710366  -116.365000
  H     19.506700   -1.320480  -116.329000
  H     19.993900    0.287878  -116.178000
  H     20.860200   -0.673589  -117.328000
  S     23.990500    0.492341  -109.075000
  C     24.721100    1.793410  -108.077000
  C     25.388200    2.832850  -108.826000
  C     25.404400    2.452170  -110.215000
  C     24.595700    1.272580  -110.459000
  H     25.849300    3.660200  -108.340000
  C     26.163500    3.222010  -111.234000
  H     26.490600    2.517520  -111.949000
  H     27.101000    3.556910  -110.838000
  C     25.513300    4.309320  -112.091000
  H     24.689700    3.991330  -112.712000
  H     26.222800    4.701220  -112.782000
  C     24.944200    5.414180  -111.282000
  H     25.672400    5.987110  -110.695000
  H     24.404200    4.928210  -110.489000
  H     24.412000    6.096930  -111.894000
  H     24.645900   -1.542940  -114.560000
  H     24.555400    2.020360  -106.982000

 Total Charge           Charge          ....    0
 Multiplicity           Mult            ....    1
 Number of Electrons    NEL             ....  134
 Basis Dimension        Dim             ....  322

ORBITAL ENERGIES
----------------

  NO   OCC          E(Eh)            E(eV)
   0   2.0000     -88.977809     -2421.2093
   1   2.0000     -88.971010     -2421.0243
   2   2.0000     -10.328472      -281.0520
   3   2.0000     -10.328198      -281.0445
   4   2.0000     -10.327598      -281.0282
   5   2.0000     -10.313248      -280.6377
   6   2.0000     -10.309106      -280.5250
   7   2.0000     -10.301363      -280.3143
   8   2.0000     -10.301151      -280.3086
   9   2.0000     -10.298154      -280.2270
  10   2.0000     -10.296998      -280.1956
  11   2.0000     -10.296818      -280.1907
  12   2.0000     -10.281536      -279.7748
  13   2.0000     -10.278793      -279.7002
  14   2.0000     -10.273817      -279.5648
  15   2.0000     -10.261895      -279.2403
  16   2.0000      -8.091802      -220.1891
  17   2.0000      -8.085730      -220.0239
  18   2.0000      -6.050161      -164.6332
  19   2.0000      -6.046392      -164.5307
  20   2.0000      -6.044008      -164.4658
  21   2.0000      -6.042786      -164.4326
  22   2.0000      -6.040138      -164.3605
  23   2.0000      -6.036843      -164.2709
  24   2.0000      -1.004300       -27.3284
  25   2.0000      -0.980001       -26.6672
  26   2.0000      -0.915247       -24.9051
  27   2.0000      -0.908664       -24.7260
  28   2.0000      -0.863779       -23.5046
  29   2.0000      -0.854479       -23.2516
  30   2.0000      -0.844007       -22.9666
  31   2.0000      -0.809865       -22.0376
  32   2.0000      -0.785690       -21.3797
  33   2.0000      -0.766417       -20.8553
  34   2.0000      -0.704860       -19.1802
  35   2.0000      -0.703957       -19.1556
  36   2.0000      -0.682321       -18.5669
  37   2.0000      -0.660948       -17.9853
  38   2.0000      -0.641066       -17.4443
  39   2.0000      -0.611758       -16.6468
  40   2.0000      -0.591699       -16.1010
  41   2.0000      -0.575383       -15.6570
  42   2.0000      -0.560270       -15.2457
  43   2.0000      -0.556681       -15.1481
  44   2.0000      -0.539972       -14.6934
  45   2.0000      -0.527282       -14.3481
  46   2.0000      -0.516932       -14.0664
  47   2.0000      -0.514628       -14.0037
  48   2.0000      -0.499074       -13.5805
  49   2.0000      -0.486154       -13.2289
  50   2.0000      -0.485303       -13.2058
  51   2.0000      -0.472467       -12.8565
  52   2.0000      -0.468098       -12.7376
  53   2.0000      -0.462991       -12.5986
  54   2.0000      -0.460322       -12.5260
  55   2.0000      -0.450261       -12.2522
  56   2.0000      -0.446623       -12.1532
  57   2.0000      -0.439193       -11.9511
  58   2.0000      -0.436092       -11.8667
  59   2.0000      -0.433486       -11.7957
  60   2.0000      -0.415423       -11.3042
  61   2.0000      -0.414956       -11.2915
  62   2.0000      -0.410568       -11.1721
  63   2.0000      -0.340775        -9.2730
  64   2.0000      -0.334735        -9.1086
  65   2.0000      -0.314921        -8.5694
  66   2.0000      -0.298040        -8.1101
  67   0.0000       0.038071         1.0360
  68   0.0000       0.047803         1.3008
  69   0.0000       0.108366         2.9488
  70   0.0000       0.118159         3.2153
  71   0.0000       0.120395         3.2761

MULLIKEN ATOMIC CHARGES
-----------------------
   0 S :    0.139557
   1 C :   -0.135365
   2 C :   -0.046170
   3 C :    0.030166
   4 C :   -0.208756
   5 H :    0.029557
   6 C :    0.055988
   7 H :    0.042288
   8 H :    0.013346
   9 C :   -0.100780
  10 H :    0.034230
  11 H :    0.038818
  12 C :   -0.049891
  13 H :    0.044606
  14 H :    0.017883
  15 H :    0.031792
  16 S :    0.150382
  17 C :   -0.128903
  18 C :   -0.034138
  19 C :   -0.042709
  20 C :   -0.183300
  21 H :    0.020596
  22 C :    0.108572
  23 H :    0.007716
  24 H :    0.014846
  25 C :   -0.030266
  26 H :    0.017119
  27 H :    0.014883
  28 C :   -0.032112
  29 H :    0.006652
  30 H :    0.022136
  31 H :    0.028048
  32 H :    0.048746
  33 H :    0.074462
Sum of atomic charges:    0.0000000

LOEWDIN ATOMIC CHARGES
----------------------
   0 S :    0.433373
   1 C :   -0.196985
   2 C :   -0.067786
   3 C :   -0.064449
   4 C :   -0.222121
   5 H :    0.038812
   6 C :   -0.035309
   7 H :    0.040205
   8 H :    0.027665
   9 C :   -0.041289
  10 H :    0.023588
  11 H :    0.028073
  12 C :   -0.070584
  13 H :    0.033089
  14 H :    0.024378
  15 H :    0.019397
  16 S :    0.437483
  17 C :   -0.198499
  18 C :   -0.060768
  19 C :   -0.048513
  20 C :   -0.230990
  21 H :    0.029903
  22 C :   -0.035631
  23 H :    0.031243
  24 H :    0.031161
  25 C :   -0.032649
  26 H :    0.023657
  27 H :    0.020279
  28 C :   -0.065050
  29 H :    0.019331
  30 H :    0.023803
  31 H :    0.020204
  32 H :    0.026526
  33 H :    0.038453

  Mayer bond orders larger than 0.100000
B(  0-S ,  1-C ) :   1.1555 B(  0-S ,  4-C ) :   1.1876 B(  1-C ,  2-C ) :   1.5757
B(  1-C ,  4-C ) :   0.1102 B(  1-C , 32-H ) :   0.9662 B(  2-C ,  3-C ) :   1.2734
B(  2-C ,  6-C ) :   1.0171 B(  3-C ,  4-C ) :   1.5434 B(  3-C ,  5-H ) :   0.9867
B(  4-C , 20-C ) :   1.0024 B(  6-C ,  7-H ) :   0.9382 B(  6-C ,  8-H ) :   0.9497
B(  6-C ,  9-C ) :   1.0422 B(  9-C , 10-H ) :   0.9581 B(  9-C , 11-H ) :   0.9603
B(  9-C , 12-C ) :   1.0761 B( 12-C , 13-H ) :   0.9761 B( 12-C , 14-H ) :   0.9718
B( 12-C , 15-H ) :   0.9782 B( 16-S , 17-C ) :   1.1611 B( 16-S , 20-C ) :   1.1816
B( 17-C , 18-C ) :   1.5898 B( 17-C , 20-C ) :   0.1101 B( 17-C , 33-H ) :   0.9567
B( 18-C , 19-C ) :   1.2572 B( 18-C , 21-H ) :   0.9893 B( 19-C , 20-C ) :   1.5391
B( 19-C , 22-C ) :   1.0558 B( 22-C , 23-H ) :   0.9045 B( 22-C , 24-H ) :   0.9331
B( 22-C , 25-C ) :   1.0858 B( 25-C , 26-H ) :   0.9505 B( 25-C , 27-H ) :   0.9474
B( 25-C , 28-C ) :   1.0864 B( 28-C , 29-H ) :   0.9693 B( 28-C , 30-H ) :   0.9725
B( 28-C , 31-H ) :   0.9735

Dispersion correction           -0.014547616
FINAL SINGLE POINT ENERGY     -1339.858347176725

DIPOLE MOMENT
-------------
                                X             Y             Z
Electronic contribution:      9.27875     -13.39328      19.00579
Nuclear contribution   :     -9.41515      13.68763     -19.36119
                        -----------------------------------------
Total Dipole Moment    :     -0.13640       0.29435      -0.35540
                        -----------------------------------------
Magnitude (a.u.)       :      0.48120
Magnitude (Debye)      :      1.22311

Rotational constants in cm-1:     0.020648     0.007544     0.006547
Rotational constants in MHz :   619.017022   226.148527   196.276291

                             ****ORCA TERMINATED NORMALLY****
TOTAL RUN TIME: 0 days 0 hours 0 minutes 21 seconds 356 msec
