                         Program Version 4.2.1 -  RELEASE  -
|  1> ! wB97X-D3 SP def2-SVP
|  2> %pal
|  3> nprocs 24
|  4> end
|  5>
|  6> * xyz 0 1
|  7> S 	 -59.922 	 -58.2943 	 -76.6875
|  8> C 	 -61.4507 	 -58.4196 	 -75.8696
|  9> C 	 -62.1192 	 -57.2065 	 -75.8243
| 10> C 	 -61.3826 	 -56.2219 	 -76.4954
| 11> C 	 -60.2371 	 -56.6056 	 -77.073
| 12> H 	 -61.8302 	 -55.2146 	 -76.6741
| 13> C 	 -63.554 	 -57.1718 	 -75.3006
| 14> H 	 -64.0178 	 -58.0245 	 -75.729
| 15> H 	 -63.9425 	 -56.3318 	 -75.9342
| 16> C 	 -63.9485 	 -57.0069 	 -73.793
| 17> H 	 -63.8943 	 -55.9583 	 -73.3338
| 18> H 	 -65.1428 	 -57.1473 	 -73.7344
| 19> C 	 -63.414 	 -58.0594 	 -72.7647
| 20> H 	 -63.8608 	 -58.998 	 -72.9587
| 21> H 	 -62.3421 	 -58.195 	 -72.8907
| 22> H 	 -63.6406 	 -57.7625 	 -71.7293
| 23> S 	 -58.3024 	 -56.8635 	 -79.005
| 24> C 	 -57.3411 	 -55.5407 	 -79.4093
| 25> C 	 -57.6242 	 -54.436 	 -78.6499
| 26> C 	 -58.6042 	 -54.6602 	 -77.6007
| 27> C 	 -59.22 	 -55.8783 	 -77.8034
| 28> H 	 -57.2001 	 -53.4987 	 -78.8621
| 29> C 	 -58.9827 	 -53.5253 	 -76.6851
| 30> H 	 -60.0694 	 -53.4361 	 -76.6197
| 31> H 	 -58.7002 	 -52.5879 	 -77.1575
| 32> C 	 -58.3103 	 -53.6591 	 -75.2883
| 33> H 	 -58.4283 	 -52.8015 	 -74.6867
| 34> H 	 -57.2399 	 -53.4773 	 -75.2913
| 35> C 	 -58.8534 	 -54.8084 	 -74.4401
| 36> H 	 -58.5362 	 -54.7754 	 -73.4451
| 37> H 	 -58.493 	 -55.6873 	 -74.9263
| 38> H 	 -59.8982 	 -54.7882 	 -74.4437
| 39> H 	 -61.8638 	 -59.3592 	 -75.4564
| 40> H 	 -56.4953 	 -55.5593 	 -80.0501
| 41> *
| 42>
| 43>                          ****END OF INPUT****

CARTESIAN COORDINATES (ANGSTROEM)
---------------------------------
  S    -59.922000  -58.294300  -76.687500
  C    -61.450700  -58.419600  -75.869600
  C    -62.119200  -57.206500  -75.824300
  C    -61.382600  -56.221900  -76.495400
  C    -60.237100  -56.605600  -77.073000
  H    -61.830200  -55.214600  -76.674100
  C    -63.554000  -57.171800  -75.300600
  H    -64.017800  -58.024500  -75.729000
  H    -63.942500  -56.331800  -75.934200
  C    -63.948500  -57.006900  -73.793000
  H    -63.894300  -55.958300  -73.333800
  H    -65.142800  -57.147300  -73.734400
  C    -63.414000  -58.059400  -72.764700
  H    -63.860800  -58.998000  -72.958700
  H    -62.342100  -58.195000  -72.890700
  H    -63.640600  -57.762500  -71.729300
  S    -58.302400  -56.863500  -79.005000
  C    -57.341100  -55.540700  -79.409300
  C    -57.624200  -54.436000  -78.649900
  C    -58.604200  -54.660200  -77.600700
  C    -59.220000  -55.878300  -77.803400
  H    -57.200100  -53.498700  -78.862100
  C    -58.982700  -53.525300  -76.685100
  H    -60.069400  -53.436100  -76.619700
  H    -58.700200  -52.587900  -77.157500
  C    -58.310300  -53.659100  -75.288300
  H    -58.428300  -52.801500  -74.686700
  H    -57.239900  -53.477300  -75.291300
  C    -58.853400  -54.808400  -74.440100
  H    -58.536200  -54.775400  -73.445100
  H    -58.493000  -55.687300  -74.926300
  H    -59.898200  -54.788200  -74.443700
  H    -61.863800  -59.359200  -75.456400
  H    -56.495300  -55.559300  -80.050100

 Total Charge           Charge          ....    0
 Multiplicity           Mult            ....    1
 Number of Electrons    NEL             ....  134
 Basis Dimension        Dim             ....  322

ORBITAL ENERGIES
----------------

  NO   OCC          E(Eh)            E(eV)
   0   2.0000     -88.963877     -2420.8302
   1   2.0000     -88.963828     -2420.8288
   2   2.0000     -10.328804      -281.0610
   3   2.0000     -10.325036      -280.9585
   4   2.0000     -10.312047      -280.6051
   5   2.0000     -10.309818      -280.5444
   6   2.0000     -10.308980      -280.5216
   7   2.0000     -10.305393      -280.4240
   8   2.0000     -10.299758      -280.2707
   9   2.0000     -10.297942      -280.2213
  10   2.0000     -10.295841      -280.1641
  11   2.0000     -10.291779      -280.0535
  12   2.0000     -10.287304      -279.9318
  13   2.0000     -10.278317      -279.6872
  14   2.0000     -10.278111      -279.6816
  15   2.0000     -10.257877      -279.1310
  16   2.0000      -8.079228      -219.8470
  17   2.0000      -8.078722      -219.8332
  18   2.0000      -6.037709      -164.2944
  19   2.0000      -6.037184      -164.2801
  20   2.0000      -6.033663      -164.1843
  21   2.0000      -6.033207      -164.1719
  22   2.0000      -6.029953      -164.0834
  23   2.0000      -6.029498      -164.0710
  24   2.0000      -1.011381       -27.5211
  25   2.0000      -0.988101       -26.8876
  26   2.0000      -0.910157       -24.7666
  27   2.0000      -0.903113       -24.5750
  28   2.0000      -0.866535       -23.5796
  29   2.0000      -0.854332       -23.2475
  30   2.0000      -0.846150       -23.0249
  31   2.0000      -0.817170       -22.2363
  32   2.0000      -0.787791       -21.4369
  33   2.0000      -0.774724       -21.0813
  34   2.0000      -0.713556       -19.4168
  35   2.0000      -0.699797       -19.0424
  36   2.0000      -0.692690       -18.8491
  37   2.0000      -0.662522       -18.0281
  38   2.0000      -0.638450       -17.3731
  39   2.0000      -0.623189       -16.9578
  40   2.0000      -0.596564       -16.2333
  41   2.0000      -0.559763       -15.2319
  42   2.0000      -0.558758       -15.2046
  43   2.0000      -0.544722       -14.8226
  44   2.0000      -0.540836       -14.7169
  45   2.0000      -0.532945       -14.5022
  46   2.0000      -0.517109       -14.0713
  47   2.0000      -0.509356       -13.8603
  48   2.0000      -0.504589       -13.7306
  49   2.0000      -0.500773       -13.6267
  50   2.0000      -0.488815       -13.3013
  51   2.0000      -0.479153       -13.0384
  52   2.0000      -0.474856       -12.9215
  53   2.0000      -0.468491       -12.7483
  54   2.0000      -0.463730       -12.6187
  55   2.0000      -0.450455       -12.2575
  56   2.0000      -0.444524       -12.0961
  57   2.0000      -0.442763       -12.0482
  58   2.0000      -0.430459       -11.7134
  59   2.0000      -0.425271       -11.5722
  60   2.0000      -0.415942       -11.3184
  61   2.0000      -0.402885       -10.9631
  62   2.0000      -0.399222       -10.8634
  63   2.0000      -0.353907        -9.6303
  64   2.0000      -0.334395        -9.0994
  65   2.0000      -0.328660        -8.9433
  66   2.0000      -0.287616        -7.8264
  67   0.0000       0.025656         0.6981
  68   0.0000       0.074458         2.0261
  69   0.0000       0.103662         2.8208
  70   0.0000       0.116606         3.1730
  71   0.0000       0.125508         3.4152

MULLIKEN ATOMIC CHARGES
-----------------------
   0 S :    0.103676
   1 C :   -0.136269
   2 C :   -0.097293
   3 C :   -0.007412
   4 C :   -0.115397
   5 H :    0.022260
   6 C :    0.076887
   7 H :    0.027819
   8 H :    0.026731
   9 C :   -0.127497
  10 H :    0.045471
  11 H :    0.039311
  12 C :   -0.039731
  13 H :    0.020317
  14 H :    0.040296
  15 H :    0.042213
  16 S :    0.094801
  17 C :   -0.050832
  18 C :   -0.032422
  19 C :   -0.030473
  20 C :   -0.151350
  21 H :   -0.002270
  22 C :    0.066643
  23 H :    0.026750
  24 H :    0.015660
  25 C :   -0.067192
  26 H :   -0.003953
  27 H :    0.013175
  28 C :    0.027271
  29 H :    0.018037
  30 H :    0.035559
  31 H :    0.016296
  32 H :    0.056901
  33 H :    0.046015
Sum of atomic charges:    0.0000000

LOEWDIN ATOMIC CHARGES
----------------------
   0 S :    0.401565
   1 C :   -0.199759
   2 C :   -0.073313
   3 C :   -0.074538
   4 C :   -0.187286
   5 H :    0.036846
   6 C :   -0.035918
   7 H :    0.030980
   8 H :    0.040643
   9 C :   -0.054822
  10 H :    0.029739
  11 H :    0.036028
  12 C :   -0.067845
  13 H :    0.017145
  14 H :    0.024704
  15 H :    0.032050
  16 S :    0.404828
  17 C :   -0.196430
  18 C :   -0.067029
  19 C :   -0.046401
  20 C :   -0.181513
  21 H :    0.019950
  22 C :   -0.024928
  23 H :    0.030071
  24 H :    0.031878
  25 C :   -0.045313
  26 H :    0.016784
  27 H :    0.026162
  28 C :   -0.045823
  29 H :    0.019892
  30 H :    0.024705
  31 H :    0.018761
  32 H :    0.031576
  33 H :    0.026610

  Mayer bond orders larger than 0.100000
B(  0-S ,  1-C ) :   1.1457 B(  0-S ,  4-C ) :   1.1366 B(  1-C ,  2-C ) :   1.5961
B(  1-C , 32-H ) :   0.9655 B(  2-C ,  3-C ) :   1.2717 B(  2-C ,  6-C ) :   0.9907
B(  3-C ,  4-C ) :   1.5986 B(  3-C ,  5-H ) :   0.9864 B(  4-C , 20-C ) :   1.0562
B(  6-C ,  7-H ) :   0.9489 B(  6-C ,  8-H ) :   0.9404 B(  6-C ,  9-C ) :   1.0509
B(  9-C , 10-H ) :   0.9634 B(  9-C , 11-H ) :   0.9549 B(  9-C , 12-C ) :   1.0654
B( 12-C , 13-H ) :   0.9771 B( 12-C , 14-H ) :   0.9761 B( 12-C , 15-H ) :   0.9747
B( 16-S , 17-C ) :   1.1589 B( 16-S , 20-C ) :   1.1205 B( 17-C , 18-C ) :   1.6207
B( 17-C , 33-H ) :   0.9672 B( 18-C , 19-C ) :   1.2228 B( 18-C , 21-H ) :   0.9929
B( 19-C , 20-C ) :   1.5971 B( 19-C , 22-C ) :   1.0304 B( 22-C , 23-H ) :   0.9483
B( 22-C , 24-H ) :   0.9337 B( 22-C , 25-C ) :   1.0731 B( 25-C , 26-H ) :   0.9459
B( 25-C , 27-H ) :   0.9489 B( 25-C , 28-C ) :   1.0714 B( 28-C , 29-H ) :   0.9699
B( 28-C , 30-H ) :   0.9747 B( 28-C , 31-H ) :   0.9691

Dispersion correction           -0.015467036
FINAL SINGLE POINT ENERGY     -1339.857286736373

DIPOLE MOMENT
-------------
                                X             Y             Z
Electronic contribution:     13.14556      -9.59604     -22.42489
Nuclear contribution   :    -13.38205      10.07655      22.73520
                        -----------------------------------------
Total Dipole Moment    :     -0.23649       0.48051       0.31031
                        -----------------------------------------
Magnitude (a.u.)       :      0.61896
Magnitude (Debye)      :      1.57327

Rotational constants in cm-1:     0.023611     0.008504     0.007001
Rotational constants in MHz :   707.838411   254.943698   209.871786

                             ****ORCA TERMINATED NORMALLY****
TOTAL RUN TIME: 0 days 0 hours 0 minutes 21 seconds 338 msec
