                         Program Version 4.2.1 -  RELEASE  -
|  1> ! wB97X-D3 SP def2-SVP
|  2> %pal
|  3> nprocs 24
|  4> end
|  5>
|  6> * xyz 0 1
|  7> S 	 -56.0336 	 -2.32521 	 -33.2733
|  8> C 	 -56.3256 	 -0.739453 	 -33.9615
|  9> C 	 -56.5523 	 0.255999 	 -33.0131
| 10> C 	 -56.4223 	 -0.232234 	 -31.7218
| 11> C 	 -56.0832 	 -1.57851 	 -31.6535
| 12> H 	 -56.5521 	 0.369579 	 -30.8239
| 13> C 	 -56.9342 	 1.67939 	 -33.2128
| 14> H 	 -57.8797 	 1.87388 	 -32.6827
| 15> H 	 -57.1436 	 1.79123 	 -34.2938
| 16> C 	 -55.9326 	 2.69192 	 -32.6791
| 17> H 	 -56.0101 	 2.67645 	 -31.5407
| 18> H 	 -54.9399 	 2.36053 	 -32.9087
| 19> C 	 -55.9024 	 4.05902 	 -33.2206
| 20> H 	 -56.7973 	 4.69725 	 -33.1393
| 21> H 	 -55.1883 	 4.5958 	 -32.6386
| 22> H 	 -55.577 	 4.02572 	 -34.2891
| 23> S 	 -56.7907 	 -3.92071 	 -30.4256
| 24> C 	 -56.3088 	 -4.21217 	 -28.8027
| 25> C 	 -55.6373 	 -3.17412 	 -28.1955
| 26> C 	 -55.6211 	 -2.05607 	 -29.0671
| 27> C 	 -55.9583 	 -2.36533 	 -30.3862
| 28> H 	 -55.1925 	 -3.18802 	 -27.1725
| 29> C 	 -55.1153 	 -0.685164 	 -28.5372
| 30> H 	 -55.2115 	 0.0930088 	 -29.2734
| 31> H 	 -54.0215 	 -0.823092 	 -28.3699
| 32> C 	 -55.9202 	 -0.287966 	 -27.2883
| 33> H 	 -55.737 	 -1.05449 	 -26.6122
| 34> H 	 -57.0103 	 -0.26532 	 -27.5625
| 35> C 	 -55.6703 	 1.04271 	 -26.6401
| 36> H 	 -55.5741 	 1.89184 	 -27.3351
| 37> H 	 -54.7254 	 0.913686 	 -26.1394
| 38> H 	 -56.3835 	 1.33299 	 -25.9232
| 39> H 	 -56.5279 	 -0.524412 	 -35.0286
| 40> H 	 -56.4694 	 -5.23641 	 -28.4634
| 41> *
| 42>
| 43>                          ****END OF INPUT****

CARTESIAN COORDINATES (ANGSTROEM)
---------------------------------
  S    -56.033600   -2.325210  -33.273300
  C    -56.325600   -0.739453  -33.961500
  C    -56.552300    0.255999  -33.013100
  C    -56.422300   -0.232234  -31.721800
  C    -56.083200   -1.578510  -31.653500
  H    -56.552100    0.369579  -30.823900
  C    -56.934200    1.679390  -33.212800
  H    -57.879700    1.873880  -32.682700
  H    -57.143600    1.791230  -34.293800
  C    -55.932600    2.691920  -32.679100
  H    -56.010100    2.676450  -31.540700
  H    -54.939900    2.360530  -32.908700
  C    -55.902400    4.059020  -33.220600
  H    -56.797300    4.697250  -33.139300
  H    -55.188300    4.595800  -32.638600
  H    -55.577000    4.025720  -34.289100
  S    -56.790700   -3.920710  -30.425600
  C    -56.308800   -4.212170  -28.802700
  C    -55.637300   -3.174120  -28.195500
  C    -55.621100   -2.056070  -29.067100
  C    -55.958300   -2.365330  -30.386200
  H    -55.192500   -3.188020  -27.172500
  C    -55.115300   -0.685164  -28.537200
  H    -55.211500    0.093009  -29.273400
  H    -54.021500   -0.823092  -28.369900
  C    -55.920200   -0.287966  -27.288300
  H    -55.737000   -1.054490  -26.612200
  H    -57.010300   -0.265320  -27.562500
  C    -55.670300    1.042710  -26.640100
  H    -55.574100    1.891840  -27.335100
  H    -54.725400    0.913686  -26.139400
  H    -56.383500    1.332990  -25.923200
  H    -56.527900   -0.524412  -35.028600
  H    -56.469400   -5.236410  -28.463400

 Total Charge           Charge          ....    0
 Multiplicity           Mult            ....    1
 Number of Electrons    NEL             ....  134
 Basis Dimension        Dim             ....  322

ORBITAL ENERGIES
----------------

  NO   OCC          E(Eh)            E(eV)
   0   2.0000     -88.972956     -2421.0772
   1   2.0000     -88.961972     -2420.7783
   2   2.0000     -10.333691      -281.1940
   3   2.0000     -10.328366      -281.0491
   4   2.0000     -10.315654      -280.7032
   5   2.0000     -10.315628      -280.7025
   6   2.0000     -10.306153      -280.4447
   7   2.0000     -10.298567      -280.2383
   8   2.0000     -10.295679      -280.1597
   9   2.0000     -10.294575      -280.1296
  10   2.0000     -10.291695      -280.0512
  11   2.0000     -10.288084      -279.9530
  12   2.0000     -10.286643      -279.9138
  13   2.0000     -10.283571      -279.8302
  14   2.0000     -10.278236      -279.6850
  15   2.0000     -10.273632      -279.5597
  16   2.0000      -8.086548      -220.0462
  17   2.0000      -8.077619      -219.8032
  18   2.0000      -6.045156      -164.4971
  19   2.0000      -6.041340      -164.3932
  20   2.0000      -6.037163      -164.2796
  21   2.0000      -6.035927      -164.2459
  22   2.0000      -6.032168      -164.1436
  23   2.0000      -6.028371      -164.0403
  24   2.0000      -1.005337       -27.3566
  25   2.0000      -0.986119       -26.8337
  26   2.0000      -0.919137       -25.0110
  27   2.0000      -0.912467       -24.8295
  28   2.0000      -0.868024       -23.6201
  29   2.0000      -0.857178       -23.3250
  30   2.0000      -0.852500       -23.1977
  31   2.0000      -0.811983       -22.0952
  32   2.0000      -0.786837       -21.4109
  33   2.0000      -0.773220       -21.0404
  34   2.0000      -0.704025       -19.1575
  35   2.0000      -0.695744       -18.9321
  36   2.0000      -0.689690       -18.7674
  37   2.0000      -0.658717       -17.9246
  38   2.0000      -0.633597       -17.2410
  39   2.0000      -0.624550       -16.9949
  40   2.0000      -0.600722       -16.3465
  41   2.0000      -0.577124       -15.7043
  42   2.0000      -0.571620       -15.5546
  43   2.0000      -0.558327       -15.1929
  44   2.0000      -0.529101       -14.3976
  45   2.0000      -0.525480       -14.2990
  46   2.0000      -0.521088       -14.1795
  47   2.0000      -0.512516       -13.9463
  48   2.0000      -0.508254       -13.8303
  49   2.0000      -0.494112       -13.4455
  50   2.0000      -0.487535       -13.2665
  51   2.0000      -0.481800       -13.1104
  52   2.0000      -0.475231       -12.9317
  53   2.0000      -0.469817       -12.7844
  54   2.0000      -0.462015       -12.5721
  55   2.0000      -0.457046       -12.4369
  56   2.0000      -0.445893       -12.1334
  57   2.0000      -0.434088       -11.8121
  58   2.0000      -0.430974       -11.7274
  59   2.0000      -0.427020       -11.6198
  60   2.0000      -0.423478       -11.5234
  61   2.0000      -0.413670       -11.2565
  62   2.0000      -0.410359       -11.1664
  63   2.0000      -0.350284        -9.5317
  64   2.0000      -0.335001        -9.1158
  65   2.0000      -0.330011        -8.9800
  66   2.0000      -0.282786        -7.6950
  67   0.0000       0.025327         0.6892
  68   0.0000       0.074248         2.0204
  69   0.0000       0.102150         2.7796
  70   0.0000       0.123240         3.3535
  71   0.0000       0.124110         3.3772

MULLIKEN ATOMIC CHARGES
-----------------------
   0 S :    0.117260
   1 C :   -0.128421
   2 C :   -0.083394
   3 C :   -0.004594
   4 C :   -0.123539
   5 H :    0.013543
   6 C :    0.090467
   7 H :    0.037733
   8 H :    0.009553
   9 C :   -0.100160
  10 H :    0.031924
  11 H :    0.025256
  12 C :   -0.031480
  13 H :    0.026686
  14 H :    0.024575
  15 H :    0.039446
  16 S :    0.084890
  17 C :   -0.095995
  18 C :   -0.029500
  19 C :   -0.083786
  20 C :   -0.125395
  21 H :    0.046644
  22 C :    0.079388
  23 H :    0.001707
  24 H :    0.044151
  25 C :   -0.103554
  26 H :    0.010913
  27 H :    0.039495
  28 C :   -0.001518
  29 H :    0.025401
  30 H :    0.018313
  31 H :    0.029735
  32 H :    0.052043
  33 H :    0.062217
Sum of atomic charges:   -0.0000000

LOEWDIN ATOMIC CHARGES
----------------------
   0 S :    0.396031
   1 C :   -0.207191
   2 C :   -0.065914
   3 C :   -0.063027
   4 C :   -0.179598
   5 H :    0.030042
   6 C :   -0.034404
   7 H :    0.036990
   8 H :    0.028521
   9 C :   -0.049452
  10 H :    0.027131
  11 H :    0.025983
  12 C :   -0.065439
  13 H :    0.022388
  14 H :    0.026942
  15 H :    0.032107
  16 S :    0.405448
  17 C :   -0.186733
  18 C :   -0.077104
  19 C :   -0.054131
  20 C :   -0.192768
  21 H :    0.043473
  22 C :   -0.025721
  23 H :    0.017897
  24 H :    0.036394
  25 C :   -0.040746
  26 H :    0.011748
  27 H :    0.032356
  28 C :   -0.061313
  29 H :    0.025700
  30 H :    0.024108
  31 H :    0.022779
  32 H :    0.032743
  33 H :    0.024760

  Mayer bond orders larger than 0.100000
B(  0-S ,  1-C ) :   1.1308 B(  0-S ,  4-C ) :   1.1491 B(  1-C ,  2-C ) :   1.6094
B(  1-C , 32-H ) :   0.9540 B(  2-C ,  3-C ) :   1.2635 B(  2-C ,  6-C ) :   1.0386
B(  3-C ,  4-C ) :   1.5610 B(  3-C ,  5-H ) :   0.9862 B(  4-C , 20-C ) :   1.0343
B(  6-C ,  7-H ) :   0.9326 B(  6-C ,  8-H ) :   0.9355 B(  6-C ,  9-C ) :   1.0543
B(  9-C , 10-H ) :   0.9469 B(  9-C , 11-H ) :   0.9557 B(  9-C , 12-C ) :   1.1044
B( 12-C , 13-H ) :   0.9713 B( 12-C , 14-H ) :   0.9682 B( 12-C , 15-H ) :   0.9710
B( 16-S , 17-C ) :   1.1782 B( 16-S , 20-C ) :   1.1376 B( 17-C , 18-C ) :   1.5883
B( 17-C , 33-H ) :   0.9655 B( 18-C , 19-C ) :   1.2377 B( 18-C , 21-H ) :   0.9821
B( 19-C , 20-C ) :   1.6157 B( 19-C , 22-C ) :   1.0295 B( 22-C , 23-H ) :   0.9404
B( 22-C , 24-H ) :   0.9382 B( 22-C , 25-C ) :   1.0502 B( 25-C , 26-H ) :   0.9571
B( 25-C , 27-H ) :   0.9565 B( 25-C , 28-C ) :   1.0943 B( 28-C , 29-H ) :   0.9720
B( 28-C , 30-H ) :   0.9712 B( 28-C , 31-H ) :   0.9732

Dispersion correction           -0.013617144
FINAL SINGLE POINT ENERGY     -1339.871387759919

DIPOLE MOMENT
-------------
                                X             Y             Z
Electronic contribution:     -3.02213     -31.05420     -10.78961
Nuclear contribution   :      3.03147      31.67810      11.18736
                        -----------------------------------------
Total Dipole Moment    :      0.00934       0.62390       0.39775
                        -----------------------------------------
Magnitude (a.u.)       :      0.73996
Magnitude (Debye)      :      1.88084

Rotational constants in cm-1:     0.016089     0.009512     0.006194
Rotational constants in MHz :   482.321107   285.162776   185.693448

                             ****ORCA TERMINATED NORMALLY****
TOTAL RUN TIME: 0 days 0 hours 0 minutes 21 seconds 468 msec
