                         Program Version 4.2.1 -  RELEASE  -
|  1> ! wB97X-D3 SP def2-SVP
|  2> %pal
|  3> nprocs 24
|  4> end
|  5>
|  6> * xyz 0 1
|  7> S 	 -90.5182 	 -5.0648 	 -118.875
|  8> C 	 -90.0906 	 -4.32549 	 -117.318
|  9> C 	 -90.9588 	 -3.28879 	 -116.951
| 10> C 	 -91.9262 	 -3.02068 	 -117.972
| 11> C 	 -91.8665 	 -3.91214 	 -118.96
| 12> H 	 -92.7026 	 -2.25831 	 -117.849
| 13> C 	 -90.8885 	 -2.57476 	 -115.604
| 14> H 	 -90.8756 	 -3.39639 	 -114.873
| 15> H 	 -91.7437 	 -2.02895 	 -115.54
| 16> C 	 -89.6704 	 -1.6316 	 -115.393
| 17> H 	 -88.7426 	 -2.24556 	 -115.6
| 18> H 	 -89.6949 	 -0.767967 	 -116.076
| 19> C 	 -89.6128 	 -1.15293 	 -113.859
| 20> H 	 -89.1866 	 -1.98021 	 -113.164
| 21> H 	 -88.9994 	 -0.238041 	 -113.743
| 22> H 	 -90.5486 	 -0.722686 	 -113.415
| 23> S 	 -91.9304 	 -3.65686 	 -121.735
| 24> C 	 -93.4395 	 -3.46348 	 -122.504
| 25> C 	 -94.4916 	 -3.68477 	 -121.632
| 26> C 	 -94.0679 	 -4.08076 	 -120.375
| 27> C 	 -92.7244 	 -3.95405 	 -120.211
| 28> H 	 -95.4786 	 -3.52996 	 -122.039
| 29> C 	 -95.0917 	 -4.21121 	 -119.243
| 30> H 	 -94.5627 	 -4.83319 	 -118.523
| 31> H 	 -95.9775 	 -4.80977 	 -119.599
| 32> C 	 -95.6136 	 -2.86407 	 -118.508
| 33> H 	 -95.8004 	 -2.12953 	 -119.313
| 34> H 	 -94.8124 	 -2.65857 	 -117.862
| 35> C 	 -96.7751 	 -3.00007 	 -117.508
| 36> H 	 -96.9457 	 -2.05101 	 -117.014
| 37> H 	 -96.6084 	 -3.71222 	 -116.682
| 38> H 	 -97.6987 	 -3.2298 	 -118.028
| 39> H 	 -89.2373 	 -4.64084 	 -116.747
| 40> H 	 -93.5146 	 -3.06602 	 -123.504
| 41> *
| 42>
| 43>                          ****END OF INPUT****

CARTESIAN COORDINATES (ANGSTROEM)
---------------------------------
  S    -90.518200   -5.064800  -118.875000
  C    -90.090600   -4.325490  -117.318000
  C    -90.958800   -3.288790  -116.951000
  C    -91.926200   -3.020680  -117.972000
  C    -91.866500   -3.912140  -118.960000
  H    -92.702600   -2.258310  -117.849000
  C    -90.888500   -2.574760  -115.604000
  H    -90.875600   -3.396390  -114.873000
  H    -91.743700   -2.028950  -115.540000
  C    -89.670400   -1.631600  -115.393000
  H    -88.742600   -2.245560  -115.600000
  H    -89.694900   -0.767967  -116.076000
  C    -89.612800   -1.152930  -113.859000
  H    -89.186600   -1.980210  -113.164000
  H    -88.999400   -0.238041  -113.743000
  H    -90.548600   -0.722686  -113.415000
  S    -91.930400   -3.656860  -121.735000
  C    -93.439500   -3.463480  -122.504000
  C    -94.491600   -3.684770  -121.632000
  C    -94.067900   -4.080760  -120.375000
  C    -92.724400   -3.954050  -120.211000
  H    -95.478600   -3.529960  -122.039000
  C    -95.091700   -4.211210  -119.243000
  H    -94.562700   -4.833190  -118.523000
  H    -95.977500   -4.809770  -119.599000
  C    -95.613600   -2.864070  -118.508000
  H    -95.800400   -2.129530  -119.313000
  H    -94.812400   -2.658570  -117.862000
  C    -96.775100   -3.000070  -117.508000
  H    -96.945700   -2.051010  -117.014000
  H    -96.608400   -3.712220  -116.682000
  H    -97.698700   -3.229800  -118.028000
  H    -89.237300   -4.640840  -116.747000
  H    -93.514600   -3.066020  -123.504000

 Total Charge           Charge          ....    0
 Multiplicity           Mult            ....    1
 Number of Electrons    NEL             ....  134
 Basis Dimension        Dim             ....  322

ORBITAL ENERGIES
----------------

  NO   OCC          E(Eh)            E(eV)
   0   2.0000     -88.967247     -2420.9219
   1   2.0000     -88.963036     -2420.8073
   2   2.0000     -10.330690      -281.1124
   3   2.0000     -10.322642      -280.8934
   4   2.0000     -10.313776      -280.6521
   5   2.0000     -10.309508      -280.5360
   6   2.0000     -10.302593      -280.3478
   7   2.0000     -10.301825      -280.3269
   8   2.0000     -10.295785      -280.1626
   9   2.0000     -10.295474      -280.1541
  10   2.0000     -10.294633      -280.1312
  11   2.0000     -10.293910      -280.1115
  12   2.0000     -10.290910      -280.0299
  13   2.0000     -10.289027      -279.9787
  14   2.0000     -10.286240      -279.9028
  15   2.0000     -10.280585      -279.7489
  16   2.0000      -8.081215      -219.9010
  17   2.0000      -8.078948      -219.8394
  18   2.0000      -6.039672      -164.3478
  19   2.0000      -6.037190      -164.2803
  20   2.0000      -6.036028      -164.2487
  21   2.0000      -6.033268      -164.1736
  22   2.0000      -6.031899      -164.1363
  23   2.0000      -6.029947      -164.0832
  24   2.0000      -1.010284       -27.4912
  25   2.0000      -0.986367       -26.8404
  26   2.0000      -0.904584       -24.6150
  27   2.0000      -0.898592       -24.4519
  28   2.0000      -0.858692       -23.3662
  29   2.0000      -0.856059       -23.2945
  30   2.0000      -0.846428       -23.0325
  31   2.0000      -0.813487       -22.1361
  32   2.0000      -0.779942       -21.2233
  33   2.0000      -0.768210       -20.9041
  34   2.0000      -0.703900       -19.1541
  35   2.0000      -0.700480       -19.0610
  36   2.0000      -0.690237       -18.7823
  37   2.0000      -0.661991       -18.0137
  38   2.0000      -0.641178       -17.4474
  39   2.0000      -0.621383       -16.9087
  40   2.0000      -0.591132       -16.0855
  41   2.0000      -0.571785       -15.5591
  42   2.0000      -0.566382       -15.4120
  43   2.0000      -0.555979       -15.1289
  44   2.0000      -0.522055       -14.2059
  45   2.0000      -0.518374       -14.1057
  46   2.0000      -0.511466       -13.9177
  47   2.0000      -0.504943       -13.7402
  48   2.0000      -0.503053       -13.6888
  49   2.0000      -0.502328       -13.6690
  50   2.0000      -0.486455       -13.2371
  51   2.0000      -0.475917       -12.9504
  52   2.0000      -0.470982       -12.8161
  53   2.0000      -0.461815       -12.5666
  54   2.0000      -0.459385       -12.5005
  55   2.0000      -0.455343       -12.3905
  56   2.0000      -0.442941       -12.0530
  57   2.0000      -0.437692       -11.9102
  58   2.0000      -0.428183       -11.6515
  59   2.0000      -0.426858       -11.6154
  60   2.0000      -0.426158       -11.5964
  61   2.0000      -0.419458       -11.4140
  62   2.0000      -0.411640       -11.2013
  63   2.0000      -0.344232        -9.3670
  64   2.0000      -0.332516        -9.0482
  65   2.0000      -0.327025        -8.8988
  66   2.0000      -0.297546        -8.0966
  67   0.0000       0.040209         1.0941
  68   0.0000       0.062204         1.6927
  69   0.0000       0.103869         2.8264
  70   0.0000       0.126780         3.4499
  71   0.0000       0.132833         3.6146

MULLIKEN ATOMIC CHARGES
-----------------------
   0 S :    0.106770
   1 C :   -0.126278
   2 C :   -0.115772
   3 C :    0.038049
   4 C :   -0.142738
   5 H :    0.024635
   6 C :    0.121431
   7 H :    0.039756
   8 H :   -0.012645
   9 C :   -0.083750
  10 H :    0.041855
  11 H :    0.043243
  12 C :   -0.108999
  13 H :    0.057112
  14 H :    0.035657
  15 H :    0.037096
  16 S :    0.119414
  17 C :   -0.104241
  18 C :   -0.045054
  19 C :    0.002611
  20 C :   -0.176371
  21 H :    0.015953
  22 C :    0.022765
  23 H :    0.029278
  24 H :    0.031176
  25 C :   -0.057601
  26 H :    0.042972
  27 H :    0.016290
  28 C :   -0.048523
  29 H :    0.030693
  30 H :    0.038412
  31 H :    0.029146
  32 H :    0.041851
  33 H :    0.055805
Sum of atomic charges:    0.0000000

LOEWDIN ATOMIC CHARGES
----------------------
   0 S :    0.381278
   1 C :   -0.187880
   2 C :   -0.057289
   3 C :   -0.064690
   4 C :   -0.174885
   5 H :    0.036622
   6 C :   -0.024555
   7 H :    0.038454
   8 H :    0.012334
   9 C :   -0.035247
  10 H :    0.030271
  11 H :    0.027298
  12 C :   -0.089677
  13 H :    0.037097
  14 H :    0.027097
  15 H :    0.027811
  16 S :    0.427902
  17 C :   -0.197043
  18 C :   -0.072178
  19 C :   -0.069249
  20 C :   -0.200418
  21 H :    0.031899
  22 C :   -0.033571
  23 H :    0.027785
  24 H :    0.030950
  25 C :   -0.034451
  26 H :    0.028617
  27 H :    0.015053
  28 C :   -0.065538
  29 H :    0.027908
  30 H :    0.029921
  31 H :    0.021488
  32 H :    0.020476
  33 H :    0.026409

  Mayer bond orders larger than 0.100000
B(  0-S ,  1-C ) :   1.1253 B(  0-S ,  4-C ) :   1.1462 B(  1-C ,  2-C ) :   1.6290
B(  1-C , 32-H ) :   0.9712 B(  2-C ,  3-C ) :   1.2262 B(  2-C ,  6-C ) :   1.0098
B(  3-C ,  4-C ) :   1.6302 B(  3-C ,  5-H ) :   0.9815 B(  4-C , 20-C ) :   0.9684
B(  6-C ,  7-H ) :   0.9438 B(  6-C ,  8-H ) :   0.9324 B(  6-C ,  9-C ) :   1.0613
B(  9-C , 10-H ) :   0.9612 B(  9-C , 11-H ) :   0.9594 B(  9-C , 12-C ) :   1.0580
B( 12-C , 13-H ) :   0.9764 B( 12-C , 14-H ) :   0.9767 B( 12-C , 15-H ) :   0.9759
B( 16-S , 17-C ) :   1.1762 B( 16-S , 20-C ) :   1.1663 B( 17-C , 18-C ) :   1.5918
B( 17-C , 33-H ) :   0.9686 B( 18-C , 19-C ) :   1.2353 B( 18-C , 21-H ) :   1.0003
B( 19-C , 20-C ) :   1.5992 B( 19-C , 22-C ) :   1.0573 B( 22-C , 23-H ) :   0.9347
B( 22-C , 24-H ) :   0.9421 B( 22-C , 25-C ) :   1.0413 B( 25-C , 26-H ) :   0.9623
B( 25-C , 27-H ) :   0.9496 B( 25-C , 28-C ) :   1.0849 B( 28-C , 29-H ) :   0.9721
B( 28-C , 30-H ) :   0.9749 B( 28-C , 31-H ) :   0.9760

Dispersion correction           -0.014048871
FINAL SINGLE POINT ENERGY     -1339.865460656547

DIPOLE MOMENT
-------------
                                X             Y             Z
Electronic contribution:     10.51374     -12.96154     -25.41258
Nuclear contribution   :    -10.85792      13.45977      25.88504
                        -----------------------------------------
Total Dipole Moment    :     -0.34418       0.49823       0.47245
                        -----------------------------------------
Magnitude (a.u.)       :      0.76805
Magnitude (Debye)      :      1.95223

Rotational constants in cm-1:     0.017800     0.008219     0.006300
Rotational constants in MHz :   533.642811   246.407617   188.878938

                             ****ORCA TERMINATED NORMALLY****
TOTAL RUN TIME: 0 days 0 hours 0 minutes 20 seconds 90 msec
