                         Program Version 4.2.1 -  RELEASE  -
|  1> ! wB97X-D3 SP def2-SVP
|  2> %pal
|  3> nprocs 24
|  4> end
|  5>
|  6> * xyz 0 1
|  7> S 	 32.7574 	 0.872358 	 -116.133
|  8> C 	 31.6533 	 1.8501 	 -117.081
|  9> C 	 30.49 	 2.17794 	 -116.385
| 10> C 	 30.5373 	 1.62746 	 -115.074
| 11> C 	 31.6624 	 0.961576 	 -114.735
| 12> H 	 29.8029 	 1.69441 	 -114.343
| 13> C 	 29.4121 	 3.03798 	 -116.975
| 14> H 	 28.9202 	 2.44508 	 -117.713
| 15> H 	 29.9066 	 3.73782 	 -117.65
| 16> C 	 28.5368 	 3.97212 	 -116.114
| 17> H 	 28.0771 	 3.19126 	 -115.454
| 18> H 	 29.1639 	 4.65351 	 -115.495
| 19> C 	 27.4241 	 4.69816 	 -116.899
| 20> H 	 26.7548 	 5.26925 	 -116.286
| 21> H 	 27.8908 	 5.43684 	 -117.574
| 22> H 	 26.7492 	 4.03977 	 -117.446
| 23> S 	 32.2776 	 -1.50009 	 -113.836
| 24> C 	 32.2765 	 -1.83956 	 -112.13
| 25> C 	 32.2277 	 -0.682436 	 -111.414
| 26> C 	 31.9337 	 0.460205 	 -112.22
| 27> C 	 31.9782 	 0.197478 	 -113.58
| 28> H 	 32.1631 	 -0.736902 	 -110.354
| 29> C 	 31.6071 	 1.80177 	 -111.506
| 30> H 	 32.2808 	 2.50277 	 -111.959
| 31> H 	 31.9209 	 1.78536 	 -110.507
| 32> C 	 30.2066 	 2.34538 	 -111.491
| 33> H 	 29.9514 	 2.74027 	 -112.446
| 34> H 	 30.2489 	 3.22505 	 -110.832
| 35> C 	 29.2627 	 1.26215 	 -111.034
| 36> H 	 29.6052 	 0.80042 	 -110.077
| 37> H 	 29.0834 	 0.466643 	 -111.688
| 38> H 	 28.3719 	 1.86537 	 -110.887
| 39> H 	 31.8606 	 2.15073 	 -118.091
| 40> H 	 32.4662 	 -2.82794 	 -111.755
| 41> *
| 42>
| 43>                          ****END OF INPUT****

CARTESIAN COORDINATES (ANGSTROEM)
---------------------------------
  S     32.757400    0.872358  -116.133000
  C     31.653300    1.850100  -117.081000
  C     30.490000    2.177940  -116.385000
  C     30.537300    1.627460  -115.074000
  C     31.662400    0.961576  -114.735000
  H     29.802900    1.694410  -114.343000
  C     29.412100    3.037980  -116.975000
  H     28.920200    2.445080  -117.713000
  H     29.906600    3.737820  -117.650000
  C     28.536800    3.972120  -116.114000
  H     28.077100    3.191260  -115.454000
  H     29.163900    4.653510  -115.495000
  C     27.424100    4.698160  -116.899000
  H     26.754800    5.269250  -116.286000
  H     27.890800    5.436840  -117.574000
  H     26.749200    4.039770  -117.446000
  S     32.277600   -1.500090  -113.836000
  C     32.276500   -1.839560  -112.130000
  C     32.227700   -0.682436  -111.414000
  C     31.933700    0.460205  -112.220000
  C     31.978200    0.197478  -113.580000
  H     32.163100   -0.736902  -110.354000
  C     31.607100    1.801770  -111.506000
  H     32.280800    2.502770  -111.959000
  H     31.920900    1.785360  -110.507000
  C     30.206600    2.345380  -111.491000
  H     29.951400    2.740270  -112.446000
  H     30.248900    3.225050  -110.832000
  C     29.262700    1.262150  -111.034000
  H     29.605200    0.800420  -110.077000
  H     29.083400    0.466643  -111.688000
  H     28.371900    1.865370  -110.887000
  H     31.860600    2.150730  -118.091000
  H     32.466200   -2.827940  -111.755000

 Total Charge           Charge          ....    0
 Multiplicity           Mult            ....    1
 Number of Electrons    NEL             ....  134
 Basis Dimension        Dim             ....  322

ORBITAL ENERGIES
----------------

  NO   OCC          E(Eh)            E(eV)
   0   2.0000     -88.963138     -2420.8100
   1   2.0000     -88.961407     -2420.7630
   2   2.0000     -10.324135      -280.9340
   3   2.0000     -10.321937      -280.8742
   4   2.0000     -10.313336      -280.6402
   5   2.0000     -10.312636      -280.6211
   6   2.0000     -10.303960      -280.3850
   7   2.0000     -10.302909      -280.3564
   8   2.0000     -10.299200      -280.2555
   9   2.0000     -10.289300      -279.9861
  10   2.0000     -10.288613      -279.9674
  11   2.0000     -10.286831      -279.9189
  12   2.0000     -10.284440      -279.8538
  13   2.0000     -10.280123      -279.7364
  14   2.0000     -10.279227      -279.7120
  15   2.0000     -10.271634      -279.5054
  16   2.0000      -8.077602      -219.8027
  17   2.0000      -8.076848      -219.7822
  18   2.0000      -6.036069      -164.2498
  19   2.0000      -6.035363      -164.2306
  20   2.0000      -6.032175      -164.1438
  21   2.0000      -6.031176      -164.1166
  22   2.0000      -6.028406      -164.0413
  23   2.0000      -6.027613      -164.0197
  24   2.0000      -1.010127       -27.4869
  25   2.0000      -0.984560       -26.7912
  26   2.0000      -0.916064       -24.9274
  27   2.0000      -0.912395       -24.8275
  28   2.0000      -0.874921       -23.8078
  29   2.0000      -0.850382       -23.1401
  30   2.0000      -0.845369       -23.0036
  31   2.0000      -0.821550       -22.3555
  32   2.0000      -0.787279       -21.4229
  33   2.0000      -0.775240       -21.0954
  34   2.0000      -0.717128       -19.5141
  35   2.0000      -0.700209       -19.0537
  36   2.0000      -0.687368       -18.7042
  37   2.0000      -0.665811       -18.1176
  38   2.0000      -0.649057       -17.6617
  39   2.0000      -0.623559       -16.9679
  40   2.0000      -0.592513       -16.1231
  41   2.0000      -0.569181       -15.4882
  42   2.0000      -0.564868       -15.3708
  43   2.0000      -0.560007       -15.2386
  44   2.0000      -0.554517       -15.0892
  45   2.0000      -0.524623       -14.2757
  46   2.0000      -0.521078       -14.1792
  47   2.0000      -0.506070       -13.7709
  48   2.0000      -0.505449       -13.7540
  49   2.0000      -0.501934       -13.6583
  50   2.0000      -0.497213       -13.5299
  51   2.0000      -0.485897       -13.2219
  52   2.0000      -0.477564       -12.9952
  53   2.0000      -0.471792       -12.8381
  54   2.0000      -0.458264       -12.4700
  55   2.0000      -0.452222       -12.3056
  56   2.0000      -0.443807       -12.0766
  57   2.0000      -0.440937       -11.9985
  58   2.0000      -0.429028       -11.6745
  59   2.0000      -0.425743       -11.5851
  60   2.0000      -0.415884       -11.3168
  61   2.0000      -0.414278       -11.2731
  62   2.0000      -0.401871       -10.9355
  63   2.0000      -0.350253        -9.5309
  64   2.0000      -0.329569        -8.9680
  65   2.0000      -0.327992        -8.9251
  66   2.0000      -0.291348        -7.9280
  67   0.0000       0.033197         0.9033
  68   0.0000       0.064438         1.7535
  69   0.0000       0.115882         3.1533
  70   0.0000       0.128479         3.4961
  71   0.0000       0.131846         3.5877

MULLIKEN ATOMIC CHARGES
-----------------------
   0 S :    0.099522
   1 C :   -0.122376
   2 C :   -0.054933
   3 C :    0.050155
   4 C :   -0.155023
   5 H :   -0.027957
   6 C :    0.060809
   7 H :    0.028620
   8 H :    0.008325
   9 C :   -0.095755
  10 H :    0.036692
  11 H :    0.048371
  12 C :   -0.033231
  13 H :    0.028298
  14 H :    0.034525
  15 H :    0.033538
  16 S :    0.102172
  17 C :   -0.095270
  18 C :   -0.012574
  19 C :   -0.072612
  20 C :   -0.139862
  21 H :    0.012383
  22 C :    0.093914
  23 H :    0.021877
  24 H :   -0.001467
  25 C :   -0.046329
  26 H :    0.011062
  27 H :    0.027378
  28 C :   -0.030036
  29 H :    0.025478
  30 H :    0.038341
  31 H :    0.030791
  32 H :    0.040354
  33 H :    0.054820
Sum of atomic charges:    0.0000000

LOEWDIN ATOMIC CHARGES
----------------------
   0 S :    0.388857
   1 C :   -0.188111
   2 C :   -0.058294
   3 C :   -0.055813
   4 C :   -0.181551
   5 H :    0.017751
   6 C :   -0.043026
   7 H :    0.032410
   8 H :    0.030112
   9 C :   -0.042909
  10 H :    0.025473
  11 H :    0.031471
  12 C :   -0.063555
  13 H :    0.025228
  14 H :    0.028125
  15 H :    0.028208
  16 S :    0.413180
  17 C :   -0.179275
  18 C :   -0.072551
  19 C :   -0.050014
  20 C :   -0.208357
  21 H :    0.026850
  22 C :   -0.029482
  23 H :    0.030130
  24 H :    0.021032
  25 C :   -0.036651
  26 H :    0.013758
  27 H :    0.029883
  28 C :   -0.059002
  29 H :    0.028306
  30 H :    0.019652
  31 H :    0.029078
  32 H :    0.022856
  33 H :    0.026231

  Mayer bond orders larger than 0.100000
B(  0-S ,  1-C ) :   1.1431 B(  0-S ,  4-C ) :   1.1292 B(  1-C ,  2-C ) :   1.6105
B(  1-C ,  4-C ) :   0.1012 B(  1-C , 32-H ) :   0.9712 B(  2-C ,  3-C ) :   1.2252
B(  2-C ,  6-C ) :   1.0109 B(  3-C ,  4-C ) :   1.6104 B(  3-C ,  5-H ) :   1.0012
B(  4-C , 20-C ) :   1.0373 B(  6-C ,  7-H ) :   0.9318 B(  6-C ,  8-H ) :   0.9363
B(  6-C ,  9-C ) :   1.0465 B(  9-C , 10-H ) :   0.9539 B(  9-C , 11-H ) :   0.9596
B(  9-C , 12-C ) :   1.0829 B( 12-C , 13-H ) :   0.9735 B( 12-C , 14-H ) :   0.9753
B( 12-C , 15-H ) :   0.9743 B( 16-S , 17-C ) :   1.1652 B( 16-S , 20-C ) :   1.1396
B( 17-C , 18-C ) :   1.6022 B( 17-C , 33-H ) :   0.9691 B( 18-C , 19-C ) :   1.2423
B( 18-C , 21-H ) :   0.9920 B( 19-C , 20-C ) :   1.6008 B( 19-C , 22-C ) :   1.0292
B( 22-C , 23-H ) :   0.9262 B( 22-C , 24-H ) :   0.9358 B( 22-C , 25-C ) :   1.0876
B( 25-C , 26-H ) :   0.9474 B( 25-C , 27-H ) :   0.9495 B( 25-C , 28-C ) :   1.0736
B( 28-C , 29-H ) :   0.9741 B( 28-C , 30-H ) :   0.9715 B( 28-C , 31-H ) :   0.9733

Dispersion correction           -0.014870820
FINAL SINGLE POINT ENERGY     -1339.871318277087

DIPOLE MOMENT
-------------
                                X             Y             Z
Electronic contribution:     22.03198     -20.21280      -5.84903
Nuclear contribution   :    -22.58966      20.65800       6.07040
                        -----------------------------------------
Total Dipole Moment    :     -0.55767       0.44520       0.22138
                        -----------------------------------------
Magnitude (a.u.)       :      0.74714
Magnitude (Debye)      :      1.89907

Rotational constants in cm-1:     0.019108     0.009157     0.006753
Rotational constants in MHz :   572.839237   274.534910   202.453462

                             ****ORCA TERMINATED NORMALLY****
TOTAL RUN TIME: 0 days 0 hours 0 minutes 21 seconds 52 msec
