                         Program Version 4.2.1 -  RELEASE  -
|  1> ! wB97X-D3 SP def2-SVP
|  2> %pal
|  3> nprocs 24
|  4> end
|  5>
|  6> * xyz 0 1
|  7> S 	 -102.035 	 58.5903 	 -98.4897
|  8> C 	 -102.319 	 57.2934 	 -97.4016
|  9> C 	 -103.278 	 56.4385 	 -97.906
| 10> C 	 -103.544 	 56.7371 	 -99.2974
| 11> C 	 -102.951 	 57.8596 	 -99.7992
| 12> H 	 -104.25 	 56.1715 	 -99.8901
| 13> C 	 -103.859 	 55.2522 	 -97.1858
| 14> H 	 -104.707 	 54.8998 	 -97.7589
| 15> H 	 -104.237 	 55.4317 	 -96.1592
| 16> C 	 -102.835 	 54.1369 	 -97.0541
| 17> H 	 -101.916 	 54.5084 	 -96.6133
| 18> H 	 -103.205 	 53.364 	 -96.3452
| 19> C 	 -102.393 	 53.4953 	 -98.3392
| 20> H 	 -101.874 	 54.1762 	 -98.9992
| 21> H 	 -101.806 	 52.6143 	 -98.0875
| 22> H 	 -103.282 	 53.0935 	 -98.8186
| 23> S 	 -103.83 	 60.2887 	 -100.675
| 24> C 	 -104.143 	 60.5774 	 -102.337
| 25> C 	 -103.922 	 59.3989 	 -103.09
| 26> C 	 -103.461 	 58.2855 	 -102.332
| 27> C 	 -103.369 	 58.6399 	 -101.031
| 28> H 	 -103.914 	 59.3939 	 -104.163
| 29> C 	 -103.012 	 56.996 	 -102.951
| 30> H 	 -103.195 	 57.0611 	 -104.093
| 31> H 	 -103.806 	 56.2936 	 -102.598
| 32> C 	 -101.582 	 56.6118 	 -102.52
| 33> H 	 -101.338 	 56.6356 	 -101.455
| 34> H 	 -100.884 	 57.3702 	 -102.848
| 35> C 	 -101.289 	 55.2254 	 -103
| 36> H 	 -101.49 	 55.1055 	 -104.092
| 37> H 	 -101.911 	 54.4972 	 -102.407
| 38> H 	 -100.241 	 55.0344 	 -102.692
| 39> H 	 -102.054 	 57.3008 	 -96.3534
| 40> H 	 -104.372 	 61.5043 	 -102.844
| 41> *
| 42>
| 43>                          ****END OF INPUT****

CARTESIAN COORDINATES (ANGSTROEM)
---------------------------------
  S    -102.035000   58.590300  -98.489700
  C    -102.319000   57.293400  -97.401600
  C    -103.278000   56.438500  -97.906000
  C    -103.544000   56.737100  -99.297400
  C    -102.951000   57.859600  -99.799200
  H    -104.250000   56.171500  -99.890100
  C    -103.859000   55.252200  -97.185800
  H    -104.707000   54.899800  -97.758900
  H    -104.237000   55.431700  -96.159200
  C    -102.835000   54.136900  -97.054100
  H    -101.916000   54.508400  -96.613300
  H    -103.205000   53.364000  -96.345200
  C    -102.393000   53.495300  -98.339200
  H    -101.874000   54.176200  -98.999200
  H    -101.806000   52.614300  -98.087500
  H    -103.282000   53.093500  -98.818600
  S    -103.830000   60.288700  -100.675000
  C    -104.143000   60.577400  -102.337000
  C    -103.922000   59.398900  -103.090000
  C    -103.461000   58.285500  -102.332000
  C    -103.369000   58.639900  -101.031000
  H    -103.914000   59.393900  -104.163000
  C    -103.012000   56.996000  -102.951000
  H    -103.195000   57.061100  -104.093000
  H    -103.806000   56.293600  -102.598000
  C    -101.582000   56.611800  -102.520000
  H    -101.338000   56.635600  -101.455000
  H    -100.884000   57.370200  -102.848000
  C    -101.289000   55.225400  -103.000000
  H    -101.490000   55.105500  -104.092000
  H    -101.911000   54.497200  -102.407000
  H    -100.241000   55.034400  -102.692000
  H    -102.054000   57.300800  -96.353400
  H    -104.372000   61.504300  -102.844000

 Total Charge           Charge          ....    0
 Multiplicity           Mult            ....    1
 Number of Electrons    NEL             ....  134
 Basis Dimension        Dim             ....  322

ORBITAL ENERGIES
----------------

  NO   OCC          E(Eh)            E(eV)
   0   2.0000     -88.967547     -2420.9300
   1   2.0000     -88.965250     -2420.8675
   2   2.0000     -10.331014      -281.1212
   3   2.0000     -10.325283      -280.9652
   4   2.0000     -10.315687      -280.7041
   5   2.0000     -10.312021      -280.6043
   6   2.0000     -10.302475      -280.3446
   7   2.0000     -10.301856      -280.3277
   8   2.0000     -10.295846      -280.1642
   9   2.0000     -10.293620      -280.1036
  10   2.0000     -10.292113      -280.0626
  11   2.0000     -10.291698      -280.0513
  12   2.0000     -10.282512      -279.8014
  13   2.0000     -10.281331      -279.7692
  14   2.0000     -10.281041      -279.7613
  15   2.0000     -10.271166      -279.4926
  16   2.0000      -8.082629      -219.9395
  17   2.0000      -8.080337      -219.8771
  18   2.0000      -6.041084      -164.3863
  19   2.0000      -6.038851      -164.3255
  20   2.0000      -6.037064      -164.2769
  21   2.0000      -6.034729      -164.2133
  22   2.0000      -6.033441      -164.1783
  23   2.0000      -6.031126      -164.1153
  24   2.0000      -1.010133       -27.4871
  25   2.0000      -0.989447       -26.9242
  26   2.0000      -0.917466       -24.9655
  27   2.0000      -0.913272       -24.8514
  28   2.0000      -0.863907       -23.5081
  29   2.0000      -0.858602       -23.3637
  30   2.0000      -0.845451       -23.0059
  31   2.0000      -0.813609       -22.1394
  32   2.0000      -0.781335       -21.2612
  33   2.0000      -0.771723       -20.9997
  34   2.0000      -0.704455       -19.1692
  35   2.0000      -0.697541       -18.9810
  36   2.0000      -0.684956       -18.6386
  37   2.0000      -0.666851       -18.1459
  38   2.0000      -0.642254       -17.4766
  39   2.0000      -0.615127       -16.7385
  40   2.0000      -0.594371       -16.1736
  41   2.0000      -0.577145       -15.7049
  42   2.0000      -0.560601       -15.2547
  43   2.0000      -0.550534       -14.9808
  44   2.0000      -0.540691       -14.7129
  45   2.0000      -0.530866       -14.4456
  46   2.0000      -0.513013       -13.9598
  47   2.0000      -0.509954       -13.8766
  48   2.0000      -0.508193       -13.8286
  49   2.0000      -0.495083       -13.4719
  50   2.0000      -0.492505       -13.4017
  51   2.0000      -0.483138       -13.1469
  52   2.0000      -0.470982       -12.8161
  53   2.0000      -0.469857       -12.7854
  54   2.0000      -0.456865       -12.4319
  55   2.0000      -0.453503       -12.3405
  56   2.0000      -0.440128       -11.9765
  57   2.0000      -0.434823       -11.8321
  58   2.0000      -0.430234       -11.7073
  59   2.0000      -0.426221       -11.5981
  60   2.0000      -0.417433       -11.3589
  61   2.0000      -0.413582       -11.2541
  62   2.0000      -0.411871       -11.2076
  63   2.0000      -0.347428        -9.4540
  64   2.0000      -0.332017        -9.0347
  65   2.0000      -0.325613        -8.8604
  66   2.0000      -0.294292        -8.0081
  67   0.0000       0.032850         0.8939
  68   0.0000       0.067766         1.8440
  69   0.0000       0.113137         3.0786
  70   0.0000       0.124532         3.3887
  71   0.0000       0.127459         3.4683

MULLIKEN ATOMIC CHARGES
-----------------------
   0 S :    0.097972
   1 C :   -0.108845
   2 C :   -0.120783
   3 C :    0.037288
   4 C :   -0.141215
   5 H :    0.006475
   6 C :    0.090399
   7 H :    0.014207
   8 H :    0.034513
   9 C :   -0.095698
  10 H :    0.020130
  11 H :    0.028313
  12 C :   -0.037752
  13 H :    0.048860
  14 H :    0.031794
  15 H :    0.013402
  16 S :    0.125953
  17 C :   -0.088033
  18 C :   -0.048265
  19 C :   -0.034742
  20 C :   -0.174052
  21 H :    0.007144
  22 C :    0.046766
  23 H :    0.036857
  24 H :    0.039871
  25 C :   -0.080505
  26 H :    0.046934
  27 H :    0.028846
  28 C :   -0.046578
  29 H :    0.040107
  30 H :    0.035334
  31 H :    0.034804
  32 H :    0.055405
  33 H :    0.055096
Sum of atomic charges:    0.0000000

LOEWDIN ATOMIC CHARGES
----------------------
   0 S :    0.411846
   1 C :   -0.206509
   2 C :   -0.063175
   3 C :   -0.064698
   4 C :   -0.197453
   5 H :    0.027026
   6 C :   -0.033263
   7 H :    0.027013
   8 H :    0.036429
   9 C :   -0.044004
  10 H :    0.020145
  11 H :    0.024687
  12 C :   -0.062965
  13 H :    0.025154
  14 H :    0.029003
  15 H :    0.019959
  16 S :    0.426831
  17 C :   -0.203257
  18 C :   -0.069380
  19 C :   -0.067836
  20 C :   -0.193219
  21 H :    0.023883
  22 C :   -0.034879
  23 H :    0.040939
  24 H :    0.037832
  25 C :   -0.047859
  26 H :    0.032431
  27 H :    0.025794
  28 C :   -0.067855
  29 H :    0.026820
  30 H :    0.029184
  31 H :    0.029209
  32 H :    0.031157
  33 H :    0.031009

  Mayer bond orders larger than 0.100000
B(  0-S ,  1-C ) :   1.1528 B(  0-S ,  4-C ) :   1.1481 B(  1-C ,  2-C ) :   1.5937
B(  1-C , 32-H ) :   0.9646 B(  2-C ,  3-C ) :   1.2625 B(  2-C ,  6-C ) :   1.0325
B(  3-C ,  4-C ) :   1.5691 B(  3-C ,  5-H ) :   0.9916 B(  4-C , 20-C ) :   0.9980
B(  6-C ,  7-H ) :   0.9396 B(  6-C ,  8-H ) :   0.9373 B(  6-C ,  9-C ) :   1.0768
B(  9-C , 10-H ) :   0.9545 B(  9-C , 11-H ) :   0.9544 B(  9-C , 12-C ) :   1.0847
B( 12-C , 13-H ) :   0.9729 B( 12-C , 14-H ) :   0.9702 B( 12-C , 15-H ) :   0.9724
B( 16-S , 17-C ) :   1.1599 B( 16-S , 20-C ) :   1.1523 B( 17-C , 18-C ) :   1.5940
B( 17-C , 33-H ) :   0.9684 B( 18-C , 19-C ) :   1.2637 B( 18-C , 21-H ) :   0.9839
B( 19-C , 20-C ) :   1.6199 B( 19-C , 22-C ) :   1.0255 B( 22-C , 23-H ) :   0.9357
B( 22-C , 24-H ) :   0.9271 B( 22-C , 25-C ) :   1.0518 B( 25-C , 26-H ) :   0.9491
B( 25-C , 27-H ) :   0.9509 B( 25-C , 28-C ) :   1.0899 B( 28-C , 29-H ) :   0.9714
B( 28-C , 30-H ) :   0.9737 B( 28-C , 31-H ) :   0.9715

Dispersion correction           -0.015239470
FINAL SINGLE POINT ENERGY     -1339.883279772701

DIPOLE MOMENT
-------------
                                X             Y             Z
Electronic contribution:     -4.57849      28.06932       3.75280
Nuclear contribution   :      4.47357     -28.55684      -3.80976
                        -----------------------------------------
Total Dipole Moment    :     -0.10492      -0.48752      -0.05696
                        -----------------------------------------
Magnitude (a.u.)       :      0.50192
Magnitude (Debye)      :      1.27578

Rotational constants in cm-1:     0.019450     0.009754     0.007334
Rotational constants in MHz :   583.104466   292.432276   219.868824

                             ****ORCA TERMINATED NORMALLY****
TOTAL RUN TIME: 0 days 0 hours 0 minutes 22 seconds 627 msec
