                         Program Version 4.2.1 -  RELEASE  -
|  1> ! wB97X-D3 SP def2-SVP
|  2> %pal
|  3> nprocs 24
|  4> end
|  5>
|  6> * xyz 0 1
|  7> S 	 -104.554 	 -1.98725 	 -109.108
|  8> C 	 -105.737 	 -1.5464 	 -110.302
|  9> C 	 -107.006 	 -1.70151 	 -109.821
| 10> C 	 -107.041 	 -1.86887 	 -108.413
| 11> C 	 -105.811 	 -1.96684 	 -107.826
| 12> H 	 -107.919 	 -1.94587 	 -107.734
| 13> C 	 -108.227 	 -1.63827 	 -110.737
| 14> H 	 -108.917 	 -0.87353 	 -110.38
| 15> H 	 -108.8 	 -2.59728 	 -110.676
| 16> C 	 -108.087 	 -1.53198 	 -112.292
| 17> H 	 -107.734 	 -0.598914 	 -112.761
| 18> H 	 -107.286 	 -2.24737 	 -112.528
| 19> C 	 -109.34 	 -1.92849 	 -113.01
| 20> H 	 -109.201 	 -1.80669 	 -114.066
| 21> H 	 -109.39 	 -2.9412 	 -112.754
| 22> H 	 -110.205 	 -1.37963 	 -112.587
| 23> S 	 -105.019 	 -3.67175 	 -105.804
| 24> C 	 -104.588 	 -2.97789 	 -104.254
| 25> C 	 -105.031 	 -1.67817 	 -104.207
| 26> C 	 -105.371 	 -1.16512 	 -105.483
| 27> C 	 -105.476 	 -2.12421 	 -106.434
| 28> H 	 -104.854 	 -1.12415 	 -103.303
| 29> C 	 -105.603 	 0.255974 	 -105.708
| 30> H 	 -106.399 	 0.335206 	 -105.058
| 31> H 	 -105.909 	 0.437005 	 -106.734
| 32> C 	 -104.326 	 1.19509 	 -105.473
| 33> H 	 -103.939 	 1.13799 	 -104.515
| 34> H 	 -104.662 	 2.18401 	 -105.418
| 35> C 	 -103.228 	 1.17328 	 -106.567
| 36> H 	 -102.815 	 0.159306 	 -106.561
| 37> H 	 -102.443 	 1.94688 	 -106.574
| 38> H 	 -103.561 	 1.19583 	 -107.656
| 39> H 	 -105.3 	 -1.44594 	 -111.304
| 40> H 	 -104.053 	 -3.45924 	 -103.409
| 41> *
| 42>
| 43>                          ****END OF INPUT****

CARTESIAN COORDINATES (ANGSTROEM)
---------------------------------
  S    -104.554000   -1.987250  -109.108000
  C    -105.737000   -1.546400  -110.302000
  C    -107.006000   -1.701510  -109.821000
  C    -107.041000   -1.868870  -108.413000
  C    -105.811000   -1.966840  -107.826000
  H    -107.919000   -1.945870  -107.734000
  C    -108.227000   -1.638270  -110.737000
  H    -108.917000   -0.873530  -110.380000
  H    -108.800000   -2.597280  -110.676000
  C    -108.087000   -1.531980  -112.292000
  H    -107.734000   -0.598914  -112.761000
  H    -107.286000   -2.247370  -112.528000
  C    -109.340000   -1.928490  -113.010000
  H    -109.201000   -1.806690  -114.066000
  H    -109.390000   -2.941200  -112.754000
  H    -110.205000   -1.379630  -112.587000
  S    -105.019000   -3.671750  -105.804000
  C    -104.588000   -2.977890  -104.254000
  C    -105.031000   -1.678170  -104.207000
  C    -105.371000   -1.165120  -105.483000
  C    -105.476000   -2.124210  -106.434000
  H    -104.854000   -1.124150  -103.303000
  C    -105.603000    0.255974  -105.708000
  H    -106.399000    0.335206  -105.058000
  H    -105.909000    0.437005  -106.734000
  C    -104.326000    1.195090  -105.473000
  H    -103.939000    1.137990  -104.515000
  H    -104.662000    2.184010  -105.418000
  C    -103.228000    1.173280  -106.567000
  H    -102.815000    0.159306  -106.561000
  H    -102.443000    1.946880  -106.574000
  H    -103.561000    1.195830  -107.656000
  H    -105.300000   -1.445940  -111.304000
  H    -104.053000   -3.459240  -103.409000

 Total Charge           Charge          ....    0
 Multiplicity           Mult            ....    1
 Number of Electrons    NEL             ....  134
 Basis Dimension        Dim             ....  322

ORBITAL ENERGIES
----------------

  NO   OCC          E(Eh)            E(eV)
   0   2.0000     -88.960780     -2420.7459
   1   2.0000     -88.958783     -2420.6916
   2   2.0000     -10.327113      -281.0150
   3   2.0000     -10.319089      -280.7967
   4   2.0000     -10.314713      -280.6776
   5   2.0000     -10.313651      -280.6487
   6   2.0000     -10.305169      -280.4179
   7   2.0000     -10.298856      -280.2461
   8   2.0000     -10.298785      -280.2442
   9   2.0000     -10.292513      -280.0735
  10   2.0000     -10.288121      -279.9540
  11   2.0000     -10.286833      -279.9190
  12   2.0000     -10.282385      -279.7979
  13   2.0000     -10.281070      -279.7621
  14   2.0000     -10.279137      -279.7095
  15   2.0000     -10.273367      -279.5525
  16   2.0000      -8.075971      -219.7583
  17   2.0000      -8.073717      -219.6970
  18   2.0000      -6.034492      -164.2069
  19   2.0000      -6.032128      -164.1426
  20   2.0000      -6.030409      -164.0958
  21   2.0000      -6.028293      -164.0382
  22   2.0000      -6.026697      -163.9948
  23   2.0000      -6.024459      -163.9339
  24   2.0000      -1.011167       -27.5152
  25   2.0000      -0.988637       -26.9022
  26   2.0000      -0.912965       -24.8430
  27   2.0000      -0.906916       -24.6784
  28   2.0000      -0.874761       -23.8034
  29   2.0000      -0.852303       -23.1923
  30   2.0000      -0.847686       -23.0667
  31   2.0000      -0.818947       -22.2847
  32   2.0000      -0.781033       -21.2530
  33   2.0000      -0.766634       -20.8612
  34   2.0000      -0.713695       -19.4206
  35   2.0000      -0.703851       -19.1527
  36   2.0000      -0.692833       -18.8529
  37   2.0000      -0.659388       -17.9428
  38   2.0000      -0.649972       -17.6866
  39   2.0000      -0.612634       -16.6706
  40   2.0000      -0.591799       -16.1037
  41   2.0000      -0.575177       -15.6514
  42   2.0000      -0.569427       -15.4949
  43   2.0000      -0.560888       -15.2625
  44   2.0000      -0.535230       -14.5643
  45   2.0000      -0.525389       -14.2966
  46   2.0000      -0.517111       -14.0713
  47   2.0000      -0.515399       -14.0247
  48   2.0000      -0.503694       -13.7062
  49   2.0000      -0.499023       -13.5791
  50   2.0000      -0.488221       -13.2852
  51   2.0000      -0.481380       -13.0990
  52   2.0000      -0.469095       -12.7647
  53   2.0000      -0.460810       -12.5393
  54   2.0000      -0.454446       -12.3661
  55   2.0000      -0.452414       -12.3108
  56   2.0000      -0.444776       -12.1030
  57   2.0000      -0.437007       -11.8916
  58   2.0000      -0.433469       -11.7953
  59   2.0000      -0.419799       -11.4233
  60   2.0000      -0.419105       -11.4044
  61   2.0000      -0.415031       -11.2936
  62   2.0000      -0.403927       -10.9914
  63   2.0000      -0.336320        -9.1517
  64   2.0000      -0.328292        -8.9333
  65   2.0000      -0.323575        -8.8049
  66   2.0000      -0.305736        -8.3195
  67   0.0000       0.042750         1.1633
  68   0.0000       0.058253         1.5852
  69   0.0000       0.114516         3.1161
  70   0.0000       0.125150         3.4055
  71   0.0000       0.135815         3.6957

MULLIKEN ATOMIC CHARGES
-----------------------
   0 S :    0.096296
   1 C :   -0.154390
   2 C :   -0.030907
   3 C :    0.038751
   4 C :   -0.191334
   5 H :    0.028277
   6 C :    0.033753
   7 H :    0.035357
   8 H :    0.032252
   9 C :   -0.110031
  10 H :    0.028958
  11 H :    0.022512
  12 C :   -0.013926
  13 H :    0.036682
  14 H :    0.017348
  15 H :    0.040036
  16 S :    0.109893
  17 C :   -0.116909
  18 C :   -0.020450
  19 C :   -0.039099
  20 C :   -0.175082
  21 H :    0.014377
  22 C :    0.104886
  23 H :    0.018751
  24 H :    0.029315
  25 C :   -0.008497
  26 H :    0.002393
  27 H :    0.005088
  28 C :   -0.083648
  29 H :    0.034560
  30 H :    0.044252
  31 H :    0.030432
  32 H :    0.067464
  33 H :    0.072641
Sum of atomic charges:    0.0000000

LOEWDIN ATOMIC CHARGES
----------------------
   0 S :    0.383309
   1 C :   -0.191677
   2 C :   -0.070575
   3 C :   -0.057121
   4 C :   -0.179431
   5 H :    0.042991
   6 C :   -0.034426
   7 H :    0.029337
   8 H :    0.038535
   9 C :   -0.048581
  10 H :    0.018806
  11 H :    0.021371
  12 C :   -0.055754
  13 H :    0.027844
  14 H :    0.017868
  15 H :    0.030312
  16 S :    0.404035
  17 C :   -0.181446
  18 C :   -0.074484
  19 C :   -0.054354
  20 C :   -0.223025
  21 H :    0.028699
  22 C :   -0.017755
  23 H :    0.029215
  24 H :    0.033545
  25 C :   -0.028924
  26 H :    0.013413
  27 H :    0.018149
  28 C :   -0.078475
  29 H :    0.026216
  30 H :    0.029315
  31 H :    0.031730
  32 H :    0.030586
  33 H :    0.040749

  Mayer bond orders larger than 0.100000
B(  0-S ,  1-C ) :   1.1458 B(  0-S ,  4-C ) :   1.1310 B(  1-C ,  2-C ) :   1.6109
B(  1-C , 32-H ) :   0.9657 B(  2-C ,  3-C ) :   1.2164 B(  2-C ,  6-C ) :   1.0073
B(  3-C ,  4-C ) :   1.6200 B(  3-C ,  5-H ) :   0.9925 B(  4-C , 20-C ) :   1.0302
B(  6-C ,  7-H ) :   0.9383 B(  6-C ,  8-H ) :   0.9429 B(  6-C ,  9-C ) :   1.0614
B(  9-C , 10-H ) :   0.9548 B(  9-C , 11-H ) :   0.9522 B(  9-C , 12-C ) :   1.0824
B( 12-C , 13-H ) :   0.9699 B( 12-C , 14-H ) :   0.9758 B( 12-C , 15-H ) :   0.9754
B( 16-S , 17-C ) :   1.1582 B( 16-S , 20-C ) :   1.1281 B( 17-C , 18-C ) :   1.6200
B( 17-C , 33-H ) :   0.9626 B( 18-C , 19-C ) :   1.2255 B( 18-C , 21-H ) :   0.9873
B( 19-C , 20-C ) :   1.6157 B( 19-C , 22-C ) :   1.0341 B( 22-C , 23-H ) :   0.9292
B( 22-C , 24-H ) :   0.9300 B( 22-C , 25-C ) :   1.0650 B( 25-C , 26-H ) :   0.9569
B( 25-C , 27-H ) :   0.9526 B( 25-C , 28-C ) :   1.0567 B( 28-C , 29-H ) :   0.9777
B( 28-C , 30-H ) :   0.9770 B( 28-C , 31-H ) :   0.9724

Dispersion correction           -0.014674487
FINAL SINGLE POINT ENERGY     -1339.851899975293

DIPOLE MOMENT
-------------
                                X             Y             Z
Electronic contribution:      8.99127     -14.79909      12.26264
Nuclear contribution   :     -9.28459      15.14912     -12.28469
                        -----------------------------------------
Total Dipole Moment    :     -0.29332       0.35004      -0.02206
                        -----------------------------------------
Magnitude (a.u.)       :      0.45722
Magnitude (Debye)      :      1.16215

Rotational constants in cm-1:     0.024191     0.007153     0.006425
Rotational constants in MHz :   725.221799   214.446099   192.621602

                             ****ORCA TERMINATED NORMALLY****
TOTAL RUN TIME: 0 days 0 hours 0 minutes 20 seconds 361 msec
