                         Program Version 4.2.1 -  RELEASE  -
|  1> ! wB97X-D3 SP def2-SVP
|  2> %pal
|  3> nprocs 24
|  4> end
|  5>
|  6> * xyz 0 1
|  7> S 	 33.0224 	 -35.7821 	 -128.779
|  8> C 	 33.5064 	 -34.2251 	 -128.225
|  9> C 	 34.1069 	 -33.4222 	 -129.174
| 10> C 	 34.132 	 -34.0592 	 -130.475
| 11> C 	 33.6751 	 -35.3851 	 -130.44
| 12> H 	 34.6027 	 -33.6892 	 -131.362
| 13> C 	 34.6032 	 -32.0408 	 -128.924
| 14> H 	 34.1509 	 -31.4914 	 -128.105
| 15> H 	 34.6699 	 -31.4124 	 -129.763
| 16> C 	 36.0531 	 -32.095 	 -128.476
| 17> H 	 36.3719 	 -31.1453 	 -128.134
| 18> H 	 36.2014 	 -32.7512 	 -127.574
| 19> C 	 36.917 	 -32.6877 	 -129.6
| 20> H 	 37.9487 	 -32.6466 	 -129.174
| 21> H 	 36.6935 	 -33.7422 	 -129.729
| 22> H 	 36.8694 	 -32.3061 	 -130.589
| 23> S 	 32.1192 	 -36.8222 	 -132.066
| 24> C 	 32.9611 	 -37.7926 	 -133.314
| 25> C 	 34.3007 	 -37.5281 	 -133.422
| 26> C 	 34.7701 	 -36.6986 	 -132.346
| 27> C 	 33.7195 	 -36.3184 	 -131.512
| 28> H 	 34.9514 	 -37.8993 	 -134.213
| 29> C 	 36.1923 	 -36.2621 	 -132.236
| 30> H 	 36.2581 	 -35.1512 	 -132.068
| 31> H 	 36.6976 	 -36.2873 	 -133.196
| 32> C 	 36.9176 	 -37.1562 	 -131.219
| 33> H 	 36.6823 	 -38.1228 	 -131.46
| 34> H 	 36.4676 	 -36.9986 	 -130.26
| 35> C 	 38.4078 	 -37.1 	 -131.006
| 36> H 	 38.9233 	 -37.5138 	 -131.851
| 37> H 	 38.8426 	 -37.5085 	 -130.124
| 38> H 	 38.7277 	 -36.0681 	 -130.882
| 39> H 	 33.3403 	 -33.8625 	 -127.241
| 40> H 	 32.4444 	 -38.3547 	 -134.114
| 41> *
| 42>
| 43>                          ****END OF INPUT****

CARTESIAN COORDINATES (ANGSTROEM)
---------------------------------
  S     33.022400  -35.782100  -128.779000
  C     33.506400  -34.225100  -128.225000
  C     34.106900  -33.422200  -129.174000
  C     34.132000  -34.059200  -130.475000
  C     33.675100  -35.385100  -130.440000
  H     34.602700  -33.689200  -131.362000
  C     34.603200  -32.040800  -128.924000
  H     34.150900  -31.491400  -128.105000
  H     34.669900  -31.412400  -129.763000
  C     36.053100  -32.095000  -128.476000
  H     36.371900  -31.145300  -128.134000
  H     36.201400  -32.751200  -127.574000
  C     36.917000  -32.687700  -129.600000
  H     37.948700  -32.646600  -129.174000
  H     36.693500  -33.742200  -129.729000
  H     36.869400  -32.306100  -130.589000
  S     32.119200  -36.822200  -132.066000
  C     32.961100  -37.792600  -133.314000
  C     34.300700  -37.528100  -133.422000
  C     34.770100  -36.698600  -132.346000
  C     33.719500  -36.318400  -131.512000
  H     34.951400  -37.899300  -134.213000
  C     36.192300  -36.262100  -132.236000
  H     36.258100  -35.151200  -132.068000
  H     36.697600  -36.287300  -133.196000
  C     36.917600  -37.156200  -131.219000
  H     36.682300  -38.122800  -131.460000
  H     36.467600  -36.998600  -130.260000
  C     38.407800  -37.100000  -131.006000
  H     38.923300  -37.513800  -131.851000
  H     38.842600  -37.508500  -130.124000
  H     38.727700  -36.068100  -130.882000
  H     33.340300  -33.862500  -127.241000
  H     32.444400  -38.354700  -134.114000

 Total Charge           Charge          ....    0
 Multiplicity           Mult            ....    1
 Number of Electrons    NEL             ....  134
 Basis Dimension        Dim             ....  322

ORBITAL ENERGIES
----------------

  NO   OCC          E(Eh)            E(eV)
   0   2.0000     -88.967907     -2420.9398
   1   2.0000     -88.966820     -2420.9102
   2   2.0000     -10.330617      -281.1104
   3   2.0000     -10.324253      -280.9372
   4   2.0000     -10.321008      -280.8489
   5   2.0000     -10.309877      -280.5460
   6   2.0000     -10.305386      -280.4238
   7   2.0000     -10.301031      -280.3053
   8   2.0000     -10.298192      -280.2281
   9   2.0000     -10.296668      -280.1866
  10   2.0000     -10.295669      -280.1594
  11   2.0000     -10.283721      -279.8343
  12   2.0000     -10.283390      -279.8253
  13   2.0000     -10.273320      -279.5512
  14   2.0000     -10.273304      -279.5508
  15   2.0000     -10.268826      -279.4290
  16   2.0000      -8.081894      -219.9195
  17   2.0000      -8.080798      -219.8897
  18   2.0000      -6.040415      -164.3680
  19   2.0000      -6.039334      -164.3386
  20   2.0000      -6.036765      -164.2687
  21   2.0000      -6.035459      -164.2332
  22   2.0000      -6.032410      -164.1502
  23   2.0000      -6.031541      -164.1266
  24   2.0000      -1.002306       -27.2741
  25   2.0000      -0.978870       -26.6364
  26   2.0000      -0.919312       -25.0158
  27   2.0000      -0.912078       -24.8189
  28   2.0000      -0.872427       -23.7400
  29   2.0000      -0.854334       -23.2476
  30   2.0000      -0.842062       -22.9137
  31   2.0000      -0.814463       -22.1627
  32   2.0000      -0.787501       -21.4290
  33   2.0000      -0.770636       -20.9701
  34   2.0000      -0.711693       -19.3661
  35   2.0000      -0.701409       -19.0863
  36   2.0000      -0.695547       -18.9268
  37   2.0000      -0.665890       -18.1198
  38   2.0000      -0.644337       -17.5333
  39   2.0000      -0.614579       -16.7236
  40   2.0000      -0.597711       -16.2645
  41   2.0000      -0.575566       -15.6620
  42   2.0000      -0.566582       -15.4175
  43   2.0000      -0.548413       -14.9231
  44   2.0000      -0.539032       -14.6678
  45   2.0000      -0.522713       -14.2238
  46   2.0000      -0.520560       -14.1652
  47   2.0000      -0.516642       -14.0585
  48   2.0000      -0.506196       -13.7743
  49   2.0000      -0.495780       -13.4908
  50   2.0000      -0.493222       -13.4212
  51   2.0000      -0.481623       -13.1056
  52   2.0000      -0.479634       -13.0515
  53   2.0000      -0.458702       -12.4819
  54   2.0000      -0.457438       -12.4475
  55   2.0000      -0.452274       -12.3070
  56   2.0000      -0.441611       -12.0169
  57   2.0000      -0.439084       -11.9481
  58   2.0000      -0.432818       -11.7776
  59   2.0000      -0.423545       -11.5252
  60   2.0000      -0.420937       -11.4543
  61   2.0000      -0.414966       -11.2918
  62   2.0000      -0.411607       -11.2004
  63   2.0000      -0.344276        -9.3682
  64   2.0000      -0.332200        -9.0396
  65   2.0000      -0.325614        -8.8604
  66   2.0000      -0.291747        -7.9388
  67   0.0000       0.027435         0.7466
  68   0.0000       0.062175         1.6919
  69   0.0000       0.095937         2.6106
  70   0.0000       0.117764         3.2045
  71   0.0000       0.124781         3.3955

MULLIKEN ATOMIC CHARGES
-----------------------
   0 S :    0.112603
   1 C :   -0.092371
   2 C :   -0.098559
   3 C :    0.060547
   4 C :   -0.177620
   5 H :    0.009976
   6 C :    0.114709
   7 H :    0.020561
   8 H :    0.011420
   9 C :   -0.079329
  10 H :    0.016340
  11 H :    0.026880
  12 C :   -0.077211
  13 H :    0.036486
  14 H :    0.047445
  15 H :    0.024688
  16 S :    0.108764
  17 C :   -0.083769
  18 C :   -0.037537
  19 C :   -0.043233
  20 C :   -0.173911
  21 H :    0.025303
  22 C :    0.084193
  23 H :    0.016150
  24 H :    0.006669
  25 C :   -0.030936
  26 H :    0.002038
  27 H :    0.024626
  28 C :   -0.006548
  29 H :    0.021767
  30 H :    0.025605
  31 H :    0.011694
  32 H :    0.029891
  33 H :    0.062668
Sum of atomic charges:   -0.0000000

LOEWDIN ATOMIC CHARGES
----------------------
   0 S :    0.383898
   1 C :   -0.194981
   2 C :   -0.059950
   3 C :   -0.045850
   4 C :   -0.182632
   5 H :    0.026853
   6 C :   -0.030601
   7 H :    0.031316
   8 H :    0.024556
   9 C :   -0.032957
  10 H :    0.012624
  11 H :    0.027425
  12 C :   -0.071445
  13 H :    0.032863
  14 H :    0.026862
  15 H :    0.015145
  16 S :    0.388959
  17 C :   -0.174785
  18 C :   -0.066543
  19 C :   -0.047041
  20 C :   -0.195443
  21 H :    0.035660
  22 C :   -0.031779
  23 H :    0.031329
  24 H :    0.027160
  25 C :   -0.033449
  26 H :    0.014890
  27 H :    0.026448
  28 C :   -0.064128
  29 H :    0.020601
  30 H :    0.026758
  31 H :    0.024290
  32 H :    0.021246
  33 H :    0.032699

  Mayer bond orders larger than 0.100000
B(  0-S ,  1-C ) :   1.1377 B(  0-S ,  4-C ) :   1.1195 B(  1-C ,  2-C ) :   1.6338
B(  1-C , 32-H ) :   0.9627 B(  2-C ,  3-C ) :   1.2132 B(  2-C ,  6-C ) :   1.0412
B(  3-C ,  4-C ) :   1.5865 B(  3-C ,  5-H ) :   0.9906 B(  4-C , 20-C ) :   1.0629
B(  6-C ,  7-H ) :   0.9385 B(  6-C ,  8-H ) :   0.9426 B(  6-C ,  9-C ) :   1.0667
B(  9-C , 10-H ) :   0.9606 B(  9-C , 11-H ) :   0.9523 B(  9-C , 12-C ) :   1.0738
B( 12-C , 13-H ) :   0.9711 B( 12-C , 14-H ) :   0.9668 B( 12-C , 15-H ) :   0.9775
B( 16-S , 17-C ) :   1.1306 B( 16-S , 20-C ) :   1.1415 B( 17-C , 18-C ) :   1.6429
B( 17-C , 33-H ) :   0.9605 B( 18-C , 19-C ) :   1.2232 B( 18-C , 21-H ) :   0.9844
B( 19-C , 20-C ) :   1.6063 B( 19-C , 22-C ) :   1.0551 B( 22-C , 23-H ) :   0.9251
B( 22-C , 24-H ) :   0.9281 B( 22-C , 25-C ) :   1.0488 B( 25-C , 26-H ) :   0.9515
B( 25-C , 27-H ) :   0.9546 B( 25-C , 28-C ) :   1.0903 B( 28-C , 29-H ) :   0.9739
B( 28-C , 30-H ) :   0.9716 B( 28-C , 31-H ) :   0.9685

Dispersion correction           -0.015876285
FINAL SINGLE POINT ENERGY     -1339.864710817870

DIPOLE MOMENT
-------------
                                X             Y             Z
Electronic contribution:    -27.92896     -10.22834      -1.84008
Nuclear contribution   :     28.53941      10.57718       1.65070
                        -----------------------------------------
Total Dipole Moment    :      0.61045       0.34884      -0.18938
                        -----------------------------------------
Magnitude (a.u.)       :      0.72815
Magnitude (Debye)      :      1.85082

Rotational constants in cm-1:     0.017498     0.010525     0.007681
Rotational constants in MHz :   524.563122   315.525074   230.281284

                             ****ORCA TERMINATED NORMALLY****
TOTAL RUN TIME: 0 days 0 hours 0 minutes 23 seconds 203 msec
