                         Program Version 4.2.1 -  RELEASE  -
|  1> ! wB97X-D3 SP def2-SVP
|  2> %pal
|  3> nprocs 24
|  4> end
|  5>
|  6> * xyz 0 1
|  7> S 	 -119.87 	 24.6937 	 -16.5086
|  8> C 	 -120.072 	 24.1851 	 -18.0949
|  9> C 	 -119.179 	 24.8531 	 -18.9665
| 10> C 	 -118.491 	 25.8939 	 -18.337
| 11> C 	 -118.665 	 25.9124 	 -16.9802
| 12> H 	 -117.683 	 26.4856 	 -18.8431
| 13> C 	 -118.977 	 24.4292 	 -20.3539
| 14> H 	 -118.649 	 25.3099 	 -20.8892
| 15> H 	 -119.92 	 23.9915 	 -20.7838
| 16> C 	 -117.948 	 23.3392 	 -20.4771
| 17> H 	 -117.082 	 23.8774 	 -20.1293
| 18> H 	 -118.118 	 22.4251 	 -19.8643
| 19> C 	 -117.774 	 22.9413 	 -21.8993
| 20> H 	 -118.631 	 22.3774 	 -22.2874
| 21> H 	 -117.545 	 23.7874 	 -22.546
| 22> H 	 -116.952 	 22.1661 	 -21.9358
| 23> S 	 -117.477 	 26.2074 	 -14.62
| 24> C 	 -116.816 	 27.7179 	 -14.1312
| 25> C 	 -117.231 	 28.7652 	 -14.9439
| 26> C 	 -117.822 	 28.2439 	 -16.1361
| 27> C 	 -118.127 	 26.8834 	 -16.058
| 28> H 	 -116.991 	 29.7548 	 -14.6975
| 29> C 	 -118.268 	 29.1839 	 -17.2714
| 30> H 	 -118.414 	 28.5849 	 -18.0868
| 31> H 	 -117.479 	 29.8396 	 -17.5042
| 32> C 	 -119.404 	 30.1147 	 -16.9803
| 33> H 	 -119.56 	 30.8976 	 -17.7368
| 34> H 	 -118.991 	 30.7197 	 -16.1288
| 35> C 	 -120.749 	 29.3625 	 -16.6658
| 36> H 	 -121.449 	 30.0365 	 -16.3858
| 37> H 	 -120.548 	 28.5601 	 -15.8496
| 38> H 	 -121.098 	 28.7994 	 -17.5079
| 39> H 	 -120.705 	 23.372 	 -18.44
| 40> H 	 -116.354 	 27.9991 	 -13.2129
| 41> *
| 42>
| 43>                          ****END OF INPUT****

CARTESIAN COORDINATES (ANGSTROEM)
---------------------------------
  S    -119.870000   24.693700  -16.508600
  C    -120.072000   24.185100  -18.094900
  C    -119.179000   24.853100  -18.966500
  C    -118.491000   25.893900  -18.337000
  C    -118.665000   25.912400  -16.980200
  H    -117.683000   26.485600  -18.843100
  C    -118.977000   24.429200  -20.353900
  H    -118.649000   25.309900  -20.889200
  H    -119.920000   23.991500  -20.783800
  C    -117.948000   23.339200  -20.477100
  H    -117.082000   23.877400  -20.129300
  H    -118.118000   22.425100  -19.864300
  C    -117.774000   22.941300  -21.899300
  H    -118.631000   22.377400  -22.287400
  H    -117.545000   23.787400  -22.546000
  H    -116.952000   22.166100  -21.935800
  S    -117.477000   26.207400  -14.620000
  C    -116.816000   27.717900  -14.131200
  C    -117.231000   28.765200  -14.943900
  C    -117.822000   28.243900  -16.136100
  C    -118.127000   26.883400  -16.058000
  H    -116.991000   29.754800  -14.697500
  C    -118.268000   29.183900  -17.271400
  H    -118.414000   28.584900  -18.086800
  H    -117.479000   29.839600  -17.504200
  C    -119.404000   30.114700  -16.980300
  H    -119.560000   30.897600  -17.736800
  H    -118.991000   30.719700  -16.128800
  C    -120.749000   29.362500  -16.665800
  H    -121.449000   30.036500  -16.385800
  H    -120.548000   28.560100  -15.849600
  H    -121.098000   28.799400  -17.507900
  H    -120.705000   23.372000  -18.440000
  H    -116.354000   27.999100  -13.212900

 Total Charge           Charge          ....    0
 Multiplicity           Mult            ....    1
 Number of Electrons    NEL             ....  134
 Basis Dimension        Dim             ....  322

ORBITAL ENERGIES
----------------

  NO   OCC          E(Eh)            E(eV)
   0   2.0000     -88.970228     -2421.0030
   1   2.0000     -88.965543     -2420.8755
   2   2.0000     -10.328860      -281.0626
   3   2.0000     -10.323813      -280.9252
   4   2.0000     -10.311817      -280.5988
   5   2.0000     -10.310338      -280.5586
   6   2.0000     -10.304163      -280.3905
   7   2.0000     -10.294346      -280.1234
   8   2.0000     -10.293948      -280.1126
   9   2.0000     -10.290581      -280.0209
  10   2.0000     -10.286682      -279.9149
  11   2.0000     -10.286388      -279.9069
  12   2.0000     -10.280402      -279.7440
  13   2.0000     -10.279083      -279.7081
  14   2.0000     -10.274613      -279.5864
  15   2.0000     -10.268144      -279.4104
  16   2.0000      -8.085488      -220.0173
  17   2.0000      -8.081395      -219.9059
  18   2.0000      -6.043785      -164.4597
  19   2.0000      -6.039846      -164.3526
  20   2.0000      -6.039797      -164.3512
  21   2.0000      -6.036514      -164.2619
  22   2.0000      -6.035676      -164.2391
  23   2.0000      -6.032273      -164.1465
  24   2.0000      -1.014968       -27.6187
  25   2.0000      -0.992553       -27.0087
  26   2.0000      -0.925479       -25.1836
  27   2.0000      -0.909974       -24.7616
  28   2.0000      -0.875618       -23.8268
  29   2.0000      -0.859418       -23.3860
  30   2.0000      -0.842724       -22.9317
  31   2.0000      -0.817079       -22.2338
  32   2.0000      -0.785201       -21.3664
  33   2.0000      -0.768700       -20.9174
  34   2.0000      -0.707357       -19.2482
  35   2.0000      -0.696362       -18.9490
  36   2.0000      -0.693486       -18.8707
  37   2.0000      -0.663259       -18.0482
  38   2.0000      -0.640080       -17.4175
  39   2.0000      -0.627398       -17.0724
  40   2.0000      -0.592269       -16.1165
  41   2.0000      -0.581282       -15.8175
  42   2.0000      -0.567786       -15.4502
  43   2.0000      -0.553823       -15.0703
  44   2.0000      -0.541894       -14.7457
  45   2.0000      -0.526132       -14.3168
  46   2.0000      -0.518031       -14.0963
  47   2.0000      -0.510806       -13.8997
  48   2.0000      -0.506151       -13.7731
  49   2.0000      -0.504065       -13.7163
  50   2.0000      -0.499765       -13.5993
  51   2.0000      -0.479588       -13.0502
  52   2.0000      -0.468782       -12.7562
  53   2.0000      -0.462642       -12.5891
  54   2.0000      -0.454786       -12.3753
  55   2.0000      -0.449149       -12.2220
  56   2.0000      -0.447739       -12.1836
  57   2.0000      -0.441163       -12.0047
  58   2.0000      -0.433046       -11.7838
  59   2.0000      -0.427134       -11.6229
  60   2.0000      -0.422291       -11.4911
  61   2.0000      -0.409983       -11.1562
  62   2.0000      -0.403688       -10.9849
  63   2.0000      -0.357391        -9.7251
  64   2.0000      -0.334115        -9.0917
  65   2.0000      -0.328467        -8.9380
  66   2.0000      -0.282482        -7.6867
  67   0.0000       0.029205         0.7947
  68   0.0000       0.069761         1.8983
  69   0.0000       0.116476         3.1695
  70   0.0000       0.117797         3.2054
  71   0.0000       0.128718         3.5026

MULLIKEN ATOMIC CHARGES
-----------------------
   0 S :    0.132204
   1 C :   -0.111847
   2 C :   -0.101500
   3 C :   -0.004325
   4 C :   -0.128919
   5 H :    0.042777
   6 C :    0.046658
   7 H :    0.018083
   8 H :    0.020496
   9 C :   -0.065761
  10 H :    0.013595
  11 H :    0.037452
  12 C :   -0.035793
  13 H :    0.027899
  14 H :    0.031991
  15 H :    0.035248
  16 S :    0.113344
  17 C :   -0.066686
  18 C :   -0.033589
  19 C :   -0.092948
  20 C :   -0.139321
  21 H :    0.003657
  22 C :    0.169309
  23 H :   -0.027592
  24 H :    0.003096
  25 C :   -0.100482
  26 H :    0.029792
  27 H :    0.018903
  28 C :   -0.024498
  29 H :    0.015851
  30 H :    0.051629
  31 H :    0.029912
  32 H :    0.048701
  33 H :    0.042661
Sum of atomic charges:   -0.0000000

LOEWDIN ATOMIC CHARGES
----------------------
   0 S :    0.433754
   1 C :   -0.223673
   2 C :   -0.066337
   3 C :   -0.073164
   4 C :   -0.192537
   5 H :    0.042994
   6 C :   -0.036294
   7 H :    0.028595
   8 H :    0.030961
   9 C :   -0.043821
  10 H :    0.022049
  11 H :    0.030123
  12 C :   -0.067513
  13 H :    0.024043
  14 H :    0.024408
  15 H :    0.032023
  16 S :    0.435645
  17 C :   -0.192582
  18 C :   -0.060159
  19 C :   -0.049525
  20 C :   -0.211894
  21 H :    0.023273
  22 C :   -0.024600
  23 H :    0.009556
  24 H :    0.027146
  25 C :   -0.039844
  26 H :    0.024198
  27 H :    0.023897
  28 C :   -0.058485
  29 H :    0.007826
  30 H :    0.040394
  31 H :    0.024237
  32 H :    0.030280
  33 H :    0.025025

  Mayer bond orders larger than 0.100000
B(  0-S ,  1-C ) :   1.1674 B(  0-S ,  4-C ) :   1.1606 B(  1-C ,  2-C ) :   1.5482
B(  1-C ,  4-C ) :   0.1098 B(  1-C , 32-H ) :   0.9678 B(  2-C ,  3-C ) :   1.3022
B(  2-C ,  6-C ) :   1.0467 B(  3-C ,  4-C ) :   1.5555 B(  3-C ,  5-H ) :   0.9729
B(  4-C , 20-C ) :   1.0257 B(  6-C ,  7-H ) :   0.9345 B(  6-C ,  8-H ) :   0.9347
B(  6-C ,  9-C ) :   1.0658 B(  9-C , 10-H ) :   0.9482 B(  9-C , 11-H ) :   0.9540
B(  9-C , 12-C ) :   1.0995 B( 12-C , 13-H ) :   0.9704 B( 12-C , 14-H ) :   0.9691
B( 12-C , 15-H ) :   0.9714 B( 16-S , 17-C ) :   1.1702 B( 16-S , 20-C ) :   1.1479
B( 17-C , 18-C ) :   1.6061 B( 17-C , 20-C ) :   0.1006 B( 17-C , 33-H ) :   0.9643
B( 18-C , 19-C ) :   1.2394 B( 18-C , 21-H ) :   0.9953 B( 19-C , 20-C ) :   1.5782
B( 19-C , 22-C ) :   1.0456 B( 22-C , 23-H ) :   0.9273 B( 22-C , 24-H ) :   0.9179
B( 22-C , 25-C ) :   1.0815 B( 25-C , 26-H ) :   0.9532 B( 25-C , 27-H ) :   0.9530
B( 25-C , 28-C ) :   1.0674 B( 28-C , 29-H ) :   0.9758 B( 28-C , 30-H ) :   0.9744
B( 28-C , 31-H ) :   0.9755

Dispersion correction           -0.014711784
FINAL SINGLE POINT ENERGY     -1339.865170062626

DIPOLE MOMENT
-------------
                                X             Y             Z
Electronic contribution:      1.71026      -5.41099      21.66569
Nuclear contribution   :     -1.57856       5.64354     -22.11947
                        -----------------------------------------
Total Dipole Moment    :      0.13171       0.23256      -0.45378
                        -----------------------------------------
Magnitude (a.u.)       :      0.52664
Magnitude (Debye)      :      1.33860

Rotational constants in cm-1:     0.021357     0.007924     0.007158
Rotational constants in MHz :   640.269555   237.547880   214.586794

                             ****ORCA TERMINATED NORMALLY****
TOTAL RUN TIME: 0 days 0 hours 0 minutes 22 seconds 794 msec
