                         Program Version 4.2.1 -  RELEASE  -
|  1> ! wB97X-D3 SP def2-SVP
|  2> %pal
|  3> nprocs 24
|  4> end
|  5>
|  6> * xyz 0 1
|  7> S 	 -143.808 	 6.65877 	 12.3845
|  8> C 	 -144.593 	 7.0949 	 10.9337
|  9> C 	 -145.872 	 6.65261 	 10.956
| 10> C 	 -146.067 	 5.6607 	 11.9727
| 11> C 	 -145.019 	 5.51389 	 12.8378
| 12> H 	 -147.079 	 5.22554 	 12.1045
| 13> C 	 -146.917 	 6.95761 	 9.95396
| 14> H 	 -146.737 	 7.9631 	 9.46665
| 15> H 	 -147.916 	 7.08334 	 10.3686
| 16> C 	 -147.179 	 5.98393 	 8.83459
| 17> H 	 -146.298 	 5.48631 	 8.47313
| 18> H 	 -147.742 	 5.07422 	 9.18916
| 19> C 	 -147.936 	 6.6046 	 7.63655
| 20> H 	 -148.961 	 7.03093 	 7.9029
| 21> H 	 -147.331 	 7.39281 	 7.14401
| 22> H 	 -148.202 	 5.83058 	 6.91321
| 23> S 	 -145.49 	 3.03944 	 13.622
| 24> C 	 -144.992 	 2.43682 	 15.1308
| 25> C 	 -144.391 	 3.42739 	 15.8788
| 26> C 	 -144.239 	 4.62889 	 15.1558
| 27> C 	 -144.909 	 4.57071 	 13.9326
| 28> H 	 -143.987 	 3.22034 	 16.8451
| 29> C 	 -143.413 	 5.75606 	 15.7611
| 30> H 	 -143.092 	 6.47994 	 15.0473
| 31> H 	 -142.492 	 5.3156 	 16.0323
| 32> C 	 -144.088 	 6.46225 	 16.8764
| 33> H 	 -143.962 	 5.98678 	 17.8283
| 34> H 	 -145.146 	 6.49771 	 16.6146
| 35> C 	 -143.684 	 7.93429 	 16.9688
| 36> H 	 -143.679 	 8.53276 	 16.0942
| 37> H 	 -142.767 	 8.00082 	 17.4358
| 38> H 	 -144.411 	 8.4217 	 17.6187
| 39> H 	 -144.286 	 7.85287 	 10.2119
| 40> H 	 -144.951 	 1.42139 	 15.3793
| 41> *
| 42>
| 43>                          ****END OF INPUT****

CARTESIAN COORDINATES (ANGSTROEM)
---------------------------------
  S    -143.808000    6.658770   12.384500
  C    -144.593000    7.094900   10.933700
  C    -145.872000    6.652610   10.956000
  C    -146.067000    5.660700   11.972700
  C    -145.019000    5.513890   12.837800
  H    -147.079000    5.225540   12.104500
  C    -146.917000    6.957610    9.953960
  H    -146.737000    7.963100    9.466650
  H    -147.916000    7.083340   10.368600
  C    -147.179000    5.983930    8.834590
  H    -146.298000    5.486310    8.473130
  H    -147.742000    5.074220    9.189160
  C    -147.936000    6.604600    7.636550
  H    -148.961000    7.030930    7.902900
  H    -147.331000    7.392810    7.144010
  H    -148.202000    5.830580    6.913210
  S    -145.490000    3.039440   13.622000
  C    -144.992000    2.436820   15.130800
  C    -144.391000    3.427390   15.878800
  C    -144.239000    4.628890   15.155800
  C    -144.909000    4.570710   13.932600
  H    -143.987000    3.220340   16.845100
  C    -143.413000    5.756060   15.761100
  H    -143.092000    6.479940   15.047300
  H    -142.492000    5.315600   16.032300
  C    -144.088000    6.462250   16.876400
  H    -143.962000    5.986780   17.828300
  H    -145.146000    6.497710   16.614600
  C    -143.684000    7.934290   16.968800
  H    -143.679000    8.532760   16.094200
  H    -142.767000    8.000820   17.435800
  H    -144.411000    8.421700   17.618700
  H    -144.286000    7.852870   10.211900
  H    -144.951000    1.421390   15.379300

 Total Charge           Charge          ....    0
 Multiplicity           Mult            ....    1
 Number of Electrons    NEL             ....  134
 Basis Dimension        Dim             ....  322

ORBITAL ENERGIES
----------------

  NO   OCC          E(Eh)            E(eV)
   0   2.0000     -88.965227     -2420.8669
   1   2.0000     -88.963663     -2420.8243
   2   2.0000     -10.327381      -281.0223
   3   2.0000     -10.320458      -280.8340
   4   2.0000     -10.307218      -280.4737
   5   2.0000     -10.306945      -280.4662
   6   2.0000     -10.298717      -280.2423
   7   2.0000     -10.293021      -280.0873
   8   2.0000     -10.289999      -280.0051
   9   2.0000     -10.289948      -280.0037
  10   2.0000     -10.288337      -279.9599
  11   2.0000     -10.286792      -279.9178
  12   2.0000     -10.285319      -279.8778
  13   2.0000     -10.278687      -279.6973
  14   2.0000     -10.276599      -279.6405
  15   2.0000     -10.263517      -279.2845
  16   2.0000      -8.082254      -219.9293
  17   2.0000      -8.079306      -219.8491
  18   2.0000      -6.040525      -164.3710
  19   2.0000      -6.037893      -164.2994
  20   2.0000      -6.036234      -164.2543
  21   2.0000      -6.033731      -164.1862
  22   2.0000      -6.033333      -164.1753
  23   2.0000      -6.029878      -164.0813
  24   2.0000      -1.022448       -27.8222
  25   2.0000      -0.999541       -27.1989
  26   2.0000      -0.919378       -25.0175
  27   2.0000      -0.914572       -24.8868
  28   2.0000      -0.877448       -23.8766
  29   2.0000      -0.856428       -23.3046
  30   2.0000      -0.845302       -23.0018
  31   2.0000      -0.816641       -22.2219
  32   2.0000      -0.786343       -21.3975
  33   2.0000      -0.773774       -21.0555
  34   2.0000      -0.708106       -19.2685
  35   2.0000      -0.701787       -19.0966
  36   2.0000      -0.693892       -18.8818
  37   2.0000      -0.671110       -18.2618
  38   2.0000      -0.634988       -17.2789
  39   2.0000      -0.625127       -17.0106
  40   2.0000      -0.605955       -16.4889
  41   2.0000      -0.578946       -15.7539
  42   2.0000      -0.575001       -15.6466
  43   2.0000      -0.555189       -15.1075
  44   2.0000      -0.528932       -14.3930
  45   2.0000      -0.527115       -14.3435
  46   2.0000      -0.519650       -14.1404
  47   2.0000      -0.514943       -14.0123
  48   2.0000      -0.502352       -13.6697
  49   2.0000      -0.497179       -13.5289
  50   2.0000      -0.490868       -13.3572
  51   2.0000      -0.488349       -13.2886
  52   2.0000      -0.478264       -13.0142
  53   2.0000      -0.468120       -12.7382
  54   2.0000      -0.462626       -12.5887
  55   2.0000      -0.446611       -12.1529
  56   2.0000      -0.444444       -12.0939
  57   2.0000      -0.440663       -11.9910
  58   2.0000      -0.433628       -11.7996
  59   2.0000      -0.428832       -11.6691
  60   2.0000      -0.418615       -11.3911
  61   2.0000      -0.411750       -11.2043
  62   2.0000      -0.404678       -11.0119
  63   2.0000      -0.360839        -9.8189
  64   2.0000      -0.331600        -9.0233
  65   2.0000      -0.326784        -8.8922
  66   2.0000      -0.286714        -7.8019
  67   0.0000       0.033529         0.9124
  68   0.0000       0.081240         2.2106
  69   0.0000       0.107835         2.9343
  70   0.0000       0.127193         3.4611
  71   0.0000       0.140355         3.8192

MULLIKEN ATOMIC CHARGES
-----------------------
   0 S :    0.100804
   1 C :   -0.109267
   2 C :   -0.064315
   3 C :   -0.036866
   4 C :   -0.084869
   5 H :    0.024921
   6 C :    0.046641
   7 H :    0.018976
   8 H :    0.022037
   9 C :   -0.067727
  10 H :    0.020157
  11 H :    0.025700
  12 C :   -0.085860
  13 H :    0.035613
  14 H :    0.043983
  15 H :    0.036827
  16 S :    0.129851
  17 C :   -0.072586
  18 C :   -0.030184
  19 C :   -0.085474
  20 C :   -0.140183
  21 H :    0.006504
  22 C :    0.138697
  23 H :   -0.006871
  24 H :    0.013510
  25 C :   -0.070516
  26 H :    0.027934
  27 H :    0.034571
  28 C :   -0.025117
  29 H :    0.029007
  30 H :    0.012584
  31 H :    0.022439
  32 H :    0.049158
  33 H :    0.039924
Sum of atomic charges:    0.0000000

LOEWDIN ATOMIC CHARGES
----------------------
   0 S :    0.431565
   1 C :   -0.208529
   2 C :   -0.069089
   3 C :   -0.080575
   4 C :   -0.195251
   5 H :    0.034232
   6 C :   -0.042543
   7 H :    0.033235
   8 H :    0.033570
   9 C :   -0.047270
  10 H :    0.019492
  11 H :    0.026678
  12 C :   -0.072276
  13 H :    0.029439
  14 H :    0.026721
  15 H :    0.027697
  16 S :    0.477902
  17 C :   -0.198660
  18 C :   -0.062592
  19 C :   -0.056472
  20 C :   -0.225816
  21 H :    0.027322
  22 C :   -0.031360
  23 H :    0.016472
  24 H :    0.027901
  25 C :   -0.034982
  26 H :    0.022399
  27 H :    0.029394
  28 C :   -0.055663
  29 H :    0.021728
  30 H :    0.013151
  31 H :    0.028377
  32 H :    0.034017
  33 H :    0.019786

  Mayer bond orders larger than 0.100000
B(  0-S ,  1-C ) :   1.1384 B(  0-S ,  4-C ) :   1.1466 B(  1-C ,  2-C ) :   1.6128
B(  1-C , 32-H ) :   0.9627 B(  2-C ,  3-C ) :   1.2435 B(  2-C ,  6-C ) :   1.0517
B(  3-C ,  4-C ) :   1.5435 B(  3-C ,  5-H ) :   0.9931 B(  4-C , 20-C ) :   1.0528
B(  6-C ,  7-H ) :   0.9428 B(  6-C ,  8-H ) :   0.9309 B(  6-C ,  9-C ) :   1.0548
B(  9-C , 10-H ) :   0.9546 B(  9-C , 11-H ) :   0.9492 B(  9-C , 12-C ) :   1.0832
B( 12-C , 13-H ) :   0.9745 B( 12-C , 14-H ) :   0.9749 B( 12-C , 15-H ) :   0.9730
B( 16-S , 17-C ) :   1.1841 B( 16-S , 20-C ) :   1.1880 B( 17-C , 18-C ) :   1.5558
B( 17-C , 33-H ) :   0.9772 B( 18-C , 19-C ) :   1.2881 B( 18-C , 21-H ) :   0.9970
B( 19-C , 20-C ) :   1.5279 B( 19-C , 22-C ) :   1.0499 B( 22-C , 23-H ) :   0.9325
B( 22-C , 24-H ) :   0.9147 B( 22-C , 25-C ) :   1.0572 B( 25-C , 26-H ) :   0.9510
B( 25-C , 27-H ) :   0.9615 B( 25-C , 28-C ) :   1.1001 B( 28-C , 29-H ) :   0.9735
B( 28-C , 30-H ) :   0.9735 B( 28-C , 31-H ) :   0.9736

Dispersion correction           -0.013657810
FINAL SINGLE POINT ENERGY     -1339.873916498514

DIPOLE MOMENT
-------------
                                X             Y             Z
Electronic contribution:      6.66258     -12.62120       3.66368
Nuclear contribution   :     -6.73775      12.70202      -3.58268
                        -----------------------------------------
Total Dipole Moment    :     -0.07517       0.08082       0.08100
                        -----------------------------------------
Magnitude (a.u.)       :      0.13691
Magnitude (Debye)      :      0.34799

Rotational constants in cm-1:     0.022523     0.007595     0.006121
Rotational constants in MHz :   675.217936   227.681508   183.503646

                             ****ORCA TERMINATED NORMALLY****
TOTAL RUN TIME: 0 days 0 hours 0 minutes 21 seconds 14 msec
