                         Program Version 4.2.1 -  RELEASE  -
|  1> ! wB97X-D3 SP def2-SVP
|  2> %pal
|  3> nprocs 24
|  4> end
|  5>
|  6> * xyz 0 1
|  7> S 	 -71.8446 	 10.1081 	 -72.4602
|  8> C 	 -72.736 	 10.9952 	 -73.6749
|  9> C 	 -72.1761 	 10.8251 	 -74.9526
| 10> C 	 -70.9498 	 10.0946 	 -74.9509
| 11> C 	 -70.6225 	 9.60831 	 -73.6838
| 12> H 	 -70.3937 	 9.94077 	 -75.9047
| 13> C 	 -72.718 	 11.5153 	 -76.2203
| 14> H 	 -73.8457 	 11.5176 	 -76.2013
| 15> H 	 -72.4402 	 10.9559 	 -77.1237
| 16> C 	 -72.1584 	 13.0051 	 -76.5201
| 17> H 	 -71.1298 	 13.0067 	 -76.8847
| 18> H 	 -72.7584 	 13.3762 	 -77.3946
| 19> C 	 -72.2258 	 13.9171 	 -75.3479
| 20> H 	 -73.0643 	 13.5674 	 -74.7765
| 21> H 	 -71.4116 	 13.7339 	 -74.6819
| 22> H 	 -72.4325 	 14.9291 	 -75.4722
| 23> S 	 -67.8914 	 9.29689 	 -73.162
| 24> C 	 -67.3351 	 7.64531 	 -72.784
| 25> C 	 -68.4125 	 6.79816 	 -72.827
| 26> C 	 -69.7019 	 7.37516 	 -73.0641
| 27> C 	 -69.5792 	 8.71323 	 -73.293
| 28> H 	 -68.3234 	 5.72755 	 -72.5987
| 29> C 	 -70.9653 	 6.58086 	 -73.0737
| 30> H 	 -70.6871 	 5.47609 	 -73.0125
| 31> H 	 -71.6017 	 6.70347 	 -73.9452
| 32> C 	 -71.7138 	 6.62569 	 -71.7602
| 33> H 	 -71.9715 	 7.63438 	 -71.576
| 34> H 	 -70.889 	 6.42946 	 -71.0135
| 35> C 	 -72.8651 	 5.58158 	 -71.6651
| 36> H 	 -73.4113 	 5.59509 	 -70.7503
| 37> H 	 -72.5256 	 4.54847 	 -71.8233
| 38> H 	 -73.688 	 5.80768 	 -72.3702
| 39> H 	 -73.7004 	 11.5001 	 -73.4883
| 40> H 	 -66.2775 	 7.36779 	 -72.6389
| 41> *
| 42>
| 43>                          ****END OF INPUT****

CARTESIAN COORDINATES (ANGSTROEM)
---------------------------------
  S    -71.844600   10.108100  -72.460200
  C    -72.736000   10.995200  -73.674900
  C    -72.176100   10.825100  -74.952600
  C    -70.949800   10.094600  -74.950900
  C    -70.622500    9.608310  -73.683800
  H    -70.393700    9.940770  -75.904700
  C    -72.718000   11.515300  -76.220300
  H    -73.845700   11.517600  -76.201300
  H    -72.440200   10.955900  -77.123700
  C    -72.158400   13.005100  -76.520100
  H    -71.129800   13.006700  -76.884700
  H    -72.758400   13.376200  -77.394600
  C    -72.225800   13.917100  -75.347900
  H    -73.064300   13.567400  -74.776500
  H    -71.411600   13.733900  -74.681900
  H    -72.432500   14.929100  -75.472200
  S    -67.891400    9.296890  -73.162000
  C    -67.335100    7.645310  -72.784000
  C    -68.412500    6.798160  -72.827000
  C    -69.701900    7.375160  -73.064100
  C    -69.579200    8.713230  -73.293000
  H    -68.323400    5.727550  -72.598700
  C    -70.965300    6.580860  -73.073700
  H    -70.687100    5.476090  -73.012500
  H    -71.601700    6.703470  -73.945200
  C    -71.713800    6.625690  -71.760200
  H    -71.971500    7.634380  -71.576000
  H    -70.889000    6.429460  -71.013500
  C    -72.865100    5.581580  -71.665100
  H    -73.411300    5.595090  -70.750300
  H    -72.525600    4.548470  -71.823300
  H    -73.688000    5.807680  -72.370200
  H    -73.700400   11.500100  -73.488300
  H    -66.277500    7.367790  -72.638900

 Total Charge           Charge          ....    0
 Multiplicity           Mult            ....    1
 Number of Electrons    NEL             ....  134
 Basis Dimension        Dim             ....  322

ORBITAL ENERGIES
----------------

  NO   OCC          E(Eh)            E(eV)
   0   2.0000     -88.970742     -2421.0170
   1   2.0000     -88.964513     -2420.8475
   2   2.0000     -10.333129      -281.1787
   3   2.0000     -10.323258      -280.9101
   4   2.0000     -10.323226      -280.9093
   5   2.0000     -10.320655      -280.8393
   6   2.0000     -10.305107      -280.4162
   7   2.0000     -10.303825      -280.3813
   8   2.0000     -10.303498      -280.3724
   9   2.0000     -10.300111      -280.2803
  10   2.0000     -10.295104      -280.1440
  11   2.0000     -10.291110      -280.0354
  12   2.0000     -10.290377      -280.0154
  13   2.0000     -10.282497      -279.8010
  14   2.0000     -10.279587      -279.7218
  15   2.0000     -10.259984      -279.1884
  16   2.0000      -8.084121      -219.9801
  17   2.0000      -8.078288      -219.8214
  18   2.0000      -6.042600      -164.4275
  19   2.0000      -6.038756      -164.3229
  20   2.0000      -6.036971      -164.2743
  21   2.0000      -6.035027      -164.2214
  22   2.0000      -6.032983      -164.1658
  23   2.0000      -6.028865      -164.0538
  24   2.0000      -1.002838       -27.2886
  25   2.0000      -0.978297       -26.6208
  26   2.0000      -0.911110       -24.7926
  27   2.0000      -0.903245       -24.5786
  28   2.0000      -0.868688       -23.6382
  29   2.0000      -0.849868       -23.1261
  30   2.0000      -0.845234       -23.0000
  31   2.0000      -0.809314       -22.0225
  32   2.0000      -0.783197       -21.3119
  33   2.0000      -0.771640       -20.9974
  34   2.0000      -0.709184       -19.2979
  35   2.0000      -0.693569       -18.8730
  36   2.0000      -0.692461       -18.8428
  37   2.0000      -0.663653       -18.0589
  38   2.0000      -0.636067       -17.3083
  39   2.0000      -0.615533       -16.7495
  40   2.0000      -0.600446       -16.3390
  41   2.0000      -0.567437       -15.4407
  42   2.0000      -0.560507       -15.2522
  43   2.0000      -0.546444       -14.8695
  44   2.0000      -0.542141       -14.7524
  45   2.0000      -0.521850       -14.2003
  46   2.0000      -0.513943       -13.9851
  47   2.0000      -0.509847       -13.8736
  48   2.0000      -0.503390       -13.6979
  49   2.0000      -0.493790       -13.4367
  50   2.0000      -0.486716       -13.2442
  51   2.0000      -0.481605       -13.1051
  52   2.0000      -0.468452       -12.7472
  53   2.0000      -0.464160       -12.6304
  54   2.0000      -0.459836       -12.5128
  55   2.0000      -0.451063       -12.2741
  56   2.0000      -0.446236       -12.1427
  57   2.0000      -0.430153       -11.7051
  58   2.0000      -0.426679       -11.6105
  59   2.0000      -0.422201       -11.4887
  60   2.0000      -0.421371       -11.4661
  61   2.0000      -0.415188       -11.2979
  62   2.0000      -0.405715       -11.0401
  63   2.0000      -0.339746        -9.2450
  64   2.0000      -0.331747        -9.0273
  65   2.0000      -0.324048        -8.8178
  66   2.0000      -0.304330        -8.2812
  67   0.0000       0.034884         0.9492
  68   0.0000       0.053192         1.4474
  69   0.0000       0.106009         2.8846
  70   0.0000       0.109244         2.9727
  71   0.0000       0.127926         3.4811

MULLIKEN ATOMIC CHARGES
-----------------------
   0 S :    0.112459
   1 C :   -0.129081
   2 C :   -0.105673
   3 C :    0.053637
   4 C :   -0.181029
   5 H :    0.035065
   6 C :    0.019367
   7 H :    0.041153
   8 H :    0.027814
   9 C :   -0.097073
  10 H :    0.030215
  11 H :    0.034581
  12 C :    0.015673
  13 H :   -0.011142
  14 H :    0.035958
  15 H :    0.024270
  16 S :    0.100578
  17 C :   -0.101288
  18 C :   -0.026323
  19 C :   -0.005271
  20 C :   -0.184130
  21 H :    0.022155
  22 C :    0.063742
  23 H :    0.011982
  24 H :    0.040536
  25 C :   -0.065724
  26 H :    0.009109
  27 H :    0.025509
  28 C :   -0.027436
  29 H :    0.026844
  30 H :    0.033029
  31 H :    0.030410
  32 H :    0.067861
  33 H :    0.072225
Sum of atomic charges:   -0.0000000

LOEWDIN ATOMIC CHARGES
----------------------
   0 S :    0.413053
   1 C :   -0.203383
   2 C :   -0.072041
   3 C :   -0.054099
   4 C :   -0.179857
   5 H :    0.044333
   6 C :   -0.035462
   7 H :    0.034647
   8 H :    0.030196
   9 C :   -0.039603
  10 H :    0.021307
  11 H :    0.028519
  12 C :   -0.066507
  13 H :    0.021370
  14 H :    0.029186
  15 H :    0.019821
  16 S :    0.372959
  17 C :   -0.177539
  18 C :   -0.070877
  19 C :   -0.053292
  20 C :   -0.195182
  21 H :    0.031983
  22 C :   -0.036136
  23 H :    0.036569
  24 H :    0.030217
  25 C :   -0.040850
  26 H :   -0.004353
  27 H :    0.029041
  28 C :   -0.067351
  29 H :    0.024174
  30 H :    0.026386
  31 H :    0.030483
  32 H :    0.033356
  33 H :    0.038931

  Mayer bond orders larger than 0.100000
B(  0-S ,  1-C ) :   1.1479 B(  0-S ,  4-C ) :   1.1452 B(  1-C ,  2-C ) :   1.5941
B(  1-C ,  4-C ) :   0.1022 B(  1-C , 32-H ) :   0.9588 B(  2-C ,  3-C ) :   1.2545
B(  2-C ,  6-C ) :   1.0358 B(  3-C ,  4-C ) :   1.5716 B(  3-C ,  5-H ) :   0.9877
B(  4-C , 20-C ) :   1.0396 B(  6-C ,  7-H ) :   0.9449 B(  6-C ,  8-H ) :   0.9444
B(  6-C ,  9-C ) :   1.0588 B(  9-C , 10-H ) :   0.9610 B(  9-C , 11-H ) :   0.9568
B(  9-C , 12-C ) :   1.0812 B( 12-C , 13-H ) :   0.9670 B( 12-C , 14-H ) :   0.9662
B( 12-C , 15-H ) :   0.9700 B( 16-S , 17-C ) :   1.1315 B( 16-S , 20-C ) :   1.1257
B( 17-C , 18-C ) :   1.6265 B( 17-C , 33-H ) :   0.9657 B( 18-C , 19-C ) :   1.2425
B( 18-C , 21-H ) :   0.9764 B( 19-C , 20-C ) :   1.6102 B( 19-C , 22-C ) :   1.0535
B( 22-C , 23-H ) :   0.9324 B( 22-C , 24-H ) :   0.9295 B( 22-C , 25-C ) :   1.0460
B( 25-C , 26-H ) :   0.9486 B( 25-C , 27-H ) :   0.9533 B( 25-C , 28-C ) :   1.0754
B( 28-C , 29-H ) :   0.9738 B( 28-C , 30-H ) :   0.9745 B( 28-C , 31-H ) :   0.9722

Dispersion correction           -0.015014991
FINAL SINGLE POINT ENERGY     -1339.876009127562

DIPOLE MOMENT
-------------
                                X             Y             Z
Electronic contribution:     15.42846       0.44092       6.35522
Nuclear contribution   :    -15.74020      -0.65213      -6.65464
                        -----------------------------------------
Total Dipole Moment    :     -0.31174      -0.21121      -0.29942
                        -----------------------------------------
Magnitude (a.u.)       :      0.48108
Magnitude (Debye)      :      1.22282

Rotational constants in cm-1:     0.020223     0.008607     0.006794
Rotational constants in MHz :   606.261393   258.029436   203.681141

                             ****ORCA TERMINATED NORMALLY****
TOTAL RUN TIME: 0 days 0 hours 0 minutes 21 seconds 757 msec
