                         Program Version 4.2.1 -  RELEASE  -
|  1> ! wB97X-D3 SP def2-SVP
|  2> %pal
|  3> nprocs 24
|  4> end
|  5>
|  6> * xyz 0 1
|  7> S 	 -35.4905 	 -10.2315 	 18.4653
|  8> C 	 -34.6726 	 -10.6356 	 19.9537
|  9> C 	 -35.2791 	 -11.7269 	 20.5364
| 10> C 	 -35.9942 	 -12.427 	 19.5208
| 11> C 	 -36.2758 	 -11.7362 	 18.3725
| 12> H 	 -36.4197 	 -13.4603 	 19.6235
| 13> C 	 -35.0926 	 -12.2353 	 21.9027
| 14> H 	 -35.9751 	 -12.7123 	 22.279
| 15> H 	 -34.967 	 -11.4006 	 22.587
| 16> C 	 -34.0625 	 -13.336 	 22.0739
| 17> H 	 -34.1736 	 -13.8504 	 22.9789
| 18> H 	 -34.0605 	 -14.1187 	 21.3027
| 19> C 	 -32.5877 	 -12.8784 	 22.0076
| 20> H 	 -31.776 	 -13.6545 	 22.2347
| 21> H 	 -32.3167 	 -12.4679 	 21.0451
| 22> H 	 -32.4651 	 -12.0777 	 22.7495
| 23> S 	 -38.5535 	 -11.5262 	 16.8304
| 24> C 	 -38.559 	 -12.114 	 15.201
| 25> C 	 -37.4342 	 -12.8162 	 14.9312
| 26> C 	 -36.5862 	 -12.9346 	 16.0646
| 27> C 	 -36.993 	 -12.1942 	 17.1466
| 28> H 	 -37.3645 	 -13.1491 	 13.9079
| 29> C 	 -35.2468 	 -13.7536 	 16.0066
| 30> H 	 -35.2383 	 -14.2603 	 15.0182
| 31> H 	 -35.2048 	 -14.4457 	 16.8333
| 32> C 	 -33.8777 	 -13.0169 	 16.1603
| 33> H 	 -33.8345 	 -12.2858 	 16.9396
| 34> H 	 -33.6377 	 -12.5015 	 15.2581
| 35> C 	 -32.7103 	 -14.0623 	 16.3338
| 36> H 	 -32.7063 	 -14.9824 	 15.7381
| 37> H 	 -32.6584 	 -14.4741 	 17.335
| 38> H 	 -31.7876 	 -13.6429 	 16.0818
| 39> H 	 -33.9855 	 -10.059 	 20.5029
| 40> H 	 -39.3554 	 -11.9651 	 14.4703
| 41> *
| 42>
| 43>                          ****END OF INPUT****

CARTESIAN COORDINATES (ANGSTROEM)
---------------------------------
  S    -35.490500  -10.231500   18.465300
  C    -34.672600  -10.635600   19.953700
  C    -35.279100  -11.726900   20.536400
  C    -35.994200  -12.427000   19.520800
  C    -36.275800  -11.736200   18.372500
  H    -36.419700  -13.460300   19.623500
  C    -35.092600  -12.235300   21.902700
  H    -35.975100  -12.712300   22.279000
  H    -34.967000  -11.400600   22.587000
  C    -34.062500  -13.336000   22.073900
  H    -34.173600  -13.850400   22.978900
  H    -34.060500  -14.118700   21.302700
  C    -32.587700  -12.878400   22.007600
  H    -31.776000  -13.654500   22.234700
  H    -32.316700  -12.467900   21.045100
  H    -32.465100  -12.077700   22.749500
  S    -38.553500  -11.526200   16.830400
  C    -38.559000  -12.114000   15.201000
  C    -37.434200  -12.816200   14.931200
  C    -36.586200  -12.934600   16.064600
  C    -36.993000  -12.194200   17.146600
  H    -37.364500  -13.149100   13.907900
  C    -35.246800  -13.753600   16.006600
  H    -35.238300  -14.260300   15.018200
  H    -35.204800  -14.445700   16.833300
  C    -33.877700  -13.016900   16.160300
  H    -33.834500  -12.285800   16.939600
  H    -33.637700  -12.501500   15.258100
  C    -32.710300  -14.062300   16.333800
  H    -32.706300  -14.982400   15.738100
  H    -32.658400  -14.474100   17.335000
  H    -31.787600  -13.642900   16.081800
  H    -33.985500  -10.059000   20.502900
  H    -39.355400  -11.965100   14.470300

 Total Charge           Charge          ....    0
 Multiplicity           Mult            ....    1
 Number of Electrons    NEL             ....  134
 Basis Dimension        Dim             ....  322

ORBITAL ENERGIES
----------------

  NO   OCC          E(Eh)            E(eV)
   0   2.0000     -88.965813     -2420.8829
   1   2.0000     -88.961951     -2420.7778
   2   2.0000     -10.326467      -280.9974
   3   2.0000     -10.324707      -280.9496
   4   2.0000     -10.312413      -280.6150
   5   2.0000     -10.312343      -280.6131
   6   2.0000     -10.304831      -280.4087
   7   2.0000     -10.300581      -280.2931
   8   2.0000     -10.294458      -280.1264
   9   2.0000     -10.293372      -280.0969
  10   2.0000     -10.291867      -280.0559
  11   2.0000     -10.289443      -279.9900
  12   2.0000     -10.285628      -279.8862
  13   2.0000     -10.280633      -279.7503
  14   2.0000     -10.280343      -279.7424
  15   2.0000     -10.269842      -279.4566
  16   2.0000      -8.081152      -219.8993
  17   2.0000      -8.077654      -219.8041
  18   2.0000      -6.039674      -164.3479
  19   2.0000      -6.036018      -164.2484
  20   2.0000      -6.035524      -164.2350
  21   2.0000      -6.031957      -164.1379
  22   2.0000      -6.031859      -164.1352
  23   2.0000      -6.028572      -164.0458
  24   2.0000      -1.015109       -27.6225
  25   2.0000      -0.995226       -27.0815
  26   2.0000      -0.921394       -25.0724
  27   2.0000      -0.895473       -24.3670
  28   2.0000      -0.870997       -23.7010
  29   2.0000      -0.846897       -23.0452
  30   2.0000      -0.844828       -22.9889
  31   2.0000      -0.818774       -22.2800
  32   2.0000      -0.788202       -21.4481
  33   2.0000      -0.772709       -21.0265
  34   2.0000      -0.711720       -19.3669
  35   2.0000      -0.701611       -19.0918
  36   2.0000      -0.692796       -18.8519
  37   2.0000      -0.658235       -17.9115
  38   2.0000      -0.645309       -17.5597
  39   2.0000      -0.621431       -16.9100
  40   2.0000      -0.595117       -16.1939
  41   2.0000      -0.582074       -15.8390
  42   2.0000      -0.561313       -15.2741
  43   2.0000      -0.548130       -14.9154
  44   2.0000      -0.542116       -14.7517
  45   2.0000      -0.530195       -14.4274
  46   2.0000      -0.513079       -13.9616
  47   2.0000      -0.510811       -13.8999
  48   2.0000      -0.506540       -13.7837
  49   2.0000      -0.495408       -13.4807
  50   2.0000      -0.487215       -13.2578
  51   2.0000      -0.479752       -13.0547
  52   2.0000      -0.475236       -12.9318
  53   2.0000      -0.467644       -12.7252
  54   2.0000      -0.465516       -12.6673
  55   2.0000      -0.443590       -12.0707
  56   2.0000      -0.440372       -11.9831
  57   2.0000      -0.438266       -11.9258
  58   2.0000      -0.431392       -11.7388
  59   2.0000      -0.422318       -11.4919
  60   2.0000      -0.417999       -11.3743
  61   2.0000      -0.415623       -11.3097
  62   2.0000      -0.411374       -11.1941
  63   2.0000      -0.336244        -9.1497
  64   2.0000      -0.331107        -9.0099
  65   2.0000      -0.326877        -8.8948
  66   2.0000      -0.308299        -8.3892
  67   0.0000       0.047940         1.3045
  68   0.0000       0.054695         1.4883
  69   0.0000       0.107333         2.9207
  70   0.0000       0.124740         3.3943
  71   0.0000       0.136494         3.7142

MULLIKEN ATOMIC CHARGES
-----------------------
   0 S :    0.126874
   1 C :   -0.099064
   2 C :   -0.086834
   3 C :    0.007889
   4 C :   -0.151346
   5 H :    0.024210
   6 C :    0.099377
   7 H :    0.020631
   8 H :    0.023998
   9 C :   -0.043922
  10 H :    0.018666
  11 H :    0.029072
  12 C :   -0.096436
  13 H :    0.045614
  14 H :    0.031914
  15 H :    0.018288
  16 S :    0.109097
  17 C :   -0.103091
  18 C :   -0.043666
  19 C :    0.001811
  20 C :   -0.178138
  21 H :    0.017673
  22 C :    0.070509
  23 H :    0.026089
  24 H :    0.026479
  25 C :   -0.039552
  26 H :    0.034989
  27 H :    0.018936
  28 C :   -0.057461
  29 H :    0.018442
  30 H :    0.026438
  31 H :    0.016795
  32 H :    0.027919
  33 H :    0.057798
Sum of atomic charges:   -0.0000000

LOEWDIN ATOMIC CHARGES
----------------------
   0 S :    0.434144
   1 C :   -0.187224
   2 C :   -0.061204
   3 C :   -0.064772
   4 C :   -0.220188
   5 H :    0.036832
   6 C :   -0.031709
   7 H :    0.037249
   8 H :    0.033883
   9 C :   -0.034855
  10 H :    0.017490
  11 H :    0.028590
  12 C :   -0.075382
  13 H :    0.034442
  14 H :    0.019039
  15 H :    0.017678
  16 S :    0.420715
  17 C :   -0.188834
  18 C :   -0.078941
  19 C :   -0.054064
  20 C :   -0.211214
  21 H :    0.035367
  22 C :   -0.026422
  23 H :    0.033226
  24 H :    0.028026
  25 C :   -0.028196
  26 H :    0.018724
  27 H :    0.018358
  28 C :   -0.067874
  29 H :    0.025183
  30 H :    0.022387
  31 H :    0.017512
  32 H :    0.018893
  33 H :    0.033141

  Mayer bond orders larger than 0.100000
B(  0-S ,  1-C ) :   1.1516 B(  0-S ,  4-C ) :   1.1501 B(  1-C ,  2-C ) :   1.5916
B(  1-C , 32-H ) :   0.9732 B(  2-C ,  3-C ) :   1.2216 B(  2-C ,  6-C ) :   1.0522
B(  3-C ,  4-C ) :   1.6164 B(  3-C ,  5-H ) :   0.9848 B(  4-C , 20-C ) :   0.9842
B(  6-C ,  7-H ) :   0.9262 B(  6-C ,  8-H ) :   0.9359 B(  6-C ,  9-C ) :   1.0708
B(  9-C , 10-H ) :   0.9557 B(  9-C , 11-H ) :   0.9574 B(  9-C , 12-C ) :   1.0667
B( 12-C , 13-H ) :   0.9751 B( 12-C , 14-H ) :   0.9774 B( 12-C , 15-H ) :   0.9766
B( 16-S , 17-C ) :   1.1639 B( 16-S , 20-C ) :   1.1553 B( 17-C , 18-C ) :   1.6244
B( 17-C , 33-H ) :   0.9630 B( 18-C , 19-C ) :   1.2322 B( 18-C , 21-H ) :   0.9965
B( 19-C , 20-C ) :   1.6111 B( 19-C , 22-C ) :   1.0236 B( 22-C , 23-H ) :   0.9394
B( 22-C , 24-H ) :   0.9461 B( 22-C , 25-C ) :   1.0591 B( 25-C , 26-H ) :   0.9571
B( 25-C , 27-H ) :   0.9591 B( 25-C , 28-C ) :   1.0707 B( 28-C , 29-H ) :   0.9753
B( 28-C , 30-H ) :   0.9765 B( 28-C , 31-H ) :   0.9764

Dispersion correction           -0.014981803
FINAL SINGLE POINT ENERGY     -1339.864567304725

DIPOLE MOMENT
-------------
                                X             Y             Z
Electronic contribution:    -23.38557      15.15116      -9.19002
Nuclear contribution   :     23.67524     -15.52645       9.35426
                        -----------------------------------------
Total Dipole Moment    :      0.28966      -0.37529       0.16424
                        -----------------------------------------
Magnitude (a.u.)       :      0.50172
Magnitude (Debye)      :      1.27528

Rotational constants in cm-1:     0.020170     0.008954     0.007219
Rotational constants in MHz :   604.675544   268.438119   216.425686

                             ****ORCA TERMINATED NORMALLY****
TOTAL RUN TIME: 0 days 0 hours 0 minutes 22 seconds 119 msec
