                         Program Version 4.2.1 -  RELEASE  -
|  1> ! wB97X-D3 SP def2-SVP
|  2> %pal
|  3> nprocs 24
|  4> end
|  5>
|  6> * xyz 0 1
|  7> S 	 -44.0009 	 -53.0002 	 -68.0537
|  8> C 	 -43.0192 	 -54.0186 	 -67.068
|  9> C 	 -41.732 	 -54.0521 	 -67.5281
| 10> C 	 -41.6619 	 -53.5695 	 -68.8555
| 11> C 	 -42.8719 	 -53.1826 	 -69.4212
| 12> H 	 -40.8069 	 -53.3136 	 -69.3663
| 13> C 	 -40.5015 	 -54.5589 	 -66.8567
| 14> H 	 -40.2392 	 -55.4788 	 -67.3983
| 15> H 	 -40.7999 	 -54.8623 	 -65.8523
| 16> C 	 -39.523 	 -53.4721 	 -66.6663
| 17> H 	 -39.1452 	 -53.2006 	 -67.6053
| 18> H 	 -40.0221 	 -52.6901 	 -66.1063
| 19> C 	 -38.3136 	 -54.0137 	 -65.8312
| 20> H 	 -37.5666 	 -53.2624 	 -65.702
| 21> H 	 -38.5924 	 -54.2639 	 -64.8435
| 22> H 	 -37.9292 	 -54.9282 	 -66.2641
| 23> S 	 -42.4261 	 -53.6 	 -72.0409
| 24> C 	 -43.4023 	 -52.6959 	 -73.2249
| 25> C 	 -44.4017 	 -51.9407 	 -72.6704
| 26> C 	 -44.2621 	 -51.9123 	 -71.2531
| 27> C 	 -43.2581 	 -52.7561 	 -70.7815
| 28> H 	 -45.1176 	 -51.4146 	 -73.2355
| 29> C 	 -45.3297 	 -51.1448 	 -70.368
| 30> H 	 -44.7188 	 -50.7583 	 -69.5809
| 31> H 	 -46.0885 	 -51.8684 	 -69.9479
| 32> C 	 -46.173 	 -50.0521 	 -71.0694
| 33> H 	 -46.7478 	 -50.5563 	 -71.8229
| 34> H 	 -45.3523 	 -49.3873 	 -71.3944
| 35> C 	 -47.1121 	 -49.1614 	 -70.1774
| 36> H 	 -47.8029 	 -48.6479 	 -70.8237
| 37> H 	 -46.5799 	 -48.3611 	 -69.6788
| 38> H 	 -47.7005 	 -49.6411 	 -69.3994
| 39> H 	 -43.2292 	 -54.2352 	 -66.0144
| 40> H 	 -43.4031 	 -52.691 	 -74.3562
| 41> *
| 42>
| 43>                          ****END OF INPUT****

CARTESIAN COORDINATES (ANGSTROEM)
---------------------------------
  S    -44.000900  -53.000200  -68.053700
  C    -43.019200  -54.018600  -67.068000
  C    -41.732000  -54.052100  -67.528100
  C    -41.661900  -53.569500  -68.855500
  C    -42.871900  -53.182600  -69.421200
  H    -40.806900  -53.313600  -69.366300
  C    -40.501500  -54.558900  -66.856700
  H    -40.239200  -55.478800  -67.398300
  H    -40.799900  -54.862300  -65.852300
  C    -39.523000  -53.472100  -66.666300
  H    -39.145200  -53.200600  -67.605300
  H    -40.022100  -52.690100  -66.106300
  C    -38.313600  -54.013700  -65.831200
  H    -37.566600  -53.262400  -65.702000
  H    -38.592400  -54.263900  -64.843500
  H    -37.929200  -54.928200  -66.264100
  S    -42.426100  -53.600000  -72.040900
  C    -43.402300  -52.695900  -73.224900
  C    -44.401700  -51.940700  -72.670400
  C    -44.262100  -51.912300  -71.253100
  C    -43.258100  -52.756100  -70.781500
  H    -45.117600  -51.414600  -73.235500
  C    -45.329700  -51.144800  -70.368000
  H    -44.718800  -50.758300  -69.580900
  H    -46.088500  -51.868400  -69.947900
  C    -46.173000  -50.052100  -71.069400
  H    -46.747800  -50.556300  -71.822900
  H    -45.352300  -49.387300  -71.394400
  C    -47.112100  -49.161400  -70.177400
  H    -47.802900  -48.647900  -70.823700
  H    -46.579900  -48.361100  -69.678800
  H    -47.700500  -49.641100  -69.399400
  H    -43.229200  -54.235200  -66.014400
  H    -43.403100  -52.691000  -74.356200

 Total Charge           Charge          ....    0
 Multiplicity           Mult            ....    1
 Number of Electrons    NEL             ....  134
 Basis Dimension        Dim             ....  322

ORBITAL ENERGIES
----------------

  NO   OCC          E(Eh)            E(eV)
   0   2.0000     -88.972740     -2421.0713
   1   2.0000     -88.958971     -2420.6967
   2   2.0000     -10.333649      -281.1929
   3   2.0000     -10.329841      -281.0893
   4   2.0000     -10.320831      -280.8441
   5   2.0000     -10.307153      -280.4719
   6   2.0000     -10.306036      -280.4415
   7   2.0000     -10.295231      -280.1475
   8   2.0000     -10.293013      -280.0871
   9   2.0000     -10.292501      -280.0732
  10   2.0000     -10.289913      -280.0028
  11   2.0000     -10.285483      -279.8822
  12   2.0000     -10.284365      -279.8518
  13   2.0000     -10.282404      -279.7984
  14   2.0000     -10.279721      -279.7254
  15   2.0000     -10.272187      -279.5204
  16   2.0000      -8.086858      -220.0546
  17   2.0000      -8.073571      -219.6930
  18   2.0000      -6.045567      -164.5082
  19   2.0000      -6.041530      -164.3984
  20   2.0000      -6.037366      -164.2851
  21   2.0000      -6.032166      -164.1436
  22   2.0000      -6.028369      -164.0403
  23   2.0000      -6.023971      -163.9206
  24   2.0000      -1.007471       -27.4147
  25   2.0000      -0.987180       -26.8625
  26   2.0000      -0.923078       -25.1182
  27   2.0000      -0.901471       -24.5303
  28   2.0000      -0.871268       -23.7084
  29   2.0000      -0.851450       -23.1691
  30   2.0000      -0.840925       -22.8827
  31   2.0000      -0.817400       -22.2426
  32   2.0000      -0.783992       -21.3335
  33   2.0000      -0.771563       -20.9953
  34   2.0000      -0.711545       -19.3621
  35   2.0000      -0.703078       -19.1317
  36   2.0000      -0.688224       -18.7275
  37   2.0000      -0.661094       -17.9893
  38   2.0000      -0.637049       -17.3350
  39   2.0000      -0.622835       -16.9482
  40   2.0000      -0.587394       -15.9838
  41   2.0000      -0.583139       -15.8680
  42   2.0000      -0.576625       -15.6908
  43   2.0000      -0.563845       -15.3430
  44   2.0000      -0.529285       -14.4026
  45   2.0000      -0.523793       -14.2531
  46   2.0000      -0.512490       -13.9456
  47   2.0000      -0.509562       -13.8659
  48   2.0000      -0.504768       -13.7354
  49   2.0000      -0.497824       -13.5465
  50   2.0000      -0.480340       -13.0707
  51   2.0000      -0.476121       -12.9559
  52   2.0000      -0.474652       -12.9159
  53   2.0000      -0.466268       -12.6878
  54   2.0000      -0.461933       -12.5698
  55   2.0000      -0.456488       -12.4217
  56   2.0000      -0.449494       -12.2314
  57   2.0000      -0.442879       -12.0513
  58   2.0000      -0.432765       -11.7761
  59   2.0000      -0.426340       -11.6013
  60   2.0000      -0.422790       -11.5047
  61   2.0000      -0.415778       -11.3139
  62   2.0000      -0.401831       -10.9344
  63   2.0000      -0.357373        -9.7246
  64   2.0000      -0.335463        -9.1284
  65   2.0000      -0.320960        -8.7338
  66   2.0000      -0.280799        -7.6409
  67   0.0000       0.018913         0.5147
  68   0.0000       0.075904         2.0654
  69   0.0000       0.101872         2.7721
  70   0.0000       0.113744         3.0951
  71   0.0000       0.138471         3.7680

MULLIKEN ATOMIC CHARGES
-----------------------
   0 S :    0.073317
   1 C :   -0.092921
   2 C :   -0.115596
   3 C :    0.020355
   4 C :   -0.136494
   5 H :   -0.012688
   6 C :    0.082850
   7 H :    0.046166
   8 H :   -0.004854
   9 C :   -0.066397
  10 H :    0.025692
  11 H :    0.038015
  12 C :   -0.005018
  13 H :    0.027464
  14 H :    0.009815
  15 H :    0.023820
  16 S :    0.123941
  17 C :   -0.085636
  18 C :   -0.037327
  19 C :   -0.072699
  20 C :   -0.121789
  21 H :    0.009476
  22 C :    0.024339
  23 H :    0.029372
  24 H :    0.056743
  25 C :   -0.106562
  26 H :    0.044015
  27 H :    0.043408
  28 C :   -0.018081
  29 H :    0.026239
  30 H :    0.027247
  31 H :    0.032055
  32 H :    0.048366
  33 H :    0.063366
Sum of atomic charges:    0.0000000

LOEWDIN ATOMIC CHARGES
----------------------
   0 S :    0.401704
   1 C :   -0.209014
   2 C :   -0.064284
   3 C :   -0.069239
   4 C :   -0.168047
   5 H :    0.014239
   6 C :   -0.032482
   7 H :    0.036578
   8 H :    0.025146
   9 C :   -0.025791
  10 H :    0.016527
  11 H :    0.031813
  12 C :   -0.054855
  13 H :    0.021713
  14 H :    0.016849
  15 H :    0.024856
  16 S :    0.416818
  17 C :   -0.187934
  18 C :   -0.065929
  19 C :   -0.060005
  20 C :   -0.203586
  21 H :    0.026583
  22 C :   -0.042105
  23 H :    0.017528
  24 H :    0.033862
  25 C :   -0.042144
  26 H :    0.021411
  27 H :    0.033835
  28 C :   -0.063494
  29 H :    0.026675
  30 H :    0.025955
  31 H :    0.024538
  32 H :    0.029536
  33 H :    0.042744

  Mayer bond orders larger than 0.100000
B(  0-S ,  1-C ) :   1.1339 B(  0-S ,  4-C ) :   1.1437 B(  1-C ,  2-C ) :   1.6187
B(  1-C , 32-H ) :   0.9596 B(  2-C ,  3-C ) :   1.2329 B(  2-C ,  6-C ) :   1.0247
B(  3-C ,  4-C ) :   1.5522 B(  3-C ,  5-H ) :   1.0062 B(  4-C , 20-C ) :   1.0634
B(  6-C ,  7-H ) :   0.9362 B(  6-C ,  8-H ) :   0.9332 B(  6-C ,  9-C ) :   1.0687
B(  9-C , 10-H ) :   0.9553 B(  9-C , 11-H ) :   0.9522 B(  9-C , 12-C ) :   1.0926
B( 12-C , 13-H ) :   0.9749 B( 12-C , 14-H ) :   0.9728 B( 12-C , 15-H ) :   0.9721
B( 16-S , 17-C ) :   1.1352 B( 16-S , 20-C ) :   1.1423 B( 17-C , 18-C ) :   1.6346
B( 17-C , 33-H ) :   0.9515 B( 18-C , 19-C ) :   1.2526 B( 18-C , 21-H ) :   0.9868
B( 19-C , 20-C ) :   1.5913 B( 19-C , 22-C ) :   1.0095 B( 22-C , 23-H ) :   0.9367
B( 22-C , 24-H ) :   0.9356 B( 22-C , 25-C ) :   1.0722 B( 25-C , 26-H ) :   0.9500
B( 25-C , 27-H ) :   0.9611 B( 25-C , 28-C ) :   1.0772 B( 28-C , 29-H ) :   0.9741
B( 28-C , 30-H ) :   0.9763 B( 28-C , 31-H ) :   0.9768

Dispersion correction           -0.013301330
FINAL SINGLE POINT ENERGY     -1339.844973545505

DIPOLE MOMENT
-------------
                                X             Y             Z
Electronic contribution:     -2.39071      -9.15662     -11.37141
Nuclear contribution   :      2.45721       9.46395      11.50244
                        -----------------------------------------
Total Dipole Moment    :      0.06649       0.30733       0.13104
                        -----------------------------------------
Magnitude (a.u.)       :      0.34065
Magnitude (Debye)      :      0.86587

Rotational constants in cm-1:     0.022029     0.007153     0.005846
Rotational constants in MHz :   660.404610   214.450704   175.272577

                             ****ORCA TERMINATED NORMALLY****
TOTAL RUN TIME: 0 days 0 hours 0 minutes 20 seconds 817 msec
