                         Program Version 4.2.1 -  RELEASE  -
|  1> ! wB97X-D3 SP def2-SVP
|  2> %pal
|  3> nprocs 24
|  4> end
|  5>
|  6> * xyz 0 1
|  7> S 	 -46.2252 	 19.0717 	 23.8002
|  8> C 	 -46.7814 	 18.1379 	 22.4361
|  9> C 	 -47.5567 	 17.0679 	 22.8623
| 10> C 	 -47.4181 	 16.8535 	 24.3059
| 11> C 	 -46.6114 	 17.7982 	 24.9308
| 12> H 	 -47.913 	 16.0121 	 24.843
| 13> C 	 -48.2763 	 16.1022 	 21.9055
| 14> H 	 -48.2 	 16.2632 	 20.8303
| 15> H 	 -49.3303 	 16.283 	 22.1092
| 16> C 	 -47.9877 	 14.574 	 22.1401
| 17> H 	 -48.1644 	 14.3043 	 23.1986
| 18> H 	 -48.7476 	 13.9415 	 21.6439
| 19> C 	 -46.5661 	 14.1067 	 21.6638
| 20> H 	 -45.6959 	 14.5696 	 22.154
| 21> H 	 -46.5016 	 13.0173 	 21.9359
| 22> H 	 -46.3695 	 14.1982 	 20.6286
| 23> S 	 -46.6808 	 19.3547 	 27.1272
| 24> C 	 -46.0433 	 18.8211 	 28.6026
| 25> C 	 -45.4386 	 17.5663 	 28.4999
| 26> C 	 -45.588 	 17.0136 	 27.1885
| 27> C 	 -46.2585 	 17.891 	 26.3344
| 28> H 	 -44.875 	 17.1861 	 29.3406
| 29> C 	 -45.1715 	 15.604 	 26.9436
| 30> H 	 -44.135 	 15.6034 	 27.0748
| 31> H 	 -45.2753 	 15.3602 	 25.8793
| 32> C 	 -45.8244 	 14.6001 	 27.8154
| 33> H 	 -45.5938 	 14.8627 	 28.8543
| 34> H 	 -45.4142 	 13.5437 	 27.6762
| 35> C 	 -47.4269 	 14.6625 	 27.6973
| 36> H 	 -47.9036 	 14.049 	 28.4299
| 37> H 	 -47.5211 	 14.1986 	 26.6859
| 38> H 	 -47.7327 	 15.6606 	 27.7187
| 39> H 	 -46.5908 	 18.4187 	 21.3646
| 40> H 	 -45.981 	 19.3885 	 29.4897
| 41> *
| 42>
| 43>                          ****END OF INPUT****

CARTESIAN COORDINATES (ANGSTROEM)
---------------------------------
  S    -46.225200   19.071700   23.800200
  C    -46.781400   18.137900   22.436100
  C    -47.556700   17.067900   22.862300
  C    -47.418100   16.853500   24.305900
  C    -46.611400   17.798200   24.930800
  H    -47.913000   16.012100   24.843000
  C    -48.276300   16.102200   21.905500
  H    -48.200000   16.263200   20.830300
  H    -49.330300   16.283000   22.109200
  C    -47.987700   14.574000   22.140100
  H    -48.164400   14.304300   23.198600
  H    -48.747600   13.941500   21.643900
  C    -46.566100   14.106700   21.663800
  H    -45.695900   14.569600   22.154000
  H    -46.501600   13.017300   21.935900
  H    -46.369500   14.198200   20.628600
  S    -46.680800   19.354700   27.127200
  C    -46.043300   18.821100   28.602600
  C    -45.438600   17.566300   28.499900
  C    -45.588000   17.013600   27.188500
  C    -46.258500   17.891000   26.334400
  H    -44.875000   17.186100   29.340600
  C    -45.171500   15.604000   26.943600
  H    -44.135000   15.603400   27.074800
  H    -45.275300   15.360200   25.879300
  C    -45.824400   14.600100   27.815400
  H    -45.593800   14.862700   28.854300
  H    -45.414200   13.543700   27.676200
  C    -47.426900   14.662500   27.697300
  H    -47.903600   14.049000   28.429900
  H    -47.521100   14.198600   26.685900
  H    -47.732700   15.660600   27.718700
  H    -46.590800   18.418700   21.364600
  H    -45.981000   19.388500   29.489700

 Total Charge           Charge          ....    0
 Multiplicity           Mult            ....    1
 Number of Electrons    NEL             ....  134
 Basis Dimension        Dim             ....  322

ORBITAL ENERGIES
----------------

  NO   OCC          E(Eh)            E(eV)
   0   2.0000     -88.966674     -2420.9063
   1   2.0000     -88.963090     -2420.8087
   2   2.0000     -10.330357      -281.1033
   3   2.0000     -10.323655      -280.9209
   4   2.0000     -10.317370      -280.7499
   5   2.0000     -10.311442      -280.5886
   6   2.0000     -10.307922      -280.4928
   7   2.0000     -10.302717      -280.3512
   8   2.0000     -10.301826      -280.3269
   9   2.0000     -10.297275      -280.2031
  10   2.0000     -10.296647      -280.1860
  11   2.0000     -10.293096      -280.0894
  12   2.0000     -10.290976      -280.0317
  13   2.0000     -10.280762      -279.7538
  14   2.0000     -10.279677      -279.7242
  15   2.0000     -10.274867      -279.5933
  16   2.0000      -8.083005      -219.9497
  17   2.0000      -8.078224      -219.8197
  18   2.0000      -6.041367      -164.3940
  19   2.0000      -6.037138      -164.2789
  20   2.0000      -6.036808      -164.2699
  21   2.0000      -6.033987      -164.1931
  22   2.0000      -6.032788      -164.1605
  23   2.0000      -6.028758      -164.0509
  24   2.0000      -1.012525       -27.5522
  25   2.0000      -0.985524       -26.8175
  26   2.0000      -0.918180       -24.9849
  27   2.0000      -0.901750       -24.5379
  28   2.0000      -0.867967       -23.6186
  29   2.0000      -0.845238       -23.0001
  30   2.0000      -0.837912       -22.8007
  31   2.0000      -0.812297       -22.1037
  32   2.0000      -0.786481       -21.4012
  33   2.0000      -0.775290       -21.0967
  34   2.0000      -0.710179       -19.3250
  35   2.0000      -0.696927       -18.9643
  36   2.0000      -0.691204       -18.8086
  37   2.0000      -0.658552       -17.9201
  38   2.0000      -0.636650       -17.3241
  39   2.0000      -0.621114       -16.9014
  40   2.0000      -0.600414       -16.3381
  41   2.0000      -0.564624       -15.3642
  42   2.0000      -0.560360       -15.2482
  43   2.0000      -0.546015       -14.8578
  44   2.0000      -0.542525       -14.7629
  45   2.0000      -0.530890       -14.4463
  46   2.0000      -0.514792       -14.0082
  47   2.0000      -0.509906       -13.8753
  48   2.0000      -0.503557       -13.7025
  49   2.0000      -0.497557       -13.5392
  50   2.0000      -0.490617       -13.3504
  51   2.0000      -0.481937       -13.1142
  52   2.0000      -0.469678       -12.7806
  53   2.0000      -0.463918       -12.6239
  54   2.0000      -0.459050       -12.4914
  55   2.0000      -0.457163       -12.4400
  56   2.0000      -0.446444       -12.1484
  57   2.0000      -0.439878       -11.9697
  58   2.0000      -0.430014       -11.7013
  59   2.0000      -0.425414       -11.5761
  60   2.0000      -0.422246       -11.4899
  61   2.0000      -0.412432       -11.2229
  62   2.0000      -0.402307       -10.9473
  63   2.0000      -0.346293        -9.4231
  64   2.0000      -0.331282        -9.0146
  65   2.0000      -0.325299        -8.8518
  66   2.0000      -0.292153        -7.9499
  67   0.0000       0.035992         0.9794
  68   0.0000       0.065252         1.7756
  69   0.0000       0.114112         3.1051
  70   0.0000       0.121600         3.3089
  71   0.0000       0.124381         3.3846

MULLIKEN ATOMIC CHARGES
-----------------------
   0 S :    0.104137
   1 C :   -0.150109
   2 C :   -0.072057
   3 C :    0.018641
   4 C :   -0.141901
   5 H :    0.025503
   6 C :    0.064226
   7 H :    0.024834
   8 H :    0.035222
   9 C :   -0.094697
  10 H :    0.026718
  11 H :    0.030934
  12 C :   -0.060644
  13 H :    0.042039
  14 H :    0.035698
  15 H :    0.026124
  16 S :    0.127996
  17 C :   -0.073996
  18 C :   -0.062142
  19 C :   -0.060571
  20 C :   -0.175030
  21 H :    0.024768
  22 C :    0.137330
  23 H :    0.014332
  24 H :    0.017113
  25 C :   -0.118467
  26 H :    0.021365
  27 H :    0.043300
  28 C :   -0.042323
  29 H :    0.036512
  30 H :    0.034016
  31 H :    0.049497
  32 H :    0.070629
  33 H :    0.041003
Sum of atomic charges:   -0.0000000

LOEWDIN ATOMIC CHARGES
----------------------
   0 S :    0.399780
   1 C :   -0.206578
   2 C :   -0.062108
   3 C :   -0.065848
   4 C :   -0.195449
   5 H :    0.035903
   6 C :   -0.035274
   7 H :    0.030071
   8 H :    0.035632
   9 C :   -0.043798
  10 H :    0.022108
  11 H :    0.027215
  12 C :   -0.071074
  13 H :    0.028666
  14 H :    0.032728
  15 H :    0.017311
  16 S :    0.448541
  17 C :   -0.197429
  18 C :   -0.071004
  19 C :   -0.051394
  20 C :   -0.216976
  21 H :    0.032273
  22 C :   -0.036413
  23 H :    0.029518
  24 H :    0.030295
  25 C :   -0.040204
  26 H :    0.015716
  27 H :    0.031118
  28 C :   -0.054528
  29 H :    0.022255
  30 H :    0.028328
  31 H :    0.018795
  32 H :    0.040636
  33 H :    0.021187

  Mayer bond orders larger than 0.100000
B(  0-S ,  1-C ) :   1.1347 B(  0-S ,  4-C ) :   1.1464 B(  1-C ,  2-C ) :   1.6121
B(  1-C , 32-H ) :   0.9657 B(  2-C ,  3-C ) :   1.2196 B(  2-C ,  6-C ) :   1.0174
B(  3-C ,  4-C ) :   1.5786 B(  3-C ,  5-H ) :   0.9874 B(  4-C , 20-C ) :   1.0336
B(  6-C ,  7-H ) :   0.9552 B(  6-C ,  8-H ) :   0.9300 B(  6-C ,  9-C ) :   1.0736
B(  9-C , 10-H ) :   0.9562 B(  9-C , 11-H ) :   0.9547 B(  9-C , 12-C ) :   1.0640
B( 12-C , 13-H ) :   0.9780 B( 12-C , 14-H ) :   0.9751 B( 12-C , 15-H ) :   0.9780
B( 16-S , 17-C ) :   1.1777 B( 16-S , 20-C ) :   1.1660 B( 17-C , 18-C ) :   1.5880
B( 17-C , 33-H ) :   0.9716 B( 18-C , 19-C ) :   1.2441 B( 18-C , 21-H ) :   0.9920
B( 19-C , 20-C ) :   1.5721 B( 19-C , 22-C ) :   1.0463 B( 22-C , 23-H ) :   0.9140
B( 22-C , 24-H ) :   0.9306 B( 22-C , 25-C ) :   1.0745 B( 25-C , 26-H ) :   0.9523
B( 25-C , 27-H ) :   0.9582 B( 25-C , 28-C ) :   1.0543 B( 28-C , 29-H ) :   0.9759
B( 28-C , 30-H ) :   0.9765 B( 28-C , 31-H ) :   0.9764

Dispersion correction           -0.015441518
FINAL SINGLE POINT ENERGY     -1339.878804349362

DIPOLE MOMENT
-------------
                                X             Y             Z
Electronic contribution:      2.91915      28.62505       4.84459
Nuclear contribution   :     -2.93623     -29.21641      -4.83394
                        -----------------------------------------
Total Dipole Moment    :     -0.01708      -0.59136       0.01065
                        -----------------------------------------
Magnitude (a.u.)       :      0.59170
Magnitude (Debye)      :      1.50399

Rotational constants in cm-1:     0.019157     0.009873     0.007197
Rotational constants in MHz :   574.310773   295.990821   215.757097

                             ****ORCA TERMINATED NORMALLY****
TOTAL RUN TIME: 0 days 0 hours 0 minutes 22 seconds 469 msec
