                         Program Version 4.2.1 -  RELEASE  -
|  1> ! wB97X-D3 SP def2-SVP
|  2> %pal
|  3> nprocs 24
|  4> end
|  5>
|  6> * xyz 0 1
|  7> S 	 -47.4365 	 8.65362 	 -15.676
|  8> C 	 -48.6037 	 8.24253 	 -14.4254
|  9> C 	 -49.2374 	 9.36244 	 -13.9611
| 10> C 	 -48.8349 	 10.5312 	 -14.6916
| 11> C 	 -48.107 	 10.2595 	 -15.8009
| 12> H 	 -49.0717 	 11.5398 	 -14.2691
| 13> C 	 -50.2377 	 9.41963 	 -12.8259
| 14> H 	 -49.7438 	 10.0204 	 -12.0452
| 15> H 	 -50.3541 	 8.42791 	 -12.3971
| 16> C 	 -51.6157 	 10.0532 	 -13.141
| 17> H 	 -51.5092 	 11.0839 	 -13.0323
| 18> H 	 -51.9169 	 9.85304 	 -14.1802
| 19> C 	 -52.7501 	 9.72737 	 -12.0837
| 20> H 	 -52.3688 	 9.61065 	 -11.1152
| 21> H 	 -53.5082 	 10.5699 	 -11.9357
| 22> H 	 -53.2918 	 8.77885 	 -12.2852
| 23> S 	 -45.7643 	 11.3495 	 -17.0148
| 24> C 	 -46.0762 	 12.805 	 -18.0273
| 25> C 	 -47.3621 	 13.223 	 -18.0323
| 26> C 	 -48.2265 	 12.3538 	 -17.3071
| 27> C 	 -47.5589 	 11.2992 	 -16.7135
| 28> H 	 -47.6919 	 14.0565 	 -18.689
| 29> C 	 -49.6958 	 12.7279 	 -17.2094
| 30> H 	 -49.7995 	 13.2061 	 -16.2444
| 31> H 	 -50.2399 	 11.8411 	 -17.1348
| 32> C 	 -50.2899 	 13.7056 	 -18.268
| 33> H 	 -49.9675 	 13.369 	 -19.2874
| 34> H 	 -49.7791 	 14.7083 	 -18.181
| 35> C 	 -51.7935 	 13.6259 	 -18.2929
| 36> H 	 -52.1321 	 13.9005 	 -17.2702
| 37> H 	 -52.0817 	 12.649 	 -18.6583
| 38> H 	 -52.1203 	 14.3648 	 -18.97
| 39> H 	 -48.8756 	 7.18309 	 -14.1096
| 40> H 	 -45.2422 	 13.273 	 -18.5475
| 41> *
| 42>
| 43>                          ****END OF INPUT****

CARTESIAN COORDINATES (ANGSTROEM)
---------------------------------
  S    -47.436500    8.653620  -15.676000
  C    -48.603700    8.242530  -14.425400
  C    -49.237400    9.362440  -13.961100
  C    -48.834900   10.531200  -14.691600
  C    -48.107000   10.259500  -15.800900
  H    -49.071700   11.539800  -14.269100
  C    -50.237700    9.419630  -12.825900
  H    -49.743800   10.020400  -12.045200
  H    -50.354100    8.427910  -12.397100
  C    -51.615700   10.053200  -13.141000
  H    -51.509200   11.083900  -13.032300
  H    -51.916900    9.853040  -14.180200
  C    -52.750100    9.727370  -12.083700
  H    -52.368800    9.610650  -11.115200
  H    -53.508200   10.569900  -11.935700
  H    -53.291800    8.778850  -12.285200
  S    -45.764300   11.349500  -17.014800
  C    -46.076200   12.805000  -18.027300
  C    -47.362100   13.223000  -18.032300
  C    -48.226500   12.353800  -17.307100
  C    -47.558900   11.299200  -16.713500
  H    -47.691900   14.056500  -18.689000
  C    -49.695800   12.727900  -17.209400
  H    -49.799500   13.206100  -16.244400
  H    -50.239900   11.841100  -17.134800
  C    -50.289900   13.705600  -18.268000
  H    -49.967500   13.369000  -19.287400
  H    -49.779100   14.708300  -18.181000
  C    -51.793500   13.625900  -18.292900
  H    -52.132100   13.900500  -17.270200
  H    -52.081700   12.649000  -18.658300
  H    -52.120300   14.364800  -18.970000
  H    -48.875600    7.183090  -14.109600
  H    -45.242200   13.273000  -18.547500

 Total Charge           Charge          ....    0
 Multiplicity           Mult            ....    1
 Number of Electrons    NEL             ....  134
 Basis Dimension        Dim             ....  322

ORBITAL ENERGIES
----------------

  NO   OCC          E(Eh)            E(eV)
   0   2.0000     -88.964067     -2420.8353
   1   2.0000     -88.963175     -2420.8111
   2   2.0000     -10.329930      -281.0917
   3   2.0000     -10.328389      -281.0498
   4   2.0000     -10.318176      -280.7719
   5   2.0000     -10.317385      -280.7503
   6   2.0000     -10.302178      -280.3365
   7   2.0000     -10.298481      -280.2359
   8   2.0000     -10.295355      -280.1508
   9   2.0000     -10.294644      -280.1315
  10   2.0000     -10.294363      -280.1239
  11   2.0000     -10.292418      -280.0709
  12   2.0000     -10.289236      -279.9844
  13   2.0000     -10.286497      -279.9098
  14   2.0000     -10.285921      -279.8941
  15   2.0000     -10.279497      -279.7193
  16   2.0000      -8.078190      -219.8187
  17   2.0000      -8.077254      -219.7933
  18   2.0000      -6.036879      -164.2718
  19   2.0000      -6.035866      -164.2443
  20   2.0000      -6.032927      -164.1643
  21   2.0000      -6.032328      -164.1480
  22   2.0000      -6.028462      -164.0428
  23   2.0000      -6.027669      -164.0212
  24   2.0000      -1.004492       -27.3336
  25   2.0000      -0.979753       -26.6604
  26   2.0000      -0.910681       -24.7809
  27   2.0000      -0.907065       -24.6825
  28   2.0000      -0.865363       -23.5477
  29   2.0000      -0.853623       -23.2283
  30   2.0000      -0.842491       -22.9253
  31   2.0000      -0.813643       -22.1404
  32   2.0000      -0.782411       -21.2905
  33   2.0000      -0.771677       -20.9984
  34   2.0000      -0.710275       -19.3276
  35   2.0000      -0.701385       -19.0857
  36   2.0000      -0.692765       -18.8511
  37   2.0000      -0.648396       -17.6438
  38   2.0000      -0.632974       -17.2241
  39   2.0000      -0.619651       -16.8616
  40   2.0000      -0.599413       -16.3109
  41   2.0000      -0.572871       -15.5886
  42   2.0000      -0.568363       -15.4660
  43   2.0000      -0.554279       -15.0827
  44   2.0000      -0.531205       -14.4548
  45   2.0000      -0.524107       -14.2617
  46   2.0000      -0.517513       -14.0822
  47   2.0000      -0.510068       -13.8796
  48   2.0000      -0.501963       -13.6591
  49   2.0000      -0.491066       -13.3626
  50   2.0000      -0.484502       -13.1840
  51   2.0000      -0.480273       -13.0689
  52   2.0000      -0.470817       -12.8116
  53   2.0000      -0.466536       -12.6951
  54   2.0000      -0.455862       -12.4046
  55   2.0000      -0.452063       -12.3012
  56   2.0000      -0.449001       -12.2179
  57   2.0000      -0.437194       -11.8967
  58   2.0000      -0.431406       -11.7392
  59   2.0000      -0.426633       -11.6093
  60   2.0000      -0.423388       -11.5210
  61   2.0000      -0.419399       -11.4124
  62   2.0000      -0.412977       -11.2377
  63   2.0000      -0.349526        -9.5111
  64   2.0000      -0.331741        -9.0271
  65   2.0000      -0.325154        -8.8479
  66   2.0000      -0.290130        -7.8948
  67   0.0000       0.027620         0.7516
  68   0.0000       0.071232         1.9383
  69   0.0000       0.095403         2.5961
  70   0.0000       0.120968         3.2917
  71   0.0000       0.129700         3.5293

MULLIKEN ATOMIC CHARGES
-----------------------
   0 S :    0.093111
   1 C :   -0.145399
   2 C :   -0.101226
   3 C :   -0.007667
   4 C :   -0.130211
   5 H :    0.037214
   6 C :    0.069154
   7 H :    0.037950
   8 H :    0.014314
   9 C :   -0.047407
  10 H :    0.014329
  11 H :    0.044447
  12 C :   -0.079831
  13 H :    0.015687
  14 H :    0.042710
  15 H :    0.043694
  16 S :    0.078856
  17 C :   -0.092725
  18 C :   -0.033076
  19 C :   -0.066434
  20 C :   -0.135746
  21 H :    0.037903
  22 C :    0.103702
  23 H :    0.033244
  24 H :    0.011416
  25 C :   -0.155938
  26 H :    0.028345
  27 H :    0.044004
  28 C :    0.018289
  29 H :    0.032876
  30 H :    0.041856
  31 H :    0.024037
  32 H :    0.071409
  33 H :    0.057112
Sum of atomic charges:   -0.0000000

LOEWDIN ATOMIC CHARGES
----------------------
   0 S :    0.390846
   1 C :   -0.201914
   2 C :   -0.068919
   3 C :   -0.065426
   4 C :   -0.189845
   5 H :    0.039163
   6 C :   -0.032203
   7 H :    0.038100
   8 H :    0.026221
   9 C :   -0.036629
  10 H :    0.015857
  11 H :    0.028354
  12 C :   -0.071141
  13 H :    0.015354
  14 H :    0.035196
  15 H :    0.028696
  16 S :    0.341983
  17 C :   -0.157158
  18 C :   -0.078466
  19 C :   -0.051386
  20 C :   -0.175255
  21 H :    0.041800
  22 C :   -0.028506
  23 H :    0.033848
  24 H :    0.022518
  25 C :   -0.050087
  26 H :    0.023154
  27 H :    0.025763
  28 C :   -0.052760
  29 H :    0.028939
  30 H :    0.030326
  31 H :    0.022622
  32 H :    0.043686
  33 H :    0.027268

  Mayer bond orders larger than 0.100000
B(  0-S ,  1-C ) :   1.1194 B(  0-S ,  4-C ) :   1.1391 B(  1-C ,  2-C ) :   1.6438
B(  1-C , 32-H ) :   0.9550 B(  2-C ,  3-C ) :   1.2216 B(  2-C ,  6-C ) :   1.0343
B(  3-C ,  4-C ) :   1.5818 B(  3-C ,  5-H ) :   0.9860 B(  4-C , 20-C ) :   1.0365
B(  6-C ,  7-H ) :   0.9300 B(  6-C ,  8-H ) :   0.9467 B(  6-C ,  9-C ) :   1.0515
B(  9-C , 10-H ) :   0.9511 B(  9-C , 11-H ) :   0.9679 B(  9-C , 12-C ) :   1.0711
B( 12-C , 13-H ) :   0.9743 B( 12-C , 14-H ) :   0.9794 B( 12-C , 15-H ) :   0.9782
B( 16-S , 17-C ) :   1.1280 B( 16-S , 20-C ) :   1.1041 B( 17-C , 18-C ) :   1.6540
B( 17-C , 33-H ) :   0.9614 B( 18-C , 19-C ) :   1.2132 B( 18-C , 21-H ) :   0.9747
B( 19-C , 20-C ) :   1.6678 B( 19-C , 22-C ) :   1.0302 B( 22-C , 23-H ) :   0.9189
B( 22-C , 24-H ) :   0.9281 B( 22-C , 25-C ) :   1.0666 B( 25-C , 26-H ) :   0.9595
B( 25-C , 27-H ) :   0.9449 B( 25-C , 28-C ) :   1.0783 B( 28-C , 29-H ) :   0.9731
B( 28-C , 30-H ) :   0.9728 B( 28-C , 31-H ) :   0.9694

Dispersion correction           -0.013494668
FINAL SINGLE POINT ENERGY     -1339.865119324832

DIPOLE MOMENT
-------------
                                X             Y             Z
Electronic contribution:     30.35753     -10.26548      -7.08005
Nuclear contribution   :    -31.04217      10.75094       7.30707
                        -----------------------------------------
Total Dipole Moment    :     -0.68464       0.48546       0.22701
                        -----------------------------------------
Magnitude (a.u.)       :      0.86944
Magnitude (Debye)      :      2.20995

Rotational constants in cm-1:     0.015693     0.009134     0.006157
Rotational constants in MHz :   470.461857   273.835320   184.567254

                             ****ORCA TERMINATED NORMALLY****
TOTAL RUN TIME: 0 days 0 hours 0 minutes 21 seconds 136 msec
