                         Program Version 4.2.1 -  RELEASE  -
|  1> ! wB97X-D3 SP def2-SVP
|  2> %pal
|  3> nprocs 24
|  4> end
|  5>
|  6> * xyz 0 1
|  7> S 	 -122.613 	 32.2507 	 -115.116
|  8> C 	 -120.882 	 32.3515 	 -115.517
|  9> C 	 -120.194 	 32.4616 	 -114.33
| 10> C 	 -121.08 	 32.7726 	 -113.188
| 11> C 	 -122.427 	 32.7417 	 -113.456
| 12> H 	 -120.748 	 33.1047 	 -112.229
| 13> C 	 -118.653 	 32.6487 	 -114.142
| 14> H 	 -118.458 	 32.2639 	 -113.153
| 15> H 	 -118.554 	 33.6572 	 -114.075
| 16> C 	 -117.804 	 31.952 	 -115.278
| 17> H 	 -118.17 	 32.3713 	 -116.201
| 18> H 	 -116.745 	 32.1652 	 -115.211
| 19> C 	 -118.03 	 30.4452 	 -115.354
| 20> H 	 -117.403 	 29.9298 	 -114.635
| 21> H 	 -119.124 	 30.3166 	 -115.286
| 22> H 	 -117.792 	 30.0223 	 -116.35
| 23> S 	 -124.404 	 34.496 	 -113.038
| 24> C 	 -125.153 	 34.5993 	 -111.437
| 25> C 	 -124.531 	 33.8167 	 -110.508
| 26> C 	 -123.62 	 32.9171 	 -111.109
| 27> C 	 -123.445 	 33.1473 	 -112.49
| 28> H 	 -124.743 	 33.8747 	 -109.449
| 29> C 	 -122.829 	 31.9447 	 -110.327
| 30> H 	 -123.062 	 32.3041 	 -109.321
| 31> H 	 -121.737 	 32.1899 	 -110.323
| 32> C 	 -123.03 	 30.4876 	 -110.575
| 33> H 	 -122.207 	 29.8273 	 -110.136
| 34> H 	 -123.062 	 30.2404 	 -111.61
| 35> C 	 -124.384 	 30.1071 	 -109.982
| 36> H 	 -125.268 	 30.5825 	 -110.467
| 37> H 	 -124.354 	 30.3141 	 -108.927
| 38> H 	 -124.543 	 29.0121 	 -109.995
| 39> H 	 -120.477 	 32.2644 	 -116.525
| 40> H 	 -125.693 	 35.5594 	 -111.127
| 41> *
| 42>
| 43>                          ****END OF INPUT****

CARTESIAN COORDINATES (ANGSTROEM)
---------------------------------
  S    -122.613000   32.250700  -115.116000
  C    -120.882000   32.351500  -115.517000
  C    -120.194000   32.461600  -114.330000
  C    -121.080000   32.772600  -113.188000
  C    -122.427000   32.741700  -113.456000
  H    -120.748000   33.104700  -112.229000
  C    -118.653000   32.648700  -114.142000
  H    -118.458000   32.263900  -113.153000
  H    -118.554000   33.657200  -114.075000
  C    -117.804000   31.952000  -115.278000
  H    -118.170000   32.371300  -116.201000
  H    -116.745000   32.165200  -115.211000
  C    -118.030000   30.445200  -115.354000
  H    -117.403000   29.929800  -114.635000
  H    -119.124000   30.316600  -115.286000
  H    -117.792000   30.022300  -116.350000
  S    -124.404000   34.496000  -113.038000
  C    -125.153000   34.599300  -111.437000
  C    -124.531000   33.816700  -110.508000
  C    -123.620000   32.917100  -111.109000
  C    -123.445000   33.147300  -112.490000
  H    -124.743000   33.874700  -109.449000
  C    -122.829000   31.944700  -110.327000
  H    -123.062000   32.304100  -109.321000
  H    -121.737000   32.189900  -110.323000
  C    -123.030000   30.487600  -110.575000
  H    -122.207000   29.827300  -110.136000
  H    -123.062000   30.240400  -111.610000
  C    -124.384000   30.107100  -109.982000
  H    -125.268000   30.582500  -110.467000
  H    -124.354000   30.314100  -108.927000
  H    -124.543000   29.012100  -109.995000
  H    -120.477000   32.264400  -116.525000
  H    -125.693000   35.559400  -111.127000

 Total Charge           Charge          ....    0
 Multiplicity           Mult            ....    1
 Number of Electrons    NEL             ....  134
 Basis Dimension        Dim             ....  322

ORBITAL ENERGIES
----------------

  NO   OCC          E(Eh)            E(eV)
   0   2.0000     -88.967926     -2420.9403
   1   2.0000     -88.962592     -2420.7952
   2   2.0000     -10.330566      -281.1090
   3   2.0000     -10.330399      -281.1045
   4   2.0000     -10.322063      -280.8776
   5   2.0000     -10.319935      -280.8197
   6   2.0000     -10.309052      -280.5236
   7   2.0000     -10.304843      -280.4090
   8   2.0000     -10.296806      -280.1903
   9   2.0000     -10.293113      -280.0898
  10   2.0000     -10.290681      -280.0237
  11   2.0000     -10.288786      -279.9721
  12   2.0000     -10.288370      -279.9608
  13   2.0000     -10.284679      -279.8603
  14   2.0000     -10.276348      -279.6336
  15   2.0000     -10.273152      -279.5467
  16   2.0000      -8.082618      -219.9392
  17   2.0000      -8.077074      -219.7883
  18   2.0000      -6.040991      -164.3837
  19   2.0000      -6.037152      -164.2792
  20   2.0000      -6.035879      -164.2446
  21   2.0000      -6.033474      -164.1792
  22   2.0000      -6.031549      -164.1268
  23   2.0000      -6.027567      -164.0184
  24   2.0000      -1.008038       -27.4301
  25   2.0000      -0.983870       -26.7725
  26   2.0000      -0.917651       -24.9706
  27   2.0000      -0.908870       -24.7316
  28   2.0000      -0.872021       -23.7289
  29   2.0000      -0.851017       -23.1573
  30   2.0000      -0.842060       -22.9136
  31   2.0000      -0.813576       -22.1385
  32   2.0000      -0.781860       -21.2755
  33   2.0000      -0.771323       -20.9888
  34   2.0000      -0.712296       -19.3826
  35   2.0000      -0.703054       -19.1311
  36   2.0000      -0.686953       -18.6930
  37   2.0000      -0.665059       -18.0972
  38   2.0000      -0.641425       -17.4541
  39   2.0000      -0.607730       -16.5372
  40   2.0000      -0.593304       -16.1446
  41   2.0000      -0.578839       -15.7510
  42   2.0000      -0.557797       -15.1784
  43   2.0000      -0.555575       -15.1180
  44   2.0000      -0.545136       -14.8339
  45   2.0000      -0.539189       -14.6721
  46   2.0000      -0.519553       -14.1378
  47   2.0000      -0.515416       -14.0252
  48   2.0000      -0.501374       -13.6431
  49   2.0000      -0.488487       -13.2924
  50   2.0000      -0.485022       -13.1981
  51   2.0000      -0.479501       -13.0479
  52   2.0000      -0.474093       -12.9007
  53   2.0000      -0.463871       -12.6226
  54   2.0000      -0.458459       -12.4753
  55   2.0000      -0.445101       -12.1118
  56   2.0000      -0.443345       -12.0640
  57   2.0000      -0.439177       -11.9506
  58   2.0000      -0.436348       -11.8736
  59   2.0000      -0.422218       -11.4891
  60   2.0000      -0.416677       -11.3384
  61   2.0000      -0.412490       -11.2244
  62   2.0000      -0.408039       -11.1033
  63   2.0000      -0.350017        -9.5245
  64   2.0000      -0.331772        -9.0280
  65   2.0000      -0.323639        -8.8067
  66   2.0000      -0.297100        -8.0845
  67   0.0000       0.024130         0.6566
  68   0.0000       0.067862         1.8466
  69   0.0000       0.104901         2.8545
  70   0.0000       0.115258         3.1363
  71   0.0000       0.131552         3.5797

MULLIKEN ATOMIC CHARGES
-----------------------
   0 S :    0.093078
   1 C :   -0.153294
   2 C :   -0.103829
   3 C :    0.017276
   4 C :   -0.120919
   5 H :    0.001287
   6 C :    0.110662
   7 H :    0.019160
   8 H :    0.024377
   9 C :   -0.064604
  10 H :    0.016663
  11 H :    0.031108
  12 C :   -0.063575
  13 H :    0.038199
  14 H :    0.044271
  15 H :    0.029165
  16 S :    0.107697
  17 C :   -0.104078
  18 C :   -0.043210
  19 C :   -0.061078
  20 C :   -0.152953
  21 H :    0.028370
  22 C :    0.060588
  23 H :   -0.003220
  24 H :    0.030682
  25 C :   -0.029320
  26 H :    0.037676
  27 H :    0.036432
  28 C :   -0.074497
  29 H :    0.055418
  30 H :    0.015073
  31 H :    0.027452
  32 H :    0.066529
  33 H :    0.083417
Sum of atomic charges:    0.0000000

LOEWDIN ATOMIC CHARGES
----------------------
   0 S :    0.384966
   1 C :   -0.195389
   2 C :   -0.055359
   3 C :   -0.063045
   4 C :   -0.204085
   5 H :    0.022659
   6 C :   -0.016572
   7 H :    0.027503
   8 H :    0.021409
   9 C :   -0.037652
  10 H :    0.018700
  11 H :    0.023271
  12 C :   -0.069517
  13 H :    0.024190
  14 H :    0.029898
  15 H :    0.027410
  16 S :    0.415395
  17 C :   -0.194385
  18 C :   -0.069141
  19 C :   -0.056626
  20 C :   -0.192308
  21 H :    0.036151
  22 C :   -0.042811
  23 H :    0.027933
  24 H :    0.033619
  25 C :   -0.039443
  26 H :    0.034859
  27 H :    0.024448
  28 C :   -0.069232
  29 H :    0.032834
  30 H :    0.018065
  31 H :    0.025044
  32 H :    0.033535
  33 H :    0.043676

  Mayer bond orders larger than 0.100000
B(  0-S ,  1-C ) :   1.1152 B(  0-S ,  4-C ) :   1.1327 B(  1-C ,  2-C ) :   1.6144
B(  1-C , 32-H ) :   0.9736 B(  2-C ,  3-C ) :   1.2129 B(  2-C ,  6-C ) :   0.9892
B(  3-C ,  4-C ) :   1.5978 B(  3-C ,  5-H ) :   0.9948 B(  4-C , 20-C ) :   1.0378
B(  6-C ,  7-H ) :   0.9417 B(  6-C ,  8-H ) :   0.9465 B(  6-C ,  9-C ) :   1.0652
B(  9-C , 10-H ) :   0.9538 B(  9-C , 11-H ) :   0.9599 B(  9-C , 12-C ) :   1.0797
B( 12-C , 13-H ) :   0.9772 B( 12-C , 14-H ) :   0.9714 B( 12-C , 15-H ) :   0.9740
B( 16-S , 17-C ) :   1.1584 B( 16-S , 20-C ) :   1.1668 B( 17-C , 18-C ) :   1.6061
B( 17-C , 33-H ) :   0.9504 B( 18-C , 19-C ) :   1.2701 B( 18-C , 21-H ) :   0.9846
B( 19-C , 20-C ) :   1.5572 B( 19-C , 22-C ) :   1.0365 B( 22-C , 23-H ) :   0.9314
B( 22-C , 24-H ) :   0.9259 B( 22-C , 25-C ) :   1.0624 B( 25-C , 26-H ) :   0.9511
B( 25-C , 27-H ) :   0.9573 B( 25-C , 28-C ) :   1.0746 B( 28-C , 29-H ) :   0.9757
B( 28-C , 30-H ) :   0.9752 B( 28-C , 31-H ) :   0.9730

Dispersion correction           -0.014667640
FINAL SINGLE POINT ENERGY     -1339.859892090872

DIPOLE MOMENT
-------------
                                X             Y             Z
Electronic contribution:    -16.46046      14.89687      -8.55272
Nuclear contribution   :     17.08759     -14.76630       9.04323
                        -----------------------------------------
Total Dipole Moment    :      0.62713       0.13058       0.49051
                        -----------------------------------------
Magnitude (a.u.)       :      0.80681
Magnitude (Debye)      :      2.05075

Rotational constants in cm-1:     0.021935     0.008019     0.006789
Rotational constants in MHz :   657.604784   240.398568   203.516704

                             ****ORCA TERMINATED NORMALLY****
TOTAL RUN TIME: 0 days 0 hours 0 minutes 21 seconds 864 msec
