                         Program Version 4.2.1 -  RELEASE  -
|  1> ! wB97X-D3 SP def2-SVP
|  2> %pal
|  3> nprocs 24
|  4> end
|  5>
|  6> * xyz 0 1
|  7> S 	 -103.685 	 45.0262 	 -90.7814
|  8> C 	 -103.554 	 43.3342 	 -91.1717
|  9> C 	 -103.767 	 42.4936 	 -90.0743
| 10> C 	 -104.094 	 43.2944 	 -88.9358
| 11> C 	 -104.097 	 44.6282 	 -89.1405
| 12> H 	 -104.363 	 42.9273 	 -87.9098
| 13> C 	 -103.788 	 41.0045 	 -90.0968
| 14> H 	 -104.35 	 40.7569 	 -90.9743
| 15> H 	 -104.376 	 40.6802 	 -89.1782
| 16> C 	 -102.521 	 40.2651 	 -90.1251
| 17> H 	 -102.838 	 39.2491 	 -90.1199
| 18> H 	 -102.18 	 40.4084 	 -91.1348
| 19> C 	 -101.488 	 40.6214 	 -88.9822
| 20> H 	 -101.274 	 41.6648 	 -88.8314
| 21> H 	 -101.93 	 40.3155 	 -88.0477
| 22> H 	 -100.542 	 40.1832 	 -89.0875
| 23> S 	 -105.306 	 47.1159 	 -88.8052
| 24> C 	 -105.572 	 47.7316 	 -87.2022
| 25> C 	 -104.797 	 46.9792 	 -86.2616
| 26> C 	 -104.258 	 45.7887 	 -86.7503
| 27> C 	 -104.418 	 45.6821 	 -88.1746
| 28> H 	 -104.884 	 47.4829 	 -85.2978
| 29> C 	 -103.591 	 44.8347 	 -85.8778
| 30> H 	 -102.672 	 44.4425 	 -86.4283
| 31> H 	 -104.245 	 43.9785 	 -85.7629
| 32> C 	 -103.172 	 45.2752 	 -84.4663
| 33> H 	 -104.083 	 45.464 	 -83.8249
| 34> H 	 -102.497 	 46.2254 	 -84.4796
| 35> C 	 -102.362 	 44.2532 	 -83.7169
| 36> H 	 -101.437 	 44.1972 	 -84.2462
| 37> H 	 -102.865 	 43.2859 	 -83.6245
| 38> H 	 -102.198 	 44.7271 	 -82.7278
| 39> H 	 -103.335 	 42.8992 	 -92.1166
| 40> H 	 -106.125 	 48.7085 	 -87.0977
| 41> *
| 42>
| 43>                          ****END OF INPUT****

CARTESIAN COORDINATES (ANGSTROEM)
---------------------------------
  S    -103.685000   45.026200  -90.781400
  C    -103.554000   43.334200  -91.171700
  C    -103.767000   42.493600  -90.074300
  C    -104.094000   43.294400  -88.935800
  C    -104.097000   44.628200  -89.140500
  H    -104.363000   42.927300  -87.909800
  C    -103.788000   41.004500  -90.096800
  H    -104.350000   40.756900  -90.974300
  H    -104.376000   40.680200  -89.178200
  C    -102.521000   40.265100  -90.125100
  H    -102.838000   39.249100  -90.119900
  H    -102.180000   40.408400  -91.134800
  C    -101.488000   40.621400  -88.982200
  H    -101.274000   41.664800  -88.831400
  H    -101.930000   40.315500  -88.047700
  H    -100.542000   40.183200  -89.087500
  S    -105.306000   47.115900  -88.805200
  C    -105.572000   47.731600  -87.202200
  C    -104.797000   46.979200  -86.261600
  C    -104.258000   45.788700  -86.750300
  C    -104.418000   45.682100  -88.174600
  H    -104.884000   47.482900  -85.297800
  C    -103.591000   44.834700  -85.877800
  H    -102.672000   44.442500  -86.428300
  H    -104.245000   43.978500  -85.762900
  C    -103.172000   45.275200  -84.466300
  H    -104.083000   45.464000  -83.824900
  H    -102.497000   46.225400  -84.479600
  C    -102.362000   44.253200  -83.716900
  H    -101.437000   44.197200  -84.246200
  H    -102.865000   43.285900  -83.624500
  H    -102.198000   44.727100  -82.727800
  H    -103.335000   42.899200  -92.116600
  H    -106.125000   48.708500  -87.097700

 Total Charge           Charge          ....    0
 Multiplicity           Mult            ....    1
 Number of Electrons    NEL             ....  134
 Basis Dimension        Dim             ....  322

ORBITAL ENERGIES
----------------

  NO   OCC          E(Eh)            E(eV)
   0   2.0000     -88.966601     -2420.9043
   1   2.0000     -88.965459     -2420.8732
   2   2.0000     -10.333111      -281.1782
   3   2.0000     -10.324748      -280.9507
   4   2.0000     -10.323472      -280.9159
   5   2.0000     -10.309853      -280.5454
   6   2.0000     -10.308447      -280.5071
   7   2.0000     -10.298221      -280.2288
   8   2.0000     -10.297256      -280.2026
   9   2.0000     -10.297136      -280.1993
  10   2.0000     -10.294903      -280.1385
  11   2.0000     -10.290996      -280.0322
  12   2.0000     -10.288270      -279.9581
  13   2.0000     -10.282946      -279.8132
  14   2.0000     -10.278446      -279.6907
  15   2.0000     -10.274150      -279.5738
  16   2.0000      -8.081570      -219.9107
  17   2.0000      -8.079527      -219.8551
  18   2.0000      -6.040116      -164.3599
  19   2.0000      -6.037836      -164.2979
  20   2.0000      -6.036144      -164.2518
  21   2.0000      -6.033993      -164.1933
  22   2.0000      -6.032192      -164.1443
  23   2.0000      -6.030695      -164.1035
  24   2.0000      -1.005574       -27.3631
  25   2.0000      -0.981083       -26.6966
  26   2.0000      -0.921665       -25.0798
  27   2.0000      -0.915810       -24.9205
  28   2.0000      -0.864692       -23.5295
  29   2.0000      -0.860307       -23.4101
  30   2.0000      -0.844940       -22.9920
  31   2.0000      -0.811682       -22.0870
  32   2.0000      -0.789564       -21.4851
  33   2.0000      -0.773719       -21.0540
  34   2.0000      -0.712251       -19.3813
  35   2.0000      -0.698826       -19.0160
  36   2.0000      -0.692329       -18.8392
  37   2.0000      -0.646794       -17.6002
  38   2.0000      -0.632468       -17.2103
  39   2.0000      -0.617564       -16.8048
  40   2.0000      -0.595701       -16.2099
  41   2.0000      -0.577986       -15.7278
  42   2.0000      -0.574528       -15.6337
  43   2.0000      -0.558357       -15.1937
  44   2.0000      -0.546166       -14.8619
  45   2.0000      -0.529516       -14.4089
  46   2.0000      -0.518329       -14.1045
  47   2.0000      -0.504807       -13.7365
  48   2.0000      -0.501534       -13.6474
  49   2.0000      -0.496439       -13.5088
  50   2.0000      -0.491668       -13.3790
  51   2.0000      -0.477445       -12.9919
  52   2.0000      -0.470709       -12.8086
  53   2.0000      -0.464800       -12.6479
  54   2.0000      -0.460403       -12.5282
  55   2.0000      -0.446070       -12.1382
  56   2.0000      -0.445737       -12.1291
  57   2.0000      -0.441975       -12.0268
  58   2.0000      -0.428256       -11.6534
  59   2.0000      -0.426013       -11.5924
  60   2.0000      -0.421128       -11.4595
  61   2.0000      -0.418806       -11.3963
  62   2.0000      -0.411007       -11.1841
  63   2.0000      -0.351379        -9.5615
  64   2.0000      -0.332995        -9.0613
  65   2.0000      -0.329443        -8.9646
  66   2.0000      -0.277784        -7.5589
  67   0.0000       0.021717         0.5909
  68   0.0000       0.071571         1.9475
  69   0.0000       0.107380         2.9220
  70   0.0000       0.124378         3.3845
  71   0.0000       0.130717         3.5570

MULLIKEN ATOMIC CHARGES
-----------------------
   0 S :    0.115083
   1 C :   -0.100627
   2 C :   -0.088851
   3 C :   -0.030297
   4 C :   -0.117616
   5 H :    0.014756
   6 C :    0.035413
   7 H :    0.027261
   8 H :    0.025992
   9 C :   -0.016659
  10 H :    0.022496
  11 H :    0.009342
  12 C :   -0.021684
  13 H :    0.036597
  14 H :    0.017142
  15 H :    0.026537
  16 S :    0.096101
  17 C :   -0.142594
  18 C :   -0.066164
  19 C :    0.018513
  20 C :   -0.143428
  21 H :    0.031621
  22 C :    0.026837
  23 H :    0.042941
  24 H :    0.039602
  25 C :   -0.146937
  26 H :    0.038781
  27 H :    0.046315
  28 C :   -0.010206
  29 H :    0.027004
  30 H :    0.035191
  31 H :    0.039517
  32 H :    0.025486
  33 H :    0.086535
Sum of atomic charges:   -0.0000000

LOEWDIN ATOMIC CHARGES
----------------------
   0 S :    0.410232
   1 C :   -0.197522
   2 C :   -0.059883
   3 C :   -0.076809
   4 C :   -0.197066
   5 H :    0.036006
   6 C :   -0.037153
   7 H :    0.033965
   8 H :    0.033622
   9 C :   -0.034450
  10 H :    0.025063
  11 H :    0.018874
  12 C :   -0.057918
  13 H :    0.028057
  14 H :    0.024300
  15 H :    0.020854
  16 S :    0.396640
  17 C :   -0.202292
  18 C :   -0.078598
  19 C :   -0.056731
  20 C :   -0.184635
  21 H :    0.037893
  22 C :   -0.046286
  23 H :    0.042359
  24 H :    0.033933
  25 C :   -0.051331
  26 H :    0.026334
  27 H :    0.034475
  28 C :   -0.060788
  29 H :    0.021090
  30 H :    0.024242
  31 H :    0.034033
  32 H :    0.019580
  33 H :    0.039909

  Mayer bond orders larger than 0.100000
B(  0-S ,  1-C ) :   1.1358 B(  0-S ,  4-C ) :   1.1374 B(  1-C ,  2-C ) :   1.6139
B(  1-C , 32-H ) :   0.9684 B(  2-C ,  3-C ) :   1.2309 B(  2-C ,  6-C ) :   1.0133
B(  3-C ,  4-C ) :   1.5988 B(  3-C ,  5-H ) :   0.9846 B(  4-C , 20-C ) :   1.0592
B(  6-C ,  7-H ) :   0.9330 B(  6-C ,  8-H ) :   0.9407 B(  6-C ,  9-C ) :   1.0910
B(  9-C , 10-H ) :   0.9512 B(  9-C , 11-H ) :   0.9518 B(  9-C , 12-C ) :   1.0587
B( 12-C , 13-H ) :   0.9764 B( 12-C , 14-H ) :   0.9747 B( 12-C , 15-H ) :   0.9773
B( 16-S , 17-C ) :   1.1885 B( 16-S , 20-C ) :   1.1544 B( 17-C , 18-C ) :   1.5354
B( 17-C , 20-C ) :   0.1259 B( 17-C , 33-H ) :   0.9593 B( 18-C , 19-C ) :   1.2733
B( 18-C , 21-H ) :   0.9953 B( 19-C , 20-C ) :   1.5147 B( 19-C , 22-C ) :   1.0534
B( 22-C , 23-H ) :   0.9311 B( 22-C , 24-H ) :   0.9081 B( 22-C , 25-C ) :   1.0889
B( 25-C , 26-H ) :   0.9418 B( 25-C , 27-H ) :   0.9541 B( 25-C , 28-C ) :   1.0864
B( 28-C , 29-H ) :   0.9742 B( 28-C , 30-H ) :   0.9719 B( 28-C , 31-H ) :   0.9709

Dispersion correction           -0.013876500
FINAL SINGLE POINT ENERGY     -1339.865233442536

DIPOLE MOMENT
-------------
                                X             Y             Z
Electronic contribution:    -12.16099      21.27962     -17.91598
Nuclear contribution   :     12.27263     -21.73184      18.41645
                        -----------------------------------------
Total Dipole Moment    :      0.11163      -0.45222       0.50046
                        -----------------------------------------
Magnitude (a.u.)       :      0.68369
Magnitude (Debye)      :      1.73779

Rotational constants in cm-1:     0.016716     0.009363     0.006322
Rotational constants in MHz :   501.147612   280.691585   189.541511

                             ****ORCA TERMINATED NORMALLY****
TOTAL RUN TIME: 0 days 0 hours 0 minutes 21 seconds 557 msec
