                         Program Version 4.2.1 -  RELEASE  -
|  1> ! wB97X-D3 SP def2-SVP
|  2> %pal
|  3> nprocs 24
|  4> end
|  5>
|  6> * xyz 0 1
|  7> S 	 -44.5533 	 22.02 	 22.1034
|  8> C 	 -44.5517 	 21.2297 	 20.4933
|  9> C 	 -45.1359 	 19.9628 	 20.5503
| 10> C 	 -45.6635 	 19.6617 	 21.8185
| 11> C 	 -45.3367 	 20.6204 	 22.8179
| 12> H 	 -46.2752 	 18.8264 	 22.1947
| 13> C 	 -45.203 	 19.0216 	 19.4039
| 14> H 	 -44.3296 	 19.0969 	 18.7608
| 15> H 	 -46.0716 	 19.4538 	 18.8908
| 16> C 	 -45.4378 	 17.5397 	 19.6314
| 17> H 	 -46.241 	 17.3123 	 20.3537
| 18> H 	 -45.6573 	 17.0144 	 18.7523
| 19> C 	 -44.0809 	 16.919 	 20.1874
| 20> H 	 -43.9198 	 17.26 	 21.2517
| 21> H 	 -44.0178 	 15.8298 	 20.1213
| 22> H 	 -43.114 	 17.2114 	 19.6369
| 23> S 	 -47.2726 	 19.8583 	 24.7355
| 24> C 	 -46.9385 	 20.0165 	 26.4304
| 25> C 	 -45.6961 	 20.6672 	 26.5634
| 26> C 	 -44.9287 	 20.8396 	 25.3374
| 27> C 	 -45.7051 	 20.5259 	 24.2465
| 28> H 	 -45.3467 	 21.1328 	 27.4825
| 29> C 	 -43.5083 	 21.3835 	 25.332
| 30> H 	 -43.4692 	 22.3204 	 24.7981
| 31> H 	 -42.9315 	 20.7706 	 24.6571
| 32> C 	 -42.8183 	 21.542 	 26.6848
| 33> H 	 -43.409 	 22.1707 	 27.4395
| 34> H 	 -41.9127 	 22.1026 	 26.6539
| 35> C 	 -42.5473 	 20.146 	 27.2266
| 36> H 	 -42.2253 	 20.2684 	 28.241
| 37> H 	 -41.866 	 19.5871 	 26.5534
| 38> H 	 -43.426 	 19.5724 	 27.3698
| 39> H 	 -44.1172 	 21.609 	 19.591
| 40> H 	 -47.5799 	 19.8041 	 27.2881
| 41> *
| 42>
| 43>                          ****END OF INPUT****

CARTESIAN COORDINATES (ANGSTROEM)
---------------------------------
  S    -44.553300   22.020000   22.103400
  C    -44.551700   21.229700   20.493300
  C    -45.135900   19.962800   20.550300
  C    -45.663500   19.661700   21.818500
  C    -45.336700   20.620400   22.817900
  H    -46.275200   18.826400   22.194700
  C    -45.203000   19.021600   19.403900
  H    -44.329600   19.096900   18.760800
  H    -46.071600   19.453800   18.890800
  C    -45.437800   17.539700   19.631400
  H    -46.241000   17.312300   20.353700
  H    -45.657300   17.014400   18.752300
  C    -44.080900   16.919000   20.187400
  H    -43.919800   17.260000   21.251700
  H    -44.017800   15.829800   20.121300
  H    -43.114000   17.211400   19.636900
  S    -47.272600   19.858300   24.735500
  C    -46.938500   20.016500   26.430400
  C    -45.696100   20.667200   26.563400
  C    -44.928700   20.839600   25.337400
  C    -45.705100   20.525900   24.246500
  H    -45.346700   21.132800   27.482500
  C    -43.508300   21.383500   25.332000
  H    -43.469200   22.320400   24.798100
  H    -42.931500   20.770600   24.657100
  C    -42.818300   21.542000   26.684800
  H    -43.409000   22.170700   27.439500
  H    -41.912700   22.102600   26.653900
  C    -42.547300   20.146000   27.226600
  H    -42.225300   20.268400   28.241000
  H    -41.866000   19.587100   26.553400
  H    -43.426000   19.572400   27.369800
  H    -44.117200   21.609000   19.591000
  H    -47.579900   19.804100   27.288100

 Total Charge           Charge          ....    0
 Multiplicity           Mult            ....    1
 Number of Electrons    NEL             ....  134
 Basis Dimension        Dim             ....  322

ORBITAL ENERGIES
----------------

  NO   OCC          E(Eh)            E(eV)
   0   2.0000     -88.972276     -2421.0587
   1   2.0000     -88.968272     -2420.9498
   2   2.0000     -10.334706      -281.2216
   3   2.0000     -10.328425      -281.0507
   4   2.0000     -10.322001      -280.8759
   5   2.0000     -10.314564      -280.6736
   6   2.0000     -10.304199      -280.3915
   7   2.0000     -10.303849      -280.3820
   8   2.0000     -10.297120      -280.1989
   9   2.0000     -10.296749      -280.1888
  10   2.0000     -10.290980      -280.0318
  11   2.0000     -10.290654      -280.0229
  12   2.0000     -10.289849      -280.0010
  13   2.0000     -10.289632      -279.9951
  14   2.0000     -10.286146      -279.9003
  15   2.0000     -10.269024      -279.4343
  16   2.0000      -8.085288      -220.0119
  17   2.0000      -8.082353      -219.9320
  18   2.0000      -6.043929      -164.4637
  19   2.0000      -6.041046      -164.3852
  20   2.0000      -6.039979      -164.3562
  21   2.0000      -6.036906      -164.2726
  22   2.0000      -6.036087      -164.2503
  23   2.0000      -6.033010      -164.1665
  24   2.0000      -1.001203       -27.2441
  25   2.0000      -0.980137       -26.6709
  26   2.0000      -0.914641       -24.8886
  27   2.0000      -0.913016       -24.8444
  28   2.0000      -0.865155       -23.5421
  29   2.0000      -0.845724       -23.0133
  30   2.0000      -0.841408       -22.8959
  31   2.0000      -0.808483       -21.9999
  32   2.0000      -0.784359       -21.3435
  33   2.0000      -0.770985       -20.9796
  34   2.0000      -0.710348       -19.3296
  35   2.0000      -0.704863       -19.1803
  36   2.0000      -0.692802       -18.8521
  37   2.0000      -0.663248       -18.0479
  38   2.0000      -0.629694       -17.1349
  39   2.0000      -0.615906       -16.7596
  40   2.0000      -0.601141       -16.3579
  41   2.0000      -0.567508       -15.4427
  42   2.0000      -0.557988       -15.1836
  43   2.0000      -0.557818       -15.1790
  44   2.0000      -0.535257       -14.5651
  45   2.0000      -0.532408       -14.4876
  46   2.0000      -0.519149       -14.1268
  47   2.0000      -0.516448       -14.0533
  48   2.0000      -0.497260       -13.5311
  49   2.0000      -0.492502       -13.4016
  50   2.0000      -0.489857       -13.3297
  51   2.0000      -0.477771       -13.0008
  52   2.0000      -0.467131       -12.7113
  53   2.0000      -0.463622       -12.6158
  54   2.0000      -0.458664       -12.4809
  55   2.0000      -0.451915       -12.2972
  56   2.0000      -0.443731       -12.0745
  57   2.0000      -0.437189       -11.8965
  58   2.0000      -0.433110       -11.7855
  59   2.0000      -0.429607       -11.6902
  60   2.0000      -0.418503       -11.3880
  61   2.0000      -0.414788       -11.2870
  62   2.0000      -0.412403       -11.2221
  63   2.0000      -0.344884        -9.3848
  64   2.0000      -0.330620        -8.9966
  65   2.0000      -0.325365        -8.8536
  66   2.0000      -0.285724        -7.7749
  67   0.0000       0.021791         0.5930
  68   0.0000       0.074413         2.0249
  69   0.0000       0.111318         3.0291
  70   0.0000       0.113907         3.0996
  71   0.0000       0.127864         3.4794

MULLIKEN ATOMIC CHARGES
-----------------------
   0 S :    0.110908
   1 C :   -0.124765
   2 C :   -0.067304
   3 C :   -0.007008
   4 C :   -0.168507
   5 H :    0.023663
   6 C :    0.054406
   7 H :    0.029371
   8 H :    0.049155
   9 C :   -0.026377
  10 H :    0.038744
  11 H :    0.021506
  12 C :   -0.123914
  13 H :    0.052246
  14 H :    0.036350
  15 H :    0.034378
  16 S :    0.108241
  17 C :   -0.092942
  18 C :   -0.043362
  19 C :   -0.081445
  20 C :   -0.129862
  21 H :    0.022362
  22 C :    0.095253
  23 H :    0.030160
  24 H :    0.025847
  25 C :   -0.083771
  26 H :    0.033086
  27 H :    0.023229
  28 C :   -0.031253
  29 H :    0.019257
  30 H :    0.040387
  31 H :    0.026528
  32 H :    0.036364
  33 H :    0.069069
Sum of atomic charges:    0.0000000

LOEWDIN ATOMIC CHARGES
----------------------
   0 S :    0.402738
   1 C :   -0.194618
   2 C :   -0.056689
   3 C :   -0.073458
   4 C :   -0.185432
   5 H :    0.031830
   6 C :   -0.036312
   7 H :    0.032431
   8 H :    0.043119
   9 C :   -0.033179
  10 H :    0.028489
  11 H :    0.020412
  12 C :   -0.081254
  13 H :    0.031440
  14 H :    0.021372
  15 H :    0.029975
  16 S :    0.406223
  17 C :   -0.201964
  18 C :   -0.070225
  19 C :   -0.054411
  20 C :   -0.194750
  21 H :    0.027174
  22 C :   -0.037152
  23 H :    0.026696
  24 H :    0.033742
  25 C :   -0.042651
  26 H :    0.028757
  27 H :    0.023273
  28 C :   -0.062725
  29 H :    0.023001
  30 H :    0.031157
  31 H :    0.019771
  32 H :    0.024438
  33 H :    0.038781

  Mayer bond orders larger than 0.100000
B(  0-S ,  1-C ) :   1.1241 B(  0-S ,  4-C ) :   1.1649 B(  1-C ,  2-C ) :   1.5982
B(  1-C ,  4-C ) :   0.1084 B(  1-C , 32-H ) :   0.9728 B(  2-C ,  3-C ) :   1.2541
B(  2-C ,  6-C ) :   1.0024 B(  3-C ,  4-C ) :   1.5428 B(  3-C ,  5-H ) :   0.9837
B(  4-C , 20-C ) :   1.0484 B(  6-C ,  7-H ) :   0.9475 B(  6-C ,  8-H ) :   0.9249
B(  6-C ,  9-C ) :   1.0939 B(  9-C , 10-H ) :   0.9489 B(  9-C , 11-H ) :   0.9524
B(  9-C , 12-C ) :   1.0599 B( 12-C , 13-H ) :   0.9770 B( 12-C , 14-H ) :   0.9789
B( 12-C , 15-H ) :   0.9761 B( 16-S , 17-C ) :   1.1499 B( 16-S , 20-C ) :   1.1302
B( 17-C , 18-C ) :   1.5944 B( 17-C , 33-H ) :   0.9660 B( 18-C , 19-C ) :   1.2597
B( 18-C , 21-H ) :   0.9707 B( 19-C , 20-C ) :   1.5972 B( 19-C , 22-C ) :   1.0250
B( 22-C , 23-H ) :   0.9221 B( 22-C , 24-H ) :   0.9232 B( 22-C , 25-C ) :   1.0850
B( 25-C , 26-H ) :   0.9494 B( 25-C , 27-H ) :   0.9492 B( 25-C , 28-C ) :   1.0747
B( 28-C , 29-H ) :   0.9688 B( 28-C , 30-H ) :   0.9724 B( 28-C , 31-H ) :   0.9749

Dispersion correction           -0.014413616
FINAL SINGLE POINT ENERGY     -1339.870204811839

DIPOLE MOMENT
-------------
                                X             Y             Z
Electronic contribution:    -14.03136      11.54525       0.34549
Nuclear contribution   :     14.27533     -11.69761      -0.39034
                        -----------------------------------------
Total Dipole Moment    :      0.24397      -0.15236      -0.04484
                        -----------------------------------------
Magnitude (a.u.)       :      0.29111
Magnitude (Debye)      :      0.73995

Rotational constants in cm-1:     0.020171     0.007908     0.007269
Rotational constants in MHz :   604.717207   237.088559   217.919694

                             ****ORCA TERMINATED NORMALLY****
TOTAL RUN TIME: 0 days 0 hours 0 minutes 20 seconds 465 msec
