                         Program Version 4.2.1 -  RELEASE  -
|  1> ! wB97X-D3 SP def2-SVP
|  2> %pal
|  3> nprocs 24
|  4> end
|  5>
|  6> * xyz 0 1
|  7> S 	 -105.667 	 3.91132 	 -111.479
|  8> C 	 -107.004 	 4.76726 	 -112.253
|  9> C 	 -107.357 	 4.18155 	 -113.47
| 10> C 	 -106.367 	 3.15163 	 -113.848
| 11> C 	 -105.383 	 2.88174 	 -112.896
| 12> H 	 -106.253 	 2.82346 	 -114.888
| 13> C 	 -108.382 	 4.68244 	 -114.506
| 14> H 	 -108.693 	 5.6283 	 -114.048
| 15> H 	 -109.217 	 3.9934 	 -114.524
| 16> C 	 -107.917 	 4.99227 	 -115.961
| 17> H 	 -107.018 	 5.69482 	 -116.115
| 18> H 	 -107.655 	 4.06063 	 -116.52
| 19> C 	 -109.07 	 5.58749 	 -116.682
| 20> H 	 -109.577 	 6.34502 	 -116.118
| 21> H 	 -108.716 	 5.92177 	 -117.689
| 22> H 	 -109.868 	 4.81998 	 -116.899
| 23> S 	 -102.75 	 2.85852 	 -113.315
| 24> C 	 -101.899 	 1.37843 	 -113.785
| 25> C 	 -102.78 	 0.304409 	 -113.758
| 26> C 	 -104.107 	 0.68507 	 -113.431
| 27> C 	 -104.24 	 2.03304 	 -113.122
| 28> H 	 -102.509 	 -0.710194 	 -113.932
| 29> C 	 -105.221 	 -0.216097 	 -113.283
| 30> H 	 -105.181 	 -1.00147 	 -114.038
| 31> H 	 -106.202 	 0.320782 	 -113.511
| 32> C 	 -105.358 	 -0.898068 	 -111.88
| 33> H 	 -105.407 	 -0.10938 	 -111.096
| 34> H 	 -104.445 	 -1.36281 	 -111.665
| 35> C 	 -106.638 	 -1.83149 	 -111.669
| 36> H 	 -107.623 	 -1.29509 	 -111.837
| 37> H 	 -106.66 	 -2.30469 	 -110.724
| 38> H 	 -106.624 	 -2.63903 	 -112.385
| 39> H 	 -107.633 	 5.47658 	 -111.728
| 40> H 	 -100.872 	 1.25043 	 -113.964
| 41> *
| 42>
| 43>                          ****END OF INPUT****

CARTESIAN COORDINATES (ANGSTROEM)
---------------------------------
  S    -105.667000    3.911320  -111.479000
  C    -107.004000    4.767260  -112.253000
  C    -107.357000    4.181550  -113.470000
  C    -106.367000    3.151630  -113.848000
  C    -105.383000    2.881740  -112.896000
  H    -106.253000    2.823460  -114.888000
  C    -108.382000    4.682440  -114.506000
  H    -108.693000    5.628300  -114.048000
  H    -109.217000    3.993400  -114.524000
  C    -107.917000    4.992270  -115.961000
  H    -107.018000    5.694820  -116.115000
  H    -107.655000    4.060630  -116.520000
  C    -109.070000    5.587490  -116.682000
  H    -109.577000    6.345020  -116.118000
  H    -108.716000    5.921770  -117.689000
  H    -109.868000    4.819980  -116.899000
  S    -102.750000    2.858520  -113.315000
  C    -101.899000    1.378430  -113.785000
  C    -102.780000    0.304409  -113.758000
  C    -104.107000    0.685070  -113.431000
  C    -104.240000    2.033040  -113.122000
  H    -102.509000   -0.710194  -113.932000
  C    -105.221000   -0.216097  -113.283000
  H    -105.181000   -1.001470  -114.038000
  H    -106.202000    0.320782  -113.511000
  C    -105.358000   -0.898068  -111.880000
  H    -105.407000   -0.109380  -111.096000
  H    -104.445000   -1.362810  -111.665000
  C    -106.638000   -1.831490  -111.669000
  H    -107.623000   -1.295090  -111.837000
  H    -106.660000   -2.304690  -110.724000
  H    -106.624000   -2.639030  -112.385000
  H    -107.633000    5.476580  -111.728000
  H    -100.872000    1.250430  -113.964000

 Total Charge           Charge          ....    0
 Multiplicity           Mult            ....    1
 Number of Electrons    NEL             ....  134
 Basis Dimension        Dim             ....  322

ORBITAL ENERGIES
----------------

  NO   OCC          E(Eh)            E(eV)
   0   2.0000     -88.967213     -2420.9209
   1   2.0000     -88.965239     -2420.8672
   2   2.0000     -10.332051      -281.1494
   3   2.0000     -10.320859      -280.8449
   4   2.0000     -10.320022      -280.8221
   5   2.0000     -10.317369      -280.7499
   6   2.0000     -10.308163      -280.4994
   7   2.0000     -10.300273      -280.2847
   8   2.0000     -10.297706      -280.2148
   9   2.0000     -10.297643      -280.2131
  10   2.0000     -10.296311      -280.1769
  11   2.0000     -10.293278      -280.0943
  12   2.0000     -10.286887      -279.9204
  13   2.0000     -10.286399      -279.9072
  14   2.0000     -10.281047      -279.7615
  15   2.0000     -10.280198      -279.7384
  16   2.0000      -8.081117      -219.8984
  17   2.0000      -8.080234      -219.8743
  18   2.0000      -6.039786      -164.3509
  19   2.0000      -6.038768      -164.3232
  20   2.0000      -6.035651      -164.2384
  21   2.0000      -6.034513      -164.2075
  22   2.0000      -6.031832      -164.1345
  23   2.0000      -6.031126      -164.1153
  24   2.0000      -1.007248       -27.4086
  25   2.0000      -0.978006       -26.6129
  26   2.0000      -0.913152       -24.8481
  27   2.0000      -0.903769       -24.5928
  28   2.0000      -0.874674       -23.8011
  29   2.0000      -0.845861       -23.0170
  30   2.0000      -0.844434       -22.9782
  31   2.0000      -0.813770       -22.1438
  32   2.0000      -0.776488       -21.1293
  33   2.0000      -0.767034       -20.8721
  34   2.0000      -0.709574       -19.3085
  35   2.0000      -0.699876       -19.0446
  36   2.0000      -0.692282       -18.8380
  37   2.0000      -0.668783       -18.1985
  38   2.0000      -0.638912       -17.3857
  39   2.0000      -0.615244       -16.7417
  40   2.0000      -0.596145       -16.2219
  41   2.0000      -0.571512       -15.5516
  42   2.0000      -0.565755       -15.3950
  43   2.0000      -0.552471       -15.0335
  44   2.0000      -0.530458       -14.4345
  45   2.0000      -0.519753       -14.1432
  46   2.0000      -0.513998       -13.9866
  47   2.0000      -0.507528       -13.8105
  48   2.0000      -0.504678       -13.7330
  49   2.0000      -0.500662       -13.6237
  50   2.0000      -0.495916       -13.4946
  51   2.0000      -0.475413       -12.9366
  52   2.0000      -0.468436       -12.7468
  53   2.0000      -0.465281       -12.6609
  54   2.0000      -0.454567       -12.3694
  55   2.0000      -0.448630       -12.2078
  56   2.0000      -0.442728       -12.0472
  57   2.0000      -0.434533       -11.8243
  58   2.0000      -0.432486       -11.7686
  59   2.0000      -0.427863       -11.6428
  60   2.0000      -0.418802       -11.3962
  61   2.0000      -0.415606       -11.3092
  62   2.0000      -0.409690       -11.1482
  63   2.0000      -0.343769        -9.3544
  64   2.0000      -0.326367        -8.8809
  65   2.0000      -0.325566        -8.8591
  66   2.0000      -0.298697        -8.1280
  67   0.0000       0.032712         0.8902
  68   0.0000       0.062956         1.7131
  69   0.0000       0.117350         3.1933
  70   0.0000       0.121823         3.3150
  71   0.0000       0.126283         3.4363

MULLIKEN ATOMIC CHARGES
-----------------------
   0 S :    0.105467
   1 C :   -0.121497
   2 C :   -0.089930
   3 C :    0.031781
   4 C :   -0.163704
   5 H :    0.031015
   6 C :    0.053080
   7 H :    0.018478
   8 H :    0.041606
   9 C :   -0.101388
  10 H :    0.054116
  11 H :    0.037736
  12 C :   -0.056502
  13 H :    0.026771
  14 H :    0.040506
  15 H :    0.029239
  16 S :    0.118450
  17 C :   -0.071959
  18 C :   -0.016474
  19 C :   -0.029629
  20 C :   -0.160886
  21 H :    0.006203
  22 C :    0.039868
  23 H :    0.011931
  24 H :    0.032663
  25 C :   -0.051054
  26 H :    0.026993
  27 H :    0.007504
  28 C :   -0.042287
  29 H :    0.043887
  30 H :    0.031607
  31 H :    0.019901
  32 H :    0.055546
  33 H :    0.040961
Sum of atomic charges:    0.0000000

LOEWDIN ATOMIC CHARGES
----------------------
   0 S :    0.387943
   1 C :   -0.194217
   2 C :   -0.062610
   3 C :   -0.059353
   4 C :   -0.197199
   5 H :    0.033185
   6 C :   -0.030503
   7 H :    0.031022
   8 H :    0.034139
   9 C :   -0.051349
  10 H :    0.036913
  11 H :    0.027145
  12 C :   -0.069362
  13 H :    0.018832
  14 H :    0.031699
  15 H :    0.028118
  16 S :    0.426853
  17 C :   -0.173724
  18 C :   -0.061096
  19 C :   -0.062215
  20 C :   -0.211226
  21 H :    0.027716
  22 C :   -0.042219
  23 H :    0.025267
  24 H :    0.038626
  25 C :   -0.031225
  26 H :    0.026663
  27 H :    0.012504
  28 C :   -0.065619
  29 H :    0.034459
  30 H :    0.021682
  31 H :    0.019147
  32 H :    0.028526
  33 H :    0.021475

  Mayer bond orders larger than 0.100000
B(  0-S ,  1-C ) :   1.1312 B(  0-S ,  4-C ) :   1.1307 B(  1-C ,  2-C ) :   1.6379
B(  1-C , 32-H ) :   0.9611 B(  2-C ,  3-C ) :   1.2188 B(  2-C ,  6-C ) :   1.0183
B(  3-C ,  4-C ) :   1.6064 B(  3-C ,  5-H ) :   0.9790 B(  4-C , 20-C ) :   1.0234
B(  6-C ,  7-H ) :   0.9488 B(  6-C ,  8-H ) :   0.9348 B(  6-C ,  9-C ) :   1.0618
B(  9-C , 10-H ) :   0.9589 B(  9-C , 11-H ) :   0.9455 B(  9-C , 12-C ) :   1.0871
B( 12-C , 13-H ) :   0.9745 B( 12-C , 14-H ) :   0.9712 B( 12-C , 15-H ) :   0.9719
B( 16-S , 17-C ) :   1.1623 B( 16-S , 20-C ) :   1.1587 B( 17-C , 18-C ) :   1.5747
B( 17-C , 20-C ) :   0.1038 B( 17-C , 33-H ) :   0.9750 B( 18-C , 19-C ) :   1.2658
B( 18-C , 21-H ) :   0.9936 B( 19-C , 20-C ) :   1.5650 B( 19-C , 22-C ) :   1.0871
B( 22-C , 23-H ) :   0.9210 B( 22-C , 24-H ) :   0.9249 B( 22-C , 25-C ) :   1.0534
B( 25-C , 26-H ) :   0.9573 B( 25-C , 27-H ) :   0.9564 B( 25-C , 28-C ) :   1.0691
B( 28-C , 29-H ) :   0.9770 B( 28-C , 30-H ) :   0.9765 B( 28-C , 31-H ) :   0.9771

Dispersion correction           -0.013830890
FINAL SINGLE POINT ENERGY     -1339.874934134196

DIPOLE MOMENT
-------------
                                X             Y             Z
Electronic contribution:     19.89291       8.01500      10.69030
Nuclear contribution   :    -20.23997      -8.24012     -11.12680
                        -----------------------------------------
Total Dipole Moment    :     -0.34706      -0.22512      -0.43650
                        -----------------------------------------
Magnitude (a.u.)       :      0.60139
Magnitude (Debye)      :      1.52861

Rotational constants in cm-1:     0.017281     0.007861     0.007096
Rotational constants in MHz :   518.073779   235.670921   212.725347

                             ****ORCA TERMINATED NORMALLY****
TOTAL RUN TIME: 0 days 0 hours 0 minutes 21 seconds 17 msec
