                         Program Version 4.2.1 -  RELEASE  -
|  1> ! wB97X-D3 SP def2-SVP
|  2> %pal
|  3> nprocs 24
|  4> end
|  5>
|  6> * xyz 0 1
|  7> S 	 -122.25 	 52.9537 	 -35.5341
|  8> C 	 -121.106 	 53.2099 	 -36.8502
|  9> C 	 -121.725 	 53.2066 	 -38.055
| 10> C 	 -123.056 	 52.7198 	 -38.0172
| 11> C 	 -123.453 	 52.4282 	 -36.7423
| 12> H 	 -123.683 	 52.6372 	 -38.8804
| 13> C 	 -121.023 	 53.5564 	 -39.391
| 14> H 	 -121.158 	 52.7863 	 -40.1375
| 15> H 	 -119.996 	 53.4293 	 -39.1635
| 16> C 	 -121.264 	 54.9971 	 -39.9589
| 17> H 	 -120.639 	 55.1619 	 -40.7649
| 18> H 	 -122.225 	 55.0719 	 -40.3567
| 19> C 	 -121.102 	 56.1773 	 -38.9272
| 20> H 	 -121.766 	 56.0407 	 -38.0893
| 21> H 	 -120.078 	 56.4229 	 -38.6055
| 22> H 	 -121.377 	 57.119 	 -39.4261
| 23> S 	 -125.11 	 52.1085 	 -34.5897
| 24> C 	 -126.671 	 51.4031 	 -34.8264
| 25> C 	 -127.009 	 51.3538 	 -36.134
| 26> C 	 -125.919 	 51.5985 	 -36.9925
| 27> C 	 -124.8 	 52.0101 	 -36.3069
| 28> H 	 -127.999 	 51.0721 	 -36.3694
| 29> C 	 -126.145 	 51.6122 	 -38.4757
| 30> H 	 -126.911 	 50.8138 	 -38.375
| 31> H 	 -125.306 	 51.1053 	 -39.0496
| 32> C 	 -126.686 	 52.877 	 -39.1542
| 33> H 	 -126.033 	 53.7638 	 -38.8394
| 34> H 	 -127.686 	 53.1016 	 -38.7386
| 35> C 	 -126.711 	 52.6901 	 -40.6715
| 36> H 	 -125.683 	 52.4206 	 -40.992
| 37> H 	 -126.924 	 53.6454 	 -41.1109
| 38> H 	 -127.474 	 52.0586 	 -41.1262
| 39> H 	 -120.156 	 53.7796 	 -36.7726
| 40> H 	 -127.373 	 51.1475 	 -33.9997
| 41> *
| 42>
| 43>                          ****END OF INPUT****

CARTESIAN COORDINATES (ANGSTROEM)
---------------------------------
  S    -122.250000   52.953700  -35.534100
  C    -121.106000   53.209900  -36.850200
  C    -121.725000   53.206600  -38.055000
  C    -123.056000   52.719800  -38.017200
  C    -123.453000   52.428200  -36.742300
  H    -123.683000   52.637200  -38.880400
  C    -121.023000   53.556400  -39.391000
  H    -121.158000   52.786300  -40.137500
  H    -119.996000   53.429300  -39.163500
  C    -121.264000   54.997100  -39.958900
  H    -120.639000   55.161900  -40.764900
  H    -122.225000   55.071900  -40.356700
  C    -121.102000   56.177300  -38.927200
  H    -121.766000   56.040700  -38.089300
  H    -120.078000   56.422900  -38.605500
  H    -121.377000   57.119000  -39.426100
  S    -125.110000   52.108500  -34.589700
  C    -126.671000   51.403100  -34.826400
  C    -127.009000   51.353800  -36.134000
  C    -125.919000   51.598500  -36.992500
  C    -124.800000   52.010100  -36.306900
  H    -127.999000   51.072100  -36.369400
  C    -126.145000   51.612200  -38.475700
  H    -126.911000   50.813800  -38.375000
  H    -125.306000   51.105300  -39.049600
  C    -126.686000   52.877000  -39.154200
  H    -126.033000   53.763800  -38.839400
  H    -127.686000   53.101600  -38.738600
  C    -126.711000   52.690100  -40.671500
  H    -125.683000   52.420600  -40.992000
  H    -126.924000   53.645400  -41.110900
  H    -127.474000   52.058600  -41.126200
  H    -120.156000   53.779600  -36.772600
  H    -127.373000   51.147500  -33.999700

 Total Charge           Charge          ....    0
 Multiplicity           Mult            ....    1
 Number of Electrons    NEL             ....  134
 Basis Dimension        Dim             ....  322

ORBITAL ENERGIES
----------------

  NO   OCC          E(Eh)            E(eV)
   0   2.0000     -88.966783     -2420.9092
   1   2.0000     -88.963938     -2420.8318
   2   2.0000     -10.333364      -281.1851
   3   2.0000     -10.324971      -280.9567
   4   2.0000     -10.314397      -280.6690
   5   2.0000     -10.310111      -280.5524
   6   2.0000     -10.299302      -280.2583
   7   2.0000     -10.298447      -280.2350
   8   2.0000     -10.296815      -280.1906
   9   2.0000     -10.295177      -280.1460
  10   2.0000     -10.290323      -280.0139
  11   2.0000     -10.288756      -279.9713
  12   2.0000     -10.286018      -279.8968
  13   2.0000     -10.282876      -279.8113
  14   2.0000     -10.282749      -279.8078
  15   2.0000     -10.279062      -279.7075
  16   2.0000      -8.080808      -219.8900
  17   2.0000      -8.079446      -219.8529
  18   2.0000      -6.039536      -164.3441
  19   2.0000      -6.037920      -164.3002
  20   2.0000      -6.035759      -164.2414
  21   2.0000      -6.034009      -164.1937
  22   2.0000      -6.031038      -164.1129
  23   2.0000      -6.030067      -164.0865
  24   2.0000      -1.012014       -27.5383
  25   2.0000      -0.988503       -26.8985
  26   2.0000      -0.912603       -24.8332
  27   2.0000      -0.903711       -24.5912
  28   2.0000      -0.868759       -23.6401
  29   2.0000      -0.858950       -23.3732
  30   2.0000      -0.844382       -22.9768
  31   2.0000      -0.817204       -22.2372
  32   2.0000      -0.783566       -21.3219
  33   2.0000      -0.774333       -21.0707
  34   2.0000      -0.712988       -19.4014
  35   2.0000      -0.704937       -19.1823
  36   2.0000      -0.692650       -18.8480
  37   2.0000      -0.668203       -18.1827
  38   2.0000      -0.630502       -17.1568
  39   2.0000      -0.626639       -17.0517
  40   2.0000      -0.595906       -16.2154
  41   2.0000      -0.567301       -15.4370
  42   2.0000      -0.559625       -15.2282
  43   2.0000      -0.547571       -14.9002
  44   2.0000      -0.540420       -14.7056
  45   2.0000      -0.524680       -14.2773
  46   2.0000      -0.518065       -14.0973
  47   2.0000      -0.515823       -14.0363
  48   2.0000      -0.495540       -13.4843
  49   2.0000      -0.495309       -13.4781
  50   2.0000      -0.487481       -13.2650
  51   2.0000      -0.485063       -13.1992
  52   2.0000      -0.467192       -12.7130
  53   2.0000      -0.463473       -12.6117
  54   2.0000      -0.461913       -12.5693
  55   2.0000      -0.455987       -12.4080
  56   2.0000      -0.445848       -12.1321
  57   2.0000      -0.441057       -12.0018
  58   2.0000      -0.434682       -11.8283
  59   2.0000      -0.428785       -11.6678
  60   2.0000      -0.420928       -11.4540
  61   2.0000      -0.419461       -11.4141
  62   2.0000      -0.406405       -11.0588
  63   2.0000      -0.364111        -9.9080
  64   2.0000      -0.338669        -9.2156
  65   2.0000      -0.326979        -8.8976
  66   2.0000      -0.282714        -7.6931
  67   0.0000       0.018362         0.4996
  68   0.0000       0.080624         2.1939
  69   0.0000       0.091475         2.4892
  70   0.0000       0.126917         3.4536
  71   0.0000       0.127635         3.4731

MULLIKEN ATOMIC CHARGES
-----------------------
   0 S :    0.083122
   1 C :   -0.101684
   2 C :   -0.121116
   3 C :   -0.008904
   4 C :   -0.056851
   5 H :   -0.011999
   6 C :    0.079448
   7 H :    0.025610
   8 H :    0.002595
   9 C :   -0.011000
  10 H :    0.013449
  11 H :    0.013372
  12 C :   -0.079954
  13 H :    0.050204
  14 H :    0.030848
  15 H :    0.027008
  16 S :    0.088794
  17 C :   -0.097032
  18 C :   -0.031072
  19 C :   -0.053381
  20 C :   -0.106131
  21 H :    0.002938
  22 C :   -0.022406
  23 H :    0.025506
  24 H :    0.039906
  25 C :   -0.053714
  26 H :    0.045838
  27 H :    0.028573
  28 C :   -0.026539
  29 H :    0.030155
  30 H :    0.023160
  31 H :    0.042584
  32 H :    0.061076
  33 H :    0.067597
Sum of atomic charges:   -0.0000000

LOEWDIN ATOMIC CHARGES
----------------------
   0 S :    0.373674
   1 C :   -0.203248
   2 C :   -0.060322
   3 C :   -0.066190
   4 C :   -0.160904
   5 H :    0.027258
   6 C :   -0.026838
   7 H :    0.029919
   8 H :    0.024065
   9 C :   -0.025384
  10 H :    0.016154
  11 H :    0.016311
  12 C :   -0.067671
  13 H :    0.025329
  14 H :    0.023999
  15 H :    0.028591
  16 S :    0.403046
  17 C :   -0.188347
  18 C :   -0.072803
  19 C :   -0.066840
  20 C :   -0.187464
  21 H :    0.027391
  22 C :   -0.052116
  23 H :    0.037394
  24 H :    0.033684
  25 C :   -0.042132
  26 H :    0.034403
  27 H :    0.027629
  28 C :   -0.065537
  29 H :    0.027160
  30 H :    0.024867
  31 H :    0.029379
  32 H :    0.037478
  33 H :    0.038063

  Mayer bond orders larger than 0.100000
B(  0-S ,  1-C ) :   1.1059 B(  0-S ,  4-C ) :   1.1330 B(  1-C ,  2-C ) :   1.6679
B(  1-C , 32-H ) :   0.9477 B(  2-C ,  3-C ) :   1.2216 B(  2-C ,  6-C ) :   1.0157
B(  3-C ,  4-C ) :   1.5755 B(  3-C ,  5-H ) :   1.0035 B(  4-C , 20-C ) :   1.0806
B(  6-C ,  7-H ) :   0.9479 B(  6-C ,  8-H ) :   0.9386 B(  6-C ,  9-C ) :   1.0601
B(  9-C , 10-H ) :   0.9561 B(  9-C , 11-H ) :   0.9573 B(  9-C , 12-C ) :   1.0776
B( 12-C , 13-H ) :   0.9750 B( 12-C , 14-H ) :   0.9779 B( 12-C , 15-H ) :   0.9737
B( 16-S , 17-C ) :   1.1553 B( 16-S , 20-C ) :   1.1308 B( 17-C , 18-C ) :   1.6238
B( 17-C , 33-H ) :   0.9609 B( 18-C , 19-C ) :   1.2405 B( 18-C , 21-H ) :   0.9947
B( 19-C , 20-C ) :   1.5925 B( 19-C , 22-C ) :   1.0269 B( 22-C , 23-H ) :   0.9338
B( 22-C , 24-H ) :   0.9334 B( 22-C , 25-C ) :   1.0529 B( 25-C , 26-H ) :   0.9565
B( 25-C , 27-H ) :   0.9480 B( 25-C , 28-C ) :   1.0772 B( 28-C , 29-H ) :   0.9739
B( 28-C , 30-H ) :   0.9703 B( 28-C , 31-H ) :   0.9755

Dispersion correction           -0.014632870
FINAL SINGLE POINT ENERGY     -1339.864728523528

DIPOLE MOMENT
-------------
                                X             Y             Z
Electronic contribution:      0.89068     -10.12129      27.92497
Nuclear contribution   :     -1.26313      10.38689     -28.66019
                        -----------------------------------------
Total Dipole Moment    :     -0.37245       0.26560      -0.73522
                        -----------------------------------------
Magnitude (a.u.)       :      0.86592
Magnitude (Debye)      :      2.20099

Rotational constants in cm-1:     0.017723     0.009869     0.006853
Rotational constants in MHz :   531.329249   295.866040   205.438103

                             ****ORCA TERMINATED NORMALLY****
TOTAL RUN TIME: 0 days 0 hours 0 minutes 20 seconds 946 msec
