                         Program Version 4.2.1 -  RELEASE  -
|  1> ! wB97X-D3 SP def2-SVP
|  2> %pal
|  3> nprocs 24
|  4> end
|  5>
|  6> * xyz 0 1
|  7> S 	 -33.2338 	 -8.17284 	 9.55778
|  8> C 	 -32.0865 	 -7.18324 	 10.4948
|  9> C 	 -32.8301 	 -6.29285 	 11.2568
| 10> C 	 -34.2718 	 -6.43015 	 11.1181
| 11> C 	 -34.6899 	 -7.29689 	 10.1117
| 12> H 	 -35.0466 	 -5.93501 	 11.6866
| 13> C 	 -32.2232 	 -5.24029 	 12.1382
| 14> H 	 -32.5355 	 -4.23932 	 11.6569
| 15> H 	 -31.1169 	 -5.1374 	 12.0163
| 16> C 	 -32.6274 	 -5.17215 	 13.5691
| 17> H 	 -33.6918 	 -4.87212 	 13.6019
| 18> H 	 -32.557 	 -6.19434 	 14.0383
| 19> C 	 -31.7813 	 -4.23102 	 14.479
| 20> H 	 -30.8446 	 -4.7345 	 14.5767
| 21> H 	 -31.717 	 -3.24865 	 14.0021
| 22> H 	 -32.2903 	 -4.1043 	 15.4054
| 23> S 	 -36.4304 	 -9.40676 	 9.66297
| 24> C 	 -38.1033 	 -9.10026 	 9.16871
| 25> C 	 -38.4047 	 -7.74574 	 9.25835
| 26> C 	 -37.2867 	 -6.91297 	 9.75727
| 27> C 	 -36.0919 	 -7.6845 	 9.83535
| 28> H 	 -39.3885 	 -7.36639 	 9.11871
| 29> C 	 -37.3588 	 -5.38742 	 9.77782
| 30> H 	 -37.7971 	 -5.03326 	 8.85316
| 31> H 	 -36.4 	 -4.87044 	 9.82068
| 32> C 	 -38.3562 	 -4.95285 	 10.881
| 33> H 	 -37.6646 	 -5.01112 	 11.7966
| 34> H 	 -39.1255 	 -5.73463 	 10.9645
| 35> C 	 -39.201 	 -3.66076 	 10.7135
| 36> H 	 -38.4835 	 -2.83849 	 10.4945
| 37> H 	 -39.726 	 -3.49915 	 11.6631
| 38> H 	 -39.8737 	 -3.79194 	 9.85349
| 39> H 	 -31.0224 	 -7.18209 	 10.4561
| 40> H 	 -38.767 	 -9.92634 	 8.94472
| 41> *
| 42>
| 43>                          ****END OF INPUT****

CARTESIAN COORDINATES (ANGSTROEM)
---------------------------------
  S    -33.233800   -8.172840    9.557780
  C    -32.086500   -7.183240   10.494800
  C    -32.830100   -6.292850   11.256800
  C    -34.271800   -6.430150   11.118100
  C    -34.689900   -7.296890   10.111700
  H    -35.046600   -5.935010   11.686600
  C    -32.223200   -5.240290   12.138200
  H    -32.535500   -4.239320   11.656900
  H    -31.116900   -5.137400   12.016300
  C    -32.627400   -5.172150   13.569100
  H    -33.691800   -4.872120   13.601900
  H    -32.557000   -6.194340   14.038300
  C    -31.781300   -4.231020   14.479000
  H    -30.844600   -4.734500   14.576700
  H    -31.717000   -3.248650   14.002100
  H    -32.290300   -4.104300   15.405400
  S    -36.430400   -9.406760    9.662970
  C    -38.103300   -9.100260    9.168710
  C    -38.404700   -7.745740    9.258350
  C    -37.286700   -6.912970    9.757270
  C    -36.091900   -7.684500    9.835350
  H    -39.388500   -7.366390    9.118710
  C    -37.358800   -5.387420    9.777820
  H    -37.797100   -5.033260    8.853160
  H    -36.400000   -4.870440    9.820680
  C    -38.356200   -4.952850   10.881000
  H    -37.664600   -5.011120   11.796600
  H    -39.125500   -5.734630   10.964500
  C    -39.201000   -3.660760   10.713500
  H    -38.483500   -2.838490   10.494500
  H    -39.726000   -3.499150   11.663100
  H    -39.873700   -3.791940    9.853490
  H    -31.022400   -7.182090   10.456100
  H    -38.767000   -9.926340    8.944720

 Total Charge           Charge          ....    0
 Multiplicity           Mult            ....    1
 Number of Electrons    NEL             ....  134
 Basis Dimension        Dim             ....  322

ORBITAL ENERGIES
----------------

  NO   OCC          E(Eh)            E(eV)
   0   2.0000     -88.966031     -2420.8888
   1   2.0000     -88.965787     -2420.8821
   2   2.0000     -10.338753      -281.3318
   3   2.0000     -10.338425      -281.3228
   4   2.0000     -10.324934      -280.9557
   5   2.0000     -10.319814      -280.8164
   6   2.0000     -10.316637      -280.7300
   7   2.0000     -10.307456      -280.4801
   8   2.0000     -10.303593      -280.3750
   9   2.0000     -10.298553      -280.2379
  10   2.0000     -10.297260      -280.2027
  11   2.0000     -10.294272      -280.1214
  12   2.0000     -10.293891      -280.1110
  13   2.0000     -10.289424      -279.9895
  14   2.0000     -10.288655      -279.9685
  15   2.0000     -10.278246      -279.6853
  16   2.0000      -8.080388      -219.8785
  17   2.0000      -8.079256      -219.8477
  18   2.0000      -6.039017      -164.3300
  19   2.0000      -6.038136      -164.3060
  20   2.0000      -6.034937      -164.2190
  21   2.0000      -6.033826      -164.1888
  22   2.0000      -6.031044      -164.1130
  23   2.0000      -6.029761      -164.0781
  24   2.0000      -0.997829       -27.1523
  25   2.0000      -0.976460       -26.5708
  26   2.0000      -0.912869       -24.8404
  27   2.0000      -0.907043       -24.6819
  28   2.0000      -0.869716       -23.6662
  29   2.0000      -0.847104       -23.0509
  30   2.0000      -0.840591       -22.8737
  31   2.0000      -0.816564       -22.2198
  32   2.0000      -0.782105       -21.2822
  33   2.0000      -0.773439       -21.0463
  34   2.0000      -0.705130       -19.1876
  35   2.0000      -0.691520       -18.8172
  36   2.0000      -0.689819       -18.7709
  37   2.0000      -0.660552       -17.9745
  38   2.0000      -0.641948       -17.4683
  39   2.0000      -0.618638       -16.8340
  40   2.0000      -0.601149       -16.3581
  41   2.0000      -0.570548       -15.5254
  42   2.0000      -0.567382       -15.4393
  43   2.0000      -0.559715       -15.2306
  44   2.0000      -0.528247       -14.3743
  45   2.0000      -0.526508       -14.3270
  46   2.0000      -0.518809       -14.1175
  47   2.0000      -0.510756       -13.8984
  48   2.0000      -0.506612       -13.7856
  49   2.0000      -0.505307       -13.7501
  50   2.0000      -0.500978       -13.6323
  51   2.0000      -0.480482       -13.0746
  52   2.0000      -0.470401       -12.8003
  53   2.0000      -0.465883       -12.6773
  54   2.0000      -0.462578       -12.5874
  55   2.0000      -0.449717       -12.2374
  56   2.0000      -0.446946       -12.1620
  57   2.0000      -0.433156       -11.7868
  58   2.0000      -0.427135       -11.6229
  59   2.0000      -0.420279       -11.4364
  60   2.0000      -0.416878       -11.3438
  61   2.0000      -0.412304       -11.2194
  62   2.0000      -0.406051       -11.0492
  63   2.0000      -0.355366        -9.6700
  64   2.0000      -0.328408        -8.9364
  65   2.0000      -0.323861        -8.8127
  66   2.0000      -0.291106        -7.9214
  67   0.0000       0.020702         0.5633
  68   0.0000       0.074096         2.0163
  69   0.0000       0.102471         2.7884
  70   0.0000       0.113762         3.0956
  71   0.0000       0.121032         3.2935

MULLIKEN ATOMIC CHARGES
-----------------------
   0 S :    0.088114
   1 C :   -0.099001
   2 C :   -0.058063
   3 C :    0.015281
   4 C :   -0.122347
   5 H :    0.015536
   6 C :    0.022319
   7 H :    0.037733
   8 H :    0.015582
   9 C :   -0.125861
  10 H :    0.032688
  11 H :    0.039226
  12 C :   -0.013382
  13 H :    0.036438
  14 H :    0.029058
  15 H :    0.033475
  16 S :    0.097218
  17 C :   -0.095895
  18 C :   -0.007566
  19 C :   -0.045028
  20 C :   -0.152196
  21 H :    0.016227
  22 C :    0.065461
  23 H :    0.016833
  24 H :    0.035742
  25 C :   -0.152059
  26 H :    0.037223
  27 H :    0.034242
  28 C :   -0.037896
  29 H :    0.037072
  30 H :    0.051610
  31 H :    0.041203
  32 H :    0.043272
  33 H :    0.067741
Sum of atomic charges:   -0.0000000

LOEWDIN ATOMIC CHARGES
----------------------
   0 S :    0.374929
   1 C :   -0.181793
   2 C :   -0.060653
   3 C :   -0.062856
   4 C :   -0.180207
   5 H :    0.028333
   6 C :   -0.049818
   7 H :    0.040108
   8 H :    0.028367
   9 C :   -0.050269
  10 H :    0.021937
  11 H :    0.028308
  12 C :   -0.053344
  13 H :    0.024419
  14 H :    0.025095
  15 H :    0.025250
  16 S :    0.390006
  17 C :   -0.175225
  18 C :   -0.061351
  19 C :   -0.049444
  20 C :   -0.188180
  21 H :    0.025670
  22 C :   -0.036272
  23 H :    0.026737
  24 H :    0.029470
  25 C :   -0.051647
  26 H :    0.027778
  27 H :    0.022019
  28 C :   -0.066190
  29 H :    0.027060
  30 H :    0.033565
  31 H :    0.027748
  32 H :    0.029468
  33 H :    0.030981

  Mayer bond orders larger than 0.100000
B(  0-S ,  1-C ) :   1.1134 B(  0-S ,  4-C ) :   1.1370 B(  1-C ,  2-C ) :   1.6166
B(  1-C , 32-H ) :   0.9751 B(  2-C ,  3-C ) :   1.2146 B(  2-C ,  6-C ) :   1.0352
B(  3-C ,  4-C ) :   1.5763 B(  3-C ,  5-H ) :   0.9897 B(  4-C , 20-C ) :   1.0618
B(  6-C ,  7-H ) :   0.9290 B(  6-C ,  8-H ) :   0.9464 B(  6-C ,  9-C ) :   1.0576
B(  9-C , 10-H ) :   0.9497 B(  9-C , 11-H ) :   0.9601 B(  9-C , 12-C ) :   1.0832
B( 12-C , 13-H ) :   0.9771 B( 12-C , 14-H ) :   0.9751 B( 12-C , 15-H ) :   0.9745
B( 16-S , 17-C ) :   1.1388 B( 16-S , 20-C ) :   1.1423 B( 17-C , 18-C ) :   1.6197
B( 17-C , 33-H ) :   0.9713 B( 18-C , 19-C ) :   1.2221 B( 18-C , 21-H ) :   0.9861
B( 19-C , 20-C ) :   1.5806 B( 19-C , 22-C ) :   1.0471 B( 22-C , 23-H ) :   0.9431
B( 22-C , 24-H ) :   0.9447 B( 22-C , 25-C ) :   1.0237 B( 25-C , 26-H ) :   0.9556
B( 25-C , 27-H ) :   0.9666 B( 25-C , 28-C ) :   1.0676 B( 28-C , 29-H ) :   0.9759
B( 28-C , 30-H ) :   0.9736 B( 28-C , 31-H ) :   0.9738

Dispersion correction           -0.013471571
FINAL SINGLE POINT ENERGY     -1339.870808741517

DIPOLE MOMENT
-------------
                                X             Y             Z
Electronic contribution:      3.19588     -26.63542     -16.42215
Nuclear contribution   :     -3.45001      27.27004      16.76223
                        -----------------------------------------
Total Dipole Moment    :     -0.25414       0.63461       0.34008
                        -----------------------------------------
Magnitude (a.u.)       :      0.76353
Magnitude (Debye)      :      1.94073

Rotational constants in cm-1:     0.016030     0.008630     0.006055
Rotational constants in MHz :   480.581354   258.723211   181.522737

                             ****ORCA TERMINATED NORMALLY****
TOTAL RUN TIME: 0 days 0 hours 0 minutes 20 seconds 897 msec
