                         Program Version 4.2.1 -  RELEASE  -
|  1> ! wB97X-D3 SP def2-SVP
|  2> %pal
|  3> nprocs 24
|  4> end
|  5>
|  6> * xyz 0 1
|  7> S 	 -108.225 	 35.0854 	 -17.5159
|  8> C 	 -107.021 	 35.2012 	 -16.2474
|  9> C 	 -105.808 	 35.5343 	 -16.7145
| 10> C 	 -105.781 	 35.5637 	 -18.2019
| 11> C 	 -107.009 	 35.3032 	 -18.7613
| 12> H 	 -104.983 	 35.9635 	 -18.8483
| 13> C 	 -104.569 	 35.7991 	 -15.8449
| 14> H 	 -104.853 	 36.1602 	 -14.8773
| 15> H 	 -104.236 	 36.6968 	 -16.3838
| 16> C 	 -103.455 	 34.8019 	 -15.8722
| 17> H 	 -103.79 	 33.8109 	 -15.5155
| 18> H 	 -103.224 	 34.6045 	 -16.8814
| 19> C 	 -102.135 	 35.182 	 -15.1114
| 20> H 	 -102.208 	 35.1028 	 -14.023
| 21> H 	 -101.346 	 34.5673 	 -15.5832
| 22> H 	 -101.812 	 36.1982 	 -15.3774
| 23> S 	 -108.366 	 36.734 	 -20.6502
| 24> C 	 -108.001 	 36.4633 	 -22.3721
| 25> C 	 -107.292 	 35.2592 	 -22.5319
| 26> C 	 -106.851 	 34.7073 	 -21.2815
| 27> C 	 -107.312 	 35.4031 	 -20.1739
| 28> H 	 -107.021 	 34.9678 	 -23.5164
| 29> C 	 -105.938 	 33.4505 	 -21.3065
| 30> H 	 -105.272 	 33.5457 	 -20.4254
| 31> H 	 -105.4 	 33.4247 	 -22.254
| 32> C 	 -106.645 	 32.0585 	 -21.1896
| 33> H 	 -107.181 	 31.9878 	 -20.266
| 34> H 	 -105.847 	 31.3328 	 -21.1824
| 35> C 	 -107.597 	 31.7159 	 -22.2588
| 36> H 	 -108.213 	 30.8256 	 -22.1766
| 37> H 	 -107.163 	 31.69 	 -23.2842
| 38> H 	 -108.294 	 32.5964 	 -22.4104
| 39> H 	 -107.267 	 35.2728 	 -15.1642
| 40> H 	 -108.385 	 36.897 	 -23.2612
| 41> *
| 42>
| 43>                          ****END OF INPUT****

CARTESIAN COORDINATES (ANGSTROEM)
---------------------------------
  S    -108.225000   35.085400  -17.515900
  C    -107.021000   35.201200  -16.247400
  C    -105.808000   35.534300  -16.714500
  C    -105.781000   35.563700  -18.201900
  C    -107.009000   35.303200  -18.761300
  H    -104.983000   35.963500  -18.848300
  C    -104.569000   35.799100  -15.844900
  H    -104.853000   36.160200  -14.877300
  H    -104.236000   36.696800  -16.383800
  C    -103.455000   34.801900  -15.872200
  H    -103.790000   33.810900  -15.515500
  H    -103.224000   34.604500  -16.881400
  C    -102.135000   35.182000  -15.111400
  H    -102.208000   35.102800  -14.023000
  H    -101.346000   34.567300  -15.583200
  H    -101.812000   36.198200  -15.377400
  S    -108.366000   36.734000  -20.650200
  C    -108.001000   36.463300  -22.372100
  C    -107.292000   35.259200  -22.531900
  C    -106.851000   34.707300  -21.281500
  C    -107.312000   35.403100  -20.173900
  H    -107.021000   34.967800  -23.516400
  C    -105.938000   33.450500  -21.306500
  H    -105.272000   33.545700  -20.425400
  H    -105.400000   33.424700  -22.254000
  C    -106.645000   32.058500  -21.189600
  H    -107.181000   31.987800  -20.266000
  H    -105.847000   31.332800  -21.182400
  C    -107.597000   31.715900  -22.258800
  H    -108.213000   30.825600  -22.176600
  H    -107.163000   31.690000  -23.284200
  H    -108.294000   32.596400  -22.410400
  H    -107.267000   35.272800  -15.164200
  H    -108.385000   36.897000  -23.261200

 Total Charge           Charge          ....    0
 Multiplicity           Mult            ....    1
 Number of Electrons    NEL             ....  134
 Basis Dimension        Dim             ....  322

ORBITAL ENERGIES
----------------

  NO   OCC          E(Eh)            E(eV)
   0   2.0000     -88.968897     -2420.9668
   1   2.0000     -88.964105     -2420.8364
   2   2.0000     -10.330780      -281.1148
   3   2.0000     -10.329051      -281.0678
   4   2.0000     -10.320352      -280.8311
   5   2.0000     -10.313269      -280.6383
   6   2.0000     -10.308266      -280.5022
   7   2.0000     -10.304692      -280.4049
   8   2.0000     -10.300978      -280.3039
   9   2.0000     -10.297122      -280.1989
  10   2.0000     -10.295339      -280.1504
  11   2.0000     -10.291410      -280.0435
  12   2.0000     -10.285949      -279.8949
  13   2.0000     -10.285734      -279.8890
  14   2.0000     -10.278885      -279.7027
  15   2.0000     -10.273976      -279.5691
  16   2.0000      -8.082732      -219.9423
  17   2.0000      -8.079066      -219.8426
  18   2.0000      -6.041443      -164.3960
  19   2.0000      -6.037780      -164.2964
  20   2.0000      -6.037316      -164.2837
  21   2.0000      -6.033585      -164.1822
  22   2.0000      -6.033359      -164.1760
  23   2.0000      -6.029553      -164.0725
  24   2.0000      -1.005113       -27.3505
  25   2.0000      -0.980509       -26.6810
  26   2.0000      -0.912804       -24.8387
  27   2.0000      -0.906050       -24.6549
  28   2.0000      -0.873005       -23.7557
  29   2.0000      -0.848320       -23.0839
  30   2.0000      -0.842738       -22.9321
  31   2.0000      -0.815909       -22.2020
  32   2.0000      -0.783136       -21.3102
  33   2.0000      -0.773413       -21.0456
  34   2.0000      -0.711436       -19.3592
  35   2.0000      -0.701596       -19.0914
  36   2.0000      -0.687353       -18.7038
  37   2.0000      -0.664826       -18.0908
  38   2.0000      -0.641651       -17.4602
  39   2.0000      -0.616438       -16.7741
  40   2.0000      -0.586273       -15.9533
  41   2.0000      -0.567320       -15.4376
  42   2.0000      -0.561789       -15.2871
  43   2.0000      -0.553142       -15.0517
  44   2.0000      -0.541566       -14.7368
  45   2.0000      -0.525987       -14.3128
  46   2.0000      -0.522242       -14.2109
  47   2.0000      -0.507783       -13.8175
  48   2.0000      -0.507364       -13.8061
  49   2.0000      -0.500045       -13.6069
  50   2.0000      -0.486919       -13.2497
  51   2.0000      -0.481455       -13.1011
  52   2.0000      -0.470685       -12.8080
  53   2.0000      -0.465378       -12.6636
  54   2.0000      -0.459260       -12.4971
  55   2.0000      -0.448799       -12.2124
  56   2.0000      -0.441810       -12.0223
  57   2.0000      -0.439043       -11.9470
  58   2.0000      -0.431013       -11.7284
  59   2.0000      -0.426289       -11.5999
  60   2.0000      -0.421779       -11.4772
  61   2.0000      -0.408623       -11.1192
  62   2.0000      -0.406370       -11.0579
  63   2.0000      -0.344239        -9.3672
  64   2.0000      -0.331301        -9.0152
  65   2.0000      -0.327068        -8.9000
  66   2.0000      -0.302458        -8.2303
  67   0.0000       0.033492         0.9114
  68   0.0000       0.062069         1.6890
  69   0.0000       0.109090         2.9685
  70   0.0000       0.121567         3.3080
  71   0.0000       0.125213         3.4072

MULLIKEN ATOMIC CHARGES
-----------------------
   0 S :    0.098890
   1 C :   -0.127823
   2 C :   -0.106056
   3 C :    0.025430
   4 C :   -0.161986
   5 H :    0.034996
   6 C :    0.092335
   7 H :    0.009861
   8 H :    0.019458
   9 C :   -0.046666
  10 H :    0.026193
  11 H :    0.008438
  12 C :   -0.054393
  13 H :    0.049849
  14 H :    0.038578
  15 H :    0.022678
  16 S :    0.113917
  17 C :   -0.076600
  18 C :   -0.045319
  19 C :   -0.039854
  20 C :   -0.168306
  21 H :    0.011867
  22 C :    0.067932
  23 H :    0.033827
  24 H :    0.023121
  25 C :   -0.016032
  26 H :    0.027944
  27 H :    0.024815
  28 C :   -0.082681
  29 H :    0.042184
  30 H :    0.012896
  31 H :    0.031903
  32 H :    0.062296
  33 H :    0.046307
Sum of atomic charges:   -0.0000000

LOEWDIN ATOMIC CHARGES
----------------------
   0 S :    0.388906
   1 C :   -0.200362
   2 C :   -0.060563
   3 C :   -0.064178
   4 C :   -0.196141
   5 H :    0.038116
   6 C :   -0.031821
   7 H :    0.023215
   8 H :    0.035732
   9 C :   -0.041049
  10 H :    0.026231
  11 H :    0.018411
  12 C :   -0.064960
  13 H :    0.027138
  14 H :    0.033577
  15 H :    0.023604
  16 S :    0.397125
  17 C :   -0.175414
  18 C :   -0.066424
  19 C :   -0.054553
  20 C :   -0.198805
  21 H :    0.025202
  22 C :   -0.023173
  23 H :    0.035440
  24 H :    0.028465
  25 C :   -0.037514
  26 H :    0.025110
  27 H :    0.022535
  28 C :   -0.079708
  29 H :    0.027225
  30 H :    0.021422
  31 H :    0.031583
  32 H :    0.039326
  33 H :    0.026304

  Mayer bond orders larger than 0.100000
B(  0-S ,  1-C ) :   1.1099 B(  0-S ,  4-C ) :   1.1322 B(  1-C ,  2-C ) :   1.6880
B(  1-C , 32-H ) :   0.9587 B(  2-C ,  3-C ) :   1.1811 B(  2-C ,  6-C ) :   1.0122
B(  3-C ,  4-C ) :   1.6327 B(  3-C ,  5-H ) :   0.9823 B(  4-C , 20-C ) :   1.0280
B(  6-C ,  7-H ) :   0.9441 B(  6-C ,  8-H ) :   0.9283 B(  6-C ,  9-C ) :   1.0717
B(  9-C , 10-H ) :   0.9523 B(  9-C , 11-H ) :   0.9510 B(  9-C , 12-C ) :   1.0774
B( 12-C , 13-H ) :   0.9782 B( 12-C , 14-H ) :   0.9754 B( 12-C , 15-H ) :   0.9752
B( 16-S , 17-C ) :   1.1465 B( 16-S , 20-C ) :   1.1320 B( 17-C , 18-C ) :   1.6312
B( 17-C , 20-C ) :   0.1037 B( 17-C , 33-H ) :   0.9656 B( 18-C , 19-C ) :   1.2253
B( 18-C , 21-H ) :   0.9884 B( 19-C , 20-C ) :   1.6163 B( 19-C , 22-C ) :   1.0356
B( 22-C , 23-H ) :   0.9313 B( 22-C , 24-H ) :   0.9390 B( 22-C , 25-C ) :   1.0760
B( 25-C , 26-H ) :   0.9526 B( 25-C , 27-H ) :   0.9533 B( 25-C , 28-C ) :   1.0842
B( 28-C , 29-H ) :   0.9731 B( 28-C , 30-H ) :   0.9702 B( 28-C , 31-H ) :   0.9683

Dispersion correction           -0.014039071
FINAL SINGLE POINT ENERGY     -1339.874861665969

DIPOLE MOMENT
-------------
                                X             Y             Z
Electronic contribution:    -20.58214      13.52476      -2.44342
Nuclear contribution   :     21.18032     -13.59694       2.36598
                        -----------------------------------------
Total Dipole Moment    :      0.59818      -0.07218      -0.07743
                        -----------------------------------------
Magnitude (a.u.)       :      0.60748
Magnitude (Debye)      :      1.54408

Rotational constants in cm-1:     0.019471     0.007588     0.006633
Rotational constants in MHz :   583.718313   227.476003   198.847495

                             ****ORCA TERMINATED NORMALLY****
TOTAL RUN TIME: 0 days 0 hours 0 minutes 21 seconds 138 msec
