                         Program Version 4.2.1 -  RELEASE  -
|  1> ! wB97X-D3 SP def2-SVP
|  2> %pal
|  3> nprocs 24
|  4> end
|  5>
|  6> * xyz 0 1
|  7> S 	 -67.3702 	 -43.0106 	 -90.8629
|  8> C 	 -65.5983 	 -43.1816 	 -91.0396
|  9> C 	 -65.2505 	 -44.4449 	 -91.4488
| 10> C 	 -66.3607 	 -45.1683 	 -91.9087
| 11> C 	 -67.6009 	 -44.5321 	 -91.7265
| 12> H 	 -66.3303 	 -46.1869 	 -92.2462
| 13> C 	 -63.8437 	 -44.9904 	 -91.3627
| 14> H 	 -63.1653 	 -44.1817 	 -91.4619
| 15> H 	 -63.6629 	 -45.6383 	 -92.27
| 16> C 	 -63.5321 	 -45.8511 	 -90.1627
| 17> H 	 -62.49 	 -46.1994 	 -90.2407
| 18> H 	 -63.6215 	 -45.2158 	 -89.2707
| 19> C 	 -64.475 	 -46.9873 	 -89.9257
| 20> H 	 -64.0682 	 -47.6108 	 -89.1432
| 21> H 	 -65.5194 	 -46.816 	 -89.5625
| 22> H 	 -64.5529 	 -47.5414 	 -90.8564
| 23> S 	 -69.4738 	 -46.452 	 -91.5818
| 24> C 	 -70.8296 	 -46.3866 	 -92.7077
| 25> C 	 -70.8738 	 -45.1395 	 -93.3846
| 26> C 	 -69.6657 	 -44.4132 	 -93.1711
| 27> C 	 -68.9546 	 -44.9146 	 -92.1388
| 28> H 	 -71.5977 	 -44.891 	 -94.0912
| 29> C 	 -69.2239 	 -43.1015 	 -93.8485
| 30> H 	 -69.3024 	 -43.1595 	 -94.9155
| 31> H 	 -68.1694 	 -42.9524 	 -93.8179
| 32> C 	 -70.1942 	 -41.8998 	 -93.4884
| 33> H 	 -71.0962 	 -42.036 	 -93.9755
| 34> H 	 -69.8899 	 -41.0022 	 -93.9402
| 35> C 	 -70.4477 	 -41.545 	 -92.0409
| 36> H 	 -70.8911 	 -42.4216 	 -91.5175
| 37> H 	 -71.1306 	 -40.6891 	 -91.9766
| 38> H 	 -69.6041 	 -41.2394 	 -91.4349
| 39> H 	 -64.9688 	 -42.5077 	 -90.4704
| 40> H 	 -71.6205 	 -47.0574 	 -92.5825
| 41> *
| 42>
| 43>                          ****END OF INPUT****

CARTESIAN COORDINATES (ANGSTROEM)
---------------------------------
  S    -67.370200  -43.010600  -90.862900
  C    -65.598300  -43.181600  -91.039600
  C    -65.250500  -44.444900  -91.448800
  C    -66.360700  -45.168300  -91.908700
  C    -67.600900  -44.532100  -91.726500
  H    -66.330300  -46.186900  -92.246200
  C    -63.843700  -44.990400  -91.362700
  H    -63.165300  -44.181700  -91.461900
  H    -63.662900  -45.638300  -92.270000
  C    -63.532100  -45.851100  -90.162700
  H    -62.490000  -46.199400  -90.240700
  H    -63.621500  -45.215800  -89.270700
  C    -64.475000  -46.987300  -89.925700
  H    -64.068200  -47.610800  -89.143200
  H    -65.519400  -46.816000  -89.562500
  H    -64.552900  -47.541400  -90.856400
  S    -69.473800  -46.452000  -91.581800
  C    -70.829600  -46.386600  -92.707700
  C    -70.873800  -45.139500  -93.384600
  C    -69.665700  -44.413200  -93.171100
  C    -68.954600  -44.914600  -92.138800
  H    -71.597700  -44.891000  -94.091200
  C    -69.223900  -43.101500  -93.848500
  H    -69.302400  -43.159500  -94.915500
  H    -68.169400  -42.952400  -93.817900
  C    -70.194200  -41.899800  -93.488400
  H    -71.096200  -42.036000  -93.975500
  H    -69.889900  -41.002200  -93.940200
  C    -70.447700  -41.545000  -92.040900
  H    -70.891100  -42.421600  -91.517500
  H    -71.130600  -40.689100  -91.976600
  H    -69.604100  -41.239400  -91.434900
  H    -64.968800  -42.507700  -90.470400
  H    -71.620500  -47.057400  -92.582500

 Total Charge           Charge          ....    0
 Multiplicity           Mult            ....    1
 Number of Electrons    NEL             ....  134
 Basis Dimension        Dim             ....  322

ORBITAL ENERGIES
----------------

  NO   OCC          E(Eh)            E(eV)
   0   2.0000     -88.966090     -2420.8904
   1   2.0000     -88.962944     -2420.8048
   2   2.0000     -10.329978      -281.0930
   3   2.0000     -10.319790      -280.8158
   4   2.0000     -10.317199      -280.7453
   5   2.0000     -10.311827      -280.5991
   6   2.0000     -10.300877      -280.3011
   7   2.0000     -10.298481      -280.2359
   8   2.0000     -10.298163      -280.2273
   9   2.0000     -10.291856      -280.0556
  10   2.0000     -10.290297      -280.0132
  11   2.0000     -10.288903      -279.9753
  12   2.0000     -10.285536      -279.8837
  13   2.0000     -10.275311      -279.6054
  14   2.0000     -10.274414      -279.5810
  15   2.0000     -10.268042      -279.4076
  16   2.0000      -8.081384      -219.9056
  17   2.0000      -8.076556      -219.7743
  18   2.0000      -6.039690      -164.3483
  19   2.0000      -6.035810      -164.2427
  20   2.0000      -6.034983      -164.2202
  21   2.0000      -6.032338      -164.1483
  22   2.0000      -6.031312      -164.1204
  23   2.0000      -6.027369      -164.0131
  24   2.0000      -1.008513       -27.4430
  25   2.0000      -0.982609       -26.7381
  26   2.0000      -0.916624       -24.9426
  27   2.0000      -0.902335       -24.5538
  28   2.0000      -0.868094       -23.6220
  29   2.0000      -0.851102       -23.1597
  30   2.0000      -0.843110       -22.9422
  31   2.0000      -0.813253       -22.1297
  32   2.0000      -0.787740       -21.4355
  33   2.0000      -0.774559       -21.0768
  34   2.0000      -0.704399       -19.1677
  35   2.0000      -0.698463       -19.0062
  36   2.0000      -0.694078       -18.8868
  37   2.0000      -0.671084       -18.2611
  38   2.0000      -0.638797       -17.3825
  39   2.0000      -0.614142       -16.7116
  40   2.0000      -0.601154       -16.3582
  41   2.0000      -0.575878       -15.6704
  42   2.0000      -0.554306       -15.0834
  43   2.0000      -0.546851       -14.8806
  44   2.0000      -0.540429       -14.7058
  45   2.0000      -0.538425       -14.6513
  46   2.0000      -0.519804       -14.1446
  47   2.0000      -0.509042       -13.8517
  48   2.0000      -0.502755       -13.6807
  49   2.0000      -0.493421       -13.4267
  50   2.0000      -0.489098       -13.3090
  51   2.0000      -0.476698       -12.9716
  52   2.0000      -0.471606       -12.8331
  53   2.0000      -0.462703       -12.5908
  54   2.0000      -0.453369       -12.3368
  55   2.0000      -0.448221       -12.1967
  56   2.0000      -0.442974       -12.0539
  57   2.0000      -0.435084       -11.8392
  58   2.0000      -0.429696       -11.6926
  59   2.0000      -0.425750       -11.5853
  60   2.0000      -0.420232       -11.4351
  61   2.0000      -0.410968       -11.1830
  62   2.0000      -0.408252       -11.1091
  63   2.0000      -0.336334        -9.1521
  64   2.0000      -0.334139        -9.0924
  65   2.0000      -0.327907        -8.9228
  66   2.0000      -0.298847        -8.1320
  67   0.0000       0.033653         0.9157
  68   0.0000       0.059535         1.6200
  69   0.0000       0.106927         2.9096
  70   0.0000       0.115012         3.1296
  71   0.0000       0.123531         3.3615

MULLIKEN ATOMIC CHARGES
-----------------------
   0 S :    0.095635
   1 C :   -0.126992
   2 C :   -0.089132
   3 C :    0.053716
   4 C :   -0.193543
   5 H :    0.001962
   6 C :    0.067285
   7 H :    0.014415
   8 H :    0.027161
   9 C :   -0.045444
  10 H :    0.039100
  11 H :    0.020610
  12 C :   -0.066627
  13 H :    0.030013
  14 H :    0.052019
  15 H :    0.020417
  16 S :    0.108808
  17 C :   -0.085583
  18 C :    0.008902
  19 C :   -0.057492
  20 C :   -0.142311
  21 H :    0.003673
  22 C :    0.105408
  23 H :    0.008394
  24 H :    0.031809
  25 C :   -0.017599
  26 H :    0.003446
  27 H :    0.005959
  28 C :   -0.066821
  29 H :    0.038321
  30 H :    0.026155
  31 H :    0.031076
  32 H :    0.049986
  33 H :    0.047272
Sum of atomic charges:   -0.0000000

LOEWDIN ATOMIC CHARGES
----------------------
   0 S :    0.399345
   1 C :   -0.187959
   2 C :   -0.062831
   3 C :   -0.063531
   4 C :   -0.183141
   5 H :    0.026587
   6 C :   -0.031087
   7 H :    0.025831
   8 H :    0.033280
   9 C :   -0.041480
  10 H :    0.030611
  11 H :    0.024422
  12 C :   -0.071796
  13 H :    0.027428
  14 H :    0.034423
  15 H :    0.019513
  16 S :    0.420103
  17 C :   -0.168770
  18 C :   -0.050735
  19 C :   -0.049683
  20 C :   -0.219789
  21 H :    0.022172
  22 C :   -0.025484
  23 H :    0.030277
  24 H :    0.028733
  25 C :   -0.032193
  26 H :    0.015232
  27 H :    0.019956
  28 C :   -0.073439
  29 H :    0.026354
  30 H :    0.027359
  31 H :    0.014382
  32 H :    0.022710
  33 H :    0.013200

  Mayer bond orders larger than 0.100000
B(  0-S ,  1-C ) :   1.1372 B(  0-S ,  4-C ) :   1.1676 B(  1-C ,  2-C ) :   1.6119
B(  1-C ,  4-C ) :   0.1069 B(  1-C , 32-H ) :   0.9644 B(  2-C ,  3-C ) :   1.2528
B(  2-C ,  6-C ) :   1.0187 B(  3-C ,  4-C ) :   1.5721 B(  3-C ,  5-H ) :   0.9935
B(  4-C , 20-C ) :   0.9807 B(  6-C ,  7-H ) :   0.9366 B(  6-C ,  8-H ) :   0.9383
B(  6-C ,  9-C ) :   1.0837 B(  9-C , 10-H ) :   0.9529 B(  9-C , 11-H ) :   0.9467
B(  9-C , 12-C ) :   1.0896 B( 12-C , 13-H ) :   0.9684 B( 12-C , 14-H ) :   0.9664
B( 12-C , 15-H ) :   0.9732 B( 16-S , 17-C ) :   1.1675 B( 16-S , 20-C ) :   1.1535
B( 17-C , 18-C ) :   1.5879 B( 17-C , 33-H ) :   0.9728 B( 18-C , 19-C ) :   1.2431
B( 18-C , 21-H ) :   0.9943 B( 19-C , 20-C ) :   1.6090 B( 19-C , 22-C ) :   1.0482
B( 22-C , 23-H ) :   0.9266 B( 22-C , 24-H ) :   0.9368 B( 22-C , 25-C ) :   1.0545
B( 25-C , 26-H ) :   0.9529 B( 25-C , 27-H ) :   0.9507 B( 25-C , 28-C ) :   1.0864
B( 28-C , 29-H ) :   0.9729 B( 28-C , 30-H ) :   0.9696 B( 28-C , 31-H ) :   0.9716

Dispersion correction           -0.016002519
FINAL SINGLE POINT ENERGY     -1339.868020835587

DIPOLE MOMENT
-------------
                                X             Y             Z
Electronic contribution:     -8.22662      -3.88312       0.98893
Nuclear contribution   :      8.40911       3.83167      -1.17198
                        -----------------------------------------
Total Dipole Moment    :      0.18249      -0.05145      -0.18305
                        -----------------------------------------
Magnitude (a.u.)       :      0.26354
Magnitude (Debye)      :      0.66987

Rotational constants in cm-1:     0.022582     0.009249     0.007274
Rotational constants in MHz :   676.988408   277.267637   218.063148

                             ****ORCA TERMINATED NORMALLY****
TOTAL RUN TIME: 0 days 0 hours 0 minutes 22 seconds 429 msec
