                         Program Version 4.2.1 -  RELEASE  -
|  1> ! wB97X-D3 SP def2-SVP
|  2> %pal
|  3> nprocs 24
|  4> end
|  5>
|  6> * xyz 0 1
|  7> S 	 -127.336 	 67.8361 	 -47.2602
|  8> C 	 -127.058 	 69.5672 	 -47.0102
|  9> C 	 -127.967 	 70.3122 	 -47.7251
| 10> C 	 -128.677 	 69.5079 	 -48.6857
| 11> C 	 -128.439 	 68.159 	 -48.541
| 12> H 	 -129.371 	 69.8811 	 -49.4776
| 13> C 	 -128.198 	 71.8574 	 -47.7056
| 14> H 	 -127.808 	 72.1816 	 -46.6887
| 15> H 	 -129.255 	 72.1369 	 -47.6871
| 16> C 	 -127.44 	 72.7259 	 -48.8585
| 17> H 	 -126.409 	 72.5361 	 -48.7497
| 18> H 	 -127.908 	 72.3759 	 -49.7874
| 19> C 	 -127.692 	 74.2034 	 -48.6831
| 20> H 	 -126.922 	 74.6109 	 -47.9548
| 21> H 	 -127.425 	 74.8376 	 -49.529
| 22> H 	 -128.708 	 74.5471 	 -48.334
| 23> S 	 -128.332 	 66.5341 	 -50.727
| 24> C 	 -129.708 	 65.4471 	 -50.9764
| 25> C 	 -130.72 	 65.6075 	 -50.0535
| 26> C 	 -130.309 	 66.4576 	 -49.0216
| 27> C 	 -129.141 	 67.1528 	 -49.3068
| 28> H 	 -131.693 	 65.0998 	 -50.1867
| 29> C 	 -131.184 	 66.6457 	 -47.7783
| 30> H 	 -132.226 	 66.5508 	 -48.073
| 31> H 	 -131.106 	 67.6364 	 -47.3713
| 32> C 	 -130.891 	 65.5966 	 -46.7288
| 33> H 	 -129.969 	 65.66 	 -46.1593
| 34> H 	 -130.829 	 64.6346 	 -47.2585
| 35> C 	 -131.953 	 65.6698 	 -45.5762
| 36> H 	 -132.91 	 65.9554 	 -46.029
| 37> H 	 -131.745 	 66.5736 	 -44.9545
| 38> H 	 -131.984 	 64.7449 	 -44.9959
| 39> H 	 -126.466 	 70.0396 	 -46.2164
| 40> H 	 -129.808 	 64.8411 	 -51.8777
| 41> *
| 42>
| 43>                          ****END OF INPUT****

CARTESIAN COORDINATES (ANGSTROEM)
---------------------------------
  S    -127.336000   67.836100  -47.260200
  C    -127.058000   69.567200  -47.010200
  C    -127.967000   70.312200  -47.725100
  C    -128.677000   69.507900  -48.685700
  C    -128.439000   68.159000  -48.541000
  H    -129.371000   69.881100  -49.477600
  C    -128.198000   71.857400  -47.705600
  H    -127.808000   72.181600  -46.688700
  H    -129.255000   72.136900  -47.687100
  C    -127.440000   72.725900  -48.858500
  H    -126.409000   72.536100  -48.749700
  H    -127.908000   72.375900  -49.787400
  C    -127.692000   74.203400  -48.683100
  H    -126.922000   74.610900  -47.954800
  H    -127.425000   74.837600  -49.529000
  H    -128.708000   74.547100  -48.334000
  S    -128.332000   66.534100  -50.727000
  C    -129.708000   65.447100  -50.976400
  C    -130.720000   65.607500  -50.053500
  C    -130.309000   66.457600  -49.021600
  C    -129.141000   67.152800  -49.306800
  H    -131.693000   65.099800  -50.186700
  C    -131.184000   66.645700  -47.778300
  H    -132.226000   66.550800  -48.073000
  H    -131.106000   67.636400  -47.371300
  C    -130.891000   65.596600  -46.728800
  H    -129.969000   65.660000  -46.159300
  H    -130.829000   64.634600  -47.258500
  C    -131.953000   65.669800  -45.576200
  H    -132.910000   65.955400  -46.029000
  H    -131.745000   66.573600  -44.954500
  H    -131.984000   64.744900  -44.995900
  H    -126.466000   70.039600  -46.216400
  H    -129.808000   64.841100  -51.877700

 Total Charge           Charge          ....    0
 Multiplicity           Mult            ....    1
 Number of Electrons    NEL             ....  134
 Basis Dimension        Dim             ....  322

ORBITAL ENERGIES
----------------

  NO   OCC          E(Eh)            E(eV)
   0   2.0000     -88.968017     -2420.9428
   1   2.0000     -88.966207     -2420.8936
   2   2.0000     -10.322260      -280.8830
   3   2.0000     -10.321166      -280.8532
   4   2.0000     -10.317376      -280.7501
   5   2.0000     -10.316438      -280.7246
   6   2.0000     -10.304595      -280.4023
   7   2.0000     -10.303976      -280.3855
   8   2.0000     -10.300736      -280.2973
   9   2.0000     -10.294277      -280.1215
  10   2.0000     -10.293715      -280.1062
  11   2.0000     -10.292158      -280.0639
  12   2.0000     -10.286885      -279.9204
  13   2.0000     -10.285728      -279.8889
  14   2.0000     -10.281546      -279.7751
  15   2.0000     -10.279581      -279.7216
  16   2.0000      -8.082591      -219.9385
  17   2.0000      -8.080741      -219.8881
  18   2.0000      -6.041096      -164.3866
  19   2.0000      -6.039072      -164.3315
  20   2.0000      -6.037202      -164.2806
  21   2.0000      -6.035395      -164.2315
  22   2.0000      -6.033260      -164.1733
  23   2.0000      -6.031580      -164.1276
  24   2.0000      -1.007681       -27.4204
  25   2.0000      -0.984032       -26.7769
  26   2.0000      -0.907697       -24.6997
  27   2.0000      -0.900181       -24.4952
  28   2.0000      -0.870283       -23.6816
  29   2.0000      -0.848047       -23.0765
  30   2.0000      -0.845346       -23.0030
  31   2.0000      -0.809374       -22.0242
  32   2.0000      -0.777042       -21.1444
  33   2.0000      -0.766628       -20.8610
  34   2.0000      -0.702279       -19.1100
  35   2.0000      -0.697802       -18.9881
  36   2.0000      -0.692732       -18.8502
  37   2.0000      -0.661537       -18.0013
  38   2.0000      -0.636809       -17.3285
  39   2.0000      -0.612962       -16.6795
  40   2.0000      -0.596565       -16.2333
  41   2.0000      -0.572231       -15.5712
  42   2.0000      -0.562840       -15.3157
  43   2.0000      -0.554271       -15.0825
  44   2.0000      -0.524939       -14.2843
  45   2.0000      -0.517603       -14.0847
  46   2.0000      -0.514289       -13.9945
  47   2.0000      -0.507238       -13.8027
  48   2.0000      -0.502953       -13.6861
  49   2.0000      -0.499116       -13.5816
  50   2.0000      -0.489309       -13.3148
  51   2.0000      -0.471944       -12.8422
  52   2.0000      -0.467983       -12.7345
  53   2.0000      -0.460575       -12.5329
  54   2.0000      -0.456838       -12.4312
  55   2.0000      -0.449819       -12.2402
  56   2.0000      -0.444321       -12.0906
  57   2.0000      -0.442256       -12.0344
  58   2.0000      -0.432352       -11.7649
  59   2.0000      -0.425855       -11.5881
  60   2.0000      -0.422383       -11.4936
  61   2.0000      -0.412616       -11.2279
  62   2.0000      -0.405355       -11.0303
  63   2.0000      -0.338694        -9.2163
  64   2.0000      -0.328971        -8.9518
  65   2.0000      -0.318333        -8.6623
  66   2.0000      -0.310837        -8.4583
  67   0.0000       0.048646         1.3237
  68   0.0000       0.051035         1.3887
  69   0.0000       0.110087         2.9956
  70   0.0000       0.116148         3.1605
  71   0.0000       0.129422         3.5218

MULLIKEN ATOMIC CHARGES
-----------------------
   0 S :    0.127560
   1 C :   -0.124185
   2 C :   -0.074409
   3 C :    0.019810
   4 C :   -0.154881
   5 H :    0.032774
   6 C :   -0.001409
   7 H :    0.021091
   8 H :    0.036156
   9 C :   -0.024721
  10 H :    0.032850
  11 H :    0.038270
  12 C :   -0.084965
  13 H :    0.029068
  14 H :    0.034224
  15 H :    0.042084
  16 S :    0.116211
  17 C :   -0.101128
  18 C :   -0.044092
  19 C :   -0.017225
  20 C :   -0.202432
  21 H :    0.037013
  22 C :    0.096786
  23 H :    0.014088
  24 H :    0.019798
  25 C :   -0.087894
  26 H :    0.030856
  27 H :    0.027642
  28 C :   -0.048849
  29 H :    0.014416
  30 H :    0.034902
  31 H :    0.050022
  32 H :    0.053205
  33 H :    0.057363
Sum of atomic charges:    0.0000000

LOEWDIN ATOMIC CHARGES
----------------------
   0 S :    0.413802
   1 C :   -0.198741
   2 C :   -0.066057
   3 C :   -0.063394
   4 C :   -0.214839
   5 H :    0.039964
   6 C :   -0.033384
   7 H :    0.028291
   8 H :    0.028447
   9 C :   -0.029367
  10 H :    0.023155
  11 H :    0.025565
  12 C :   -0.082569
  13 H :    0.031812
  14 H :    0.026779
  15 H :    0.029439
  16 S :    0.404928
  17 C :   -0.176536
  18 C :   -0.075294
  19 C :   -0.050192
  20 C :   -0.206482
  21 H :    0.041808
  22 C :   -0.026214
  23 H :    0.028588
  24 H :    0.026599
  25 C :   -0.042540
  26 H :    0.023511
  27 H :    0.023068
  28 C :   -0.067824
  29 H :    0.018555
  30 H :    0.030690
  31 H :    0.028299
  32 H :    0.033408
  33 H :    0.026726

  Mayer bond orders larger than 0.100000
B(  0-S ,  1-C ) :   1.1276 B(  0-S ,  4-C ) :   1.1505 B(  1-C ,  2-C ) :   1.6392
B(  1-C , 32-H ) :   0.9615 B(  2-C ,  3-C ) :   1.2213 B(  2-C ,  6-C ) :   1.0204
B(  3-C ,  4-C ) :   1.6005 B(  3-C ,  5-H ) :   0.9857 B(  4-C , 20-C ) :   1.0154
B(  6-C ,  7-H ) :   0.9467 B(  6-C ,  8-H ) :   0.9493 B(  6-C ,  9-C ) :   1.0473
B(  9-C , 10-H ) :   0.9588 B(  9-C , 11-H ) :   0.9604 B(  9-C , 12-C ) :   1.0793
B( 12-C , 13-H ) :   0.9740 B( 12-C , 14-H ) :   0.9719 B( 12-C , 15-H ) :   0.9750
B( 16-S , 17-C ) :   1.1606 B( 16-S , 20-C ) :   1.1480 B( 17-C , 18-C ) :   1.6145
B( 17-C , 20-C ) :   0.1072 B( 17-C , 33-H ) :   0.9628 B( 18-C , 19-C ) :   1.2383
B( 18-C , 21-H ) :   0.9843 B( 19-C , 20-C ) :   1.6128 B( 19-C , 22-C ) :   1.0410
B( 22-C , 23-H ) :   0.9348 B( 22-C , 24-H ) :   0.9303 B( 22-C , 25-C ) :   1.0633
B( 25-C , 26-H ) :   0.9543 B( 25-C , 27-H ) :   0.9596 B( 25-C , 28-C ) :   1.0686
B( 28-C , 29-H ) :   0.9758 B( 28-C , 30-H ) :   0.9743 B( 28-C , 31-H ) :   0.9756

Dispersion correction           -0.013991081
FINAL SINGLE POINT ENERGY     -1339.874713404589

DIPOLE MOMENT
-------------
                                X             Y             Z
Electronic contribution:     11.12264     -15.75661     -10.34840
Nuclear contribution   :    -11.54221      16.12372      10.41676
                        -----------------------------------------
Total Dipole Moment    :     -0.41957       0.36711       0.06836
                        -----------------------------------------
Magnitude (a.u.)       :      0.56168
Magnitude (Debye)      :      1.42768

Rotational constants in cm-1:     0.019312     0.007528     0.006500
Rotational constants in MHz :   578.969767   225.693805   194.853204

                             ****ORCA TERMINATED NORMALLY****
TOTAL RUN TIME: 0 days 0 hours 0 minutes 19 seconds 845 msec
