                         Program Version 4.2.1 -  RELEASE  -
|  1> ! wB97X-D3 SP def2-SVP
|  2> %pal
|  3> nprocs 24
|  4> end
|  5>
|  6> * xyz 0 1
|  7> S 	 -102.064 	 11.7399 	 -121.707
|  8> C 	 -103.495 	 12.1969 	 -122.612
|  9> C 	 -103.283 	 13.2786 	 -123.501
| 10> C 	 -101.874 	 13.7251 	 -123.49
| 11> C 	 -101.13 	 13.0019 	 -122.55
| 12> H 	 -101.515 	 14.4715 	 -124.153
| 13> C 	 -104.33 	 13.8564 	 -124.349
| 14> H 	 -105.259 	 13.6994 	 -123.728
| 15> H 	 -104.37 	 13.2404 	 -125.302
| 16> C 	 -104.36 	 15.3463 	 -124.821
| 17> H 	 -103.488 	 15.652 	 -125.469
| 18> H 	 -105.16 	 15.4028 	 -125.562
| 19> C 	 -104.589 	 16.2714 	 -123.693
| 20> H 	 -104.693 	 17.2777 	 -123.97
| 21> H 	 -105.51 	 16.0115 	 -123.159
| 22> H 	 -103.754 	 16.1863 	 -122.945
| 23> S 	 -98.7835 	 11.5729 	 -122.943
| 24> C 	 -97.2325 	 12.2031 	 -122.523
| 25> C 	 -97.3543 	 13.5184 	 -122.127
| 26> C 	 -98.7372 	 13.9288 	 -121.986
| 27> C 	 -99.6758 	 12.9594 	 -122.42
| 28> H 	 -96.5465 	 14.1819 	 -121.92
| 29> C 	 -99.0537 	 15.3632 	 -121.508
| 30> H 	 -100.064 	 15.7774 	 -121.901
| 31> H 	 -98.3862 	 16.0398 	 -122.035
| 32> C 	 -98.8507 	 15.4809 	 -119.987
| 33> H 	 -99.1333 	 16.4591 	 -119.54
| 34> H 	 -97.8965 	 15.2421 	 -119.722
| 35> C 	 -99.9334 	 14.6345 	 -119.261
| 36> H 	 -99.7516 	 13.5979 	 -119.189
| 37> H 	 -100.923 	 14.7776 	 -119.643
| 38> H 	 -99.9536 	 14.8602 	 -118.133
| 39> H 	 -104.448 	 11.772 	 -122.515
| 40> H 	 -96.2806 	 11.7194 	 -122.703
| 41> *
| 42>
| 43>                          ****END OF INPUT****

CARTESIAN COORDINATES (ANGSTROEM)
---------------------------------
  S    -102.064000   11.739900  -121.707000
  C    -103.495000   12.196900  -122.612000
  C    -103.283000   13.278600  -123.501000
  C    -101.874000   13.725100  -123.490000
  C    -101.130000   13.001900  -122.550000
  H    -101.515000   14.471500  -124.153000
  C    -104.330000   13.856400  -124.349000
  H    -105.259000   13.699400  -123.728000
  H    -104.370000   13.240400  -125.302000
  C    -104.360000   15.346300  -124.821000
  H    -103.488000   15.652000  -125.469000
  H    -105.160000   15.402800  -125.562000
  C    -104.589000   16.271400  -123.693000
  H    -104.693000   17.277700  -123.970000
  H    -105.510000   16.011500  -123.159000
  H    -103.754000   16.186300  -122.945000
  S    -98.783500   11.572900  -122.943000
  C    -97.232500   12.203100  -122.523000
  C    -97.354300   13.518400  -122.127000
  C    -98.737200   13.928800  -121.986000
  C    -99.675800   12.959400  -122.420000
  H    -96.546500   14.181900  -121.920000
  C    -99.053700   15.363200  -121.508000
  H    -100.064000   15.777400  -121.901000
  H    -98.386200   16.039800  -122.035000
  C    -98.850700   15.480900  -119.987000
  H    -99.133300   16.459100  -119.540000
  H    -97.896500   15.242100  -119.722000
  C    -99.933400   14.634500  -119.261000
  H    -99.751600   13.597900  -119.189000
  H    -100.923000   14.777600  -119.643000
  H    -99.953600   14.860200  -118.133000
  H    -104.448000   11.772000  -122.515000
  H    -96.280600   11.719400  -122.703000

 Total Charge           Charge          ....    0
 Multiplicity           Mult            ....    1
 Number of Electrons    NEL             ....  134
 Basis Dimension        Dim             ....  322

ORBITAL ENERGIES
----------------

  NO   OCC          E(Eh)            E(eV)
   0   2.0000     -88.970695     -2421.0157
   1   2.0000     -88.963242     -2420.8129
   2   2.0000     -10.335831      -281.2522
   3   2.0000     -10.325877      -280.9814
   4   2.0000     -10.316530      -280.7271
   5   2.0000     -10.313514      -280.6450
   6   2.0000     -10.306506      -280.4543
   7   2.0000     -10.305537      -280.4279
   8   2.0000     -10.302392      -280.3423
   9   2.0000     -10.300102      -280.2800
  10   2.0000     -10.296645      -280.1859
  11   2.0000     -10.294051      -280.1154
  12   2.0000     -10.292729      -280.0794
  13   2.0000     -10.280605      -279.7495
  14   2.0000     -10.275060      -279.5986
  15   2.0000     -10.267005      -279.3794
  16   2.0000      -8.084458      -219.9893
  17   2.0000      -8.078621      -219.8305
  18   2.0000      -6.043016      -164.4388
  19   2.0000      -6.039094      -164.3321
  20   2.0000      -6.037151      -164.2792
  21   2.0000      -6.035224      -164.2268
  22   2.0000      -6.032802      -164.1609
  23   2.0000      -6.029540      -164.0721
  24   2.0000      -1.002142       -27.2697
  25   2.0000      -0.977988       -26.6124
  26   2.0000      -0.915545       -24.9132
  27   2.0000      -0.902664       -24.5627
  28   2.0000      -0.870172       -23.6786
  29   2.0000      -0.849955       -23.1284
  30   2.0000      -0.839094       -22.8329
  31   2.0000      -0.815463       -22.1899
  32   2.0000      -0.778236       -21.1769
  33   2.0000      -0.766481       -20.8570
  34   2.0000      -0.711222       -19.3533
  35   2.0000      -0.697610       -18.9829
  36   2.0000      -0.692674       -18.8486
  37   2.0000      -0.657190       -17.8830
  38   2.0000      -0.637810       -17.3557
  39   2.0000      -0.621000       -16.8983
  40   2.0000      -0.595810       -16.2128
  41   2.0000      -0.566268       -15.4089
  42   2.0000      -0.561763       -15.2863
  43   2.0000      -0.548416       -14.9232
  44   2.0000      -0.543273       -14.7832
  45   2.0000      -0.538725       -14.6594
  46   2.0000      -0.517278       -14.0759
  47   2.0000      -0.508142       -13.8273
  48   2.0000      -0.501915       -13.6578
  49   2.0000      -0.495712       -13.4890
  50   2.0000      -0.489286       -13.3141
  51   2.0000      -0.473922       -12.8961
  52   2.0000      -0.471296       -12.8246
  53   2.0000      -0.460339       -12.5264
  54   2.0000      -0.458326       -12.4717
  55   2.0000      -0.447622       -12.1804
  56   2.0000      -0.440680       -11.9915
  57   2.0000      -0.436676       -11.8825
  58   2.0000      -0.431610       -11.7447
  59   2.0000      -0.425263       -11.5720
  60   2.0000      -0.417087       -11.3495
  61   2.0000      -0.411518       -11.1980
  62   2.0000      -0.403015       -10.9666
  63   2.0000      -0.343647        -9.3511
  64   2.0000      -0.325574        -8.8593
  65   2.0000      -0.322225        -8.7682
  66   2.0000      -0.297107        -8.0847
  67   0.0000       0.033424         0.9095
  68   0.0000       0.062605         1.7036
  69   0.0000       0.110229         2.9995
  70   0.0000       0.116496         3.1700
  71   0.0000       0.121459         3.3051

MULLIKEN ATOMIC CHARGES
-----------------------
   0 S :    0.122863
   1 C :   -0.095549
   2 C :   -0.107581
   3 C :    0.076449
   4 C :   -0.164337
   5 H :    0.009589
   6 C :   -0.008981
   7 H :    0.034096
   8 H :    0.061133
   9 C :   -0.070432
  10 H :    0.031763
  11 H :    0.024230
  12 C :   -0.026838
  13 H :    0.025029
  14 H :    0.023342
  15 H :    0.040952
  16 S :    0.116511
  17 C :   -0.087431
  18 C :   -0.019226
  19 C :   -0.058917
  20 C :   -0.154765
  21 H :    0.012906
  22 C :    0.033915
  23 H :    0.036396
  24 H :    0.022334
  25 C :   -0.014445
  26 H :    0.034554
  27 H :    0.007735
  28 C :   -0.075111
  29 H :    0.024214
  30 H :    0.033479
  31 H :    0.024978
  32 H :    0.024910
  33 H :    0.062234
Sum of atomic charges:    0.0000000

LOEWDIN ATOMIC CHARGES
----------------------
   0 S :    0.402987
   1 C :   -0.194276
   2 C :   -0.061601
   3 C :   -0.044259
   4 C :   -0.183984
   5 H :    0.028306
   6 C :   -0.047081
   7 H :    0.039320
   8 H :    0.045895
   9 C :   -0.049302
  10 H :    0.027152
  11 H :    0.026891
  12 C :   -0.065740
  13 H :    0.018733
  14 H :    0.027010
  15 H :    0.032772
  16 S :    0.429748
  17 C :   -0.194433
  18 C :   -0.070911
  19 C :   -0.053830
  20 C :   -0.221348
  21 H :    0.026528
  22 C :   -0.038389
  23 H :    0.036794
  24 H :    0.025583
  25 C :   -0.030769
  26 H :    0.031745
  27 H :    0.008729
  28 C :   -0.067432
  29 H :    0.014529
  30 H :    0.022003
  31 H :    0.029969
  32 H :    0.015542
  33 H :    0.033120

  Mayer bond orders larger than 0.100000
B(  0-S ,  1-C ) :   1.1320 B(  0-S ,  4-C ) :   1.1497 B(  1-C ,  2-C ) :   1.6174
B(  1-C , 32-H ) :   0.9720 B(  2-C ,  3-C ) :   1.2190 B(  2-C ,  6-C ) :   1.0283
B(  3-C ,  4-C ) :   1.5793 B(  3-C ,  5-H ) :   0.9940 B(  4-C , 20-C ) :   1.0228
B(  6-C ,  7-H ) :   0.9430 B(  6-C ,  8-H ) :   0.9282 B(  6-C ,  9-C ) :   1.0811
B(  9-C , 10-H ) :   0.9467 B(  9-C , 11-H ) :   0.9481 B(  9-C , 12-C ) :   1.0860
B( 12-C , 13-H ) :   0.9718 B( 12-C , 14-H ) :   0.9689 B( 12-C , 15-H ) :   0.9735
B( 16-S , 17-C ) :   1.1723 B( 16-S , 20-C ) :   1.1571 B( 17-C , 18-C ) :   1.5687
B( 17-C , 33-H ) :   0.9692 B( 18-C , 19-C ) :   1.2785 B( 18-C , 21-H ) :   0.9911
B( 19-C , 20-C ) :   1.5666 B( 19-C , 22-C ) :   1.0249 B( 22-C , 23-H ) :   0.9471
B( 22-C , 24-H ) :   0.9411 B( 22-C , 25-C ) :   1.0678 B( 25-C , 26-H ) :   0.9616
B( 25-C , 27-H ) :   0.9593 B( 25-C , 28-C ) :   1.0593 B( 28-C , 29-H ) :   0.9756
B( 28-C , 30-H ) :   0.9775 B( 28-C , 31-H ) :   0.9766

Dispersion correction           -0.015076206
FINAL SINGLE POINT ENERGY     -1339.868166811643

DIPOLE MOMENT
-------------
                                X             Y             Z
Electronic contribution:     10.40031     -22.37630      -2.37039
Nuclear contribution   :    -10.54744      22.93170       2.06598
                        -----------------------------------------
Total Dipole Moment    :     -0.14713       0.55540      -0.30441
                        -----------------------------------------
Magnitude (a.u.)       :      0.65022
Magnitude (Debye)      :      1.65272

Rotational constants in cm-1:     0.019560     0.008677     0.007539
Rotational constants in MHz :   586.402783   260.125829   226.026868

                             ****ORCA TERMINATED NORMALLY****
TOTAL RUN TIME: 0 days 0 hours 0 minutes 22 seconds 109 msec
