                         Program Version 4.2.1 -  RELEASE  -
|  1> ! wB97X-D3 SP def2-SVP
|  2> %pal
|  3> nprocs 24
|  4> end
|  5>
|  6> * xyz 0 1
|  7> S 	 23.0609 	 -24.8499 	 -120.707
|  8> C 	 24.616 	 -25.6505 	 -120.885
|  9> C 	 25.3349 	 -25.5801 	 -119.691
| 10> C 	 24.7157 	 -24.6491 	 -118.768
| 11> C 	 23.4352 	 -24.3201 	 -119.087
| 12> H 	 25.1341 	 -24.4471 	 -117.704
| 13> C 	 26.6307 	 -26.3721 	 -119.461
| 14> H 	 27.2142 	 -25.8916 	 -118.703
| 15> H 	 27.2254 	 -26.3623 	 -120.355
| 16> C 	 26.4511 	 -27.8115 	 -119.06
| 17> H 	 25.9071 	 -27.7761 	 -118.155
| 18> H 	 25.8036 	 -28.3695 	 -119.769
| 19> C 	 27.7664 	 -28.5536 	 -118.78
| 20> H 	 28.3315 	 -28.1023 	 -118.021
| 21> H 	 27.6168 	 -29.5698 	 -118.42
| 22> H 	 28.3385 	 -28.5833 	 -119.681
| 23> S 	 21.566 	 -24.2622 	 -117.076
| 24> C 	 20.9845 	 -22.7272 	 -116.513
| 25> C 	 21.4536 	 -21.7118 	 -117.313
| 26> C 	 22.4166 	 -22.1048 	 -118.321
| 27> C 	 22.5214 	 -23.5236 	 -118.306
| 28> H 	 21.1855 	 -20.6511 	 -117.111
| 29> C 	 23.1966 	 -21.0602 	 -119.089
| 30> H 	 24.1157 	 -21.4197 	 -119.597
| 31> H 	 23.5432 	 -20.3674 	 -118.331
| 32> C 	 22.3699 	 -20.2018 	 -120.068
| 33> H 	 21.4569 	 -19.8555 	 -119.549
| 34> H 	 21.9064 	 -20.8144 	 -120.868
| 35> C 	 23.1397 	 -18.9401 	 -120.624
| 36> H 	 24.1295 	 -19.1214 	 -120.835
| 37> H 	 23.1549 	 -18.108 	 -119.914
| 38> H 	 22.6528 	 -18.5854 	 -121.504
| 39> H 	 24.8922 	 -26.2896 	 -121.723
| 40> H 	 20.2034 	 -22.5401 	 -115.879
| 41> *
| 42>
| 43>                          ****END OF INPUT****

CARTESIAN COORDINATES (ANGSTROEM)
---------------------------------
  S     23.060900  -24.849900  -120.707000
  C     24.616000  -25.650500  -120.885000
  C     25.334900  -25.580100  -119.691000
  C     24.715700  -24.649100  -118.768000
  C     23.435200  -24.320100  -119.087000
  H     25.134100  -24.447100  -117.704000
  C     26.630700  -26.372100  -119.461000
  H     27.214200  -25.891600  -118.703000
  H     27.225400  -26.362300  -120.355000
  C     26.451100  -27.811500  -119.060000
  H     25.907100  -27.776100  -118.155000
  H     25.803600  -28.369500  -119.769000
  C     27.766400  -28.553600  -118.780000
  H     28.331500  -28.102300  -118.021000
  H     27.616800  -29.569800  -118.420000
  H     28.338500  -28.583300  -119.681000
  S     21.566000  -24.262200  -117.076000
  C     20.984500  -22.727200  -116.513000
  C     21.453600  -21.711800  -117.313000
  C     22.416600  -22.104800  -118.321000
  C     22.521400  -23.523600  -118.306000
  H     21.185500  -20.651100  -117.111000
  C     23.196600  -21.060200  -119.089000
  H     24.115700  -21.419700  -119.597000
  H     23.543200  -20.367400  -118.331000
  C     22.369900  -20.201800  -120.068000
  H     21.456900  -19.855500  -119.549000
  H     21.906400  -20.814400  -120.868000
  C     23.139700  -18.940100  -120.624000
  H     24.129500  -19.121400  -120.835000
  H     23.154900  -18.108000  -119.914000
  H     22.652800  -18.585400  -121.504000
  H     24.892200  -26.289600  -121.723000
  H     20.203400  -22.540100  -115.879000

 Total Charge           Charge          ....    0
 Multiplicity           Mult            ....    1
 Number of Electrons    NEL             ....  134
 Basis Dimension        Dim             ....  322

ORBITAL ENERGIES
----------------

  NO   OCC          E(Eh)            E(eV)
   0   2.0000     -88.968448     -2420.9545
   1   2.0000     -88.963613     -2420.8230
   2   2.0000     -10.325378      -280.9678
   3   2.0000     -10.323778      -280.9243
   4   2.0000     -10.314866      -280.6818
   5   2.0000     -10.309826      -280.5446
   6   2.0000     -10.308352      -280.5045
   7   2.0000     -10.304402      -280.3970
   8   2.0000     -10.300026      -280.2780
   9   2.0000     -10.295595      -280.1574
  10   2.0000     -10.293842      -280.1097
  11   2.0000     -10.290675      -280.0235
  12   2.0000     -10.287094      -279.9261
  13   2.0000     -10.280317      -279.7416
  14   2.0000     -10.272540      -279.5300
  15   2.0000     -10.271827      -279.5106
  16   2.0000      -8.083565      -219.9650
  17   2.0000      -8.078329      -219.8225
  18   2.0000      -6.042048      -164.4125
  19   2.0000      -6.037905      -164.2997
  20   2.0000      -6.036854      -164.2712
  21   2.0000      -6.034452      -164.2058
  22   2.0000      -6.032767      -164.1599
  23   2.0000      -6.029131      -164.0610
  24   2.0000      -1.006922       -27.3997
  25   2.0000      -0.983294       -26.7568
  26   2.0000      -0.914432       -24.8830
  27   2.0000      -0.904684       -24.6177
  28   2.0000      -0.870738       -23.6940
  29   2.0000      -0.847176       -23.0528
  30   2.0000      -0.843720       -22.9588
  31   2.0000      -0.814528       -22.1644
  32   2.0000      -0.786242       -21.3947
  33   2.0000      -0.772849       -21.0303
  34   2.0000      -0.707038       -19.2395
  35   2.0000      -0.701030       -19.0760
  36   2.0000      -0.697365       -18.9763
  37   2.0000      -0.656092       -17.8532
  38   2.0000      -0.639019       -17.3886
  39   2.0000      -0.615253       -16.7419
  40   2.0000      -0.599560       -16.3149
  41   2.0000      -0.571197       -15.5431
  42   2.0000      -0.564199       -15.3526
  43   2.0000      -0.552384       -15.0311
  44   2.0000      -0.526786       -14.3346
  45   2.0000      -0.520008       -14.1501
  46   2.0000      -0.518347       -14.1049
  47   2.0000      -0.510012       -13.8781
  48   2.0000      -0.503383       -13.6978
  49   2.0000      -0.501039       -13.6340
  50   2.0000      -0.498387       -13.5618
  51   2.0000      -0.474289       -12.9061
  52   2.0000      -0.468880       -12.7589
  53   2.0000      -0.465131       -12.6569
  54   2.0000      -0.457136       -12.4393
  55   2.0000      -0.450366       -12.2551
  56   2.0000      -0.446620       -12.1531
  57   2.0000      -0.441942       -12.0258
  58   2.0000      -0.435591       -11.8530
  59   2.0000      -0.426435       -11.6039
  60   2.0000      -0.420016       -11.4292
  61   2.0000      -0.418711       -11.3937
  62   2.0000      -0.413093       -11.2408
  63   2.0000      -0.335480        -9.1289
  64   2.0000      -0.329786        -8.9739
  65   2.0000      -0.316280        -8.6064
  66   2.0000      -0.312567        -8.5054
  67   0.0000       0.048913         1.3310
  68   0.0000       0.052531         1.4294
  69   0.0000       0.114169         3.1067
  70   0.0000       0.122709         3.3391
  71   0.0000       0.129049         3.5116

MULLIKEN ATOMIC CHARGES
-----------------------
   0 S :    0.113498
   1 C :   -0.124786
   2 C :   -0.108116
   3 C :    0.028280
   4 C :   -0.179905
   5 H :    0.046838
   6 C :    0.084313
   7 H :    0.007844
   8 H :    0.015721
   9 C :   -0.067716
  10 H :    0.012884
  11 H :    0.028717
  12 C :   -0.014160
  13 H :    0.015688
  14 H :    0.033365
  15 H :    0.022898
  16 S :    0.130876
  17 C :   -0.050955
  18 C :   -0.063869
  19 C :   -0.002351
  20 C :   -0.200217
  21 H :    0.032368
  22 C :    0.080918
  23 H :    0.040322
  24 H :    0.024068
  25 C :   -0.113998
  26 H :    0.022813
  27 H :    0.035712
  28 C :   -0.003093
  29 H :    0.013394
  30 H :    0.026524
  31 H :    0.029004
  32 H :    0.055386
  33 H :    0.027735
Sum of atomic charges:   -0.0000000

LOEWDIN ATOMIC CHARGES
----------------------
   0 S :    0.404797
   1 C :   -0.197498
   2 C :   -0.059106
   3 C :   -0.071945
   4 C :   -0.205721
   5 H :    0.047393
   6 C :   -0.028708
   7 H :    0.025596
   8 H :    0.025793
   9 C :   -0.038484
  10 H :    0.018027
  11 H :    0.024974
  12 C :   -0.056846
  13 H :    0.017965
  14 H :    0.029960
  15 H :    0.021006
  16 S :    0.432622
  17 C :   -0.186542
  18 C :   -0.068923
  19 C :   -0.045966
  20 C :   -0.219715
  21 H :    0.034213
  22 C :   -0.035528
  23 H :    0.035583
  24 H :    0.033662
  25 C :   -0.041061
  26 H :    0.022394
  27 H :    0.026365
  28 C :   -0.055718
  29 H :    0.013057
  30 H :    0.026943
  31 H :    0.026494
  32 H :    0.030069
  33 H :    0.014849

  Mayer bond orders larger than 0.100000
B(  0-S ,  1-C ) :   1.1391 B(  0-S ,  4-C ) :   1.1472 B(  1-C ,  2-C ) :   1.6144
B(  1-C , 32-H ) :   0.9676 B(  2-C ,  3-C ) :   1.2365 B(  2-C ,  6-C ) :   1.0256
B(  3-C ,  4-C ) :   1.6156 B(  3-C ,  5-H ) :   0.9736 B(  4-C , 20-C ) :   1.0101
B(  6-C ,  7-H ) :   0.9384 B(  6-C ,  8-H ) :   0.9402 B(  6-C ,  9-C ) :   1.0681
B(  9-C , 10-H ) :   0.9511 B(  9-C , 11-H ) :   0.9560 B(  9-C , 12-C ) :   1.0856
B( 12-C , 13-H ) :   0.9728 B( 12-C , 14-H ) :   0.9726 B( 12-C , 15-H ) :   0.9757
B( 16-S , 17-C ) :   1.1485 B( 16-S , 20-C ) :   1.1682 B( 17-C , 18-C ) :   1.6251
B( 17-C , 33-H ) :   0.9720 B( 18-C , 19-C ) :   1.2489 B( 18-C , 21-H ) :   0.9741
B( 19-C , 20-C ) :   1.5714 B( 19-C , 22-C ) :   1.0439 B( 22-C , 23-H ) :   0.9335
B( 22-C , 24-H ) :   0.9342 B( 22-C , 25-C ) :   1.0541 B( 25-C , 26-H ) :   0.9590
B( 25-C , 27-H ) :   0.9582 B( 25-C , 28-C ) :   1.0682 B( 28-C , 29-H ) :   0.9777
B( 28-C , 30-H ) :   0.9755 B( 28-C , 31-H ) :   0.9753

Dispersion correction           -0.013677138
FINAL SINGLE POINT ENERGY     -1339.879935667599

DIPOLE MOMENT
-------------
                                X             Y             Z
Electronic contribution:    -17.19424      -4.43246       4.20893
Nuclear contribution   :     17.55727       4.65214      -4.08659
                        -----------------------------------------
Total Dipole Moment    :      0.36304       0.21968       0.12234
                        -----------------------------------------
Magnitude (a.u.)       :      0.44161
Magnitude (Debye)      :      1.12249

Rotational constants in cm-1:     0.020655     0.007144     0.006056
Rotational constants in MHz :   619.234782   214.165424   181.552552

                             ****ORCA TERMINATED NORMALLY****
TOTAL RUN TIME: 0 days 0 hours 0 minutes 20 seconds 355 msec
