                         Program Version 4.2.1 -  RELEASE  -
|  1> ! wB97X-D3 SP def2-SVP
|  2> %pal
|  3> nprocs 24
|  4> end
|  5>
|  6> * xyz 0 1
|  7> S 	 -106.608 	 56.73 	 -90.8978
|  8> C 	 -105.014 	 57.1853 	 -90.4246
|  9> C 	 -104.447 	 56.356 	 -89.5475
| 10> C 	 -105.304 	 55.2876 	 -89.1653
| 11> C 	 -106.522 	 55.3196 	 -89.7993
| 12> H 	 -104.929 	 54.4648 	 -88.5045
| 13> C 	 -103.054 	 56.4838 	 -89.0828
| 14> H 	 -102.948 	 55.8876 	 -88.1655
| 15> H 	 -102.796 	 57.5057 	 -88.7778
| 16> C 	 -102.002 	 55.9301 	 -90.0696
| 17> H 	 -102.005 	 54.8656 	 -90.2069
| 18> H 	 -102.324 	 56.4122 	 -91.0316
| 19> C 	 -100.563 	 56.3268 	 -89.7061
| 20> H 	 -100.498 	 57.3765 	 -89.5925
| 21> H 	 -100.158 	 55.8881 	 -88.8366
| 22> H 	 -99.9385 	 56.0267 	 -90.5274
| 23> S 	 -108.487 	 54.1561 	 -88.2117
| 24> C 	 -109.192 	 52.6827 	 -88.7702
| 25> C 	 -108.911 	 52.4798 	 -90.0917
| 26> C 	 -108.123 	 53.4974 	 -90.6773
| 27> C 	 -107.59 	 54.3237 	 -89.7354
| 28> H 	 -109.243 	 51.5684 	 -90.592
| 29> C 	 -107.873 	 53.6189 	 -92.1438
| 30> H 	 -107.698 	 52.6192 	 -92.5867
| 31> H 	 -106.902 	 54.1598 	 -92.2595
| 32> C 	 -108.974 	 54.2442 	 -93.0102
| 33> H 	 -109.375 	 55.0818 	 -92.4465
| 34> H 	 -109.684 	 53.5189 	 -93.1589
| 35> C 	 -108.372 	 54.5646 	 -94.4607
| 36> H 	 -109.021 	 54.9399 	 -95.2017
| 37> H 	 -107.905 	 53.6469 	 -94.9256
| 38> H 	 -107.589 	 55.2641 	 -94.2996
| 39> H 	 -104.504 	 58.1308 	 -90.6832
| 40> H 	 -109.813 	 52.1456 	 -88.1327
| 41> *
| 42>
| 43>                          ****END OF INPUT****

CARTESIAN COORDINATES (ANGSTROEM)
---------------------------------
  S    -106.608000   56.730000  -90.897800
  C    -105.014000   57.185300  -90.424600
  C    -104.447000   56.356000  -89.547500
  C    -105.304000   55.287600  -89.165300
  C    -106.522000   55.319600  -89.799300
  H    -104.929000   54.464800  -88.504500
  C    -103.054000   56.483800  -89.082800
  H    -102.948000   55.887600  -88.165500
  H    -102.796000   57.505700  -88.777800
  C    -102.002000   55.930100  -90.069600
  H    -102.005000   54.865600  -90.206900
  H    -102.324000   56.412200  -91.031600
  C    -100.563000   56.326800  -89.706100
  H    -100.498000   57.376500  -89.592500
  H    -100.158000   55.888100  -88.836600
  H    -99.938500   56.026700  -90.527400
  S    -108.487000   54.156100  -88.211700
  C    -109.192000   52.682700  -88.770200
  C    -108.911000   52.479800  -90.091700
  C    -108.123000   53.497400  -90.677300
  C    -107.590000   54.323700  -89.735400
  H    -109.243000   51.568400  -90.592000
  C    -107.873000   53.618900  -92.143800
  H    -107.698000   52.619200  -92.586700
  H    -106.902000   54.159800  -92.259500
  C    -108.974000   54.244200  -93.010200
  H    -109.375000   55.081800  -92.446500
  H    -109.684000   53.518900  -93.158900
  C    -108.372000   54.564600  -94.460700
  H    -109.021000   54.939900  -95.201700
  H    -107.905000   53.646900  -94.925600
  H    -107.589000   55.264100  -94.299600
  H    -104.504000   58.130800  -90.683200
  H    -109.813000   52.145600  -88.132700

 Total Charge           Charge          ....    0
 Multiplicity           Mult            ....    1
 Number of Electrons    NEL             ....  134
 Basis Dimension        Dim             ....  322

ORBITAL ENERGIES
----------------

  NO   OCC          E(Eh)            E(eV)
   0   2.0000     -88.967241     -2420.9217
   1   2.0000     -88.959194     -2420.7027
   2   2.0000     -10.331637      -281.1381
   3   2.0000     -10.322702      -280.8950
   4   2.0000     -10.309589      -280.5382
   5   2.0000     -10.308262      -280.5021
   6   2.0000     -10.297770      -280.2166
   7   2.0000     -10.297143      -280.1995
   8   2.0000     -10.290466      -280.0178
   9   2.0000     -10.289245      -279.9846
  10   2.0000     -10.289055      -279.9794
  11   2.0000     -10.287986      -279.9503
  12   2.0000     -10.287793      -279.9451
  13   2.0000     -10.282426      -279.7990
  14   2.0000     -10.277257      -279.6584
  15   2.0000     -10.270077      -279.4630
  16   2.0000      -8.081565      -219.9106
  17   2.0000      -8.074551      -219.7197
  18   2.0000      -6.040074      -164.3588
  19   2.0000      -6.036166      -164.2524
  20   2.0000      -6.032995      -164.1661
  21   2.0000      -6.032325      -164.1479
  22   2.0000      -6.029063      -164.0591
  23   2.0000      -6.025245      -163.9553
  24   2.0000      -1.009907       -27.4810
  25   2.0000      -0.991308       -26.9749
  26   2.0000      -0.913935       -24.8694
  27   2.0000      -0.906404       -24.6645
  28   2.0000      -0.870679       -23.6924
  29   2.0000      -0.852281       -23.1917
  30   2.0000      -0.847321       -23.0568
  31   2.0000      -0.815652       -22.1950
  32   2.0000      -0.781385       -21.2626
  33   2.0000      -0.772117       -21.0104
  34   2.0000      -0.708671       -19.2839
  35   2.0000      -0.702314       -19.1109
  36   2.0000      -0.700421       -19.0594
  37   2.0000      -0.664698       -18.0874
  38   2.0000      -0.635084       -17.2815
  39   2.0000      -0.619744       -16.8641
  40   2.0000      -0.599062       -16.3013
  41   2.0000      -0.572100       -15.5676
  42   2.0000      -0.569034       -15.4842
  43   2.0000      -0.560193       -15.2436
  44   2.0000      -0.528164       -14.3721
  45   2.0000      -0.523585       -14.2475
  46   2.0000      -0.519905       -14.1473
  47   2.0000      -0.511481       -13.9181
  48   2.0000      -0.504753       -13.7350
  49   2.0000      -0.502261       -13.6672
  50   2.0000      -0.493424       -13.4268
  51   2.0000      -0.472638       -12.8611
  52   2.0000      -0.465093       -12.6558
  53   2.0000      -0.461855       -12.5677
  54   2.0000      -0.458876       -12.4867
  55   2.0000      -0.452354       -12.3092
  56   2.0000      -0.450086       -12.2475
  57   2.0000      -0.440953       -11.9989
  58   2.0000      -0.432274       -11.7628
  59   2.0000      -0.428591       -11.6625
  60   2.0000      -0.423334       -11.5195
  61   2.0000      -0.417689       -11.3659
  62   2.0000      -0.410811       -11.1787
  63   2.0000      -0.342972        -9.3327
  64   2.0000      -0.331150        -9.0111
  65   2.0000      -0.325429        -8.8554
  66   2.0000      -0.299483        -8.1493
  67   0.0000       0.035709         0.9717
  68   0.0000       0.064927         1.7668
  69   0.0000       0.106345         2.8938
  70   0.0000       0.118574         3.2266
  71   0.0000       0.128773         3.5041

MULLIKEN ATOMIC CHARGES
-----------------------
   0 S :    0.112051
   1 C :   -0.125359
   2 C :   -0.083675
   3 C :    0.036193
   4 C :   -0.169863
   5 H :    0.033810
   6 C :    0.058444
   7 H :    0.011950
   8 H :    0.025235
   9 C :   -0.086813
  10 H :    0.029427
  11 H :    0.026158
  12 C :   -0.002473
  13 H :    0.014936
  14 H :    0.023119
  15 H :    0.030218
  16 S :    0.099985
  17 C :   -0.067114
  18 C :   -0.028450
  19 C :    0.003702
  20 C :   -0.173299
  21 H :    0.020268
  22 C :    0.003066
  23 H :    0.016304
  24 H :    0.033508
  25 C :   -0.009990
  26 H :    0.034155
  27 H :    0.011621
  28 C :   -0.049980
  29 H :    0.030949
  30 H :    0.030417
  31 H :    0.026529
  32 H :    0.050658
  33 H :    0.034311
Sum of atomic charges:   -0.0000000

LOEWDIN ATOMIC CHARGES
----------------------
   0 S :    0.399661
   1 C :   -0.201438
   2 C :   -0.078181
   3 C :   -0.052856
   4 C :   -0.183464
   5 H :    0.043627
   6 C :   -0.035601
   7 H :    0.028033
   8 H :    0.030827
   9 C :   -0.034056
  10 H :    0.021814
  11 H :    0.026137
  12 C :   -0.057306
  13 H :    0.018297
  14 H :    0.019498
  15 H :    0.028233
  16 S :    0.398522
  17 C :   -0.174497
  18 C :   -0.071517
  19 C :   -0.058300
  20 C :   -0.190544
  21 H :    0.033765
  22 C :   -0.039857
  23 H :    0.029149
  24 H :    0.027744
  25 C :   -0.022362
  26 H :    0.023668
  27 H :    0.011141
  28 C :   -0.059729
  29 H :    0.018285
  30 H :    0.031772
  31 H :    0.019847
  32 H :    0.035294
  33 H :    0.014393

  Mayer bond orders larger than 0.100000
B(  0-S ,  1-C ) :   1.1306 B(  0-S ,  4-C ) :   1.1334 B(  1-C ,  2-C ) :   1.6463
B(  1-C , 32-H ) :   0.9544 B(  2-C ,  3-C ) :   1.2456 B(  2-C ,  6-C ) :   1.0380
B(  3-C ,  4-C ) :   1.5950 B(  3-C ,  5-H ) :   0.9840 B(  4-C , 20-C ) :   1.0132
B(  6-C ,  7-H ) :   0.9311 B(  6-C ,  8-H ) :   0.9399 B(  6-C ,  9-C ) :   1.0555
B(  9-C , 10-H ) :   0.9563 B(  9-C , 11-H ) :   0.9586 B(  9-C , 12-C ) :   1.0839
B( 12-C , 13-H ) :   0.9739 B( 12-C , 14-H ) :   0.9748 B( 12-C , 15-H ) :   0.9722
B( 16-S , 17-C ) :   1.1551 B( 16-S , 20-C ) :   1.1414 B( 17-C , 18-C ) :   1.5978
B( 17-C , 33-H ) :   0.9801 B( 18-C , 19-C ) :   1.2227 B( 18-C , 21-H ) :   0.9951
B( 19-C , 20-C ) :   1.6021 B( 19-C , 22-C ) :   1.0593 B( 22-C , 23-H ) :   0.9289
B( 22-C , 24-H ) :   0.9358 B( 22-C , 25-C ) :   1.0524 B( 25-C , 26-H ) :   0.9596
B( 25-C , 27-H ) :   0.9549 B( 25-C , 28-C ) :   1.0672 B( 28-C , 29-H ) :   0.9782
B( 28-C , 30-H ) :   0.9742 B( 28-C , 31-H ) :   0.9800

Dispersion correction           -0.014183840
FINAL SINGLE POINT ENERGY     -1339.878200426517

DIPOLE MOMENT
-------------
                                X             Y             Z
Electronic contribution:    -17.20830       0.77463      13.72165
Nuclear contribution   :     17.61190      -0.99595     -13.89579
                        -----------------------------------------
Total Dipole Moment    :      0.40360      -0.22133      -0.17414
                        -----------------------------------------
Magnitude (a.u.)       :      0.49214
Magnitude (Debye)      :      1.25093

Rotational constants in cm-1:     0.019611     0.007856     0.006476
Rotational constants in MHz :   587.930019   235.503118   194.155602

                             ****ORCA TERMINATED NORMALLY****
TOTAL RUN TIME: 0 days 0 hours 0 minutes 21 seconds 237 msec
