                         Program Version 4.2.1 -  RELEASE  -
|  1> ! wB97X-D3 SP def2-SVP
|  2> %pal
|  3> nprocs 24
|  4> end
|  5>
|  6> * xyz 0 1
|  7> S 	 -63.2395 	 13.1768 	 -89.461
|  8> C 	 -64.493 	 13.6388 	 -90.6376
|  9> C 	 -64.952 	 14.9365 	 -90.3126
| 10> C 	 -64.3551 	 15.4646 	 -89.0836
| 11> C 	 -63.3499 	 14.6655 	 -88.5106
| 12> H 	 -64.6768 	 16.401 	 -88.739
| 13> C 	 -66.0556 	 15.5991 	 -91.1547
| 14> H 	 -66.1395 	 15.0126 	 -92.1086
| 15> H 	 -65.915 	 16.6809 	 -91.2991
| 16> C 	 -67.4199 	 15.5314 	 -90.5557
| 17> H 	 -67.5513 	 15.9904 	 -89.5206
| 18> H 	 -68.0101 	 16.2379 	 -91.12
| 19> C 	 -68.0799 	 14.1589 	 -90.6044
| 20> H 	 -68.1656 	 13.939 	 -91.6018
| 21> H 	 -67.4215 	 13.3746 	 -90.1357
| 22> H 	 -69.044 	 14.0885 	 -90.0546
| 23> S 	 -63.0446 	 13.7365 	 -85.9642
| 24> C 	 -62.5819 	 14.8578 	 -84.7055
| 25> C 	 -62.0611 	 16.0373 	 -85.2621
| 26> C 	 -62.1951 	 16.0119 	 -86.6831
| 27> C 	 -62.6809 	 14.8486 	 -87.2175
| 28> H 	 -61.6761 	 16.8135 	 -84.6406
| 29> C 	 -61.5886 	 17.0653 	 -87.6453
| 30> H 	 -61.5128 	 17.9929 	 -87.1284
| 31> H 	 -62.274 	 17.1849 	 -88.4265
| 32> C 	 -60.2954 	 16.6993 	 -88.2275
| 33> H 	 -59.9345 	 17.5055 	 -88.8073
| 34> H 	 -60.446 	 15.8754 	 -88.8984
| 35> C 	 -59.2026 	 16.2823 	 -87.1644
| 36> H 	 -59.0698 	 17.0165 	 -86.4451
| 37> H 	 -58.2474 	 15.8499 	 -87.5638
| 38> H 	 -59.6457 	 15.5156 	 -86.527
| 39> H 	 -64.89 	 13.0581 	 -91.4329
| 40> H 	 -62.6137 	 14.7742 	 -83.6633
| 41> *
| 42>
| 43>                          ****END OF INPUT****

CARTESIAN COORDINATES (ANGSTROEM)
---------------------------------
  S    -63.239500   13.176800  -89.461000
  C    -64.493000   13.638800  -90.637600
  C    -64.952000   14.936500  -90.312600
  C    -64.355100   15.464600  -89.083600
  C    -63.349900   14.665500  -88.510600
  H    -64.676800   16.401000  -88.739000
  C    -66.055600   15.599100  -91.154700
  H    -66.139500   15.012600  -92.108600
  H    -65.915000   16.680900  -91.299100
  C    -67.419900   15.531400  -90.555700
  H    -67.551300   15.990400  -89.520600
  H    -68.010100   16.237900  -91.120000
  C    -68.079900   14.158900  -90.604400
  H    -68.165600   13.939000  -91.601800
  H    -67.421500   13.374600  -90.135700
  H    -69.044000   14.088500  -90.054600
  S    -63.044600   13.736500  -85.964200
  C    -62.581900   14.857800  -84.705500
  C    -62.061100   16.037300  -85.262100
  C    -62.195100   16.011900  -86.683100
  C    -62.680900   14.848600  -87.217500
  H    -61.676100   16.813500  -84.640600
  C    -61.588600   17.065300  -87.645300
  H    -61.512800   17.992900  -87.128400
  H    -62.274000   17.184900  -88.426500
  C    -60.295400   16.699300  -88.227500
  H    -59.934500   17.505500  -88.807300
  H    -60.446000   15.875400  -88.898400
  C    -59.202600   16.282300  -87.164400
  H    -59.069800   17.016500  -86.445100
  H    -58.247400   15.849900  -87.563800
  H    -59.645700   15.515600  -86.527000
  H    -64.890000   13.058100  -91.432900
  H    -62.613700   14.774200  -83.663300

 Total Charge           Charge          ....    0
 Multiplicity           Mult            ....    1
 Number of Electrons    NEL             ....  134
 Basis Dimension        Dim             ....  322

ORBITAL ENERGIES
----------------

  NO   OCC          E(Eh)            E(eV)
   0   2.0000     -88.969358     -2420.9793
   1   2.0000     -88.967171     -2420.9198
   2   2.0000     -10.340780      -281.3869
   3   2.0000     -10.323538      -280.9178
   4   2.0000     -10.320696      -280.8404
   5   2.0000     -10.319933      -280.8196
   6   2.0000     -10.308993      -280.5220
   7   2.0000     -10.302303      -280.3399
   8   2.0000     -10.299710      -280.2694
   9   2.0000     -10.299479      -280.2631
  10   2.0000     -10.298152      -280.2270
  11   2.0000     -10.284716      -279.8614
  12   2.0000     -10.277629      -279.6685
  13   2.0000     -10.273532      -279.5570
  14   2.0000     -10.273215      -279.5484
  15   2.0000     -10.268543      -279.4213
  16   2.0000      -8.084611      -219.9935
  17   2.0000      -8.080843      -219.8909
  18   2.0000      -6.043185      -164.4434
  19   2.0000      -6.039455      -164.3419
  20   2.0000      -6.038806      -164.3243
  21   2.0000      -6.035457      -164.2331
  22   2.0000      -6.035351      -164.2302
  23   2.0000      -6.031687      -164.1306
  24   2.0000      -1.009900       -27.4808
  25   2.0000      -0.978685       -26.6314
  26   2.0000      -0.917271       -24.9602
  27   2.0000      -0.914342       -24.8805
  28   2.0000      -0.870761       -23.6946
  29   2.0000      -0.844077       -22.9685
  30   2.0000      -0.838951       -22.8290
  31   2.0000      -0.815493       -22.1907
  32   2.0000      -0.785765       -21.3818
  33   2.0000      -0.778598       -21.1867
  34   2.0000      -0.714072       -19.4309
  35   2.0000      -0.694395       -18.8955
  36   2.0000      -0.690475       -18.7888
  37   2.0000      -0.668293       -18.1852
  38   2.0000      -0.639865       -17.4116
  39   2.0000      -0.624227       -16.9861
  40   2.0000      -0.590334       -16.0638
  41   2.0000      -0.575120       -15.6498
  42   2.0000      -0.559714       -15.2306
  43   2.0000      -0.557519       -15.1709
  44   2.0000      -0.547189       -14.8898
  45   2.0000      -0.539991       -14.6939
  46   2.0000      -0.522390       -14.2150
  47   2.0000      -0.514490       -14.0000
  48   2.0000      -0.512291       -13.9402
  49   2.0000      -0.491109       -13.3638
  50   2.0000      -0.487856       -13.2752
  51   2.0000      -0.474028       -12.8990
  52   2.0000      -0.470748       -12.8097
  53   2.0000      -0.464050       -12.6274
  54   2.0000      -0.463302       -12.6071
  55   2.0000      -0.446174       -12.1410
  56   2.0000      -0.440690       -11.9918
  57   2.0000      -0.438705       -11.9378
  58   2.0000      -0.434346       -11.8192
  59   2.0000      -0.422885       -11.5073
  60   2.0000      -0.417864       -11.3706
  61   2.0000      -0.408504       -11.1159
  62   2.0000      -0.404132       -10.9970
  63   2.0000      -0.349055        -9.4983
  64   2.0000      -0.332876        -9.0580
  65   2.0000      -0.326559        -8.8861
  66   2.0000      -0.295977        -8.0539
  67   0.0000       0.027440         0.7467
  68   0.0000       0.060895         1.6570
  69   0.0000       0.110478         3.0063
  70   0.0000       0.119554         3.2532
  71   0.0000       0.131127         3.5681

MULLIKEN ATOMIC CHARGES
-----------------------
   0 S :    0.094387
   1 C :   -0.105415
   2 C :   -0.117841
   3 C :    0.078597
   4 C :   -0.155704
   5 H :   -0.006295
   6 C :    0.058447
   7 H :    0.027076
   8 H :    0.035490
   9 C :   -0.091469
  10 H :    0.030354
  11 H :    0.018216
  12 C :   -0.040634
  13 H :    0.006516
  14 H :    0.041387
  15 H :    0.043583
  16 S :    0.127221
  17 C :   -0.071018
  18 C :   -0.032336
  19 C :   -0.108538
  20 C :   -0.105005
  21 H :    0.015254
  22 C :    0.127805
  23 H :    0.002755
  24 H :    0.003016
  25 C :   -0.027941
  26 H :    0.020541
  27 H :    0.024487
  28 C :   -0.056518
  29 H :    0.003811
  30 H :    0.047972
  31 H :    0.031338
  32 H :    0.043810
  33 H :    0.036654
Sum of atomic charges:   -0.0000000

LOEWDIN ATOMIC CHARGES
----------------------
   0 S :    0.386060
   1 C :   -0.190159
   2 C :   -0.057130
   3 C :   -0.053632
   4 C :   -0.186444
   5 H :    0.019894
   6 C :   -0.032657
   7 H :    0.037061
   8 H :    0.036420
   9 C :   -0.051806
  10 H :    0.027077
  11 H :    0.019859
  12 C :   -0.065553
  13 H :    0.008843
  14 H :    0.031865
  15 H :    0.032987
  16 S :    0.437933
  17 C :   -0.173514
  18 C :   -0.068225
  19 C :   -0.049900
  20 C :   -0.223658
  21 H :    0.029387
  22 C :   -0.022247
  23 H :    0.020931
  24 H :    0.024299
  25 C :   -0.028883
  26 H :    0.019795
  27 H :    0.022972
  28 C :   -0.068551
  29 H :    0.010341
  30 H :    0.033109
  31 H :    0.027809
  32 H :    0.024107
  33 H :    0.021609

  Mayer bond orders larger than 0.100000
B(  0-S ,  1-C ) :   1.1326 B(  0-S ,  4-C ) :   1.1469 B(  1-C ,  2-C ) :   1.5903
B(  1-C , 32-H ) :   0.9725 B(  2-C ,  3-C ) :   1.2567 B(  2-C ,  6-C ) :   1.0371
B(  3-C ,  4-C ) :   1.5492 B(  3-C ,  5-H ) :   0.9945 B(  4-C , 20-C ) :   1.0162
B(  6-C ,  7-H ) :   0.9411 B(  6-C ,  8-H ) :   0.9379 B(  6-C ,  9-C ) :   1.0740
B(  9-C , 10-H ) :   0.9519 B(  9-C , 11-H ) :   0.9538 B(  9-C , 12-C ) :   1.0721
B( 12-C , 13-H ) :   0.9735 B( 12-C , 14-H ) :   0.9756 B( 12-C , 15-H ) :   0.9726
B( 16-S , 17-C ) :   1.1844 B( 16-S , 20-C ) :   1.1405 B( 17-C , 18-C ) :   1.5702
B( 17-C , 33-H ) :   0.9732 B( 18-C , 19-C ) :   1.2667 B( 18-C , 21-H ) :   0.9981
B( 19-C , 20-C ) :   1.5760 B( 19-C , 22-C ) :   1.0367 B( 22-C , 23-H ) :   0.9311
B( 22-C , 24-H ) :   0.9200 B( 22-C , 25-C ) :   1.0962 B( 25-C , 26-H ) :   0.9522
B( 25-C , 27-H ) :   0.9509 B( 25-C , 28-C ) :   1.0685 B( 28-C , 29-H ) :   0.9748
B( 28-C , 30-H ) :   0.9761 B( 28-C , 31-H ) :   0.9694

Dispersion correction           -0.015139051
FINAL SINGLE POINT ENERGY     -1339.859722216052

DIPOLE MOMENT
-------------
                                X             Y             Z
Electronic contribution:      4.65632     -13.05035       8.89316
Nuclear contribution   :     -4.99740      13.64705      -8.88611
                        -----------------------------------------
Total Dipole Moment    :     -0.34107       0.59670       0.00705
                        -----------------------------------------
Magnitude (a.u.)       :      0.68734
Magnitude (Debye)      :      1.74707

Rotational constants in cm-1:     0.023253     0.007763     0.007233
Rotational constants in MHz :   697.094116   232.715878   216.844334

                             ****ORCA TERMINATED NORMALLY****
TOTAL RUN TIME: 0 days 0 hours 0 minutes 22 seconds 165 msec
