                         Program Version 4.2.1 -  RELEASE  -
|  1> ! wB97X-D3 SP def2-SVP
|  2> %pal
|  3> nprocs 24
|  4> end
|  5>
|  6> * xyz 0 1
|  7> S 	 -135.389 	 4.77073 	 4.43389
|  8> C 	 -135.038 	 3.16942 	 3.84696
|  9> C 	 -133.85 	 2.67485 	 4.35633
| 10> C 	 -133.358 	 3.51308 	 5.37784
| 11> C 	 -134.159 	 4.63528 	 5.62954
| 12> H 	 -132.348 	 3.32706 	 5.82778
| 13> C 	 -133.211 	 1.31629 	 3.85198
| 14> H 	 -133.924 	 0.541432 	 3.64954
| 15> H 	 -132.72 	 0.837351 	 4.71393
| 16> C 	 -132.304 	 1.30046 	 2.65897
| 17> H 	 -132.972 	 1.51411 	 1.84577
| 18> H 	 -131.651 	 2.12357 	 2.82533
| 19> C 	 -131.384 	 0.0339041 	 2.3834
| 20> H 	 -130.599 	 -0.00149922 	 3.15549
| 21> H 	 -131.899 	 -0.906712 	 2.25806
| 22> H 	 -130.793 	 0.119201 	 1.46497
| 23> S 	 -133.019 	 6.99575 	 6.20176
| 24> C 	 -133.112 	 7.62992 	 7.86118
| 25> C 	 -133.791 	 6.83262 	 8.68312
| 26> C 	 -134.294 	 5.61669 	 8.01163
| 27> C 	 -133.931 	 5.56871 	 6.67622
| 28> H 	 -133.928 	 7.14951 	 9.67918
| 29> C 	 -135.019 	 4.52129 	 8.79714
| 30> H 	 -134.539 	 3.5831 	 8.40628
| 31> H 	 -136.124 	 4.483 	 8.50699
| 32> C 	 -134.999 	 4.5348 	 10.3527
| 33> H 	 -135.667 	 3.71354 	 10.6663
| 34> H 	 -135.455 	 5.46676 	 10.7102
| 35> C 	 -133.638 	 4.29353 	 11.0002
| 36> H 	 -133.76 	 4.17086 	 12.0842
| 37> H 	 -132.905 	 5.08445 	 10.7108
| 38> H 	 -133.203 	 3.39252 	 10.6004
| 39> H 	 -135.668 	 2.69549 	 3.00185
| 40> H 	 -132.622 	 8.54862 	 8.24682
| 41> *
| 42>
| 43>                          ****END OF INPUT****

CARTESIAN COORDINATES (ANGSTROEM)
---------------------------------
  S    -135.389000    4.770730    4.433890
  C    -135.038000    3.169420    3.846960
  C    -133.850000    2.674850    4.356330
  C    -133.358000    3.513080    5.377840
  C    -134.159000    4.635280    5.629540
  H    -132.348000    3.327060    5.827780
  C    -133.211000    1.316290    3.851980
  H    -133.924000    0.541432    3.649540
  H    -132.720000    0.837351    4.713930
  C    -132.304000    1.300460    2.658970
  H    -132.972000    1.514110    1.845770
  H    -131.651000    2.123570    2.825330
  C    -131.384000    0.033904    2.383400
  H    -130.599000   -0.001499    3.155490
  H    -131.899000   -0.906712    2.258060
  H    -130.793000    0.119201    1.464970
  S    -133.019000    6.995750    6.201760
  C    -133.112000    7.629920    7.861180
  C    -133.791000    6.832620    8.683120
  C    -134.294000    5.616690    8.011630
  C    -133.931000    5.568710    6.676220
  H    -133.928000    7.149510    9.679180
  C    -135.019000    4.521290    8.797140
  H    -134.539000    3.583100    8.406280
  H    -136.124000    4.483000    8.506990
  C    -134.999000    4.534800   10.352700
  H    -135.667000    3.713540   10.666300
  H    -135.455000    5.466760   10.710200
  C    -133.638000    4.293530   11.000200
  H    -133.760000    4.170860   12.084200
  H    -132.905000    5.084450   10.710800
  H    -133.203000    3.392520   10.600400
  H    -135.668000    2.695490    3.001850
  H    -132.622000    8.548620    8.246820

 Total Charge           Charge          ....    0
 Multiplicity           Mult            ....    1
 Number of Electrons    NEL             ....  134
 Basis Dimension        Dim             ....  322

ORBITAL ENERGIES
----------------

  NO   OCC          E(Eh)            E(eV)
   0   2.0000     -88.969509     -2420.9834
   1   2.0000     -88.959885     -2420.7215
   2   2.0000     -10.325652      -280.9753
   3   2.0000     -10.321602      -280.8651
   4   2.0000     -10.321250      -280.8555
   5   2.0000     -10.315005      -280.6856
   6   2.0000     -10.309003      -280.5222
   7   2.0000     -10.305744      -280.4336
   8   2.0000     -10.299509      -280.2639
   9   2.0000     -10.299113      -280.2531
  10   2.0000     -10.291988      -280.0592
  11   2.0000     -10.290782      -280.0264
  12   2.0000     -10.288619      -279.9675
  13   2.0000     -10.286058      -279.8979
  14   2.0000     -10.283451      -279.8269
  15   2.0000     -10.278033      -279.6795
  16   2.0000      -8.084821      -219.9992
  17   2.0000      -8.074499      -219.7183
  18   2.0000      -6.043120      -164.4417
  19   2.0000      -6.039249      -164.3363
  20   2.0000      -6.035766      -164.2415
  21   2.0000      -6.033205      -164.1719
  22   2.0000      -6.029098      -164.0601
  23   2.0000      -6.024982      -163.9481
  24   2.0000      -1.009288       -27.4641
  25   2.0000      -0.982467       -26.7343
  26   2.0000      -0.908525       -24.7222
  27   2.0000      -0.901683       -24.5360
  28   2.0000      -0.874673       -23.8011
  29   2.0000      -0.848357       -23.0850
  30   2.0000      -0.841168       -22.8894
  31   2.0000      -0.813525       -22.1371
  32   2.0000      -0.787156       -21.4196
  33   2.0000      -0.769500       -20.9391
  34   2.0000      -0.707357       -19.2482
  35   2.0000      -0.698794       -19.0152
  36   2.0000      -0.689050       -18.7500
  37   2.0000      -0.653281       -17.7767
  38   2.0000      -0.638541       -17.3756
  39   2.0000      -0.620779       -16.8923
  40   2.0000      -0.590352       -16.0643
  41   2.0000      -0.567185       -15.4339
  42   2.0000      -0.565475       -15.3873
  43   2.0000      -0.544768       -14.8239
  44   2.0000      -0.536523       -14.5995
  45   2.0000      -0.517962       -14.0945
  46   2.0000      -0.515935       -14.0393
  47   2.0000      -0.508769       -13.8443
  48   2.0000      -0.502083       -13.6624
  49   2.0000      -0.498698       -13.5703
  50   2.0000      -0.493985       -13.4420
  51   2.0000      -0.478726       -13.0268
  52   2.0000      -0.471038       -12.8176
  53   2.0000      -0.460846       -12.5403
  54   2.0000      -0.460363       -12.5271
  55   2.0000      -0.453339       -12.3360
  56   2.0000      -0.440069       -11.9749
  57   2.0000      -0.434223       -11.8158
  58   2.0000      -0.433631       -11.7997
  59   2.0000      -0.424744       -11.5579
  60   2.0000      -0.419594       -11.4177
  61   2.0000      -0.413993       -11.2653
  62   2.0000      -0.410287       -11.1645
  63   2.0000      -0.337952        -9.1961
  64   2.0000      -0.333173        -9.0661
  65   2.0000      -0.318109        -8.6562
  66   2.0000      -0.307965        -8.3802
  67   0.0000       0.042750         1.1633
  68   0.0000       0.053478         1.4552
  69   0.0000       0.116602         3.1729
  70   0.0000       0.120139         3.2692
  71   0.0000       0.129653         3.5280

MULLIKEN ATOMIC CHARGES
-----------------------
   0 S :    0.141738
   1 C :   -0.165287
   2 C :   -0.065655
   3 C :    0.027765
   4 C :   -0.185259
   5 H :    0.035351
   6 C :    0.053351
   7 H :    0.011296
   8 H :    0.009698
   9 C :   -0.039646
  10 H :    0.022205
  11 H :    0.019563
  12 C :   -0.057697
  13 H :    0.033876
  14 H :    0.035398
  15 H :    0.034594
  16 S :    0.094515
  17 C :   -0.082753
  18 C :   -0.032700
  19 C :   -0.007638
  20 C :   -0.188682
  21 H :    0.006859
  22 C :    0.024607
  23 H :    0.039225
  24 H :    0.054500
  25 C :   -0.083177
  26 H :    0.035281
  27 H :    0.032102
  28 C :   -0.049990
  29 H :    0.044011
  30 H :    0.039690
  31 H :    0.020716
  32 H :    0.081491
  33 H :    0.060653
Sum of atomic charges:    0.0000000

LOEWDIN ATOMIC CHARGES
----------------------
   0 S :    0.434112
   1 C :   -0.207629
   2 C :   -0.068597
   3 C :   -0.060153
   4 C :   -0.221723
   5 H :    0.042137
   6 C :   -0.035491
   7 H :    0.025336
   8 H :    0.026253
   9 C :   -0.038215
  10 H :    0.020645
  11 H :    0.020438
  12 C :   -0.065891
  13 H :    0.028334
  14 H :    0.022308
  15 H :    0.031325
  16 S :    0.380324
  17 C :   -0.174630
  18 C :   -0.074536
  19 C :   -0.046876
  20 C :   -0.203886
  21 H :    0.026579
  22 C :   -0.042460
  23 H :    0.037480
  24 H :    0.044370
  25 C :   -0.047144
  26 H :    0.031462
  27 H :    0.021863
  28 C :   -0.069851
  29 H :    0.029695
  30 H :    0.029004
  31 H :    0.022334
  32 H :    0.044912
  33 H :    0.038175

  Mayer bond orders larger than 0.100000
B(  0-S ,  1-C ) :   1.1650 B(  0-S ,  4-C ) :   1.1697 B(  1-C ,  2-C ) :   1.5808
B(  1-C ,  4-C ) :   0.1067 B(  1-C , 32-H ) :   0.9569 B(  2-C ,  3-C ) :   1.2970
B(  2-C ,  6-C ) :   1.0052 B(  3-C ,  4-C ) :   1.5348 B(  3-C ,  5-H ) :   0.9859
B(  4-C , 20-C ) :   1.0410 B(  6-C ,  7-H ) :   0.9446 B(  6-C ,  8-H ) :   0.9422
B(  6-C ,  9-C ) :   1.0593 B(  9-C , 10-H ) :   0.9576 B(  9-C , 11-H ) :   0.9573
B(  9-C , 12-C ) :   1.0761 B( 12-C , 13-H ) :   0.9749 B( 12-C , 14-H ) :   0.9786
B( 12-C , 15-H ) :   0.9748 B( 16-S , 17-C ) :   1.1219 B( 16-S , 20-C ) :   1.1284
B( 17-C , 18-C ) :   1.6918 B( 17-C , 33-H ) :   0.9536 B( 18-C , 19-C ) :   1.1778
B( 18-C , 21-H ) :   0.9891 B( 19-C , 20-C ) :   1.6567 B( 19-C , 22-C ) :   1.0251
B( 22-C , 23-H ) :   0.9380 B( 22-C , 24-H ) :   0.9309 B( 22-C , 25-C ) :   1.0873
B( 25-C , 26-H ) :   0.9517 B( 25-C , 27-H ) :   0.9475 B( 25-C , 28-C ) :   1.0784
B( 28-C , 29-H ) :   0.9738 B( 28-C , 30-H ) :   0.9737 B( 28-C , 31-H ) :   0.9713

Dispersion correction           -0.013758732
FINAL SINGLE POINT ENERGY     -1339.869961603952

DIPOLE MOMENT
-------------
                                X             Y             Z
Electronic contribution:     -7.39350      21.53302      -7.31154
Nuclear contribution   :      7.50201     -21.99848       7.56223
                        -----------------------------------------
Total Dipole Moment    :      0.10851      -0.46546       0.25069
                        -----------------------------------------
Magnitude (a.u.)       :      0.53969
Magnitude (Debye)      :      1.37179

Rotational constants in cm-1:     0.020515     0.006869     0.006202
Rotational constants in MHz :   615.027246   205.939254   185.926010

                             ****ORCA TERMINATED NORMALLY****
TOTAL RUN TIME: 0 days 0 hours 0 minutes 20 seconds 680 msec
