                         Program Version 4.2.1 -  RELEASE  -
|  1> ! wB97X-D3 SP def2-SVP
|  2> %pal
|  3> nprocs 24
|  4> end
|  5>
|  6> * xyz 0 1
|  7> S 	 -33.631 	 -34.0184 	 -97.2161
|  8> C 	 -34.3578 	 -33.4189 	 -98.5705
|  9> C 	 -34.7919 	 -32.0704 	 -98.4668
| 10> C 	 -34.4265 	 -31.6224 	 -97.1407
| 11> C 	 -33.7387 	 -32.5219 	 -96.3482
| 12> H 	 -34.4891 	 -30.5723 	 -96.715
| 13> C 	 -35.4173 	 -31.32 	 -99.622
| 14> H 	 -36.0457 	 -30.5748 	 -99.2198
| 15> H 	 -35.9219 	 -31.9741 	 -100.184
| 16> C 	 -34.3575 	 -30.5636 	 -100.5
| 17> H 	 -33.5381 	 -31.1471 	 -100.995
| 18> H 	 -34.8738 	 -29.9959 	 -101.301
| 19> C 	 -33.6224 	 -29.4669 	 -99.7238
| 20> H 	 -34.1588 	 -28.7637 	 -99.0714
| 21> H 	 -32.7612 	 -29.9548 	 -99.2467
| 22> H 	 -33.2261 	 -28.8166 	 -100.44
| 23> S 	 -33.7899 	 -33.2983 	 -93.7082
| 24> C 	 -32.6075 	 -32.5627 	 -92.5851
| 25> C 	 -31.9705 	 -31.4578 	 -93.1179
| 26> C 	 -32.3816 	 -31.1747 	 -94.4439
| 27> C 	 -33.2001 	 -32.2386 	 -94.9935
| 28> H 	 -31.2572 	 -30.8919 	 -92.5163
| 29> C 	 -31.8413 	 -30.0264 	 -95.2249
| 30> H 	 -32.3714 	 -30.0554 	 -96.1978
| 31> H 	 -30.7572 	 -30.1299 	 -95.4528
| 32> C 	 -31.9688 	 -28.5993 	 -94.6064
| 33> H 	 -31.6764 	 -28.5013 	 -93.5858
| 34> H 	 -33.0153 	 -28.3237 	 -94.5516
| 35> C 	 -31.4385 	 -27.4234 	 -95.4991
| 36> H 	 -31.7263 	 -26.4325 	 -95.1278
| 37> H 	 -31.908 	 -27.562 	 -96.4823
| 38> H 	 -30.3701 	 -27.398 	 -95.6312
| 39> H 	 -34.535 	 -33.9787 	 -99.5198
| 40> H 	 -32.5105 	 -32.9543 	 -91.5977
| 41> *
| 42>
| 43>                          ****END OF INPUT****

CARTESIAN COORDINATES (ANGSTROEM)
---------------------------------
  S    -33.631000  -34.018400  -97.216100
  C    -34.357800  -33.418900  -98.570500
  C    -34.791900  -32.070400  -98.466800
  C    -34.426500  -31.622400  -97.140700
  C    -33.738700  -32.521900  -96.348200
  H    -34.489100  -30.572300  -96.715000
  C    -35.417300  -31.320000  -99.622000
  H    -36.045700  -30.574800  -99.219800
  H    -35.921900  -31.974100  -100.184000
  C    -34.357500  -30.563600  -100.500000
  H    -33.538100  -31.147100  -100.995000
  H    -34.873800  -29.995900  -101.301000
  C    -33.622400  -29.466900  -99.723800
  H    -34.158800  -28.763700  -99.071400
  H    -32.761200  -29.954800  -99.246700
  H    -33.226100  -28.816600  -100.440000
  S    -33.789900  -33.298300  -93.708200
  C    -32.607500  -32.562700  -92.585100
  C    -31.970500  -31.457800  -93.117900
  C    -32.381600  -31.174700  -94.443900
  C    -33.200100  -32.238600  -94.993500
  H    -31.257200  -30.891900  -92.516300
  C    -31.841300  -30.026400  -95.224900
  H    -32.371400  -30.055400  -96.197800
  H    -30.757200  -30.129900  -95.452800
  C    -31.968800  -28.599300  -94.606400
  H    -31.676400  -28.501300  -93.585800
  H    -33.015300  -28.323700  -94.551600
  C    -31.438500  -27.423400  -95.499100
  H    -31.726300  -26.432500  -95.127800
  H    -31.908000  -27.562000  -96.482300
  H    -30.370100  -27.398000  -95.631200
  H    -34.535000  -33.978700  -99.519800
  H    -32.510500  -32.954300  -91.597700

 Total Charge           Charge          ....    0
 Multiplicity           Mult            ....    1
 Number of Electrons    NEL             ....  134
 Basis Dimension        Dim             ....  322

ORBITAL ENERGIES
----------------

  NO   OCC          E(Eh)            E(eV)
   0   2.0000     -88.968461     -2420.9549
   1   2.0000     -88.965573     -2420.8763
   2   2.0000     -10.335838      -281.2525
   3   2.0000     -10.326086      -280.9871
   4   2.0000     -10.317671      -280.7581
   5   2.0000     -10.313178      -280.6358
   6   2.0000     -10.309993      -280.5492
   7   2.0000     -10.304556      -280.4012
   8   2.0000     -10.298806      -280.2447
   9   2.0000     -10.296690      -280.1872
  10   2.0000     -10.294967      -280.1403
  11   2.0000     -10.294208      -280.1196
  12   2.0000     -10.286967      -279.9226
  13   2.0000     -10.286378      -279.9066
  14   2.0000     -10.281297      -279.7683
  15   2.0000     -10.272026      -279.5160
  16   2.0000      -8.085005      -220.0042
  17   2.0000      -8.079502      -219.8544
  18   2.0000      -6.043214      -164.4442
  19   2.0000      -6.039088      -164.3319
  20   2.0000      -6.037937      -164.3006
  21   2.0000      -6.036122      -164.2512
  22   2.0000      -6.034209      -164.1992
  23   2.0000      -6.030326      -164.0935
  24   2.0000      -1.008532       -27.4436
  25   2.0000      -0.981271       -26.7018
  26   2.0000      -0.912839       -24.8396
  27   2.0000      -0.902604       -24.5611
  28   2.0000      -0.867616       -23.6090
  29   2.0000      -0.850997       -23.1568
  30   2.0000      -0.847161       -23.0524
  31   2.0000      -0.816237       -22.2109
  32   2.0000      -0.785727       -21.3807
  33   2.0000      -0.766361       -20.8537
  34   2.0000      -0.705168       -19.1886
  35   2.0000      -0.697225       -18.9724
  36   2.0000      -0.691732       -18.8230
  37   2.0000      -0.656877       -17.8745
  38   2.0000      -0.641193       -17.4477
  39   2.0000      -0.615406       -16.7461
  40   2.0000      -0.596386       -16.2285
  41   2.0000      -0.575890       -15.6708
  42   2.0000      -0.562026       -15.2935
  43   2.0000      -0.551634       -15.0107
  44   2.0000      -0.544304       -14.8113
  45   2.0000      -0.524408       -14.2699
  46   2.0000      -0.517188       -14.0734
  47   2.0000      -0.510735       -13.8978
  48   2.0000      -0.504730       -13.7344
  49   2.0000      -0.496304       -13.5051
  50   2.0000      -0.489368       -13.3164
  51   2.0000      -0.475475       -12.9383
  52   2.0000      -0.466737       -12.7006
  53   2.0000      -0.460855       -12.5405
  54   2.0000      -0.458677       -12.4812
  55   2.0000      -0.453503       -12.3404
  56   2.0000      -0.443671       -12.0729
  57   2.0000      -0.434475       -11.8227
  58   2.0000      -0.431595       -11.7443
  59   2.0000      -0.430134       -11.7045
  60   2.0000      -0.425156       -11.5691
  61   2.0000      -0.416721       -11.3395
  62   2.0000      -0.415536       -11.3073
  63   2.0000      -0.346678        -9.4336
  64   2.0000      -0.331440        -9.0189
  65   2.0000      -0.324244        -8.8231
  66   2.0000      -0.287618        -7.8265
  67   0.0000       0.028852         0.7851
  68   0.0000       0.068523         1.8646
  69   0.0000       0.107648         2.9293
  70   0.0000       0.120109         3.2683
  71   0.0000       0.125855         3.4247

MULLIKEN ATOMIC CHARGES
-----------------------
   0 S :    0.153838
   1 C :   -0.132570
   2 C :   -0.143469
   3 C :    0.018021
   4 C :   -0.186385
   5 H :    0.033488
   6 C :    0.198579
   7 H :    0.014664
   8 H :   -0.009550
   9 C :   -0.110176
  10 H :    0.040486
  11 H :    0.031354
  12 C :   -0.062804
  13 H :    0.031037
  14 H :    0.048605
  15 H :    0.012061
  16 S :    0.097051
  17 C :   -0.092468
  18 C :   -0.022904
  19 C :   -0.005701
  20 C :   -0.166338
  21 H :    0.028483
  22 C :    0.051267
  23 H :    0.016063
  24 H :    0.044044
  25 C :   -0.081889
  26 H :    0.022647
  27 H :    0.019438
  28 C :   -0.056018
  29 H :    0.035835
  30 H :    0.029064
  31 H :    0.030266
  32 H :    0.063501
  33 H :    0.050483
Sum of atomic charges:    0.0000000

LOEWDIN ATOMIC CHARGES
----------------------
   0 S :    0.464987
   1 C :   -0.235133
   2 C :   -0.065707
   3 C :   -0.068541
   4 C :   -0.227864
   5 H :    0.038407
   6 C :   -0.011571
   7 H :    0.030557
   8 H :    0.013024
   9 C :   -0.037360
  10 H :    0.031587
  11 H :    0.023337
  12 C :   -0.073084
  13 H :    0.023738
  14 H :    0.029267
  15 H :    0.019162
  16 S :    0.386876
  17 C :   -0.166868
  18 C :   -0.067215
  19 C :   -0.053661
  20 C :   -0.189227
  21 H :    0.037130
  22 C :   -0.038990
  23 H :    0.032228
  24 H :    0.036789
  25 C :   -0.041303
  26 H :    0.015985
  27 H :    0.024353
  28 C :   -0.062911
  29 H :    0.028244
  30 H :    0.027053
  31 H :    0.017939
  32 H :    0.038262
  33 H :    0.020508

  Mayer bond orders larger than 0.100000
B(  0-S ,  1-C ) :   1.2001 B(  0-S ,  4-C ) :   1.1639 B(  1-C ,  2-C ) :   1.5497
B(  1-C , 32-H ) :   0.9576 B(  2-C ,  3-C ) :   1.2803 B(  2-C ,  6-C ) :   1.0315
B(  3-C ,  4-C ) :   1.5503 B(  3-C ,  5-H ) :   0.9782 B(  4-C , 20-C ) :   1.0329
B(  6-C ,  7-H ) :   0.9350 B(  6-C ,  8-H ) :   0.9288 B(  6-C ,  9-C ) :   1.0651
B(  9-C , 10-H ) :   0.9577 B(  9-C , 11-H ) :   0.9639 B(  9-C , 12-C ) :   1.0744
B( 12-C , 13-H ) :   0.9748 B( 12-C , 14-H ) :   0.9754 B( 12-C , 15-H ) :   0.9703
B( 16-S , 17-C ) :   1.1469 B( 16-S , 20-C ) :   1.1628 B( 17-C , 18-C ) :   1.6005
B( 17-C , 20-C ) :   0.1099 B( 17-C , 33-H ) :   0.9726 B( 18-C , 19-C ) :   1.2425
B( 18-C , 21-H ) :   0.9902 B( 19-C , 20-C ) :   1.5473 B( 19-C , 22-C ) :   1.0632
B( 22-C , 23-H ) :   0.9289 B( 22-C , 24-H ) :   0.9368 B( 22-C , 25-C ) :   1.0468
B( 25-C , 26-H ) :   0.9605 B( 25-C , 27-H ) :   0.9541 B( 25-C , 28-C ) :   1.0775
B( 28-C , 29-H ) :   0.9768 B( 28-C , 30-H ) :   0.9750 B( 28-C , 31-H ) :   0.9782

Dispersion correction           -0.014604103
FINAL SINGLE POINT ENERGY     -1339.861938913451

DIPOLE MOMENT
-------------
                                X             Y             Z
Electronic contribution:     -5.32673     -28.75959      13.76439
Nuclear contribution   :      5.43443      29.37133     -14.09127
                        -----------------------------------------
Total Dipole Moment    :      0.10770       0.61174      -0.32689
                        -----------------------------------------
Magnitude (a.u.)       :      0.70191
Magnitude (Debye)      :      1.78412

Rotational constants in cm-1:     0.016004     0.010263     0.006625
Rotational constants in MHz :   479.783462   307.666666   198.622543

                             ****ORCA TERMINATED NORMALLY****
TOTAL RUN TIME: 0 days 0 hours 0 minutes 21 seconds 683 msec
