                         Program Version 4.2.1 -  RELEASE  -
|  1> ! wB97X-D3 SP def2-SVP
|  2> %pal
|  3> nprocs 24
|  4> end
|  5>
|  6> * xyz 0 1
|  7> S 	 -104.696 	 2.18187 	 -108.531
|  8> C 	 -106.152 	 2.56439 	 -109.363
|  9> C 	 -106.263 	 1.84353 	 -110.532
| 10> C 	 -105.139 	 0.985356 	 -110.747
| 11> C 	 -104.174 	 1.05114 	 -109.771
| 12> H 	 -105.027 	 0.367187 	 -111.637
| 13> C 	 -107.426 	 1.92453 	 -111.483
| 14> H 	 -108.275 	 1.98131 	 -110.811
| 15> H 	 -107.621 	 0.945607 	 -111.989
| 16> C 	 -107.448 	 3.13353 	 -112.464
| 17> H 	 -107.192 	 4.003 	 -111.873
| 18> H 	 -106.669 	 2.93116 	 -113.242
| 19> C 	 -108.843 	 3.31897 	 -113.138
| 20> H 	 -109.693 	 3.30427 	 -112.441
| 21> H 	 -108.871 	 4.27644 	 -113.615
| 22> H 	 -108.958 	 2.57384 	 -113.965
| 23> S 	 -101.432 	 1.50838 	 -109.71
| 24> C 	 -100.324 	 0.141732 	 -109.998
| 25> C 	 -100.986 	 -0.989783 	 -110.217
| 26> C 	 -102.388 	 -0.806543 	 -110.245
| 27> C 	 -102.868 	 0.451519 	 -109.85
| 28> H 	 -100.428 	 -1.9526 	 -110.208
| 29> C 	 -103.324 	 -2.01198 	 -110.574
| 30> H 	 -103.106 	 -2.18943 	 -111.658
| 31> H 	 -104.377 	 -1.72532 	 -110.574
| 32> C 	 -102.978 	 -3.34981 	 -109.843
| 33> H 	 -101.95 	 -3.7216 	 -110.005
| 34> H 	 -103.588 	 -4.12974 	 -110.307
| 35> C 	 -103.308 	 -3.38748 	 -108.308
| 36> H 	 -104.423 	 -3.33003 	 -108.099
| 37> H 	 -102.738 	 -2.58158 	 -107.835
| 38> H 	 -102.909 	 -4.28852 	 -107.894
| 39> H 	 -106.771 	 3.38782 	 -109.089
| 40> H 	 -99.2358 	 0.260701 	 -109.89
| 41> *
| 42>
| 43>                          ****END OF INPUT****

CARTESIAN COORDINATES (ANGSTROEM)
---------------------------------
  S    -104.696000    2.181870  -108.531000
  C    -106.152000    2.564390  -109.363000
  C    -106.263000    1.843530  -110.532000
  C    -105.139000    0.985356  -110.747000
  C    -104.174000    1.051140  -109.771000
  H    -105.027000    0.367187  -111.637000
  C    -107.426000    1.924530  -111.483000
  H    -108.275000    1.981310  -110.811000
  H    -107.621000    0.945607  -111.989000
  C    -107.448000    3.133530  -112.464000
  H    -107.192000    4.003000  -111.873000
  H    -106.669000    2.931160  -113.242000
  C    -108.843000    3.318970  -113.138000
  H    -109.693000    3.304270  -112.441000
  H    -108.871000    4.276440  -113.615000
  H    -108.958000    2.573840  -113.965000
  S    -101.432000    1.508380  -109.710000
  C    -100.324000    0.141732  -109.998000
  C    -100.986000   -0.989783  -110.217000
  C    -102.388000   -0.806543  -110.245000
  C    -102.868000    0.451519  -109.850000
  H    -100.428000   -1.952600  -110.208000
  C    -103.324000   -2.011980  -110.574000
  H    -103.106000   -2.189430  -111.658000
  H    -104.377000   -1.725320  -110.574000
  C    -102.978000   -3.349810  -109.843000
  H    -101.950000   -3.721600  -110.005000
  H    -103.588000   -4.129740  -110.307000
  C    -103.308000   -3.387480  -108.308000
  H    -104.423000   -3.330030  -108.099000
  H    -102.738000   -2.581580  -107.835000
  H    -102.909000   -4.288520  -107.894000
  H    -106.771000    3.387820  -109.089000
  H    -99.235800    0.260701  -109.890000

 Total Charge           Charge          ....    0
 Multiplicity           Mult            ....    1
 Number of Electrons    NEL             ....  134
 Basis Dimension        Dim             ....  322

ORBITAL ENERGIES
----------------

  NO   OCC          E(Eh)            E(eV)
   0   2.0000     -88.967045     -2420.9164
   1   2.0000     -88.958523     -2420.6845
   2   2.0000     -10.329949      -281.0922
   3   2.0000     -10.329314      -281.0749
   4   2.0000     -10.317340      -280.7491
   5   2.0000     -10.311257      -280.5836
   6   2.0000     -10.306772      -280.4615
   7   2.0000     -10.299256      -280.2570
   8   2.0000     -10.297592      -280.2117
   9   2.0000     -10.294020      -280.1145
  10   2.0000     -10.293542      -280.1015
  11   2.0000     -10.292552      -280.0746
  12   2.0000     -10.292164      -280.0640
  13   2.0000     -10.291992      -280.0594
  14   2.0000     -10.283647      -279.8322
  15   2.0000     -10.277870      -279.6751
  16   2.0000      -8.082136      -219.9261
  17   2.0000      -8.072722      -219.6699
  18   2.0000      -6.040644      -164.3743
  19   2.0000      -6.036495      -164.2614
  20   2.0000      -6.032967      -164.1654
  21   2.0000      -6.031398      -164.1227
  22   2.0000      -6.027366      -164.0130
  23   2.0000      -6.023259      -163.9012
  24   2.0000      -1.007293       -27.4098
  25   2.0000      -0.985179       -26.8081
  26   2.0000      -0.908257       -24.7149
  27   2.0000      -0.894981       -24.3537
  28   2.0000      -0.874856       -23.8061
  29   2.0000      -0.849672       -23.1208
  30   2.0000      -0.837559       -22.7911
  31   2.0000      -0.817742       -22.2519
  32   2.0000      -0.779395       -21.2084
  33   2.0000      -0.768951       -20.9242
  34   2.0000      -0.708267       -19.2729
  35   2.0000      -0.701535       -19.0897
  36   2.0000      -0.692511       -18.8442
  37   2.0000      -0.654360       -17.8060
  38   2.0000      -0.641648       -17.4601
  39   2.0000      -0.619857       -16.8672
  40   2.0000      -0.595037       -16.1918
  41   2.0000      -0.573462       -15.6047
  42   2.0000      -0.559245       -15.2178
  43   2.0000      -0.542773       -14.7696
  44   2.0000      -0.532020       -14.4770
  45   2.0000      -0.524668       -14.2769
  46   2.0000      -0.513728       -13.9792
  47   2.0000      -0.512982       -13.9589
  48   2.0000      -0.508851       -13.8465
  49   2.0000      -0.501405       -13.6439
  50   2.0000      -0.486689       -13.2435
  51   2.0000      -0.476729       -12.9724
  52   2.0000      -0.467847       -12.7308
  53   2.0000      -0.465692       -12.6721
  54   2.0000      -0.459799       -12.5118
  55   2.0000      -0.446235       -12.1427
  56   2.0000      -0.437136       -11.8951
  57   2.0000      -0.435055       -11.8385
  58   2.0000      -0.433625       -11.7995
  59   2.0000      -0.425458       -11.5773
  60   2.0000      -0.422640       -11.5006
  61   2.0000      -0.421897       -11.4804
  62   2.0000      -0.402166       -10.9435
  63   2.0000      -0.354415        -9.6441
  64   2.0000      -0.330050        -8.9811
  65   2.0000      -0.325975        -8.8702
  66   2.0000      -0.291657        -7.9364
  67   0.0000       0.026941         0.7331
  68   0.0000       0.074772         2.0346
  69   0.0000       0.115566         3.1447
  70   0.0000       0.123664         3.3651
  71   0.0000       0.131271         3.5721

MULLIKEN ATOMIC CHARGES
-----------------------
   0 S :    0.118623
   1 C :   -0.113650
   2 C :   -0.091113
   3 C :    0.027200
   4 C :   -0.149929
   5 H :    0.017546
   6 C :    0.038217
   7 H :    0.016365
   8 H :    0.026682
   9 C :   -0.067150
  10 H :    0.027940
  11 H :    0.042197
  12 C :   -0.050199
  13 H :    0.036079
  14 H :    0.030047
  15 H :    0.039807
  16 S :    0.071501
  17 C :   -0.100666
  18 C :   -0.030322
  19 C :   -0.053154
  20 C :   -0.130647
  21 H :    0.040464
  22 C :    0.054882
  23 H :    0.037959
  24 H :    0.026469
  25 C :   -0.095380
  26 H :    0.029769
  27 H :    0.025463
  28 C :   -0.051235
  29 H :    0.049273
  30 H :    0.041045
  31 H :    0.025082
  32 H :    0.044705
  33 H :    0.066130
Sum of atomic charges:   -0.0000000

LOEWDIN ATOMIC CHARGES
----------------------
   0 S :    0.419943
   1 C :   -0.200131
   2 C :   -0.066456
   3 C :   -0.058173
   4 C :   -0.198668
   5 H :    0.032512
   6 C :   -0.041700
   7 H :    0.028236
   8 H :    0.032376
   9 C :   -0.035618
  10 H :    0.021437
  11 H :    0.031295
  12 C :   -0.067955
  13 H :    0.025730
  14 H :    0.023667
  15 H :    0.030871
  16 S :    0.363837
  17 C :   -0.165044
  18 C :   -0.085111
  19 C :   -0.054901
  20 C :   -0.187017
  21 H :    0.044370
  22 C :   -0.035017
  23 H :    0.038551
  24 H :    0.027800
  25 C :   -0.045266
  26 H :    0.023364
  27 H :    0.024140
  28 C :   -0.067910
  29 H :    0.034139
  30 H :    0.026861
  31 H :    0.020121
  32 H :    0.025141
  33 H :    0.034573

  Mayer bond orders larger than 0.100000
B(  0-S ,  1-C ) :   1.1485 B(  0-S ,  4-C ) :   1.1510 B(  1-C ,  2-C ) :   1.5928
B(  1-C , 32-H ) :   0.9715 B(  2-C ,  3-C ) :   1.2703 B(  2-C ,  6-C ) :   1.0169
B(  3-C ,  4-C ) :   1.5451 B(  3-C ,  5-H ) :   0.9924 B(  4-C , 20-C ) :   1.0636
B(  6-C ,  7-H ) :   0.9407 B(  6-C ,  8-H ) :   0.9449 B(  6-C ,  9-C ) :   1.0545
B(  9-C , 10-H ) :   0.9593 B(  9-C , 11-H ) :   0.9564 B(  9-C , 12-C ) :   1.0769
B( 12-C , 13-H ) :   0.9765 B( 12-C , 14-H ) :   0.9751 B( 12-C , 15-H ) :   0.9763
B( 16-S , 17-C ) :   1.1432 B( 16-S , 20-C ) :   1.1123 B( 17-C , 18-C ) :   1.6428
B( 17-C , 33-H ) :   0.9609 B( 18-C , 19-C ) :   1.2191 B( 18-C , 21-H ) :   0.9821
B( 19-C , 20-C ) :   1.6091 B( 19-C , 22-C ) :   1.0313 B( 22-C , 23-H ) :   0.9311
B( 22-C , 24-H ) :   0.9435 B( 22-C , 25-C ) :   1.0682 B( 25-C , 26-H ) :   0.9549
B( 25-C , 27-H ) :   0.9532 B( 25-C , 28-C ) :   1.0712 B( 28-C , 29-H ) :   0.9763
B( 28-C , 30-H ) :   0.9774 B( 28-C , 31-H ) :   0.9745

Dispersion correction           -0.013812467
FINAL SINGLE POINT ENERGY     -1339.888291542638

DIPOLE MOMENT
-------------
                                X             Y             Z
Electronic contribution:     16.54134      11.53410      11.30108
Nuclear contribution   :    -16.81260     -11.89017     -11.73883
                        -----------------------------------------
Total Dipole Moment    :     -0.27126      -0.35607      -0.43775
                        -----------------------------------------
Magnitude (a.u.)       :      0.62610
Magnitude (Debye)      :      1.59141

Rotational constants in cm-1:     0.020788     0.007161     0.006392
Rotational constants in MHz :   623.198834   214.692402   191.614836

                             ****ORCA TERMINATED NORMALLY****
TOTAL RUN TIME: 0 days 0 hours 0 minutes 20 seconds 979 msec
