                         Program Version 4.2.1 -  RELEASE  -
|  1> ! wB97X-D3 SP def2-SVP
|  2> %pal
|  3> nprocs 24
|  4> end
|  5>
|  6> * xyz 0 1
|  7> S 	 -71.804 	 1.84244 	 13.6583
|  8> C 	 -72.5346 	 3.28253 	 12.9905
|  9> C 	 -73.853 	 3.35814 	 13.376
| 10> C 	 -74.316 	 2.2136 	 14.1789
| 11> C 	 -73.2381 	 1.36631 	 14.4886
| 12> H 	 -75.352 	 1.9163 	 14.4924
| 13> C 	 -74.7844 	 4.50672 	 12.947
| 14> H 	 -75.7853 	 4.18931 	 12.7821
| 15> H 	 -74.4467 	 4.75873 	 11.983
| 16> C 	 -74.8628 	 5.70897 	 13.8205
| 17> H 	 -73.9197 	 6.27911 	 13.9025
| 18> H 	 -75.4144 	 6.5478 	 13.3211
| 19> C 	 -75.4224 	 5.26896 	 15.1526
| 20> H 	 -76.2371 	 4.56187 	 15.0539
| 21> H 	 -74.6937 	 4.80629 	 15.8066
| 22> H 	 -75.7561 	 6.0996 	 15.6944
| 23> S 	 -73.0321 	 -1.30888 	 14.5881
| 24> C 	 -73.2478 	 -2.18354 	 16.1114
| 25> C 	 -73.5284 	 -1.32678 	 17.1521
| 26> C 	 -73.5002 	 0.0660524 	 16.7076
| 27> C 	 -73.2632 	 0.23786 	 15.3483
| 28> H 	 -73.4795 	 -1.71064 	 18.1794
| 29> C 	 -73.5158 	 1.17785 	 17.7281
| 30> H 	 -74.2963 	 0.839404 	 18.4858
| 31> H 	 -73.9097 	 2.07707 	 17.2434
| 32> C 	 -72.0992 	 1.60026 	 18.294
| 33> H 	 -71.4259 	 1.94257 	 17.5231
| 34> H 	 -71.7566 	 0.76498 	 18.8715
| 35> C 	 -72.284 	 2.82751 	 19.1748
| 36> H 	 -71.2968 	 3.17249 	 19.4606
| 37> H 	 -72.951 	 2.61142 	 20.0302
| 38> H 	 -72.8038 	 3.64417 	 18.6701
| 39> H 	 -72.0212 	 3.9786 	 12.3705
| 40> H 	 -73.1612 	 -3.24013 	 16.2086
| 41> *
| 42>
| 43>                          ****END OF INPUT****

CARTESIAN COORDINATES (ANGSTROEM)
---------------------------------
  S    -71.804000    1.842440   13.658300
  C    -72.534600    3.282530   12.990500
  C    -73.853000    3.358140   13.376000
  C    -74.316000    2.213600   14.178900
  C    -73.238100    1.366310   14.488600
  H    -75.352000    1.916300   14.492400
  C    -74.784400    4.506720   12.947000
  H    -75.785300    4.189310   12.782100
  H    -74.446700    4.758730   11.983000
  C    -74.862800    5.708970   13.820500
  H    -73.919700    6.279110   13.902500
  H    -75.414400    6.547800   13.321100
  C    -75.422400    5.268960   15.152600
  H    -76.237100    4.561870   15.053900
  H    -74.693700    4.806290   15.806600
  H    -75.756100    6.099600   15.694400
  S    -73.032100   -1.308880   14.588100
  C    -73.247800   -2.183540   16.111400
  C    -73.528400   -1.326780   17.152100
  C    -73.500200    0.066052   16.707600
  C    -73.263200    0.237860   15.348300
  H    -73.479500   -1.710640   18.179400
  C    -73.515800    1.177850   17.728100
  H    -74.296300    0.839404   18.485800
  H    -73.909700    2.077070   17.243400
  C    -72.099200    1.600260   18.294000
  H    -71.425900    1.942570   17.523100
  H    -71.756600    0.764980   18.871500
  C    -72.284000    2.827510   19.174800
  H    -71.296800    3.172490   19.460600
  H    -72.951000    2.611420   20.030200
  H    -72.803800    3.644170   18.670100
  H    -72.021200    3.978600   12.370500
  H    -73.161200   -3.240130   16.208600

 Total Charge           Charge          ....    0
 Multiplicity           Mult            ....    1
 Number of Electrons    NEL             ....  134
 Basis Dimension        Dim             ....  322

ORBITAL ENERGIES
----------------

  NO   OCC          E(Eh)            E(eV)
   0   2.0000     -88.965818     -2420.8830
   1   2.0000     -88.961514     -2420.7659
   2   2.0000     -10.327386      -281.0225
   3   2.0000     -10.321122      -280.8520
   4   2.0000     -10.317787      -280.7613
   5   2.0000     -10.314204      -280.6638
   6   2.0000     -10.307320      -280.4764
   7   2.0000     -10.304652      -280.4038
   8   2.0000     -10.304448      -280.3983
   9   2.0000     -10.297282      -280.2033
  10   2.0000     -10.292858      -280.0829
  11   2.0000     -10.285297      -279.8772
  12   2.0000     -10.284424      -279.8534
  13   2.0000     -10.281256      -279.7672
  14   2.0000     -10.274588      -279.5858
  15   2.0000     -10.267897      -279.4037
  16   2.0000      -8.081075      -219.8972
  17   2.0000      -8.076467      -219.7719
  18   2.0000      -6.039532      -164.3440
  19   2.0000      -6.035392      -164.2314
  20   2.0000      -6.035045      -164.2219
  21   2.0000      -6.031963      -164.1381
  22   2.0000      -6.030856      -164.1079
  23   2.0000      -6.027226      -164.0092
  24   2.0000      -1.007369       -27.4119
  25   2.0000      -0.980901       -26.6917
  26   2.0000      -0.919131       -25.0108
  27   2.0000      -0.903247       -24.5786
  28   2.0000      -0.875314       -23.8185
  29   2.0000      -0.848340       -23.0845
  30   2.0000      -0.841092       -22.8873
  31   2.0000      -0.816177       -22.2093
  32   2.0000      -0.784901       -21.3582
  33   2.0000      -0.763789       -20.7838
  34   2.0000      -0.706769       -19.2322
  35   2.0000      -0.703936       -19.1551
  36   2.0000      -0.692878       -18.8542
  37   2.0000      -0.662250       -18.0207
  38   2.0000      -0.645833       -17.5740
  39   2.0000      -0.607269       -16.5246
  40   2.0000      -0.589228       -16.0337
  41   2.0000      -0.574655       -15.6372
  42   2.0000      -0.567093       -15.4314
  43   2.0000      -0.562231       -15.2991
  44   2.0000      -0.541265       -14.7286
  45   2.0000      -0.528596       -14.3838
  46   2.0000      -0.512998       -13.9594
  47   2.0000      -0.512009       -13.9325
  48   2.0000      -0.505872       -13.7655
  49   2.0000      -0.500156       -13.6099
  50   2.0000      -0.491246       -13.3675
  51   2.0000      -0.477796       -13.0015
  52   2.0000      -0.473986       -12.8978
  53   2.0000      -0.461091       -12.5469
  54   2.0000      -0.457233       -12.4420
  55   2.0000      -0.441779       -12.0214
  56   2.0000      -0.437770       -11.9123
  57   2.0000      -0.437397       -11.9022
  58   2.0000      -0.434181       -11.8147
  59   2.0000      -0.428086       -11.6488
  60   2.0000      -0.425802       -11.5867
  61   2.0000      -0.409925       -11.1546
  62   2.0000      -0.404234       -10.9998
  63   2.0000      -0.340526        -9.2662
  64   2.0000      -0.329503        -8.9662
  65   2.0000      -0.323936        -8.8147
  66   2.0000      -0.300058        -8.1650
  67   0.0000       0.035532         0.9669
  68   0.0000       0.064837         1.7643
  69   0.0000       0.114987         3.1290
  70   0.0000       0.119708         3.2574
  71   0.0000       0.124408         3.3853

MULLIKEN ATOMIC CHARGES
-----------------------
   0 S :    0.116786
   1 C :   -0.106021
   2 C :   -0.104085
   3 C :    0.041570
   4 C :   -0.187417
   5 H :    0.042173
   6 C :    0.101571
   7 H :    0.015359
   8 H :   -0.002304
   9 C :   -0.070034
  10 H :    0.017937
  11 H :    0.026845
  12 C :   -0.017012
  13 H :    0.019742
  14 H :    0.040557
  15 H :    0.014472
  16 S :    0.098267
  17 C :   -0.087334
  18 C :   -0.034202
  19 C :   -0.037719
  20 C :   -0.156787
  21 H :    0.035662
  22 C :    0.010466
  23 H :    0.038171
  24 H :    0.016603
  25 C :   -0.028682
  26 H :    0.037165
  27 H :    0.027276
  28 C :   -0.044616
  29 H :    0.034010
  30 H :    0.026086
  31 H :    0.024646
  32 H :    0.040535
  33 H :    0.050315
Sum of atomic charges:   -0.0000000

LOEWDIN ATOMIC CHARGES
----------------------
   0 S :    0.419397
   1 C :   -0.193731
   2 C :   -0.054876
   3 C :   -0.063013
   4 C :   -0.212193
   5 H :    0.043758
   6 C :   -0.029570
   7 H :    0.026463
   8 H :    0.021556
   9 C :   -0.047173
  10 H :    0.024166
  11 H :    0.028884
  12 C :   -0.059274
  13 H :    0.022610
  14 H :    0.028759
  15 H :    0.018682
  16 S :    0.400723
  17 C :   -0.168658
  18 C :   -0.077434
  19 C :   -0.054880
  20 C :   -0.213767
  21 H :    0.038251
  22 C :   -0.040830
  23 H :    0.037199
  24 H :    0.026075
  25 C :   -0.026896
  26 H :    0.029021
  27 H :    0.021069
  28 C :   -0.065541
  29 H :    0.024325
  30 H :    0.024890
  31 H :    0.023147
  32 H :    0.025235
  33 H :    0.023627

  Mayer bond orders larger than 0.100000
B(  0-S ,  1-C ) :   1.1285 B(  0-S ,  4-C ) :   1.1692 B(  1-C ,  2-C ) :   1.6247
B(  1-C , 32-H ) :   0.9761 B(  2-C ,  3-C ) :   1.2128 B(  2-C ,  6-C ) :   1.0125
B(  3-C ,  4-C ) :   1.5717 B(  3-C ,  5-H ) :   0.9873 B(  4-C , 20-C ) :   1.0263
B(  6-C ,  7-H ) :   0.9447 B(  6-C ,  8-H ) :   0.9316 B(  6-C ,  9-C ) :   1.0891
B(  9-C , 10-H ) :   0.9489 B(  9-C , 11-H ) :   0.9523 B(  9-C , 12-C ) :   1.0718
B( 12-C , 13-H ) :   0.9755 B( 12-C , 14-H ) :   0.9696 B( 12-C , 15-H ) :   0.9679
B( 16-S , 17-C ) :   1.1547 B( 16-S , 20-C ) :   1.1336 B( 17-C , 18-C ) :   1.6285
B( 17-C , 33-H ) :   0.9697 B( 18-C , 19-C ) :   1.2178 B( 18-C , 21-H ) :   0.9840
B( 19-C , 20-C ) :   1.6135 B( 19-C , 22-C ) :   1.0607 B( 22-C , 23-H ) :   0.9359
B( 22-C , 24-H ) :   0.9313 B( 22-C , 25-C ) :   1.0601 B( 25-C , 26-H ) :   0.9543
B( 25-C , 27-H ) :   0.9558 B( 25-C , 28-C ) :   1.0886 B( 28-C , 29-H ) :   0.9738
B( 28-C , 30-H ) :   0.9733 B( 28-C , 31-H ) :   0.9736

Dispersion correction           -0.014888447
FINAL SINGLE POINT ENERGY     -1339.877627905939

DIPOLE MOMENT
-------------
                                X             Y             Z
Electronic contribution:      8.32638     -22.09849     -14.96639
Nuclear contribution   :     -8.52216      22.49015      15.27658
                        -----------------------------------------
Total Dipole Moment    :     -0.19578       0.39166       0.31019
                        -----------------------------------------
Magnitude (a.u.)       :      0.53660
Magnitude (Debye)      :      1.36394

Rotational constants in cm-1:     0.017986     0.009529     0.007467
Rotational constants in MHz :   539.208101   285.683694   223.842453

                             ****ORCA TERMINATED NORMALLY****
TOTAL RUN TIME: 0 days 0 hours 0 minutes 22 seconds 159 msec
