                         Program Version 4.2.1 -  RELEASE  -
|  1> ! wB97X-D3 SP def2-SVP
|  2> %pal
|  3> nprocs 24
|  4> end
|  5>
|  6> * xyz 0 1
|  7> S 	 -63.0846 	 8.63672 	 19.6339
|  8> C 	 -61.9202 	 9.91188 	 19.4288
|  9> C 	 -61.23 	 10.185 	 20.5874
| 10> C 	 -61.8306 	 9.50772 	 21.6808
| 11> C 	 -62.8342 	 8.62886 	 21.3146
| 12> H 	 -61.557 	 9.62778 	 22.7469
| 13> C 	 -60.1855 	 11.2593 	 20.6939
| 14> H 	 -60.6669 	 12.1177 	 21.2113
| 15> H 	 -59.9628 	 11.622 	 19.6384
| 16> C 	 -58.8928 	 10.8102 	 21.289
| 17> H 	 -58.9533 	 10.512 	 22.3528
| 18> H 	 -58.5751 	 9.90729 	 20.8121
| 19> C 	 -57.7219 	 11.7542 	 21.1967
| 20> H 	 -56.8257 	 11.2137 	 21.4795
| 21> H 	 -57.4623 	 12.1505 	 20.2013
| 22> H 	 -57.9011 	 12.6162 	 21.8162
| 23> S 	 -64.3074 	 8.26182 	 23.6042
| 24> C 	 -65.2314 	 6.81019 	 23.8362
| 25> C 	 -64.987 	 5.92541 	 22.8094
| 26> C 	 -64.0751 	 6.42256 	 21.8619
| 27> C 	 -63.5835 	 7.66565 	 22.139
| 28> H 	 -65.587 	 5.00783 	 22.732
| 29> C 	 -63.7498 	 5.55025 	 20.6496
| 30> H 	 -62.7098 	 5.83467 	 20.3818
| 31> H 	 -64.5211 	 5.98355 	 19.8899
| 32> C 	 -63.8764 	 4.01055 	 20.7015
| 33> H 	 -64.8067 	 3.80888 	 21.2134
| 34> H 	 -63.0656 	 3.45471 	 21.216
| 35> C 	 -63.9333 	 3.47251 	 19.2808
| 36> H 	 -64.785 	 3.94771 	 18.7595
| 37> H 	 -64.1411 	 2.43825 	 19.1517
| 38> H 	 -63.0004 	 3.67058 	 18.68
| 39> H 	 -61.7285 	 10.2914 	 18.4337
| 40> H 	 -65.8308 	 6.53404 	 24.6985
| 41> *
| 42>
| 43>                          ****END OF INPUT****

CARTESIAN COORDINATES (ANGSTROEM)
---------------------------------
  S    -63.084600    8.636720   19.633900
  C    -61.920200    9.911880   19.428800
  C    -61.230000   10.185000   20.587400
  C    -61.830600    9.507720   21.680800
  C    -62.834200    8.628860   21.314600
  H    -61.557000    9.627780   22.746900
  C    -60.185500   11.259300   20.693900
  H    -60.666900   12.117700   21.211300
  H    -59.962800   11.622000   19.638400
  C    -58.892800   10.810200   21.289000
  H    -58.953300   10.512000   22.352800
  H    -58.575100    9.907290   20.812100
  C    -57.721900   11.754200   21.196700
  H    -56.825700   11.213700   21.479500
  H    -57.462300   12.150500   20.201300
  H    -57.901100   12.616200   21.816200
  S    -64.307400    8.261820   23.604200
  C    -65.231400    6.810190   23.836200
  C    -64.987000    5.925410   22.809400
  C    -64.075100    6.422560   21.861900
  C    -63.583500    7.665650   22.139000
  H    -65.587000    5.007830   22.732000
  C    -63.749800    5.550250   20.649600
  H    -62.709800    5.834670   20.381800
  H    -64.521100    5.983550   19.889900
  C    -63.876400    4.010550   20.701500
  H    -64.806700    3.808880   21.213400
  H    -63.065600    3.454710   21.216000
  C    -63.933300    3.472510   19.280800
  H    -64.785000    3.947710   18.759500
  H    -64.141100    2.438250   19.151700
  H    -63.000400    3.670580   18.680000
  H    -61.728500   10.291400   18.433700
  H    -65.830800    6.534040   24.698500

 Total Charge           Charge          ....    0
 Multiplicity           Mult            ....    1
 Number of Electrons    NEL             ....  134
 Basis Dimension        Dim             ....  322

ORBITAL ENERGIES
----------------

  NO   OCC          E(Eh)            E(eV)
   0   2.0000     -88.964705     -2420.8527
   1   2.0000     -88.962904     -2420.8037
   2   2.0000     -10.326519      -280.9989
   3   2.0000     -10.322342      -280.8852
   4   2.0000     -10.314493      -280.6716
   5   2.0000     -10.310524      -280.5636
   6   2.0000     -10.299731      -280.2699
   7   2.0000     -10.299391      -280.2607
   8   2.0000     -10.297178      -280.2005
   9   2.0000     -10.296471      -280.1812
  10   2.0000     -10.293862      -280.1102
  11   2.0000     -10.291036      -280.0333
  12   2.0000     -10.288867      -279.9743
  13   2.0000     -10.281337      -279.7694
  14   2.0000     -10.278062      -279.6803
  15   2.0000     -10.274775      -279.5908
  16   2.0000      -8.080416      -219.8793
  17   2.0000      -8.078062      -219.8152
  18   2.0000      -6.038685      -164.3210
  19   2.0000      -6.036604      -164.2643
  20   2.0000      -6.034768      -164.2144
  21   2.0000      -6.032400      -164.1499
  22   2.0000      -6.031398      -164.1227
  23   2.0000      -6.028872      -164.0540
  24   2.0000      -1.014026       -27.5931
  25   2.0000      -0.991525       -26.9808
  26   2.0000      -0.919055       -25.0087
  27   2.0000      -0.907515       -24.6947
  28   2.0000      -0.872445       -23.7404
  29   2.0000      -0.854575       -23.2542
  30   2.0000      -0.847906       -23.0727
  31   2.0000      -0.815577       -22.1930
  32   2.0000      -0.782607       -21.2958
  33   2.0000      -0.768670       -20.9166
  34   2.0000      -0.707037       -19.2395
  35   2.0000      -0.702630       -19.1195
  36   2.0000      -0.687210       -18.6999
  37   2.0000      -0.663064       -18.0429
  38   2.0000      -0.638047       -17.3622
  39   2.0000      -0.618303       -16.8249
  40   2.0000      -0.594471       -16.1764
  41   2.0000      -0.574238       -15.6258
  42   2.0000      -0.567451       -15.4411
  43   2.0000      -0.562855       -15.3161
  44   2.0000      -0.532727       -14.4963
  45   2.0000      -0.522707       -14.2236
  46   2.0000      -0.518851       -14.1187
  47   2.0000      -0.511586       -13.9210
  48   2.0000      -0.509885       -13.8747
  49   2.0000      -0.500450       -13.6179
  50   2.0000      -0.490334       -13.3427
  51   2.0000      -0.474506       -12.9120
  52   2.0000      -0.472589       -12.8598
  53   2.0000      -0.463698       -12.6179
  54   2.0000      -0.460179       -12.5221
  55   2.0000      -0.450963       -12.2713
  56   2.0000      -0.444979       -12.1085
  57   2.0000      -0.437384       -11.9018
  58   2.0000      -0.430871       -11.7246
  59   2.0000      -0.425169       -11.5694
  60   2.0000      -0.419340       -11.4108
  61   2.0000      -0.414782       -11.2868
  62   2.0000      -0.408233       -11.1086
  63   2.0000      -0.351114        -9.5543
  64   2.0000      -0.332285        -9.0419
  65   2.0000      -0.328862        -8.9488
  66   2.0000      -0.289476        -7.8770
  67   0.0000       0.033185         0.9030
  68   0.0000       0.079538         2.1643
  69   0.0000       0.114424         3.1136
  70   0.0000       0.125839         3.4243
  71   0.0000       0.132072         3.5939

MULLIKEN ATOMIC CHARGES
-----------------------
   0 S :    0.107644
   1 C :   -0.132110
   2 C :   -0.063412
   3 C :    0.001826
   4 C :   -0.146139
   5 H :    0.022460
   6 C :    0.063849
   7 H :    0.048082
   8 H :    0.019535
   9 C :   -0.081805
  10 H :    0.029794
  11 H :    0.018864
  12 C :   -0.031998
  13 H :    0.031031
  14 H :    0.022164
  15 H :    0.026787
  16 S :    0.101943
  17 C :   -0.087201
  18 C :   -0.066326
  19 C :   -0.052043
  20 C :   -0.115473
  21 H :    0.029511
  22 C :   -0.017809
  23 H :    0.045490
  24 H :    0.061439
  25 C :   -0.029117
  26 H :    0.020004
  27 H :    0.046316
  28 C :   -0.065482
  29 H :    0.023134
  30 H :    0.024275
  31 H :    0.041553
  32 H :    0.046519
  33 H :    0.056695
Sum of atomic charges:    0.0000000

LOEWDIN ATOMIC CHARGES
----------------------
   0 S :    0.443489
   1 C :   -0.198475
   2 C :   -0.063937
   3 C :   -0.071970
   4 C :   -0.205171
   5 H :    0.034745
   6 C :   -0.033907
   7 H :    0.037671
   8 H :    0.036016
   9 C :   -0.049340
  10 H :    0.028206
  11 H :    0.023820
  12 C :   -0.062828
  13 H :    0.028797
  14 H :    0.023115
  15 H :    0.021530
  16 S :    0.417269
  17 C :   -0.188872
  18 C :   -0.080853
  19 C :   -0.071795
  20 C :   -0.207283
  21 H :    0.034956
  22 C :   -0.043759
  23 H :    0.029998
  24 H :    0.044606
  25 C :   -0.041213
  26 H :    0.019297
  27 H :    0.032126
  28 C :   -0.068979
  29 H :    0.025396
  30 H :    0.019144
  31 H :    0.031956
  32 H :    0.023561
  33 H :    0.032685

  Mayer bond orders larger than 0.100000
B(  0-S ,  1-C ) :   1.1504 B(  0-S ,  4-C ) :   1.1740 B(  1-C ,  2-C ) :   1.5906
B(  1-C , 32-H ) :   0.9706 B(  2-C ,  3-C ) :   1.2478 B(  2-C ,  6-C ) :   1.0334
B(  3-C ,  4-C ) :   1.5552 B(  3-C ,  5-H ) :   0.9911 B(  4-C , 20-C ) :   1.0139
B(  6-C ,  7-H ) :   0.9369 B(  6-C ,  8-H ) :   0.9383 B(  6-C ,  9-C ) :   1.0630
B(  9-C , 10-H ) :   0.9471 B(  9-C , 11-H ) :   0.9534 B(  9-C , 12-C ) :   1.1016
B( 12-C , 13-H ) :   0.9729 B( 12-C , 14-H ) :   0.9723 B( 12-C , 15-H ) :   0.9730
B( 16-S , 17-C ) :   1.1686 B( 16-S , 20-C ) :   1.1362 B( 17-C , 18-C ) :   1.6006
B( 17-C , 33-H ) :   0.9624 B( 18-C , 19-C ) :   1.2603 B( 18-C , 21-H ) :   0.9845
B( 19-C , 20-C ) :   1.6059 B( 19-C , 22-C ) :   1.0036 B( 22-C , 23-H ) :   0.9418
B( 22-C , 24-H ) :   0.9340 B( 22-C , 25-C ) :   1.0666 B( 25-C , 26-H ) :   0.9460
B( 25-C , 27-H ) :   0.9547 B( 25-C , 28-C ) :   1.0859 B( 28-C , 29-H ) :   0.9743
B( 28-C , 30-H ) :   0.9731 B( 28-C , 31-H ) :   0.9746

Dispersion correction           -0.013299800
FINAL SINGLE POINT ENERGY     -1339.889350794349

DIPOLE MOMENT
-------------
                                X             Y             Z
Electronic contribution:    -15.49226       4.53776       7.61711
Nuclear contribution   :     15.70338      -4.73147      -7.75415
                        -----------------------------------------
Total Dipole Moment    :      0.21112      -0.19371      -0.13704
                        -----------------------------------------
Magnitude (a.u.)       :      0.31761
Magnitude (Debye)      :      0.80730

Rotational constants in cm-1:     0.021131     0.007169     0.006036
Rotational constants in MHz :   633.478544   214.907544   180.968339

                             ****ORCA TERMINATED NORMALLY****
TOTAL RUN TIME: 0 days 0 hours 0 minutes 20 seconds 877 msec
