                         Program Version 4.2.1 -  RELEASE  -
|  1> ! wB97X-D3 SP def2-SVP
|  2> %pal
|  3> nprocs 24
|  4> end
|  5>
|  6> * xyz 0 1
|  7> S 	 -56.1395 	 0.206626 	 -28.9529
|  8> C 	 -57.6373 	 -0.466506 	 -29.6983
|  9> C 	 -57.9802 	 0.135449 	 -30.847
| 10> C 	 -57.0303 	 1.14827 	 -31.2566
| 11> C 	 -56.0377 	 1.28938 	 -30.3328
| 12> H 	 -57.0637 	 1.76856 	 -32.1747
| 13> C 	 -59.2154 	 -0.114564 	 -31.6188
| 14> H 	 -60.0756 	 0.222961 	 -31.0542
| 15> H 	 -59.1752 	 -1.17859 	 -31.8408
| 16> C 	 -59.4295 	 0.352576 	 -33.0652
| 17> H 	 -60.4051 	 0.0131048 	 -33.2904
| 18> H 	 -59.4763 	 1.45306 	 -33.0731
| 19> C 	 -58.344 	 -0.24495 	 -33.9723
| 20> H 	 -58.2384 	 -1.35941 	 -34.0107
| 21> H 	 -58.626 	 0.0104195 	 -34.9742
| 22> H 	 -57.3745 	 0.083634 	 -33.718
| 23> S 	 -53.2762 	 1.80912 	 -30.3989
| 24> C 	 -52.7304 	 3.50434 	 -30.2615
| 25> C 	 -53.7248 	 4.40655 	 -30.4856
| 26> C 	 -55.006 	 3.76859 	 -30.6383
| 27> C 	 -54.9713 	 2.31262 	 -30.454
| 28> H 	 -53.5852 	 5.50836 	 -30.47
| 29> C 	 -56.2439 	 4.70282 	 -30.6151
| 30> H 	 -56.0654 	 5.50585 	 -29.889
| 31> H 	 -57.04 	 4.11577 	 -30.2157
| 32> C 	 -56.8603 	 5.18389 	 -31.9225
| 33> H 	 -57.2765 	 4.38505 	 -32.5677
| 34> H 	 -56.1245 	 5.75333 	 -32.4925
| 35> C 	 -58.1381 	 6.02768 	 -31.692
| 36> H 	 -58.8663 	 5.67767 	 -30.9802
| 37> H 	 -58.6206 	 6.12274 	 -32.661
| 38> H 	 -57.9862 	 7.05518 	 -31.5208
| 39> H 	 -58.1746 	 -1.2583 	 -29.2538
| 40> H 	 -51.6666 	 3.72899 	 -30.1476
| 41> *
| 42>
| 43>                          ****END OF INPUT****

CARTESIAN COORDINATES (ANGSTROEM)
---------------------------------
  S    -56.139500    0.206626  -28.952900
  C    -57.637300   -0.466506  -29.698300
  C    -57.980200    0.135449  -30.847000
  C    -57.030300    1.148270  -31.256600
  C    -56.037700    1.289380  -30.332800
  H    -57.063700    1.768560  -32.174700
  C    -59.215400   -0.114564  -31.618800
  H    -60.075600    0.222961  -31.054200
  H    -59.175200   -1.178590  -31.840800
  C    -59.429500    0.352576  -33.065200
  H    -60.405100    0.013105  -33.290400
  H    -59.476300    1.453060  -33.073100
  C    -58.344000   -0.244950  -33.972300
  H    -58.238400   -1.359410  -34.010700
  H    -58.626000    0.010419  -34.974200
  H    -57.374500    0.083634  -33.718000
  S    -53.276200    1.809120  -30.398900
  C    -52.730400    3.504340  -30.261500
  C    -53.724800    4.406550  -30.485600
  C    -55.006000    3.768590  -30.638300
  C    -54.971300    2.312620  -30.454000
  H    -53.585200    5.508360  -30.470000
  C    -56.243900    4.702820  -30.615100
  H    -56.065400    5.505850  -29.889000
  H    -57.040000    4.115770  -30.215700
  C    -56.860300    5.183890  -31.922500
  H    -57.276500    4.385050  -32.567700
  H    -56.124500    5.753330  -32.492500
  C    -58.138100    6.027680  -31.692000
  H    -58.866300    5.677670  -30.980200
  H    -58.620600    6.122740  -32.661000
  H    -57.986200    7.055180  -31.520800
  H    -58.174600   -1.258300  -29.253800
  H    -51.666600    3.728990  -30.147600

 Total Charge           Charge          ....    0
 Multiplicity           Mult            ....    1
 Number of Electrons    NEL             ....  134
 Basis Dimension        Dim             ....  322

ORBITAL ENERGIES
----------------

  NO   OCC          E(Eh)            E(eV)
   0   2.0000     -88.967614     -2420.9319
   1   2.0000     -88.964166     -2420.8380
   2   2.0000     -10.335848      -281.2527
   3   2.0000     -10.330637      -281.1109
   4   2.0000     -10.318333      -280.7761
   5   2.0000     -10.312048      -280.6051
   6   2.0000     -10.309513      -280.5361
   7   2.0000     -10.297196      -280.2009
   8   2.0000     -10.296500      -280.1820
   9   2.0000     -10.295340      -280.1504
  10   2.0000     -10.289900      -280.0024
  11   2.0000     -10.289127      -279.9814
  12   2.0000     -10.287995      -279.9506
  13   2.0000     -10.284799      -279.8636
  14   2.0000     -10.277075      -279.6534
  15   2.0000     -10.271834      -279.5108
  16   2.0000      -8.081558      -219.9104
  17   2.0000      -8.078079      -219.8157
  18   2.0000      -6.040152      -164.3609
  19   2.0000      -6.036623      -164.2649
  20   2.0000      -6.036436      -164.2598
  21   2.0000      -6.032728      -164.1589
  22   2.0000      -6.031994      -164.1389
  23   2.0000      -6.028837      -164.0530
  24   2.0000      -0.999416       -27.1955
  25   2.0000      -0.975836       -26.5539
  26   2.0000      -0.918720       -24.9996
  27   2.0000      -0.904721       -24.6187
  28   2.0000      -0.869244       -23.6533
  29   2.0000      -0.845959       -23.0197
  30   2.0000      -0.844290       -22.9743
  31   2.0000      -0.815673       -22.1956
  32   2.0000      -0.786037       -21.3892
  33   2.0000      -0.770264       -20.9599
  34   2.0000      -0.710308       -19.3285
  35   2.0000      -0.702067       -19.1042
  36   2.0000      -0.690342       -18.7852
  37   2.0000      -0.652961       -17.7680
  38   2.0000      -0.637872       -17.3574
  39   2.0000      -0.620681       -16.8896
  40   2.0000      -0.594501       -16.1772
  41   2.0000      -0.571837       -15.5605
  42   2.0000      -0.565291       -15.3823
  43   2.0000      -0.557733       -15.1767
  44   2.0000      -0.541884       -14.7454
  45   2.0000      -0.521966       -14.2034
  46   2.0000      -0.513781       -13.9807
  47   2.0000      -0.510721       -13.8974
  48   2.0000      -0.507144       -13.8001
  49   2.0000      -0.501610       -13.6495
  50   2.0000      -0.487969       -13.2783
  51   2.0000      -0.477089       -12.9823
  52   2.0000      -0.468158       -12.7392
  53   2.0000      -0.466955       -12.7065
  54   2.0000      -0.454206       -12.3596
  55   2.0000      -0.450428       -12.2568
  56   2.0000      -0.446820       -12.1586
  57   2.0000      -0.442624       -12.0444
  58   2.0000      -0.432102       -11.7581
  59   2.0000      -0.428649       -11.6641
  60   2.0000      -0.417161       -11.3515
  61   2.0000      -0.412954       -11.2370
  62   2.0000      -0.402647       -10.9566
  63   2.0000      -0.342749        -9.3267
  64   2.0000      -0.332014        -9.0346
  65   2.0000      -0.327680        -8.9166
  66   2.0000      -0.292687        -7.9644
  67   0.0000       0.027620         0.7516
  68   0.0000       0.070109         1.9078
  69   0.0000       0.107830         2.9342
  70   0.0000       0.117677         3.2021
  71   0.0000       0.120963         3.2916

MULLIKEN ATOMIC CHARGES
-----------------------
   0 S :    0.110722
   1 C :   -0.128522
   2 C :   -0.045464
   3 C :    0.000897
   4 C :   -0.127451
   5 H :    0.036794
   6 C :    0.025647
   7 H :    0.047508
   8 H :    0.027240
   9 C :   -0.040545
  10 H :    0.020069
  11 H :    0.026551
  12 C :   -0.051302
  13 H :    0.034394
  14 H :    0.029351
  15 H :    0.029966
  16 S :    0.093190
  17 C :   -0.103465
  18 C :   -0.027737
  19 C :   -0.018201
  20 C :   -0.176936
  21 H :    0.039525
  22 C :    0.043400
  23 H :    0.035341
  24 H :    0.011561
  25 C :   -0.067230
  26 H :    0.035872
  27 H :    0.025079
  28 C :   -0.043617
  29 H :    0.035094
  30 H :    0.018464
  31 H :    0.014979
  32 H :    0.025009
  33 H :    0.063817
Sum of atomic charges:   -0.0000000

LOEWDIN ATOMIC CHARGES
----------------------
   0 S :    0.379100
   1 C :   -0.168834
   2 C :   -0.062892
   3 C :   -0.064536
   4 C :   -0.189522
   5 H :    0.039640
   6 C :   -0.041179
   7 H :    0.034458
   8 H :    0.036726
   9 C :   -0.032953
  10 H :    0.023516
  11 H :    0.021588
  12 C :   -0.063995
  13 H :    0.033189
  14 H :    0.024818
  15 H :    0.019644
  16 S :    0.381698
  17 C :   -0.173720
  18 C :   -0.076718
  19 C :   -0.050884
  20 C :   -0.196702
  21 H :    0.041764
  22 C :   -0.037807
  23 H :    0.033403
  24 H :    0.027334
  25 C :   -0.036758
  26 H :    0.027613
  27 H :    0.021403
  28 C :   -0.068273
  29 H :    0.024610
  30 H :    0.028556
  31 H :    0.017294
  32 H :    0.019013
  33 H :    0.029407

  Mayer bond orders larger than 0.100000
B(  0-S ,  1-C ) :   1.0980 B(  0-S ,  4-C ) :   1.1413 B(  1-C ,  2-C ) :   1.6783
B(  1-C , 32-H ) :   0.9794 B(  2-C ,  3-C ) :   1.1857 B(  2-C ,  6-C ) :   1.0052
B(  3-C ,  4-C ) :   1.6128 B(  3-C ,  5-H ) :   0.9819 B(  4-C , 20-C ) :   1.0296
B(  6-C ,  7-H ) :   0.9388 B(  6-C ,  8-H ) :   0.9383 B(  6-C ,  9-C ) :   1.0940
B(  9-C , 10-H ) :   0.9505 B(  9-C , 11-H ) :   0.9444 B(  9-C , 12-C ) :   1.0762
B( 12-C , 13-H ) :   0.9712 B( 12-C , 14-H ) :   0.9735 B( 12-C , 15-H ) :   0.9768
B( 16-S , 17-C ) :   1.1449 B( 16-S , 20-C ) :   1.1493 B( 17-C , 18-C ) :   1.6067
B( 17-C , 20-C ) :   0.1019 B( 17-C , 33-H ) :   0.9658 B( 18-C , 19-C ) :   1.2498
B( 18-C , 21-H ) :   0.9848 B( 19-C , 20-C ) :   1.5588 B( 19-C , 22-C ) :   1.0354
B( 22-C , 23-H ) :   0.9518 B( 22-C , 24-H ) :   0.9308 B( 22-C , 25-C ) :   1.0636
B( 25-C , 26-H ) :   0.9594 B( 25-C , 27-H ) :   0.9533 B( 25-C , 28-C ) :   1.0766
B( 28-C , 29-H ) :   0.9755 B( 28-C , 30-H ) :   0.9732 B( 28-C , 31-H ) :   0.9728

Dispersion correction           -0.014273722
FINAL SINGLE POINT ENERGY     -1339.858296110002

DIPOLE MOMENT
-------------
                                X             Y             Z
Electronic contribution:     21.74974     -10.86436      17.32666
Nuclear contribution   :    -22.32976      11.20327     -17.69187
                        -----------------------------------------
Total Dipole Moment    :     -0.58002       0.33891      -0.36521
                        -----------------------------------------
Magnitude (a.u.)       :      0.76463
Magnitude (Debye)      :      1.94355

Rotational constants in cm-1:     0.015437     0.009983     0.007262
Rotational constants in MHz :   462.795174   299.282797   217.710815

                             ****ORCA TERMINATED NORMALLY****
TOTAL RUN TIME: 0 days 0 hours 0 minutes 21 seconds 824 msec
