                         Program Version 4.2.1 -  RELEASE  -
|  1> ! wB97X-D3 SP def2-SVP
|  2> %pal
|  3> nprocs 24
|  4> end
|  5>
|  6> * xyz 0 1
|  7> S 	 -86.1167 	 -7.86546 	 -60.6911
|  8> C 	 -87.5404 	 -8.62846 	 -60.06
|  9> C 	 -88.3812 	 -7.75588 	 -59.4018
| 10> C 	 -87.82 	 -6.39619 	 -59.4843
| 11> C 	 -86.4925 	 -6.42275 	 -59.8321
| 12> H 	 -88.2379 	 -5.43136 	 -59.1345
| 13> C 	 -89.8593 	 -8.01187 	 -59.1073
| 14> H 	 -90.1591 	 -7.50593 	 -58.1161
| 15> H 	 -89.7905 	 -9.05244 	 -58.9776
| 16> C 	 -90.8042 	 -7.61881 	 -60.3078
| 17> H 	 -90.8268 	 -6.57457 	 -60.4677
| 18> H 	 -90.4303 	 -8.06512 	 -61.2308
| 19> C 	 -92.2503 	 -8.12188 	 -60.0273
| 20> H 	 -92.2913 	 -9.24435 	 -59.9553
| 21> H 	 -92.7043 	 -7.68696 	 -59.1469
| 22> H 	 -92.8305 	 -7.9349 	 -60.9847
| 23> S 	 -84.8494 	 -4.93038 	 -58.1787
| 24> C 	 -83.654 	 -3.78935 	 -58.8215
| 25> C 	 -83.7817 	 -3.82285 	 -60.1611
| 26> C 	 -84.7442 	 -4.70334 	 -60.7691
| 27> C 	 -85.4873 	 -5.37306 	 -59.7909
| 28> H 	 -83.0796 	 -3.29132 	 -60.8072
| 29> C 	 -84.9844 	 -4.70903 	 -62.2797
| 30> H 	 -85.9848 	 -4.77859 	 -62.3903
| 31> H 	 -84.5978 	 -5.71086 	 -62.6563
| 32> C 	 -84.4853 	 -3.48669 	 -63.1244
| 33> H 	 -83.3387 	 -3.51603 	 -63.2337
| 34> H 	 -84.6441 	 -2.60483 	 -62.4869
| 35> C 	 -85.198 	 -3.5325 	 -64.4358
| 36> H 	 -84.7379 	 -2.69117 	 -65.0172
| 37> H 	 -86.2827 	 -3.41784 	 -64.467
| 38> H 	 -84.8707 	 -4.42243 	 -64.9736
| 39> H 	 -87.7374 	 -9.68906 	 -60.155
| 40> H 	 -82.8468 	 -3.25877 	 -58.2997
| 41> *
| 42>
| 43>                          ****END OF INPUT****

CARTESIAN COORDINATES (ANGSTROEM)
---------------------------------
  S    -86.116700   -7.865460  -60.691100
  C    -87.540400   -8.628460  -60.060000
  C    -88.381200   -7.755880  -59.401800
  C    -87.820000   -6.396190  -59.484300
  C    -86.492500   -6.422750  -59.832100
  H    -88.237900   -5.431360  -59.134500
  C    -89.859300   -8.011870  -59.107300
  H    -90.159100   -7.505930  -58.116100
  H    -89.790500   -9.052440  -58.977600
  C    -90.804200   -7.618810  -60.307800
  H    -90.826800   -6.574570  -60.467700
  H    -90.430300   -8.065120  -61.230800
  C    -92.250300   -8.121880  -60.027300
  H    -92.291300   -9.244350  -59.955300
  H    -92.704300   -7.686960  -59.146900
  H    -92.830500   -7.934900  -60.984700
  S    -84.849400   -4.930380  -58.178700
  C    -83.654000   -3.789350  -58.821500
  C    -83.781700   -3.822850  -60.161100
  C    -84.744200   -4.703340  -60.769100
  C    -85.487300   -5.373060  -59.790900
  H    -83.079600   -3.291320  -60.807200
  C    -84.984400   -4.709030  -62.279700
  H    -85.984800   -4.778590  -62.390300
  H    -84.597800   -5.710860  -62.656300
  C    -84.485300   -3.486690  -63.124400
  H    -83.338700   -3.516030  -63.233700
  H    -84.644100   -2.604830  -62.486900
  C    -85.198000   -3.532500  -64.435800
  H    -84.737900   -2.691170  -65.017200
  H    -86.282700   -3.417840  -64.467000
  H    -84.870700   -4.422430  -64.973600
  H    -87.737400   -9.689060  -60.155000
  H    -82.846800   -3.258770  -58.299700

 Total Charge           Charge          ....    0
 Multiplicity           Mult            ....    1
 Number of Electrons    NEL             ....  134
 Basis Dimension        Dim             ....  322

ORBITAL ENERGIES
----------------

  NO   OCC          E(Eh)            E(eV)
   0   2.0000     -88.963186     -2420.8114
   1   2.0000     -88.959623     -2420.7144
   2   2.0000     -10.327646      -281.0295
   3   2.0000     -10.324439      -280.9423
   4   2.0000     -10.316492      -280.7260
   5   2.0000     -10.313395      -280.6417
   6   2.0000     -10.303707      -280.3781
   7   2.0000     -10.303332      -280.3679
   8   2.0000     -10.297990      -280.2225
   9   2.0000     -10.297417      -280.2070
  10   2.0000     -10.297201      -280.2011
  11   2.0000     -10.290514      -280.0191
  12   2.0000     -10.288051      -279.9521
  13   2.0000     -10.287614      -279.9402
  14   2.0000     -10.287278      -279.9311
  15   2.0000     -10.282616      -279.8042
  16   2.0000      -8.079017      -219.8412
  17   2.0000      -8.073450      -219.6897
  18   2.0000      -6.037510      -164.2890
  19   2.0000      -6.033563      -164.1816
  20   2.0000      -6.032166      -164.1436
  21   2.0000      -6.029536      -164.0720
  22   2.0000      -6.027991      -164.0300
  23   2.0000      -6.024107      -163.9243
  24   2.0000      -1.006636       -27.3920
  25   2.0000      -0.981110       -26.6974
  26   2.0000      -0.909537       -24.7498
  27   2.0000      -0.906867       -24.6771
  28   2.0000      -0.868998       -23.6466
  29   2.0000      -0.847318       -23.0567
  30   2.0000      -0.843885       -22.9633
  31   2.0000      -0.814442       -22.1621
  32   2.0000      -0.778708       -21.1897
  33   2.0000      -0.766105       -20.8468
  34   2.0000      -0.707595       -19.2546
  35   2.0000      -0.704973       -19.1833
  36   2.0000      -0.694551       -18.8997
  37   2.0000      -0.651098       -17.7173
  38   2.0000      -0.638353       -17.3705
  39   2.0000      -0.609523       -16.5860
  40   2.0000      -0.595999       -16.2180
  41   2.0000      -0.570627       -15.5276
  42   2.0000      -0.567414       -15.4401
  43   2.0000      -0.555853       -15.1255
  44   2.0000      -0.527839       -14.3632
  45   2.0000      -0.520889       -14.1741
  46   2.0000      -0.516120       -14.0444
  47   2.0000      -0.507352       -13.8057
  48   2.0000      -0.506061       -13.7706
  49   2.0000      -0.498180       -13.5562
  50   2.0000      -0.491940       -13.3864
  51   2.0000      -0.484160       -13.1747
  52   2.0000      -0.465839       -12.6761
  53   2.0000      -0.462325       -12.5805
  54   2.0000      -0.456979       -12.4350
  55   2.0000      -0.451112       -12.2754
  56   2.0000      -0.444256       -12.0888
  57   2.0000      -0.437703       -11.9105
  58   2.0000      -0.430141       -11.7047
  59   2.0000      -0.425920       -11.5899
  60   2.0000      -0.419557       -11.4167
  61   2.0000      -0.417534       -11.3617
  62   2.0000      -0.405907       -11.0453
  63   2.0000      -0.338763        -9.2182
  64   2.0000      -0.327534        -8.9127
  65   2.0000      -0.322361        -8.7719
  66   2.0000      -0.298047        -8.1103
  67   0.0000       0.036188         0.9847
  68   0.0000       0.060826         1.6552
  69   0.0000       0.101338         2.7576
  70   0.0000       0.127358         3.4656
  71   0.0000       0.132343         3.6012

MULLIKEN ATOMIC CHARGES
-----------------------
   0 S :    0.118217
   1 C :   -0.120141
   2 C :   -0.097540
   3 C :    0.027381
   4 C :   -0.181327
   5 H :    0.029915
   6 C :    0.055001
   7 H :    0.046069
   8 H :    0.008925
   9 C :   -0.045963
  10 H :    0.026735
  11 H :    0.028628
  12 C :   -0.077910
  13 H :    0.035080
  14 H :    0.043320
  15 H :    0.042796
  16 S :    0.089766
  17 C :   -0.081100
  18 C :   -0.051993
  19 C :   -0.045446
  20 C :   -0.170741
  21 H :    0.016599
  22 C :    0.096263
  23 H :    0.000508
  24 H :    0.039204
  25 C :   -0.120639
  26 H :    0.046719
  27 H :    0.039521
  28 C :   -0.032727
  29 H :    0.032587
  30 H :    0.050200
  31 H :    0.034317
  32 H :    0.050699
  33 H :    0.067077
Sum of atomic charges:   -0.0000000

LOEWDIN ATOMIC CHARGES
----------------------
   0 S :    0.419647
   1 C :   -0.198807
   2 C :   -0.064737
   3 C :   -0.060673
   4 C :   -0.206996
   5 H :    0.036936
   6 C :   -0.031478
   7 H :    0.038885
   8 H :    0.021599
   9 C :   -0.029772
  10 H :    0.018935
  11 H :    0.027141
  12 C :   -0.072283
  13 H :    0.028007
  14 H :    0.023152
  15 H :    0.033793
  16 S :    0.381073
  17 C :   -0.185086
  18 C :   -0.082364
  19 C :   -0.058292
  20 C :   -0.193558
  21 H :    0.028021
  22 C :   -0.032164
  23 H :    0.014866
  24 H :    0.038963
  25 C :   -0.046684
  26 H :    0.032923
  27 H :    0.025050
  28 C :   -0.067310
  29 H :    0.033378
  30 H :    0.029259
  31 H :    0.029841
  32 H :    0.026296
  33 H :    0.042439

  Mayer bond orders larger than 0.100000
B(  0-S ,  1-C ) :   1.1411 B(  0-S ,  4-C ) :   1.1410 B(  1-C ,  2-C ) :   1.6282
B(  1-C , 32-H ) :   0.9661 B(  2-C ,  3-C ) :   1.1888 B(  2-C ,  6-C ) :   1.0365
B(  3-C ,  4-C ) :   1.6220 B(  3-C ,  5-H ) :   0.9839 B(  4-C , 20-C ) :   1.0277
B(  6-C ,  7-H ) :   0.9395 B(  6-C ,  8-H ) :   0.9414 B(  6-C ,  9-C ) :   1.0514
B(  9-C , 10-H ) :   0.9575 B(  9-C , 11-H ) :   0.9561 B(  9-C , 12-C ) :   1.0793
B( 12-C , 13-H ) :   0.9773 B( 12-C , 14-H ) :   0.9765 B( 12-C , 15-H ) :   0.9741
B( 16-S , 17-C ) :   1.1302 B( 16-S , 20-C ) :   1.1394 B( 17-C , 18-C ) :   1.6213
B( 17-C , 33-H ) :   0.9628 B( 18-C , 19-C ) :   1.2557 B( 18-C , 21-H ) :   0.9739
B( 19-C , 20-C ) :   1.5939 B( 19-C , 22-C ) :   1.0196 B( 22-C , 23-H ) :   0.9365
B( 22-C , 24-H ) :   0.9160 B( 22-C , 25-C ) :   1.0693 B( 25-C , 26-H ) :   0.9469
B( 25-C , 27-H ) :   0.9554 B( 25-C , 28-C ) :   1.0848 B( 28-C , 29-H ) :   0.9695
B( 28-C , 30-H ) :   0.9749 B( 28-C , 31-H ) :   0.9693

Dispersion correction           -0.013619284
FINAL SINGLE POINT ENERGY     -1339.856961864211

DIPOLE MOMENT
-------------
                                X             Y             Z
Electronic contribution:     16.55377      -3.01552      15.40493
Nuclear contribution   :    -16.83092       3.14294     -15.91584
                        -----------------------------------------
Total Dipole Moment    :     -0.27715       0.12742      -0.51091
                        -----------------------------------------
Magnitude (a.u.)       :      0.59504
Magnitude (Debye)      :      1.51247

Rotational constants in cm-1:     0.019484     0.007258     0.006134
Rotational constants in MHz :   584.113605   217.598144   183.878748

                             ****ORCA TERMINATED NORMALLY****
TOTAL RUN TIME: 0 days 0 hours 0 minutes 20 seconds 661 msec
