                         Program Version 4.2.1 -  RELEASE  -
|  1> ! wB97X-D3 SP def2-SVP
|  2> %pal
|  3> nprocs 24
|  4> end
|  5>
|  6> * xyz 0 1
|  7> S 	 -69.889 	 21.731 	 -73.814
|  8> C 	 -68.5826 	 22.2341 	 -72.7208
|  9> C 	 -67.6265 	 21.2481 	 -72.5959
| 10> C 	 -68.0108 	 20.0389 	 -73.2964
| 11> C 	 -69.1823 	 20.1443 	 -73.9596
| 12> H 	 -67.3711 	 19.1398 	 -73.2127
| 13> C 	 -66.4758 	 21.4173 	 -71.6428
| 14> H 	 -66.2338 	 22.4798 	 -71.6694
| 15> H 	 -65.5491 	 20.8259 	 -71.9903
| 16> C 	 -66.7683 	 21.0321 	 -70.1745
| 17> H 	 -67.6871 	 21.462 	 -69.7369
| 18> H 	 -66.8736 	 19.9524 	 -70.068
| 19> C 	 -65.5983 	 21.5215 	 -69.277
| 20> H 	 -65.5646 	 20.9448 	 -68.3182
| 21> H 	 -64.6259 	 21.2203 	 -69.6635
| 22> H 	 -65.4919 	 22.5639 	 -68.9742
| 23> S 	 -71.3888 	 18.5999 	 -74.1782
| 24> C 	 -71.4042 	 17.4515 	 -75.4924
| 25> C 	 -70.3633 	 17.4631 	 -76.3458
| 26> C 	 -69.4207 	 18.4484 	 -75.9469
| 27> C 	 -69.8601 	 19.1956 	 -74.8123
| 28> H 	 -70.2231 	 16.7976 	 -77.1743
| 29> C 	 -68.2193 	 18.8009 	 -76.7474
| 30> H 	 -67.6012 	 19.6957 	 -76.2516
| 31> H 	 -68.6326 	 19.2163 	 -77.6441
| 32> C 	 -67.3903 	 17.5498 	 -77.147
| 33> H 	 -66.696 	 17.7235 	 -77.9918
| 34> H 	 -68.0543 	 16.7346 	 -77.5174
| 35> C 	 -66.5639 	 17.0749 	 -76.0093
| 36> H 	 -67.139 	 16.9685 	 -75.0658
| 37> H 	 -65.6594 	 17.6654 	 -75.8546
| 38> H 	 -66.163 	 16.0913 	 -76.2161
| 39> H 	 -68.4994 	 23.1531 	 -72.2517
| 40> H 	 -72.2416 	 16.7954 	 -75.6035
| 41> *
| 42>
| 43>                          ****END OF INPUT****

CARTESIAN COORDINATES (ANGSTROEM)
---------------------------------
  S    -69.889000   21.731000  -73.814000
  C    -68.582600   22.234100  -72.720800
  C    -67.626500   21.248100  -72.595900
  C    -68.010800   20.038900  -73.296400
  C    -69.182300   20.144300  -73.959600
  H    -67.371100   19.139800  -73.212700
  C    -66.475800   21.417300  -71.642800
  H    -66.233800   22.479800  -71.669400
  H    -65.549100   20.825900  -71.990300
  C    -66.768300   21.032100  -70.174500
  H    -67.687100   21.462000  -69.736900
  H    -66.873600   19.952400  -70.068000
  C    -65.598300   21.521500  -69.277000
  H    -65.564600   20.944800  -68.318200
  H    -64.625900   21.220300  -69.663500
  H    -65.491900   22.563900  -68.974200
  S    -71.388800   18.599900  -74.178200
  C    -71.404200   17.451500  -75.492400
  C    -70.363300   17.463100  -76.345800
  C    -69.420700   18.448400  -75.946900
  C    -69.860100   19.195600  -74.812300
  H    -70.223100   16.797600  -77.174300
  C    -68.219300   18.800900  -76.747400
  H    -67.601200   19.695700  -76.251600
  H    -68.632600   19.216300  -77.644100
  C    -67.390300   17.549800  -77.147000
  H    -66.696000   17.723500  -77.991800
  H    -68.054300   16.734600  -77.517400
  C    -66.563900   17.074900  -76.009300
  H    -67.139000   16.968500  -75.065800
  H    -65.659400   17.665400  -75.854600
  H    -66.163000   16.091300  -76.216100
  H    -68.499400   23.153100  -72.251700
  H    -72.241600   16.795400  -75.603500

 Total Charge           Charge          ....    0
 Multiplicity           Mult            ....    1
 Number of Electrons    NEL             ....  134
 Basis Dimension        Dim             ....  322

ORBITAL ENERGIES
----------------

  NO   OCC          E(Eh)            E(eV)
   0   2.0000     -88.965405     -2420.8717
   1   2.0000     -88.961456     -2420.7643
   2   2.0000     -10.322989      -280.9028
   3   2.0000     -10.322314      -280.8844
   4   2.0000     -10.313287      -280.6388
   5   2.0000     -10.306686      -280.4592
   6   2.0000     -10.305231      -280.4196
   7   2.0000     -10.298625      -280.2398
   8   2.0000     -10.297273      -280.2031
   9   2.0000     -10.295861      -280.1646
  10   2.0000     -10.293226      -280.0929
  11   2.0000     -10.292284      -280.0673
  12   2.0000     -10.290827      -280.0276
  13   2.0000     -10.290306      -280.0135
  14   2.0000     -10.279840      -279.7287
  15   2.0000     -10.272555      -279.5304
  16   2.0000      -8.080370      -219.8781
  17   2.0000      -8.076194      -219.7644
  18   2.0000      -6.038649      -164.3200
  19   2.0000      -6.034983      -164.2202
  20   2.0000      -6.034786      -164.2149
  21   2.0000      -6.031222      -164.1179
  22   2.0000      -6.030736      -164.1047
  23   2.0000      -6.026834      -163.9985
  24   2.0000      -1.006312       -27.3831
  25   2.0000      -0.982940       -26.7472
  26   2.0000      -0.913496       -24.8575
  27   2.0000      -0.908901       -24.7325
  28   2.0000      -0.869702       -23.6658
  29   2.0000      -0.853073       -23.2133
  30   2.0000      -0.842159       -22.9163
  31   2.0000      -0.817877       -22.2556
  32   2.0000      -0.780588       -21.2409
  33   2.0000      -0.764893       -20.8138
  34   2.0000      -0.707689       -19.2572
  35   2.0000      -0.699668       -19.0389
  36   2.0000      -0.693624       -18.8745
  37   2.0000      -0.657147       -17.8819
  38   2.0000      -0.641048       -17.4438
  39   2.0000      -0.619248       -16.8506
  40   2.0000      -0.599193       -16.3049
  41   2.0000      -0.568523       -15.4703
  42   2.0000      -0.558944       -15.2096
  43   2.0000      -0.555695       -15.1212
  44   2.0000      -0.540291       -14.7021
  45   2.0000      -0.521020       -14.1777
  46   2.0000      -0.514210       -13.9924
  47   2.0000      -0.508713       -13.8428
  48   2.0000      -0.503058       -13.6889
  49   2.0000      -0.493959       -13.4413
  50   2.0000      -0.491286       -13.3686
  51   2.0000      -0.474989       -12.9251
  52   2.0000      -0.465659       -12.6712
  53   2.0000      -0.459455       -12.5024
  54   2.0000      -0.456625       -12.4254
  55   2.0000      -0.452279       -12.3071
  56   2.0000      -0.445489       -12.1224
  57   2.0000      -0.434156       -11.8140
  58   2.0000      -0.431820       -11.7504
  59   2.0000      -0.426436       -11.6039
  60   2.0000      -0.422643       -11.5007
  61   2.0000      -0.417417       -11.3585
  62   2.0000      -0.415854       -11.3159
  63   2.0000      -0.343379        -9.3438
  64   2.0000      -0.328207        -8.9310
  65   2.0000      -0.325679        -8.8622
  66   2.0000      -0.295134        -8.0310
  67   0.0000       0.038708         1.0533
  68   0.0000       0.066382         1.8063
  69   0.0000       0.111713         3.0399
  70   0.0000       0.117924         3.2089
  71   0.0000       0.127260         3.4629

MULLIKEN ATOMIC CHARGES
-----------------------
   0 S :    0.102197
   1 C :   -0.089679
   2 C :   -0.096099
   3 C :    0.035886
   4 C :   -0.151059
   5 H :    0.018868
   6 C :    0.024203
   7 H :    0.026646
   8 H :    0.040291
   9 C :   -0.044394
  10 H :    0.036529
  11 H :    0.031181
  12 C :   -0.074378
  13 H :    0.026716
  14 H :    0.014696
  15 H :    0.042575
  16 S :    0.115490
  17 C :   -0.068042
  18 C :   -0.018578
  19 C :   -0.017249
  20 C :   -0.174607
  21 H :    0.016160
  22 C :    0.032678
  23 H :    0.062734
  24 H :    0.034102
  25 C :   -0.093661
  26 H :    0.030301
  27 H :    0.030103
  28 C :   -0.040330
  29 H :    0.041538
  30 H :    0.028954
  31 H :    0.018027
  32 H :    0.015627
  33 H :    0.042574
Sum of atomic charges:   -0.0000000

LOEWDIN ATOMIC CHARGES
----------------------
   0 S :    0.392822
   1 C :   -0.177402
   2 C :   -0.064283
   3 C :   -0.066262
   4 C :   -0.199863
   5 H :    0.037129
   6 C :   -0.038111
   7 H :    0.031321
   8 H :    0.038913
   9 C :   -0.036896
  10 H :    0.028632
  11 H :    0.026089
  12 C :   -0.078844
  13 H :    0.030632
  14 H :    0.020574
  15 H :    0.025303
  16 S :    0.408039
  17 C :   -0.168073
  18 C :   -0.071404
  19 C :   -0.044658
  20 C :   -0.212057
  21 H :    0.032284
  22 C :   -0.040145
  23 H :    0.049830
  24 H :    0.031991
  25 C :   -0.046788
  26 H :    0.027670
  27 H :    0.025608
  28 C :   -0.069708
  29 H :    0.027416
  30 H :    0.025442
  31 H :    0.022979
  32 H :    0.011941
  33 H :    0.019882

  Mayer bond orders larger than 0.100000
B(  0-S ,  1-C ) :   1.1204 B(  0-S ,  4-C ) :   1.1488 B(  1-C ,  2-C ) :   1.6316
B(  1-C , 32-H ) :   0.9776 B(  2-C ,  3-C ) :   1.2144 B(  2-C ,  6-C ) :   1.0357
B(  3-C ,  4-C ) :   1.6050 B(  3-C ,  5-H ) :   0.9993 B(  4-C , 20-C ) :   0.9993
B(  6-C ,  7-H ) :   0.9423 B(  6-C ,  8-H ) :   0.9368 B(  6-C ,  9-C ) :   1.0613
B(  9-C , 10-H ) :   0.9580 B(  9-C , 11-H ) :   0.9553 B(  9-C , 12-C ) :   1.0714
B( 12-C , 13-H ) :   0.9729 B( 12-C , 14-H ) :   0.9722 B( 12-C , 15-H ) :   0.9793
B( 16-S , 17-C ) :   1.1618 B( 16-S , 20-C ) :   1.1455 B( 17-C , 18-C ) :   1.6185
B( 17-C , 33-H ) :   0.9649 B( 18-C , 19-C ) :   1.2281 B( 18-C , 21-H ) :   0.9924
B( 19-C , 20-C ) :   1.5824 B( 19-C , 22-C ) :   1.0372 B( 22-C , 23-H ) :   0.9431
B( 22-C , 24-H ) :   0.9297 B( 22-C , 25-C ) :   1.0556 B( 25-C , 26-H ) :   0.9525
B( 25-C , 27-H ) :   0.9559 B( 25-C , 28-C ) :   1.0876 B( 28-C , 29-H ) :   0.9722
B( 28-C , 30-H ) :   0.9729 B( 28-C , 31-H ) :   0.9669

Dispersion correction           -0.014348975
FINAL SINGLE POINT ENERGY     -1339.883029259404

DIPOLE MOMENT
-------------
                                X             Y             Z
Electronic contribution:    -25.70188       4.45853      -6.10550
Nuclear contribution   :     26.24143      -4.77325       6.03404
                        -----------------------------------------
Total Dipole Moment    :      0.53955      -0.31472      -0.07146
                        -----------------------------------------
Magnitude (a.u.)       :      0.62871
Magnitude (Debye)      :      1.59805

Rotational constants in cm-1:     0.020095     0.007925     0.006618
Rotational constants in MHz :   602.437446   237.593240   198.389384

                             ****ORCA TERMINATED NORMALLY****
TOTAL RUN TIME: 0 days 0 hours 0 minutes 21 seconds 659 msec
