                         Program Version 4.2.1 -  RELEASE  -
|  1> ! wB97X-D3 SP def2-SVP
|  2> %pal
|  3> nprocs 24
|  4> end
|  5>
|  6> * xyz 0 1
|  7> S 	 -138.024 	 24.7685 	 -18.4721
|  8> C 	 -139.102 	 23.4188 	 -18.5094
|  9> C 	 -138.519 	 22.3444 	 -19.1699
| 10> C 	 -137.18 	 22.6456 	 -19.6283
| 11> C 	 -136.813 	 23.9503 	 -19.4109
| 12> H 	 -136.508 	 22.1028 	 -20.2082
| 13> C 	 -139.108 	 20.997 	 -19.3443
| 14> H 	 -138.905 	 20.7337 	 -20.4025
| 15> H 	 -140.182 	 21.0341 	 -19.2439
| 16> C 	 -138.578 	 19.9563 	 -18.3336
| 17> H 	 -139.076 	 19.0757 	 -18.4049
| 18> H 	 -137.53 	 19.5664 	 -18.5643
| 19> C 	 -138.847 	 20.4588 	 -16.9131
| 20> H 	 -138.571 	 21.4931 	 -16.6951
| 21> H 	 -139.853 	 20.3631 	 -16.6351
| 22> H 	 -138.386 	 19.8613 	 -16.1439
| 23> S 	 -134.575 	 24.3055 	 -17.9703
| 24> C 	 -133.138 	 24.99 	 -18.6772
| 25> C 	 -133.248 	 25.0637 	 -20.0833
| 26> C 	 -134.56 	 24.7228 	 -20.5268
| 27> C 	 -135.423 	 24.4952 	 -19.4905
| 28> H 	 -132.317 	 25.2596 	 -20.6873
| 29> C 	 -134.928 	 24.363 	 -21.9485
| 30> H 	 -134.86 	 25.1696 	 -22.6027
| 31> H 	 -135.993 	 24.253 	 -21.9986
| 32> C 	 -134.292 	 23.1488 	 -22.5695
| 33> H 	 -134.252 	 22.3563 	 -21.8135
| 34> H 	 -133.269 	 23.2802 	 -22.786
| 35> C 	 -135.129 	 22.7293 	 -23.9043
| 36> H 	 -135.14 	 23.5517 	 -24.633
| 37> H 	 -136.21 	 22.5563 	 -23.8103
| 38> H 	 -134.761 	 21.9064 	 -24.5595
| 39> H 	 -140.122 	 23.4665 	 -18.086
| 40> H 	 -132.266 	 25.1551 	 -18.0777
| 41> *
| 42>
| 43>                          ****END OF INPUT****

CARTESIAN COORDINATES (ANGSTROEM)
---------------------------------
  S    -138.024000   24.768500  -18.472100
  C    -139.102000   23.418800  -18.509400
  C    -138.519000   22.344400  -19.169900
  C    -137.180000   22.645600  -19.628300
  C    -136.813000   23.950300  -19.410900
  H    -136.508000   22.102800  -20.208200
  C    -139.108000   20.997000  -19.344300
  H    -138.905000   20.733700  -20.402500
  H    -140.182000   21.034100  -19.243900
  C    -138.578000   19.956300  -18.333600
  H    -139.076000   19.075700  -18.404900
  H    -137.530000   19.566400  -18.564300
  C    -138.847000   20.458800  -16.913100
  H    -138.571000   21.493100  -16.695100
  H    -139.853000   20.363100  -16.635100
  H    -138.386000   19.861300  -16.143900
  S    -134.575000   24.305500  -17.970300
  C    -133.138000   24.990000  -18.677200
  C    -133.248000   25.063700  -20.083300
  C    -134.560000   24.722800  -20.526800
  C    -135.423000   24.495200  -19.490500
  H    -132.317000   25.259600  -20.687300
  C    -134.928000   24.363000  -21.948500
  H    -134.860000   25.169600  -22.602700
  H    -135.993000   24.253000  -21.998600
  C    -134.292000   23.148800  -22.569500
  H    -134.252000   22.356300  -21.813500
  H    -133.269000   23.280200  -22.786000
  C    -135.129000   22.729300  -23.904300
  H    -135.140000   23.551700  -24.633000
  H    -136.210000   22.556300  -23.810300
  H    -134.761000   21.906400  -24.559500
  H    -140.122000   23.466500  -18.086000
  H    -132.266000   25.155100  -18.077700

 Total Charge           Charge          ....    0
 Multiplicity           Mult            ....    1
 Number of Electrons    NEL             ....  134
 Basis Dimension        Dim             ....  322

ORBITAL ENERGIES
----------------

  NO   OCC          E(Eh)            E(eV)
   0   2.0000     -88.963116     -2420.8095
   1   2.0000     -88.961929     -2420.7772
   2   2.0000     -10.325259      -280.9646
   3   2.0000     -10.323903      -280.9277
   4   2.0000     -10.318817      -280.7893
   5   2.0000     -10.315515      -280.6994
   6   2.0000     -10.303073      -280.3609
   7   2.0000     -10.301941      -280.3301
   8   2.0000     -10.300840      -280.3001
   9   2.0000     -10.294144      -280.1179
  10   2.0000     -10.290510      -280.0190
  11   2.0000     -10.289804      -279.9998
  12   2.0000     -10.289308      -279.9863
  13   2.0000     -10.284590      -279.8579
  14   2.0000     -10.280628      -279.7501
  15   2.0000     -10.266020      -279.3526
  16   2.0000      -8.078288      -219.8214
  17   2.0000      -8.077389      -219.7969
  18   2.0000      -6.036649      -164.2656
  19   2.0000      -6.035805      -164.2426
  20   2.0000      -6.032925      -164.1642
  21   2.0000      -6.031631      -164.1290
  22   2.0000      -6.028965      -164.0565
  23   2.0000      -6.028373      -164.0404
  24   2.0000      -1.008692       -27.4479
  25   2.0000      -0.985809       -26.8252
  26   2.0000      -0.914280       -24.8788
  27   2.0000      -0.909548       -24.7501
  28   2.0000      -0.864733       -23.5306
  29   2.0000      -0.847791       -23.0696
  30   2.0000      -0.844034       -22.9673
  31   2.0000      -0.811680       -22.0869
  32   2.0000      -0.782290       -21.2872
  33   2.0000      -0.774007       -21.0618
  34   2.0000      -0.717432       -19.5223
  35   2.0000      -0.710126       -19.3235
  36   2.0000      -0.689728       -18.7684
  37   2.0000      -0.660698       -17.9785
  38   2.0000      -0.649288       -17.6680
  39   2.0000      -0.616858       -16.7856
  40   2.0000      -0.599582       -16.3155
  41   2.0000      -0.565574       -15.3901
  42   2.0000      -0.560102       -15.2412
  43   2.0000      -0.551232       -14.9998
  44   2.0000      -0.543131       -14.7794
  45   2.0000      -0.520666       -14.1680
  46   2.0000      -0.513585       -13.9754
  47   2.0000      -0.511714       -13.9244
  48   2.0000      -0.502138       -13.6639
  49   2.0000      -0.492359       -13.3978
  50   2.0000      -0.482311       -13.1243
  51   2.0000      -0.478682       -13.0256
  52   2.0000      -0.466951       -12.7064
  53   2.0000      -0.464433       -12.6379
  54   2.0000      -0.456939       -12.4340
  55   2.0000      -0.449924       -12.2431
  56   2.0000      -0.445720       -12.1286
  57   2.0000      -0.439661       -11.9638
  58   2.0000      -0.436037       -11.8652
  59   2.0000      -0.428662       -11.6645
  60   2.0000      -0.420966       -11.4551
  61   2.0000      -0.418326       -11.3832
  62   2.0000      -0.414435       -11.2773
  63   2.0000      -0.339671        -9.2429
  64   2.0000      -0.326779        -8.8921
  65   2.0000      -0.319481        -8.6935
  66   2.0000      -0.306918        -8.3517
  67   0.0000       0.039677         1.0797
  68   0.0000       0.058561         1.5935
  69   0.0000       0.105169         2.8618
  70   0.0000       0.122208         3.3254
  71   0.0000       0.135001         3.6736

MULLIKEN ATOMIC CHARGES
-----------------------
   0 S :    0.108176
   1 C :   -0.134675
   2 C :   -0.095023
   3 C :    0.074475
   4 C :   -0.173305
   5 H :   -0.015969
   6 C :    0.069276
   7 H :    0.033337
   8 H :    0.014825
   9 C :   -0.020152
  10 H :    0.002020
  11 H :    0.034668
  12 C :   -0.046647
  13 H :    0.046794
  14 H :    0.007144
  15 H :    0.019258
  16 S :    0.113735
  17 C :   -0.099741
  18 C :   -0.053257
  19 C :   -0.032292
  20 C :   -0.157494
  21 H :    0.043687
  22 C :    0.096143
  23 H :    0.001111
  24 H :    0.009171
  25 C :   -0.018918
  26 H :    0.028897
  27 H :    0.020734
  28 C :   -0.096465
  29 H :    0.023219
  30 H :    0.037071
  31 H :    0.040081
  32 H :    0.064360
  33 H :    0.055756
Sum of atomic charges:    0.0000000

LOEWDIN ATOMIC CHARGES
----------------------
   0 S :    0.418680
   1 C :   -0.207653
   2 C :   -0.064196
   3 C :   -0.050058
   4 C :   -0.207382
   5 H :    0.021597
   6 C :   -0.032306
   7 H :    0.035188
   8 H :    0.027529
   9 C :   -0.034283
  10 H :    0.011427
  11 H :    0.031371
  12 C :   -0.064779
  13 H :    0.027545
  14 H :    0.017934
  15 H :    0.025745
  16 S :    0.416699
  17 C :   -0.181524
  18 C :   -0.077874
  19 C :   -0.057968
  20 C :   -0.197623
  21 H :    0.042948
  22 C :   -0.032933
  23 H :    0.021893
  24 H :    0.030782
  25 C :   -0.023955
  26 H :    0.023319
  27 H :    0.018438
  28 C :   -0.080324
  29 H :    0.025665
  30 H :    0.027313
  31 H :    0.030380
  32 H :    0.035944
  33 H :    0.022459

  Mayer bond orders larger than 0.100000
B(  0-S ,  1-C ) :   1.1517 B(  0-S ,  4-C ) :   1.1626 B(  1-C ,  2-C ) :   1.5851
B(  1-C , 32-H ) :   0.9674 B(  2-C ,  3-C ) :   1.2188 B(  2-C ,  6-C ) :   1.0448
B(  3-C ,  4-C ) :   1.5840 B(  3-C ,  5-H ) :   1.0070 B(  4-C , 20-C ) :   0.9759
B(  6-C ,  7-H ) :   0.9368 B(  6-C ,  8-H ) :   0.9404 B(  6-C ,  9-C ) :   1.0703
B(  9-C , 10-H ) :   0.9517 B(  9-C , 11-H ) :   0.9564 B(  9-C , 12-C ) :   1.0649
B( 12-C , 13-H ) :   0.9765 B( 12-C , 14-H ) :   0.9728 B( 12-C , 15-H ) :   0.9689
B( 16-S , 17-C ) :   1.1737 B( 16-S , 20-C ) :   1.1613 B( 17-C , 18-C ) :   1.5837
B( 17-C , 20-C ) :   0.1023 B( 17-C , 33-H ) :   0.9734 B( 18-C , 19-C ) :   1.2343
B( 18-C , 21-H ) :   0.9888 B( 19-C , 20-C ) :   1.6192 B( 19-C , 22-C ) :   1.0530
B( 22-C , 23-H ) :   0.9205 B( 22-C , 24-H ) :   0.9289 B( 22-C , 25-C ) :   1.0524
B( 25-C , 26-H ) :   0.9601 B( 25-C , 27-H ) :   0.9544 B( 25-C , 28-C ) :   1.0508
B( 28-C , 29-H ) :   0.9762 B( 28-C , 30-H ) :   0.9801 B( 28-C , 31-H ) :   0.9789

Dispersion correction           -0.014969750
FINAL SINGLE POINT ENERGY     -1339.856119717259

DIPOLE MOMENT
-------------
                                X             Y             Z
Electronic contribution:      3.69706      18.31839      13.29911
Nuclear contribution   :     -3.64435     -18.90332     -13.63018
                        -----------------------------------------
Total Dipole Moment    :      0.05270      -0.58493      -0.33108
                        -----------------------------------------
Magnitude (a.u.)       :      0.67419
Magnitude (Debye)      :      1.71366

Rotational constants in cm-1:     0.018076     0.009194     0.007487
Rotational constants in MHz :   541.907479   275.619585   224.442636

                             ****ORCA TERMINATED NORMALLY****
TOTAL RUN TIME: 0 days 0 hours 0 minutes 21 seconds 957 msec
