                         Program Version 4.2.1 -  RELEASE  -
|  1> ! wB97X-D3 SP def2-SVP
|  2> %pal
|  3> nprocs 24
|  4> end
|  5>
|  6> * xyz 0 1
|  7> S 	 -117.496 	 62.7204 	 -82.2141
|  8> C 	 -117.283 	 63.5908 	 -80.6955
|  9> C 	 -116.536 	 62.8482 	 -79.8337
| 10> C 	 -116.085 	 61.6123 	 -80.3873
| 11> C 	 -116.619 	 61.3372 	 -81.6243
| 12> H 	 -115.433 	 60.9099 	 -79.8985
| 13> C 	 -116.209 	 63.224 	 -78.372
| 14> H 	 -115.914 	 64.2135 	 -78.4394
| 15> H 	 -115.183 	 62.8688 	 -78.1507
| 16> C 	 -117.384 	 62.8851 	 -77.3707
| 17> H 	 -117.304 	 63.4118 	 -76.4577
| 18> H 	 -118.307 	 63.2157 	 -77.7983
| 19> C 	 -117.469 	 61.336 	 -77.1607
| 20> H 	 -118.014 	 61.025 	 -76.2614
| 21> H 	 -118.006 	 60.9604 	 -78.009
| 22> H 	 -116.474 	 60.9654 	 -76.9957
| 23> S 	 -116.268 	 60.253 	 -84.0754
| 24> C 	 -116.397 	 58.5732 	 -84.2693
| 25> C 	 -116.59 	 57.9023 	 -83.0679
| 26> C 	 -116.558 	 58.794 	 -81.9229
| 27> C 	 -116.593 	 60.0627 	 -82.3461
| 28> H 	 -116.747 	 56.824 	 -82.9671
| 29> C 	 -116.58 	 58.1717 	 -80.5149
| 30> H 	 -117.538 	 57.6767 	 -80.3857
| 31> H 	 -116.582 	 59.0805 	 -79.8463
| 32> C 	 -115.388 	 57.2662 	 -80.204
| 33> H 	 -114.413 	 57.7732 	 -80.3172
| 34> H 	 -115.398 	 56.4045 	 -80.858
| 35> C 	 -115.547 	 56.6524 	 -78.8646
| 36> H 	 -115.55 	 57.4004 	 -78.1527
| 37> H 	 -114.695 	 56.0282 	 -78.5949
| 38> H 	 -116.497 	 56.1425 	 -78.645
| 39> H 	 -117.744 	 64.4943 	 -80.4415
| 40> H 	 -116.413 	 58.0794 	 -85.2102
| 41> *
| 42>
| 43>                          ****END OF INPUT****

CARTESIAN COORDINATES (ANGSTROEM)
---------------------------------
  S    -117.496000   62.720400  -82.214100
  C    -117.283000   63.590800  -80.695500
  C    -116.536000   62.848200  -79.833700
  C    -116.085000   61.612300  -80.387300
  C    -116.619000   61.337200  -81.624300
  H    -115.433000   60.909900  -79.898500
  C    -116.209000   63.224000  -78.372000
  H    -115.914000   64.213500  -78.439400
  H    -115.183000   62.868800  -78.150700
  C    -117.384000   62.885100  -77.370700
  H    -117.304000   63.411800  -76.457700
  H    -118.307000   63.215700  -77.798300
  C    -117.469000   61.336000  -77.160700
  H    -118.014000   61.025000  -76.261400
  H    -118.006000   60.960400  -78.009000
  H    -116.474000   60.965400  -76.995700
  S    -116.268000   60.253000  -84.075400
  C    -116.397000   58.573200  -84.269300
  C    -116.590000   57.902300  -83.067900
  C    -116.558000   58.794000  -81.922900
  C    -116.593000   60.062700  -82.346100
  H    -116.747000   56.824000  -82.967100
  C    -116.580000   58.171700  -80.514900
  H    -117.538000   57.676700  -80.385700
  H    -116.582000   59.080500  -79.846300
  C    -115.388000   57.266200  -80.204000
  H    -114.413000   57.773200  -80.317200
  H    -115.398000   56.404500  -80.858000
  C    -115.547000   56.652400  -78.864600
  H    -115.550000   57.400400  -78.152700
  H    -114.695000   56.028200  -78.594900
  H    -116.497000   56.142500  -78.645000
  H    -117.744000   64.494300  -80.441500
  H    -116.413000   58.079400  -85.210200

 Total Charge           Charge          ....    0
 Multiplicity           Mult            ....    1
 Number of Electrons    NEL             ....  134
 Basis Dimension        Dim             ....  322

ORBITAL ENERGIES
----------------

  NO   OCC          E(Eh)            E(eV)
   0   2.0000     -88.963312     -2420.8148
   1   2.0000     -88.962416     -2420.7904
   2   2.0000     -10.325241      -280.9641
   3   2.0000     -10.322471      -280.8887
   4   2.0000     -10.311262      -280.5837
   5   2.0000     -10.307136      -280.4714
   6   2.0000     -10.300525      -280.2915
   7   2.0000     -10.298462      -280.2354
   8   2.0000     -10.297217      -280.2015
   9   2.0000     -10.292949      -280.0854
  10   2.0000     -10.290871      -280.0288
  11   2.0000     -10.288630      -279.9679
  12   2.0000     -10.287703      -279.9426
  13   2.0000     -10.287404      -279.9345
  14   2.0000     -10.275849      -279.6201
  15   2.0000     -10.270097      -279.4635
  16   2.0000      -8.078331      -219.8226
  17   2.0000      -8.078076      -219.8156
  18   2.0000      -6.036825      -164.2704
  19   2.0000      -6.036643      -164.2654
  20   2.0000      -6.032862      -164.1625
  21   2.0000      -6.032583      -164.1549
  22   2.0000      -6.028846      -164.0532
  23   2.0000      -6.028765      -164.0510
  24   2.0000      -1.010167       -27.4881
  25   2.0000      -0.986446       -26.8426
  26   2.0000      -0.917967       -24.9791
  27   2.0000      -0.904998       -24.6262
  28   2.0000      -0.868968       -23.6458
  29   2.0000      -0.858572       -23.3629
  30   2.0000      -0.841125       -22.8882
  31   2.0000      -0.812001       -22.0957
  32   2.0000      -0.785651       -21.3786
  33   2.0000      -0.775738       -21.1089
  34   2.0000      -0.710966       -19.3464
  35   2.0000      -0.705972       -19.2105
  36   2.0000      -0.695961       -18.9381
  37   2.0000      -0.665471       -18.1084
  38   2.0000      -0.641666       -17.4606
  39   2.0000      -0.615877       -16.7589
  40   2.0000      -0.596611       -16.2346
  41   2.0000      -0.573682       -15.6107
  42   2.0000      -0.570882       -15.5345
  43   2.0000      -0.547087       -14.8870
  44   2.0000      -0.542066       -14.7504
  45   2.0000      -0.532680       -14.4950
  46   2.0000      -0.520383       -14.1603
  47   2.0000      -0.515803       -14.0357
  48   2.0000      -0.502404       -13.6711
  49   2.0000      -0.498339       -13.5605
  50   2.0000      -0.487671       -13.2702
  51   2.0000      -0.484617       -13.1871
  52   2.0000      -0.467476       -12.7207
  53   2.0000      -0.457405       -12.4466
  54   2.0000      -0.456834       -12.4311
  55   2.0000      -0.452917       -12.3245
  56   2.0000      -0.444873       -12.1056
  57   2.0000      -0.443355       -12.0643
  58   2.0000      -0.438598       -11.9348
  59   2.0000      -0.426974       -11.6185
  60   2.0000      -0.420496       -11.4423
  61   2.0000      -0.416253       -11.3268
  62   2.0000      -0.410619       -11.1735
  63   2.0000      -0.350927        -9.5492
  64   2.0000      -0.330229        -8.9860
  65   2.0000      -0.329785        -8.9739
  66   2.0000      -0.290397        -7.9021
  67   0.0000       0.032213         0.8766
  68   0.0000       0.079366         2.1597
  69   0.0000       0.106048         2.8857
  70   0.0000       0.122730         3.3397
  71   0.0000       0.127756         3.4764

MULLIKEN ATOMIC CHARGES
-----------------------
   0 S :    0.101990
   1 C :   -0.095084
   2 C :   -0.127880
   3 C :    0.020152
   4 C :   -0.137237
   5 H :    0.008175
   6 C :    0.082704
   7 H :   -0.000429
   8 H :    0.017326
   9 C :   -0.016001
  10 H :    0.023526
  11 H :    0.019850
  12 C :   -0.058525
  13 H :    0.030984
  14 H :    0.052573
  15 H :    0.026584
  16 S :    0.103942
  17 C :   -0.062810
  18 C :   -0.046479
  19 C :   -0.053526
  20 C :   -0.135506
  21 H :    0.022712
  22 C :    0.047345
  23 H :    0.036455
  24 H :    0.019473
  25 C :   -0.062900
  26 H :    0.040992
  27 H :    0.024562
  28 C :   -0.005900
  29 H :   -0.006483
  30 H :    0.033189
  31 H :    0.027054
  32 H :    0.023092
  33 H :    0.046080
Sum of atomic charges:   -0.0000000

LOEWDIN ATOMIC CHARGES
----------------------
   0 S :    0.398760
   1 C :   -0.186923
   2 C :   -0.060665
   3 C :   -0.071443
   4 C :   -0.192788
   5 H :    0.026896
   6 C :   -0.032196
   7 H :    0.020055
   8 H :    0.033556
   9 C :   -0.024130
  10 H :    0.016849
  11 H :    0.022048
  12 C :   -0.061952
  13 H :    0.026898
  14 H :    0.027248
  15 H :    0.020658
  16 S :    0.410181
  17 C :   -0.193151
  18 C :   -0.069603
  19 C :   -0.055120
  20 C :   -0.188295
  21 H :    0.030560
  22 C :   -0.028139
  23 H :    0.033880
  24 H :    0.032723
  25 C :   -0.038910
  26 H :    0.032983
  27 H :    0.022486
  28 C :   -0.063638
  29 H :    0.011696
  30 H :    0.029001
  31 H :    0.029162
  32 H :    0.018484
  33 H :    0.022829

  Mayer bond orders larger than 0.100000
B(  0-S ,  1-C ) :   1.1207 B(  0-S ,  4-C ) :   1.1574 B(  1-C ,  2-C ) :   1.6360
B(  1-C , 32-H ) :   0.9769 B(  2-C ,  3-C ) :   1.2389 B(  2-C ,  6-C ) :   1.0027
B(  3-C ,  4-C ) :   1.5771 B(  3-C ,  5-H ) :   0.9930 B(  4-C , 20-C ) :   1.0107
B(  6-C ,  7-H ) :   0.9348 B(  6-C ,  8-H ) :   0.9457 B(  6-C ,  9-C ) :   1.0466
B(  9-C , 10-H ) :   0.9618 B(  9-C , 11-H ) :   0.9616 B(  9-C , 12-C ) :   1.0668
B( 12-C , 13-H ) :   0.9752 B( 12-C , 14-H ) :   0.9775 B( 12-C , 15-H ) :   0.9793
B( 16-S , 17-C ) :   1.1531 B( 16-S , 20-C ) :   1.1249 B( 17-C , 18-C ) :   1.6265
B( 17-C , 33-H ) :   0.9705 B( 18-C , 19-C ) :   1.1930 B( 18-C , 21-H ) :   0.9863
B( 19-C , 20-C ) :   1.6826 B( 19-C , 22-C ) :   1.0246 B( 22-C , 23-H ) :   0.9350
B( 22-C , 24-H ) :   0.9329 B( 22-C , 25-C ) :   1.0703 B( 25-C , 26-H ) :   0.9506
B( 25-C , 27-H ) :   0.9505 B( 25-C , 28-C ) :   1.0953 B( 28-C , 29-H ) :   0.9652
B( 28-C , 30-H ) :   0.9698 B( 28-C , 31-H ) :   0.9685

Dispersion correction           -0.014857178
FINAL SINGLE POINT ENERGY     -1339.870400824883

DIPOLE MOMENT
-------------
                                X             Y             Z
Electronic contribution:     -2.48105      11.76728     -29.31626
Nuclear contribution   :      2.54623     -12.12657      30.03016
                        -----------------------------------------
Total Dipole Moment    :      0.06519      -0.35929       0.71389
                        -----------------------------------------
Magnitude (a.u.)       :      0.80186
Magnitude (Debye)      :      2.03817

Rotational constants in cm-1:     0.016301     0.010740     0.006819
Rotational constants in MHz :   488.693782   321.966894   204.436049

                             ****ORCA TERMINATED NORMALLY****
TOTAL RUN TIME: 0 days 0 hours 0 minutes 22 seconds 466 msec
