                         Program Version 4.2.1 -  RELEASE  -
|  1> ! wB97X-D3 SP def2-SVP
|  2> %pal
|  3> nprocs 24
|  4> end
|  5>
|  6> * xyz 0 1
|  7> S 	 -100.123 	 0.141672 	 -119.211
|  8> C 	 -100.675 	 0.4096 	 -120.88
|  9> C 	 -100.756 	 1.76636 	 -121.187
| 10> C 	 -100.157 	 2.53785 	 -120.12
| 11> C 	 -99.9652 	 1.84985 	 -119.018
| 12> H 	 -100.281 	 3.63917 	 -119.994
| 13> C 	 -101.302 	 2.453 	 -122.472
| 14> H 	 -101.724 	 1.7646 	 -123.152
| 15> H 	 -100.478 	 2.89182 	 -123.11
| 16> C 	 -102.428 	 3.45598 	 -122.321
| 17> H 	 -102.193 	 4.24708 	 -121.527
| 18> H 	 -102.593 	 3.94616 	 -123.26
| 19> C 	 -103.688 	 2.81941 	 -121.81
| 20> H 	 -104.121 	 2.15961 	 -122.509
| 21> H 	 -103.456 	 2.42593 	 -120.849
| 22> H 	 -104.395 	 3.57971 	 -121.502
| 23> S 	 -98.0314 	 3.01854 	 -117.485
| 24> C 	 -98.4257 	 3.8064 	 -115.98
| 25> C 	 -99.8118 	 3.7358 	 -115.776
| 26> C 	 -100.489 	 2.92951 	 -116.742
| 27> C 	 -99.6633 	 2.4776 	 -117.776
| 28> H 	 -100.19 	 4.27002 	 -114.991
| 29> C 	 -101.976 	 2.70959 	 -116.65
| 30> H 	 -102.3 	 3.18086 	 -115.711
| 31> H 	 -102.182 	 1.65321 	 -116.505
| 32> C 	 -102.931 	 3.3728 	 -117.687
| 33> H 	 -102.612 	 3.0693 	 -118.687
| 34> H 	 -102.809 	 4.43041 	 -117.71
| 35> C 	 -104.373 	 2.85954 	 -117.385
| 36> H 	 -104.724 	 3.06899 	 -116.393
| 37> H 	 -104.455 	 1.76553 	 -117.552
| 38> H 	 -105.153 	 3.28807 	 -118.102
| 39> H 	 -100.924 	 -0.35578 	 -121.613
| 40> H 	 -97.71 	 4.50071 	 -115.485
| 41> *
| 42>
| 43>                          ****END OF INPUT****

CARTESIAN COORDINATES (ANGSTROEM)
---------------------------------
  S    -100.123000    0.141672  -119.211000
  C    -100.675000    0.409600  -120.880000
  C    -100.756000    1.766360  -121.187000
  C    -100.157000    2.537850  -120.120000
  C    -99.965200    1.849850  -119.018000
  H    -100.281000    3.639170  -119.994000
  C    -101.302000    2.453000  -122.472000
  H    -101.724000    1.764600  -123.152000
  H    -100.478000    2.891820  -123.110000
  C    -102.428000    3.455980  -122.321000
  H    -102.193000    4.247080  -121.527000
  H    -102.593000    3.946160  -123.260000
  C    -103.688000    2.819410  -121.810000
  H    -104.121000    2.159610  -122.509000
  H    -103.456000    2.425930  -120.849000
  H    -104.395000    3.579710  -121.502000
  S    -98.031400    3.018540  -117.485000
  C    -98.425700    3.806400  -115.980000
  C    -99.811800    3.735800  -115.776000
  C    -100.489000    2.929510  -116.742000
  C    -99.663300    2.477600  -117.776000
  H    -100.190000    4.270020  -114.991000
  C    -101.976000    2.709590  -116.650000
  H    -102.300000    3.180860  -115.711000
  H    -102.182000    1.653210  -116.505000
  C    -102.931000    3.372800  -117.687000
  H    -102.612000    3.069300  -118.687000
  H    -102.809000    4.430410  -117.710000
  C    -104.373000    2.859540  -117.385000
  H    -104.724000    3.068990  -116.393000
  H    -104.455000    1.765530  -117.552000
  H    -105.153000    3.288070  -118.102000
  H    -100.924000   -0.355780  -121.613000
  H    -97.710000    4.500710  -115.485000

 Total Charge           Charge          ....    0
 Multiplicity           Mult            ....    1
 Number of Electrons    NEL             ....  134
 Basis Dimension        Dim             ....  322

ORBITAL ENERGIES
----------------

  NO   OCC          E(Eh)            E(eV)
   0   2.0000     -88.968908     -2420.9671
   1   2.0000     -88.962928     -2420.8043
   2   2.0000     -10.321535      -280.8632
   3   2.0000     -10.320450      -280.8337
   4   2.0000     -10.320271      -280.8289
   5   2.0000     -10.319539      -280.8089
   6   2.0000     -10.309665      -280.5402
   7   2.0000     -10.303432      -280.3706
   8   2.0000     -10.295614      -280.1579
   9   2.0000     -10.290560      -280.0204
  10   2.0000     -10.289678      -279.9964
  11   2.0000     -10.288864      -279.9742
  12   2.0000     -10.288201      -279.9562
  13   2.0000     -10.287477      -279.9365
  14   2.0000     -10.285666      -279.8872
  15   2.0000     -10.266225      -279.3582
  16   2.0000      -8.083693      -219.9685
  17   2.0000      -8.077889      -219.8105
  18   2.0000      -6.042245      -164.4179
  19   2.0000      -6.038338      -164.3115
  20   2.0000      -6.036259      -164.2550
  21   2.0000      -6.034244      -164.2001
  22   2.0000      -6.032142      -164.1429
  23   2.0000      -6.029003      -164.0575
  24   2.0000      -1.013285       -27.5729
  25   2.0000      -0.984194       -26.7813
  26   2.0000      -0.917540       -24.9675
  27   2.0000      -0.904305       -24.6074
  28   2.0000      -0.875355       -23.8196
  29   2.0000      -0.850067       -23.1315
  30   2.0000      -0.846759       -23.0415
  31   2.0000      -0.814955       -22.1760
  32   2.0000      -0.786795       -21.4098
  33   2.0000      -0.768655       -20.9162
  34   2.0000      -0.711284       -19.3550
  35   2.0000      -0.697491       -18.9797
  36   2.0000      -0.690727       -18.7956
  37   2.0000      -0.666008       -18.1230
  38   2.0000      -0.643158       -17.5012
  39   2.0000      -0.622670       -16.9437
  40   2.0000      -0.595055       -16.1923
  41   2.0000      -0.573367       -15.6021
  42   2.0000      -0.563770       -15.3410
  43   2.0000      -0.551801       -15.0153
  44   2.0000      -0.549223       -14.9451
  45   2.0000      -0.518052       -14.0969
  46   2.0000      -0.515300       -14.0220
  47   2.0000      -0.511006       -13.9052
  48   2.0000      -0.506038       -13.7700
  49   2.0000      -0.500136       -13.6094
  50   2.0000      -0.485761       -13.2182
  51   2.0000      -0.477585       -12.9958
  52   2.0000      -0.471679       -12.8350
  53   2.0000      -0.466814       -12.7026
  54   2.0000      -0.460188       -12.5224
  55   2.0000      -0.449697       -12.2369
  56   2.0000      -0.448159       -12.1950
  57   2.0000      -0.436065       -11.8659
  58   2.0000      -0.435692       -11.8558
  59   2.0000      -0.423948       -11.5362
  60   2.0000      -0.419550       -11.4165
  61   2.0000      -0.414175       -11.2703
  62   2.0000      -0.410784       -11.1780
  63   2.0000      -0.340026        -9.2526
  64   2.0000      -0.329910        -8.9773
  65   2.0000      -0.324123        -8.8198
  66   2.0000      -0.309502        -8.4220
  67   0.0000       0.042849         1.1660
  68   0.0000       0.055397         1.5074
  69   0.0000       0.112657         3.0655
  70   0.0000       0.115748         3.1497
  71   0.0000       0.126506         3.4424

MULLIKEN ATOMIC CHARGES
-----------------------
   0 S :    0.123686
   1 C :   -0.115561
   2 C :   -0.109426
   3 C :    0.042168
   4 C :   -0.173594
   5 H :    0.041896
   6 C :    0.081945
   7 H :   -0.005173
   8 H :    0.048011
   9 C :   -0.096574
  10 H :    0.028931
  11 H :    0.026959
  12 C :   -0.013407
  13 H :    0.026040
  14 H :    0.026527
  15 H :    0.021016
  16 S :    0.112715
  17 C :   -0.115939
  18 C :   -0.014390
  19 C :   -0.003490
  20 C :   -0.183422
  21 H :   -0.012604
  22 C :    0.052279
  23 H :    0.006461
  24 H :    0.033652
  25 C :   -0.036731
  26 H :    0.021995
  27 H :    0.022550
  28 C :   -0.071721
  29 H :    0.029269
  30 H :    0.039985
  31 H :    0.039036
  32 H :    0.048042
  33 H :    0.078869
Sum of atomic charges:   -0.0000000

LOEWDIN ATOMIC CHARGES
----------------------
   0 S :    0.403600
   1 C :   -0.187268
   2 C :   -0.057094
   3 C :   -0.065502
   4 C :   -0.206962
   5 H :    0.041441
   6 C :   -0.035962
   7 H :    0.021260
   8 H :    0.041221
   9 C :   -0.041699
  10 H :    0.026291
  11 H :    0.021739
  12 C :   -0.059290
  13 H :    0.017585
  14 H :    0.023028
  15 H :    0.027754
  16 S :    0.420855
  17 C :   -0.196957
  18 C :   -0.062696
  19 C :   -0.056708
  20 C :   -0.205857
  21 H :    0.016211
  22 C :   -0.034367
  23 H :    0.029288
  24 H :    0.032360
  25 C :   -0.033074
  26 H :    0.019667
  27 H :    0.019622
  28 C :   -0.069342
  29 H :    0.019243
  30 H :    0.030863
  31 H :    0.031933
  32 H :    0.030056
  33 H :    0.038758

  Mayer bond orders larger than 0.100000
B(  0-S ,  1-C ) :   1.1207 B(  0-S ,  4-C ) :   1.1262 B(  1-C ,  2-C ) :   1.6553
B(  1-C , 32-H ) :   0.9646 B(  2-C ,  3-C ) :   1.2060 B(  2-C ,  6-C ) :   1.0196
B(  3-C ,  4-C ) :   1.6579 B(  3-C ,  5-H ) :   0.9691 B(  4-C , 20-C ) :   1.0220
B(  6-C ,  7-H ) :   0.9359 B(  6-C ,  8-H ) :   0.9409 B(  6-C ,  9-C ) :   1.0704
B(  9-C , 10-H ) :   0.9578 B(  9-C , 11-H ) :   0.9522 B(  9-C , 12-C ) :   1.0830
B( 12-C , 13-H ) :   0.9717 B( 12-C , 14-H ) :   0.9690 B( 12-C , 15-H ) :   0.9676
B( 16-S , 17-C ) :   1.1763 B( 16-S , 20-C ) :   1.1635 B( 17-C , 18-C ) :   1.5728
B( 17-C , 20-C ) :   0.1048 B( 17-C , 33-H ) :   0.9609 B( 18-C , 19-C ) :   1.2685
B( 18-C , 21-H ) :   1.0053 B( 19-C , 20-C ) :   1.5594 B( 19-C , 22-C ) :   1.0436
B( 22-C , 23-H ) :   0.9321 B( 22-C , 24-H ) :   0.9355 B( 22-C , 25-C ) :   1.0577
B( 25-C , 26-H ) :   0.9538 B( 25-C , 27-H ) :   0.9514 B( 25-C , 28-C ) :   1.0737
B( 28-C , 29-H ) :   0.9775 B( 28-C , 30-H ) :   0.9751 B( 28-C , 31-H ) :   0.9734

Dispersion correction           -0.016406492
FINAL SINGLE POINT ENERGY     -1339.867536822117

DIPOLE MOMENT
-------------
                                X             Y             Z
Electronic contribution:     26.83641      -9.25812       8.59695
Nuclear contribution   :    -27.41674       9.67569      -8.79567
                        -----------------------------------------
Total Dipole Moment    :     -0.58033       0.41757      -0.19872
                        -----------------------------------------
Magnitude (a.u.)       :      0.74205
Magnitude (Debye)      :      1.88614

Rotational constants in cm-1:     0.017940     0.010297     0.008213
Rotational constants in MHz :   537.831136   308.697365   246.210090

                             ****ORCA TERMINATED NORMALLY****
TOTAL RUN TIME: 0 days 0 hours 0 minutes 23 seconds 462 msec
