                         Program Version 4.2.1 -  RELEASE  -
|  1> ! wB97X-D3 SP def2-SVP
|  2> %pal
|  3> nprocs 24
|  4> end
|  5>
|  6> * xyz 0 1
|  7> S 	 -131.634 	 1.82784 	 3.4544
|  8> C 	 -130.15 	 0.940479 	 3.11246
|  9> C 	 -129.175 	 1.15307 	 4.05988
| 10> C 	 -129.505 	 2.20156 	 4.99357
| 11> C 	 -130.785 	 2.71272 	 4.7164
| 12> H 	 -129.01 	 2.63875 	 5.86505
| 13> C 	 -127.856 	 0.438036 	 4.1149
| 14> H 	 -127.015 	 1.03083 	 4.50047
| 15> H 	 -127.567 	 0.231712 	 3.07971
| 16> C 	 -127.852 	 -0.801338 	 4.97136
| 17> H 	 -126.87 	 -1.15381 	 5.0535
| 18> H 	 -128.161 	 -0.69027 	 6.01917
| 19> C 	 -128.718 	 -1.92715 	 4.29934
| 20> H 	 -129.802 	 -1.75186 	 4.4874
| 21> H 	 -128.476 	 -2.17054 	 3.22834
| 22> H 	 -128.562 	 -2.84417 	 4.72417
| 23> S 	 -132.176 	 5.00723 	 4.69666
| 24> C 	 -132.387 	 5.92211 	 6.19321
| 25> C 	 -132.315 	 5.05569 	 7.23811
| 26> C 	 -131.715 	 3.8395 	 6.96865
| 27> C 	 -131.446 	 3.68748 	 5.55681
| 28> H 	 -132.613 	 5.46808 	 8.26449
| 29> C 	 -131.466 	 2.73252 	 8.06299
| 30> H 	 -131.236 	 3.15628 	 9.06205
| 31> H 	 -130.561 	 2.17021 	 7.64902
| 32> C 	 -132.673 	 1.77825 	 8.17977
| 33> H 	 -132.957 	 1.5017 	 7.21727
| 34> H 	 -133.504 	 2.39306 	 8.6328
| 35> C 	 -132.259 	 0.520355 	 9.03798
| 36> H 	 -131.978 	 0.781769 	 10.086
| 37> H 	 -131.309 	 0.119057 	 8.68906
| 38> H 	 -133.006 	 -0.257586 	 9.29117
| 39> H 	 -130.047 	 0.203686 	 2.29431
| 40> H 	 -132.763 	 6.94481 	 6.25781
| 41> *
| 42>
| 43>                          ****END OF INPUT****

CARTESIAN COORDINATES (ANGSTROEM)
---------------------------------
  S    -131.634000    1.827840    3.454400
  C    -130.150000    0.940479    3.112460
  C    -129.175000    1.153070    4.059880
  C    -129.505000    2.201560    4.993570
  C    -130.785000    2.712720    4.716400
  H    -129.010000    2.638750    5.865050
  C    -127.856000    0.438036    4.114900
  H    -127.015000    1.030830    4.500470
  H    -127.567000    0.231712    3.079710
  C    -127.852000   -0.801338    4.971360
  H    -126.870000   -1.153810    5.053500
  H    -128.161000   -0.690270    6.019170
  C    -128.718000   -1.927150    4.299340
  H    -129.802000   -1.751860    4.487400
  H    -128.476000   -2.170540    3.228340
  H    -128.562000   -2.844170    4.724170
  S    -132.176000    5.007230    4.696660
  C    -132.387000    5.922110    6.193210
  C    -132.315000    5.055690    7.238110
  C    -131.715000    3.839500    6.968650
  C    -131.446000    3.687480    5.556810
  H    -132.613000    5.468080    8.264490
  C    -131.466000    2.732520    8.062990
  H    -131.236000    3.156280    9.062050
  H    -130.561000    2.170210    7.649020
  C    -132.673000    1.778250    8.179770
  H    -132.957000    1.501700    7.217270
  H    -133.504000    2.393060    8.632800
  C    -132.259000    0.520355    9.037980
  H    -131.978000    0.781769   10.086000
  H    -131.309000    0.119057    8.689060
  H    -133.006000   -0.257586    9.291170
  H    -130.047000    0.203686    2.294310
  H    -132.763000    6.944810    6.257810

 Total Charge           Charge          ....    0
 Multiplicity           Mult            ....    1
 Number of Electrons    NEL             ....  134
 Basis Dimension        Dim             ....  322

ORBITAL ENERGIES
----------------

  NO   OCC          E(Eh)            E(eV)
   0   2.0000     -88.969753     -2420.9901
   1   2.0000     -88.963701     -2420.8254
   2   2.0000     -10.330240      -281.1001
   3   2.0000     -10.329170      -281.0710
   4   2.0000     -10.316001      -280.7126
   5   2.0000     -10.315554      -280.7005
   6   2.0000     -10.310352      -280.5590
   7   2.0000     -10.303094      -280.3614
   8   2.0000     -10.302871      -280.3554
   9   2.0000     -10.297651      -280.2133
  10   2.0000     -10.295058      -280.1428
  11   2.0000     -10.289604      -279.9944
  12   2.0000     -10.289501      -279.9916
  13   2.0000     -10.284797      -279.8636
  14   2.0000     -10.284092      -279.8444
  15   2.0000     -10.273836      -279.5653
  16   2.0000      -8.083930      -219.9749
  17   2.0000      -8.078691      -219.8324
  18   2.0000      -6.042467      -164.4239
  19   2.0000      -6.038676      -164.3207
  20   2.0000      -6.037033      -164.2760
  21   2.0000      -6.034542      -164.2082
  22   2.0000      -6.033241      -164.1728
  23   2.0000      -6.029515      -164.0715
  24   2.0000      -1.006401       -27.3856
  25   2.0000      -0.983331       -26.7578
  26   2.0000      -0.914359       -24.8810
  27   2.0000      -0.900606       -24.5067
  28   2.0000      -0.870068       -23.6758
  29   2.0000      -0.846873       -23.0446
  30   2.0000      -0.841145       -22.8887
  31   2.0000      -0.809437       -22.0259
  32   2.0000      -0.782582       -21.2951
  33   2.0000      -0.768139       -20.9021
  34   2.0000      -0.710749       -19.3405
  35   2.0000      -0.699822       -19.0431
  36   2.0000      -0.694024       -18.8853
  37   2.0000      -0.655562       -17.8387
  38   2.0000      -0.639651       -17.4058
  39   2.0000      -0.613782       -16.7018
  40   2.0000      -0.591402       -16.0929
  41   2.0000      -0.570953       -15.5364
  42   2.0000      -0.562381       -15.3032
  43   2.0000      -0.543420       -14.7872
  44   2.0000      -0.539325       -14.6758
  45   2.0000      -0.520003       -14.1500
  46   2.0000      -0.515918       -14.0388
  47   2.0000      -0.509129       -13.8541
  48   2.0000      -0.502005       -13.6603
  49   2.0000      -0.493137       -13.4189
  50   2.0000      -0.489960       -13.3325
  51   2.0000      -0.475065       -12.9272
  52   2.0000      -0.468186       -12.7400
  53   2.0000      -0.461637       -12.5618
  54   2.0000      -0.457132       -12.4392
  55   2.0000      -0.447643       -12.1810
  56   2.0000      -0.443255       -12.0616
  57   2.0000      -0.439838       -11.9686
  58   2.0000      -0.431542       -11.7429
  59   2.0000      -0.423782       -11.5317
  60   2.0000      -0.420095       -11.4314
  61   2.0000      -0.418840       -11.3972
  62   2.0000      -0.413279       -11.2459
  63   2.0000      -0.346034        -9.4161
  64   2.0000      -0.332459        -9.0467
  65   2.0000      -0.327677        -8.9166
  66   2.0000      -0.287069        -7.8115
  67   0.0000       0.024239         0.6596
  68   0.0000       0.061745         1.6802
  69   0.0000       0.105378         2.8675
  70   0.0000       0.116148         3.1605
  71   0.0000       0.128871         3.5068

MULLIKEN ATOMIC CHARGES
-----------------------
   0 S :    0.115079
   1 C :   -0.121613
   2 C :   -0.066200
   3 C :    0.018155
   4 C :   -0.137454
   5 H :    0.030775
   6 C :    0.060025
   7 H :    0.024521
   8 H :    0.023412
   9 C :   -0.037180
  10 H :    0.013975
  11 H :    0.030736
  12 C :   -0.065980
  13 H :    0.049709
  14 H :    0.029890
  15 H :    0.002388
  16 S :    0.102623
  17 C :   -0.103358
  18 C :   -0.062431
  19 C :   -0.013581
  20 C :   -0.200624
  21 H :    0.042788
  22 C :    0.019557
  23 H :    0.033420
  24 H :    0.027870
  25 C :   -0.024103
  26 H :    0.023772
  27 H :    0.036407
  28 C :   -0.057485
  29 H :    0.014217
  30 H :    0.027090
  31 H :    0.045408
  32 H :    0.055799
  33 H :    0.062392
Sum of atomic charges:   -0.0000000

LOEWDIN ATOMIC CHARGES
----------------------
   0 S :    0.394608
   1 C :   -0.197699
   2 C :   -0.058040
   3 C :   -0.061346
   4 C :   -0.194968
   5 H :    0.037968
   6 C :   -0.034375
   7 H :    0.032310
   8 H :    0.031903
   9 C :   -0.032149
  10 H :    0.016387
  11 H :    0.028638
  12 C :   -0.072280
  13 H :    0.032601
  14 H :    0.029035
  15 H :    0.009924
  16 S :    0.411906
  17 C :   -0.183840
  18 C :   -0.085801
  19 C :   -0.058187
  20 C :   -0.206684
  21 H :    0.044598
  22 C :   -0.030361
  23 H :    0.029126
  24 H :    0.033083
  25 C :   -0.031275
  26 H :    0.015776
  27 H :    0.030830
  28 C :   -0.078771
  29 H :    0.026040
  30 H :    0.024486
  31 H :    0.030289
  32 H :    0.033652
  33 H :    0.032616

  Mayer bond orders larger than 0.100000
B(  0-S ,  1-C ) :   1.1147 B(  0-S ,  4-C ) :   1.1497 B(  1-C ,  2-C ) :   1.6366
B(  1-C , 32-H ) :   0.9619 B(  2-C ,  3-C ) :   1.2035 B(  2-C ,  6-C ) :   1.0238
B(  3-C ,  4-C ) :   1.5820 B(  3-C ,  5-H ) :   0.9940 B(  4-C , 20-C ) :   1.0516
B(  6-C ,  7-H ) :   0.9431 B(  6-C ,  8-H ) :   0.9427 B(  6-C ,  9-C ) :   1.0802
B(  9-C , 10-H ) :   0.9546 B(  9-C , 11-H ) :   0.9537 B(  9-C , 12-C ) :   1.0749
B( 12-C , 13-H ) :   0.9739 B( 12-C , 14-H ) :   0.9744 B( 12-C , 15-H ) :   0.9712
B( 16-S , 17-C ) :   1.1598 B( 16-S , 20-C ) :   1.1667 B( 17-C , 18-C ) :   1.5846
B( 17-C , 20-C ) :   0.1237 B( 17-C , 33-H ) :   0.9682 B( 18-C , 19-C ) :   1.2878
B( 18-C , 21-H ) :   0.9743 B( 19-C , 20-C ) :   1.5163 B( 19-C , 22-C ) :   1.0261
B( 22-C , 23-H ) :   0.9427 B( 22-C , 24-H ) :   0.9360 B( 22-C , 25-C ) :   1.0601
B( 25-C , 26-H ) :   0.9590 B( 25-C , 27-H ) :   0.9562 B( 25-C , 28-C ) :   1.0627
B( 28-C , 29-H ) :   0.9719 B( 28-C , 30-H ) :   0.9756 B( 28-C , 31-H ) :   0.9768

Dispersion correction           -0.014637609
FINAL SINGLE POINT ENERGY     -1339.856346982773

DIPOLE MOMENT
-------------
                                X             Y             Z
Electronic contribution:     -9.99369      21.94938     -15.44094
Nuclear contribution   :     10.28805     -22.26144      15.99023
                        -----------------------------------------
Total Dipole Moment    :      0.29437      -0.31206       0.54929
                        -----------------------------------------
Magnitude (a.u.)       :      0.69696
Magnitude (Debye)      :      1.77154

Rotational constants in cm-1:     0.018738     0.009111     0.007079
Rotational constants in MHz :   561.747835   273.141885   212.234692

                             ****ORCA TERMINATED NORMALLY****
TOTAL RUN TIME: 0 days 0 hours 0 minutes 21 seconds 723 msec
