                         Program Version 4.2.1 -  RELEASE  -
|  1> ! wB97X-D3 SP def2-SVP
|  2> %pal
|  3> nprocs 24
|  4> end
|  5>
|  6> * xyz 0 1
|  7> S 	 -79.6142 	 -4.20841 	 5.08667
|  8> C 	 -79.091 	 -3.05238 	 3.86346
|  9> C 	 -78.5007 	 -3.7101 	 2.78806
| 10> C 	 -78.3852 	 -5.14877 	 2.99932
| 11> C 	 -79.0863 	 -5.55684 	 4.0847
| 12> H 	 -77.9839 	 -5.89704 	 2.35013
| 13> C 	 -78.0224 	 -3.09023 	 1.54821
| 14> H 	 -78.735 	 -2.28149 	 1.40137
| 15> H 	 -78.1713 	 -3.74076 	 0.714526
| 16> C 	 -76.5652 	 -2.55777 	 1.83348
| 17> H 	 -76.2105 	 -1.77058 	 1.16273
| 18> H 	 -76.6561 	 -2.06652 	 2.79811
| 19> C 	 -75.6235 	 -3.8576 	 1.96464
| 20> H 	 -74.6055 	 -3.51796 	 2.18061
| 21> H 	 -75.8217 	 -4.56122 	 2.7314
| 22> H 	 -75.5875 	 -4.34222 	 1.00472
| 23> S 	 -81.1275 	 -7.25312 	 4.50955
| 24> C 	 -80.9381 	 -8.96494 	 4.63255
| 25> C 	 -79.5796 	 -9.33256 	 4.45124
| 26> C 	 -78.7257 	 -8.19621 	 4.19292
| 27> C 	 -79.4482 	 -6.97894 	 4.21518
| 28> H 	 -79.3128 	 -10.4048 	 4.50174
| 29> C 	 -77.2362 	 -8.38607 	 3.93828
| 30> H 	 -76.7496 	 -8.80053 	 4.83825
| 31> H 	 -76.7057 	 -7.44574 	 3.98168
| 32> C 	 -76.9514 	 -9.08794 	 2.60505
| 33> H 	 -77.2895 	 -8.37782 	 1.83203
| 34> H 	 -77.5726 	 -9.98247 	 2.5022
| 35> C 	 -75.4762 	 -9.57319 	 2.50219
| 36> H 	 -74.789 	 -8.7709 	 2.71402
| 37> H 	 -75.3221 	 -10.0013 	 1.45425
| 38> H 	 -75.3013 	 -10.3841 	 3.2659
| 39> H 	 -79.2369 	 -1.99451 	 3.84998
| 40> H 	 -81.7736 	 -9.66244 	 4.77951
| 41> *
| 42>
| 43>                          ****END OF INPUT****

CARTESIAN COORDINATES (ANGSTROEM)
---------------------------------
  S    -79.614200   -4.208410    5.086670
  C    -79.091000   -3.052380    3.863460
  C    -78.500700   -3.710100    2.788060
  C    -78.385200   -5.148770    2.999320
  C    -79.086300   -5.556840    4.084700
  H    -77.983900   -5.897040    2.350130
  C    -78.022400   -3.090230    1.548210
  H    -78.735000   -2.281490    1.401370
  H    -78.171300   -3.740760    0.714526
  C    -76.565200   -2.557770    1.833480
  H    -76.210500   -1.770580    1.162730
  H    -76.656100   -2.066520    2.798110
  C    -75.623500   -3.857600    1.964640
  H    -74.605500   -3.517960    2.180610
  H    -75.821700   -4.561220    2.731400
  H    -75.587500   -4.342220    1.004720
  S    -81.127500   -7.253120    4.509550
  C    -80.938100   -8.964940    4.632550
  C    -79.579600   -9.332560    4.451240
  C    -78.725700   -8.196210    4.192920
  C    -79.448200   -6.978940    4.215180
  H    -79.312800  -10.404800    4.501740
  C    -77.236200   -8.386070    3.938280
  H    -76.749600   -8.800530    4.838250
  H    -76.705700   -7.445740    3.981680
  C    -76.951400   -9.087940    2.605050
  H    -77.289500   -8.377820    1.832030
  H    -77.572600   -9.982470    2.502200
  C    -75.476200   -9.573190    2.502190
  H    -74.789000   -8.770900    2.714020
  H    -75.322100  -10.001300    1.454250
  H    -75.301300  -10.384100    3.265900
  H    -79.236900   -1.994510    3.849980
  H    -81.773600   -9.662440    4.779510

 Total Charge           Charge          ....    0
 Multiplicity           Mult            ....    1
 Number of Electrons    NEL             ....  134
 Basis Dimension        Dim             ....  322

ORBITAL ENERGIES
----------------

  NO   OCC          E(Eh)            E(eV)
   0   2.0000     -88.968903     -2420.9669
   1   2.0000     -88.964807     -2420.8555
   2   2.0000     -10.329261      -281.0735
   3   2.0000     -10.327674      -281.0303
   4   2.0000     -10.318291      -280.7750
   5   2.0000     -10.312628      -280.6209
   6   2.0000     -10.308693      -280.5138
   7   2.0000     -10.300547      -280.2921
   8   2.0000     -10.300162      -280.2817
   9   2.0000     -10.296627      -280.1855
  10   2.0000     -10.291375      -280.0425
  11   2.0000     -10.291000      -280.0324
  12   2.0000     -10.289587      -279.9939
  13   2.0000     -10.288800      -279.9725
  14   2.0000     -10.286913      -279.9211
  15   2.0000     -10.278160      -279.6830
  16   2.0000      -8.082872      -219.9461
  17   2.0000      -8.080221      -219.8740
  18   2.0000      -6.041674      -164.4023
  19   2.0000      -6.038572      -164.3179
  20   2.0000      -6.037537      -164.2897
  21   2.0000      -6.034452      -164.2058
  22   2.0000      -6.033305      -164.1746
  23   2.0000      -6.031286      -164.1196
  24   2.0000      -1.005563       -27.3628
  25   2.0000      -0.981765       -26.7152
  26   2.0000      -0.912146       -24.8208
  27   2.0000      -0.907807       -24.7027
  28   2.0000      -0.865683       -23.5564
  29   2.0000      -0.847133       -23.0517
  30   2.0000      -0.837815       -22.7981
  31   2.0000      -0.813282       -22.1305
  32   2.0000      -0.779591       -21.2138
  33   2.0000      -0.768580       -20.9141
  34   2.0000      -0.713325       -19.4106
  35   2.0000      -0.702373       -19.1125
  36   2.0000      -0.693477       -18.8705
  37   2.0000      -0.660255       -17.9665
  38   2.0000      -0.639815       -17.4102
  39   2.0000      -0.615673       -16.7533
  40   2.0000      -0.595462       -16.2033
  41   2.0000      -0.573632       -15.6093
  42   2.0000      -0.558378       -15.1942
  43   2.0000      -0.543130       -14.7793
  44   2.0000      -0.537320       -14.6212
  45   2.0000      -0.527904       -14.3650
  46   2.0000      -0.514760       -14.0073
  47   2.0000      -0.509361       -13.8604
  48   2.0000      -0.503434       -13.6991
  49   2.0000      -0.498187       -13.5563
  50   2.0000      -0.495578       -13.4854
  51   2.0000      -0.474636       -12.9155
  52   2.0000      -0.469420       -12.7736
  53   2.0000      -0.464155       -12.6303
  54   2.0000      -0.457906       -12.4603
  55   2.0000      -0.447387       -12.1740
  56   2.0000      -0.442762       -12.0482
  57   2.0000      -0.439374       -11.9560
  58   2.0000      -0.436087       -11.8665
  59   2.0000      -0.426020       -11.5926
  60   2.0000      -0.420033       -11.4297
  61   2.0000      -0.418753       -11.3949
  62   2.0000      -0.414876       -11.2894
  63   2.0000      -0.349147        -9.5008
  64   2.0000      -0.329418        -8.9639
  65   2.0000      -0.324116        -8.8196
  66   2.0000      -0.288390        -7.8475
  67   0.0000       0.032544         0.8856
  68   0.0000       0.071423         1.9435
  69   0.0000       0.115944         3.1550
  70   0.0000       0.119254         3.2451
  71   0.0000       0.127238         3.4623

MULLIKEN ATOMIC CHARGES
-----------------------
   0 S :    0.119726
   1 C :   -0.100953
   2 C :   -0.134388
   3 C :    0.036120
   4 C :   -0.120844
   5 H :    0.003598
   6 C :    0.079084
   7 H :    0.018000
   8 H :    0.025841
   9 C :   -0.052376
  10 H :    0.038047
  11 H :    0.025255
  12 C :   -0.056398
  13 H :    0.028236
  14 H :    0.045363
  15 H :    0.029945
  16 S :    0.115585
  17 C :   -0.118341
  18 C :   -0.051998
  19 C :   -0.033488
  20 C :   -0.177053
  21 H :    0.035410
  22 C :    0.054124
  23 H :    0.028042
  24 H :    0.005942
  25 C :   -0.080292
  26 H :    0.035557
  27 H :    0.032217
  28 C :   -0.062998
  29 H :    0.033042
  30 H :    0.051076
  31 H :    0.043076
  32 H :    0.036929
  33 H :    0.068913
Sum of atomic charges:   -0.0000000

LOEWDIN ATOMIC CHARGES
----------------------
   0 S :    0.392512
   1 C :   -0.200074
   2 C :   -0.050924
   3 C :   -0.059526
   4 C :   -0.192653
   5 H :    0.027541
   6 C :   -0.035684
   7 H :    0.030298
   8 H :    0.025589
   9 C :   -0.025427
  10 H :    0.023308
  11 H :    0.023467
  12 C :   -0.061995
  13 H :    0.026438
  14 H :    0.022686
  15 H :    0.022578
  16 S :    0.433651
  17 C :   -0.206586
  18 C :   -0.073359
  19 C :   -0.059799
  20 C :   -0.200541
  21 H :    0.036890
  22 C :   -0.043579
  23 H :    0.034079
  24 H :    0.025545
  25 C :   -0.040736
  26 H :    0.025606
  27 H :    0.023625
  28 C :   -0.069178
  29 H :    0.019729
  30 H :    0.035605
  31 H :    0.032041
  32 H :    0.025515
  33 H :    0.033356

  Mayer bond orders larger than 0.100000
B(  0-S ,  1-C ) :   1.1062 B(  0-S ,  4-C ) :   1.1392 B(  1-C ,  2-C ) :   1.6443
B(  1-C , 32-H ) :   0.9660 B(  2-C ,  3-C ) :   1.2038 B(  2-C ,  6-C ) :   1.0268
B(  3-C ,  4-C ) :   1.5909 B(  3-C ,  5-H ) :   0.9935 B(  4-C , 20-C ) :   1.0334
B(  6-C ,  7-H ) :   0.9339 B(  6-C ,  8-H ) :   0.9504 B(  6-C ,  9-C ) :   1.0489
B(  9-C , 10-H ) :   0.9632 B(  9-C , 11-H ) :   0.9579 B(  9-C , 12-C ) :   1.0600
B( 12-C , 13-H ) :   0.9738 B( 12-C , 14-H ) :   0.9738 B( 12-C , 15-H ) :   0.9793
B( 16-S , 17-C ) :   1.1753 B( 16-S , 20-C ) :   1.1660 B( 17-C , 18-C ) :   1.5744
B( 17-C , 20-C ) :   0.1028 B( 17-C , 33-H ) :   0.9678 B( 18-C , 19-C ) :   1.2589
B( 18-C , 21-H ) :   0.9863 B( 19-C , 20-C ) :   1.5611 B( 19-C , 22-C ) :   1.0484
B( 22-C , 23-H ) :   0.9366 B( 22-C , 24-H ) :   0.9268 B( 22-C , 25-C ) :   1.0455
B( 25-C , 26-H ) :   0.9530 B( 25-C , 27-H ) :   0.9616 B( 25-C , 28-C ) :   1.0705
B( 28-C , 29-H ) :   0.9759 B( 28-C , 30-H ) :   0.9742 B( 28-C , 31-H ) :   0.9760

Dispersion correction           -0.014887612
FINAL SINGLE POINT ENERGY     -1339.872105314141

DIPOLE MOMENT
-------------
                                X             Y             Z
Electronic contribution:    -25.31885       3.46964      15.49149
Nuclear contribution   :     25.74877      -3.58049     -15.94157
                        -----------------------------------------
Total Dipole Moment    :      0.42992      -0.11084      -0.45008
                        -----------------------------------------
Magnitude (a.u.)       :      0.63221
Magnitude (Debye)      :      1.60694

Rotational constants in cm-1:     0.016518     0.010313     0.006844
Rotational constants in MHz :   495.188453   309.186314   205.186951

                             ****ORCA TERMINATED NORMALLY****
TOTAL RUN TIME: 0 days 0 hours 0 minutes 21 seconds 11 msec
