                         Program Version 4.2.1 -  RELEASE  -
|  1> ! wB97X-D3 SP def2-SVP
|  2> %pal
|  3> nprocs 24
|  4> end
|  5>
|  6> * xyz 0 1
|  7> S 	 -138.777 	 7.40321 	 7.20327
|  8> C 	 -137.138 	 7.06687 	 6.52197
|  9> C 	 -136.166 	 7.63933 	 7.28541
| 10> C 	 -136.681 	 8.35538 	 8.3881
| 11> C 	 -138.045 	 8.33256 	 8.48162
| 12> H 	 -136.047 	 8.83555 	 9.0493
| 13> C 	 -134.648 	 7.60246 	 7.00927
| 14> H 	 -134.243 	 8.63498 	 7.09035
| 15> H 	 -134.631 	 7.26253 	 5.97955
| 16> C 	 -133.829 	 6.62712 	 7.80893
| 17> H 	 -133.888 	 6.85542 	 8.87341
| 18> H 	 -134.096 	 5.59737 	 7.50712
| 19> C 	 -132.347 	 6.74391 	 7.49252
| 20> H 	 -131.997 	 7.65192 	 7.94602
| 21> H 	 -131.896 	 5.90516 	 8.08104
| 22> H 	 -132.053 	 6.65898 	 6.44187
| 23> S 	 -139.638 	 7.68313 	 10.6496
| 24> C 	 -140.563 	 9.00072 	 11.388
| 25> C 	 -140.078 	 10.2475 	 11.0345
| 26> C 	 -139.167 	 10.1533 	 9.9553
| 27> C 	 -138.863 	 8.88772 	 9.56742
| 28> H 	 -140.554 	 11.1615 	 11.4615
| 29> C 	 -138.736 	 11.3634 	 9.19167
| 30> H 	 -138.144 	 11.1372 	 8.35602
| 31> H 	 -138.321 	 12.1795 	 9.87583
| 32> C 	 -139.861 	 12.2508 	 8.55909
| 33> H 	 -139.38 	 13.0896 	 8.00788
| 34> H 	 -140.628 	 12.6255 	 9.27454
| 35> C 	 -140.711 	 11.508 	 7.52114
| 36> H 	 -140.108 	 11.1935 	 6.69142
| 37> H 	 -141.614 	 12.0784 	 7.16276
| 38> H 	 -141.086 	 10.5571 	 7.91364
| 39> H 	 -136.988 	 6.47807 	 5.59943
| 40> H 	 -141.24 	 8.86257 	 12.2062
| 41> *
| 42>
| 43>                          ****END OF INPUT****

CARTESIAN COORDINATES (ANGSTROEM)
---------------------------------
  S    -138.777000    7.403210    7.203270
  C    -137.138000    7.066870    6.521970
  C    -136.166000    7.639330    7.285410
  C    -136.681000    8.355380    8.388100
  C    -138.045000    8.332560    8.481620
  H    -136.047000    8.835550    9.049300
  C    -134.648000    7.602460    7.009270
  H    -134.243000    8.634980    7.090350
  H    -134.631000    7.262530    5.979550
  C    -133.829000    6.627120    7.808930
  H    -133.888000    6.855420    8.873410
  H    -134.096000    5.597370    7.507120
  C    -132.347000    6.743910    7.492520
  H    -131.997000    7.651920    7.946020
  H    -131.896000    5.905160    8.081040
  H    -132.053000    6.658980    6.441870
  S    -139.638000    7.683130   10.649600
  C    -140.563000    9.000720   11.388000
  C    -140.078000   10.247500   11.034500
  C    -139.167000   10.153300    9.955300
  C    -138.863000    8.887720    9.567420
  H    -140.554000   11.161500   11.461500
  C    -138.736000   11.363400    9.191670
  H    -138.144000   11.137200    8.356020
  H    -138.321000   12.179500    9.875830
  C    -139.861000   12.250800    8.559090
  H    -139.380000   13.089600    8.007880
  H    -140.628000   12.625500    9.274540
  C    -140.711000   11.508000    7.521140
  H    -140.108000   11.193500    6.691420
  H    -141.614000   12.078400    7.162760
  H    -141.086000   10.557100    7.913640
  H    -136.988000    6.478070    5.599430
  H    -141.240000    8.862570   12.206200

 Total Charge           Charge          ....    0
 Multiplicity           Mult            ....    1
 Number of Electrons    NEL             ....  134
 Basis Dimension        Dim             ....  322

ORBITAL ENERGIES
----------------

  NO   OCC          E(Eh)            E(eV)
   0   2.0000     -88.966693     -2420.9068
   1   2.0000     -88.963329     -2420.8152
   2   2.0000     -10.328567      -281.0546
   3   2.0000     -10.325544      -280.9723
   4   2.0000     -10.319138      -280.7980
   5   2.0000     -10.318878      -280.7909
   6   2.0000     -10.301023      -280.3051
   7   2.0000     -10.297714      -280.2150
   8   2.0000     -10.297533      -280.2101
   9   2.0000     -10.293629      -280.1039
  10   2.0000     -10.291203      -280.0379
  11   2.0000     -10.288705      -279.9699
  12   2.0000     -10.286771      -279.9173
  13   2.0000     -10.285947      -279.8948
  14   2.0000     -10.278831      -279.7012
  15   2.0000     -10.268207      -279.4121
  16   2.0000      -8.080783      -219.8893
  17   2.0000      -8.077401      -219.7973
  18   2.0000      -6.039339      -164.3388
  19   2.0000      -6.035897      -164.2451
  20   2.0000      -6.035428      -164.2323
  21   2.0000      -6.032196      -164.1444
  22   2.0000      -6.031476      -164.1248
  23   2.0000      -6.028011      -164.0305
  24   2.0000      -1.005611       -27.3641
  25   2.0000      -0.983448       -26.7610
  26   2.0000      -0.917080       -24.9550
  27   2.0000      -0.904812       -24.6212
  28   2.0000      -0.870740       -23.6941
  29   2.0000      -0.849349       -23.1120
  30   2.0000      -0.843729       -22.9590
  31   2.0000      -0.814903       -22.1746
  32   2.0000      -0.782106       -21.2822
  33   2.0000      -0.771762       -21.0007
  34   2.0000      -0.704384       -19.1673
  35   2.0000      -0.691291       -18.8110
  36   2.0000      -0.688797       -18.7431
  37   2.0000      -0.659135       -17.9360
  38   2.0000      -0.641851       -17.4657
  39   2.0000      -0.624342       -16.9892
  40   2.0000      -0.599676       -16.3180
  41   2.0000      -0.582244       -15.8437
  42   2.0000      -0.562859       -15.3162
  43   2.0000      -0.546344       -14.8668
  44   2.0000      -0.537942       -14.6381
  45   2.0000      -0.526144       -14.3171
  46   2.0000      -0.516013       -14.0414
  47   2.0000      -0.512063       -13.9339
  48   2.0000      -0.507772       -13.8172
  49   2.0000      -0.496125       -13.5003
  50   2.0000      -0.490153       -13.3378
  51   2.0000      -0.472993       -12.8708
  52   2.0000      -0.470842       -12.8122
  53   2.0000      -0.464545       -12.6409
  54   2.0000      -0.458887       -12.4870
  55   2.0000      -0.449443       -12.2300
  56   2.0000      -0.441197       -12.0056
  57   2.0000      -0.430169       -11.7055
  58   2.0000      -0.428851       -11.6696
  59   2.0000      -0.421696       -11.4749
  60   2.0000      -0.418661       -11.3924
  61   2.0000      -0.413794       -11.2599
  62   2.0000      -0.413354       -11.2479
  63   2.0000      -0.338262        -9.2046
  64   2.0000      -0.333402        -9.0723
  65   2.0000      -0.327500        -8.9117
  66   2.0000      -0.304013        -8.2726
  67   0.0000       0.036153         0.9838
  68   0.0000       0.061144         1.6638
  69   0.0000       0.107541         2.9263
  70   0.0000       0.110425         3.0048
  71   0.0000       0.134300         3.6545

MULLIKEN ATOMIC CHARGES
-----------------------
   0 S :    0.109488
   1 C :   -0.154203
   2 C :   -0.065644
   3 C :    0.083395
   4 C :   -0.163108
   5 H :   -0.022419
   6 C :    0.060397
   7 H :    0.034181
   8 H :    0.008515
   9 C :   -0.066912
  10 H :    0.031455
  11 H :    0.033135
  12 C :   -0.052680
  13 H :    0.023250
  14 H :    0.038729
  15 H :    0.038347
  16 S :    0.096740
  17 C :   -0.086962
  18 C :   -0.049709
  19 C :    0.013874
  20 C :   -0.178833
  21 H :    0.041354
  22 C :    0.071800
  23 H :    0.019724
  24 H :    0.045492
  25 C :   -0.113807
  26 H :    0.040322
  27 H :    0.033698
  28 C :   -0.068873
  29 H :    0.019307
  30 H :    0.041503
  31 H :    0.029897
  32 H :    0.056441
  33 H :    0.052108
Sum of atomic charges:    0.0000000

LOEWDIN ATOMIC CHARGES
----------------------
   0 S :    0.389132
   1 C :   -0.183189
   2 C :   -0.064104
   3 C :   -0.050222
   4 C :   -0.195883
   5 H :    0.020015
   6 C :   -0.031803
   7 H :    0.033161
   8 H :    0.028328
   9 C :   -0.041409
  10 H :    0.026114
  11 H :    0.028571
  12 C :   -0.064122
  13 H :    0.018975
  14 H :    0.033436
  15 H :    0.023800
  16 S :    0.373186
  17 C :   -0.164612
  18 C :   -0.072927
  19 C :   -0.060345
  20 C :   -0.184652
  21 H :    0.042089
  22 C :   -0.029765
  23 H :    0.023338
  24 H :    0.045918
  25 C :   -0.045142
  26 H :    0.028662
  27 H :    0.022143
  28 C :   -0.076938
  29 H :    0.017650
  30 H :    0.030355
  31 H :    0.023681
  32 H :    0.032949
  33 H :    0.023609

  Mayer bond orders larger than 0.100000
B(  0-S ,  1-C ) :   1.1184 B(  0-S ,  4-C ) :   1.1558 B(  1-C ,  2-C ) :   1.6393
B(  1-C , 32-H ) :   0.9637 B(  2-C ,  3-C ) :   1.2341 B(  2-C ,  6-C ) :   1.0082
B(  3-C ,  4-C ) :   1.5794 B(  3-C ,  5-H ) :   1.0112 B(  4-C , 20-C ) :   1.0066
B(  6-C ,  7-H ) :   0.9441 B(  6-C ,  8-H ) :   0.9333 B(  6-C ,  9-C ) :   1.0849
B(  9-C , 10-H ) :   0.9542 B(  9-C , 11-H ) :   0.9537 B(  9-C , 12-C ) :   1.0841
B( 12-C , 13-H ) :   0.9755 B( 12-C , 14-H ) :   0.9750 B( 12-C , 15-H ) :   0.9749
B( 16-S , 17-C ) :   1.1465 B( 16-S , 20-C ) :   1.1209 B( 17-C , 18-C ) :   1.6423
B( 17-C , 33-H ) :   0.9663 B( 18-C , 19-C ) :   1.1981 B( 18-C , 21-H ) :   0.9828
B( 19-C , 20-C ) :   1.6428 B( 19-C , 22-C ) :   1.0691 B( 22-C , 23-H ) :   0.9364
B( 22-C , 24-H ) :   0.9296 B( 22-C , 25-C ) :   1.0578 B( 25-C , 26-H ) :   0.9586
B( 25-C , 27-H ) :   0.9569 B( 25-C , 28-C ) :   1.0692 B( 28-C , 29-H ) :   0.9744
B( 28-C , 30-H ) :   0.9754 B( 28-C , 31-H ) :   0.9741

Dispersion correction           -0.014423394
FINAL SINGLE POINT ENERGY     -1339.878517378565

DIPOLE MOMENT
-------------
                                X             Y             Z
Electronic contribution:    -15.53337     -10.37033       7.58743
Nuclear contribution   :     15.97469      10.68790      -7.60672
                        -----------------------------------------
Total Dipole Moment    :      0.44132       0.31756      -0.01928
                        -----------------------------------------
Magnitude (a.u.)       :      0.54404
Magnitude (Debye)      :      1.38284

Rotational constants in cm-1:     0.021803     0.007331     0.006870
Rotational constants in MHz :   653.637087   219.768671   205.960384

                             ****ORCA TERMINATED NORMALLY****
TOTAL RUN TIME: 0 days 0 hours 0 minutes 21 seconds 445 msec
