                         Program Version 4.2.1 -  RELEASE  -
|  1> ! wB97X-D3 SP def2-SVP
|  2> %pal
|  3> nprocs 24
|  4> end
|  5>
|  6> * xyz 0 1
|  7> S 	 -81.0068 	 -2.05779 	 -58.5168
|  8> C 	 -79.6365 	 -1.08208 	 -58.0378
|  9> C 	 -79.1552 	 -1.41094 	 -56.8233
| 10> C 	 -79.8306 	 -2.59211 	 -56.3437
| 11> C 	 -80.7713 	 -3.1536 	 -57.1912
| 12> H 	 -79.6622 	 -3.11866 	 -55.4088
| 13> C 	 -77.9588 	 -0.917734 	 -56.1286
| 14> H 	 -78.1621 	 -0.338993 	 -55.186
| 15> H 	 -77.377 	 -0.25169 	 -56.8185
| 16> C 	 -76.8963 	 -1.94738 	 -55.7339
| 17> H 	 -77.3961 	 -2.71593 	 -54.966
| 18> H 	 -76.7507 	 -2.5427 	 -56.6461
| 19> C 	 -75.6404 	 -1.38979 	 -55.0635
| 20> H 	 -75.8829 	 -0.930632 	 -54.1121
| 21> H 	 -74.8824 	 -2.15036 	 -54.9423
| 22> H 	 -75.159 	 -0.699793 	 -55.749
| 23> S 	 -81.4616 	 -5.11942 	 -55.4651
| 24> C 	 -82.5234 	 -6.42093 	 -55.9225
| 25> C 	 -82.9617 	 -6.24986 	 -57.1982
| 26> C 	 -82.4099 	 -5.04528 	 -57.8253
| 27> C 	 -81.5306 	 -4.36962 	 -56.9795
| 28> H 	 -83.612 	 -7.01624 	 -57.5471
| 29> C 	 -82.7432 	 -4.72885 	 -59.2515
| 30> H 	 -82.7774 	 -5.64001 	 -59.7395
| 31> H 	 -81.9185 	 -4.13256 	 -59.7355
| 32> C 	 -84.1669 	 -4.01054 	 -59.4553
| 33> H 	 -84.8546 	 -4.74404 	 -59.1347
| 34> H 	 -84.3304 	 -3.84352 	 -60.5113
| 35> C 	 -84.5099 	 -2.77687 	 -58.6421
| 36> H 	 -84.6406 	 -2.85521 	 -57.5663
| 37> H 	 -85.3153 	 -2.35935 	 -59.1579
| 38> H 	 -83.7471 	 -2.10755 	 -58.7156
| 39> H 	 -79.2883 	 -0.306371 	 -58.8266
| 40> H 	 -82.7329 	 -7.292 	 -55.419
| 41> *
| 42>
| 43>                          ****END OF INPUT****

CARTESIAN COORDINATES (ANGSTROEM)
---------------------------------
  S    -81.006800   -2.057790  -58.516800
  C    -79.636500   -1.082080  -58.037800
  C    -79.155200   -1.410940  -56.823300
  C    -79.830600   -2.592110  -56.343700
  C    -80.771300   -3.153600  -57.191200
  H    -79.662200   -3.118660  -55.408800
  C    -77.958800   -0.917734  -56.128600
  H    -78.162100   -0.338993  -55.186000
  H    -77.377000   -0.251690  -56.818500
  C    -76.896300   -1.947380  -55.733900
  H    -77.396100   -2.715930  -54.966000
  H    -76.750700   -2.542700  -56.646100
  C    -75.640400   -1.389790  -55.063500
  H    -75.882900   -0.930632  -54.112100
  H    -74.882400   -2.150360  -54.942300
  H    -75.159000   -0.699793  -55.749000
  S    -81.461600   -5.119420  -55.465100
  C    -82.523400   -6.420930  -55.922500
  C    -82.961700   -6.249860  -57.198200
  C    -82.409900   -5.045280  -57.825300
  C    -81.530600   -4.369620  -56.979500
  H    -83.612000   -7.016240  -57.547100
  C    -82.743200   -4.728850  -59.251500
  H    -82.777400   -5.640010  -59.739500
  H    -81.918500   -4.132560  -59.735500
  C    -84.166900   -4.010540  -59.455300
  H    -84.854600   -4.744040  -59.134700
  H    -84.330400   -3.843520  -60.511300
  C    -84.509900   -2.776870  -58.642100
  H    -84.640600   -2.855210  -57.566300
  H    -85.315300   -2.359350  -59.157900
  H    -83.747100   -2.107550  -58.715600
  H    -79.288300   -0.306371  -58.826600
  H    -82.732900   -7.292000  -55.419000

 Total Charge           Charge          ....    0
 Multiplicity           Mult            ....    1
 Number of Electrons    NEL             ....  134
 Basis Dimension        Dim             ....  322

ORBITAL ENERGIES
----------------

  NO   OCC          E(Eh)            E(eV)
   0   2.0000     -88.964457     -2420.8460
   1   2.0000     -88.964204     -2420.8391
   2   2.0000     -10.330013      -281.0939
   3   2.0000     -10.325818      -280.9798
   4   2.0000     -10.319914      -280.8191
   5   2.0000     -10.309556      -280.5373
   6   2.0000     -10.305945      -280.4390
   7   2.0000     -10.302020      -280.3322
   8   2.0000     -10.295560      -280.1564
   9   2.0000     -10.295130      -280.1447
  10   2.0000     -10.292513      -280.0735
  11   2.0000     -10.292331      -280.0686
  12   2.0000     -10.286732      -279.9162
  13   2.0000     -10.280688      -279.7517
  14   2.0000     -10.280224      -279.7391
  15   2.0000     -10.255207      -279.0584
  16   2.0000      -8.080132      -219.8716
  17   2.0000      -8.078968      -219.8399
  18   2.0000      -6.038698      -164.3213
  19   2.0000      -6.037561      -164.2904
  20   2.0000      -6.034486      -164.2067
  21   2.0000      -6.033480      -164.1793
  22   2.0000      -6.030759      -164.1053
  23   2.0000      -6.029642      -164.0749
  24   2.0000      -1.014787       -27.6137
  25   2.0000      -0.991563       -26.9818
  26   2.0000      -0.915903       -24.9230
  27   2.0000      -0.903641       -24.5893
  28   2.0000      -0.878565       -23.9070
  29   2.0000      -0.854084       -23.2408
  30   2.0000      -0.846413       -23.0321
  31   2.0000      -0.818603       -22.2753
  32   2.0000      -0.787589       -21.4314
  33   2.0000      -0.775146       -21.0928
  34   2.0000      -0.711659       -19.3652
  35   2.0000      -0.699154       -19.0249
  36   2.0000      -0.684585       -18.6285
  37   2.0000      -0.669723       -18.2241
  38   2.0000      -0.634347       -17.2615
  39   2.0000      -0.623959       -16.9788
  40   2.0000      -0.591730       -16.1018
  41   2.0000      -0.578603       -15.7446
  42   2.0000      -0.563470       -15.3328
  43   2.0000      -0.550786       -14.9877
  44   2.0000      -0.547900       -14.9091
  45   2.0000      -0.524364       -14.2687
  46   2.0000      -0.516523       -14.0553
  47   2.0000      -0.513442       -13.9715
  48   2.0000      -0.512847       -13.9553
  49   2.0000      -0.500974       -13.6322
  50   2.0000      -0.496730       -13.5167
  51   2.0000      -0.482137       -13.1196
  52   2.0000      -0.467502       -12.7214
  53   2.0000      -0.467354       -12.7173
  54   2.0000      -0.459869       -12.5137
  55   2.0000      -0.451934       -12.2978
  56   2.0000      -0.448498       -12.2043
  57   2.0000      -0.436090       -11.8666
  58   2.0000      -0.431810       -11.7502
  59   2.0000      -0.427057       -11.6208
  60   2.0000      -0.418767       -11.3952
  61   2.0000      -0.403665       -10.9843
  62   2.0000      -0.399961       -10.8835
  63   2.0000      -0.367394        -9.9973
  64   2.0000      -0.330211        -8.9855
  65   2.0000      -0.325726        -8.8634
  66   2.0000      -0.285771        -7.7762
  67   0.0000       0.022289         0.6065
  68   0.0000       0.090008         2.4492
  69   0.0000       0.117544         3.1985
  70   0.0000       0.122337         3.3290
  71   0.0000       0.128932         3.5084

MULLIKEN ATOMIC CHARGES
-----------------------
   0 S :    0.087612
   1 C :   -0.177614
   2 C :    0.015798
   3 C :   -0.048466
   4 C :   -0.102671
   5 H :    0.018499
   6 C :    0.043759
   7 H :    0.041372
   8 H :    0.019270
   9 C :   -0.160898
  10 H :    0.039241
  11 H :    0.037764
  12 C :   -0.005508
  13 H :    0.038542
  14 H :    0.034914
  15 H :    0.023103
  16 S :    0.083349
  17 C :   -0.044866
  18 C :   -0.033055
  19 C :   -0.096160
  20 C :   -0.082594
  21 H :    0.011847
  22 C :    0.058028
  23 H :    0.008167
  24 H :    0.040464
  25 C :   -0.070186
  26 H :    0.012849
  27 H :    0.031758
  28 C :    0.022309
  29 H :    0.040301
  30 H :    0.016159
  31 H :   -0.010928
  32 H :    0.084289
  33 H :    0.023548
Sum of atomic charges:   -0.0000000

LOEWDIN ATOMIC CHARGES
----------------------
   0 S :    0.427435
   1 C :   -0.199670
   2 C :   -0.070764
   3 C :   -0.070378
   4 C :   -0.185272
   5 H :    0.021182
   6 C :   -0.042443
   7 H :    0.037078
   8 H :    0.032060
   9 C :   -0.050807
  10 H :    0.027706
  11 H :    0.024152
  12 C :   -0.061736
  13 H :    0.027974
  14 H :    0.030193
  15 H :    0.024068
  16 S :    0.430684
  17 C :   -0.174676
  18 C :   -0.063861
  19 C :   -0.057538
  20 C :   -0.211460
  21 H :    0.029917
  22 C :   -0.039984
  23 H :    0.022186
  24 H :    0.021964
  25 C :   -0.027198
  26 H :    0.016248
  27 H :    0.024486
  28 C :   -0.059763
  29 H :    0.031457
  30 H :    0.024922
  31 H :   -0.001369
  32 H :    0.046401
  33 H :    0.016806

  Mayer bond orders larger than 0.100000
B(  0-S ,  1-C ) :   1.1344 B(  0-S ,  4-C ) :   1.1359 B(  1-C ,  2-C ) :   1.6168
B(  1-C , 32-H ) :   0.9535 B(  2-C ,  3-C ) :   1.2076 B(  2-C ,  6-C ) :   1.0468
B(  3-C ,  4-C ) :   1.5859 B(  3-C ,  5-H ) :   0.9821 B(  4-C , 20-C ) :   1.0999
B(  6-C ,  7-H ) :   0.9247 B(  6-C ,  8-H ) :   0.9464 B(  6-C ,  9-C ) :   1.0576
B(  9-C , 10-H ) :   0.9461 B(  9-C , 11-H ) :   0.9581 B(  9-C , 12-C ) :   1.0826
B( 12-C , 13-H ) :   0.9719 B( 12-C , 14-H ) :   0.9714 B( 12-C , 15-H ) :   0.9718
B( 16-S , 17-C ) :   1.1417 B( 16-S , 20-C ) :   1.1404 B( 17-C , 18-C ) :   1.6466
B( 17-C , 33-H ) :   0.9737 B( 18-C , 19-C ) :   1.2112 B( 18-C , 21-H ) :   0.9952
B( 19-C , 20-C ) :   1.5560 B( 19-C , 22-C ) :   1.0525 B( 22-C , 23-H ) :   0.9268
B( 22-C , 24-H ) :   0.9314 B( 22-C , 25-C ) :   1.0595 B( 25-C , 26-H ) :   0.9559
B( 25-C , 27-H ) :   0.9602 B( 25-C , 28-C ) :   1.0796 B( 28-C , 29-H ) :   0.9701
B( 28-C , 30-H ) :   0.9651 B( 28-C , 31-H ) :   0.9677

Dispersion correction           -0.014544838
FINAL SINGLE POINT ENERGY     -1339.864629850106

DIPOLE MOMENT
-------------
                                X             Y             Z
Electronic contribution:     -6.49410      -6.81910       1.47216
Nuclear contribution   :      6.66529       6.70715      -1.58413
                        -----------------------------------------
Total Dipole Moment    :      0.17119      -0.11195      -0.11197
                        -----------------------------------------
Magnitude (a.u.)       :      0.23319
Magnitude (Debye)      :      0.59271

Rotational constants in cm-1:     0.023241     0.008350     0.006520
Rotational constants in MHz :   696.741092   250.338390   195.453214

                             ****ORCA TERMINATED NORMALLY****
TOTAL RUN TIME: 0 days 0 hours 0 minutes 21 seconds 761 msec
