                         Program Version 4.2.1 -  RELEASE  -
|  1> ! wB97X-D3 SP def2-SVP
|  2> %pal
|  3> nprocs 24
|  4> end
|  5>
|  6> * xyz 0 1
|  7> S 	 -61.8539 	 16.2057 	 -102.941
|  8> C 	 -62.4104 	 14.5474 	 -102.808
|  9> C 	 -62.7785 	 14.0048 	 -104.067
| 10> C 	 -62.821 	 15.0183 	 -105.053
| 11> C 	 -62.3297 	 16.2443 	 -104.657
| 12> H 	 -63.0962 	 14.8002 	 -106.064
| 13> C 	 -63.1573 	 12.5072 	 -104.219
| 14> H 	 -63.4205 	 12.1823 	 -103.217
| 15> H 	 -62.329 	 11.8386 	 -104.569
| 16> C 	 -64.4138 	 12.1087 	 -105.082
| 17> H 	 -65.4603 	 12.4226 	 -104.888
| 18> H 	 -64.2014 	 12.5847 	 -106.022
| 19> C 	 -64.5763 	 10.5782 	 -105.219
| 20> H 	 -63.6711 	 10.2085 	 -105.644
| 21> H 	 -64.7359 	 10.0604 	 -104.302
| 22> H 	 -65.4737 	 10.4766 	 -105.874
| 23> S 	 -60.8455 	 18.5072 	 -105.057
| 24> C 	 -61.2801 	 19.5032 	 -106.393
| 25> C 	 -62.3315 	 19.0272 	 -107.223
| 26> C 	 -62.8507 	 17.7783 	 -106.701
| 27> C 	 -62.1484 	 17.3947 	 -105.544
| 28> H 	 -62.6769 	 19.7045 	 -107.934
| 29> C 	 -64.0821 	 17.1277 	 -107.347
| 30> H 	 -64.7257 	 17.9568 	 -107.665
| 31> H 	 -64.4629 	 16.4825 	 -106.532
| 32> C 	 -63.6768 	 16.2433 	 -108.579
| 33> H 	 -64.6047 	 15.8152 	 -108.936
| 34> H 	 -63.0611 	 15.3579 	 -108.307
| 35> C 	 -63.0777 	 17.1108 	 -109.787
| 36> H 	 -62.039 	 17.4731 	 -109.809
| 37> H 	 -63.6163 	 18.033 	 -109.856
| 38> H 	 -63.2244 	 16.574 	 -110.742
| 39> H 	 -62.1509 	 13.8902 	 -101.976
| 40> H 	 -60.846 	 20.4579 	 -106.607
| 41> *
| 42>
| 43>                          ****END OF INPUT****

CARTESIAN COORDINATES (ANGSTROEM)
---------------------------------
  S    -61.853900   16.205700  -102.941000
  C    -62.410400   14.547400  -102.808000
  C    -62.778500   14.004800  -104.067000
  C    -62.821000   15.018300  -105.053000
  C    -62.329700   16.244300  -104.657000
  H    -63.096200   14.800200  -106.064000
  C    -63.157300   12.507200  -104.219000
  H    -63.420500   12.182300  -103.217000
  H    -62.329000   11.838600  -104.569000
  C    -64.413800   12.108700  -105.082000
  H    -65.460300   12.422600  -104.888000
  H    -64.201400   12.584700  -106.022000
  C    -64.576300   10.578200  -105.219000
  H    -63.671100   10.208500  -105.644000
  H    -64.735900   10.060400  -104.302000
  H    -65.473700   10.476600  -105.874000
  S    -60.845500   18.507200  -105.057000
  C    -61.280100   19.503200  -106.393000
  C    -62.331500   19.027200  -107.223000
  C    -62.850700   17.778300  -106.701000
  C    -62.148400   17.394700  -105.544000
  H    -62.676900   19.704500  -107.934000
  C    -64.082100   17.127700  -107.347000
  H    -64.725700   17.956800  -107.665000
  H    -64.462900   16.482500  -106.532000
  C    -63.676800   16.243300  -108.579000
  H    -64.604700   15.815200  -108.936000
  H    -63.061100   15.357900  -108.307000
  C    -63.077700   17.110800  -109.787000
  H    -62.039000   17.473100  -109.809000
  H    -63.616300   18.033000  -109.856000
  H    -63.224400   16.574000  -110.742000
  H    -62.150900   13.890200  -101.976000
  H    -60.846000   20.457900  -106.607000

 Total Charge           Charge          ....    0
 Multiplicity           Mult            ....    1
 Number of Electrons    NEL             ....  134
 Basis Dimension        Dim             ....  322

ORBITAL ENERGIES
----------------

  NO   OCC          E(Eh)            E(eV)
   0   2.0000     -88.971147     -2421.0280
   1   2.0000     -88.970815     -2421.0189
   2   2.0000     -10.332790      -281.1695
   3   2.0000     -10.330819      -281.1159
   4   2.0000     -10.315903      -280.7100
   5   2.0000     -10.315340      -280.6947
   6   2.0000     -10.310399      -280.5602
   7   2.0000     -10.307092      -280.4702
   8   2.0000     -10.302719      -280.3512
   9   2.0000     -10.301641      -280.3219
  10   2.0000     -10.300736      -280.2973
  11   2.0000     -10.294609      -280.1306
  12   2.0000     -10.290795      -280.0268
  13   2.0000     -10.289771      -279.9989
  14   2.0000     -10.283536      -279.8292
  15   2.0000     -10.278449      -279.6908
  16   2.0000      -8.085695      -220.0229
  17   2.0000      -8.084567      -219.9923
  18   2.0000      -6.044030      -164.4664
  19   2.0000      -6.043136      -164.4421
  20   2.0000      -6.040459      -164.3693
  21   2.0000      -6.039320      -164.3382
  22   2.0000      -6.036446      -164.2600
  23   2.0000      -6.035233      -164.2270
  24   2.0000      -1.001439       -27.2505
  25   2.0000      -0.977432       -26.5973
  26   2.0000      -0.905137       -24.6300
  27   2.0000      -0.903323       -24.5807
  28   2.0000      -0.865431       -23.5496
  29   2.0000      -0.851596       -23.1731
  30   2.0000      -0.843024       -22.9398
  31   2.0000      -0.811473       -22.0813
  32   2.0000      -0.784957       -21.3598
  33   2.0000      -0.767544       -20.8859
  34   2.0000      -0.713028       -19.4025
  35   2.0000      -0.700729       -19.0678
  36   2.0000      -0.687661       -18.7122
  37   2.0000      -0.666100       -18.1255
  38   2.0000      -0.635823       -17.3016
  39   2.0000      -0.624907       -17.0046
  40   2.0000      -0.583740       -15.8844
  41   2.0000      -0.570892       -15.5348
  42   2.0000      -0.563218       -15.3259
  43   2.0000      -0.549863       -14.9625
  44   2.0000      -0.536944       -14.6110
  45   2.0000      -0.525631       -14.3032
  46   2.0000      -0.515353       -14.0235
  47   2.0000      -0.499153       -13.5826
  48   2.0000      -0.498576       -13.5669
  49   2.0000      -0.492818       -13.4102
  50   2.0000      -0.488880       -13.3031
  51   2.0000      -0.479561       -13.0495
  52   2.0000      -0.475595       -12.9416
  53   2.0000      -0.471144       -12.8205
  54   2.0000      -0.458031       -12.4637
  55   2.0000      -0.455772       -12.4022
  56   2.0000      -0.443967       -12.0810
  57   2.0000      -0.440234       -11.9794
  58   2.0000      -0.435837       -11.8597
  59   2.0000      -0.430473       -11.7138
  60   2.0000      -0.426259       -11.5991
  61   2.0000      -0.417685       -11.3658
  62   2.0000      -0.400691       -10.9034
  63   2.0000      -0.354723        -9.6525
  64   2.0000      -0.335400        -9.1267
  65   2.0000      -0.332319        -9.0429
  66   2.0000      -0.277290        -7.5454
  67   0.0000       0.019668         0.5352
  68   0.0000       0.072062         1.9609
  69   0.0000       0.098320         2.6754
  70   0.0000       0.117775         3.2048
  71   0.0000       0.132317         3.6005

MULLIKEN ATOMIC CHARGES
-----------------------
   0 S :    0.107722
   1 C :   -0.122122
   2 C :   -0.076689
   3 C :    0.006651
   4 C :   -0.103395
   5 H :   -0.019146
   6 C :    0.047472
   7 H :    0.021123
   8 H :    0.050334
   9 C :   -0.111063
  10 H :    0.035680
  11 H :    0.019123
  12 C :   -0.039263
  13 H :    0.021532
  14 H :    0.032099
  15 H :    0.042484
  16 S :    0.116010
  17 C :   -0.089215
  18 C :   -0.028657
  19 C :   -0.050245
  20 C :   -0.144366
  21 H :    0.002141
  22 C :    0.045906
  23 H :    0.042130
  24 H :    0.040259
  25 C :   -0.067232
  26 H :    0.031263
  27 H :    0.052828
  28 C :   -0.069069
  29 H :    0.050217
  30 H :    0.013284
  31 H :    0.038115
  32 H :    0.059354
  33 H :    0.044733
Sum of atomic charges:   -0.0000000

LOEWDIN ATOMIC CHARGES
----------------------
   0 S :    0.391795
   1 C :   -0.206305
   2 C :   -0.055917
   3 C :   -0.072597
   4 C :   -0.178776
   5 H :    0.023420
   6 C :   -0.033823
   7 H :    0.028258
   8 H :    0.039444
   9 C :   -0.047372
  10 H :    0.028002
  11 H :    0.014674
  12 C :   -0.057970
  13 H :    0.017458
  14 H :    0.020647
  15 H :    0.035173
  16 S :    0.405824
  17 C :   -0.187808
  18 C :   -0.065066
  19 C :   -0.046190
  20 C :   -0.187927
  21 H :    0.022056
  22 C :   -0.029484
  23 H :    0.035371
  24 H :    0.035594
  25 C :   -0.033901
  26 H :    0.023759
  27 H :    0.027249
  28 C :   -0.074588
  29 H :    0.030447
  30 H :    0.017908
  31 H :    0.029918
  32 H :    0.029685
  33 H :    0.021041

  Mayer bond orders larger than 0.100000
B(  0-S ,  1-C ) :   1.1371 B(  0-S ,  4-C ) :   1.1406 B(  1-C ,  2-C ) :   1.6043
B(  1-C ,  4-C ) :   0.1008 B(  1-C , 32-H ) :   0.9581 B(  2-C ,  3-C ) :   1.2776
B(  2-C ,  6-C ) :   1.0119 B(  3-C ,  4-C ) :   1.5468 B(  3-C ,  5-H ) :   0.9912
B(  4-C , 20-C ) :   1.0834 B(  6-C ,  7-H ) :   0.9489 B(  6-C ,  8-H ) :   0.9394
B(  6-C ,  9-C ) :   1.0440 B(  9-C , 10-H ) :   0.9662 B(  9-C , 11-H ) :   0.9557
B(  9-C , 12-C ) :   1.0782 B( 12-C , 13-H ) :   0.9753 B( 12-C , 14-H ) :   0.9785
B( 12-C , 15-H ) :   0.9755 B( 16-S , 17-C ) :   1.1632 B( 16-S , 20-C ) :   1.1264
B( 17-C , 18-C ) :   1.6275 B( 17-C , 33-H ) :   0.9648 B( 18-C , 19-C ) :   1.2170
B( 18-C , 21-H ) :   0.9946 B( 19-C , 20-C ) :   1.5996 B( 19-C , 22-C ) :   1.0270
B( 22-C , 23-H ) :   0.9393 B( 22-C , 24-H ) :   0.9296 B( 22-C , 25-C ) :   1.0790
B( 25-C , 26-H ) :   0.9569 B( 25-C , 27-H ) :   0.9523 B( 25-C , 28-C ) :   1.0577
B( 28-C , 29-H ) :   0.9749 B( 28-C , 30-H ) :   0.9749 B( 28-C , 31-H ) :   0.9757

Dispersion correction           -0.014060810
FINAL SINGLE POINT ENERGY     -1339.861261850261

DIPOLE MOMENT
-------------
                                X             Y             Z
Electronic contribution:     15.47133      20.62274      18.79043
Nuclear contribution   :    -15.78677     -20.91628     -19.33084
                        -----------------------------------------
Total Dipole Moment    :     -0.31544      -0.29354      -0.54041
                        -----------------------------------------
Magnitude (a.u.)       :      0.69117
Magnitude (Debye)      :      1.75681

Rotational constants in cm-1:     0.017768     0.009020     0.006208
Rotational constants in MHz :   532.672246   270.414500   186.105569

                             ****ORCA TERMINATED NORMALLY****
TOTAL RUN TIME: 0 days 0 hours 0 minutes 20 seconds 444 msec
