                         Program Version 4.2.1 -  RELEASE  -
|  1> ! wB97X-D3 SP def2-SVP
|  2> %pal
|  3> nprocs 24
|  4> end
|  5>
|  6> * xyz 0 1
|  7> S 	 -91.4618 	 14.772 	 -115.607
|  8> C 	 -89.7488 	 15.1182 	 -115.631
|  9> C 	 -89.0135 	 14.1504 	 -116.336
| 10> C 	 -89.8987 	 13.1626 	 -116.924
| 11> C 	 -91.2134 	 13.3484 	 -116.663
| 12> H 	 -89.6188 	 12.2895 	 -117.563
| 13> C 	 -87.5399 	 14.1794 	 -116.447
| 14> H 	 -87.2398 	 14.718 	 -117.381
| 15> H 	 -87.098 	 13.2009 	 -116.491
| 16> C 	 -86.7759 	 14.953 	 -115.302
| 17> H 	 -85.6806 	 15.0242 	 -115.503
| 18> H 	 -87.0432 	 15.9958 	 -115.302
| 19> C 	 -87.0416 	 14.3446 	 -113.903
| 20> H 	 -86.2466 	 13.688 	 -113.621
| 21> H 	 -87.1409 	 15.24 	 -113.257
| 22> H 	 -87.9847 	 13.7886 	 -113.766
| 23> S 	 -93.5805 	 12.2376 	 -115.991
| 24> C 	 -94.6565 	 11.5608 	 -117.236
| 25> C 	 -93.9778 	 11.4849 	 -118.421
| 26> C 	 -92.6473 	 12.0056 	 -118.369
| 27> C 	 -92.3029 	 12.4727 	 -117.138
| 28> H 	 -94.4431 	 11.1043 	 -119.339
| 29> C 	 -91.9037 	 12.2302 	 -119.626
| 30> H 	 -91.298 	 11.3776 	 -119.85
| 31> H 	 -91.1584 	 12.9119 	 -119.333
| 32> C 	 -92.6615 	 12.8013 	 -120.827
| 33> H 	 -93.1177 	 13.7351 	 -120.555
| 34> H 	 -93.4301 	 12.1562 	 -121.241
| 35> C 	 -91.7832 	 13.0826 	 -122.028
| 36> H 	 -92.4079 	 13.5055 	 -122.794
| 37> H 	 -91.4154 	 12.1871 	 -122.486
| 38> H 	 -90.9678 	 13.8394 	 -121.912
| 39> H 	 -89.2783 	 15.9195 	 -115.139
| 40> H 	 -95.7 	 11.2637 	 -117.217
| 41> *
| 42>
| 43>                          ****END OF INPUT****

CARTESIAN COORDINATES (ANGSTROEM)
---------------------------------
  S    -91.461800   14.772000  -115.607000
  C    -89.748800   15.118200  -115.631000
  C    -89.013500   14.150400  -116.336000
  C    -89.898700   13.162600  -116.924000
  C    -91.213400   13.348400  -116.663000
  H    -89.618800   12.289500  -117.563000
  C    -87.539900   14.179400  -116.447000
  H    -87.239800   14.718000  -117.381000
  H    -87.098000   13.200900  -116.491000
  C    -86.775900   14.953000  -115.302000
  H    -85.680600   15.024200  -115.503000
  H    -87.043200   15.995800  -115.302000
  C    -87.041600   14.344600  -113.903000
  H    -86.246600   13.688000  -113.621000
  H    -87.140900   15.240000  -113.257000
  H    -87.984700   13.788600  -113.766000
  S    -93.580500   12.237600  -115.991000
  C    -94.656500   11.560800  -117.236000
  C    -93.977800   11.484900  -118.421000
  C    -92.647300   12.005600  -118.369000
  C    -92.302900   12.472700  -117.138000
  H    -94.443100   11.104300  -119.339000
  C    -91.903700   12.230200  -119.626000
  H    -91.298000   11.377600  -119.850000
  H    -91.158400   12.911900  -119.333000
  C    -92.661500   12.801300  -120.827000
  H    -93.117700   13.735100  -120.555000
  H    -93.430100   12.156200  -121.241000
  C    -91.783200   13.082600  -122.028000
  H    -92.407900   13.505500  -122.794000
  H    -91.415400   12.187100  -122.486000
  H    -90.967800   13.839400  -121.912000
  H    -89.278300   15.919500  -115.139000
  H    -95.700000   11.263700  -117.217000

 Total Charge           Charge          ....    0
 Multiplicity           Mult            ....    1
 Number of Electrons    NEL             ....  134
 Basis Dimension        Dim             ....  322

ORBITAL ENERGIES
----------------

  NO   OCC          E(Eh)            E(eV)
   0   2.0000     -88.968737     -2420.9624
   1   2.0000     -88.962927     -2420.8043
   2   2.0000     -10.331176      -281.1256
   3   2.0000     -10.323626      -280.9201
   4   2.0000     -10.316515      -280.7267
   5   2.0000     -10.313310      -280.6394
   6   2.0000     -10.305410      -280.4245
   7   2.0000     -10.297822      -280.2180
   8   2.0000     -10.295462      -280.1538
   9   2.0000     -10.294564      -280.1293
  10   2.0000     -10.292306      -280.0679
  11   2.0000     -10.290341      -280.0144
  12   2.0000     -10.284897      -279.8663
  13   2.0000     -10.279302      -279.7140
  14   2.0000     -10.275966      -279.6233
  15   2.0000     -10.274774      -279.5908
  16   2.0000      -8.082539      -219.9371
  17   2.0000      -8.077609      -219.8029
  18   2.0000      -6.041197      -164.3893
  19   2.0000      -6.037219      -164.2811
  20   2.0000      -6.036353      -164.2575
  21   2.0000      -6.033137      -164.1700
  22   2.0000      -6.032058      -164.1407
  23   2.0000      -6.028175      -164.0350
  24   2.0000      -1.007445       -27.4140
  25   2.0000      -0.982965       -26.7478
  26   2.0000      -0.914237       -24.8776
  27   2.0000      -0.908978       -24.7346
  28   2.0000      -0.867916       -23.6172
  29   2.0000      -0.855897       -23.2901
  30   2.0000      -0.845810       -23.0157
  31   2.0000      -0.818176       -22.2637
  32   2.0000      -0.780375       -21.2351
  33   2.0000      -0.772465       -21.0198
  34   2.0000      -0.708516       -19.2797
  35   2.0000      -0.706820       -19.2335
  36   2.0000      -0.697140       -18.9701
  37   2.0000      -0.659847       -17.9553
  38   2.0000      -0.640014       -17.4157
  39   2.0000      -0.610486       -16.6122
  40   2.0000      -0.594787       -16.1850
  41   2.0000      -0.577104       -15.7038
  42   2.0000      -0.571276       -15.5452
  43   2.0000      -0.547675       -14.9030
  44   2.0000      -0.537569       -14.6280
  45   2.0000      -0.528029       -14.3684
  46   2.0000      -0.519603       -14.1391
  47   2.0000      -0.515273       -14.0213
  48   2.0000      -0.505375       -13.7520
  49   2.0000      -0.502312       -13.6686
  50   2.0000      -0.486472       -13.2376
  51   2.0000      -0.476861       -12.9761
  52   2.0000      -0.475618       -12.9422
  53   2.0000      -0.463720       -12.6185
  54   2.0000      -0.460372       -12.5274
  55   2.0000      -0.448931       -12.2160
  56   2.0000      -0.440652       -11.9908
  57   2.0000      -0.436747       -11.8845
  58   2.0000      -0.432105       -11.7582
  59   2.0000      -0.426043       -11.5932
  60   2.0000      -0.420376       -11.4390
  61   2.0000      -0.419062       -11.4033
  62   2.0000      -0.409230       -11.1357
  63   2.0000      -0.354142        -9.6367
  64   2.0000      -0.329743        -8.9728
  65   2.0000      -0.327909        -8.9229
  66   2.0000      -0.291347        -7.9279
  67   0.0000       0.030272         0.8237
  68   0.0000       0.073712         2.0058
  69   0.0000       0.110614         3.0100
  70   0.0000       0.123607         3.3635
  71   0.0000       0.134547         3.6612

MULLIKEN ATOMIC CHARGES
-----------------------
   0 S :    0.117900
   1 C :   -0.097556
   2 C :   -0.093126
   3 C :    0.000599
   4 C :   -0.124561
   5 H :    0.033128
   6 C :    0.076586
   7 H :    0.047960
   8 H :    0.027448
   9 C :   -0.122509
  10 H :    0.035929
  11 H :    0.022917
  12 C :   -0.064520
  13 H :    0.037464
  14 H :    0.032504
  15 H :    0.053978
  16 S :    0.090363
  17 C :   -0.084154
  18 C :   -0.046272
  19 C :   -0.053188
  20 C :   -0.158403
  21 H :    0.022953
  22 C :    0.126179
  23 H :    0.018639
  24 H :   -0.007950
  25 C :   -0.064210
  26 H :    0.030838
  27 H :    0.027450
  28 C :   -0.048882
  29 H :    0.020156
  30 H :    0.022040
  31 H :    0.036987
  32 H :    0.028156
  33 H :    0.055158
Sum of atomic charges:   -0.0000000

LOEWDIN ATOMIC CHARGES
----------------------
   0 S :    0.390007
   1 C :   -0.187942
   2 C :   -0.061451
   3 C :   -0.067387
   4 C :   -0.182815
   5 H :    0.041157
   6 C :   -0.035840
   7 H :    0.041634
   8 H :    0.028409
   9 C :   -0.044854
  10 H :    0.031106
  11 H :    0.014457
  12 C :   -0.073181
  13 H :    0.022722
  14 H :    0.031303
  15 H :    0.031109
  16 S :    0.395147
  17 C :   -0.179964
  18 C :   -0.069278
  19 C :   -0.061429
  20 C :   -0.196823
  21 H :    0.033372
  22 C :   -0.034740
  23 H :    0.029988
  24 H :    0.026441
  25 C :   -0.033484
  26 H :    0.027137
  27 H :    0.023658
  28 C :   -0.064426
  29 H :    0.025322
  30 H :    0.019797
  31 H :    0.027878
  32 H :    0.017559
  33 H :    0.035415

  Mayer bond orders larger than 0.100000
B(  0-S ,  1-C ) :   1.1288 B(  0-S ,  4-C ) :   1.1216 B(  1-C ,  2-C ) :   1.6164
B(  1-C , 32-H ) :   0.9690 B(  2-C ,  3-C ) :   1.2144 B(  2-C ,  6-C ) :   1.0326
B(  3-C ,  4-C ) :   1.6062 B(  3-C ,  5-H ) :   0.9884 B(  4-C , 20-C ) :   1.0340
B(  6-C ,  7-H ) :   0.9263 B(  6-C ,  8-H ) :   0.9457 B(  6-C ,  9-C ) :   1.0783
B(  9-C , 10-H ) :   0.9571 B(  9-C , 11-H ) :   0.9616 B(  9-C , 12-C ) :   1.0514
B( 12-C , 13-H ) :   0.9796 B( 12-C , 14-H ) :   0.9794 B( 12-C , 15-H ) :   0.9801
B( 16-S , 17-C ) :   1.1304 B( 16-S , 20-C ) :   1.1243 B( 17-C , 18-C ) :   1.6376
B( 17-C , 33-H ) :   0.9651 B( 18-C , 19-C ) :   1.2360 B( 18-C , 21-H ) :   0.9829
B( 19-C , 20-C ) :   1.6167 B( 19-C , 22-C ) :   1.0507 B( 22-C , 23-H ) :   0.9119
B( 22-C , 24-H ) :   0.9177 B( 22-C , 25-C ) :   1.0732 B( 25-C , 26-H ) :   0.9540
B( 25-C , 27-H ) :   0.9471 B( 25-C , 28-C ) :   1.1015 B( 28-C , 29-H ) :   0.9710
B( 28-C , 30-H ) :   0.9728 B( 28-C , 31-H ) :   0.9738

Dispersion correction           -0.013972066
FINAL SINGLE POINT ENERGY     -1339.879357291363

DIPOLE MOMENT
-------------
                                X             Y             Z
Electronic contribution:    -18.50938      -2.36516      13.70808
Nuclear contribution   :     18.91729       2.37477     -14.29452
                        -----------------------------------------
Total Dipole Moment    :      0.40791       0.00962      -0.58643
                        -----------------------------------------
Magnitude (a.u.)       :      0.71441
Magnitude (Debye)      :      1.81590

Rotational constants in cm-1:     0.020759     0.007888     0.006247
Rotational constants in MHz :   622.346367   236.485924   187.277115

                             ****ORCA TERMINATED NORMALLY****
TOTAL RUN TIME: 0 days 0 hours 0 minutes 21 seconds 499 msec
