                         Program Version 4.2.1 -  RELEASE  -
|  1> ! wB97X-D3 SP def2-SVP
|  2> %pal
|  3> nprocs 24
|  4> end
|  5>
|  6> * xyz 0 1
|  7> S 	 -130.398 	 59.0123 	 -58.8999
|  8> C 	 -131.644 	 59.5947 	 -57.8357
|  9> C 	 -131.073 	 60.0005 	 -56.6476
| 10> C 	 -129.655 	 60.1032 	 -56.674
| 11> C 	 -129.133 	 59.5246 	 -57.7844
| 12> H 	 -129.125 	 60.4151 	 -55.8181
| 13> C 	 -131.884 	 60.4854 	 -55.4407
| 14> H 	 -131.344 	 60.1025 	 -54.5421
| 15> H 	 -132.921 	 60.1542 	 -55.409
| 16> C 	 -131.986 	 62.0601 	 -55.3606
| 17> H 	 -132.621 	 62.4939 	 -56.0977
| 18> H 	 -132.485 	 62.2322 	 -54.4489
| 19> C 	 -130.737 	 62.8527 	 -55.2527
| 20> H 	 -131.079 	 63.8509 	 -55.424
| 21> H 	 -130.243 	 62.7716 	 -54.2872
| 22> H 	 -130.224 	 62.6775 	 -56.2108
| 23> S 	 -127.227 	 57.7111 	 -58.2889
| 24> C 	 -125.498 	 58.1632 	 -58.5409
| 25> C 	 -125.358 	 59.4987 	 -58.1915
| 26> C 	 -126.62 	 60.1945 	 -57.9566
| 27> C 	 -127.711 	 59.3243 	 -58.0471
| 28> H 	 -124.378 	 59.9594 	 -58.2543
| 29> C 	 -126.72 	 61.6855 	 -57.8501
| 30> H 	 -127.687 	 61.9464 	 -57.5621
| 31> H 	 -126.552 	 62.0981 	 -58.8435
| 32> C 	 -125.856 	 62.278 	 -56.7597
| 33> H 	 -124.804 	 62.217 	 -57.0219
| 34> H 	 -125.931 	 61.695 	 -55.7656
| 35> C 	 -126.105 	 63.7802 	 -56.5562
| 36> H 	 -125.177 	 64.283 	 -56.0654
| 37> H 	 -127.024 	 63.9804 	 -56.0018
| 38> H 	 -126.239 	 64.3103 	 -57.4866
| 39> H 	 -132.758 	 59.6212 	 -57.9315
| 40> H 	 -124.818 	 57.539 	 -59.0583
| 41> *
| 42>
| 43>                          ****END OF INPUT****

CARTESIAN COORDINATES (ANGSTROEM)
---------------------------------
  S    -130.398000   59.012300  -58.899900
  C    -131.644000   59.594700  -57.835700
  C    -131.073000   60.000500  -56.647600
  C    -129.655000   60.103200  -56.674000
  C    -129.133000   59.524600  -57.784400
  H    -129.125000   60.415100  -55.818100
  C    -131.884000   60.485400  -55.440700
  H    -131.344000   60.102500  -54.542100
  H    -132.921000   60.154200  -55.409000
  C    -131.986000   62.060100  -55.360600
  H    -132.621000   62.493900  -56.097700
  H    -132.485000   62.232200  -54.448900
  C    -130.737000   62.852700  -55.252700
  H    -131.079000   63.850900  -55.424000
  H    -130.243000   62.771600  -54.287200
  H    -130.224000   62.677500  -56.210800
  S    -127.227000   57.711100  -58.288900
  C    -125.498000   58.163200  -58.540900
  C    -125.358000   59.498700  -58.191500
  C    -126.620000   60.194500  -57.956600
  C    -127.711000   59.324300  -58.047100
  H    -124.378000   59.959400  -58.254300
  C    -126.720000   61.685500  -57.850100
  H    -127.687000   61.946400  -57.562100
  H    -126.552000   62.098100  -58.843500
  C    -125.856000   62.278000  -56.759700
  H    -124.804000   62.217000  -57.021900
  H    -125.931000   61.695000  -55.765600
  C    -126.105000   63.780200  -56.556200
  H    -125.177000   64.283000  -56.065400
  H    -127.024000   63.980400  -56.001800
  H    -126.239000   64.310300  -57.486600
  H    -132.758000   59.621200  -57.931500
  H    -124.818000   57.539000  -59.058300

 Total Charge           Charge          ....    0
 Multiplicity           Mult            ....    1
 Number of Electrons    NEL             ....  134
 Basis Dimension        Dim             ....  322

ORBITAL ENERGIES
----------------

  NO   OCC          E(Eh)            E(eV)
   0   2.0000     -88.968425     -2420.9539
   1   2.0000     -88.959067     -2420.6993
   2   2.0000     -10.328931      -281.0645
   3   2.0000     -10.323304      -280.9114
   4   2.0000     -10.318282      -280.7747
   5   2.0000     -10.315188      -280.6905
   6   2.0000     -10.303111      -280.3619
   7   2.0000     -10.299408      -280.2611
   8   2.0000     -10.296642      -280.1859
   9   2.0000     -10.296421      -280.1799
  10   2.0000     -10.289717      -279.9974
  11   2.0000     -10.289145      -279.9819
  12   2.0000     -10.283134      -279.8183
  13   2.0000     -10.282756      -279.8080
  14   2.0000     -10.277172      -279.6561
  15   2.0000     -10.273257      -279.5495
  16   2.0000      -8.082878      -219.9463
  17   2.0000      -8.074256      -219.7117
  18   2.0000      -6.041556      -164.3991
  19   2.0000      -6.037364      -164.2850
  20   2.0000      -6.033511      -164.1802
  21   2.0000      -6.032814      -164.1612
  22   2.0000      -6.028621      -164.0471
  23   2.0000      -6.025002      -163.9486
  24   2.0000      -1.008700       -27.4481
  25   2.0000      -0.982804       -26.7435
  26   2.0000      -0.913384       -24.8544
  27   2.0000      -0.910908       -24.7871
  28   2.0000      -0.872215       -23.7342
  29   2.0000      -0.853004       -23.2114
  30   2.0000      -0.843511       -22.9531
  31   2.0000      -0.820108       -22.3163
  32   2.0000      -0.781523       -21.2663
  33   2.0000      -0.768327       -20.9072
  34   2.0000      -0.701789       -19.0967
  35   2.0000      -0.698997       -19.0207
  36   2.0000      -0.695224       -18.9180
  37   2.0000      -0.659049       -17.9336
  38   2.0000      -0.636897       -17.3309
  39   2.0000      -0.621294       -16.9063
  40   2.0000      -0.598132       -16.2760
  41   2.0000      -0.578575       -15.7438
  42   2.0000      -0.568363       -15.4659
  43   2.0000      -0.551792       -15.0150
  44   2.0000      -0.541379       -14.7317
  45   2.0000      -0.526952       -14.3391
  46   2.0000      -0.519673       -14.1410
  47   2.0000      -0.513749       -13.9798
  48   2.0000      -0.509449       -13.8628
  49   2.0000      -0.494801       -13.4642
  50   2.0000      -0.492178       -13.3929
  51   2.0000      -0.486110       -13.2277
  52   2.0000      -0.470611       -12.8060
  53   2.0000      -0.463765       -12.6197
  54   2.0000      -0.458653       -12.4806
  55   2.0000      -0.447088       -12.1659
  56   2.0000      -0.441983       -12.0270
  57   2.0000      -0.434372       -11.8199
  58   2.0000      -0.431576       -11.7438
  59   2.0000      -0.426834       -11.6147
  60   2.0000      -0.416379       -11.3302
  61   2.0000      -0.412906       -11.2357
  62   2.0000      -0.407517       -11.0891
  63   2.0000      -0.347599        -9.4587
  64   2.0000      -0.330294        -8.9877
  65   2.0000      -0.324180        -8.8214
  66   2.0000      -0.293061        -7.9746
  67   0.0000       0.031427         0.8552
  68   0.0000       0.071720         1.9516
  69   0.0000       0.111639         3.0378
  70   0.0000       0.118864         3.2344
  71   0.0000       0.128493         3.4965

MULLIKEN ATOMIC CHARGES
-----------------------
   0 S :    0.124332
   1 C :   -0.123972
   2 C :   -0.115086
   3 C :    0.048050
   4 C :   -0.143574
   5 H :    0.003727
   6 C :    0.056372
   7 H :    0.031719
   8 H :    0.024482
   9 C :   -0.074229
  10 H :    0.018157
  11 H :    0.008772
  12 C :   -0.033372
  13 H :    0.016220
  14 H :    0.047104
  15 H :    0.041420
  16 S :    0.087793
  17 C :   -0.098509
  18 C :   -0.024337
  19 C :   -0.064416
  20 C :   -0.135837
  21 H :    0.026193
  22 C :    0.142316
  23 H :   -0.010480
  24 H :    0.040426
  25 C :   -0.126298
  26 H :    0.023648
  27 H :    0.047115
  28 C :   -0.064521
  29 H :    0.047367
  30 H :    0.038592
  31 H :    0.023405
  32 H :    0.060760
  33 H :    0.056662
Sum of atomic charges:   -0.0000000

LOEWDIN ATOMIC CHARGES
----------------------
   0 S :    0.409506
   1 C :   -0.213325
   2 C :   -0.067881
   3 C :   -0.055412
   4 C :   -0.190288
   5 H :    0.027865
   6 C :   -0.030827
   7 H :    0.033714
   8 H :    0.029432
   9 C :   -0.038688
  10 H :    0.020335
  11 H :    0.016549
  12 C :   -0.069776
  13 H :    0.028232
  14 H :    0.028131
  15 H :    0.031233
  16 S :    0.398645
  17 C :   -0.168102
  18 C :   -0.061433
  19 C :   -0.060884
  20 C :   -0.208989
  21 H :    0.031671
  22 C :   -0.028704
  23 H :    0.020066
  24 H :    0.036961
  25 C :   -0.047800
  26 H :    0.018095
  27 H :    0.035256
  28 C :   -0.073580
  29 H :    0.037998
  30 H :    0.023861
  31 H :    0.021548
  32 H :    0.043066
  33 H :    0.023527

  Mayer bond orders larger than 0.100000
B(  0-S ,  1-C ) :   1.1281 B(  0-S ,  4-C ) :   1.1481 B(  1-C ,  2-C ) :   1.6246
B(  1-C , 32-H ) :   0.9607 B(  2-C ,  3-C ) :   1.2403 B(  2-C ,  6-C ) :   1.0292
B(  3-C ,  4-C ) :   1.5655 B(  3-C ,  5-H ) :   1.0008 B(  4-C , 20-C ) :   1.0138
B(  6-C ,  7-H ) :   0.9406 B(  6-C ,  8-H ) :   0.9447 B(  6-C ,  9-C ) :   1.0630
B(  9-C , 10-H ) :   0.9568 B(  9-C , 11-H ) :   0.9510 B(  9-C , 12-C ) :   1.1054
B( 12-C , 13-H ) :   0.9611 B( 12-C , 14-H ) :   0.9739 B( 12-C , 15-H ) :   0.9607
B( 16-S , 17-C ) :   1.1335 B( 16-S , 20-C ) :   1.1638 B( 17-C , 18-C ) :   1.6133
B( 17-C , 33-H ) :   0.9769 B( 18-C , 19-C ) :   1.2178 B( 18-C , 21-H ) :   0.9886
B( 19-C , 20-C ) :   1.5891 B( 19-C , 22-C ) :   1.0576 B( 22-C , 23-H ) :   0.9264
B( 22-C , 24-H ) :   0.9254 B( 22-C , 25-C ) :   1.0545 B( 25-C , 26-H ) :   0.9536
B( 25-C , 27-H ) :   0.9578 B( 25-C , 28-C ) :   1.0814 B( 28-C , 29-H ) :   0.9760
B( 28-C , 30-H ) :   0.9749 B( 28-C , 31-H ) :   0.9700

Dispersion correction           -0.014860072
FINAL SINGLE POINT ENERGY     -1339.866193258402

DIPOLE MOMENT
-------------
                                X             Y             Z
Electronic contribution:     -0.12159     -26.94787     -15.87133
Nuclear contribution   :      0.05801      27.60593      16.19274
                        -----------------------------------------
Total Dipole Moment    :     -0.06357       0.65807       0.32141
                        -----------------------------------------
Magnitude (a.u.)       :      0.73512
Magnitude (Debye)      :      1.86852

Rotational constants in cm-1:     0.016327     0.010664     0.007007
Rotational constants in MHz :   489.456709   319.700895   210.077118

                             ****ORCA TERMINATED NORMALLY****
TOTAL RUN TIME: 0 days 0 hours 0 minutes 22 seconds 392 msec
