                         Program Version 4.2.1 -  RELEASE  -
|  1> ! wB97X-D3 SP def2-SVP
|  2> %pal
|  3> nprocs 24
|  4> end
|  5>
|  6> * xyz 0 1
|  7> S 	 -121.532 	 63.8305 	 -52.1036
|  8> C 	 -120.346 	 63.4584 	 -50.8842
|  9> C 	 -120.983 	 63.411 	 -49.6354
| 10> C 	 -122.388 	 63.5027 	 -49.7191
| 11> C 	 -122.846 	 63.6383 	 -51.0087
| 12> H 	 -123.034 	 63.4719 	 -48.8592
| 13> C 	 -120.396 	 63.3842 	 -48.2131
| 14> H 	 -119.547 	 62.6604 	 -48.3322
| 15> H 	 -121.03 	 62.9739 	 -47.4438
| 16> C 	 -119.856 	 64.6864 	 -47.5778
| 17> H 	 -119.702 	 64.3822 	 -46.5248
| 18> H 	 -118.882 	 65.0562 	 -48.1322
| 19> C 	 -120.901 	 65.9105 	 -47.8237
| 20> H 	 -120.726 	 66.3549 	 -48.8416
| 21> H 	 -121.962 	 65.6073 	 -47.6387
| 22> H 	 -120.509 	 66.6842 	 -47.1424
| 23> S 	 -124.672 	 64.9804 	 -52.4689
| 24> C 	 -126.41 	 64.6143 	 -52.361
| 25> C 	 -126.649 	 63.6094 	 -51.4551
| 26> C 	 -125.433 	 63.0802 	 -50.8707
| 27> C 	 -124.264 	 63.6676 	 -51.4037
| 28> H 	 -127.663 	 63.1981 	 -51.1961
| 29> C 	 -125.434 	 61.9836 	 -49.7904
| 30> H 	 -124.406 	 61.696 	 -49.641
| 31> H 	 -125.855 	 61.0489 	 -50.1667
| 32> C 	 -126.193 	 62.3212 	 -48.5068
| 33> H 	 -127.137 	 62.7517 	 -48.7673
| 34> H 	 -125.647 	 63.1601 	 -48.0121
| 35> C 	 -126.452 	 61.0912 	 -47.5683
| 36> H 	 -127.086 	 60.5054 	 -48.17
| 37> H 	 -127.072 	 61.2224 	 -46.6048
| 38> H 	 -125.677 	 60.4575 	 -47.3283
| 39> H 	 -119.35 	 63.5803 	 -51.0328
| 40> H 	 -127.196 	 65.2603 	 -52.8563
| 41> *
| 42>
| 43>                          ****END OF INPUT****

CARTESIAN COORDINATES (ANGSTROEM)
---------------------------------
  S    -121.532000   63.830500  -52.103600
  C    -120.346000   63.458400  -50.884200
  C    -120.983000   63.411000  -49.635400
  C    -122.388000   63.502700  -49.719100
  C    -122.846000   63.638300  -51.008700
  H    -123.034000   63.471900  -48.859200
  C    -120.396000   63.384200  -48.213100
  H    -119.547000   62.660400  -48.332200
  H    -121.030000   62.973900  -47.443800
  C    -119.856000   64.686400  -47.577800
  H    -119.702000   64.382200  -46.524800
  H    -118.882000   65.056200  -48.132200
  C    -120.901000   65.910500  -47.823700
  H    -120.726000   66.354900  -48.841600
  H    -121.962000   65.607300  -47.638700
  H    -120.509000   66.684200  -47.142400
  S    -124.672000   64.980400  -52.468900
  C    -126.410000   64.614300  -52.361000
  C    -126.649000   63.609400  -51.455100
  C    -125.433000   63.080200  -50.870700
  C    -124.264000   63.667600  -51.403700
  H    -127.663000   63.198100  -51.196100
  C    -125.434000   61.983600  -49.790400
  H    -124.406000   61.696000  -49.641000
  H    -125.855000   61.048900  -50.166700
  C    -126.193000   62.321200  -48.506800
  H    -127.137000   62.751700  -48.767300
  H    -125.647000   63.160100  -48.012100
  C    -126.452000   61.091200  -47.568300
  H    -127.086000   60.505400  -48.170000
  H    -127.072000   61.222400  -46.604800
  H    -125.677000   60.457500  -47.328300
  H    -119.350000   63.580300  -51.032800
  H    -127.196000   65.260300  -52.856300

 Total Charge           Charge          ....    0
 Multiplicity           Mult            ....    1
 Number of Electrons    NEL             ....  134
 Basis Dimension        Dim             ....  322

ORBITAL ENERGIES
----------------

  NO   OCC          E(Eh)            E(eV)
   0   2.0000     -88.969216     -2420.9755
   1   2.0000     -88.965627     -2420.8778
   2   2.0000     -10.331648      -281.1384
   3   2.0000     -10.329463      -281.0790
   4   2.0000     -10.326498      -280.9983
   5   2.0000     -10.311288      -280.5844
   6   2.0000     -10.311147      -280.5806
   7   2.0000     -10.304050      -280.3875
   8   2.0000     -10.303884      -280.3829
   9   2.0000     -10.303301      -280.3671
  10   2.0000     -10.293815      -280.1089
  11   2.0000     -10.293681      -280.1053
  12   2.0000     -10.291849      -280.0554
  13   2.0000     -10.289073      -279.9799
  14   2.0000     -10.287960      -279.9496
  15   2.0000     -10.279419      -279.7172
  16   2.0000      -8.084451      -219.9891
  17   2.0000      -8.080355      -219.8776
  18   2.0000      -6.042993      -164.4382
  19   2.0000      -6.038949      -164.3282
  20   2.0000      -6.038808      -164.3243
  21   2.0000      -6.035230      -164.2270
  22   2.0000      -6.034845      -164.2165
  23   2.0000      -6.031036      -164.1128
  24   2.0000      -1.010104       -27.4863
  25   2.0000      -0.984246       -26.7827
  26   2.0000      -0.907842       -24.7036
  27   2.0000      -0.902407       -24.5557
  28   2.0000      -0.868276       -23.6270
  29   2.0000      -0.849361       -23.1123
  30   2.0000      -0.840320       -22.8663
  31   2.0000      -0.812920       -22.1207
  32   2.0000      -0.781060       -21.2537
  33   2.0000      -0.773739       -21.0545
  34   2.0000      -0.710032       -19.3210
  35   2.0000      -0.700924       -19.0731
  36   2.0000      -0.689528       -18.7630
  37   2.0000      -0.660018       -17.9600
  38   2.0000      -0.643723       -17.5166
  39   2.0000      -0.614930       -16.7331
  40   2.0000      -0.594138       -16.1673
  41   2.0000      -0.573207       -15.5978
  42   2.0000      -0.563123       -15.3234
  43   2.0000      -0.545981       -14.8569
  44   2.0000      -0.535259       -14.5651
  45   2.0000      -0.522235       -14.2107
  46   2.0000      -0.515795       -14.0355
  47   2.0000      -0.511024       -13.9057
  48   2.0000      -0.503557       -13.7025
  49   2.0000      -0.496581       -13.5127
  50   2.0000      -0.486783       -13.2460
  51   2.0000      -0.483758       -13.1637
  52   2.0000      -0.470619       -12.8062
  53   2.0000      -0.466638       -12.6979
  54   2.0000      -0.459806       -12.5120
  55   2.0000      -0.453150       -12.3308
  56   2.0000      -0.445014       -12.1094
  57   2.0000      -0.436799       -11.8859
  58   2.0000      -0.431325       -11.7369
  59   2.0000      -0.423461       -11.5229
  60   2.0000      -0.420487       -11.4420
  61   2.0000      -0.417043       -11.3483
  62   2.0000      -0.399816       -10.8795
  63   2.0000      -0.354753        -9.6533
  64   2.0000      -0.333730        -9.0813
  65   2.0000      -0.328050        -8.9267
  66   2.0000      -0.290123        -7.8947
  67   0.0000       0.024006         0.6532
  68   0.0000       0.072069         1.9611
  69   0.0000       0.102203         2.7811
  70   0.0000       0.119932         3.2635
  71   0.0000       0.127195         3.4611

MULLIKEN ATOMIC CHARGES
-----------------------
   0 S :    0.115243
   1 C :   -0.076863
   2 C :   -0.077029
   3 C :    0.007169
   4 C :   -0.130829
   5 H :    0.008195
   6 C :    0.027232
   7 H :    0.033684
   8 H :    0.024469
   9 C :   -0.107006
  10 H :    0.048136
  11 H :    0.044285
  12 C :   -0.091992
  13 H :    0.055472
  14 H :    0.051984
  15 H :    0.041501
  16 S :    0.086231
  17 C :   -0.113077
  18 C :   -0.033698
  19 C :   -0.067463
  20 C :   -0.117319
  21 H :    0.043341
  22 C :    0.064791
  23 H :    0.018010
  24 H :    0.018843
  25 C :   -0.062948
  26 H :    0.019831
  27 H :    0.030609
  28 C :   -0.035054
  29 H :    0.009687
  30 H :    0.047559
  31 H :    0.019575
  32 H :    0.013005
  33 H :    0.084429
Sum of atomic charges:    0.0000000

LOEWDIN ATOMIC CHARGES
----------------------
   0 S :    0.428660
   1 C :   -0.190432
   2 C :   -0.054641
   3 C :   -0.066624
   4 C :   -0.204013
   5 H :    0.028434
   6 C :   -0.044710
   7 H :    0.035322
   8 H :    0.026499
   9 C :   -0.044331
  10 H :    0.027483
  11 H :    0.032789
  12 C :   -0.078099
  13 H :    0.035828
  14 H :    0.027506
  15 H :    0.027798
  16 S :    0.397070
  17 C :   -0.186298
  18 C :   -0.076063
  19 C :   -0.055142
  20 C :   -0.195417
  21 H :    0.042341
  22 C :   -0.034122
  23 H :    0.027125
  24 H :    0.028846
  25 C :   -0.035122
  26 H :    0.019782
  27 H :    0.022602
  28 C :   -0.067378
  29 H :    0.020111
  30 H :    0.040198
  31 H :    0.013450
  32 H :    0.006841
  33 H :    0.043706

  Mayer bond orders larger than 0.100000
B(  0-S ,  1-C ) :   1.1423 B(  0-S ,  4-C ) :   1.1760 B(  1-C ,  2-C ) :   1.5707
B(  1-C ,  4-C ) :   0.1053 B(  1-C , 32-H ) :   0.9857 B(  2-C ,  3-C ) :   1.2779
B(  2-C ,  6-C ) :   1.0131 B(  3-C ,  4-C ) :   1.5239 B(  3-C ,  5-H ) :   1.0000
B(  4-C , 20-C ) :   1.0162 B(  6-C ,  7-H ) :   0.9393 B(  6-C ,  8-H ) :   0.9514
B(  6-C ,  9-C ) :   1.0656 B(  9-C , 10-H ) :   0.9609 B(  9-C , 11-H ) :   0.9565
B(  9-C , 12-C ) :   1.0566 B( 12-C , 13-H ) :   0.9720 B( 12-C , 14-H ) :   0.9762
B( 12-C , 15-H ) :   0.9769 B( 16-S , 17-C ) :   1.1465 B( 16-S , 20-C ) :   1.1477
B( 17-C , 18-C ) :   1.6102 B( 17-C , 33-H ) :   0.9599 B( 18-C , 19-C ) :   1.2418
B( 18-C , 21-H ) :   0.9791 B( 19-C , 20-C ) :   1.6012 B( 19-C , 22-C ) :   1.0380
B( 22-C , 23-H ) :   0.9346 B( 22-C , 24-H ) :   0.9365 B( 22-C , 25-C ) :   1.0493
B( 25-C , 26-H ) :   0.9591 B( 25-C , 27-H ) :   0.9553 B( 25-C , 28-C ) :   1.0590
B( 28-C , 29-H ) :   0.9719 B( 28-C , 30-H ) :   0.9765 B( 28-C , 31-H ) :   0.9808

Dispersion correction           -0.014549532
FINAL SINGLE POINT ENERGY     -1339.857750100146

DIPOLE MOMENT
-------------
                                X             Y             Z
Electronic contribution:      1.47060       5.88995     -27.06101
Nuclear contribution   :     -1.64877      -5.98564      27.70526
                        -----------------------------------------
Total Dipole Moment    :     -0.17817      -0.09569       0.64425
                        -----------------------------------------
Magnitude (a.u.)       :      0.67525
Magnitude (Debye)      :      1.71635

Rotational constants in cm-1:     0.016338     0.009635     0.007111
Rotational constants in MHz :   489.793965   288.840293   213.190273

                             ****ORCA TERMINATED NORMALLY****
TOTAL RUN TIME: 0 days 0 hours 0 minutes 21 seconds 689 msec
