                         Program Version 4.2.1 -  RELEASE  -
|  1> ! wB97X-D3 SP def2-SVP
|  2> %pal
|  3> nprocs 24
|  4> end
|  5>
|  6> * xyz 0 1
|  7> S 	 -76.9128 	 -16.6226 	 -52.7602
|  8> C 	 -77.7986 	 -18.0874 	 -52.5486
|  9> C 	 -79.0612 	 -17.7645 	 -52.0284
| 10> C 	 -79.1561 	 -16.3973 	 -51.6096
| 11> C 	 -78.0644 	 -15.6094 	 -51.9613
| 12> H 	 -80.0119 	 -15.8887 	 -51.2179
| 13> C 	 -80.1934 	 -18.7388 	 -51.9497
| 14> H 	 -80.5392 	 -18.8406 	 -50.8917
| 15> H 	 -79.8814 	 -19.6954 	 -52.3398
| 16> C 	 -81.4553 	 -18.5395 	 -52.8189
| 17> H 	 -82.2108 	 -19.3033 	 -52.5556
| 18> H 	 -81.8692 	 -17.5737 	 -52.5183
| 19> C 	 -81.2842 	 -18.5492 	 -54.4003
| 20> H 	 -82.1505 	 -18.3387 	 -54.9743
| 21> H 	 -80.4324 	 -17.9642 	 -54.8379
| 22> H 	 -80.9377 	 -19.5307 	 -54.7014
| 23> S 	 -78.3809 	 -13.2168 	 -53.3956
| 24> C 	 -77.9634 	 -11.6695 	 -52.6003
| 25> C 	 -77.5641 	 -11.9294 	 -51.2934
| 26> C 	 -77.5614 	 -13.2823 	 -50.9423
| 27> C 	 -77.9433 	 -14.1722 	 -51.9612
| 28> H 	 -77.4448 	 -11.1018 	 -50.6713
| 29> C 	 -77.2351 	 -13.7523 	 -49.5411
| 30> H 	 -77.8954 	 -14.4588 	 -49.1921
| 31> H 	 -77.5159 	 -12.8639 	 -48.9475
| 32> C 	 -75.8304 	 -14.1622 	 -49.3117
| 33> H 	 -75.148 	 -13.3824 	 -49.7114
| 34> H 	 -75.5292 	 -15.0418 	 -49.7629
| 35> C 	 -75.3701 	 -14.3845 	 -47.8415
| 36> H 	 -74.2782 	 -14.6034 	 -47.7918
| 37> H 	 -75.9345 	 -15.1924 	 -47.3455
| 38> H 	 -75.4706 	 -13.5348 	 -47.1895
| 39> H 	 -77.4566 	 -18.974 	 -53.0367
| 40> H 	 -77.954 	 -10.7318 	 -53.0363
| 41> *
| 42>
| 43>                          ****END OF INPUT****

CARTESIAN COORDINATES (ANGSTROEM)
---------------------------------
  S    -76.912800  -16.622600  -52.760200
  C    -77.798600  -18.087400  -52.548600
  C    -79.061200  -17.764500  -52.028400
  C    -79.156100  -16.397300  -51.609600
  C    -78.064400  -15.609400  -51.961300
  H    -80.011900  -15.888700  -51.217900
  C    -80.193400  -18.738800  -51.949700
  H    -80.539200  -18.840600  -50.891700
  H    -79.881400  -19.695400  -52.339800
  C    -81.455300  -18.539500  -52.818900
  H    -82.210800  -19.303300  -52.555600
  H    -81.869200  -17.573700  -52.518300
  C    -81.284200  -18.549200  -54.400300
  H    -82.150500  -18.338700  -54.974300
  H    -80.432400  -17.964200  -54.837900
  H    -80.937700  -19.530700  -54.701400
  S    -78.380900  -13.216800  -53.395600
  C    -77.963400  -11.669500  -52.600300
  C    -77.564100  -11.929400  -51.293400
  C    -77.561400  -13.282300  -50.942300
  C    -77.943300  -14.172200  -51.961200
  H    -77.444800  -11.101800  -50.671300
  C    -77.235100  -13.752300  -49.541100
  H    -77.895400  -14.458800  -49.192100
  H    -77.515900  -12.863900  -48.947500
  C    -75.830400  -14.162200  -49.311700
  H    -75.148000  -13.382400  -49.711400
  H    -75.529200  -15.041800  -49.762900
  C    -75.370100  -14.384500  -47.841500
  H    -74.278200  -14.603400  -47.791800
  H    -75.934500  -15.192400  -47.345500
  H    -75.470600  -13.534800  -47.189500
  H    -77.456600  -18.974000  -53.036700
  H    -77.954000  -10.731800  -53.036300

 Total Charge           Charge          ....    0
 Multiplicity           Mult            ....    1
 Number of Electrons    NEL             ....  134
 Basis Dimension        Dim             ....  322

ORBITAL ENERGIES
----------------

  NO   OCC          E(Eh)            E(eV)
   0   2.0000     -88.966818     -2420.9102
   1   2.0000     -88.964041     -2420.8346
   2   2.0000     -10.328916      -281.0641
   3   2.0000     -10.328547      -281.0541
   4   2.0000     -10.319522      -280.8085
   5   2.0000     -10.317020      -280.7404
   6   2.0000     -10.307047      -280.4690
   7   2.0000     -10.302352      -280.3413
   8   2.0000     -10.296481      -280.1815
   9   2.0000     -10.294518      -280.1281
  10   2.0000     -10.293789      -280.1083
  11   2.0000     -10.289913      -280.0028
  12   2.0000     -10.280414      -279.7443
  13   2.0000     -10.278754      -279.6991
  14   2.0000     -10.275886      -279.6211
  15   2.0000     -10.275829      -279.6195
  16   2.0000      -8.080291      -219.8759
  17   2.0000      -8.079622      -219.8577
  18   2.0000      -6.038841      -164.3252
  19   2.0000      -6.037953      -164.3010
  20   2.0000      -6.034823      -164.2159
  21   2.0000      -6.033741      -164.1864
  22   2.0000      -6.031227      -164.1180
  23   2.0000      -6.030763      -164.1054
  24   2.0000      -1.007561       -27.4171
  25   2.0000      -0.983794       -26.7704
  26   2.0000      -0.909881       -24.7591
  27   2.0000      -0.908024       -24.7086
  28   2.0000      -0.871558       -23.7163
  29   2.0000      -0.846868       -23.0444
  30   2.0000      -0.843559       -22.9544
  31   2.0000      -0.817730       -22.2516
  32   2.0000      -0.784914       -21.3586
  33   2.0000      -0.773044       -21.0356
  34   2.0000      -0.714353       -19.4385
  35   2.0000      -0.698795       -19.0152
  36   2.0000      -0.696004       -18.9392
  37   2.0000      -0.665397       -18.1064
  38   2.0000      -0.649459       -17.6727
  39   2.0000      -0.621625       -16.9153
  40   2.0000      -0.600294       -16.3348
  41   2.0000      -0.571739       -15.5578
  42   2.0000      -0.560778       -15.2596
  43   2.0000      -0.551473       -15.0064
  44   2.0000      -0.536996       -14.6124
  45   2.0000      -0.526823       -14.3356
  46   2.0000      -0.522548       -14.2193
  47   2.0000      -0.516444       -14.0532
  48   2.0000      -0.509343       -13.8599
  49   2.0000      -0.501473       -13.6458
  50   2.0000      -0.488289       -13.2870
  51   2.0000      -0.475300       -12.9336
  52   2.0000      -0.474959       -12.9243
  53   2.0000      -0.467893       -12.7320
  54   2.0000      -0.458141       -12.4666
  55   2.0000      -0.444112       -12.0849
  56   2.0000      -0.441575       -12.0159
  57   2.0000      -0.439320       -11.9545
  58   2.0000      -0.434933       -11.8351
  59   2.0000      -0.416933       -11.3453
  60   2.0000      -0.416548       -11.3349
  61   2.0000      -0.410790       -11.1782
  62   2.0000      -0.406753       -11.0683
  63   2.0000      -0.338798        -9.2192
  64   2.0000      -0.330393        -8.9904
  65   2.0000      -0.320714        -8.7271
  66   2.0000      -0.309726        -8.4281
  67   0.0000       0.036853         1.0028
  68   0.0000       0.047447         1.2911
  69   0.0000       0.111138         3.0242
  70   0.0000       0.120504         3.2791
  71   0.0000       0.136148         3.7048

MULLIKEN ATOMIC CHARGES
-----------------------
   0 S :    0.114605
   1 C :   -0.110928
   2 C :   -0.089569
   3 C :    0.063249
   4 C :   -0.186615
   5 H :    0.008317
   6 C :    0.064461
   7 H :    0.046275
   8 H :    0.006133
   9 C :   -0.080443
  10 H :    0.041006
  11 H :    0.023884
  12 C :   -0.060472
  13 H :    0.037198
  14 H :    0.041033
  15 H :    0.009987
  16 S :    0.107269
  17 C :   -0.073149
  18 C :   -0.019516
  19 C :   -0.033854
  20 C :   -0.167945
  21 H :    0.001295
  22 C :    0.148468
  23 H :   -0.003123
  24 H :    0.007803
  25 C :   -0.040490
  26 H :    0.022660
  27 H :    0.015815
  28 C :   -0.068137
  29 H :    0.037362
  30 H :    0.030606
  31 H :    0.017595
  32 H :    0.054080
  33 H :    0.035142
Sum of atomic charges:   -0.0000000

LOEWDIN ATOMIC CHARGES
----------------------
   0 S :    0.434937
   1 C :   -0.199159
   2 C :   -0.065228
   3 C :   -0.054466
   4 C :   -0.209890
   5 H :    0.029814
   6 C :   -0.036391
   7 H :    0.040276
   8 H :    0.025371
   9 C :   -0.036936
  10 H :    0.030216
  11 H :    0.016624
  12 C :   -0.074504
  13 H :    0.022916
  14 H :    0.033704
  15 H :    0.019676
  16 S :    0.389068
  17 C :   -0.156000
  18 C :   -0.067238
  19 C :   -0.047398
  20 C :   -0.202063
  21 H :    0.024254
  22 C :   -0.026538
  23 H :    0.018985
  24 H :    0.034413
  25 C :   -0.035930
  26 H :    0.028700
  27 H :    0.016237
  28 C :   -0.068061
  29 H :    0.031693
  30 H :    0.023806
  31 H :    0.015949
  32 H :    0.025957
  33 H :    0.017205

  Mayer bond orders larger than 0.100000
B(  0-S ,  1-C ) :   1.1693 B(  0-S ,  4-C ) :   1.1746 B(  1-C ,  2-C ) :   1.5528
B(  1-C ,  4-C ) :   0.1043 B(  1-C , 32-H ) :   0.9753 B(  2-C ,  3-C ) :   1.2541
B(  2-C ,  6-C ) :   1.0435 B(  3-C ,  4-C ) :   1.5586 B(  3-C ,  5-H ) :   0.9974
B(  4-C , 20-C ) :   1.0356 B(  6-C ,  7-H ) :   0.9367 B(  6-C ,  8-H ) :   0.9425
B(  6-C ,  9-C ) :   1.0663 B(  9-C , 10-H ) :   0.9579 B(  9-C , 11-H ) :   0.9591
B(  9-C , 12-C ) :   1.0584 B( 12-C , 13-H ) :   0.9789 B( 12-C , 14-H ) :   0.9778
B( 12-C , 15-H ) :   0.9730 B( 16-S , 17-C ) :   1.1650 B( 16-S , 20-C ) :   1.1390
B( 17-C , 18-C ) :   1.5825 B( 17-C , 20-C ) :   0.1137 B( 17-C , 33-H ) :   0.9758
B( 18-C , 19-C ) :   1.2766 B( 18-C , 21-H ) :   0.9972 B( 19-C , 20-C ) :   1.5665
B( 19-C , 22-C ) :   1.0385 B( 22-C , 23-H ) :   0.9184 B( 22-C , 24-H ) :   0.9273
B( 22-C , 25-C ) :   1.0743 B( 25-C , 26-H ) :   0.9520 B( 25-C , 27-H ) :   0.9526
B( 25-C , 28-C ) :   1.0838 B( 28-C , 29-H ) :   0.9753 B( 28-C , 30-H ) :   0.9747
B( 28-C , 31-H ) :   0.9764

Dispersion correction           -0.014341862
FINAL SINGLE POINT ENERGY     -1339.869304717793

DIPOLE MOMENT
-------------
                                X             Y             Z
Electronic contribution:      5.16967       9.43360     -11.96636
Nuclear contribution   :     -5.46340      -9.48436      12.20073
                        -----------------------------------------
Total Dipole Moment    :     -0.29374      -0.05076       0.23436
                        -----------------------------------------
Magnitude (a.u.)       :      0.37919
Magnitude (Debye)      :      0.96382

Rotational constants in cm-1:     0.019485     0.008341     0.006828
Rotational constants in MHz :   584.148267   250.049352   204.685901

                             ****ORCA TERMINATED NORMALLY****
TOTAL RUN TIME: 0 days 0 hours 0 minutes 21 seconds 241 msec
