                         Program Version 4.2.1 -  RELEASE  -
|  1> ! wB97X-D3 SP def2-SVP
|  2> %pal
|  3> nprocs 24
|  4> end
|  5>
|  6> * xyz 0 1
|  7> S 	 -57.9275 	 18.3512 	 -104.433
|  8> C 	 -58.7297 	 18.6462 	 -102.939
|  9> C 	 -58.9308 	 17.4466 	 -102.208
| 10> C 	 -58.4209 	 16.3315 	 -102.948
| 11> C 	 -58.0122 	 16.595 	 -104.224
| 12> H 	 -58.3924 	 15.2854 	 -102.617
| 13> C 	 -59.2646 	 17.3993 	 -100.736
| 14> H 	 -59.6959 	 16.3663 	 -100.577
| 15> H 	 -60.1733 	 18.0875 	 -100.489
| 16> C 	 -57.9782 	 17.7062 	 -99.8655
| 17> H 	 -57.3454 	 16.8909 	 -100.004
| 18> H 	 -57.5524 	 18.6371 	 -100.329
| 19> C 	 -58.1771 	 17.768 	 -98.3662
| 20> H 	 -57.2816 	 18.0948 	 -97.8211
| 21> H 	 -59.0331 	 18.4902 	 -98.2292
| 22> H 	 -58.5689 	 16.878 	 -97.979
| 23> S 	 -56.1287 	 16.1813 	 -106.156
| 24> C 	 -56.1216 	 14.7638 	 -107.112
| 25> C 	 -57.2904 	 14.0101 	 -106.869
| 26> C 	 -58.049 	 14.4694 	 -105.747
| 27> C 	 -57.6206 	 15.7186 	 -105.262
| 28> H 	 -57.5216 	 13.0366 	 -107.367
| 29> C 	 -59.2372 	 13.7252 	 -105.181
| 30> H 	 -59.4967 	 13.9552 	 -104.122
| 31> H 	 -58.8424 	 12.7114 	 -105.206
| 32> C 	 -60.5705 	 13.7818 	 -106.028
| 33> H 	 -61.0418 	 14.7928 	 -106.058
| 34> H 	 -61.2605 	 13.1188 	 -105.396
| 35> C 	 -60.3722 	 13.287 	 -107.391
| 36> H 	 -59.9296 	 12.2948 	 -107.489
| 37> H 	 -59.7821 	 14.0593 	 -107.871
| 38> H 	 -61.3643 	 13.2024 	 -107.87
| 39> H 	 -59.0523 	 19.5723 	 -102.496
| 40> H 	 -55.3621 	 14.3715 	 -107.796
| 41> *
| 42>
| 43>                          ****END OF INPUT****

CARTESIAN COORDINATES (ANGSTROEM)
---------------------------------
  S    -57.927500   18.351200  -104.433000
  C    -58.729700   18.646200  -102.939000
  C    -58.930800   17.446600  -102.208000
  C    -58.420900   16.331500  -102.948000
  C    -58.012200   16.595000  -104.224000
  H    -58.392400   15.285400  -102.617000
  C    -59.264600   17.399300  -100.736000
  H    -59.695900   16.366300  -100.577000
  H    -60.173300   18.087500  -100.489000
  C    -57.978200   17.706200  -99.865500
  H    -57.345400   16.890900  -100.004000
  H    -57.552400   18.637100  -100.329000
  C    -58.177100   17.768000  -98.366200
  H    -57.281600   18.094800  -97.821100
  H    -59.033100   18.490200  -98.229200
  H    -58.568900   16.878000  -97.979000
  S    -56.128700   16.181300  -106.156000
  C    -56.121600   14.763800  -107.112000
  C    -57.290400   14.010100  -106.869000
  C    -58.049000   14.469400  -105.747000
  C    -57.620600   15.718600  -105.262000
  H    -57.521600   13.036600  -107.367000
  C    -59.237200   13.725200  -105.181000
  H    -59.496700   13.955200  -104.122000
  H    -58.842400   12.711400  -105.206000
  C    -60.570500   13.781800  -106.028000
  H    -61.041800   14.792800  -106.058000
  H    -61.260500   13.118800  -105.396000
  C    -60.372200   13.287000  -107.391000
  H    -59.929600   12.294800  -107.489000
  H    -59.782100   14.059300  -107.871000
  H    -61.364300   13.202400  -107.870000
  H    -59.052300   19.572300  -102.496000
  H    -55.362100   14.371500  -107.796000

 Total Charge           Charge          ....    0
 Multiplicity           Mult            ....    1
 Number of Electrons    NEL             ....  134
 Basis Dimension        Dim             ....  322

ORBITAL ENERGIES
----------------

  NO   OCC          E(Eh)            E(eV)
   0   2.0000     -88.967773     -2420.9362
   1   2.0000     -88.966518     -2420.9020
   2   2.0000     -10.329428      -281.0780
   3   2.0000     -10.327350      -281.0215
   4   2.0000     -10.323001      -280.9031
   5   2.0000     -10.314043      -280.6594
   6   2.0000     -10.307830      -280.4903
   7   2.0000     -10.305916      -280.4382
   8   2.0000     -10.302642      -280.3491
   9   2.0000     -10.300509      -280.2911
  10   2.0000     -10.295008      -280.1414
  11   2.0000     -10.293636      -280.1041
  12   2.0000     -10.291791      -280.0539
  13   2.0000     -10.286851      -279.9195
  14   2.0000     -10.277713      -279.6708
  15   2.0000     -10.272853      -279.5385
  16   2.0000      -8.082421      -219.9339
  17   2.0000      -8.081164      -219.8996
  18   2.0000      -6.040971      -164.3832
  19   2.0000      -6.039672      -164.3478
  20   2.0000      -6.036945      -164.2736
  21   2.0000      -6.035529      -164.2351
  22   2.0000      -6.033131      -164.1698
  23   2.0000      -6.032070      -164.1410
  24   2.0000      -1.007335       -27.4110
  25   2.0000      -0.982662       -26.7396
  26   2.0000      -0.912565       -24.8322
  27   2.0000      -0.907909       -24.7055
  28   2.0000      -0.872895       -23.7527
  29   2.0000      -0.855297       -23.2738
  30   2.0000      -0.846956       -23.0469
  31   2.0000      -0.813009       -22.1231
  32   2.0000      -0.783203       -21.3120
  33   2.0000      -0.765644       -20.8342
  34   2.0000      -0.708031       -19.2665
  35   2.0000      -0.699142       -19.0246
  36   2.0000      -0.686232       -18.6733
  37   2.0000      -0.662901       -18.0384
  38   2.0000      -0.639505       -17.4018
  39   2.0000      -0.616411       -16.7734
  40   2.0000      -0.591265       -16.0891
  41   2.0000      -0.565225       -15.3806
  42   2.0000      -0.557936       -15.1822
  43   2.0000      -0.551356       -15.0032
  44   2.0000      -0.541867       -14.7449
  45   2.0000      -0.529241       -14.4014
  46   2.0000      -0.522631       -14.2215
  47   2.0000      -0.518805       -14.1174
  48   2.0000      -0.513741       -13.9796
  49   2.0000      -0.496568       -13.5123
  50   2.0000      -0.487199       -13.2574
  51   2.0000      -0.480060       -13.0631
  52   2.0000      -0.475436       -12.9373
  53   2.0000      -0.460799       -12.5390
  54   2.0000      -0.452573       -12.3151
  55   2.0000      -0.451422       -12.2838
  56   2.0000      -0.442554       -12.0425
  57   2.0000      -0.434183       -11.8147
  58   2.0000      -0.430454       -11.7132
  59   2.0000      -0.423514       -11.5244
  60   2.0000      -0.420778       -11.4500
  61   2.0000      -0.414873       -11.2893
  62   2.0000      -0.403585       -10.9821
  63   2.0000      -0.355202        -9.6655
  64   2.0000      -0.330919        -9.0048
  65   2.0000      -0.328352        -8.9349
  66   2.0000      -0.279729        -7.6118
  67   0.0000       0.022699         0.6177
  68   0.0000       0.062704         1.7063
  69   0.0000       0.107241         2.9182
  70   0.0000       0.114789         3.1236
  71   0.0000       0.130626         3.5545

MULLIKEN ATOMIC CHARGES
-----------------------
   0 S :    0.117908
   1 C :   -0.094115
   2 C :   -0.105337
   3 C :    0.008538
   4 C :   -0.135642
   5 H :    0.020774
   6 C :   -0.018992
   7 H :    0.030023
   8 H :    0.042659
   9 C :   -0.050556
  10 H :    0.017326
  11 H :    0.039819
  12 C :   -0.014833
  13 H :    0.050368
  14 H :    0.020384
  15 H :    0.016726
  16 S :    0.101064
  17 C :   -0.082156
  18 C :   -0.066968
  19 C :   -0.055458
  20 C :   -0.144810
  21 H :    0.034360
  22 C :    0.041424
  23 H :    0.032035
  24 H :    0.024838
  25 C :   -0.089195
  26 H :    0.048218
  27 H :    0.032417
  28 C :   -0.050403
  29 H :    0.027683
  30 H :    0.052442
  31 H :    0.036075
  32 H :    0.043354
  33 H :    0.070031
Sum of atomic charges:    0.0000000

LOEWDIN ATOMIC CHARGES
----------------------
   0 S :    0.411897
   1 C :   -0.205294
   2 C :   -0.068884
   3 C :   -0.067382
   4 C :   -0.191536
   5 H :    0.032668
   6 C :   -0.044964
   7 H :    0.030919
   8 H :    0.036189
   9 C :   -0.035357
  10 H :    0.017062
  11 H :    0.031195
  12 C :   -0.064134
  13 H :    0.032706
  14 H :    0.028043
  15 H :    0.017026
  16 S :    0.406012
  17 C :   -0.201322
  18 C :   -0.084417
  19 C :   -0.056733
  20 C :   -0.186063
  21 H :    0.036546
  22 C :   -0.036727
  23 H :    0.032381
  24 H :    0.031743
  25 C :   -0.041112
  26 H :    0.032676
  27 H :    0.026320
  28 C :   -0.072494
  29 H :    0.021974
  30 H :    0.031505
  31 H :    0.031676
  32 H :    0.027814
  33 H :    0.040066

  Mayer bond orders larger than 0.100000
B(  0-S ,  1-C ) :   1.1529 B(  0-S ,  4-C ) :   1.1299 B(  1-C ,  2-C ) :   1.5803
B(  1-C ,  4-C ) :   0.1051 B(  1-C , 32-H ) :   0.9679 B(  2-C ,  3-C ) :   1.2502
B(  2-C ,  6-C ) :   1.0461 B(  3-C ,  4-C ) :   1.5749 B(  3-C ,  5-H ) :   0.9855
B(  4-C , 20-C ) :   1.0873 B(  6-C ,  7-H ) :   0.9401 B(  6-C ,  8-H ) :   0.9414
B(  6-C ,  9-C ) :   1.0386 B(  9-C , 10-H ) :   0.9541 B(  9-C , 11-H ) :   0.9592
B(  9-C , 12-C ) :   1.0820 B( 12-C , 13-H ) :   0.9725 B( 12-C , 14-H ) :   0.9743
B( 12-C , 15-H ) :   0.9713 B( 16-S , 17-C ) :   1.1777 B( 16-S , 20-C ) :   1.1221
B( 17-C , 18-C ) :   1.5681 B( 17-C , 20-C ) :   0.1092 B( 17-C , 33-H ) :   0.9649
B( 18-C , 19-C ) :   1.2726 B( 18-C , 21-H ) :   0.9732 B( 19-C , 20-C ) :   1.5668
B( 19-C , 22-C ) :   1.0297 B( 22-C , 23-H ) :   0.9428 B( 22-C , 24-H ) :   0.9307
B( 22-C , 25-C ) :   1.0642 B( 25-C , 26-H ) :   0.9544 B( 25-C , 27-H ) :   0.9538
B( 25-C , 28-C ) :   1.0944 B( 28-C , 29-H ) :   0.9706 B( 28-C , 30-H ) :   0.9632
B( 28-C , 31-H ) :   0.9653

Dispersion correction           -0.014017636
FINAL SINGLE POINT ENERGY     -1339.867177985432

DIPOLE MOMENT
-------------
                                X             Y             Z
Electronic contribution:     13.93934      10.20699     -15.11473
Nuclear contribution   :    -14.17915     -10.72997      15.43859
                        -----------------------------------------
Total Dipole Moment    :     -0.23981      -0.52298       0.32387
                        -----------------------------------------
Magnitude (a.u.)       :      0.66023
Magnitude (Debye)      :      1.67818

Rotational constants in cm-1:     0.022146     0.007367     0.006376
Rotational constants in MHz :   663.922221   220.870975   191.134698

                             ****ORCA TERMINATED NORMALLY****
TOTAL RUN TIME: 0 days 0 hours 0 minutes 20 seconds 213 msec
