                         Program Version 4.2.1 -  RELEASE  -
|  1> ! wB97X-D3 SP def2-SVP
|  2> %pal
|  3> nprocs 24
|  4> end
|  5>
|  6> * xyz 0 1
|  7> S 	 -109.967 	 15.0829 	 -10.4972
|  8> C 	 -109.359 	 15.5149 	 -8.91938
|  9> C 	 -109.078 	 14.3702 	 -8.17555
| 10> C 	 -109.603 	 13.1678 	 -8.747
| 11> C 	 -110.152 	 13.3662 	 -10.0183
| 12> H 	 -109.595 	 12.1608 	 -8.23032
| 13> C 	 -108.574 	 14.4256 	 -6.82172
| 14> H 	 -108.579 	 13.3926 	 -6.45213
| 15> H 	 -109.307 	 14.9496 	 -6.28656
| 16> C 	 -107.192 	 15.0367 	 -6.5952
| 17> H 	 -107.156 	 16.159 	 -6.7719
| 18> H 	 -106.83 	 14.7864 	 -5.62511
| 19> C 	 -105.99 	 14.5016 	 -7.40887
| 20> H 	 -106.053 	 13.4963 	 -7.31128
| 21> H 	 -105.882 	 14.7122 	 -8.47426
| 22> H 	 -105.081 	 14.8389 	 -6.90071
| 23> S 	 -110.139 	 11.0758 	 -11.6086
| 24> C 	 -111.543 	 10.9124 	 -12.6881
| 25> C 	 -112.465 	 11.9493 	 -12.549
| 26> C 	 -112.136 	 12.8478 	 -11.4951
| 27> C 	 -110.935 	 12.4827 	 -10.8624
| 28> H 	 -113.366 	 11.9315 	 -13.1988
| 29> C 	 -113.096 	 14.0054 	 -11.0791
| 30> H 	 -112.613 	 14.643 	 -10.3218
| 31> H 	 -113.849 	 13.5903 	 -10.4362
| 32> C 	 -113.688 	 14.7586 	 -12.2913
| 33> H 	 -114.358 	 14.0869 	 -12.7723
| 34> H 	 -112.902 	 14.9336 	 -13.0065
| 35> C 	 -114.369 	 16.1025 	 -11.8952
| 36> H 	 -115.188 	 16.1834 	 -12.5814
| 37> H 	 -113.736 	 17.0076 	 -12.0004
| 38> H 	 -114.858 	 16.0086 	 -10.9573
| 39> H 	 -109.154 	 16.5022 	 -8.54219
| 40> H 	 -111.582 	 10.0584 	 -13.3612
| 41> *
| 42>
| 43>                          ****END OF INPUT****

CARTESIAN COORDINATES (ANGSTROEM)
---------------------------------
  S    -109.967000   15.082900  -10.497200
  C    -109.359000   15.514900   -8.919380
  C    -109.078000   14.370200   -8.175550
  C    -109.603000   13.167800   -8.747000
  C    -110.152000   13.366200  -10.018300
  H    -109.595000   12.160800   -8.230320
  C    -108.574000   14.425600   -6.821720
  H    -108.579000   13.392600   -6.452130
  H    -109.307000   14.949600   -6.286560
  C    -107.192000   15.036700   -6.595200
  H    -107.156000   16.159000   -6.771900
  H    -106.830000   14.786400   -5.625110
  C    -105.990000   14.501600   -7.408870
  H    -106.053000   13.496300   -7.311280
  H    -105.882000   14.712200   -8.474260
  H    -105.081000   14.838900   -6.900710
  S    -110.139000   11.075800  -11.608600
  C    -111.543000   10.912400  -12.688100
  C    -112.465000   11.949300  -12.549000
  C    -112.136000   12.847800  -11.495100
  C    -110.935000   12.482700  -10.862400
  H    -113.366000   11.931500  -13.198800
  C    -113.096000   14.005400  -11.079100
  H    -112.613000   14.643000  -10.321800
  H    -113.849000   13.590300  -10.436200
  C    -113.688000   14.758600  -12.291300
  H    -114.358000   14.086900  -12.772300
  H    -112.902000   14.933600  -13.006500
  C    -114.369000   16.102500  -11.895200
  H    -115.188000   16.183400  -12.581400
  H    -113.736000   17.007600  -12.000400
  H    -114.858000   16.008600  -10.957300
  H    -109.154000   16.502200   -8.542190
  H    -111.582000   10.058400  -13.361200

 Total Charge           Charge          ....    0
 Multiplicity           Mult            ....    1
 Number of Electrons    NEL             ....  134
 Basis Dimension        Dim             ....  322

ORBITAL ENERGIES
----------------

  NO   OCC          E(Eh)            E(eV)
   0   2.0000     -88.967037     -2420.9161
   1   2.0000     -88.964001     -2420.8335
   2   2.0000     -10.328757      -281.0598
   3   2.0000     -10.325933      -280.9829
   4   2.0000     -10.323661      -280.9211
   5   2.0000     -10.309810      -280.5442
   6   2.0000     -10.308622      -280.5119
   7   2.0000     -10.300383      -280.2877
   8   2.0000     -10.298821      -280.2452
   9   2.0000     -10.293040      -280.0879
  10   2.0000     -10.288971      -279.9771
  11   2.0000     -10.287553      -279.9385
  12   2.0000     -10.283470      -279.8275
  13   2.0000     -10.280964      -279.7593
  14   2.0000     -10.275384      -279.6074
  15   2.0000     -10.264938      -279.3232
  16   2.0000      -8.080978      -219.8946
  17   2.0000      -8.077535      -219.8009
  18   2.0000      -6.039359      -164.3393
  19   2.0000      -6.036065      -164.2497
  20   2.0000      -6.035730      -164.2406
  21   2.0000      -6.032175      -164.1438
  22   2.0000      -6.031777      -164.1330
  23   2.0000      -6.028368      -164.0402
  24   2.0000      -0.998340       -27.1662
  25   2.0000      -0.976844       -26.5813
  26   2.0000      -0.914422       -24.8827
  27   2.0000      -0.902026       -24.5454
  28   2.0000      -0.864356       -23.5203
  29   2.0000      -0.849891       -23.1267
  30   2.0000      -0.845024       -22.9943
  31   2.0000      -0.812014       -22.0960
  32   2.0000      -0.783791       -21.3280
  33   2.0000      -0.767774       -20.8922
  34   2.0000      -0.707432       -19.2502
  35   2.0000      -0.700858       -19.0713
  36   2.0000      -0.696889       -18.9633
  37   2.0000      -0.653660       -17.7870
  38   2.0000      -0.630490       -17.1565
  39   2.0000      -0.609059       -16.5733
  40   2.0000      -0.593722       -16.1560
  41   2.0000      -0.573114       -15.5952
  42   2.0000      -0.561281       -15.2732
  43   2.0000      -0.555629       -15.1194
  44   2.0000      -0.543078       -14.7779
  45   2.0000      -0.524515       -14.2728
  46   2.0000      -0.514790       -14.0082
  47   2.0000      -0.510290       -13.8857
  48   2.0000      -0.498988       -13.5782
  49   2.0000      -0.491794       -13.3824
  50   2.0000      -0.484629       -13.1874
  51   2.0000      -0.479888       -13.0584
  52   2.0000      -0.473159       -12.8753
  53   2.0000      -0.461843       -12.5674
  54   2.0000      -0.455794       -12.4028
  55   2.0000      -0.449395       -12.2287
  56   2.0000      -0.441665       -12.0183
  57   2.0000      -0.438975       -11.9451
  58   2.0000      -0.435334       -11.8460
  59   2.0000      -0.422115       -11.4863
  60   2.0000      -0.416737       -11.3400
  61   2.0000      -0.412299       -11.2192
  62   2.0000      -0.409578       -11.1452
  63   2.0000      -0.341221        -9.2851
  64   2.0000      -0.332628        -9.0513
  65   2.0000      -0.320730        -8.7275
  66   2.0000      -0.289013        -7.8645
  67   0.0000       0.023536         0.6404
  68   0.0000       0.067282         1.8308
  69   0.0000       0.104073         2.8320
  70   0.0000       0.113208         3.0806
  71   0.0000       0.129788         3.5317

MULLIKEN ATOMIC CHARGES
-----------------------
   0 S :    0.111439
   1 C :   -0.124889
   2 C :   -0.097871
   3 C :    0.013046
   4 C :   -0.166098
   5 H :    0.040093
   6 C :    0.098594
   7 H :    0.010028
   8 H :    0.031222
   9 C :   -0.093158
  10 H :    0.036901
  11 H :    0.023468
  12 C :   -0.030439
  13 H :   -0.002127
  14 H :    0.041188
  15 H :    0.028205
  16 S :    0.102413
  17 C :   -0.109227
  18 C :   -0.041843
  19 C :   -0.049360
  20 C :   -0.144487
  21 H :    0.039293
  22 C :    0.078706
  23 H :    0.024552
  24 H :    0.029330
  25 C :   -0.094202
  26 H :    0.024633
  27 H :    0.032085
  28 C :   -0.007855
  29 H :    0.014866
  30 H :    0.053404
  31 H :    0.021405
  32 H :    0.043834
  33 H :    0.062850
Sum of atomic charges:   -0.0000000

LOEWDIN ATOMIC CHARGES
----------------------
   0 S :    0.408334
   1 C :   -0.200339
   2 C :   -0.068554
   3 C :   -0.068404
   4 C :   -0.181577
   5 H :    0.043753
   6 C :   -0.037374
   7 H :    0.031578
   8 H :    0.033859
   9 C :   -0.038093
  10 H :    0.026582
  11 H :    0.023797
  12 C :   -0.059410
  13 H :    0.007542
  14 H :    0.025625
  15 H :    0.029038
  16 S :    0.385171
  17 C :   -0.168914
  18 C :   -0.075610
  19 C :   -0.047130
  20 C :   -0.205404
  21 H :    0.039899
  22 C :   -0.036708
  23 H :    0.021714
  24 H :    0.030252
  25 C :   -0.035170
  26 H :    0.017152
  27 H :    0.024962
  28 C :   -0.059857
  29 H :    0.024748
  30 H :    0.034566
  31 H :    0.021162
  32 H :    0.026095
  33 H :    0.026716

  Mayer bond orders larger than 0.100000
B(  0-S ,  1-C ) :   1.1400 B(  0-S ,  4-C ) :   1.1441 B(  1-C ,  2-C ) :   1.5809
B(  1-C , 32-H ) :   0.9740 B(  2-C ,  3-C ) :   1.2546 B(  2-C ,  6-C ) :   1.0355
B(  3-C ,  4-C ) :   1.5615 B(  3-C ,  5-H ) :   0.9791 B(  4-C , 20-C ) :   1.0462
B(  6-C ,  7-H ) :   0.9323 B(  6-C ,  8-H ) :   0.9327 B(  6-C ,  9-C ) :   1.0818
B(  9-C , 10-H ) :   0.9575 B(  9-C , 11-H ) :   0.9586 B(  9-C , 12-C ) :   1.0712
B( 12-C , 13-H ) :   0.9753 B( 12-C , 14-H ) :   0.9735 B( 12-C , 15-H ) :   0.9766
B( 16-S , 17-C ) :   1.1590 B( 16-S , 20-C ) :   1.1350 B( 17-C , 18-C ) :   1.6014
B( 17-C , 20-C ) :   0.1004 B( 17-C , 33-H ) :   0.9675 B( 18-C , 19-C ) :   1.2360
B( 18-C , 21-H ) :   0.9850 B( 19-C , 20-C ) :   1.5766 B( 19-C , 22-C ) :   1.0275
B( 22-C , 23-H ) :   0.9324 B( 22-C , 24-H ) :   0.9304 B( 22-C , 25-C ) :   1.0475
B( 25-C , 26-H ) :   0.9548 B( 25-C , 27-H ) :   0.9652 B( 25-C , 28-C ) :   1.0781
B( 28-C , 29-H ) :   0.9733 B( 28-C , 30-H ) :   0.9773 B( 28-C , 31-H ) :   0.9738

Dispersion correction           -0.014280938
FINAL SINGLE POINT ENERGY     -1339.861935569362

DIPOLE MOMENT
-------------
                                X             Y             Z
Electronic contribution:      1.60978     -12.47628      -9.89559
Nuclear contribution   :     -1.94749      12.56275      10.12432
                        -----------------------------------------
Total Dipole Moment    :     -0.33771       0.08647       0.22873
                        -----------------------------------------
Magnitude (a.u.)       :      0.41695
Magnitude (Debye)      :      1.05979

Rotational constants in cm-1:     0.021112     0.008105     0.006294
Rotational constants in MHz :   632.930047   242.972585   188.699579

                             ****ORCA TERMINATED NORMALLY****
TOTAL RUN TIME: 0 days 0 hours 0 minutes 21 seconds 215 msec
