                         Program Version 4.2.1 -  RELEASE  -
|  1> ! wB97X-D3 SP def2-SVP
|  2> %pal
|  3> nprocs 24
|  4> end
|  5>
|  6> * xyz 0 1
|  7> S 	 -96.3301 	 46.2224 	 -91.4673
|  8> C 	 -95.5785 	 44.6856 	 -90.9391
|  9> C 	 -96.0606 	 43.625 	 -91.7163
| 10> C 	 -96.8031 	 44.0977 	 -92.8699
| 11> C 	 -97.097 	 45.4513 	 -92.8408
| 12> H 	 -97.1487 	 43.4735 	 -93.6756
| 13> C 	 -95.8701 	 42.1782 	 -91.4249
| 14> H 	 -96.8112 	 41.6274 	 -91.6668
| 15> H 	 -95.5768 	 41.9541 	 -90.385
| 16> C 	 -94.7053 	 41.5439 	 -92.2371
| 17> H 	 -93.7104 	 41.9395 	 -91.958
| 18> H 	 -94.6502 	 40.4397 	 -92.0397
| 19> C 	 -94.95 	 41.5954 	 -93.7542
| 20> H 	 -94.8231 	 42.6175 	 -94.0944
| 21> H 	 -94.1998 	 41.0614 	 -94.38
| 22> H 	 -95.9412 	 41.3204 	 -94.0932
| 23> S 	 -96.9902 	 47.8276 	 -94.1218
| 24> C 	 -98.097 	 48.2092 	 -95.3522
| 25> C 	 -98.9918 	 47.1799 	 -95.5568
| 26> C 	 -98.8211 	 46.0703 	 -94.6935
| 27> C 	 -97.7735 	 46.2337 	 -93.8022
| 28> H 	 -99.6773 	 47.3087 	 -96.4456
| 29> C 	 -99.613 	 44.7856 	 -94.7587
| 30> H 	 -99.2024 	 44.0543 	 -94.0596
| 31> H 	 -99.3894 	 44.4371 	 -95.8424
| 32> C 	 -101.041 	 45.0689 	 -94.2518
| 33> H 	 -101.52 	 45.8897 	 -94.8079
| 34> H 	 -100.952 	 45.4518 	 -93.2136
| 35> C 	 -101.929 	 43.8625 	 -94.2914
| 36> H 	 -101.721 	 43.2325 	 -93.3864
| 37> H 	 -101.978 	 43.2719 	 -95.2142
| 38> H 	 -103.048 	 44.0755 	 -94.1885
| 39> H 	 -95.0178 	 44.5102 	 -90.0381
| 40> H 	 -98.084 	 49.1386 	 -95.9793
| 41> *
| 42>
| 43>                          ****END OF INPUT****

CARTESIAN COORDINATES (ANGSTROEM)
---------------------------------
  S    -96.330100   46.222400  -91.467300
  C    -95.578500   44.685600  -90.939100
  C    -96.060600   43.625000  -91.716300
  C    -96.803100   44.097700  -92.869900
  C    -97.097000   45.451300  -92.840800
  H    -97.148700   43.473500  -93.675600
  C    -95.870100   42.178200  -91.424900
  H    -96.811200   41.627400  -91.666800
  H    -95.576800   41.954100  -90.385000
  C    -94.705300   41.543900  -92.237100
  H    -93.710400   41.939500  -91.958000
  H    -94.650200   40.439700  -92.039700
  C    -94.950000   41.595400  -93.754200
  H    -94.823100   42.617500  -94.094400
  H    -94.199800   41.061400  -94.380000
  H    -95.941200   41.320400  -94.093200
  S    -96.990200   47.827600  -94.121800
  C    -98.097000   48.209200  -95.352200
  C    -98.991800   47.179900  -95.556800
  C    -98.821100   46.070300  -94.693500
  C    -97.773500   46.233700  -93.802200
  H    -99.677300   47.308700  -96.445600
  C    -99.613000   44.785600  -94.758700
  H    -99.202400   44.054300  -94.059600
  H    -99.389400   44.437100  -95.842400
  C    -101.041000   45.068900  -94.251800
  H    -101.520000   45.889700  -94.807900
  H    -100.952000   45.451800  -93.213600
  C    -101.929000   43.862500  -94.291400
  H    -101.721000   43.232500  -93.386400
  H    -101.978000   43.271900  -95.214200
  H    -103.048000   44.075500  -94.188500
  H    -95.017800   44.510200  -90.038100
  H    -98.084000   49.138600  -95.979300

 Total Charge           Charge          ....    0
 Multiplicity           Mult            ....    1
 Number of Electrons    NEL             ....  134
 Basis Dimension        Dim             ....  322

ORBITAL ENERGIES
----------------

  NO   OCC          E(Eh)            E(eV)
   0   2.0000     -88.966761     -2420.9086
   1   2.0000     -88.961184     -2420.7569
   2   2.0000     -10.330287      -281.1014
   3   2.0000     -10.325492      -280.9709
   4   2.0000     -10.318083      -280.7693
   5   2.0000     -10.317134      -280.7435
   6   2.0000     -10.305530      -280.4277
   7   2.0000     -10.305424      -280.4248
   8   2.0000     -10.300068      -280.2791
   9   2.0000     -10.298671      -280.2411
  10   2.0000     -10.296474      -280.1813
  11   2.0000     -10.295076      -280.1433
  12   2.0000     -10.293523      -280.1010
  13   2.0000     -10.290043      -280.0063
  14   2.0000     -10.283341      -279.8239
  15   2.0000     -10.275485      -279.6102
  16   2.0000      -8.080736      -219.8880
  17   2.0000      -8.076463      -219.7717
  18   2.0000      -6.039415      -164.3408
  19   2.0000      -6.035381      -164.2311
  20   2.0000      -6.034900      -164.2180
  21   2.0000      -6.031296      -164.1199
  22   2.0000      -6.030804      -164.1065
  23   2.0000      -6.027316      -164.0116
  24   2.0000      -1.008710       -27.4484
  25   2.0000      -0.981380       -26.7047
  26   2.0000      -0.913604       -24.8604
  27   2.0000      -0.912493       -24.8302
  28   2.0000      -0.871001       -23.7012
  29   2.0000      -0.853801       -23.2331
  30   2.0000      -0.838236       -22.8096
  31   2.0000      -0.813551       -22.1378
  32   2.0000      -0.783397       -21.3173
  33   2.0000      -0.770355       -20.9624
  34   2.0000      -0.707038       -19.2395
  35   2.0000      -0.701721       -19.0948
  36   2.0000      -0.694494       -18.8981
  37   2.0000      -0.657004       -17.8780
  38   2.0000      -0.637195       -17.3390
  39   2.0000      -0.618715       -16.8361
  40   2.0000      -0.594833       -16.1862
  41   2.0000      -0.569392       -15.4940
  42   2.0000      -0.561573       -15.2812
  43   2.0000      -0.547966       -14.9109
  44   2.0000      -0.535981       -14.5848
  45   2.0000      -0.523681       -14.2501
  46   2.0000      -0.518544       -14.1103
  47   2.0000      -0.516125       -14.0445
  48   2.0000      -0.506833       -13.7916
  49   2.0000      -0.506540       -13.7836
  50   2.0000      -0.490743       -13.3538
  51   2.0000      -0.477853       -13.0030
  52   2.0000      -0.471075       -12.8186
  53   2.0000      -0.462570       -12.5872
  54   2.0000      -0.461292       -12.5524
  55   2.0000      -0.446610       -12.1529
  56   2.0000      -0.442474       -12.0403
  57   2.0000      -0.433756       -11.8031
  58   2.0000      -0.431790       -11.7496
  59   2.0000      -0.426941       -11.6176
  60   2.0000      -0.417150       -11.3512
  61   2.0000      -0.410769       -11.1776
  62   2.0000      -0.404362       -11.0032
  63   2.0000      -0.354319        -9.6415
  64   2.0000      -0.331209        -9.0127
  65   2.0000      -0.326611        -8.8875
  66   2.0000      -0.284516        -7.7421
  67   0.0000       0.022971         0.6251
  68   0.0000       0.075202         2.0464
  69   0.0000       0.097330         2.6485
  70   0.0000       0.112229         3.0539
  71   0.0000       0.141745         3.8571

MULLIKEN ATOMIC CHARGES
-----------------------
   0 S :    0.103309
   1 C :   -0.108734
   2 C :   -0.087995
   3 C :    0.009936
   4 C :   -0.123378
   5 H :    0.012469
   6 C :    0.050036
   7 H :    0.042698
   8 H :    0.030232
   9 C :   -0.083932
  10 H :    0.036457
  11 H :    0.034755
  12 C :   -0.075373
  13 H :    0.035696
  14 H :    0.036621
  15 H :    0.025426
  16 S :    0.091666
  17 C :   -0.102654
  18 C :   -0.071117
  19 C :   -0.040693
  20 C :   -0.137590
  21 H :    0.037666
  22 C :    0.046748
  23 H :    0.019433
  24 H :    0.057952
  25 C :   -0.081141
  26 H :    0.033075
  27 H :    0.044315
  28 C :   -0.065180
  29 H :    0.039693
  30 H :    0.035662
  31 H :    0.032391
  32 H :    0.045008
  33 H :    0.076539
Sum of atomic charges:   -0.0000000

LOEWDIN ATOMIC CHARGES
----------------------
   0 S :    0.388987
   1 C :   -0.188686
   2 C :   -0.056844
   3 C :   -0.066506
   4 C :   -0.189947
   5 H :    0.026441
   6 C :   -0.035915
   7 H :    0.038305
   8 H :    0.034543
   9 C :   -0.040162
  10 H :    0.026902
  11 H :    0.026247
  12 C :   -0.076818
  13 H :    0.024196
  14 H :    0.030070
  15 H :    0.018932
  16 S :    0.401110
  17 C :   -0.204146
  18 C :   -0.090061
  19 C :   -0.054941
  20 C :   -0.184984
  21 H :    0.041700
  22 C :   -0.034381
  23 H :    0.027873
  24 H :    0.046050
  25 C :   -0.045308
  26 H :    0.024016
  27 H :    0.037322
  28 C :   -0.083720
  29 H :    0.030553
  30 H :    0.025836
  31 H :    0.032804
  32 H :    0.027081
  33 H :    0.043452

  Mayer bond orders larger than 0.100000
B(  0-S ,  1-C ) :   1.1138 B(  0-S ,  4-C ) :   1.1369 B(  1-C ,  2-C ) :   1.6260
B(  1-C , 32-H ) :   0.9674 B(  2-C ,  3-C ) :   1.2153 B(  2-C ,  6-C ) :   1.0332
B(  3-C ,  4-C ) :   1.5730 B(  3-C ,  5-H ) :   0.9838 B(  4-C , 20-C ) :   1.0872
B(  6-C ,  7-H ) :   0.9429 B(  6-C ,  8-H ) :   0.9409 B(  6-C ,  9-C ) :   1.0688
B(  9-C , 10-H ) :   0.9556 B(  9-C , 11-H ) :   0.9594 B(  9-C , 12-C ) :   1.0777
B( 12-C , 13-H ) :   0.9685 B( 12-C , 14-H ) :   0.9713 B( 12-C , 15-H ) :   0.9726
B( 16-S , 17-C ) :   1.1726 B( 16-S , 20-C ) :   1.1184 B( 17-C , 18-C ) :   1.6034
B( 17-C , 20-C ) :   0.1015 B( 17-C , 33-H ) :   0.9591 B( 18-C , 19-C ) :   1.2348
B( 18-C , 21-H ) :   0.9842 B( 19-C , 20-C ) :   1.5876 B( 19-C , 22-C ) :   1.0379
B( 22-C , 23-H ) :   0.9322 B( 22-C , 24-H ) :   0.9351 B( 22-C , 25-C ) :   1.0502
B( 25-C , 26-H ) :   0.9625 B( 25-C , 27-H ) :   0.9503 B( 25-C , 28-C ) :   1.0867
B( 28-C , 29-H ) :   0.9725 B( 28-C , 30-H ) :   0.9734 B( 28-C , 31-H ) :   0.9717

Dispersion correction           -0.014192597
FINAL SINGLE POINT ENERGY     -1339.879354364873

DIPOLE MOMENT
-------------
                                X             Y             Z
Electronic contribution:      8.89546      24.98845       5.36085
Nuclear contribution   :     -9.14241     -25.53531      -5.64180
                        -----------------------------------------
Total Dipole Moment    :     -0.24694      -0.54686      -0.28095
                        -----------------------------------------
Magnitude (a.u.)       :      0.66255
Magnitude (Debye)      :      1.68407

Rotational constants in cm-1:     0.017042     0.009233     0.007163
Rotational constants in MHz :   510.914300   276.800608   214.731011

                             ****ORCA TERMINATED NORMALLY****
TOTAL RUN TIME: 0 days 0 hours 0 minutes 20 seconds 649 msec
