                         Program Version 4.2.1 -  RELEASE  -
|  1> ! wB97X-D3 SP def2-SVP
|  2> %pal
|  3> nprocs 24
|  4> end
|  5>
|  6> * xyz 0 1
|  7> S 	 -67.4369 	 8.89422 	 -72.6347
|  8> C 	 -69.0726 	 9.33763 	 -73.2078
|  9> C 	 -70.009 	 8.39742 	 -73.01
| 10> C 	 -69.4547 	 7.22474 	 -72.4806
| 11> C 	 -68.0754 	 7.2617 	 -72.1898
| 12> H 	 -70.0277 	 6.33315 	 -72.2957
| 13> C 	 -71.5181 	 8.52748 	 -73.2511
| 14> H 	 -71.6164 	 9.56751 	 -73.3908
| 15> H 	 -71.9627 	 8.24441 	 -72.2946
| 16> C 	 -72.1963 	 7.50114 	 -74.2657
| 17> H 	 -72.0617 	 6.52821 	 -73.804
| 18> H 	 -73.2809 	 7.4605 	 -74.3503
| 19> C 	 -71.5817 	 7.44816 	 -75.6822
| 20> H 	 -70.5079 	 7.42764 	 -75.7305
| 21> H 	 -71.8268 	 6.53244 	 -76.3152
| 22> H 	 -71.8773 	 8.30367 	 -76.236
| 23> S 	 -66.1895 	 6.65203 	 -70.2116
| 24> C 	 -65.8078 	 4.97598 	 -69.8889
| 25> C 	 -66.4056 	 4.14636 	 -70.8227
| 26> C 	 -67.3048 	 4.86457 	 -71.684
| 27> C 	 -67.2903 	 6.21658 	 -71.528
| 28> H 	 -66.2633 	 3.08499 	 -70.9062
| 29> C 	 -68.0749 	 4.0901 	 -72.7823
| 30> H 	 -69.1436 	 4.08647 	 -72.568
| 31> H 	 -67.9074 	 3.02132 	 -72.6941
| 32> C 	 -67.9195 	 4.53825 	 -74.2395
| 33> H 	 -66.8372 	 4.40848 	 -74.5279
| 34> H 	 -68.0941 	 5.54256 	 -74.3213
| 35> C 	 -68.6821 	 3.78497 	 -75.3138
| 36> H 	 -69.6422 	 3.97877 	 -75.4476
| 37> H 	 -68.7611 	 2.70455 	 -75.1677
| 38> H 	 -68.281 	 3.93761 	 -76.3363
| 39> H 	 -69.359 	 10.3236 	 -73.4717
| 40> H 	 -65.018 	 4.55417 	 -69.2466
| 41> *
| 42>
| 43>                          ****END OF INPUT****

CARTESIAN COORDINATES (ANGSTROEM)
---------------------------------
  S    -67.436900    8.894220  -72.634700
  C    -69.072600    9.337630  -73.207800
  C    -70.009000    8.397420  -73.010000
  C    -69.454700    7.224740  -72.480600
  C    -68.075400    7.261700  -72.189800
  H    -70.027700    6.333150  -72.295700
  C    -71.518100    8.527480  -73.251100
  H    -71.616400    9.567510  -73.390800
  H    -71.962700    8.244410  -72.294600
  C    -72.196300    7.501140  -74.265700
  H    -72.061700    6.528210  -73.804000
  H    -73.280900    7.460500  -74.350300
  C    -71.581700    7.448160  -75.682200
  H    -70.507900    7.427640  -75.730500
  H    -71.826800    6.532440  -76.315200
  H    -71.877300    8.303670  -76.236000
  S    -66.189500    6.652030  -70.211600
  C    -65.807800    4.975980  -69.888900
  C    -66.405600    4.146360  -70.822700
  C    -67.304800    4.864570  -71.684000
  C    -67.290300    6.216580  -71.528000
  H    -66.263300    3.084990  -70.906200
  C    -68.074900    4.090100  -72.782300
  H    -69.143600    4.086470  -72.568000
  H    -67.907400    3.021320  -72.694100
  C    -67.919500    4.538250  -74.239500
  H    -66.837200    4.408480  -74.527900
  H    -68.094100    5.542560  -74.321300
  C    -68.682100    3.784970  -75.313800
  H    -69.642200    3.978770  -75.447600
  H    -68.761100    2.704550  -75.167700
  H    -68.281000    3.937610  -76.336300
  H    -69.359000   10.323600  -73.471700
  H    -65.018000    4.554170  -69.246600

 Total Charge           Charge          ....    0
 Multiplicity           Mult            ....    1
 Number of Electrons    NEL             ....  134
 Basis Dimension        Dim             ....  322

ORBITAL ENERGIES
----------------

  NO   OCC          E(Eh)            E(eV)
   0   2.0000     -88.971112     -2421.0270
   1   2.0000     -88.967944     -2420.9408
   2   2.0000     -10.340103      -281.3685
   3   2.0000     -10.329247      -281.0731
   4   2.0000     -10.322029      -280.8767
   5   2.0000     -10.312771      -280.6248
   6   2.0000     -10.304236      -280.3925
   7   2.0000     -10.301018      -280.3050
   8   2.0000     -10.298160      -280.2272
   9   2.0000     -10.297800      -280.2174
  10   2.0000     -10.295524      -280.1555
  11   2.0000     -10.294477      -280.1270
  12   2.0000     -10.292899      -280.0840
  13   2.0000     -10.278205      -279.6842
  14   2.0000     -10.277460      -279.6639
  15   2.0000     -10.266533      -279.3666
  16   2.0000      -8.084128      -219.9803
  17   2.0000      -8.082359      -219.9322
  18   2.0000      -6.042785      -164.4325
  19   2.0000      -6.040993      -164.3838
  20   2.0000      -6.039042      -164.3307
  21   2.0000      -6.036932      -164.2733
  22   2.0000      -6.034670      -164.2117
  23   2.0000      -6.032960      -164.1652
  24   2.0000      -1.004261       -27.3273
  25   2.0000      -0.984044       -26.7772
  26   2.0000      -0.906301       -24.6617
  27   2.0000      -0.905389       -24.6369
  28   2.0000      -0.869248       -23.6534
  29   2.0000      -0.852939       -23.2096
  30   2.0000      -0.844949       -22.9922
  31   2.0000      -0.815576       -22.1929
  32   2.0000      -0.787940       -21.4409
  33   2.0000      -0.779953       -21.2236
  34   2.0000      -0.718631       -19.5549
  35   2.0000      -0.709611       -19.3095
  36   2.0000      -0.697527       -18.9807
  37   2.0000      -0.665967       -18.1219
  38   2.0000      -0.637934       -17.3591
  39   2.0000      -0.622072       -16.9275
  40   2.0000      -0.595463       -16.2034
  41   2.0000      -0.561489       -15.2789
  42   2.0000      -0.560423       -15.2499
  43   2.0000      -0.549304       -14.9473
  44   2.0000      -0.542815       -14.7708
  45   2.0000      -0.523015       -14.2320
  46   2.0000      -0.521051       -14.1785
  47   2.0000      -0.506767       -13.7898
  48   2.0000      -0.505244       -13.7484
  49   2.0000      -0.495184       -13.4746
  50   2.0000      -0.493663       -13.4332
  51   2.0000      -0.485439       -13.2095
  52   2.0000      -0.470243       -12.7960
  53   2.0000      -0.467070       -12.7096
  54   2.0000      -0.459262       -12.4971
  55   2.0000      -0.451792       -12.2939
  56   2.0000      -0.443815       -12.0768
  57   2.0000      -0.435855       -11.8602
  58   2.0000      -0.433709       -11.8018
  59   2.0000      -0.430083       -11.7031
  60   2.0000      -0.421587       -11.4720
  61   2.0000      -0.418687       -11.3930
  62   2.0000      -0.409089       -11.1319
  63   2.0000      -0.352384        -9.5888
  64   2.0000      -0.336250        -9.1498
  65   2.0000      -0.332629        -9.0513
  66   2.0000      -0.291894        -7.9428
  67   0.0000       0.021489         0.5848
  68   0.0000       0.070473         1.9177
  69   0.0000       0.105068         2.8591
  70   0.0000       0.120571         3.2809
  71   0.0000       0.126540         3.4433

MULLIKEN ATOMIC CHARGES
-----------------------
   0 S :    0.099988
   1 C :   -0.113140
   2 C :   -0.090631
   3 C :    0.019480
   4 C :   -0.150816
   5 H :    0.001592
   6 C :    0.124261
   7 H :    0.008126
   8 H :    0.036936
   9 C :   -0.060060
  10 H :    0.014209
  11 H :    0.035260
  12 C :   -0.067124
  13 H :    0.034110
  14 H :    0.037572
  15 H :    0.026246
  16 S :    0.106841
  17 C :   -0.084567
  18 C :   -0.036883
  19 C :   -0.035035
  20 C :   -0.141129
  21 H :    0.017086
  22 C :    0.058931
  23 H :    0.019603
  24 H :    0.002099
  25 C :   -0.031302
  26 H :    0.031268
  27 H :    0.023032
  28 C :   -0.012250
  29 H :   -0.014863
  30 H :    0.012960
  31 H :    0.031357
  32 H :    0.027073
  33 H :    0.069769
Sum of atomic charges:   -0.0000000

LOEWDIN ATOMIC CHARGES
----------------------
   0 S :    0.365587
   1 C :   -0.175259
   2 C :   -0.067743
   3 C :   -0.053963
   4 C :   -0.169817
   5 H :    0.026343
   6 C :   -0.015095
   7 H :    0.020818
   8 H :    0.039109
   9 C :   -0.041849
  10 H :    0.021924
  11 H :    0.029945
  12 C :   -0.074415
  13 H :    0.023297
  14 H :    0.034526
  15 H :    0.019230
  16 S :    0.399858
  17 C :   -0.189416
  18 C :   -0.067189
  19 C :   -0.054712
  20 C :   -0.193612
  21 H :    0.030029
  22 C :   -0.032867
  23 H :    0.026983
  24 H :    0.026066
  25 C :   -0.034122
  26 H :    0.032770
  27 H :    0.012530
  28 C :   -0.062882
  29 H :    0.001767
  30 H :    0.026357
  31 H :    0.035824
  32 H :    0.019959
  33 H :    0.040019

  Mayer bond orders larger than 0.100000
B(  0-S ,  1-C ) :   1.1185 B(  0-S ,  4-C ) :   1.1261 B(  1-C ,  2-C ) :   1.6519
B(  1-C , 32-H ) :   0.9562 B(  2-C ,  3-C ) :   1.2378 B(  2-C ,  6-C ) :   1.0051
B(  3-C ,  4-C ) :   1.5707 B(  3-C ,  5-H ) :   0.9926 B(  4-C , 20-C ) :   1.0683
B(  6-C ,  7-H ) :   0.9448 B(  6-C ,  8-H ) :   0.9402 B(  6-C ,  9-C ) :   1.0452
B(  9-C , 10-H ) :   0.9538 B(  9-C , 11-H ) :   0.9594 B(  9-C , 12-C ) :   1.0712
B( 12-C , 13-H ) :   0.9753 B( 12-C , 14-H ) :   0.9742 B( 12-C , 15-H ) :   0.9776
B( 16-S , 17-C ) :   1.1523 B( 16-S , 20-C ) :   1.1182 B( 17-C , 18-C ) :   1.6092
B( 17-C , 33-H ) :   0.9601 B( 18-C , 19-C ) :   1.2554 B( 18-C , 21-H ) :   0.9881
B( 19-C , 20-C ) :   1.6161 B( 19-C , 22-C ) :   1.0340 B( 22-C , 23-H ) :   0.9292
B( 22-C , 24-H ) :   0.9317 B( 22-C , 25-C ) :   1.0618 B( 25-C , 26-H ) :   0.9564
B( 25-C , 27-H ) :   0.9524 B( 25-C , 28-C ) :   1.0824 B( 28-C , 29-H ) :   0.9685
B( 28-C , 30-H ) :   0.9705 B( 28-C , 31-H ) :   0.9723

Dispersion correction           -0.015362343
FINAL SINGLE POINT ENERGY     -1339.858880570632

DIPOLE MOMENT
-------------
                                X             Y             Z
Electronic contribution:     20.22119      12.49640      21.13206
Nuclear contribution   :    -20.76639     -12.93248     -21.36846
                        -----------------------------------------
Total Dipole Moment    :     -0.54520      -0.43608      -0.23640
                        -----------------------------------------
Magnitude (a.u.)       :      0.73708
Magnitude (Debye)      :      1.87351

Rotational constants in cm-1:     0.018654     0.009803     0.007285
Rotational constants in MHz :   559.243590   293.898194   218.395729

                             ****ORCA TERMINATED NORMALLY****
TOTAL RUN TIME: 0 days 0 hours 0 minutes 22 seconds 472 msec
