                         Program Version 4.2.1 -  RELEASE  -
|  1> ! wB97X-D3 SP def2-SVP
|  2> %pal
|  3> nprocs 24
|  4> end
|  5>
|  6> * xyz 0 1
|  7> S 	 -64.1543 	 19.4254 	 -71.7924
|  8> C 	 -63.8784 	 18.0898 	 -70.8047
|  9> C 	 -64.9934 	 17.4667 	 -70.361
| 10> C 	 -66.131 	 18.3509 	 -70.6033
| 11> C 	 -65.8665 	 19.4841 	 -71.293
| 12> H 	 -67.1789 	 18.174 	 -70.3518
| 13> C 	 -65.1671 	 16.0408 	 -69.7081
| 14> H 	 -65.0417 	 15.2278 	 -70.4484
| 15> H 	 -66.1194 	 15.9213 	 -69.2184
| 16> C 	 -64.1802 	 15.7994 	 -68.6287
| 17> H 	 -63.2526 	 15.3944 	 -69.0344
| 18> H 	 -64.0026 	 16.7087 	 -68.0338
| 19> C 	 -64.4813 	 14.6578 	 -67.7348
| 20> H 	 -63.6063 	 14.2275 	 -67.239
| 21> H 	 -65.1346 	 15.0191 	 -66.9256
| 22> H 	 -64.9413 	 13.7493 	 -68.2591
| 23> S 	 -65.9473 	 22.2375 	 -71.6385
| 24> C 	 -67.4803 	 23.071 	 -71.6689
| 25> C 	 -68.5017 	 22.2104 	 -71.9391
| 26> C 	 -68.0824 	 20.8684 	 -71.7931
| 27> C 	 -66.7153 	 20.6823 	 -71.6062
| 28> H 	 -69.5002 	 22.5304 	 -72.168
| 29> C 	 -69.1466 	 19.8526 	 -71.9641
| 30> H 	 -68.6812 	 18.8814 	 -71.9943
| 31> H 	 -69.4343 	 20.0462 	 -72.9908
| 32> C 	 -70.2775 	 19.5981 	 -70.9319
| 33> H 	 -70.9507 	 18.7129 	 -71.2541
| 34> H 	 -70.9533 	 20.4437 	 -70.9166
| 35> C 	 -69.8815 	 19.2036 	 -69.541
| 36> H 	 -69.3546 	 18.2083 	 -69.4871
| 37> H 	 -70.6742 	 19.2872 	 -68.786
| 38> H 	 -69.2014 	 19.9152 	 -69.1508
| 39> H 	 -62.8637 	 17.6795 	 -70.7823
| 40> H 	 -67.5783 	 24.1585 	 -71.6676
| 41> *
| 42>
| 43>                          ****END OF INPUT****

CARTESIAN COORDINATES (ANGSTROEM)
---------------------------------
  S    -64.154300   19.425400  -71.792400
  C    -63.878400   18.089800  -70.804700
  C    -64.993400   17.466700  -70.361000
  C    -66.131000   18.350900  -70.603300
  C    -65.866500   19.484100  -71.293000
  H    -67.178900   18.174000  -70.351800
  C    -65.167100   16.040800  -69.708100
  H    -65.041700   15.227800  -70.448400
  H    -66.119400   15.921300  -69.218400
  C    -64.180200   15.799400  -68.628700
  H    -63.252600   15.394400  -69.034400
  H    -64.002600   16.708700  -68.033800
  C    -64.481300   14.657800  -67.734800
  H    -63.606300   14.227500  -67.239000
  H    -65.134600   15.019100  -66.925600
  H    -64.941300   13.749300  -68.259100
  S    -65.947300   22.237500  -71.638500
  C    -67.480300   23.071000  -71.668900
  C    -68.501700   22.210400  -71.939100
  C    -68.082400   20.868400  -71.793100
  C    -66.715300   20.682300  -71.606200
  H    -69.500200   22.530400  -72.168000
  C    -69.146600   19.852600  -71.964100
  H    -68.681200   18.881400  -71.994300
  H    -69.434300   20.046200  -72.990800
  C    -70.277500   19.598100  -70.931900
  H    -70.950700   18.712900  -71.254100
  H    -70.953300   20.443700  -70.916600
  C    -69.881500   19.203600  -69.541000
  H    -69.354600   18.208300  -69.487100
  H    -70.674200   19.287200  -68.786000
  H    -69.201400   19.915200  -69.150800
  H    -62.863700   17.679500  -70.782300
  H    -67.578300   24.158500  -71.667600

 Total Charge           Charge          ....    0
 Multiplicity           Mult            ....    1
 Number of Electrons    NEL             ....  134
 Basis Dimension        Dim             ....  322

ORBITAL ENERGIES
----------------

  NO   OCC          E(Eh)            E(eV)
   0   2.0000     -88.963934     -2420.8317
   1   2.0000     -88.960930     -2420.7500
   2   2.0000     -10.331636      -281.1381
   3   2.0000     -10.330689      -281.1123
   4   2.0000     -10.317470      -280.7526
   5   2.0000     -10.309308      -280.5305
   6   2.0000     -10.305066      -280.4151
   7   2.0000     -10.300172      -280.2819
   8   2.0000     -10.296607      -280.1849
   9   2.0000     -10.294571      -280.1295
  10   2.0000     -10.293276      -280.0943
  11   2.0000     -10.289779      -279.9991
  12   2.0000     -10.286729      -279.9161
  13   2.0000     -10.280464      -279.7456
  14   2.0000     -10.278269      -279.6859
  15   2.0000     -10.277659      -279.6693
  16   2.0000      -8.079240      -219.8473
  17   2.0000      -8.076992      -219.7861
  18   2.0000      -6.037835      -164.2978
  19   2.0000      -6.035510      -164.2346
  20   2.0000      -6.033699      -164.1853
  21   2.0000      -6.031515      -164.1259
  22   2.0000      -6.029820      -164.0797
  23   2.0000      -6.027463      -164.0156
  24   2.0000      -1.010772       -27.5045
  25   2.0000      -0.992744       -27.0139
  26   2.0000      -0.920957       -25.0605
  27   2.0000      -0.911799       -24.8113
  28   2.0000      -0.871938       -23.7266
  29   2.0000      -0.856899       -23.3174
  30   2.0000      -0.847661       -23.0660
  31   2.0000      -0.820452       -22.3256
  32   2.0000      -0.783456       -21.3189
  33   2.0000      -0.774519       -21.0757
  34   2.0000      -0.704964       -19.1830
  35   2.0000      -0.694229       -18.8909
  36   2.0000      -0.684408       -18.6237
  37   2.0000      -0.667525       -18.1643
  38   2.0000      -0.644056       -17.5257
  39   2.0000      -0.617183       -16.7944
  40   2.0000      -0.596383       -16.2284
  41   2.0000      -0.581809       -15.8318
  42   2.0000      -0.572057       -15.5665
  43   2.0000      -0.556384       -15.1400
  44   2.0000      -0.547549       -14.8996
  45   2.0000      -0.526132       -14.3168
  46   2.0000      -0.514244       -13.9933
  47   2.0000      -0.510376       -13.8880
  48   2.0000      -0.504649       -13.7322
  49   2.0000      -0.500417       -13.6170
  50   2.0000      -0.490874       -13.3574
  51   2.0000      -0.482127       -13.1193
  52   2.0000      -0.474863       -12.9217
  53   2.0000      -0.467474       -12.7206
  54   2.0000      -0.462613       -12.5884
  55   2.0000      -0.454324       -12.3628
  56   2.0000      -0.445640       -12.1265
  57   2.0000      -0.435343       -11.8463
  58   2.0000      -0.429799       -11.6954
  59   2.0000      -0.426420       -11.6035
  60   2.0000      -0.410079       -11.1588
  61   2.0000      -0.407361       -11.0849
  62   2.0000      -0.404039       -10.9945
  63   2.0000      -0.360964        -9.8223
  64   2.0000      -0.332020        -9.0347
  65   2.0000      -0.324562        -8.8318
  66   2.0000      -0.290025        -7.8920
  67   0.0000       0.030036         0.8173
  68   0.0000       0.076988         2.0950
  69   0.0000       0.100719         2.7407
  70   0.0000       0.122988         3.3467
  71   0.0000       0.133678         3.6376

MULLIKEN ATOMIC CHARGES
-----------------------
   0 S :    0.099101
   1 C :   -0.138819
   2 C :   -0.070729
   3 C :    0.013388
   4 C :   -0.127300
   5 H :   -0.021735
   6 C :    0.118592
   7 H :    0.041666
   8 H :    0.014756
   9 C :   -0.097237
  10 H :    0.020311
  11 H :    0.042949
  12 C :   -0.083342
  13 H :    0.032281
  14 H :    0.033451
  15 H :    0.034988
  16 S :    0.098688
  17 C :   -0.088365
  18 C :   -0.013890
  19 C :   -0.086578
  20 C :   -0.103738
  21 H :    0.015690
  22 C :    0.065884
  23 H :    0.002777
  24 H :    0.038057
  25 C :   -0.069523
  26 H :    0.040430
  27 H :    0.019586
  28 C :   -0.060502
  29 H :    0.050765
  30 H :    0.036039
  31 H :    0.024646
  32 H :    0.056850
  33 H :    0.060865
Sum of atomic charges:   -0.0000000

LOEWDIN ATOMIC CHARGES
----------------------
   0 S :    0.401858
   1 C :   -0.206986
   2 C :   -0.063560
   3 C :   -0.067005
   4 C :   -0.175957
   5 H :    0.026991
   6 C :   -0.022258
   7 H :    0.038091
   8 H :    0.026217
   9 C :   -0.057932
  10 H :    0.024109
  11 H :    0.030027
  12 C :   -0.072666
  13 H :    0.025984
  14 H :    0.023358
  15 H :    0.031423
  16 S :    0.412367
  17 C :   -0.177180
  18 C :   -0.068332
  19 C :   -0.063427
  20 C :   -0.203911
  21 H :    0.031560
  22 C :   -0.039965
  23 H :    0.025675
  24 H :    0.040682
  25 C :   -0.043380
  26 H :    0.036594
  27 H :    0.016277
  28 C :   -0.073595
  29 H :    0.029287
  30 H :    0.033428
  31 H :    0.020885
  32 H :    0.030218
  33 H :    0.031122

  Mayer bond orders larger than 0.100000
B(  0-S ,  1-C ) :   1.1559 B(  0-S ,  4-C ) :   1.1241 B(  1-C ,  2-C ) :   1.6340
B(  1-C , 32-H ) :   0.9630 B(  2-C ,  3-C ) :   1.2075 B(  2-C ,  6-C ) :   1.0089
B(  3-C ,  4-C ) :   1.6447 B(  3-C ,  5-H ) :   0.9869 B(  4-C , 20-C ) :   1.0162
B(  6-C ,  7-H ) :   0.9275 B(  6-C ,  8-H ) :   0.9507 B(  6-C ,  9-C ) :   1.0768
B(  9-C , 10-H ) :   0.9479 B(  9-C , 11-H ) :   0.9603 B(  9-C , 12-C ) :   1.0894
B( 12-C , 13-H ) :   0.9759 B( 12-C , 14-H ) :   0.9725 B( 12-C , 15-H ) :   0.9677
B( 16-S , 17-C ) :   1.1657 B( 16-S , 20-C ) :   1.1372 B( 17-C , 18-C ) :   1.5870
B( 17-C , 33-H ) :   0.9659 B( 18-C , 19-C ) :   1.2478 B( 18-C , 21-H ) :   0.9978
B( 19-C , 20-C ) :   1.5829 B( 19-C , 22-C ) :   1.0434 B( 22-C , 23-H ) :   0.9299
B( 22-C , 24-H ) :   0.9342 B( 22-C , 25-C ) :   1.0595 B( 25-C , 26-H ) :   0.9555
B( 25-C , 27-H ) :   0.9553 B( 25-C , 28-C ) :   1.0853 B( 28-C , 29-H ) :   0.9631
B( 28-C , 30-H ) :   0.9669 B( 28-C , 31-H ) :   0.9708

Dispersion correction           -0.014027518
FINAL SINGLE POINT ENERGY     -1339.859213179280

DIPOLE MOMENT
-------------
                                X             Y             Z
Electronic contribution:     12.79701      22.55156     -15.34869
Nuclear contribution   :    -13.25824     -22.91368      15.54005
                        -----------------------------------------
Total Dipole Moment    :     -0.46122      -0.36213       0.19136
                        -----------------------------------------
Magnitude (a.u.)       :      0.61683
Magnitude (Debye)      :      1.56786

Rotational constants in cm-1:     0.020079     0.008113     0.006176
Rotational constants in MHz :   601.945191   243.214208   185.158938

                             ****ORCA TERMINATED NORMALLY****
TOTAL RUN TIME: 0 days 0 hours 0 minutes 21 seconds 476 msec
