                         Program Version 4.2.1 -  RELEASE  -
|  1> ! wB97X-D3 SP def2-SVP
|  2> %pal
|  3> nprocs 24
|  4> end
|  5>
|  6> * xyz 0 1
|  7> S 	 -107.504 	 54.6008 	 -86.2035
|  8> C 	 -109.191 	 54.7223 	 -85.7156
|  9> C 	 -109.714 	 55.8216 	 -86.4171
| 10> C 	 -108.761 	 56.5646 	 -87.1505
| 11> C 	 -107.415 	 56.1878 	 -86.9586
| 12> H 	 -108.971 	 57.2792 	 -87.8676
| 13> C 	 -111.158 	 56.329 	 -86.4133
| 14> H 	 -111.655 	 55.7083 	 -85.6611
| 15> H 	 -111.636 	 55.9316 	 -87.3257
| 16> C 	 -111.431 	 57.7596 	 -86.208
| 17> H 	 -110.928 	 58.5356 	 -86.892
| 18> H 	 -112.501 	 57.9818 	 -86.3658
| 19> C 	 -111.18 	 58.2603 	 -84.7681
| 20> H 	 -111.196 	 57.4682 	 -84.0621
| 21> H 	 -110.198 	 58.6903 	 -84.7737
| 22> H 	 -111.805 	 58.9971 	 -84.3981
| 23> S 	 -105.039 	 55.5647 	 -88.2165
| 24> C 	 -103.95 	 56.8207 	 -88.588
| 25> C 	 -104.504 	 58.0585 	 -88.3006
| 26> C 	 -105.803 	 58.0494 	 -87.6971
| 27> C 	 -106.178 	 56.745 	 -87.5062
| 28> H 	 -104.047 	 58.9953 	 -88.6239
| 29> C 	 -106.585 	 59.2856 	 -87.3065
| 30> H 	 -106.602 	 59.3101 	 -86.2132
| 31> H 	 -107.592 	 59.1542 	 -87.578
| 32> C 	 -106.011 	 60.5865 	 -88.0076
| 33> H 	 -106.043 	 60.5671 	 -89.1091
| 34> H 	 -104.948 	 60.7636 	 -87.6073
| 35> C 	 -106.819 	 61.8464 	 -87.6835
| 36> H 	 -107.72 	 61.8598 	 -88.3334
| 37> H 	 -106.279 	 62.7528 	 -88.0629
| 38> H 	 -107.131 	 62.0234 	 -86.6445
| 39> H 	 -109.834 	 54.0344 	 -85.1555
| 40> H 	 -103.044 	 56.527 	 -89.0741
| 41> *
| 42>
| 43>                          ****END OF INPUT****

CARTESIAN COORDINATES (ANGSTROEM)
---------------------------------
  S    -107.504000   54.600800  -86.203500
  C    -109.191000   54.722300  -85.715600
  C    -109.714000   55.821600  -86.417100
  C    -108.761000   56.564600  -87.150500
  C    -107.415000   56.187800  -86.958600
  H    -108.971000   57.279200  -87.867600
  C    -111.158000   56.329000  -86.413300
  H    -111.655000   55.708300  -85.661100
  H    -111.636000   55.931600  -87.325700
  C    -111.431000   57.759600  -86.208000
  H    -110.928000   58.535600  -86.892000
  H    -112.501000   57.981800  -86.365800
  C    -111.180000   58.260300  -84.768100
  H    -111.196000   57.468200  -84.062100
  H    -110.198000   58.690300  -84.773700
  H    -111.805000   58.997100  -84.398100
  S    -105.039000   55.564700  -88.216500
  C    -103.950000   56.820700  -88.588000
  C    -104.504000   58.058500  -88.300600
  C    -105.803000   58.049400  -87.697100
  C    -106.178000   56.745000  -87.506200
  H    -104.047000   58.995300  -88.623900
  C    -106.585000   59.285600  -87.306500
  H    -106.602000   59.310100  -86.213200
  H    -107.592000   59.154200  -87.578000
  C    -106.011000   60.586500  -88.007600
  H    -106.043000   60.567100  -89.109100
  H    -104.948000   60.763600  -87.607300
  C    -106.819000   61.846400  -87.683500
  H    -107.720000   61.859800  -88.333400
  H    -106.279000   62.752800  -88.062900
  H    -107.131000   62.023400  -86.644500
  H    -109.834000   54.034400  -85.155500
  H    -103.044000   56.527000  -89.074100

 Total Charge           Charge          ....    0
 Multiplicity           Mult            ....    1
 Number of Electrons    NEL             ....  134
 Basis Dimension        Dim             ....  322

ORBITAL ENERGIES
----------------

  NO   OCC          E(Eh)            E(eV)
   0   2.0000     -88.964157     -2420.8378
   1   2.0000     -88.963234     -2420.8127
   2   2.0000     -10.332859      -281.1714
   3   2.0000     -10.327429      -281.0236
   4   2.0000     -10.318265      -280.7743
   5   2.0000     -10.315549      -280.7004
   6   2.0000     -10.304904      -280.4107
   7   2.0000     -10.304056      -280.3876
   8   2.0000     -10.300649      -280.2949
   9   2.0000     -10.298516      -280.2369
  10   2.0000     -10.294856      -280.1373
  11   2.0000     -10.292390      -280.0702
  12   2.0000     -10.291038      -280.0334
  13   2.0000     -10.286408      -279.9074
  14   2.0000     -10.286099      -279.8990
  15   2.0000     -10.262499      -279.2568
  16   2.0000      -8.079629      -219.8579
  17   2.0000      -8.077351      -219.7959
  18   2.0000      -6.038020      -164.3029
  19   2.0000      -6.036008      -164.2481
  20   2.0000      -6.034090      -164.1959
  21   2.0000      -6.031930      -164.1372
  22   2.0000      -6.030411      -164.0958
  23   2.0000      -6.027967      -164.0293
  24   2.0000      -1.006358       -27.3844
  25   2.0000      -0.983802       -26.7706
  26   2.0000      -0.914358       -24.8809
  27   2.0000      -0.910215       -24.7682
  28   2.0000      -0.869202       -23.6522
  29   2.0000      -0.855152       -23.2699
  30   2.0000      -0.839857       -22.8537
  31   2.0000      -0.811077       -22.0705
  32   2.0000      -0.788668       -21.4608
  33   2.0000      -0.776950       -21.1419
  34   2.0000      -0.707675       -19.2568
  35   2.0000      -0.703966       -19.1559
  36   2.0000      -0.692358       -18.8400
  37   2.0000      -0.653081       -17.7712
  38   2.0000      -0.637759       -17.3543
  39   2.0000      -0.623081       -16.9549
  40   2.0000      -0.605758       -16.4835
  41   2.0000      -0.572048       -15.5662
  42   2.0000      -0.562245       -15.2995
  43   2.0000      -0.558515       -15.1980
  44   2.0000      -0.534588       -14.5469
  45   2.0000      -0.531095       -14.4518
  46   2.0000      -0.522510       -14.2182
  47   2.0000      -0.509484       -13.8638
  48   2.0000      -0.504074       -13.7165
  49   2.0000      -0.502635       -13.6774
  50   2.0000      -0.486355       -13.2344
  51   2.0000      -0.481167       -13.0932
  52   2.0000      -0.475443       -12.9375
  53   2.0000      -0.466393       -12.6912
  54   2.0000      -0.457904       -12.4602
  55   2.0000      -0.455510       -12.3951
  56   2.0000      -0.450163       -12.2496
  57   2.0000      -0.441178       -12.0051
  58   2.0000      -0.431642       -11.7456
  59   2.0000      -0.423880       -11.5344
  60   2.0000      -0.416540       -11.3346
  61   2.0000      -0.414657       -11.2834
  62   2.0000      -0.398961       -10.8563
  63   2.0000      -0.351831        -9.5738
  64   2.0000      -0.332926        -9.0594
  65   2.0000      -0.321621        -8.7518
  66   2.0000      -0.284386        -7.7385
  67   0.0000       0.020090         0.5467
  68   0.0000       0.073532         2.0009
  69   0.0000       0.102125         2.7790
  70   0.0000       0.126691         3.4474
  71   0.0000       0.129003         3.5103

MULLIKEN ATOMIC CHARGES
-----------------------
   0 S :    0.092034
   1 C :   -0.107166
   2 C :   -0.114178
   3 C :    0.028161
   4 C :   -0.144032
   5 H :   -0.004533
   6 C :    0.083120
   7 H :    0.007874
   8 H :    0.041112
   9 C :   -0.098814
  10 H :    0.038180
  11 H :    0.028081
  12 C :   -0.006755
  13 H :    0.015281
  14 H :    0.023360
  15 H :    0.015398
  16 S :    0.104327
  17 C :   -0.078773
  18 C :   -0.038241
  19 C :   -0.064026
  20 C :   -0.152097
  21 H :    0.021151
  22 C :    0.140251
  23 H :    0.049268
  24 H :    0.002689
  25 C :   -0.152229
  26 H :    0.051626
  27 H :    0.057427
  28 C :   -0.055592
  29 H :    0.027669
  30 H :    0.036220
  31 H :    0.041695
  32 H :    0.055569
  33 H :    0.055943
Sum of atomic charges:    0.0000000

LOEWDIN ATOMIC CHARGES
----------------------
   0 S :    0.399015
   1 C :   -0.207708
   2 C :   -0.064588
   3 C :   -0.067156
   4 C :   -0.182699
   5 H :    0.015758
   6 C :   -0.039905
   7 H :    0.030559
   8 H :    0.039518
   9 C :   -0.051397
  10 H :    0.030966
  11 H :    0.028550
  12 C :   -0.056173
  13 H :    0.019840
  14 H :    0.025327
  15 H :    0.016102
  16 S :    0.409232
  17 C :   -0.190982
  18 C :   -0.074509
  19 C :   -0.052674
  20 C :   -0.188553
  21 H :    0.029959
  22 C :   -0.022540
  23 H :    0.043701
  24 H :    0.022489
  25 C :   -0.046505
  26 H :    0.032930
  27 H :    0.033091
  28 C :   -0.076046
  29 H :    0.025456
  30 H :    0.031877
  31 H :    0.024753
  32 H :    0.037541
  33 H :    0.024768

  Mayer bond orders larger than 0.100000
B(  0-S ,  1-C ) :   1.1346 B(  0-S ,  4-C ) :   1.1607 B(  1-C ,  2-C ) :   1.5739
B(  1-C ,  4-C ) :   0.1128 B(  1-C , 32-H ) :   0.9675 B(  2-C ,  3-C ) :   1.2770
B(  2-C ,  6-C ) :   1.0160 B(  3-C ,  4-C ) :   1.5181 B(  3-C ,  5-H ) :   0.9999
B(  4-C , 20-C ) :   1.0686 B(  6-C ,  7-H ) :   0.9361 B(  6-C ,  8-H ) :   0.9305
B(  6-C ,  9-C ) :   1.0893 B(  9-C , 10-H ) :   0.9556 B(  9-C , 11-H ) :   0.9530
B(  9-C , 12-C ) :   1.0628 B( 12-C , 13-H ) :   0.9771 B( 12-C , 14-H ) :   0.9759
B( 12-C , 15-H ) :   0.9772 B( 16-S , 17-C ) :   1.1669 B( 16-S , 20-C ) :   1.1459
B( 17-C , 18-C ) :   1.5641 B( 17-C , 33-H ) :   0.9752 B( 18-C , 19-C ) :   1.2588
B( 18-C , 21-H ) :   0.9827 B( 19-C , 20-C ) :   1.6077 B( 19-C , 22-C ) :   1.0296
B( 22-C , 23-H ) :   0.9216 B( 22-C , 24-H ) :   0.9257 B( 22-C , 25-C ) :   1.0692
B( 25-C , 26-H ) :   0.9579 B( 25-C , 27-H ) :   0.9481 B( 25-C , 28-C ) :   1.0844
B( 28-C , 29-H ) :   0.9735 B( 28-C , 30-H ) :   0.9723 B( 28-C , 31-H ) :   0.9752

Dispersion correction           -0.013937782
FINAL SINGLE POINT ENERGY     -1339.858520521158

DIPOLE MOMENT
-------------
                                X             Y             Z
Electronic contribution:     16.87829     -27.01059      -3.68630
Nuclear contribution   :    -17.28885      27.69558       3.45905
                        -----------------------------------------
Total Dipole Moment    :     -0.41056       0.68500      -0.22725
                        -----------------------------------------
Magnitude (a.u.)       :      0.83032
Magnitude (Debye)      :      2.11049

Rotational constants in cm-1:     0.015723     0.010214     0.006487
Rotational constants in MHz :   471.358467   306.211425   194.473988

                             ****ORCA TERMINATED NORMALLY****
TOTAL RUN TIME: 0 days 0 hours 0 minutes 20 seconds 673 msec
