                         Program Version 4.2.1 -  RELEASE  -
|  1> ! wB97X-D3 SP def2-SVP
|  2> %pal
|  3> nprocs 24
|  4> end
|  5>
|  6> * xyz 0 1
|  7> S 	 -50.9674 	 6.54489 	 -17.8189
|  8> C 	 -49.4306 	 7.43695 	 -17.9411
|  9> C 	 -49.5954 	 8.56447 	 -18.7279
| 10> C 	 -50.9542 	 8.71088 	 -19.2282
| 11> C 	 -51.8731 	 7.82458 	 -18.703
| 12> H 	 -51.3349 	 9.47063 	 -19.8486
| 13> C 	 -48.49 	 9.49076 	 -19.1229
| 14> H 	 -48.4958 	 9.43111 	 -20.2113
| 15> H 	 -47.5471 	 9.09443 	 -18.6561
| 16> C 	 -48.5958 	 10.9567 	 -18.6723
| 17> H 	 -47.682 	 11.4959 	 -18.9111
| 18> H 	 -49.4908 	 11.4218 	 -19.0369
| 19> C 	 -48.8042 	 11.0612 	 -17.1146
| 20> H 	 -49.0199 	 12.0747 	 -16.8238
| 21> H 	 -49.6572 	 10.4693 	 -16.7616
| 22> H 	 -47.9098 	 10.5959 	 -16.6416
| 23> S 	 -54.3513 	 7.55049 	 -17.5597
| 24> C 	 -55.7335 	 7.47423 	 -18.5375
| 25> C 	 -55.4402 	 7.56816 	 -19.8357
| 26> C 	 -54.0275 	 7.69505 	 -20.0539
| 27> C 	 -53.3185 	 7.74016 	 -18.8895
| 28> H 	 -56.2212 	 7.56306 	 -20.5779
| 29> C 	 -53.4002 	 7.55087 	 -21.4429
| 30> H 	 -53.0448 	 6.52164 	 -21.5325
| 31> H 	 -52.4832 	 8.12931 	 -21.4986
| 32> C 	 -54.3577 	 7.91578 	 -22.6086
| 33> H 	 -55.0023 	 8.73311 	 -22.3366
| 34> H 	 -54.9625 	 7.06954 	 -22.8165
| 35> C 	 -53.704 	 8.4049 	 -23.9117
| 36> H 	 -52.9747 	 9.19856 	 -23.594
| 37> H 	 -54.5221 	 8.90604 	 -24.4736
| 38> H 	 -53.4224 	 7.5306 	 -24.4931
| 39> H 	 -48.531 	 7.18656 	 -17.5587
| 40> H 	 -56.8105 	 7.45174 	 -18.2139
| 41> *
| 42>
| 43>                          ****END OF INPUT****

CARTESIAN COORDINATES (ANGSTROEM)
---------------------------------
  S    -50.967400    6.544890  -17.818900
  C    -49.430600    7.436950  -17.941100
  C    -49.595400    8.564470  -18.727900
  C    -50.954200    8.710880  -19.228200
  C    -51.873100    7.824580  -18.703000
  H    -51.334900    9.470630  -19.848600
  C    -48.490000    9.490760  -19.122900
  H    -48.495800    9.431110  -20.211300
  H    -47.547100    9.094430  -18.656100
  C    -48.595800   10.956700  -18.672300
  H    -47.682000   11.495900  -18.911100
  H    -49.490800   11.421800  -19.036900
  C    -48.804200   11.061200  -17.114600
  H    -49.019900   12.074700  -16.823800
  H    -49.657200   10.469300  -16.761600
  H    -47.909800   10.595900  -16.641600
  S    -54.351300    7.550490  -17.559700
  C    -55.733500    7.474230  -18.537500
  C    -55.440200    7.568160  -19.835700
  C    -54.027500    7.695050  -20.053900
  C    -53.318500    7.740160  -18.889500
  H    -56.221200    7.563060  -20.577900
  C    -53.400200    7.550870  -21.442900
  H    -53.044800    6.521640  -21.532500
  H    -52.483200    8.129310  -21.498600
  C    -54.357700    7.915780  -22.608600
  H    -55.002300    8.733110  -22.336600
  H    -54.962500    7.069540  -22.816500
  C    -53.704000    8.404900  -23.911700
  H    -52.974700    9.198560  -23.594000
  H    -54.522100    8.906040  -24.473600
  H    -53.422400    7.530600  -24.493100
  H    -48.531000    7.186560  -17.558700
  H    -56.810500    7.451740  -18.213900

 Total Charge           Charge          ....    0
 Multiplicity           Mult            ....    1
 Number of Electrons    NEL             ....  134
 Basis Dimension        Dim             ....  322

ORBITAL ENERGIES
----------------

  NO   OCC          E(Eh)            E(eV)
   0   2.0000     -88.964553     -2420.8486
   1   2.0000     -88.962655     -2420.7969
   2   2.0000     -10.334807      -281.2244
   3   2.0000     -10.319340      -280.8035
   4   2.0000     -10.312576      -280.6195
   5   2.0000     -10.309581      -280.5380
   6   2.0000     -10.302909      -280.3564
   7   2.0000     -10.300772      -280.2983
   8   2.0000     -10.295322      -280.1500
   9   2.0000     -10.293891      -280.1110
  10   2.0000     -10.290185      -280.0102
  11   2.0000     -10.287151      -279.9276
  12   2.0000     -10.286660      -279.9143
  13   2.0000     -10.284763      -279.8626
  14   2.0000     -10.280823      -279.7554
  15   2.0000     -10.275083      -279.5992
  16   2.0000      -8.081469      -219.9080
  17   2.0000      -8.076195      -219.7644
  18   2.0000      -6.039860      -164.3529
  19   2.0000      -6.035619      -164.2376
  20   2.0000      -6.034944      -164.2192
  21   2.0000      -6.032247      -164.1458
  22   2.0000      -6.030911      -164.1094
  23   2.0000      -6.026718      -163.9953
  24   2.0000      -1.018631       -27.7184
  25   2.0000      -0.982521       -26.7358
  26   2.0000      -0.910568       -24.7778
  27   2.0000      -0.908520       -24.7221
  28   2.0000      -0.873662       -23.7735
  29   2.0000      -0.853661       -23.2293
  30   2.0000      -0.837967       -22.8022
  31   2.0000      -0.822753       -22.3883
  32   2.0000      -0.780863       -21.2484
  33   2.0000      -0.771265       -20.9872
  34   2.0000      -0.708933       -19.2910
  35   2.0000      -0.700356       -19.0576
  36   2.0000      -0.694818       -18.9069
  37   2.0000      -0.651489       -17.7279
  38   2.0000      -0.642987       -17.4966
  39   2.0000      -0.622327       -16.9344
  40   2.0000      -0.599525       -16.3139
  41   2.0000      -0.576926       -15.6990
  42   2.0000      -0.570227       -15.5167
  43   2.0000      -0.555501       -15.1159
  44   2.0000      -0.542631       -14.7657
  45   2.0000      -0.525543       -14.3007
  46   2.0000      -0.523700       -14.2506
  47   2.0000      -0.512021       -13.9328
  48   2.0000      -0.506962       -13.7951
  49   2.0000      -0.503855       -13.7106
  50   2.0000      -0.487793       -13.2735
  51   2.0000      -0.476144       -12.9565
  52   2.0000      -0.471328       -12.8255
  53   2.0000      -0.462992       -12.5986
  54   2.0000      -0.459845       -12.5130
  55   2.0000      -0.452852       -12.3227
  56   2.0000      -0.440902       -11.9976
  57   2.0000      -0.434271       -11.8171
  58   2.0000      -0.432356       -11.7650
  59   2.0000      -0.423023       -11.5111
  60   2.0000      -0.418658       -11.3923
  61   2.0000      -0.415471       -11.3055
  62   2.0000      -0.411127       -11.1873
  63   2.0000      -0.350535        -9.5385
  64   2.0000      -0.331610        -9.0236
  65   2.0000      -0.325502        -8.8573
  66   2.0000      -0.297657        -8.0997
  67   0.0000       0.034208         0.9308
  68   0.0000       0.073252         1.9933
  69   0.0000       0.112089         3.0501
  70   0.0000       0.130414         3.5487
  71   0.0000       0.131320         3.5734

MULLIKEN ATOMIC CHARGES
-----------------------
   0 S :    0.087175
   1 C :   -0.057993
   2 C :   -0.112958
   3 C :    0.047749
   4 C :   -0.153787
   5 H :    0.000165
   6 C :    0.068162
   7 H :    0.042493
   8 H :    0.020721
   9 C :   -0.063131
  10 H :    0.041846
  11 H :    0.027051
  12 C :   -0.084988
  13 H :    0.035801
  14 H :    0.046350
  15 H :    0.028018
  16 S :    0.130070
  17 C :   -0.085138
  18 C :   -0.046089
  19 C :   -0.060380
  20 C :   -0.161938
  21 H :    0.013606
  22 C :    0.113255
  23 H :    0.042089
  24 H :   -0.001711
  25 C :   -0.118402
  26 H :    0.029624
  27 H :    0.025339
  28 C :   -0.043142
  29 H :    0.047285
  30 H :    0.033485
  31 H :    0.043833
  32 H :   -0.003804
  33 H :    0.069345
Sum of atomic charges:   -0.0000000

LOEWDIN ATOMIC CHARGES
----------------------
   0 S :    0.364216
   1 C :   -0.171013
   2 C :   -0.058192
   3 C :   -0.060847
   4 C :   -0.164991
   5 H :    0.022006
   6 C :   -0.033899
   7 H :    0.036116
   8 H :    0.033247
   9 C :   -0.037308
  10 H :    0.027053
  11 H :    0.019090
  12 C :   -0.067491
  13 H :    0.022186
  14 H :    0.027852
  15 H :    0.023833
  16 S :    0.452350
  17 C :   -0.205584
  18 C :   -0.078625
  19 C :   -0.051960
  20 C :   -0.230404
  21 H :    0.030610
  22 C :   -0.029554
  23 H :    0.038698
  24 H :    0.023571
  25 C :   -0.045722
  26 H :    0.021226
  27 H :    0.018157
  28 C :   -0.065280
  29 H :    0.033222
  30 H :    0.030142
  31 H :    0.026450
  32 H :    0.005377
  33 H :    0.045467

  Mayer bond orders larger than 0.100000
B(  0-S ,  1-C ) :   1.1129 B(  0-S ,  4-C ) :   1.1292 B(  1-C ,  2-C ) :   1.6346
B(  1-C , 32-H ) :   0.9786 B(  2-C ,  3-C ) :   1.1924 B(  2-C ,  6-C ) :   1.0288
B(  3-C ,  4-C ) :   1.6224 B(  3-C ,  5-H ) :   0.9940 B(  4-C , 20-C ) :   1.0292
B(  6-C ,  7-H ) :   0.9365 B(  6-C ,  8-H ) :   0.9409 B(  6-C ,  9-C ) :   1.0718
B(  9-C , 10-H ) :   0.9598 B(  9-C , 11-H ) :   0.9571 B(  9-C , 12-C ) :   1.0688
B( 12-C , 13-H ) :   0.9773 B( 12-C , 14-H ) :   0.9733 B( 12-C , 15-H ) :   0.9781
B( 16-S , 17-C ) :   1.1671 B( 16-S , 20-C ) :   1.1522 B( 17-C , 18-C ) :   1.6145
B( 17-C , 33-H ) :   0.9530 B( 18-C , 19-C ) :   1.2461 B( 18-C , 21-H ) :   0.9936
B( 19-C , 20-C ) :   1.5993 B( 19-C , 22-C ) :   1.0408 B( 22-C , 23-H ) :   0.9244
B( 22-C , 24-H ) :   0.9296 B( 22-C , 25-C ) :   1.0618 B( 25-C , 26-H ) :   0.9663
B( 25-C , 27-H ) :   0.9482 B( 25-C , 28-C ) :   1.0865 B( 28-C , 29-H ) :   0.9731
B( 28-C , 30-H ) :   0.9762 B( 28-C , 31-H ) :   0.9757

Dispersion correction           -0.014049539
FINAL SINGLE POINT ENERGY     -1339.875371517489

DIPOLE MOMENT
-------------
                                X             Y             Z
Electronic contribution:     -8.73762     -14.64653      17.17078
Nuclear contribution   :      8.65274      14.96421     -17.76653
                        -----------------------------------------
Total Dipole Moment    :     -0.08488       0.31768      -0.59575
                        -----------------------------------------
Magnitude (a.u.)       :      0.68047
Magnitude (Debye)      :      1.72963

Rotational constants in cm-1:     0.017812     0.008442     0.006797
Rotational constants in MHz :   533.995502   253.074305   203.760651

                             ****ORCA TERMINATED NORMALLY****
TOTAL RUN TIME: 0 days 0 hours 0 minutes 21 seconds 458 msec
