                         Program Version 4.2.1 -  RELEASE  -
|  1> ! wB97X-D3 SP def2-SVP
|  2> %pal
|  3> nprocs 24
|  4> end
|  5>
|  6> * xyz 0 1
|  7> S 	 -88.5575 	 -47.6548 	 -83.5911
|  8> C 	 -89.3831 	 -47.2241 	 -82.0514
|  9> C 	 -88.4493 	 -47.0241 	 -81.0864
| 10> C 	 -87.1407 	 -47.2937 	 -81.5374
| 11> C 	 -86.9323 	 -47.5745 	 -82.8821
| 12> H 	 -86.3083 	 -47.0519 	 -80.8611
| 13> C 	 -88.7726 	 -46.5589 	 -79.6392
| 14> H 	 -89.8416 	 -46.312 	 -79.4158
| 15> H 	 -88.3831 	 -45.6306 	 -79.4408
| 16> C 	 -88.2252 	 -47.4009 	 -78.5186
| 17> H 	 -88.4775 	 -48.4325 	 -78.7114
| 18> H 	 -87.1657 	 -47.3827 	 -78.5374
| 19> C 	 -88.5951 	 -47.0507 	 -77.104
| 20> H 	 -89.7191 	 -46.9593 	 -76.9714
| 21> H 	 -88.2179 	 -47.814 	 -76.48
| 22> H 	 -88.1102 	 -46.0353 	 -76.9278
| 23> S 	 -85.5453 	 -46.8785 	 -85.1496
| 24> C 	 -83.9952 	 -47.6314 	 -85.4742
| 25> C 	 -83.511 	 -48.277 	 -84.3235
| 26> C 	 -84.4363 	 -48.179 	 -83.2565
| 27> C 	 -85.6696 	 -47.6957 	 -83.6274
| 28> H 	 -82.4858 	 -48.5449 	 -84.4034
| 29> C 	 -84.2072 	 -48.8269 	 -81.888
| 30> H 	 -84.705 	 -49.8337 	 -81.9732
| 31> H 	 -84.7886 	 -48.404 	 -81.0166
| 32> C 	 -82.7572 	 -49.1449 	 -81.5114
| 33> H 	 -82.0919 	 -48.269 	 -81.5832
| 34> H 	 -82.3756 	 -49.8474 	 -82.2427
| 35> C 	 -82.6442 	 -49.8595 	 -80.1479
| 36> H 	 -83.2595 	 -50.7415 	 -80.3496
| 37> H 	 -83.128 	 -49.3414 	 -79.253
| 38> H 	 -81.5669 	 -50.1118 	 -79.8594
| 39> H 	 -90.3921 	 -47.0097 	 -81.877
| 40> H 	 -83.3806 	 -47.397 	 -86.3032
| 41> *
| 42>
| 43>                          ****END OF INPUT****

CARTESIAN COORDINATES (ANGSTROEM)
---------------------------------
  S    -88.557500  -47.654800  -83.591100
  C    -89.383100  -47.224100  -82.051400
  C    -88.449300  -47.024100  -81.086400
  C    -87.140700  -47.293700  -81.537400
  C    -86.932300  -47.574500  -82.882100
  H    -86.308300  -47.051900  -80.861100
  C    -88.772600  -46.558900  -79.639200
  H    -89.841600  -46.312000  -79.415800
  H    -88.383100  -45.630600  -79.440800
  C    -88.225200  -47.400900  -78.518600
  H    -88.477500  -48.432500  -78.711400
  H    -87.165700  -47.382700  -78.537400
  C    -88.595100  -47.050700  -77.104000
  H    -89.719100  -46.959300  -76.971400
  H    -88.217900  -47.814000  -76.480000
  H    -88.110200  -46.035300  -76.927800
  S    -85.545300  -46.878500  -85.149600
  C    -83.995200  -47.631400  -85.474200
  C    -83.511000  -48.277000  -84.323500
  C    -84.436300  -48.179000  -83.256500
  C    -85.669600  -47.695700  -83.627400
  H    -82.485800  -48.544900  -84.403400
  C    -84.207200  -48.826900  -81.888000
  H    -84.705000  -49.833700  -81.973200
  H    -84.788600  -48.404000  -81.016600
  C    -82.757200  -49.144900  -81.511400
  H    -82.091900  -48.269000  -81.583200
  H    -82.375600  -49.847400  -82.242700
  C    -82.644200  -49.859500  -80.147900
  H    -83.259500  -50.741500  -80.349600
  H    -83.128000  -49.341400  -79.253000
  H    -81.566900  -50.111800  -79.859400
  H    -90.392100  -47.009700  -81.877000
  H    -83.380600  -47.397000  -86.303200

 Total Charge           Charge          ....    0
 Multiplicity           Mult            ....    1
 Number of Electrons    NEL             ....  134
 Basis Dimension        Dim             ....  322

ORBITAL ENERGIES
----------------

  NO   OCC          E(Eh)            E(eV)
   0   2.0000     -88.967760     -2420.9358
   1   2.0000     -88.967398     -2420.9260
   2   2.0000     -10.339126      -281.3419
   3   2.0000     -10.329122      -281.0697
   4   2.0000     -10.318687      -280.7858
   5   2.0000     -10.313752      -280.6514
   6   2.0000     -10.309211      -280.5279
   7   2.0000     -10.302001      -280.3317
   8   2.0000     -10.298665      -280.2409
   9   2.0000     -10.297781      -280.2169
  10   2.0000     -10.294471      -280.1268
  11   2.0000     -10.291388      -280.0429
  12   2.0000     -10.290785      -280.0265
  13   2.0000     -10.289378      -279.9882
  14   2.0000     -10.285837      -279.8919
  15   2.0000     -10.277123      -279.6547
  16   2.0000      -8.082721      -219.9420
  17   2.0000      -8.080773      -219.8890
  18   2.0000      -6.041122      -164.3873
  19   2.0000      -6.039587      -164.3455
  20   2.0000      -6.037251      -164.2819
  21   2.0000      -6.035377      -164.2310
  22   2.0000      -6.033512      -164.1802
  23   2.0000      -6.031340      -164.1211
  24   2.0000      -1.009337       -27.4655
  25   2.0000      -0.986308       -26.8388
  26   2.0000      -0.918368       -24.9901
  27   2.0000      -0.909006       -24.7353
  28   2.0000      -0.875479       -23.8230
  29   2.0000      -0.852303       -23.1924
  30   2.0000      -0.843265       -22.9464
  31   2.0000      -0.817703       -22.2508
  32   2.0000      -0.786504       -21.4019
  33   2.0000      -0.771541       -20.9947
  34   2.0000      -0.711518       -19.3614
  35   2.0000      -0.701848       -19.0982
  36   2.0000      -0.693086       -18.8598
  37   2.0000      -0.656573       -17.8663
  38   2.0000      -0.643220       -17.5029
  39   2.0000      -0.625136       -17.0108
  40   2.0000      -0.599648       -16.3172
  41   2.0000      -0.581291       -15.8177
  42   2.0000      -0.569952       -15.5092
  43   2.0000      -0.564744       -15.3675
  44   2.0000      -0.536138       -14.5890
  45   2.0000      -0.528274       -14.3751
  46   2.0000      -0.515793       -14.0354
  47   2.0000      -0.509583       -13.8664
  48   2.0000      -0.505267       -13.7490
  49   2.0000      -0.500278       -13.6132
  50   2.0000      -0.487829       -13.2745
  51   2.0000      -0.480632       -13.0787
  52   2.0000      -0.476258       -12.9596
  53   2.0000      -0.464967       -12.6524
  54   2.0000      -0.458810       -12.4849
  55   2.0000      -0.449570       -12.2334
  56   2.0000      -0.445842       -12.1320
  57   2.0000      -0.434342       -11.8190
  58   2.0000      -0.433568       -11.7980
  59   2.0000      -0.424490       -11.5510
  60   2.0000      -0.418814       -11.3965
  61   2.0000      -0.414571       -11.2810
  62   2.0000      -0.411663       -11.2019
  63   2.0000      -0.354489        -9.6461
  64   2.0000      -0.333674        -9.0797
  65   2.0000      -0.331021        -9.0075
  66   2.0000      -0.289467        -7.8768
  67   0.0000       0.018385         0.5003
  68   0.0000       0.073929         2.0117
  69   0.0000       0.104291         2.8379
  70   0.0000       0.123503         3.3607
  71   0.0000       0.130581         3.5533

MULLIKEN ATOMIC CHARGES
-----------------------
   0 S :    0.096937
   1 C :   -0.103200
   2 C :   -0.057203
   3 C :   -0.008798
   4 C :   -0.123573
   5 H :    0.023090
   6 C :    0.111626
   7 H :    0.011952
   8 H :   -0.002592
   9 C :   -0.099917
  10 H :    0.021689
  11 H :    0.013817
  12 C :   -0.052373
  13 H :    0.039596
  14 H :    0.038689
  15 H :    0.037535
  16 S :    0.113918
  17 C :   -0.083451
  18 C :   -0.049336
  19 C :    0.010079
  20 C :   -0.133923
  21 H :    0.021229
  22 C :   -0.014558
  23 H :    0.046360
  24 H :    0.030424
  25 C :   -0.070375
  26 H :    0.033017
  27 H :    0.031303
  28 C :   -0.082616
  29 H :    0.029892
  30 H :    0.043799
  31 H :    0.053516
  32 H :    0.025280
  33 H :    0.048167
Sum of atomic charges:   -0.0000000

LOEWDIN ATOMIC CHARGES
----------------------
   0 S :    0.378981
   1 C :   -0.169531
   2 C :   -0.059967
   3 C :   -0.073560
   4 C :   -0.181269
   5 H :    0.028900
   6 C :   -0.028433
   7 H :    0.033283
   8 H :    0.018762
   9 C :   -0.047732
  10 H :    0.019512
  11 H :    0.016536
  12 C :   -0.060497
  13 H :    0.029070
  14 H :    0.024500
  15 H :    0.031878
  16 S :    0.419704
  17 C :   -0.174851
  18 C :   -0.069518
  19 C :   -0.053307
  20 C :   -0.202864
  21 H :    0.031839
  22 C :   -0.044753
  23 H :    0.044056
  24 H :    0.032745
  25 C :   -0.047479
  26 H :    0.020012
  27 H :    0.024289
  28 C :   -0.074660
  29 H :    0.025996
  30 H :    0.029119
  31 H :    0.035429
  32 H :    0.022057
  33 H :    0.021753

  Mayer bond orders larger than 0.100000
B(  0-S ,  1-C ) :   1.1209 B(  0-S ,  4-C ) :   1.1385 B(  1-C ,  2-C ) :   1.6289
B(  1-C ,  4-C ) :   0.1010 B(  1-C , 32-H ) :   0.9718 B(  2-C ,  3-C ) :   1.2697
B(  2-C ,  6-C ) :   1.0152 B(  3-C ,  4-C ) :   1.5601 B(  3-C ,  5-H ) :   0.9742
B(  4-C , 20-C ) :   1.0626 B(  6-C ,  7-H ) :   0.9439 B(  6-C ,  8-H ) :   0.9265
B(  6-C ,  9-C ) :   1.0603 B(  9-C , 10-H ) :   0.9560 B(  9-C , 11-H ) :   0.9467
B(  9-C , 12-C ) :   1.0959 B( 12-C , 13-H ) :   0.9744 B( 12-C , 14-H ) :   0.9719
B( 12-C , 15-H ) :   0.9729 B( 16-S , 17-C ) :   1.1688 B( 16-S , 20-C ) :   1.1530
B( 17-C , 18-C ) :   1.5872 B( 17-C , 20-C ) :   0.1088 B( 17-C , 33-H ) :   0.9696
B( 18-C , 19-C ) :   1.2482 B( 18-C , 21-H ) :   0.9935 B( 19-C , 20-C ) :   1.5647
B( 19-C , 22-C ) :   1.0359 B( 22-C , 23-H ) :   0.9276 B( 22-C , 24-H ) :   0.9416
B( 22-C , 25-C ) :   1.0671 B( 25-C , 26-H ) :   0.9609 B( 25-C , 27-H ) :   0.9425
B( 25-C , 28-C ) :   1.0709 B( 28-C , 29-H ) :   0.9741 B( 28-C , 30-H ) :   0.9763
B( 28-C , 31-H ) :   0.9727

Dispersion correction           -0.013304387
FINAL SINGLE POINT ENERGY     -1339.856240895864

DIPOLE MOMENT
-------------
                                X             Y             Z
Electronic contribution:     -7.89870       6.05074     -31.65489
Nuclear contribution   :      8.30773      -5.99956      32.28708
                        -----------------------------------------
Total Dipole Moment    :      0.40903       0.05118       0.63219
                        -----------------------------------------
Magnitude (a.u.)       :      0.75471
Magnitude (Debye)      :      1.91832

Rotational constants in cm-1:     0.016009     0.009055     0.006081
Rotational constants in MHz :   479.937475   271.457581   182.316176

                             ****ORCA TERMINATED NORMALLY****
TOTAL RUN TIME: 0 days 0 hours 0 minutes 21 seconds 153 msec
