                         Program Version 4.2.1 -  RELEASE  -
|  1> ! wB97X-D3 SP def2-SVP
|  2> %pal
|  3> nprocs 24
|  4> end
|  5>
|  6> * xyz 0 1
|  7> S 	 -72.6616 	 8.87322 	 -111.131
|  8> C 	 -73.3635 	 8.43837 	 -109.612
|  9> C 	 -72.3522 	 8.11767 	 -108.705
| 10> C 	 -71.076 	 8.01207 	 -109.356
| 11> C 	 -71.0569 	 8.32781 	 -110.71
| 12> H 	 -70.2651 	 7.50508 	 -108.859
| 13> C 	 -72.5686 	 7.49857 	 -107.324
| 14> H 	 -71.71 	 7.78428 	 -106.696
| 15> H 	 -72.6461 	 6.39576 	 -107.39
| 16> C 	 -73.7412 	 8.17389 	 -106.611
| 17> H 	 -73.6754 	 9.21748 	 -106.748
| 18> H 	 -74.7322 	 8.03604 	 -107.107
| 19> C 	 -73.8229 	 8.04575 	 -105.073
| 20> H 	 -73.8402 	 6.96869 	 -104.829
| 21> H 	 -72.9188 	 8.53239 	 -104.68
| 22> H 	 -74.721 	 8.46524 	 -104.642
| 23> S 	 -70.1602 	 8.41399 	 -113.323
| 24> C 	 -68.4809 	 8.44313 	 -113.617
| 25> C 	 -67.7778 	 8.42981 	 -112.481
| 26> C 	 -68.5298 	 8.26532 	 -111.304
| 27> C 	 -69.9024 	 8.23406 	 -111.587
| 28> H 	 -66.7014 	 8.35751 	 -112.442
| 29> C 	 -67.8628 	 8.29576 	 -109.948
| 30> H 	 -66.8137 	 7.90309 	 -109.929
| 31> H 	 -68.2203 	 7.54417 	 -109.289
| 32> C 	 -67.801 	 9.73257 	 -109.327
| 33> H 	 -68.7613 	 10.0104 	 -108.877
| 34> H 	 -67.6779 	 10.3973 	 -110.186
| 35> C 	 -66.6487 	 9.92392 	 -108.381
| 36> H 	 -66.5941 	 11.0191 	 -108.266
| 37> H 	 -65.723 	 9.58172 	 -108.84
| 38> H 	 -66.8932 	 9.54094 	 -107.403
| 39> H 	 -74.4316 	 8.51496 	 -109.409
| 40> H 	 -67.9853 	 8.29191 	 -114.539
| 41> *
| 42>
| 43>                          ****END OF INPUT****

CARTESIAN COORDINATES (ANGSTROEM)
---------------------------------
  S    -72.661600    8.873220  -111.131000
  C    -73.363500    8.438370  -109.612000
  C    -72.352200    8.117670  -108.705000
  C    -71.076000    8.012070  -109.356000
  C    -71.056900    8.327810  -110.710000
  H    -70.265100    7.505080  -108.859000
  C    -72.568600    7.498570  -107.324000
  H    -71.710000    7.784280  -106.696000
  H    -72.646100    6.395760  -107.390000
  C    -73.741200    8.173890  -106.611000
  H    -73.675400    9.217480  -106.748000
  H    -74.732200    8.036040  -107.107000
  C    -73.822900    8.045750  -105.073000
  H    -73.840200    6.968690  -104.829000
  H    -72.918800    8.532390  -104.680000
  H    -74.721000    8.465240  -104.642000
  S    -70.160200    8.413990  -113.323000
  C    -68.480900    8.443130  -113.617000
  C    -67.777800    8.429810  -112.481000
  C    -68.529800    8.265320  -111.304000
  C    -69.902400    8.234060  -111.587000
  H    -66.701400    8.357510  -112.442000
  C    -67.862800    8.295760  -109.948000
  H    -66.813700    7.903090  -109.929000
  H    -68.220300    7.544170  -109.289000
  C    -67.801000    9.732570  -109.327000
  H    -68.761300   10.010400  -108.877000
  H    -67.677900   10.397300  -110.186000
  C    -66.648700    9.923920  -108.381000
  H    -66.594100   11.019100  -108.266000
  H    -65.723000    9.581720  -108.840000
  H    -66.893200    9.540940  -107.403000
  H    -74.431600    8.514960  -109.409000
  H    -67.985300    8.291910  -114.539000

 Total Charge           Charge          ....    0
 Multiplicity           Mult            ....    1
 Number of Electrons    NEL             ....  134
 Basis Dimension        Dim             ....  322

ORBITAL ENERGIES
----------------

  NO   OCC          E(Eh)            E(eV)
   0   2.0000     -88.966925     -2420.9131
   1   2.0000     -88.965938     -2420.8862
   2   2.0000     -10.331627      -281.1379
   3   2.0000     -10.331397      -281.1316
   4   2.0000     -10.315181      -280.6903
   5   2.0000     -10.308498      -280.5085
   6   2.0000     -10.303309      -280.3673
   7   2.0000     -10.301490      -280.3178
   8   2.0000     -10.298026      -280.2235
   9   2.0000     -10.292040      -280.0606
  10   2.0000     -10.289496      -279.9914
  11   2.0000     -10.285361      -279.8789
  12   2.0000     -10.283956      -279.8407
  13   2.0000     -10.282355      -279.7971
  14   2.0000     -10.281053      -279.7617
  15   2.0000     -10.277129      -279.6549
  16   2.0000      -8.082353      -219.9320
  17   2.0000      -8.080872      -219.8917
  18   2.0000      -6.040845      -164.3797
  19   2.0000      -6.039539      -164.3442
  20   2.0000      -6.036774      -164.2690
  21   2.0000      -6.035166      -164.2252
  22   2.0000      -6.033078      -164.1684
  23   2.0000      -6.031659      -164.1298
  24   2.0000      -1.012248       -27.5447
  25   2.0000      -0.989965       -26.9383
  26   2.0000      -0.911522       -24.8038
  27   2.0000      -0.910925       -24.7875
  28   2.0000      -0.872258       -23.7353
  29   2.0000      -0.858103       -23.3502
  30   2.0000      -0.846211       -23.0266
  31   2.0000      -0.814958       -22.1761
  32   2.0000      -0.784016       -21.3342
  33   2.0000      -0.771586       -20.9959
  34   2.0000      -0.711123       -19.3506
  35   2.0000      -0.698669       -19.0117
  36   2.0000      -0.691426       -18.8147
  37   2.0000      -0.665919       -18.1206
  38   2.0000      -0.636624       -17.3234
  39   2.0000      -0.621361       -16.9081
  40   2.0000      -0.604248       -16.4424
  41   2.0000      -0.571186       -15.5428
  42   2.0000      -0.567009       -15.4291
  43   2.0000      -0.564368       -15.3572
  44   2.0000      -0.525919       -14.3110
  45   2.0000      -0.524694       -14.2776
  46   2.0000      -0.517684       -14.0869
  47   2.0000      -0.515324       -14.0227
  48   2.0000      -0.509497       -13.8641
  49   2.0000      -0.506157       -13.7732
  50   2.0000      -0.490021       -13.3341
  51   2.0000      -0.482574       -13.1315
  52   2.0000      -0.478250       -13.0138
  53   2.0000      -0.465206       -12.6589
  54   2.0000      -0.458634       -12.4801
  55   2.0000      -0.451726       -12.2921
  56   2.0000      -0.443928       -12.0799
  57   2.0000      -0.432376       -11.7656
  58   2.0000      -0.429521       -11.6879
  59   2.0000      -0.424929       -11.5629
  60   2.0000      -0.416814       -11.3421
  61   2.0000      -0.411867       -11.2075
  62   2.0000      -0.409388       -11.1400
  63   2.0000      -0.365808        -9.9541
  64   2.0000      -0.336482        -9.1561
  65   2.0000      -0.327857        -8.9214
  66   2.0000      -0.281254        -7.6533
  67   0.0000       0.018014         0.4902
  68   0.0000       0.087696         2.3863
  69   0.0000       0.106070         2.8863
  70   0.0000       0.119895         3.2625
  71   0.0000       0.136921         3.7258

MULLIKEN ATOMIC CHARGES
-----------------------
   0 S :    0.108309
   1 C :   -0.141631
   2 C :   -0.082043
   3 C :   -0.013424
   4 C :   -0.097067
   5 H :    0.000458
   6 C :    0.069611
   7 H :    0.021593
   8 H :    0.061049
   9 C :   -0.119954
  10 H :    0.014458
  11 H :    0.022551
  12 C :   -0.031941
  13 H :    0.030188
  14 H :    0.036598
  15 H :    0.035310
  16 S :    0.104757
  17 C :   -0.051677
  18 C :   -0.024463
  19 C :   -0.050521
  20 C :   -0.130195
  21 H :    0.010018
  22 C :    0.030648
  23 H :    0.008479
  24 H :    0.014298
  25 C :   -0.069547
  26 H :    0.036209
  27 H :    0.027294
  28 C :   -0.026587
  29 H :    0.032105
  30 H :    0.034418
  31 H :    0.033641
  32 H :    0.063415
  33 H :    0.043639
Sum of atomic charges:    0.0000000

LOEWDIN ATOMIC CHARGES
----------------------
   0 S :    0.412686
   1 C :   -0.204420
   2 C :   -0.066004
   3 C :   -0.072046
   4 C :   -0.191658
   5 H :    0.026039
   6 C :   -0.029013
   7 H :    0.032327
   8 H :    0.038685
   9 C :   -0.054982
  10 H :    0.018994
  11 H :    0.021005
  12 C :   -0.061787
  13 H :    0.024457
  14 H :    0.026581
  15 H :    0.026517
  16 S :    0.417740
  17 C :   -0.190193
  18 C :   -0.071844
  19 C :   -0.051690
  20 C :   -0.186849
  21 H :    0.030203
  22 C :   -0.040769
  23 H :    0.033112
  24 H :    0.020469
  25 C :   -0.036996
  26 H :    0.026160
  27 H :    0.025284
  28 C :   -0.062943
  29 H :    0.032683
  30 H :    0.024686
  31 H :    0.024068
  32 H :    0.031260
  33 H :    0.028236

  Mayer bond orders larger than 0.100000
B(  0-S ,  1-C ) :   1.1473 B(  0-S ,  4-C ) :   1.1433 B(  1-C ,  2-C ) :   1.5688
B(  1-C , 32-H ) :   0.9714 B(  2-C ,  3-C ) :   1.2749 B(  2-C ,  6-C ) :   1.0296
B(  3-C ,  4-C ) :   1.5432 B(  3-C ,  5-H ) :   0.9926 B(  4-C , 20-C ) :   1.1056
B(  6-C ,  7-H ) :   0.9381 B(  6-C ,  8-H ) :   0.9415 B(  6-C ,  9-C ) :   1.0570
B(  9-C , 10-H ) :   0.9595 B(  9-C , 11-H ) :   0.9482 B(  9-C , 12-C ) :   1.0833
B( 12-C , 13-H ) :   0.9768 B( 12-C , 14-H ) :   0.9754 B( 12-C , 15-H ) :   0.9734
B( 16-S , 17-C ) :   1.1569 B( 16-S , 20-C ) :   1.1365 B( 17-C , 18-C ) :   1.5944
B( 17-C , 33-H ) :   0.9667 B( 18-C , 19-C ) :   1.2899 B( 18-C , 21-H ) :   0.9854
B( 19-C , 20-C ) :   1.5505 B( 19-C , 22-C ) :   1.0524 B( 22-C , 23-H ) :   0.9337
B( 22-C , 24-H ) :   0.9282 B( 22-C , 25-C ) :   1.0390 B( 25-C , 26-H ) :   0.9499
B( 25-C , 27-H ) :   0.9591 B( 25-C , 28-C ) :   1.0937 B( 28-C , 29-H ) :   0.9721
B( 28-C , 30-H ) :   0.9722 B( 28-C , 31-H ) :   0.9741

Dispersion correction           -0.013775447
FINAL SINGLE POINT ENERGY     -1339.876974388469

DIPOLE MOMENT
-------------
                                X             Y             Z
Electronic contribution:     -6.04608      -1.27235     -30.37497
Nuclear contribution   :      6.43303       1.15748      30.91033
                        -----------------------------------------
Total Dipole Moment    :      0.38695      -0.11487       0.53537
                        -----------------------------------------
Magnitude (a.u.)       :      0.67048
Magnitude (Debye)      :      1.70423

Rotational constants in cm-1:     0.019528     0.008198     0.006077
Rotational constants in MHz :   585.438092   245.773547   182.182911

                             ****ORCA TERMINATED NORMALLY****
TOTAL RUN TIME: 0 days 0 hours 0 minutes 21 seconds 491 msec
