                         Program Version 4.2.1 -  RELEASE  -
|  1> ! wB97X-D3 SP def2-SVP
|  2> %pal
|  3> nprocs 24
|  4> end
|  5>
|  6> * xyz 0 1
|  7> S 	 -63.8155 	 12.6503 	 -94.489
|  8> C 	 -63.9492 	 14.297 	 -94.9506
|  9> C 	 -63.2159 	 15.0964 	 -94.0455
| 10> C 	 -62.6569 	 14.3634 	 -93.0117
| 11> C 	 -62.6872 	 12.9669 	 -93.1959
| 12> H 	 -62.1975 	 14.8269 	 -92.1374
| 13> C 	 -63.3927 	 16.6313 	 -93.9864
| 14> H 	 -64.1386 	 16.8477 	 -93.245
| 15> H 	 -63.8257 	 16.7728 	 -95.0108
| 16> C 	 -62.0716 	 17.4233 	 -93.7217
| 17> H 	 -62.308 	 18.4776 	 -93.8446
| 18> H 	 -61.8391 	 17.3355 	 -92.6696
| 19> C 	 -60.8636 	 17.0898 	 -94.6116
| 20> H 	 -60.0454 	 17.7979 	 -94.4779
| 21> H 	 -60.4539 	 16.1183 	 -94.291
| 22> H 	 -61.1841 	 17.0746 	 -95.5975
| 23> S 	 -63.259 	 10.477 	 -91.9584
| 24> C 	 -62.0856 	 9.85183 	 -90.8312
| 25> C 	 -60.7975 	 10.3954 	 -91.0845
| 26> C 	 -60.8761 	 11.5528 	 -91.8756
| 27> C 	 -62.1446 	 11.8399 	 -92.4099
| 28> H 	 -59.9225 	 10.0251 	 -90.5653
| 29> C 	 -59.6688 	 12.4502 	 -91.9669
| 30> H 	 -59.655 	 12.9968 	 -92.9438
| 31> H 	 -58.7698 	 11.8589 	 -91.8748
| 32> C 	 -59.4638 	 13.5007 	 -90.861
| 33> H 	 -58.7026 	 13.3688 	 -90.0494
| 34> H 	 -60.3775 	 13.6466 	 -90.2054
| 35> C 	 -59.0213 	 14.8872 	 -91.5422
| 36> H 	 -58.0979 	 14.8479 	 -92.0552
| 37> H 	 -58.9011 	 15.5919 	 -90.7963
| 38> H 	 -59.7184 	 15.093 	 -92.2787
| 39> H 	 -64.5028 	 14.6624 	 -95.7782
| 40> H 	 -62.214 	 9.1196 	 -90.1341
| 41> *
| 42>
| 43>                          ****END OF INPUT****

CARTESIAN COORDINATES (ANGSTROEM)
---------------------------------
  S    -63.815500   12.650300  -94.489000
  C    -63.949200   14.297000  -94.950600
  C    -63.215900   15.096400  -94.045500
  C    -62.656900   14.363400  -93.011700
  C    -62.687200   12.966900  -93.195900
  H    -62.197500   14.826900  -92.137400
  C    -63.392700   16.631300  -93.986400
  H    -64.138600   16.847700  -93.245000
  H    -63.825700   16.772800  -95.010800
  C    -62.071600   17.423300  -93.721700
  H    -62.308000   18.477600  -93.844600
  H    -61.839100   17.335500  -92.669600
  C    -60.863600   17.089800  -94.611600
  H    -60.045400   17.797900  -94.477900
  H    -60.453900   16.118300  -94.291000
  H    -61.184100   17.074600  -95.597500
  S    -63.259000   10.477000  -91.958400
  C    -62.085600    9.851830  -90.831200
  C    -60.797500   10.395400  -91.084500
  C    -60.876100   11.552800  -91.875600
  C    -62.144600   11.839900  -92.409900
  H    -59.922500   10.025100  -90.565300
  C    -59.668800   12.450200  -91.966900
  H    -59.655000   12.996800  -92.943800
  H    -58.769800   11.858900  -91.874800
  C    -59.463800   13.500700  -90.861000
  H    -58.702600   13.368800  -90.049400
  H    -60.377500   13.646600  -90.205400
  C    -59.021300   14.887200  -91.542200
  H    -58.097900   14.847900  -92.055200
  H    -58.901100   15.591900  -90.796300
  H    -59.718400   15.093000  -92.278700
  H    -64.502800   14.662400  -95.778200
  H    -62.214000    9.119600  -90.134100

 Total Charge           Charge          ....    0
 Multiplicity           Mult            ....    1
 Number of Electrons    NEL             ....  134
 Basis Dimension        Dim             ....  322

ORBITAL ENERGIES
----------------

  NO   OCC          E(Eh)            E(eV)
   0   2.0000     -88.969115     -2420.9727
   1   2.0000     -88.967194     -2420.9204
   2   2.0000     -10.336277      -281.2644
   3   2.0000     -10.335793      -281.2512
   4   2.0000     -10.319120      -280.7975
   5   2.0000     -10.312531      -280.6182
   6   2.0000     -10.306877      -280.4644
   7   2.0000     -10.297392      -280.2063
   8   2.0000     -10.297036      -280.1966
   9   2.0000     -10.296531      -280.1829
  10   2.0000     -10.296069      -280.1703
  11   2.0000     -10.293508      -280.1006
  12   2.0000     -10.293257      -280.0938
  13   2.0000     -10.286478      -279.9093
  14   2.0000     -10.273178      -279.5474
  15   2.0000     -10.267046      -279.3805
  16   2.0000      -8.082877      -219.9463
  17   2.0000      -8.082406      -219.9335
  18   2.0000      -6.041436      -164.3958
  19   2.0000      -6.040707      -164.3760
  20   2.0000      -6.037569      -164.2906
  21   2.0000      -6.036724      -164.2676
  22   2.0000      -6.033580      -164.1821
  23   2.0000      -6.033484      -164.1794
  24   2.0000      -1.005313       -27.3560
  25   2.0000      -0.983947       -26.7746
  26   2.0000      -0.907004       -24.6808
  27   2.0000      -0.904474       -24.6120
  28   2.0000      -0.864993       -23.5377
  29   2.0000      -0.851332       -23.1659
  30   2.0000      -0.845971       -23.0200
  31   2.0000      -0.814242       -22.1567
  32   2.0000      -0.783763       -21.3273
  33   2.0000      -0.773419       -21.0458
  34   2.0000      -0.712645       -19.3921
  35   2.0000      -0.699539       -19.0354
  36   2.0000      -0.695134       -18.9156
  37   2.0000      -0.663354       -18.0508
  38   2.0000      -0.639710       -17.4074
  39   2.0000      -0.622995       -16.9526
  40   2.0000      -0.597972       -16.2716
  41   2.0000      -0.564853       -15.3704
  42   2.0000      -0.561065       -15.2674
  43   2.0000      -0.558226       -15.1901
  44   2.0000      -0.538213       -14.6455
  45   2.0000      -0.526920       -14.3382
  46   2.0000      -0.518361       -14.1053
  47   2.0000      -0.515129       -14.0174
  48   2.0000      -0.508583       -13.8393
  49   2.0000      -0.499427       -13.5901
  50   2.0000      -0.489991       -13.3333
  51   2.0000      -0.478780       -13.0283
  52   2.0000      -0.474242       -12.9048
  53   2.0000      -0.469674       -12.7805
  54   2.0000      -0.457349       -12.4451
  55   2.0000      -0.453884       -12.3508
  56   2.0000      -0.445689       -12.1278
  57   2.0000      -0.444668       -12.1000
  58   2.0000      -0.433434       -11.7943
  59   2.0000      -0.426270       -11.5994
  60   2.0000      -0.417512       -11.3611
  61   2.0000      -0.408429       -11.1139
  62   2.0000      -0.398432       -10.8419
  63   2.0000      -0.347873        -9.4661
  64   2.0000      -0.333853        -9.0846
  65   2.0000      -0.331247        -9.0137
  66   2.0000      -0.281823        -7.6688
  67   0.0000       0.020348         0.5537
  68   0.0000       0.056190         1.5290
  69   0.0000       0.106740         2.9045
  70   0.0000       0.118093         3.2135
  71   0.0000       0.131946         3.5904

MULLIKEN ATOMIC CHARGES
-----------------------
   0 S :    0.112448
   1 C :   -0.110995
   2 C :   -0.118414
   3 C :    0.020387
   4 C :   -0.151617
   5 H :    0.021443
   6 C :    0.056400
   7 H :    0.048703
   8 H :    0.019920
   9 C :   -0.088318
  10 H :    0.026404
  11 H :    0.024977
  12 C :   -0.018393
  13 H :    0.034504
  14 H :    0.039086
  15 H :    0.022482
  16 S :    0.104883
  17 C :   -0.056264
  18 C :   -0.036895
  19 C :   -0.028708
  20 C :   -0.140975
  21 H :    0.023616
  22 C :    0.076624
  23 H :    0.044956
  24 H :    0.023704
  25 C :   -0.123884
  26 H :    0.033478
  27 H :    0.040591
  28 C :   -0.012537
  29 H :    0.023047
  30 H :    0.017206
  31 H :    0.004464
  32 H :    0.042596
  33 H :    0.025083
Sum of atomic charges:   -0.0000000

LOEWDIN ATOMIC CHARGES
----------------------
   0 S :    0.432351
   1 C :   -0.208796
   2 C :   -0.073241
   3 C :   -0.070605
   4 C :   -0.193870
   5 H :    0.033138
   6 C :   -0.025872
   7 H :    0.033588
   8 H :    0.031250
   9 C :   -0.044048
  10 H :    0.024082
  11 H :    0.019424
  12 C :   -0.055587
  13 H :    0.029095
  14 H :    0.026193
  15 H :    0.017353
  16 S :    0.386600
  17 C :   -0.160778
  18 C :   -0.067020
  19 C :   -0.053427
  20 C :   -0.185319
  21 H :    0.032917
  22 C :   -0.035415
  23 H :    0.038073
  24 H :    0.034680
  25 C :   -0.045521
  26 H :    0.025090
  27 H :    0.025977
  28 C :   -0.049293
  29 H :    0.022369
  30 H :    0.015659
  31 H :    0.008565
  32 H :    0.022580
  33 H :    0.009808

  Mayer bond orders larger than 0.100000
B(  0-S ,  1-C ) :   1.1746 B(  0-S ,  4-C ) :   1.1776 B(  1-C ,  2-C ) :   1.5375
B(  1-C ,  4-C ) :   0.1184 B(  1-C , 32-H ) :   0.9732 B(  2-C ,  3-C ) :   1.3091
B(  2-C ,  6-C ) :   1.0083 B(  3-C ,  4-C ) :   1.5070 B(  3-C ,  5-H ) :   0.9887
B(  4-C , 20-C ) :   1.0566 B(  6-C ,  7-H ) :   0.9488 B(  6-C ,  8-H ) :   0.9426
B(  6-C ,  9-C ) :   1.0648 B(  9-C , 10-H ) :   0.9562 B(  9-C , 11-H ) :   0.9547
B(  9-C , 12-C ) :   1.0797 B( 12-C , 13-H ) :   0.9737 B( 12-C , 14-H ) :   0.9676
B( 12-C , 15-H ) :   0.9748 B( 16-S , 17-C ) :   1.1755 B( 16-S , 20-C ) :   1.1153
B( 17-C , 18-C ) :   1.5747 B( 17-C , 20-C ) :   0.1131 B( 17-C , 33-H ) :   0.9795
B( 18-C , 19-C ) :   1.2574 B( 18-C , 21-H ) :   0.9900 B( 19-C , 20-C ) :   1.5693
B( 19-C , 22-C ) :   1.0693 B( 22-C , 23-H ) :   0.9461 B( 22-C , 24-H ) :   0.9262
B( 22-C , 25-C ) :   1.0189 B( 25-C , 26-H ) :   0.9619 B( 25-C , 27-H ) :   0.9644
B( 25-C , 28-C ) :   1.0726 B( 28-C , 29-H ) :   0.9744 B( 28-C , 30-H ) :   0.9714
B( 28-C , 31-H ) :   0.9780

Dispersion correction           -0.015702332
FINAL SINGLE POINT ENERGY     -1339.849910504458

DIPOLE MOMENT
-------------
                                X             Y             Z
Electronic contribution:    -18.85344     -25.73591      -2.74827
Nuclear contribution   :     19.25779      26.17757       3.08634
                        -----------------------------------------
Total Dipole Moment    :      0.40436       0.44166       0.33807
                        -----------------------------------------
Magnitude (a.u.)       :      0.68765
Magnitude (Debye)      :      1.74786

Rotational constants in cm-1:     0.018560     0.010290     0.007059
Rotational constants in MHz :   556.423121   308.492725   211.627243

                             ****ORCA TERMINATED NORMALLY****
TOTAL RUN TIME: 0 days 0 hours 0 minutes 22 seconds 998 msec
