                         Program Version 4.2.1 -  RELEASE  -
|  1> ! wB97X-D3 SP def2-SVP
|  2> %pal
|  3> nprocs 24
|  4> end
|  5>
|  6> * xyz 0 1
|  7> S 	 -132.745 	 59.5012 	 -63.2493
|  8> C 	 -133.056 	 61.1731 	 -63.5354
|  9> C 	 -132.576 	 61.9553 	 -62.4418
| 10> C 	 -132.106 	 61.1433 	 -61.3608
| 11> C 	 -132.156 	 59.7864 	 -61.6336
| 12> H 	 -131.655 	 61.5012 	 -60.4167
| 13> C 	 -132.58 	 63.4426 	 -62.4468
| 14> H 	 -132.622 	 63.8348 	 -63.5303
| 15> H 	 -131.58 	 63.7338 	 -62.0924
| 16> C 	 -133.589 	 64.0346 	 -61.5398
| 17> H 	 -133.398 	 63.5214 	 -60.5565
| 18> H 	 -133.308 	 65.0677 	 -61.3699
| 19> C 	 -134.984 	 64.0459 	 -62.0975
| 20> H 	 -135.432 	 63.0897 	 -62.2088
| 21> H 	 -135.705 	 64.5393 	 -61.321
| 22> H 	 -135.151 	 64.5687 	 -63.0647
| 23> S 	 -132.31 	 57.99 	 -59.5265
| 24> C 	 -130.772 	 57.169 	 -59.1264
| 25> C 	 -129.716 	 57.6017 	 -59.8961
| 26> C 	 -130.095 	 58.5992 	 -60.8283
| 27> C 	 -131.469 	 58.768 	 -60.8939
| 28> H 	 -128.669 	 57.2281 	 -59.6498
| 29> C 	 -129.109 	 59.1668 	 -61.8612
| 30> H 	 -129.245 	 60.2078 	 -61.7625
| 31> H 	 -129.53 	 58.8632 	 -62.8316
| 32> C 	 -127.599 	 59.0934 	 -61.7953
| 33> H 	 -127.26 	 59.4591 	 -60.8625
| 34> H 	 -127.191 	 59.7735 	 -62.5302
| 35> C 	 -127.034 	 57.6939 	 -62.1687
| 36> H 	 -125.963 	 57.5672 	 -62.19
| 37> H 	 -127.514 	 57.3866 	 -63.0709
| 38> H 	 -127.43 	 57.0816 	 -61.4074
| 39> H 	 -133.579 	 61.5182 	 -64.4488
| 40> H 	 -130.664 	 56.5706 	 -58.1914
| 41> *
| 42>
| 43>                          ****END OF INPUT****

CARTESIAN COORDINATES (ANGSTROEM)
---------------------------------
  S    -132.745000   59.501200  -63.249300
  C    -133.056000   61.173100  -63.535400
  C    -132.576000   61.955300  -62.441800
  C    -132.106000   61.143300  -61.360800
  C    -132.156000   59.786400  -61.633600
  H    -131.655000   61.501200  -60.416700
  C    -132.580000   63.442600  -62.446800
  H    -132.622000   63.834800  -63.530300
  H    -131.580000   63.733800  -62.092400
  C    -133.589000   64.034600  -61.539800
  H    -133.398000   63.521400  -60.556500
  H    -133.308000   65.067700  -61.369900
  C    -134.984000   64.045900  -62.097500
  H    -135.432000   63.089700  -62.208800
  H    -135.705000   64.539300  -61.321000
  H    -135.151000   64.568700  -63.064700
  S    -132.310000   57.990000  -59.526500
  C    -130.772000   57.169000  -59.126400
  C    -129.716000   57.601700  -59.896100
  C    -130.095000   58.599200  -60.828300
  C    -131.469000   58.768000  -60.893900
  H    -128.669000   57.228100  -59.649800
  C    -129.109000   59.166800  -61.861200
  H    -129.245000   60.207800  -61.762500
  H    -129.530000   58.863200  -62.831600
  C    -127.599000   59.093400  -61.795300
  H    -127.260000   59.459100  -60.862500
  H    -127.191000   59.773500  -62.530200
  C    -127.034000   57.693900  -62.168700
  H    -125.963000   57.567200  -62.190000
  H    -127.514000   57.386600  -63.070900
  H    -127.430000   57.081600  -61.407400
  H    -133.579000   61.518200  -64.448800
  H    -130.664000   56.570600  -58.191400

 Total Charge           Charge          ....    0
 Multiplicity           Mult            ....    1
 Number of Electrons    NEL             ....  134
 Basis Dimension        Dim             ....  322

ORBITAL ENERGIES
----------------

  NO   OCC          E(Eh)            E(eV)
   0   2.0000     -88.965964     -2420.8869
   1   2.0000     -88.964828     -2420.8561
   2   2.0000     -10.322961      -280.9021
   3   2.0000     -10.322387      -280.8864
   4   2.0000     -10.321834      -280.8714
   5   2.0000     -10.318369      -280.7771
   6   2.0000     -10.305841      -280.4362
   7   2.0000     -10.303717      -280.3784
   8   2.0000     -10.298668      -280.2410
   9   2.0000     -10.298306      -280.2311
  10   2.0000     -10.291591      -280.0484
  11   2.0000     -10.286477      -279.9093
  12   2.0000     -10.285392      -279.8797
  13   2.0000     -10.284588      -279.8579
  14   2.0000     -10.281398      -279.7711
  15   2.0000     -10.268813      -279.4286
  16   2.0000      -8.079923      -219.8659
  17   2.0000      -8.079651      -219.8585
  18   2.0000      -6.038216      -164.3082
  19   2.0000      -6.038075      -164.3044
  20   2.0000      -6.034499      -164.2071
  21   2.0000      -6.034212      -164.1993
  22   2.0000      -6.031070      -164.1138
  23   2.0000      -6.030367      -164.0946
  24   2.0000      -1.005295       -27.3555
  25   2.0000      -0.980466       -26.6798
  26   2.0000      -0.920950       -25.0603
  27   2.0000      -0.910514       -24.7764
  28   2.0000      -0.869193       -23.6519
  29   2.0000      -0.847812       -23.0701
  30   2.0000      -0.847428       -23.0597
  31   2.0000      -0.811380       -22.0788
  32   2.0000      -0.786803       -21.4100
  33   2.0000      -0.771598       -20.9962
  34   2.0000      -0.709871       -19.3166
  35   2.0000      -0.698944       -19.0192
  36   2.0000      -0.687518       -18.7083
  37   2.0000      -0.651937       -17.7401
  38   2.0000      -0.641157       -17.4468
  39   2.0000      -0.616652       -16.7800
  40   2.0000      -0.594347       -16.1730
  41   2.0000      -0.568279       -15.4636
  42   2.0000      -0.557543       -15.1715
  43   2.0000      -0.546186       -14.8625
  44   2.0000      -0.542331       -14.7576
  45   2.0000      -0.540599       -14.7105
  46   2.0000      -0.521410       -14.1883
  47   2.0000      -0.517091       -14.0708
  48   2.0000      -0.502051       -13.6615
  49   2.0000      -0.495547       -13.4845
  50   2.0000      -0.485788       -13.2190
  51   2.0000      -0.481538       -13.1033
  52   2.0000      -0.472526       -12.8581
  53   2.0000      -0.462679       -12.5901
  54   2.0000      -0.456982       -12.4351
  55   2.0000      -0.443581       -12.0704
  56   2.0000      -0.440323       -11.9818
  57   2.0000      -0.438572       -11.9341
  58   2.0000      -0.434850       -11.8329
  59   2.0000      -0.427555       -11.6344
  60   2.0000      -0.425262       -11.5720
  61   2.0000      -0.408979       -11.1289
  62   2.0000      -0.403589       -10.9822
  63   2.0000      -0.336327        -9.1519
  64   2.0000      -0.332498        -9.0477
  65   2.0000      -0.311686        -8.4814
  66   2.0000      -0.310026        -8.4362
  67   0.0000       0.042470         1.1557
  68   0.0000       0.047357         1.2887
  69   0.0000       0.107444         2.9237
  70   0.0000       0.113702         3.0940
  71   0.0000       0.133188         3.6242

MULLIKEN ATOMIC CHARGES
-----------------------
   0 S :    0.113746
   1 C :   -0.133627
   2 C :   -0.105560
   3 C :    0.039391
   4 C :   -0.180655
   5 H :    0.028952
   6 C :    0.038173
   7 H :    0.031006
   8 H :    0.023220
   9 C :   -0.037373
  10 H :    0.033979
  11 H :    0.023175
  12 C :   -0.071089
  13 H :    0.029106
  14 H :    0.039381
  15 H :    0.037816
  16 S :    0.098955
  17 C :   -0.109295
  18 C :   -0.060033
  19 C :   -0.022423
  20 C :   -0.178888
  21 H :    0.055016
  22 C :    0.068421
  23 H :    0.016177
  24 H :    0.039214
  25 C :   -0.045362
  26 H :    0.014647
  27 H :    0.027098
  28 C :   -0.005198
  29 H :    0.037881
  30 H :    0.021229
  31 H :   -0.004440
  32 H :    0.066190
  33 H :    0.071170
Sum of atomic charges:   -0.0000000

LOEWDIN ATOMIC CHARGES
----------------------
   0 S :    0.426093
   1 C :   -0.214946
   2 C :   -0.064115
   3 C :   -0.060483
   4 C :   -0.209203
   5 H :    0.038113
   6 C :   -0.042791
   7 H :    0.035209
   8 H :    0.032687
   9 C :   -0.048235
  10 H :    0.034109
  11 H :    0.023999
  12 C :   -0.073687
  13 H :    0.018924
  14 H :    0.037617
  15 H :    0.030230
  16 S :    0.379048
  17 C :   -0.175231
  18 C :   -0.086689
  19 C :   -0.043336
  20 C :   -0.205690
  21 H :    0.045248
  22 C :   -0.032544
  23 H :    0.033085
  24 H :    0.035974
  25 C :   -0.031950
  26 H :    0.017299
  27 H :    0.028111
  28 C :   -0.059537
  29 H :    0.024368
  30 H :    0.023756
  31 H :    0.014124
  32 H :    0.034756
  33 H :    0.035688

  Mayer bond orders larger than 0.100000
B(  0-S ,  1-C ) :   1.1639 B(  0-S ,  4-C ) :   1.1691 B(  1-C ,  2-C ) :   1.5530
B(  1-C ,  4-C ) :   0.1019 B(  1-C , 32-H ) :   0.9700 B(  2-C ,  3-C ) :   1.2647
B(  2-C ,  6-C ) :   1.0322 B(  3-C ,  4-C ) :   1.5579 B(  3-C ,  5-H ) :   0.9876
B(  4-C , 20-C ) :   1.0143 B(  6-C ,  7-H ) :   0.9427 B(  6-C ,  8-H ) :   0.9301
B(  6-C ,  9-C ) :   1.0836 B(  9-C , 10-H ) :   0.9490 B(  9-C , 11-H ) :   0.9493
B(  9-C , 12-C ) :   1.0746 B( 12-C , 13-H ) :   0.9758 B( 12-C , 14-H ) :   0.9711
B( 12-C , 15-H ) :   0.9721 B( 16-S , 17-C ) :   1.1537 B( 16-S , 20-C ) :   1.1259
B( 17-C , 18-C ) :   1.6271 B( 17-C , 20-C ) :   0.1005 B( 17-C , 33-H ) :   0.9575
B( 18-C , 19-C ) :   1.2390 B( 18-C , 21-H ) :   0.9666 B( 19-C , 20-C ) :   1.6115
B( 19-C , 22-C ) :   1.0135 B( 22-C , 23-H ) :   0.9130 B( 22-C , 24-H ) :   0.9383
B( 22-C , 25-C ) :   1.0912 B( 25-C , 26-H ) :   0.9529 B( 25-C , 27-H ) :   0.9508
B( 25-C , 28-C ) :   1.0672 B( 28-C , 29-H ) :   0.9741 B( 28-C , 30-H ) :   0.9717
B( 28-C , 31-H ) :   0.9773

Dispersion correction           -0.014814930
FINAL SINGLE POINT ENERGY     -1339.865401148121

DIPOLE MOMENT
-------------
                                X             Y             Z
Electronic contribution:    -10.28134     -15.47432       3.95418
Nuclear contribution   :     10.79533      16.01566      -3.90622
                        -----------------------------------------
Total Dipole Moment    :      0.51399       0.54134       0.04796
                        -----------------------------------------
Magnitude (a.u.)       :      0.74803
Magnitude (Debye)      :      1.90133

Rotational constants in cm-1:     0.021263     0.007737     0.006769
Rotational constants in MHz :   637.440346   231.959889   202.922517

                             ****ORCA TERMINATED NORMALLY****
TOTAL RUN TIME: 0 days 0 hours 0 minutes 22 seconds 618 msec
