                         Program Version 4.2.1 -  RELEASE  -
|  1> ! wB97X-D3 SP def2-SVP
|  2> %pal
|  3> nprocs 24
|  4> end
|  5>
|  6> * xyz 0 1
|  7> S 	 -55.7428 	 11.8624 	 -96.9309
|  8> C 	 -54.2312 	 12.6117 	 -97.3837
|  9> C 	 -53.988 	 13.7379 	 -96.6662
| 10> C 	 -55.1222 	 14.0805 	 -95.8248
| 11> C 	 -56.1348 	 13.1151 	 -95.7673
| 12> H 	 -55.2725 	 14.9239 	 -95.1544
| 13> C 	 -52.7798 	 14.6701 	 -96.8491
| 14> H 	 -51.8953 	 14.0564 	 -97.0801
| 15> H 	 -52.5301 	 15.0846 	 -95.889
| 16> C 	 -53.0194 	 15.7641 	 -97.9363
| 17> H 	 -53.0446 	 15.3632 	 -98.9547
| 18> H 	 -53.9178 	 16.285 	 -97.6691
| 19> C 	 -51.8508 	 16.7487 	 -98.0292
| 20> H 	 -52.0989 	 17.559 	 -98.7895
| 21> H 	 -51.6345 	 17.2103 	 -97.0701
| 22> H 	 -50.9679 	 16.3034 	 -98.3934
| 23> S 	 -58.8348 	 13.4724 	 -96.1587
| 24> C 	 -59.922 	 13.7469 	 -94.7929
| 25> C 	 -59.2426 	 13.5894 	 -93.6161
| 26> C 	 -57.8796 	 13.2644 	 -93.8325
| 27> C 	 -57.4718 	 13.2065 	 -95.1398
| 28> H 	 -59.6643 	 13.7755 	 -92.648
| 29> C 	 -56.9879 	 13.1908 	 -92.636
| 30> H 	 -56.0358 	 12.8287 	 -92.8713
| 31> H 	 -57.3714 	 12.4317 	 -92.002
| 32> C 	 -56.7891 	 14.5536 	 -91.8088
| 33> H 	 -57.7359 	 14.9298 	 -91.354
| 34> H 	 -56.5008 	 15.3297 	 -92.5639
| 35> C 	 -55.7477 	 14.5946 	 -90.6078
| 36> H 	 -54.704 	 14.3152 	 -90.8381
| 37> H 	 -56.1606 	 13.9972 	 -89.8025
| 38> H 	 -55.6498 	 15.5974 	 -90.1676
| 39> H 	 -53.4283 	 12.1797 	 -98.0625
| 40> H 	 -60.9723 	 14.0259 	 -94.908
| 41> *
| 42>
| 43>                          ****END OF INPUT****

CARTESIAN COORDINATES (ANGSTROEM)
---------------------------------
  S    -55.742800   11.862400  -96.930900
  C    -54.231200   12.611700  -97.383700
  C    -53.988000   13.737900  -96.666200
  C    -55.122200   14.080500  -95.824800
  C    -56.134800   13.115100  -95.767300
  H    -55.272500   14.923900  -95.154400
  C    -52.779800   14.670100  -96.849100
  H    -51.895300   14.056400  -97.080100
  H    -52.530100   15.084600  -95.889000
  C    -53.019400   15.764100  -97.936300
  H    -53.044600   15.363200  -98.954700
  H    -53.917800   16.285000  -97.669100
  C    -51.850800   16.748700  -98.029200
  H    -52.098900   17.559000  -98.789500
  H    -51.634500   17.210300  -97.070100
  H    -50.967900   16.303400  -98.393400
  S    -58.834800   13.472400  -96.158700
  C    -59.922000   13.746900  -94.792900
  C    -59.242600   13.589400  -93.616100
  C    -57.879600   13.264400  -93.832500
  C    -57.471800   13.206500  -95.139800
  H    -59.664300   13.775500  -92.648000
  C    -56.987900   13.190800  -92.636000
  H    -56.035800   12.828700  -92.871300
  H    -57.371400   12.431700  -92.002000
  C    -56.789100   14.553600  -91.808800
  H    -57.735900   14.929800  -91.354000
  H    -56.500800   15.329700  -92.563900
  C    -55.747700   14.594600  -90.607800
  H    -54.704000   14.315200  -90.838100
  H    -56.160600   13.997200  -89.802500
  H    -55.649800   15.597400  -90.167600
  H    -53.428300   12.179700  -98.062500
  H    -60.972300   14.025900  -94.908000

 Total Charge           Charge          ....    0
 Multiplicity           Mult            ....    1
 Number of Electrons    NEL             ....  134
 Basis Dimension        Dim             ....  322

ORBITAL ENERGIES
----------------

  NO   OCC          E(Eh)            E(eV)
   0   2.0000     -88.964463     -2420.8461
   1   2.0000     -88.962866     -2420.8027
   2   2.0000     -10.333273      -281.1826
   3   2.0000     -10.325979      -280.9842
   4   2.0000     -10.320836      -280.8442
   5   2.0000     -10.317360      -280.7496
   6   2.0000     -10.302592      -280.3478
   7   2.0000     -10.300786      -280.2987
   8   2.0000     -10.299319      -280.2587
   9   2.0000     -10.298572      -280.2384
  10   2.0000     -10.296069      -280.1703
  11   2.0000     -10.291644      -280.0499
  12   2.0000     -10.287786      -279.9449
  13   2.0000     -10.285060      -279.8707
  14   2.0000     -10.284224      -279.8480
  15   2.0000     -10.277491      -279.6647
  16   2.0000      -8.079184      -219.8458
  17   2.0000      -8.078102      -219.8163
  18   2.0000      -6.037734      -164.2951
  19   2.0000      -6.036675      -164.2663
  20   2.0000      -6.033593      -164.1824
  21   2.0000      -6.032426      -164.1507
  22   2.0000      -6.029985      -164.0842
  23   2.0000      -6.028848      -164.0533
  24   2.0000      -1.008749       -27.4495
  25   2.0000      -0.986583       -26.8463
  26   2.0000      -0.908619       -24.7248
  27   2.0000      -0.897704       -24.4278
  28   2.0000      -0.871659       -23.7190
  29   2.0000      -0.845149       -22.9977
  30   2.0000      -0.844321       -22.9751
  31   2.0000      -0.817167       -22.2363
  32   2.0000      -0.780791       -21.2464
  33   2.0000      -0.771739       -21.0001
  34   2.0000      -0.703730       -19.1495
  35   2.0000      -0.699737       -19.0408
  36   2.0000      -0.695660       -18.9299
  37   2.0000      -0.665797       -18.1173
  38   2.0000      -0.640820       -17.4376
  39   2.0000      -0.613966       -16.7069
  40   2.0000      -0.598343       -16.2818
  41   2.0000      -0.571661       -15.5557
  42   2.0000      -0.564914       -15.3721
  43   2.0000      -0.555159       -15.1066
  44   2.0000      -0.525512       -14.2999
  45   2.0000      -0.518004       -14.0956
  46   2.0000      -0.515642       -14.0313
  47   2.0000      -0.509866       -13.8742
  48   2.0000      -0.505356       -13.7514
  49   2.0000      -0.501744       -13.6531
  50   2.0000      -0.491517       -13.3749
  51   2.0000      -0.477397       -12.9906
  52   2.0000      -0.470348       -12.7988
  53   2.0000      -0.466147       -12.6845
  54   2.0000      -0.460293       -12.5252
  55   2.0000      -0.451122       -12.2756
  56   2.0000      -0.440293       -11.9810
  57   2.0000      -0.433531       -11.7970
  58   2.0000      -0.430521       -11.7151
  59   2.0000      -0.426500       -11.6056
  60   2.0000      -0.423812       -11.5325
  61   2.0000      -0.417573       -11.3627
  62   2.0000      -0.414894       -11.2898
  63   2.0000      -0.344394        -9.3714
  64   2.0000      -0.328904        -8.9499
  65   2.0000      -0.326184        -8.8759
  66   2.0000      -0.306004        -8.3268
  67   0.0000       0.040645         1.1060
  68   0.0000       0.062165         1.6916
  69   0.0000       0.122621         3.3367
  70   0.0000       0.123400         3.3579
  71   0.0000       0.130628         3.5546

MULLIKEN ATOMIC CHARGES
-----------------------
   0 S :    0.105701
   1 C :   -0.134548
   2 C :   -0.089180
   3 C :    0.039270
   4 C :   -0.176896
   5 H :    0.013087
   6 C :    0.067544
   7 H :    0.018392
   8 H :    0.016563
   9 C :   -0.050944
  10 H :    0.034132
  11 H :    0.032352
  12 C :   -0.050974
  13 H :    0.041335
  14 H :    0.025923
  15 H :    0.019802
  16 S :    0.106606
  17 C :   -0.102344
  18 C :   -0.009459
  19 C :   -0.053354
  20 C :   -0.146030
  21 H :    0.015857
  22 C :    0.128878
  23 H :    0.001589
  24 H :    0.015366
  25 C :   -0.120152
  26 H :    0.032039
  27 H :    0.036463
  28 C :   -0.063419
  29 H :    0.040985
  30 H :    0.033370
  31 H :    0.034191
  32 H :    0.071174
  33 H :    0.066681
Sum of atomic charges:    0.0000000

LOEWDIN ATOMIC CHARGES
----------------------
   0 S :    0.403007
   1 C :   -0.204148
   2 C :   -0.070916
   3 C :   -0.058779
   4 C :   -0.197537
   5 H :    0.030606
   6 C :   -0.029027
   7 H :    0.029639
   8 H :    0.026033
   9 C :   -0.032712
  10 H :    0.029335
  11 H :    0.023397
  12 C :   -0.065818
  13 H :    0.034878
  14 H :    0.019872
  15 H :    0.015746
  16 S :    0.412956
  17 C :   -0.173263
  18 C :   -0.066607
  19 C :   -0.059332
  20 C :   -0.213626
  21 H :    0.031284
  22 C :   -0.026742
  23 H :    0.021219
  24 H :    0.027480
  25 C :   -0.041189
  26 H :    0.023508
  27 H :    0.023933
  28 C :   -0.073159
  29 H :    0.026018
  30 H :    0.023953
  31 H :    0.030049
  32 H :    0.046344
  33 H :    0.033598

  Mayer bond orders larger than 0.100000
B(  0-S ,  1-C ) :   1.1414 B(  0-S ,  4-C ) :   1.1484 B(  1-C ,  2-C ) :   1.6349
B(  1-C , 32-H ) :   0.9541 B(  2-C ,  3-C ) :   1.2183 B(  2-C ,  6-C ) :   1.0306
B(  3-C ,  4-C ) :   1.6029 B(  3-C ,  5-H ) :   0.9904 B(  4-C , 20-C ) :   0.9976
B(  6-C ,  7-H ) :   0.9392 B(  6-C ,  8-H ) :   0.9405 B(  6-C ,  9-C ) :   1.0602
B(  9-C , 10-H ) :   0.9572 B(  9-C , 11-H ) :   0.9586 B(  9-C , 12-C ) :   1.0843
B( 12-C , 13-H ) :   0.9740 B( 12-C , 14-H ) :   0.9753 B( 12-C , 15-H ) :   0.9758
B( 16-S , 17-C ) :   1.1616 B( 16-S , 20-C ) :   1.1425 B( 17-C , 18-C ) :   1.5886
B( 17-C , 33-H ) :   0.9679 B( 18-C , 19-C ) :   1.2441 B( 18-C , 21-H ) :   0.9982
B( 19-C , 20-C ) :   1.6117 B( 19-C , 22-C ) :   1.0705 B( 22-C , 23-H ) :   0.9280
B( 22-C , 24-H ) :   0.9255 B( 22-C , 25-C ) :   1.0383 B( 25-C , 26-H ) :   0.9567
B( 25-C , 27-H ) :   0.9612 B( 25-C , 28-C ) :   1.0761 B( 28-C , 29-H ) :   0.9779
B( 28-C , 30-H ) :   0.9773 B( 28-C , 31-H ) :   0.9748

Dispersion correction           -0.013677839
FINAL SINGLE POINT ENERGY     -1339.884996066011

DIPOLE MOMENT
-------------
                                X             Y             Z
Electronic contribution:    -19.04107     -16.98543     -12.11306
Nuclear contribution   :     19.37062      17.47103      12.49773
                        -----------------------------------------
Total Dipole Moment    :      0.32956       0.48559       0.38467
                        -----------------------------------------
Magnitude (a.u.)       :      0.70169
Magnitude (Debye)      :      1.78356

Rotational constants in cm-1:     0.016959     0.007971     0.006445
Rotational constants in MHz :   508.428716   238.977254   193.212782

                             ****ORCA TERMINATED NORMALLY****
TOTAL RUN TIME: 0 days 0 hours 0 minutes 20 seconds 788 msec
