                         Program Version 4.2.1 -  RELEASE  -
|  1> ! wB97X-D3 SP def2-SVP
|  2> %pal
|  3> nprocs 24
|  4> end
|  5>
|  6> * xyz 0 1
|  7> S 	 13.3004 	 -15.4054 	 -118.404
|  8> C 	 11.7574 	 -14.677 	 -118.264
|  9> C 	 10.7654 	 -15.5588 	 -117.904
| 10> C 	 11.239 	 -16.8845 	 -117.686
| 11> C 	 12.5872 	 -16.9604 	 -117.896
| 12> H 	 10.6312 	 -17.7034 	 -117.296
| 13> C 	 9.3173 	 -15.1214 	 -117.575
| 14> H 	 8.7153 	 -15.3041 	 -118.472
| 15> H 	 9.4199 	 -14.0571 	 -117.425
| 16> C 	 8.48029 	 -15.7818 	 -116.389
| 17> H 	 8.37921 	 -16.8467 	 -116.631
| 18> H 	 9.1602 	 -15.8341 	 -115.558
| 19> C 	 7.08185 	 -15.1888 	 -116.189
| 20> H 	 6.46711 	 -14.8977 	 -117.024
| 21> H 	 6.40276 	 -15.7295 	 -115.424
| 22> H 	 7.30151 	 -14.2195 	 -115.703
| 23> S 	 14.4241 	 -18.7043 	 -118.794
| 24> C 	 14.9615 	 -20.0579 	 -117.862
| 25> C 	 14.5328 	 -19.9291 	 -116.499
| 26> C 	 13.6135 	 -18.8113 	 -116.358
| 27> C 	 13.4724 	 -18.0408 	 -117.515
| 28> H 	 14.843 	 -20.6383 	 -115.748
| 29> C 	 13.036 	 -18.4651 	 -114.988
| 30> H 	 12.7393 	 -17.3797 	 -114.938
| 31> H 	 13.8896 	 -18.6698 	 -114.294
| 32> C 	 11.7472 	 -19.2849 	 -114.489
| 33> H 	 11.1874 	 -19.5445 	 -115.415
| 34> H 	 11.1632 	 -18.6322 	 -113.899
| 35> C 	 11.9889 	 -20.6382 	 -113.721
| 36> H 	 12.099 	 -20.3508 	 -112.674
| 37> H 	 12.8579 	 -21.1975 	 -114.006
| 38> H 	 11.2507 	 -21.4754 	 -113.753
| 39> H 	 11.6223 	 -13.5998 	 -118.47
| 40> H 	 15.6172 	 -20.7211 	 -118.296
| 41> *
| 42>
| 43>                          ****END OF INPUT****

CARTESIAN COORDINATES (ANGSTROEM)
---------------------------------
  S     13.300400  -15.405400  -118.404000
  C     11.757400  -14.677000  -118.264000
  C     10.765400  -15.558800  -117.904000
  C     11.239000  -16.884500  -117.686000
  C     12.587200  -16.960400  -117.896000
  H     10.631200  -17.703400  -117.296000
  C      9.317300  -15.121400  -117.575000
  H      8.715300  -15.304100  -118.472000
  H      9.419900  -14.057100  -117.425000
  C      8.480290  -15.781800  -116.389000
  H      8.379210  -16.846700  -116.631000
  H      9.160200  -15.834100  -115.558000
  C      7.081850  -15.188800  -116.189000
  H      6.467110  -14.897700  -117.024000
  H      6.402760  -15.729500  -115.424000
  H      7.301510  -14.219500  -115.703000
  S     14.424100  -18.704300  -118.794000
  C     14.961500  -20.057900  -117.862000
  C     14.532800  -19.929100  -116.499000
  C     13.613500  -18.811300  -116.358000
  C     13.472400  -18.040800  -117.515000
  H     14.843000  -20.638300  -115.748000
  C     13.036000  -18.465100  -114.988000
  H     12.739300  -17.379700  -114.938000
  H     13.889600  -18.669800  -114.294000
  C     11.747200  -19.284900  -114.489000
  H     11.187400  -19.544500  -115.415000
  H     11.163200  -18.632200  -113.899000
  C     11.988900  -20.638200  -113.721000
  H     12.099000  -20.350800  -112.674000
  H     12.857900  -21.197500  -114.006000
  H     11.250700  -21.475400  -113.753000
  H     11.622300  -13.599800  -118.470000
  H     15.617200  -20.721100  -118.296000

 Total Charge           Charge          ....    0
 Multiplicity           Mult            ....    1
 Number of Electrons    NEL             ....  134
 Basis Dimension        Dim             ....  322

ORBITAL ENERGIES
----------------

  NO   OCC          E(Eh)            E(eV)
   0   2.0000     -88.966743     -2420.9082
   1   2.0000     -88.962252     -2420.7859
   2   2.0000     -10.328691      -281.0580
   3   2.0000     -10.322139      -280.8797
   4   2.0000     -10.317423      -280.7514
   5   2.0000     -10.313449      -280.6432
   6   2.0000     -10.308326      -280.5038
   7   2.0000     -10.303073      -280.3609
   8   2.0000     -10.301929      -280.3297
   9   2.0000     -10.301846      -280.3275
  10   2.0000     -10.295865      -280.1647
  11   2.0000     -10.295844      -280.1642
  12   2.0000     -10.295512      -280.1551
  13   2.0000     -10.294081      -280.1162
  14   2.0000     -10.291149      -280.0364
  15   2.0000     -10.281595      -279.7764
  16   2.0000      -8.081925      -219.9204
  17   2.0000      -8.078054      -219.8150
  18   2.0000      -6.040335      -164.3659
  19   2.0000      -6.036514      -164.2619
  20   2.0000      -6.036351      -164.2575
  21   2.0000      -6.032617      -164.1558
  22   2.0000      -6.032210      -164.1448
  23   2.0000      -6.029182      -164.0624
  24   2.0000      -1.008152       -27.4332
  25   2.0000      -0.983941       -26.7744
  26   2.0000      -0.902458       -24.5571
  27   2.0000      -0.895508       -24.3680
  28   2.0000      -0.869726       -23.6664
  29   2.0000      -0.852714       -23.2035
  30   2.0000      -0.844497       -22.9799
  31   2.0000      -0.814085       -22.1524
  32   2.0000      -0.779637       -21.2150
  33   2.0000      -0.768253       -20.9052
  34   2.0000      -0.713539       -19.4164
  35   2.0000      -0.701874       -19.0990
  36   2.0000      -0.689848       -18.7717
  37   2.0000      -0.668113       -18.1803
  38   2.0000      -0.642646       -17.4873
  39   2.0000      -0.620819       -16.8934
  40   2.0000      -0.589780       -16.0487
  41   2.0000      -0.566660       -15.4196
  42   2.0000      -0.556631       -15.1467
  43   2.0000      -0.547580       -14.9004
  44   2.0000      -0.539067       -14.6688
  45   2.0000      -0.517901       -14.0928
  46   2.0000      -0.512985       -13.9590
  47   2.0000      -0.508029       -13.8242
  48   2.0000      -0.502361       -13.6699
  49   2.0000      -0.500255       -13.6126
  50   2.0000      -0.494098       -13.4451
  51   2.0000      -0.482469       -13.1286
  52   2.0000      -0.479666       -13.0524
  53   2.0000      -0.473067       -12.8728
  54   2.0000      -0.455392       -12.3918
  55   2.0000      -0.451245       -12.2790
  56   2.0000      -0.438591       -11.9347
  57   2.0000      -0.434561       -11.8250
  58   2.0000      -0.429933       -11.6991
  59   2.0000      -0.426022       -11.5927
  60   2.0000      -0.423155       -11.5146
  61   2.0000      -0.411898       -11.2083
  62   2.0000      -0.410029       -11.1575
  63   2.0000      -0.346007        -9.4153
  64   2.0000      -0.332220        -9.0402
  65   2.0000      -0.326014        -8.8713
  66   2.0000      -0.293001        -7.9730
  67   0.0000       0.035552         0.9674
  68   0.0000       0.062006         1.6873
  69   0.0000       0.112183         3.0527
  70   0.0000       0.115804         3.1512
  71   0.0000       0.128459         3.4956

MULLIKEN ATOMIC CHARGES
-----------------------
   0 S :    0.116604
   1 C :   -0.139623
   2 C :   -0.089640
   3 C :    0.021472
   4 C :   -0.130733
   5 H :    0.022552
   6 C :    0.049442
   7 H :    0.041097
   8 H :    0.017904
   9 C :   -0.068193
  10 H :    0.026998
  11 H :    0.029023
  12 C :   -0.074188
  13 H :    0.040505
  14 H :    0.053847
  15 H :    0.029550
  16 S :    0.105511
  17 C :   -0.077800
  18 C :   -0.031125
  19 C :   -0.029961
  20 C :   -0.160295
  21 H :    0.027193
  22 C :    0.003371
  23 H :    0.048091
  24 H :    0.040230
  25 C :   -0.054570
  26 H :    0.040421
  27 H :    0.027312
  28 C :   -0.074045
  29 H :    0.033793
  30 H :    0.020374
  31 H :    0.039049
  32 H :    0.059431
  33 H :    0.036402
Sum of atomic charges:   -0.0000000

LOEWDIN ATOMIC CHARGES
----------------------
   0 S :    0.407121
   1 C :   -0.210546
   2 C :   -0.067583
   3 C :   -0.057669
   4 C :   -0.184371
   5 H :    0.037704
   6 C :   -0.030255
   7 H :    0.032870
   8 H :    0.024446
   9 C :   -0.043321
  10 H :    0.020003
  11 H :    0.022004
  12 C :   -0.076988
  13 H :    0.026649
  14 H :    0.040338
  15 H :    0.029968
  16 S :    0.431300
  17 C :   -0.177297
  18 C :   -0.067618
  19 C :   -0.058762
  20 C :   -0.217931
  21 H :    0.030367
  22 C :   -0.034417
  23 H :    0.039002
  24 H :    0.035616
  25 C :   -0.035571
  26 H :    0.026272
  27 H :    0.017604
  28 C :   -0.078913
  29 H :    0.026082
  30 H :    0.019140
  31 H :    0.032705
  32 H :    0.032881
  33 H :    0.009168

  Mayer bond orders larger than 0.100000
B(  0-S ,  1-C ) :   1.1430 B(  0-S ,  4-C ) :   1.1533 B(  1-C ,  2-C ) :   1.6330
B(  1-C , 32-H ) :   0.9610 B(  2-C ,  3-C ) :   1.2274 B(  2-C ,  6-C ) :   1.0097
B(  3-C ,  4-C ) :   1.5906 B(  3-C ,  5-H ) :   0.9996 B(  4-C , 20-C ) :   0.9977
B(  6-C ,  7-H ) :   0.9344 B(  6-C ,  8-H ) :   0.9514 B(  6-C ,  9-C ) :   1.0580
B(  9-C , 10-H ) :   0.9500 B(  9-C , 11-H ) :   0.9632 B(  9-C , 12-C ) :   1.0645
B( 12-C , 13-H ) :   0.9774 B( 12-C , 14-H ) :   0.9743 B( 12-C , 15-H ) :   0.9749
B( 16-S , 17-C ) :   1.1931 B( 16-S , 20-C ) :   1.1596 B( 17-C , 18-C ) :   1.5459
B( 17-C , 20-C ) :   0.1082 B( 17-C , 33-H ) :   0.9830 B( 18-C , 19-C ) :   1.2515
B( 18-C , 21-H ) :   0.9939 B( 19-C , 20-C ) :   1.5816 B( 19-C , 22-C ) :   1.0440
B( 22-C , 23-H ) :   0.9441 B( 22-C , 24-H ) :   0.9475 B( 22-C , 25-C ) :   1.0390
B( 25-C , 26-H ) :   0.9628 B( 25-C , 27-H ) :   0.9670 B( 25-C , 28-C ) :   1.0544
B( 28-C , 29-H ) :   0.9790 B( 28-C , 30-H ) :   0.9792 B( 28-C , 31-H ) :   0.9776

Dispersion correction           -0.014346115
FINAL SINGLE POINT ENERGY     -1339.864991093995

DIPOLE MOMENT
-------------
                                X             Y             Z
Electronic contribution:     24.30536       3.13137     -20.96822
Nuclear contribution   :    -24.74251      -3.18895      21.47385
                        -----------------------------------------
Total Dipole Moment    :     -0.43715      -0.05757       0.50563
                        -----------------------------------------
Magnitude (a.u.)       :      0.67088
Magnitude (Debye)      :      1.70524

Rotational constants in cm-1:     0.016598     0.009258     0.006413
Rotational constants in MHz :   497.600333   277.544317   192.253528

                             ****ORCA TERMINATED NORMALLY****
TOTAL RUN TIME: 0 days 0 hours 0 minutes 21 seconds 295 msec
