                         Program Version 4.2.1 -  RELEASE  -
|  1> ! wB97X-D3 SP def2-SVP
|  2> %pal
|  3> nprocs 24
|  4> end
|  5>
|  6> * xyz 0 1
|  7> S 	 -108.211 	 36.6816 	 -16.9139
|  8> C 	 -106.712 	 37.4879 	 -16.5785
|  9> C 	 -105.737 	 37.1525 	 -17.5574
| 10> C 	 -106.359 	 36.3909 	 -18.5583
| 11> C 	 -107.658 	 35.9723 	 -18.3852
| 12> H 	 -105.91 	 36.0639 	 -19.445
| 13> C 	 -104.219 	 37.5124 	 -17.5213
| 14> H 	 -104.147 	 38.4836 	 -17.0453
| 15> H 	 -103.853 	 37.6349 	 -18.5096
| 16> C 	 -103.442 	 36.5388 	 -16.5823
| 17> H 	 -103.753 	 36.7706 	 -15.6348
| 18> H 	 -103.885 	 35.5862 	 -16.7931
| 19> C 	 -101.926 	 36.5879 	 -16.7282
| 20> H 	 -101.514 	 37.5542 	 -16.3956
| 21> H 	 -101.366 	 35.9144 	 -16.0937
| 22> H 	 -101.539 	 36.5507 	 -17.7865
| 23> S 	 -110.032 	 35.7729 	 -19.9099
| 24> C 	 -110.297 	 34.3054 	 -20.9288
| 25> C 	 -109.133 	 33.54 	 -20.9342
| 26> C 	 -108.071 	 34.0689 	 -20.1131
| 27> C 	 -108.434 	 35.1407 	 -19.3526
| 28> H 	 -109.051 	 32.5953 	 -21.4029
| 29> C 	 -106.826 	 33.2077 	 -19.8969
| 30> H 	 -105.88 	 33.7089 	 -19.6354
| 31> H 	 -106.557 	 32.6531 	 -20.8321
| 32> C 	 -107.062 	 32.0863 	 -18.8709
| 33> H 	 -108.053 	 31.6937 	 -18.9961
| 34> H 	 -107.13 	 32.4146 	 -17.8823
| 35> C 	 -105.878 	 31.032 	 -18.8357
| 36> H 	 -105.711 	 30.5808 	 -19.9195
| 37> H 	 -106.049 	 30.2513 	 -18.0681
| 38> H 	 -104.975 	 31.4873 	 -18.5065
| 39> H 	 -106.536 	 38.0901 	 -15.7149
| 40> H 	 -111.184 	 34.0223 	 -21.4816
| 41> *
| 42>
| 43>                          ****END OF INPUT****

CARTESIAN COORDINATES (ANGSTROEM)
---------------------------------
  S    -108.211000   36.681600  -16.913900
  C    -106.712000   37.487900  -16.578500
  C    -105.737000   37.152500  -17.557400
  C    -106.359000   36.390900  -18.558300
  C    -107.658000   35.972300  -18.385200
  H    -105.910000   36.063900  -19.445000
  C    -104.219000   37.512400  -17.521300
  H    -104.147000   38.483600  -17.045300
  H    -103.853000   37.634900  -18.509600
  C    -103.442000   36.538800  -16.582300
  H    -103.753000   36.770600  -15.634800
  H    -103.885000   35.586200  -16.793100
  C    -101.926000   36.587900  -16.728200
  H    -101.514000   37.554200  -16.395600
  H    -101.366000   35.914400  -16.093700
  H    -101.539000   36.550700  -17.786500
  S    -110.032000   35.772900  -19.909900
  C    -110.297000   34.305400  -20.928800
  C    -109.133000   33.540000  -20.934200
  C    -108.071000   34.068900  -20.113100
  C    -108.434000   35.140700  -19.352600
  H    -109.051000   32.595300  -21.402900
  C    -106.826000   33.207700  -19.896900
  H    -105.880000   33.708900  -19.635400
  H    -106.557000   32.653100  -20.832100
  C    -107.062000   32.086300  -18.870900
  H    -108.053000   31.693700  -18.996100
  H    -107.130000   32.414600  -17.882300
  C    -105.878000   31.032000  -18.835700
  H    -105.711000   30.580800  -19.919500
  H    -106.049000   30.251300  -18.068100
  H    -104.975000   31.487300  -18.506500
  H    -106.536000   38.090100  -15.714900
  H    -111.184000   34.022300  -21.481600

 Total Charge           Charge          ....    0
 Multiplicity           Mult            ....    1
 Number of Electrons    NEL             ....  134
 Basis Dimension        Dim             ....  322

ORBITAL ENERGIES
----------------

  NO   OCC          E(Eh)            E(eV)
   0   2.0000     -88.969579     -2420.9853
   1   2.0000     -88.965679     -2420.8792
   2   2.0000     -10.336171      -281.2615
   3   2.0000     -10.329325      -281.0752
   4   2.0000     -10.326629      -281.0019
   5   2.0000     -10.318505      -280.7808
   6   2.0000     -10.306822      -280.4629
   7   2.0000     -10.306711      -280.4599
   8   2.0000     -10.297408      -280.2067
   9   2.0000     -10.297228      -280.2018
  10   2.0000     -10.295152      -280.1453
  11   2.0000     -10.290151      -280.0092
  12   2.0000     -10.285865      -279.8926
  13   2.0000     -10.285015      -279.8695
  14   2.0000     -10.282625      -279.8045
  15   2.0000     -10.280812      -279.7551
  16   2.0000      -8.084536      -219.9914
  17   2.0000      -8.078762      -219.8343
  18   2.0000      -6.042941      -164.4368
  19   2.0000      -6.038741      -164.3225
  20   2.0000      -6.037556      -164.2903
  21   2.0000      -6.035655      -164.2385
  22   2.0000      -6.033562      -164.1816
  23   2.0000      -6.029226      -164.0636
  24   2.0000      -1.006285       -27.3824
  25   2.0000      -0.981119       -26.6976
  26   2.0000      -0.911103       -24.7924
  27   2.0000      -0.902972       -24.5711
  28   2.0000      -0.866702       -23.5842
  29   2.0000      -0.851160       -23.1612
  30   2.0000      -0.840838       -22.8804
  31   2.0000      -0.814438       -22.1620
  32   2.0000      -0.782357       -21.2890
  33   2.0000      -0.770737       -20.9728
  34   2.0000      -0.711553       -19.3623
  35   2.0000      -0.705719       -19.2036
  36   2.0000      -0.696415       -18.9504
  37   2.0000      -0.666868       -18.1464
  38   2.0000      -0.649779       -17.6814
  39   2.0000      -0.619906       -16.8685
  40   2.0000      -0.598172       -16.2771
  41   2.0000      -0.570782       -15.5318
  42   2.0000      -0.563937       -15.3455
  43   2.0000      -0.556116       -15.1327
  44   2.0000      -0.526187       -14.3183
  45   2.0000      -0.521175       -14.1819
  46   2.0000      -0.517502       -14.0819
  47   2.0000      -0.512066       -13.9340
  48   2.0000      -0.502560       -13.6754
  49   2.0000      -0.497987       -13.5509
  50   2.0000      -0.495174       -13.4744
  51   2.0000      -0.481562       -13.1040
  52   2.0000      -0.465433       -12.6651
  53   2.0000      -0.464318       -12.6347
  54   2.0000      -0.461710       -12.5638
  55   2.0000      -0.450867       -12.2687
  56   2.0000      -0.444334       -12.0910
  57   2.0000      -0.440525       -11.9873
  58   2.0000      -0.437319       -11.9001
  59   2.0000      -0.424785       -11.5590
  60   2.0000      -0.422369       -11.4932
  61   2.0000      -0.417688       -11.3659
  62   2.0000      -0.409451       -11.1417
  63   2.0000      -0.348170        -9.4742
  64   2.0000      -0.333032        -9.0623
  65   2.0000      -0.330220        -8.9857
  66   2.0000      -0.295575        -8.0430
  67   0.0000       0.024876         0.6769
  68   0.0000       0.070307         1.9131
  69   0.0000       0.105052         2.8586
  70   0.0000       0.122184         3.3248
  71   0.0000       0.132883         3.6159

MULLIKEN ATOMIC CHARGES
-----------------------
   0 S :    0.123593
   1 C :   -0.124427
   2 C :   -0.105099
   3 C :    0.034397
   4 C :   -0.150128
   5 H :   -0.014973
   6 C :    0.083802
   7 H :    0.017687
   8 H :    0.019861
   9 C :   -0.009077
  10 H :    0.002602
  11 H :    0.025334
  12 C :   -0.046542
  13 H :    0.016761
  14 H :    0.035228
  15 H :    0.037719
  16 S :    0.084430
  17 C :   -0.084777
  18 C :   -0.018770
  19 C :   -0.018724
  20 C :   -0.131534
  21 H :    0.012395
  22 C :    0.025111
  23 H :    0.025020
  24 H :    0.021578
  25 C :   -0.031525
  26 H :    0.014898
  27 H :    0.013235
  28 C :   -0.082288
  29 H :    0.045640
  30 H :    0.042644
  31 H :    0.028068
  32 H :    0.044850
  33 H :    0.063011
Sum of atomic charges:   -0.0000000

LOEWDIN ATOMIC CHARGES
----------------------
   0 S :    0.434369
   1 C :   -0.199016
   2 C :   -0.059538
   3 C :   -0.060981
   4 C :   -0.212968
   5 H :    0.019051
   6 C :   -0.017600
   7 H :    0.028697
   8 H :    0.022999
   9 C :   -0.028865
  10 H :    0.014011
  11 H :    0.022054
  12 C :   -0.072373
  13 H :    0.025920
  14 H :    0.026360
  15 H :    0.031821
  16 S :    0.356938
  17 C :   -0.164368
  18 C :   -0.060809
  19 C :   -0.059285
  20 C :   -0.169484
  21 H :    0.026037
  22 C :   -0.034538
  23 H :    0.028263
  24 H :    0.031949
  25 C :   -0.036201
  26 H :    0.020279
  27 H :    0.018032
  28 C :   -0.070486
  29 H :    0.033649
  30 H :    0.030420
  31 H :    0.018454
  32 H :    0.023444
  33 H :    0.033764

  Mayer bond orders larger than 0.100000
B(  0-S ,  1-C ) :   1.1804 B(  0-S ,  4-C ) :   1.1603 B(  1-C ,  2-C ) :   1.5351
B(  1-C ,  4-C ) :   0.1075 B(  1-C , 32-H ) :   0.9749 B(  2-C ,  3-C ) :   1.2933
B(  2-C ,  6-C ) :   1.0253 B(  3-C ,  4-C ) :   1.5424 B(  3-C ,  5-H ) :   1.0027
B(  4-C , 20-C ) :   1.0259 B(  6-C ,  7-H ) :   0.9383 B(  6-C ,  8-H ) :   0.9498
B(  6-C ,  9-C ) :   1.0443 B(  9-C , 10-H ) :   0.9520 B(  9-C , 11-H ) :   0.9628
B(  9-C , 12-C ) :   1.0794 B( 12-C , 13-H ) :   0.9697 B( 12-C , 14-H ) :   0.9743
B( 12-C , 15-H ) :   0.9770 B( 16-S , 17-C ) :   1.1264 B( 16-S , 20-C ) :   1.1149
B( 17-C , 18-C ) :   1.6330 B( 17-C , 33-H ) :   0.9693 B( 18-C , 19-C ) :   1.2114
B( 18-C , 21-H ) :   0.9893 B( 19-C , 20-C ) :   1.6403 B( 19-C , 22-C ) :   1.0546
B( 22-C , 23-H ) :   0.9409 B( 22-C , 24-H ) :   0.9381 B( 22-C , 25-C ) :   1.0526
B( 25-C , 26-H ) :   0.9570 B( 25-C , 27-H ) :   0.9510 B( 25-C , 28-C ) :   1.0683
B( 28-C , 29-H ) :   0.9762 B( 28-C , 30-H ) :   0.9750 B( 28-C , 31-H ) :   0.9754

Dispersion correction           -0.013882782
FINAL SINGLE POINT ENERGY     -1339.864411570405

DIPOLE MOMENT
-------------
                                X             Y             Z
Electronic contribution:    -28.72420      12.79281      -3.53436
Nuclear contribution   :     29.38462     -13.10062       3.59008
                        -----------------------------------------
Total Dipole Moment    :      0.66042      -0.30782       0.05572
                        -----------------------------------------
Magnitude (a.u.)       :      0.73076
Magnitude (Debye)      :      1.85745

Rotational constants in cm-1:     0.017570     0.008618     0.006429
Rotational constants in MHz :   526.739821   258.373981   192.738821

                             ****ORCA TERMINATED NORMALLY****
TOTAL RUN TIME: 0 days 0 hours 0 minutes 21 seconds 111 msec
