                         Program Version 4.2.1 -  RELEASE  -
|  1> ! wB97X-D3 SP def2-SVP
|  2> %pal
|  3> nprocs 24
|  4> end
|  5>
|  6> * xyz 0 1
|  7> S 	 -49.5427 	 -5.71254 	 -17.551
|  8> C 	 -50.9319 	 -6.70903 	 -17.3071
|  9> C 	 -52.1336 	 -6.03197 	 -17.604
| 10> C 	 -51.8642 	 -4.64783 	 -17.8083
| 11> C 	 -50.4938 	 -4.3458 	 -17.7278
| 12> H 	 -52.5517 	 -3.82021 	 -17.9118
| 13> C 	 -53.4829 	 -6.68792 	 -17.6162
| 14> H 	 -53.547 	 -7.44537 	 -16.7981
| 15> H 	 -53.4788 	 -7.21742 	 -18.5381
| 16> C 	 -54.6679 	 -5.72324 	 -17.5628
| 17> H 	 -55.5923 	 -6.31904 	 -17.3179
| 18> H 	 -54.5852 	 -4.95631 	 -16.7821
| 19> C 	 -54.8351 	 -4.99638 	 -18.905
| 20> H 	 -54.9005 	 -5.78848 	 -19.7201
| 21> H 	 -55.8193 	 -4.51066 	 -18.9093
| 22> H 	 -54.0852 	 -4.29118 	 -19.218
| 23> S 	 -48.9361 	 -3.02416 	 -19.6396
| 24> C 	 -48.2214 	 -1.48815 	 -19.1563
| 25> C 	 -48.7916 	 -1.04021 	 -17.9811
| 26> C 	 -49.8777 	 -1.83381 	 -17.4847
| 27> C 	 -49.7933 	 -3.10347 	 -18.0855
| 28> H 	 -48.4887 	 -0.156305 	 -17.4547
| 29> C 	 -50.5847 	 -1.53874 	 -16.2039
| 30> H 	 -51.4819 	 -2.1639 	 -16.0729
| 31> H 	 -50.9812 	 -0.459097 	 -16.2222
| 32> C 	 -49.6377 	 -1.6519 	 -15.0291
| 33> H 	 -48.7296 	 -1.13889 	 -15.3233
| 34> H 	 -49.2523 	 -2.72301 	 -14.9785
| 35> C 	 -50.0338 	 -0.968465 	 -13.7268
| 36> H 	 -50.8996 	 -1.36869 	 -13.2773
| 37> H 	 -50.3071 	 0.0523105 	 -13.8573
| 38> H 	 -49.2478 	 -0.977091 	 -12.9847
| 39> H 	 -50.8662 	 -7.76287 	 -16.9766
| 40> H 	 -47.5109 	 -0.987122 	 -19.6988
| 41> *
| 42>
| 43>                          ****END OF INPUT****

CARTESIAN COORDINATES (ANGSTROEM)
---------------------------------
  S    -49.542700   -5.712540  -17.551000
  C    -50.931900   -6.709030  -17.307100
  C    -52.133600   -6.031970  -17.604000
  C    -51.864200   -4.647830  -17.808300
  C    -50.493800   -4.345800  -17.727800
  H    -52.551700   -3.820210  -17.911800
  C    -53.482900   -6.687920  -17.616200
  H    -53.547000   -7.445370  -16.798100
  H    -53.478800   -7.217420  -18.538100
  C    -54.667900   -5.723240  -17.562800
  H    -55.592300   -6.319040  -17.317900
  H    -54.585200   -4.956310  -16.782100
  C    -54.835100   -4.996380  -18.905000
  H    -54.900500   -5.788480  -19.720100
  H    -55.819300   -4.510660  -18.909300
  H    -54.085200   -4.291180  -19.218000
  S    -48.936100   -3.024160  -19.639600
  C    -48.221400   -1.488150  -19.156300
  C    -48.791600   -1.040210  -17.981100
  C    -49.877700   -1.833810  -17.484700
  C    -49.793300   -3.103470  -18.085500
  H    -48.488700   -0.156305  -17.454700
  C    -50.584700   -1.538740  -16.203900
  H    -51.481900   -2.163900  -16.072900
  H    -50.981200   -0.459097  -16.222200
  C    -49.637700   -1.651900  -15.029100
  H    -48.729600   -1.138890  -15.323300
  H    -49.252300   -2.723010  -14.978500
  C    -50.033800   -0.968465  -13.726800
  H    -50.899600   -1.368690  -13.277300
  H    -50.307100    0.052310  -13.857300
  H    -49.247800   -0.977091  -12.984700
  H    -50.866200   -7.762870  -16.976600
  H    -47.510900   -0.987122  -19.698800

 Total Charge           Charge          ....    0
 Multiplicity           Mult            ....    1
 Number of Electrons    NEL             ....  134
 Basis Dimension        Dim             ....  322

ORBITAL ENERGIES
----------------

  NO   OCC          E(Eh)            E(eV)
   0   2.0000     -88.967076     -2420.9172
   1   2.0000     -88.963106     -2420.8092
   2   2.0000     -10.327757      -281.0326
   3   2.0000     -10.321353      -280.8583
   4   2.0000     -10.312379      -280.6141
   5   2.0000     -10.310105      -280.5522
   6   2.0000     -10.304200      -280.3915
   7   2.0000     -10.301441      -280.3165
   8   2.0000     -10.295286      -280.1490
   9   2.0000     -10.294789      -280.1355
  10   2.0000     -10.293833      -280.1094
  11   2.0000     -10.292232      -280.0659
  12   2.0000     -10.292185      -280.0646
  13   2.0000     -10.285518      -279.8832
  14   2.0000     -10.281586      -279.7762
  15   2.0000     -10.270254      -279.4678
  16   2.0000      -8.083345      -219.9590
  17   2.0000      -8.077331      -219.7953
  18   2.0000      -6.041495      -164.3974
  19   2.0000      -6.037501      -164.2888
  20   2.0000      -6.035911      -164.2455
  21   2.0000      -6.034525      -164.2078
  22   2.0000      -6.032063      -164.1408
  23   2.0000      -6.027891      -164.0272
  24   2.0000      -1.010345       -27.4929
  25   2.0000      -0.983409       -26.7599
  26   2.0000      -0.918234       -24.9864
  27   2.0000      -0.911567       -24.8050
  28   2.0000      -0.864957       -23.5367
  29   2.0000      -0.850138       -23.1334
  30   2.0000      -0.843508       -22.9530
  31   2.0000      -0.813241       -22.1294
  32   2.0000      -0.786361       -21.3980
  33   2.0000      -0.771010       -20.9803
  34   2.0000      -0.707900       -19.2629
  35   2.0000      -0.699181       -19.0257
  36   2.0000      -0.690083       -18.7781
  37   2.0000      -0.656674       -17.8690
  38   2.0000      -0.643352       -17.5065
  39   2.0000      -0.621614       -16.9150
  40   2.0000      -0.602845       -16.4042
  41   2.0000      -0.569535       -15.4978
  42   2.0000      -0.556943       -15.1552
  43   2.0000      -0.546647       -14.8750
  44   2.0000      -0.532206       -14.4821
  45   2.0000      -0.527911       -14.3652
  46   2.0000      -0.521213       -14.1829
  47   2.0000      -0.510408       -13.8889
  48   2.0000      -0.509596       -13.8668
  49   2.0000      -0.496889       -13.5210
  50   2.0000      -0.490222       -13.3396
  51   2.0000      -0.478746       -13.0273
  52   2.0000      -0.474082       -12.9004
  53   2.0000      -0.465994       -12.6803
  54   2.0000      -0.457144       -12.4395
  55   2.0000      -0.450097       -12.2478
  56   2.0000      -0.442148       -12.0315
  57   2.0000      -0.439500       -11.9594
  58   2.0000      -0.436647       -11.8818
  59   2.0000      -0.428597       -11.6627
  60   2.0000      -0.423788       -11.5318
  61   2.0000      -0.416067       -11.3218
  62   2.0000      -0.407189       -11.0802
  63   2.0000      -0.336649        -9.1607
  64   2.0000      -0.329320        -8.9612
  65   2.0000      -0.324330        -8.8255
  66   2.0000      -0.290881        -7.9153
  67   0.0000       0.035385         0.9629
  68   0.0000       0.058317         1.5869
  69   0.0000       0.108650         2.9565
  70   0.0000       0.124921         3.3993
  71   0.0000       0.127593         3.4720

MULLIKEN ATOMIC CHARGES
-----------------------
   0 S :    0.139050
   1 C :   -0.145663
   2 C :   -0.101557
   3 C :    0.037747
   4 C :   -0.188745
   5 H :    0.014621
   6 C :    0.087778
   7 H :    0.038938
   8 H :    0.033130
   9 C :   -0.082182
  10 H :    0.039711
  11 H :    0.035224
  12 C :   -0.087566
  13 H :    0.029804
  14 H :    0.036179
  15 H :    0.050063
  16 S :    0.107034
  17 C :   -0.050560
  18 C :   -0.031584
  19 C :   -0.021128
  20 C :   -0.170780
  21 H :    0.016616
  22 C :    0.041501
  23 H :    0.030576
  24 H :    0.030475
  25 C :   -0.087046
  26 H :    0.010763
  27 H :    0.037708
  28 C :    0.012003
  29 H :    0.014407
  30 H :    0.012177
  31 H :    0.031651
  32 H :    0.056365
  33 H :    0.023289
Sum of atomic charges:    0.0000000

LOEWDIN ATOMIC CHARGES
----------------------
   0 S :    0.465399
   1 C :   -0.219842
   2 C :   -0.055890
   3 C :   -0.067557
   4 C :   -0.228651
   5 H :    0.029437
   6 C :   -0.034314
   7 H :    0.036992
   8 H :    0.033032
   9 C :   -0.045242
  10 H :    0.034110
  11 H :    0.024034
  12 C :   -0.071583
  13 H :    0.029941
  14 H :    0.028091
  15 H :    0.021896
  16 S :    0.384187
  17 C :   -0.171898
  18 C :   -0.060011
  19 C :   -0.055895
  20 C :   -0.190625
  21 H :    0.026120
  22 C :   -0.040049
  23 H :    0.029677
  24 H :    0.037981
  25 C :   -0.046531
  26 H :    0.021837
  27 H :    0.035142
  28 C :   -0.060313
  29 H :    0.017762
  30 H :    0.022141
  31 H :    0.028906
  32 H :    0.031075
  33 H :    0.010639

  Mayer bond orders larger than 0.100000
B(  0-S ,  1-C ) :   1.1683 B(  0-S ,  4-C ) :   1.2049 B(  1-C ,  2-C ) :   1.5648
B(  1-C ,  4-C ) :   0.1071 B(  1-C , 32-H ) :   0.9708 B(  2-C ,  3-C ) :   1.2825
B(  2-C ,  6-C ) :   0.9998 B(  3-C ,  4-C ) :   1.5231 B(  3-C ,  5-H ) :   0.9873
B(  4-C , 20-C ) :   1.0116 B(  6-C ,  7-H ) :   0.9422 B(  6-C ,  8-H ) :   0.9281
B(  6-C ,  9-C ) :   1.0850 B(  9-C , 10-H ) :   0.9537 B(  9-C , 11-H ) :   0.9570
B(  9-C , 12-C ) :   1.0612 B( 12-C , 13-H ) :   0.9727 B( 12-C , 14-H ) :   0.9720
B( 12-C , 15-H ) :   0.9775 B( 16-S , 17-C ) :   1.1247 B( 16-S , 20-C ) :   1.1526
B( 17-C , 18-C ) :   1.6249 B( 17-C , 20-C ) :   0.1022 B( 17-C , 33-H ) :   0.9837
B( 18-C , 19-C ) :   1.2143 B( 18-C , 21-H ) :   0.9859 B( 19-C , 20-C ) :   1.5841
B( 19-C , 22-C ) :   1.0802 B( 22-C , 23-H ) :   0.9299 B( 22-C , 24-H ) :   0.9253
B( 22-C , 25-C ) :   1.0627 B( 25-C , 26-H ) :   0.9538 B( 25-C , 27-H ) :   0.9491
B( 25-C , 28-C ) :   1.0756 B( 28-C , 29-H ) :   0.9730 B( 28-C , 30-H ) :   0.9677
B( 28-C , 31-H ) :   0.9726

Dispersion correction           -0.014399518
FINAL SINGLE POINT ENERGY     -1339.870440149146

DIPOLE MOMENT
-------------
                                X             Y             Z
Electronic contribution:     18.61886      -5.96144     -13.46592
Nuclear contribution   :    -19.06849       6.05981      13.80131
                        -----------------------------------------
Total Dipole Moment    :     -0.44963       0.09837       0.33539
                        -----------------------------------------
Magnitude (a.u.)       :      0.56950
Magnitude (Debye)      :      1.44755

Rotational constants in cm-1:     0.017426     0.008837     0.007617
Rotational constants in MHz :   522.408174   264.926429   228.360239

                             ****ORCA TERMINATED NORMALLY****
TOTAL RUN TIME: 0 days 0 hours 0 minutes 22 seconds 77 msec
