                         Program Version 4.2.1 -  RELEASE  -
|  1> ! wB97X-D3 SP def2-SVP
|  2> %pal
|  3> nprocs 24
|  4> end
|  5>
|  6> * xyz 0 1
|  7> S 	 -105.436 	 1.08549 	 -104.629
|  8> C 	 -104.904 	 2.06446 	 -105.943
|  9> C 	 -103.734 	 2.79281 	 -105.633
| 10> C 	 -103.251 	 2.40395 	 -104.319
| 11> C 	 -104.011 	 1.42865 	 -103.721
| 12> H 	 -102.41 	 2.70387 	 -103.713
| 13> C 	 -102.926 	 3.69979 	 -106.55
| 14> H 	 -103.233 	 4.71381 	 -106.281
| 15> H 	 -103.315 	 3.54433 	 -107.627
| 16> C 	 -101.351 	 3.70789 	 -106.444
| 17> H 	 -100.888 	 3.96667 	 -105.488
| 18> H 	 -100.876 	 2.71947 	 -106.833
| 19> C 	 -100.848 	 4.82423 	 -107.324
| 20> H 	 -101.022 	 5.75716 	 -106.898
| 21> H 	 -99.8229 	 4.63256 	 -107.391
| 22> H 	 -101.144 	 4.78679 	 -108.405
| 23> S 	 -105.203 	 0.58839 	 -101.301
| 24> C 	 -104.247 	 -0.256185 	 -100.13
| 25> C 	 -102.982 	 -0.497122 	 -100.605
| 26> C 	 -102.751 	 0.0740521 	 -101.889
| 27> C 	 -103.827 	 0.760834 	 -102.421
| 28> H 	 -102.269 	 -1.08491 	 -100.086
| 29> C 	 -101.395 	 0.0118705 	 -102.569
| 30> H 	 -101.564 	 0.310179 	 -103.611
| 31> H 	 -101.023 	 -0.964171 	 -102.588
| 32> C 	 -100.349 	 0.949655 	 -101.922
| 33> H 	 -100.415 	 0.767112 	 -100.868
| 34> H 	 -100.637 	 2.00856 	 -101.766
| 35> C 	 -98.9335 	 0.681472 	 -102.342
| 36> H 	 -98.8433 	 -0.384404 	 -102.288
| 37> H 	 -98.2153 	 1.24771 	 -101.672
| 38> H 	 -98.7374 	 1.03882 	 -103.348
| 39> H 	 -105.362 	 2.10971 	 -106.914
| 40> H 	 -104.479 	 -0.498779 	 -99.0723
| 41> *
| 42>
| 43>                          ****END OF INPUT****

CARTESIAN COORDINATES (ANGSTROEM)
---------------------------------
  S    -105.436000    1.085490  -104.629000
  C    -104.904000    2.064460  -105.943000
  C    -103.734000    2.792810  -105.633000
  C    -103.251000    2.403950  -104.319000
  C    -104.011000    1.428650  -103.721000
  H    -102.410000    2.703870  -103.713000
  C    -102.926000    3.699790  -106.550000
  H    -103.233000    4.713810  -106.281000
  H    -103.315000    3.544330  -107.627000
  C    -101.351000    3.707890  -106.444000
  H    -100.888000    3.966670  -105.488000
  H    -100.876000    2.719470  -106.833000
  C    -100.848000    4.824230  -107.324000
  H    -101.022000    5.757160  -106.898000
  H    -99.822900    4.632560  -107.391000
  H    -101.144000    4.786790  -108.405000
  S    -105.203000    0.588390  -101.301000
  C    -104.247000   -0.256185  -100.130000
  C    -102.982000   -0.497122  -100.605000
  C    -102.751000    0.074052  -101.889000
  C    -103.827000    0.760834  -102.421000
  H    -102.269000   -1.084910  -100.086000
  C    -101.395000    0.011870  -102.569000
  H    -101.564000    0.310179  -103.611000
  H    -101.023000   -0.964171  -102.588000
  C    -100.349000    0.949655  -101.922000
  H    -100.415000    0.767112  -100.868000
  H    -100.637000    2.008560  -101.766000
  C    -98.933500    0.681472  -102.342000
  H    -98.843300   -0.384404  -102.288000
  H    -98.215300    1.247710  -101.672000
  H    -98.737400    1.038820  -103.348000
  H    -105.362000    2.109710  -106.914000
  H    -104.479000   -0.498779  -99.072300

 Total Charge           Charge          ....    0
 Multiplicity           Mult            ....    1
 Number of Electrons    NEL             ....  134
 Basis Dimension        Dim             ....  322

ORBITAL ENERGIES
----------------

  NO   OCC          E(Eh)            E(eV)
   0   2.0000     -88.965243     -2420.8673
   1   2.0000     -88.965047     -2420.8620
   2   2.0000     -10.328247      -281.0459
   3   2.0000     -10.325975      -280.9841
   4   2.0000     -10.318981      -280.7937
   5   2.0000     -10.313022      -280.6316
   6   2.0000     -10.308029      -280.4957
   7   2.0000     -10.305210      -280.4190
   8   2.0000     -10.300183      -280.2822
   9   2.0000     -10.300141      -280.2811
  10   2.0000     -10.293226      -280.0929
  11   2.0000     -10.289414      -279.9892
  12   2.0000     -10.285853      -279.8923
  13   2.0000     -10.281785      -279.7816
  14   2.0000     -10.280298      -279.7411
  15   2.0000     -10.270379      -279.4712
  16   2.0000      -8.080654      -219.8858
  17   2.0000      -8.079737      -219.8608
  18   2.0000      -6.039080      -164.3317
  19   2.0000      -6.038374      -164.3125
  20   2.0000      -6.035041      -164.2218
  21   2.0000      -6.034199      -164.1989
  22   2.0000      -6.031452      -164.1241
  23   2.0000      -6.030451      -164.0969
  24   2.0000      -1.007320       -27.4106
  25   2.0000      -0.984995       -26.8031
  26   2.0000      -0.912091       -24.8193
  27   2.0000      -0.910429       -24.7740
  28   2.0000      -0.871423       -23.7126
  29   2.0000      -0.855596       -23.2820
  30   2.0000      -0.847923       -23.0732
  31   2.0000      -0.817357       -22.2414
  32   2.0000      -0.781249       -21.2589
  33   2.0000      -0.768687       -20.9170
  34   2.0000      -0.706103       -19.2140
  35   2.0000      -0.701377       -19.0854
  36   2.0000      -0.690671       -18.7941
  37   2.0000      -0.661153       -17.9909
  38   2.0000      -0.646203       -17.5841
  39   2.0000      -0.614464       -16.7204
  40   2.0000      -0.595662       -16.2088
  41   2.0000      -0.573336       -15.6013
  42   2.0000      -0.567648       -15.4465
  43   2.0000      -0.560067       -15.2402
  44   2.0000      -0.531504       -14.4630
  45   2.0000      -0.523585       -14.2475
  46   2.0000      -0.520700       -14.1690
  47   2.0000      -0.507844       -13.8192
  48   2.0000      -0.506003       -13.7690
  49   2.0000      -0.500462       -13.6183
  50   2.0000      -0.496371       -13.5069
  51   2.0000      -0.478863       -13.0305
  52   2.0000      -0.466131       -12.6841
  53   2.0000      -0.464381       -12.6365
  54   2.0000      -0.462442       -12.5837
  55   2.0000      -0.450744       -12.2654
  56   2.0000      -0.446699       -12.1553
  57   2.0000      -0.439749       -11.9662
  58   2.0000      -0.434224       -11.8158
  59   2.0000      -0.429732       -11.6936
  60   2.0000      -0.420997       -11.4559
  61   2.0000      -0.416130       -11.3235
  62   2.0000      -0.401987       -10.9386
  63   2.0000      -0.349247        -9.5035
  64   2.0000      -0.330913        -9.0046
  65   2.0000      -0.327276        -8.9056
  66   2.0000      -0.289776        -7.8852
  67   0.0000       0.035641         0.9698
  68   0.0000       0.067506         1.8369
  69   0.0000       0.115265         3.1365
  70   0.0000       0.123406         3.3581
  71   0.0000       0.130399         3.5483

MULLIKEN ATOMIC CHARGES
-----------------------
   0 S :    0.120971
   1 C :   -0.119689
   2 C :   -0.060591
   3 C :    0.025706
   4 C :   -0.165944
   5 H :    0.004278
   6 C :    0.039614
   7 H :    0.035360
   8 H :    0.038665
   9 C :   -0.104086
  10 H :    0.040969
  11 H :    0.049218
  12 C :   -0.025389
  13 H :    0.026066
  14 H :    0.014239
  15 H :    0.030955
  16 S :    0.101920
  17 C :   -0.089624
  18 C :   -0.022876
  19 C :   -0.055718
  20 C :   -0.150166
  21 H :    0.006261
  22 C :    0.101435
  23 H :    0.029298
  24 H :    0.003841
  25 C :   -0.090146
  26 H :   -0.000528
  27 H :    0.018929
  28 C :   -0.012863
  29 H :    0.026015
  30 H :    0.041731
  31 H :    0.030268
  32 H :    0.041216
  33 H :    0.070666
Sum of atomic charges:    0.0000000

LOEWDIN ATOMIC CHARGES
----------------------
   0 S :    0.427369
   1 C :   -0.210581
   2 C :   -0.060359
   3 C :   -0.066603
   4 C :   -0.198273
   5 H :    0.031752
   6 C :   -0.040347
   7 H :    0.034929
   8 H :    0.041439
   9 C :   -0.042386
  10 H :    0.028798
  11 H :    0.033877
  12 C :   -0.060568
  13 H :    0.015453
  14 H :    0.020834
  15 H :    0.029039
  16 S :    0.395698
  17 C :   -0.193432
  18 C :   -0.072199
  19 C :   -0.054084
  20 C :   -0.192082
  21 H :    0.025736
  22 C :   -0.023362
  23 H :    0.030586
  24 H :    0.020813
  25 C :   -0.056208
  26 H :    0.019461
  27 H :    0.025650
  28 C :   -0.059920
  29 H :    0.023257
  30 H :    0.035595
  31 H :    0.022137
  32 H :    0.025301
  33 H :    0.042680

  Mayer bond orders larger than 0.100000
B(  0-S ,  1-C ) :   1.1491 B(  0-S ,  4-C ) :   1.1575 B(  1-C ,  2-C ) :   1.6055
B(  1-C , 32-H ) :   0.9708 B(  2-C ,  3-C ) :   1.2098 B(  2-C ,  6-C ) :   1.0174
B(  3-C ,  4-C ) :   1.5936 B(  3-C ,  5-H ) :   0.9955 B(  4-C , 20-C ) :   1.0237
B(  6-C ,  7-H ) :   0.9315 B(  6-C ,  8-H ) :   0.9484 B(  6-C ,  9-C ) :   1.0628
B(  9-C , 10-H ) :   0.9487 B(  9-C , 11-H ) :   0.9602 B(  9-C , 12-C ) :   1.0813
B( 12-C , 13-H ) :   0.9775 B( 12-C , 14-H ) :   0.9706 B( 12-C , 15-H ) :   0.9718
B( 16-S , 17-C ) :   1.1571 B( 16-S , 20-C ) :   1.1228 B( 17-C , 18-C ) :   1.6032
B( 17-C , 33-H ) :   0.9599 B( 18-C , 19-C ) :   1.2472 B( 18-C , 21-H ) :   0.9945
B( 19-C , 20-C ) :   1.6080 B( 19-C , 22-C ) :   1.0559 B( 22-C , 23-H ) :   0.9279
B( 22-C , 24-H ) :   0.9270 B( 22-C , 25-C ) :   1.0563 B( 25-C , 26-H ) :   0.9464
B( 25-C , 27-H ) :   0.9444 B( 25-C , 28-C ) :   1.0788 B( 28-C , 29-H ) :   0.9721
B( 28-C , 30-H ) :   0.9711 B( 28-C , 31-H ) :   0.9764

Dispersion correction           -0.013946763
FINAL SINGLE POINT ENERGY     -1339.867604881402

DIPOLE MOMENT
-------------
                                X             Y             Z
Electronic contribution:    -30.00828     -10.41414      10.29563
Nuclear contribution   :     30.78058      10.59700     -10.38058
                        -----------------------------------------
Total Dipole Moment    :      0.77230       0.18286      -0.08495
                        -----------------------------------------
Magnitude (a.u.)       :      0.79819
Magnitude (Debye)      :      2.02883

Rotational constants in cm-1:     0.016963     0.009418     0.006391
Rotational constants in MHz :   508.536131   282.331523   191.596662

                             ****ORCA TERMINATED NORMALLY****
TOTAL RUN TIME: 0 days 0 hours 0 minutes 21 seconds 658 msec
