                         Program Version 4.2.1 -  RELEASE  -
|  1> ! wB97X-D3 SP def2-SVP
|  2> %pal
|  3> nprocs 24
|  4> end
|  5>
|  6> * xyz 0 1
|  7> S 	 33.3904 	 -30.7347 	 -111.993
|  8> C 	 32.6982 	 -31.0671 	 -110.455
|  9> C 	 33.6912 	 -31.0705 	 -109.426
| 10> C 	 35.0069 	 -30.9656 	 -110.084
| 11> C 	 34.9976 	 -30.7956 	 -111.456
| 12> H 	 35.8551 	 -31.0987 	 -109.475
| 13> C 	 33.6778 	 -31.414 	 -107.943
| 14> H 	 34.6504 	 -31.7196 	 -107.662
| 15> H 	 32.9628 	 -32.1665 	 -107.706
| 16> C 	 33.4237 	 -30.1208 	 -107.206
| 17> H 	 34.2676 	 -29.4988 	 -107.383
| 18> H 	 32.537 	 -29.6636 	 -107.525
| 19> C 	 33.3642 	 -30.2854 	 -105.656
| 20> H 	 32.6915 	 -31.1831 	 -105.553
| 21> H 	 34.3245 	 -30.5085 	 -105.136
| 22> H 	 32.8473 	 -29.4861 	 -105.222
| 23> S 	 35.9759 	 -32.0852 	 -113.716
| 24> C 	 37.5553 	 -31.8421 	 -114.328
| 25> C 	 38.0979 	 -30.8031 	 -113.655
| 26> C 	 37.315 	 -30.2641 	 -112.602
| 27> C 	 36.0919 	 -30.9381 	 -112.406
| 28> H 	 39.021 	 -30.4524 	 -114.057
| 29> C 	 37.6322 	 -29.0524 	 -111.795
| 30> H 	 38.6371 	 -29.1144 	 -111.523
| 31> H 	 37.1147 	 -28.9883 	 -110.849
| 32> C 	 37.574 	 -27.7 	 -112.495
| 33> H 	 36.57 	 -27.6593 	 -112.842
| 34> H 	 38.2757 	 -27.6026 	 -113.422
| 35> C 	 37.7542 	 -26.4576 	 -111.525
| 36> H 	 37.0903 	 -26.6256 	 -110.741
| 37> H 	 37.371 	 -25.5558 	 -111.985
| 38> H 	 38.7614 	 -26.4389 	 -111.122
| 39> H 	 31.5986 	 -31.1659 	 -110.336
| 40> H 	 37.7991 	 -32.4331 	 -115.151
| 41> *
| 42>
| 43>                          ****END OF INPUT****

CARTESIAN COORDINATES (ANGSTROEM)
---------------------------------
  S     33.390400  -30.734700  -111.993000
  C     32.698200  -31.067100  -110.455000
  C     33.691200  -31.070500  -109.426000
  C     35.006900  -30.965600  -110.084000
  C     34.997600  -30.795600  -111.456000
  H     35.855100  -31.098700  -109.475000
  C     33.677800  -31.414000  -107.943000
  H     34.650400  -31.719600  -107.662000
  H     32.962800  -32.166500  -107.706000
  C     33.423700  -30.120800  -107.206000
  H     34.267600  -29.498800  -107.383000
  H     32.537000  -29.663600  -107.525000
  C     33.364200  -30.285400  -105.656000
  H     32.691500  -31.183100  -105.553000
  H     34.324500  -30.508500  -105.136000
  H     32.847300  -29.486100  -105.222000
  S     35.975900  -32.085200  -113.716000
  C     37.555300  -31.842100  -114.328000
  C     38.097900  -30.803100  -113.655000
  C     37.315000  -30.264100  -112.602000
  C     36.091900  -30.938100  -112.406000
  H     39.021000  -30.452400  -114.057000
  C     37.632200  -29.052400  -111.795000
  H     38.637100  -29.114400  -111.523000
  H     37.114700  -28.988300  -110.849000
  C     37.574000  -27.700000  -112.495000
  H     36.570000  -27.659300  -112.842000
  H     38.275700  -27.602600  -113.422000
  C     37.754200  -26.457600  -111.525000
  H     37.090300  -26.625600  -110.741000
  H     37.371000  -25.555800  -111.985000
  H     38.761400  -26.438900  -111.122000
  H     31.598600  -31.165900  -110.336000
  H     37.799100  -32.433100  -115.151000

 Total Charge           Charge          ....    0
 Multiplicity           Mult            ....    1
 Number of Electrons    NEL             ....  134
 Basis Dimension        Dim             ....  322

ORBITAL ENERGIES
----------------

  NO   OCC          E(Eh)            E(eV)
   0   2.0000     -88.966545     -2420.9028
   1   2.0000     -88.956266     -2420.6231
   2   2.0000     -10.328027      -281.0399
   3   2.0000     -10.327782      -281.0332
   4   2.0000     -10.322346      -280.8853
   5   2.0000     -10.311078      -280.5787
   6   2.0000     -10.310408      -280.5605
   7   2.0000     -10.303980      -280.3856
   8   2.0000     -10.293730      -280.1066
   9   2.0000     -10.291038      -280.0334
  10   2.0000     -10.289258      -279.9849
  11   2.0000     -10.287107      -279.9264
  12   2.0000     -10.279428      -279.7175
  13   2.0000     -10.278185      -279.6836
  14   2.0000     -10.278169      -279.6832
  15   2.0000     -10.273592      -279.5587
  16   2.0000      -8.082719      -219.9420
  17   2.0000      -8.072512      -219.6642
  18   2.0000      -6.041200      -164.3894
  19   2.0000      -6.036779      -164.2691
  20   2.0000      -6.033667      -164.1844
  21   2.0000      -6.030823      -164.1070
  22   2.0000      -6.026569      -163.9913
  23   2.0000      -6.023606      -163.9106
  24   2.0000      -1.013198       -27.5705
  25   2.0000      -0.991126       -26.9699
  26   2.0000      -0.921550       -25.0767
  27   2.0000      -0.909482       -24.7483
  28   2.0000      -0.872112       -23.7314
  29   2.0000      -0.849792       -23.1240
  30   2.0000      -0.844217       -22.9723
  31   2.0000      -0.815479       -22.1903
  32   2.0000      -0.784610       -21.3503
  33   2.0000      -0.775919       -21.1138
  34   2.0000      -0.702267       -19.1097
  35   2.0000      -0.701079       -19.0773
  36   2.0000      -0.696424       -18.9507
  37   2.0000      -0.662451       -18.0262
  38   2.0000      -0.645634       -17.5686
  39   2.0000      -0.628852       -17.1119
  40   2.0000      -0.606316       -16.4987
  41   2.0000      -0.580872       -15.8063
  42   2.0000      -0.570137       -15.5142
  43   2.0000      -0.562714       -15.3122
  44   2.0000      -0.526357       -14.3229
  45   2.0000      -0.525023       -14.2866
  46   2.0000      -0.523702       -14.2506
  47   2.0000      -0.517261       -14.0754
  48   2.0000      -0.506439       -13.7809
  49   2.0000      -0.503394       -13.6980
  50   2.0000      -0.496941       -13.5224
  51   2.0000      -0.486778       -13.2459
  52   2.0000      -0.469653       -12.7799
  53   2.0000      -0.468187       -12.7400
  54   2.0000      -0.458780       -12.4840
  55   2.0000      -0.450388       -12.2557
  56   2.0000      -0.443124       -12.0580
  57   2.0000      -0.436185       -11.8692
  58   2.0000      -0.428098       -11.6491
  59   2.0000      -0.425586       -11.5808
  60   2.0000      -0.419302       -11.4098
  61   2.0000      -0.415808       -11.3147
  62   2.0000      -0.406714       -11.0672
  63   2.0000      -0.350441        -9.5360
  64   2.0000      -0.326329        -8.8799
  65   2.0000      -0.325182        -8.8486
  66   2.0000      -0.294322        -8.0089
  67   0.0000       0.031693         0.8624
  68   0.0000       0.072265         1.9664
  69   0.0000       0.116031         3.1574
  70   0.0000       0.124951         3.4001
  71   0.0000       0.134983         3.6731

MULLIKEN ATOMIC CHARGES
-----------------------
   0 S :    0.124187
   1 C :   -0.151257
   2 C :   -0.115256
   3 C :    0.040775
   4 C :   -0.141473
   5 H :   -0.005937
   6 C :    0.119046
   7 H :    0.007040
   8 H :    0.025102
   9 C :   -0.081564
  10 H :    0.019613
  11 H :    0.021441
  12 C :   -0.033656
  13 H :    0.017955
  14 H :    0.044278
  15 H :    0.027578
  16 S :    0.083869
  17 C :   -0.079374
  18 C :   -0.008527
  19 C :   -0.028423
  20 C :   -0.139636
  21 H :    0.007164
  22 C :    0.116224
  23 H :   -0.005132
  24 H :    0.010068
  25 C :   -0.118077
  26 H :    0.018030
  27 H :    0.042213
  28 C :   -0.012116
  29 H :    0.007948
  30 H :    0.037581
  31 H :    0.036578
  32 H :    0.067515
  33 H :    0.046224
Sum of atomic charges:   -0.0000000

LOEWDIN ATOMIC CHARGES
----------------------
   0 S :    0.448808
   1 C :   -0.217816
   2 C :   -0.051345
   3 C :   -0.055675
   4 C :   -0.220909
   5 H :    0.019110
   6 C :   -0.018944
   7 H :    0.025986
   8 H :    0.025965
   9 C :   -0.030316
  10 H :    0.020325
  11 H :    0.017004
  12 C :   -0.066387
  13 H :    0.026688
  14 H :    0.028764
  15 H :    0.017796
  16 S :    0.419352
  17 C :   -0.177315
  18 C :   -0.073554
  19 C :   -0.053569
  20 C :   -0.201888
  21 H :    0.028653
  22 C :   -0.036049
  23 H :    0.020907
  24 H :    0.029821
  25 C :   -0.038254
  26 H :    0.015995
  27 H :    0.029172
  28 C :   -0.057246
  29 H :    0.016162
  30 H :    0.030011
  31 H :    0.025001
  32 H :    0.033716
  33 H :    0.020029

  Mayer bond orders larger than 0.100000
B(  0-S ,  1-C ) :   1.1706 B(  0-S ,  4-C ) :   1.1710 B(  1-C ,  2-C ) :   1.5569
B(  1-C , 32-H ) :   0.9688 B(  2-C ,  3-C ) :   1.2770 B(  2-C ,  6-C ) :   1.0331
B(  3-C ,  4-C ) :   1.5441 B(  3-C ,  5-H ) :   0.9955 B(  4-C , 20-C ) :   1.0319
B(  6-C ,  7-H ) :   0.9382 B(  6-C ,  8-H ) :   0.9415 B(  6-C ,  9-C ) :   1.0627
B(  9-C , 10-H ) :   0.9552 B(  9-C , 11-H ) :   0.9627 B(  9-C , 12-C ) :   1.0776
B( 12-C , 13-H ) :   0.9738 B( 12-C , 14-H ) :   0.9759 B( 12-C , 15-H ) :   0.9754
B( 16-S , 17-C ) :   1.1864 B( 16-S , 20-C ) :   1.1568 B( 17-C , 18-C ) :   1.5383
B( 17-C , 20-C ) :   0.1041 B( 17-C , 33-H ) :   0.9856 B( 18-C , 19-C ) :   1.2613
B( 18-C , 21-H ) :   1.0074 B( 19-C , 20-C ) :   1.5417 B( 19-C , 22-C ) :   1.0666
B( 22-C , 23-H ) :   0.9141 B( 22-C , 24-H ) :   0.9282 B( 22-C , 25-C ) :   1.0580
B( 25-C , 26-H ) :   0.9556 B( 25-C , 27-H ) :   0.9564 B( 25-C , 28-C ) :   1.0785
B( 28-C , 29-H ) :   0.9720 B( 28-C , 30-H ) :   0.9747 B( 28-C , 31-H ) :   0.9784

Dispersion correction           -0.013340824
FINAL SINGLE POINT ENERGY     -1339.856004063816

DIPOLE MOMENT
-------------
                                X             Y             Z
Electronic contribution:     -4.82699     -15.75424     -22.95908
Nuclear contribution   :      4.98743      15.91795      23.38148
                        -----------------------------------------
Total Dipole Moment    :      0.16044       0.16371       0.42241
                        -----------------------------------------
Magnitude (a.u.)       :      0.48059
Magnitude (Debye)      :      1.22157

Rotational constants in cm-1:     0.018316     0.007997     0.006356
Rotational constants in MHz :   549.103509   239.743617   190.538649

                             ****ORCA TERMINATED NORMALLY****
TOTAL RUN TIME: 0 days 0 hours 0 minutes 20 seconds 961 msec
