                         Program Version 4.2.1 -  RELEASE  -
|  1> ! wB97X-D3 SP def2-SVP
|  2> %pal
|  3> nprocs 24
|  4> end
|  5>
|  6> * xyz 0 1
|  7> S 	 -104.016 	 38.4662 	 -20.0372
|  8> C 	 -103.565 	 38.068 	 -18.3659
|  9> C 	 -103.6 	 36.7138 	 -18.0401
| 10> C 	 -103.783 	 35.9624 	 -19.2956
| 11> C 	 -104.186 	 36.7501 	 -20.4095
| 12> H 	 -103.638 	 34.8939 	 -19.3654
| 13> C 	 -103.23 	 36.1262 	 -16.7303
| 14> H 	 -104.006 	 35.4431 	 -16.3791
| 15> H 	 -103.161 	 36.8794 	 -15.9052
| 16> C 	 -101.899 	 35.3212 	 -16.9445
| 17> H 	 -102.02 	 34.5579 	 -17.6452
| 18> H 	 -101.113 	 35.9187 	 -17.3734
| 19> C 	 -101.39 	 34.7116 	 -15.5414
| 20> H 	 -100.556 	 34.1111 	 -15.8451
| 21> H 	 -101.22 	 35.4546 	 -14.8239
| 22> H 	 -102.141 	 34.0645 	 -15.1104
| 23> S 	 -105.872 	 37.233 	 -22.4802
| 24> C 	 -106.012 	 36.157 	 -23.8203
| 25> C 	 -105.113 	 35.1205 	 -23.7759
| 26> C 	 -104.361 	 35.2083 	 -22.5559
| 27> C 	 -104.675 	 36.2969 	 -21.7113
| 28> H 	 -104.866 	 34.559 	 -24.6378
| 29> C 	 -103.201 	 34.2319 	 -22.3546
| 30> H 	 -103.332 	 33.6186 	 -23.2756
| 31> H 	 -103.431 	 33.4976 	 -21.5794
| 32> C 	 -101.812 	 34.7843 	 -22.0826
| 33> H 	 -101.73 	 35.2566 	 -21.0828
| 34> H 	 -101.678 	 35.6404 	 -22.7014
| 35> C 	 -100.604 	 33.8108 	 -22.2784
| 36> H 	 -100.6 	 33.1237 	 -21.3911
| 37> H 	 -99.6432 	 34.2856 	 -22.2465
| 38> H 	 -100.769 	 33.263 	 -23.2584
| 39> H 	 -103.391 	 38.8199 	 -17.6383
| 40> H 	 -106.553 	 36.429 	 -24.7391
| 41> *
| 42>
| 43>                          ****END OF INPUT****

CARTESIAN COORDINATES (ANGSTROEM)
---------------------------------
  S    -104.016000   38.466200  -20.037200
  C    -103.565000   38.068000  -18.365900
  C    -103.600000   36.713800  -18.040100
  C    -103.783000   35.962400  -19.295600
  C    -104.186000   36.750100  -20.409500
  H    -103.638000   34.893900  -19.365400
  C    -103.230000   36.126200  -16.730300
  H    -104.006000   35.443100  -16.379100
  H    -103.161000   36.879400  -15.905200
  C    -101.899000   35.321200  -16.944500
  H    -102.020000   34.557900  -17.645200
  H    -101.113000   35.918700  -17.373400
  C    -101.390000   34.711600  -15.541400
  H    -100.556000   34.111100  -15.845100
  H    -101.220000   35.454600  -14.823900
  H    -102.141000   34.064500  -15.110400
  S    -105.872000   37.233000  -22.480200
  C    -106.012000   36.157000  -23.820300
  C    -105.113000   35.120500  -23.775900
  C    -104.361000   35.208300  -22.555900
  C    -104.675000   36.296900  -21.711300
  H    -104.866000   34.559000  -24.637800
  C    -103.201000   34.231900  -22.354600
  H    -103.332000   33.618600  -23.275600
  H    -103.431000   33.497600  -21.579400
  C    -101.812000   34.784300  -22.082600
  H    -101.730000   35.256600  -21.082800
  H    -101.678000   35.640400  -22.701400
  C    -100.604000   33.810800  -22.278400
  H    -100.600000   33.123700  -21.391100
  H    -99.643200   34.285600  -22.246500
  H    -100.769000   33.263000  -23.258400
  H    -103.391000   38.819900  -17.638300
  H    -106.553000   36.429000  -24.739100

 Total Charge           Charge          ....    0
 Multiplicity           Mult            ....    1
 Number of Electrons    NEL             ....  134
 Basis Dimension        Dim             ....  322

ORBITAL ENERGIES
----------------

  NO   OCC          E(Eh)            E(eV)
   0   2.0000     -88.968987     -2420.9692
   1   2.0000     -88.966150     -2420.8920
   2   2.0000     -10.338567      -281.3267
   3   2.0000     -10.326931      -281.0101
   4   2.0000     -10.315761      -280.7061
   5   2.0000     -10.314008      -280.6584
   6   2.0000     -10.307812      -280.4898
   7   2.0000     -10.304941      -280.4117
   8   2.0000     -10.303082      -280.3611
   9   2.0000     -10.301020      -280.3050
  10   2.0000     -10.293160      -280.0911
  11   2.0000     -10.291087      -280.0347
  12   2.0000     -10.290194      -280.0104
  13   2.0000     -10.285237      -279.8755
  14   2.0000     -10.280939      -279.7586
  15   2.0000     -10.277585      -279.6673
  16   2.0000      -8.082955      -219.9484
  17   2.0000      -8.082141      -219.9262
  18   2.0000      -6.041580      -164.3998
  19   2.0000      -6.040504      -164.3705
  20   2.0000      -6.037690      -164.2939
  21   2.0000      -6.036307      -164.2563
  22   2.0000      -6.033528      -164.1806
  23   2.0000      -6.033151      -164.1704
  24   2.0000      -1.008837       -27.4519
  25   2.0000      -0.980187       -26.6722
  26   2.0000      -0.912001       -24.8168
  27   2.0000      -0.903414       -24.5831
  28   2.0000      -0.869942       -23.6723
  29   2.0000      -0.846878       -23.0447
  30   2.0000      -0.843005       -22.9393
  31   2.0000      -0.813140       -22.1267
  32   2.0000      -0.781607       -21.2686
  33   2.0000      -0.768868       -20.9220
  34   2.0000      -0.717226       -19.5167
  35   2.0000      -0.705263       -19.1912
  36   2.0000      -0.688089       -18.7238
  37   2.0000      -0.667358       -18.1597
  38   2.0000      -0.638426       -17.3725
  39   2.0000      -0.620584       -16.8870
  40   2.0000      -0.594952       -16.1895
  41   2.0000      -0.570674       -15.5288
  42   2.0000      -0.561753       -15.2861
  43   2.0000      -0.553274       -15.0553
  44   2.0000      -0.533471       -14.5165
  45   2.0000      -0.523486       -14.2448
  46   2.0000      -0.513188       -13.9645
  47   2.0000      -0.509176       -13.8554
  48   2.0000      -0.502754       -13.6806
  49   2.0000      -0.498768       -13.5722
  50   2.0000      -0.491274       -13.3682
  51   2.0000      -0.482250       -13.1227
  52   2.0000      -0.475612       -12.9420
  53   2.0000      -0.466665       -12.6986
  54   2.0000      -0.457802       -12.4574
  55   2.0000      -0.452157       -12.3038
  56   2.0000      -0.450980       -12.2718
  57   2.0000      -0.439678       -11.9642
  58   2.0000      -0.436941       -11.8898
  59   2.0000      -0.431825       -11.7506
  60   2.0000      -0.417815       -11.3693
  61   2.0000      -0.412467       -11.2238
  62   2.0000      -0.407571       -11.0906
  63   2.0000      -0.354842        -9.6558
  64   2.0000      -0.330374        -8.9899
  65   2.0000      -0.326168        -8.8755
  66   2.0000      -0.283200        -7.7063
  67   0.0000       0.022847         0.6217
  68   0.0000       0.073917         2.0114
  69   0.0000       0.109591         2.9821
  70   0.0000       0.115351         3.1389
  71   0.0000       0.129085         3.5126

MULLIKEN ATOMIC CHARGES
-----------------------
   0 S :    0.105314
   1 C :   -0.107383
   2 C :   -0.077474
   3 C :    0.005343
   4 C :   -0.131656
   5 H :    0.013199
   6 C :    0.065211
   7 H :    0.035731
   8 H :    0.029725
   9 C :   -0.103632
  10 H :    0.018459
  11 H :    0.035411
  12 C :   -0.014609
  13 H :    0.036153
  14 H :    0.028851
  15 H :    0.022794
  16 S :    0.109469
  17 C :   -0.098891
  18 C :   -0.019556
  19 C :   -0.085838
  20 C :   -0.125231
  21 H :    0.022041
  22 C :    0.061859
  23 H :    0.005599
  24 H :    0.028591
  25 C :   -0.063354
  26 H :    0.033848
  27 H :    0.017839
  28 C :   -0.062775
  29 H :    0.032667
  30 H :    0.036757
  31 H :    0.044631
  32 H :    0.034549
  33 H :    0.066358
Sum of atomic charges:   -0.0000000

LOEWDIN ATOMIC CHARGES
----------------------
   0 S :    0.385372
   1 C :   -0.186204
   2 C :   -0.054142
   3 C :   -0.058685
   4 C :   -0.186516
   5 H :    0.024820
   6 C :   -0.033531
   7 H :    0.034658
   8 H :    0.034775
   9 C :   -0.023444
  10 H :    0.013297
  11 H :    0.024453
  12 C :   -0.054888
  13 H :    0.026401
  14 H :    0.017351
  15 H :    0.022951
  16 S :    0.441956
  17 C :   -0.196376
  18 C :   -0.071591
  19 C :   -0.057046
  20 C :   -0.218836
  21 H :    0.031235
  22 C :   -0.040068
  23 H :    0.031677
  24 H :    0.027694
  25 C :   -0.049428
  26 H :    0.028488
  27 H :    0.018611
  28 C :   -0.066598
  29 H :    0.027036
  30 H :    0.023755
  31 H :    0.031811
  32 H :    0.017299
  33 H :    0.033713

  Mayer bond orders larger than 0.100000
B(  0-S ,  1-C ) :   1.1221 B(  0-S ,  4-C ) :   1.1413 B(  1-C ,  2-C ) :   1.6337
B(  1-C , 32-H ) :   0.9665 B(  2-C ,  3-C ) :   1.2117 B(  2-C ,  6-C ) :   1.0482
B(  3-C ,  4-C ) :   1.5743 B(  3-C ,  5-H ) :   0.9866 B(  4-C , 20-C ) :   1.0698
B(  6-C ,  7-H ) :   0.9281 B(  6-C ,  8-H ) :   0.9476 B(  6-C ,  9-C ) :   1.0468
B(  9-C , 10-H ) :   0.9574 B(  9-C , 11-H ) :   0.9616 B(  9-C , 12-C ) :   1.0734
B( 12-C , 13-H ) :   0.9764 B( 12-C , 14-H ) :   0.9799 B( 12-C , 15-H ) :   0.9766
B( 16-S , 17-C ) :   1.1864 B( 16-S , 20-C ) :   1.1548 B( 17-C , 18-C ) :   1.5803
B( 17-C , 33-H ) :   0.9584 B( 18-C , 19-C ) :   1.2941 B( 18-C , 21-H ) :   0.9873
B( 19-C , 20-C ) :   1.5376 B( 19-C , 22-C ) :   1.0447 B( 22-C , 23-H ) :   0.9337
B( 22-C , 24-H ) :   0.9238 B( 22-C , 25-C ) :   1.0543 B( 25-C , 26-H ) :   0.9447
B( 25-C , 27-H ) :   0.9571 B( 25-C , 28-C ) :   1.0802 B( 28-C , 29-H ) :   0.9774
B( 28-C , 30-H ) :   0.9758 B( 28-C , 31-H ) :   0.9764

Dispersion correction           -0.014388316
FINAL SINGLE POINT ENERGY     -1339.868357218062

DIPOLE MOMENT
-------------
                                X             Y             Z
Electronic contribution:    -21.27578      19.68315     -12.80119
Nuclear contribution   :     21.70993     -20.08109      13.00380
                        -----------------------------------------
Total Dipole Moment    :      0.43415      -0.39794       0.20261
                        -----------------------------------------
Magnitude (a.u.)       :      0.62281
Magnitude (Debye)      :      1.58305

Rotational constants in cm-1:     0.018409     0.008934     0.006660
Rotational constants in MHz :   551.887825   267.844800   199.673682

                             ****ORCA TERMINATED NORMALLY****
TOTAL RUN TIME: 0 days 0 hours 0 minutes 21 seconds 851 msec
