                         Program Version 4.2.1 -  RELEASE  -
|  1> ! wB97X-D3 SP def2-SVP
|  2> %pal
|  3> nprocs 24
|  4> end
|  5>
|  6> * xyz 0 1
|  7> S 	 -41.9731 	 -45.595 	 -75.0985
|  8> C 	 -43.5035 	 -45.2757 	 -74.3519
|  9> C 	 -43.9327 	 -44.01 	 -74.7202
| 10> C 	 -42.8943 	 -43.2662 	 -75.4037
| 11> C 	 -41.775 	 -43.9709 	 -75.7076
| 12> H 	 -43.0364 	 -42.2962 	 -75.8131
| 13> C 	 -45.3114 	 -43.5649 	 -74.3788
| 14> H 	 -45.9322 	 -44.4783 	 -74.4704
| 15> H 	 -45.6429 	 -42.888 	 -75.1248
| 16> C 	 -45.2551 	 -42.797 	 -73.0428
| 17> H 	 -44.9128 	 -43.4408 	 -72.1925
| 18> H 	 -44.5008 	 -41.987 	 -73.0352
| 19> C 	 -46.6326 	 -42.2263 	 -72.659
| 20> H 	 -47.1797 	 -41.7796 	 -73.4493
| 21> H 	 -47.2638 	 -42.9497 	 -72.1292
| 22> H 	 -46.4685 	 -41.4271 	 -71.9272
| 23> S 	 -39.0682 	 -43.8294 	 -75.887
| 24> C 	 -38.2066 	 -43.0783 	 -77.2068
| 25> C 	 -39.1194 	 -42.8836 	 -78.2455
| 26> C 	 -40.5012 	 -43.1511 	 -77.906
| 27> C 	 -40.6291 	 -43.55 	 -76.5681
| 28> H 	 -38.665 	 -42.5626 	 -79.1528
| 29> C 	 -41.638 	 -42.9955 	 -78.9114
| 30> H 	 -41.8444 	 -41.9299 	 -79.0159
| 31> H 	 -42.5859 	 -43.1658 	 -78.3007
| 32> C 	 -41.638 	 -43.7475 	 -80.1819
| 33> H 	 -41.4302 	 -44.7654 	 -79.9888
| 34> H 	 -40.8071 	 -43.3796 	 -80.7199
| 35> C 	 -42.9399 	 -43.4703 	 -81.0804
| 36> H 	 -43.8701 	 -43.7615 	 -80.6024
| 37> H 	 -42.8893 	 -44.1338 	 -81.9664
| 38> H 	 -43.0746 	 -42.4786 	 -81.4845
| 39> H 	 -44.1575 	 -45.9999 	 -73.9417
| 40> H 	 -37.1198 	 -43.0269 	 -77.2522
| 41> *
| 42>
| 43>                          ****END OF INPUT****

CARTESIAN COORDINATES (ANGSTROEM)
---------------------------------
  S    -41.973100  -45.595000  -75.098500
  C    -43.503500  -45.275700  -74.351900
  C    -43.932700  -44.010000  -74.720200
  C    -42.894300  -43.266200  -75.403700
  C    -41.775000  -43.970900  -75.707600
  H    -43.036400  -42.296200  -75.813100
  C    -45.311400  -43.564900  -74.378800
  H    -45.932200  -44.478300  -74.470400
  H    -45.642900  -42.888000  -75.124800
  C    -45.255100  -42.797000  -73.042800
  H    -44.912800  -43.440800  -72.192500
  H    -44.500800  -41.987000  -73.035200
  C    -46.632600  -42.226300  -72.659000
  H    -47.179700  -41.779600  -73.449300
  H    -47.263800  -42.949700  -72.129200
  H    -46.468500  -41.427100  -71.927200
  S    -39.068200  -43.829400  -75.887000
  C    -38.206600  -43.078300  -77.206800
  C    -39.119400  -42.883600  -78.245500
  C    -40.501200  -43.151100  -77.906000
  C    -40.629100  -43.550000  -76.568100
  H    -38.665000  -42.562600  -79.152800
  C    -41.638000  -42.995500  -78.911400
  H    -41.844400  -41.929900  -79.015900
  H    -42.585900  -43.165800  -78.300700
  C    -41.638000  -43.747500  -80.181900
  H    -41.430200  -44.765400  -79.988800
  H    -40.807100  -43.379600  -80.719900
  C    -42.939900  -43.470300  -81.080400
  H    -43.870100  -43.761500  -80.602400
  H    -42.889300  -44.133800  -81.966400
  H    -43.074600  -42.478600  -81.484500
  H    -44.157500  -45.999900  -73.941700
  H    -37.119800  -43.026900  -77.252200

 Total Charge           Charge          ....    0
 Multiplicity           Mult            ....    1
 Number of Electrons    NEL             ....  134
 Basis Dimension        Dim             ....  322

ORBITAL ENERGIES
----------------

  NO   OCC          E(Eh)            E(eV)
   0   2.0000     -88.961896     -2420.7763
   1   2.0000     -88.961299     -2420.7600
   2   2.0000     -10.331379      -281.1311
   3   2.0000     -10.330107      -281.0965
   4   2.0000     -10.319772      -280.8153
   5   2.0000     -10.311794      -280.5982
   6   2.0000     -10.307697      -280.4867
   7   2.0000     -10.298204      -280.2284
   8   2.0000     -10.296271      -280.1758
   9   2.0000     -10.292573      -280.0751
  10   2.0000     -10.290776      -280.0262
  11   2.0000     -10.290494      -280.0186
  12   2.0000     -10.289616      -279.9947
  13   2.0000     -10.284641      -279.8593
  14   2.0000     -10.284438      -279.8538
  15   2.0000     -10.274098      -279.5724
  16   2.0000      -8.076986      -219.7860
  17   2.0000      -8.076767      -219.7800
  18   2.0000      -6.035530      -164.2351
  19   2.0000      -6.035218      -164.2266
  20   2.0000      -6.031379      -164.1222
  21   2.0000      -6.031027      -164.1126
  22   2.0000      -6.027731      -164.0229
  23   2.0000      -6.027675      -164.0214
  24   2.0000      -1.007335       -27.4110
  25   2.0000      -0.986451       -26.8427
  26   2.0000      -0.913556       -24.8591
  27   2.0000      -0.909375       -24.7454
  28   2.0000      -0.868162       -23.6239
  29   2.0000      -0.846719       -23.0404
  30   2.0000      -0.841904       -22.9094
  31   2.0000      -0.821432       -22.3523
  32   2.0000      -0.780765       -21.2457
  33   2.0000      -0.771332       -20.9890
  34   2.0000      -0.713339       -19.4109
  35   2.0000      -0.702449       -19.1146
  36   2.0000      -0.696691       -18.9579
  37   2.0000      -0.658217       -17.9110
  38   2.0000      -0.644917       -17.5491
  39   2.0000      -0.621512       -16.9122
  40   2.0000      -0.595516       -16.2048
  41   2.0000      -0.573253       -15.5990
  42   2.0000      -0.563002       -15.3201
  43   2.0000      -0.554825       -15.0975
  44   2.0000      -0.529369       -14.4049
  45   2.0000      -0.524577       -14.2745
  46   2.0000      -0.516084       -14.0434
  47   2.0000      -0.512362       -13.9421
  48   2.0000      -0.509478       -13.8636
  49   2.0000      -0.504045       -13.7158
  50   2.0000      -0.498717       -13.5708
  51   2.0000      -0.473127       -12.8744
  52   2.0000      -0.470287       -12.7972
  53   2.0000      -0.464098       -12.6288
  54   2.0000      -0.459555       -12.5051
  55   2.0000      -0.449481       -12.2310
  56   2.0000      -0.446055       -12.1378
  57   2.0000      -0.441393       -12.0109
  58   2.0000      -0.436488       -11.8774
  59   2.0000      -0.420375       -11.4390
  60   2.0000      -0.418600       -11.3907
  61   2.0000      -0.412174       -11.2158
  62   2.0000      -0.407605       -11.0915
  63   2.0000      -0.345026        -9.3886
  64   2.0000      -0.325705        -8.8629
  65   2.0000      -0.324552        -8.8315
  66   2.0000      -0.299574        -8.1518
  67   0.0000       0.036707         0.9988
  68   0.0000       0.065131         1.7723
  69   0.0000       0.113362         3.0847
  70   0.0000       0.124023         3.3748
  71   0.0000       0.136032         3.7016

MULLIKEN ATOMIC CHARGES
-----------------------
   0 S :    0.109991
   1 C :   -0.095174
   2 C :   -0.155684
   3 C :    0.057054
   4 C :   -0.123618
   5 H :   -0.004686
   6 C :    0.107051
   7 H :    0.035332
   8 H :    0.008489
   9 C :   -0.105732
  10 H :    0.033888
  11 H :    0.037373
  12 C :   -0.021328
  13 H :    0.022509
  14 H :    0.033801
  15 H :    0.024782
  16 S :    0.098386
  17 C :   -0.102300
  18 C :   -0.043001
  19 C :   -0.013237
  20 C :   -0.176683
  21 H :    0.012868
  22 C :    0.051316
  23 H :    0.022430
  24 H :    0.007729
  25 C :   -0.013083
  26 H :    0.029478
  27 H :    0.017804
  28 C :   -0.065162
  29 H :    0.033002
  30 H :    0.033227
  31 H :    0.036123
  32 H :    0.039175
  33 H :    0.067879
Sum of atomic charges:   -0.0000000

LOEWDIN ATOMIC CHARGES
----------------------
   0 S :    0.410813
   1 C :   -0.201745
   2 C :   -0.058622
   3 C :   -0.065927
   4 C :   -0.196607
   5 H :    0.024389
   6 C :   -0.031378
   7 H :    0.037348
   8 H :    0.024776
   9 C :   -0.039605
  10 H :    0.030196
  11 H :    0.029425
  12 C :   -0.069047
  13 H :    0.017005
  14 H :    0.026677
  15 H :    0.027811
  16 S :    0.420596
  17 C :   -0.187985
  18 C :   -0.071500
  19 C :   -0.054033
  20 C :   -0.204283
  21 H :    0.026312
  22 C :   -0.048065
  23 H :    0.031246
  24 H :    0.033421
  25 C :   -0.029670
  26 H :    0.025233
  27 H :    0.020795
  28 C :   -0.063150
  29 H :    0.024037
  30 H :    0.030616
  31 H :    0.024869
  32 H :    0.023140
  33 H :    0.032912

  Mayer bond orders larger than 0.100000
B(  0-S ,  1-C ) :   1.1385 B(  0-S ,  4-C ) :   1.1594 B(  1-C ,  2-C ) :   1.6045
B(  1-C , 32-H ) :   0.9705 B(  2-C ,  3-C ) :   1.2376 B(  2-C ,  6-C ) :   1.0360
B(  3-C ,  4-C ) :   1.5875 B(  3-C ,  5-H ) :   1.0012 B(  4-C , 20-C ) :   1.0012
B(  6-C ,  7-H ) :   0.9419 B(  6-C ,  8-H ) :   0.9303 B(  6-C ,  9-C ) :   1.0526
B(  9-C , 10-H ) :   0.9570 B(  9-C , 11-H ) :   0.9611 B(  9-C , 12-C ) :   1.0778
B( 12-C , 13-H ) :   0.9749 B( 12-C , 14-H ) :   0.9764 B( 12-C , 15-H ) :   0.9738
B( 16-S , 17-C ) :   1.1659 B( 16-S , 20-C ) :   1.1678 B( 17-C , 18-C ) :   1.5895
B( 17-C , 20-C ) :   0.1049 B( 17-C , 33-H ) :   0.9699 B( 18-C , 19-C ) :   1.2278
B( 18-C , 21-H ) :   0.9996 B( 19-C , 20-C ) :   1.5700 B( 19-C , 22-C ) :   1.0410
B( 22-C , 23-H ) :   0.9295 B( 22-C , 24-H ) :   0.9228 B( 22-C , 25-C ) :   1.0623
B( 25-C , 26-H ) :   0.9561 B( 25-C , 27-H ) :   0.9502 B( 25-C , 28-C ) :   1.0734
B( 28-C , 29-H ) :   0.9791 B( 28-C , 30-H ) :   0.9767 B( 28-C , 31-H ) :   0.9775

Dispersion correction           -0.013445475
FINAL SINGLE POINT ENERGY     -1339.870557635366

DIPOLE MOMENT
-------------
                                X             Y             Z
Electronic contribution:     23.25370      -9.89901       7.57238
Nuclear contribution   :    -23.72846      10.17704      -8.01686
                        -----------------------------------------
Total Dipole Moment    :     -0.47476       0.27803      -0.44449
                        -----------------------------------------
Magnitude (a.u.)       :      0.70729
Magnitude (Debye)      :      1.79780

Rotational constants in cm-1:     0.018270     0.007580     0.006228
Rotational constants in MHz :   547.724394   227.234934   186.716386

                             ****ORCA TERMINATED NORMALLY****
TOTAL RUN TIME: 0 days 0 hours 0 minutes 20 seconds 708 msec
