                         Program Version 4.2.1 -  RELEASE  -
|  1> ! wB97X-D3 SP def2-SVP
|  2> %pal
|  3> nprocs 24
|  4> end
|  5>
|  6> * xyz 0 1
|  7> S 	 -88.2529 	 -33.5193 	 -73.5783
|  8> C 	 -86.5498 	 -33.4731 	 -73.3075
|  9> C 	 -86.0034 	 -32.3067 	 -73.8204
| 10> C 	 -86.9905 	 -31.5224 	 -74.4715
| 11> C 	 -88.2079 	 -32.1427 	 -74.655
| 12> H 	 -86.7321 	 -30.5404 	 -74.8955
| 13> C 	 -84.579 	 -31.8643 	 -73.5661
| 14> H 	 -84.336 	 -32.0834 	 -72.5212
| 15> H 	 -84.6536 	 -30.7418 	 -73.6701
| 16> C 	 -83.4046 	 -32.4192 	 -74.4769
| 17> H 	 -82.4512 	 -31.9177 	 -74.1371
| 18> H 	 -83.4275 	 -33.5001 	 -74.3461
| 19> C 	 -83.6123 	 -32.1887 	 -75.9852
| 20> H 	 -84.1109 	 -31.1881 	 -76.0743
| 21> H 	 -82.6979 	 -32.1457 	 -76.525
| 22> H 	 -84.2806 	 -32.9422 	 -76.3662
| 23> S 	 -90.5923 	 -30.825 	 -74.2615
| 24> C 	 -91.15 	 -29.8304 	 -75.6251
| 25> C 	 -90.6868 	 -30.3176 	 -76.8412
| 26> C 	 -89.4959 	 -31.0533 	 -76.5586
| 27> C 	 -89.3373 	 -31.5581 	 -75.2755
| 28> H 	 -91.0298 	 -29.933 	 -77.7779
| 29> C 	 -88.562 	 -31.4913 	 -77.7398
| 30> H 	 -87.5105 	 -31.7637 	 -77.496
| 31> H 	 -88.4523 	 -30.689 	 -78.4456
| 32> C 	 -89.1018 	 -32.6535 	 -78.6152
| 33> H 	 -90.0887 	 -32.4055 	 -79.0243
| 34> H 	 -89.0962 	 -33.5635 	 -78.0747
| 35> C 	 -88.2819 	 -32.8929 	 -79.9205
| 36> H 	 -88.2737 	 -32.012 	 -80.66
| 37> H 	 -88.5786 	 -33.8658 	 -80.3294
| 38> H 	 -87.2503 	 -33.109 	 -79.6573
| 39> H 	 -85.8708 	 -34.0994 	 -72.7021
| 40> H 	 -91.9124 	 -29.0812 	 -75.4877
| 41> *
| 42>
| 43>                          ****END OF INPUT****

CARTESIAN COORDINATES (ANGSTROEM)
---------------------------------
  S    -88.252900  -33.519300  -73.578300
  C    -86.549800  -33.473100  -73.307500
  C    -86.003400  -32.306700  -73.820400
  C    -86.990500  -31.522400  -74.471500
  C    -88.207900  -32.142700  -74.655000
  H    -86.732100  -30.540400  -74.895500
  C    -84.579000  -31.864300  -73.566100
  H    -84.336000  -32.083400  -72.521200
  H    -84.653600  -30.741800  -73.670100
  C    -83.404600  -32.419200  -74.476900
  H    -82.451200  -31.917700  -74.137100
  H    -83.427500  -33.500100  -74.346100
  C    -83.612300  -32.188700  -75.985200
  H    -84.110900  -31.188100  -76.074300
  H    -82.697900  -32.145700  -76.525000
  H    -84.280600  -32.942200  -76.366200
  S    -90.592300  -30.825000  -74.261500
  C    -91.150000  -29.830400  -75.625100
  C    -90.686800  -30.317600  -76.841200
  C    -89.495900  -31.053300  -76.558600
  C    -89.337300  -31.558100  -75.275500
  H    -91.029800  -29.933000  -77.777900
  C    -88.562000  -31.491300  -77.739800
  H    -87.510500  -31.763700  -77.496000
  H    -88.452300  -30.689000  -78.445600
  C    -89.101800  -32.653500  -78.615200
  H    -90.088700  -32.405500  -79.024300
  H    -89.096200  -33.563500  -78.074700
  C    -88.281900  -32.892900  -79.920500
  H    -88.273700  -32.012000  -80.660000
  H    -88.578600  -33.865800  -80.329400
  H    -87.250300  -33.109000  -79.657300
  H    -85.870800  -34.099400  -72.702100
  H    -91.912400  -29.081200  -75.487700

 Total Charge           Charge          ....    0
 Multiplicity           Mult            ....    1
 Number of Electrons    NEL             ....  134
 Basis Dimension        Dim             ....  322

ORBITAL ENERGIES
----------------

  NO   OCC          E(Eh)            E(eV)
   0   2.0000     -88.967772     -2420.9362
   1   2.0000     -88.963330     -2420.8153
   2   2.0000     -10.326381      -280.9951
   3   2.0000     -10.325494      -280.9710
   4   2.0000     -10.323374      -280.9133
   5   2.0000     -10.312861      -280.6272
   6   2.0000     -10.311347      -280.5860
   7   2.0000     -10.300992      -280.3042
   8   2.0000     -10.298267      -280.2301
   9   2.0000     -10.295343      -280.1505
  10   2.0000     -10.294706      -280.1332
  11   2.0000     -10.292609      -280.0761
  12   2.0000     -10.291754      -280.0529
  13   2.0000     -10.282936      -279.8129
  14   2.0000     -10.282657      -279.8053
  15   2.0000     -10.275396      -279.6077
  16   2.0000      -8.082634      -219.9397
  17   2.0000      -8.077849      -219.8094
  18   2.0000      -6.041152      -164.3881
  19   2.0000      -6.037114      -164.2782
  20   2.0000      -6.036418      -164.2593
  21   2.0000      -6.033385      -164.1768
  22   2.0000      -6.032503      -164.1527
  23   2.0000      -6.028412      -164.0414
  24   2.0000      -1.010156       -27.4877
  25   2.0000      -0.985768       -26.8241
  26   2.0000      -0.906347       -24.6630
  27   2.0000      -0.899359       -24.4728
  28   2.0000      -0.874688       -23.8015
  29   2.0000      -0.848157       -23.0795
  30   2.0000      -0.843941       -22.9648
  31   2.0000      -0.813759       -22.1435
  32   2.0000      -0.779756       -21.2182
  33   2.0000      -0.767442       -20.8832
  34   2.0000      -0.706675       -19.2296
  35   2.0000      -0.696769       -18.9600
  36   2.0000      -0.689367       -18.7586
  37   2.0000      -0.666248       -18.1295
  38   2.0000      -0.631915       -17.1953
  39   2.0000      -0.614663       -16.7258
  40   2.0000      -0.596763       -16.2388
  41   2.0000      -0.575473       -15.6594
  42   2.0000      -0.567223       -15.4349
  43   2.0000      -0.552066       -15.0225
  44   2.0000      -0.544046       -14.8042
  45   2.0000      -0.521946       -14.2029
  46   2.0000      -0.512559       -13.9474
  47   2.0000      -0.506133       -13.7726
  48   2.0000      -0.500245       -13.6124
  49   2.0000      -0.498670       -13.5695
  50   2.0000      -0.488670       -13.2974
  51   2.0000      -0.476480       -12.9657
  52   2.0000      -0.470898       -12.8138
  53   2.0000      -0.461117       -12.5476
  54   2.0000      -0.456294       -12.4164
  55   2.0000      -0.449738       -12.2380
  56   2.0000      -0.443061       -12.0563
  57   2.0000      -0.437687       -11.9101
  58   2.0000      -0.431133       -11.7317
  59   2.0000      -0.421608       -11.4725
  60   2.0000      -0.417674       -11.3655
  61   2.0000      -0.415170       -11.2973
  62   2.0000      -0.409881       -11.1534
  63   2.0000      -0.345863        -9.4114
  64   2.0000      -0.328512        -8.9393
  65   2.0000      -0.324956        -8.8425
  66   2.0000      -0.293202        -7.9784
  67   0.0000       0.032834         0.8935
  68   0.0000       0.050324         1.3694
  69   0.0000       0.106189         2.8895
  70   0.0000       0.110701         3.0123
  71   0.0000       0.123921         3.3721

MULLIKEN ATOMIC CHARGES
-----------------------
   0 S :    0.117278
   1 C :   -0.099207
   2 C :   -0.126240
   3 C :    0.040376
   4 C :   -0.159144
   5 H :    0.019627
   6 C :    0.016497
   7 H :    0.035314
   8 H :    0.031129
   9 C :   -0.072663
  10 H :    0.046279
  11 H :    0.028590
  12 C :   -0.047934
  13 H :    0.023556
  14 H :    0.035434
  15 H :    0.044035
  16 S :    0.089741
  17 C :   -0.102848
  18 C :    0.013550
  19 C :   -0.065388
  20 C :   -0.101013
  21 H :    0.025577
  22 C :    0.045458
  23 H :    0.032668
  24 H :    0.004530
  25 C :   -0.064714
  26 H :    0.026317
  27 H :    0.030911
  28 C :   -0.079861
  29 H :    0.050024
  30 H :    0.035436
  31 H :    0.017995
  32 H :    0.048571
  33 H :    0.060118
Sum of atomic charges:    0.0000000

LOEWDIN ATOMIC CHARGES
----------------------
   0 S :    0.420564
   1 C :   -0.211368
   2 C :   -0.077914
   3 C :   -0.055037
   4 C :   -0.204995
   5 H :    0.032495
   6 C :   -0.037881
   7 H :    0.031316
   8 H :    0.033727
   9 C :   -0.038986
  10 H :    0.031312
  11 H :    0.021767
  12 C :   -0.066140
  13 H :    0.026700
  14 H :    0.022515
  15 H :    0.026692
  16 S :    0.381279
  17 C :   -0.152744
  18 C :   -0.062410
  19 C :   -0.040767
  20 C :   -0.205225
  21 H :    0.032228
  22 C :   -0.035014
  23 H :    0.032085
  24 H :    0.021003
  25 C :   -0.033724
  26 H :    0.022016
  27 H :    0.020256
  28 C :   -0.075168
  29 H :    0.032404
  30 H :    0.029531
  31 H :    0.018442
  32 H :    0.036838
  33 H :    0.024205

  Mayer bond orders larger than 0.100000
B(  0-S ,  1-C ) :   1.1504 B(  0-S ,  4-C ) :   1.1417 B(  1-C ,  2-C ) :   1.5915
B(  1-C ,  4-C ) :   0.1002 B(  1-C , 32-H ) :   0.9613 B(  2-C ,  3-C ) :   1.2818
B(  2-C ,  6-C ) :   1.0115 B(  3-C ,  4-C ) :   1.5442 B(  3-C ,  5-H ) :   0.9860
B(  4-C , 20-C ) :   1.0528 B(  6-C ,  7-H ) :   0.9455 B(  6-C ,  8-H ) :   0.9444
B(  6-C ,  9-C ) :   1.0650 B(  9-C , 10-H ) :   0.9584 B(  9-C , 11-H ) :   0.9595
B(  9-C , 12-C ) :   1.0711 B( 12-C , 13-H ) :   0.9784 B( 12-C , 14-H ) :   0.9753
B( 12-C , 15-H ) :   0.9744 B( 16-S , 17-C ) :   1.1747 B( 16-S , 20-C ) :   1.0987
B( 17-C , 18-C ) :   1.6002 B( 17-C , 33-H ) :   0.9690 B( 18-C , 19-C ) :   1.2151
B( 18-C , 21-H ) :   0.9894 B( 19-C , 20-C ) :   1.6257 B( 19-C , 22-C ) :   1.0440
B( 22-C , 23-H ) :   0.9438 B( 22-C , 24-H ) :   0.9368 B( 22-C , 25-C ) :   1.0639
B( 25-C , 26-H ) :   0.9568 B( 25-C , 27-H ) :   0.9583 B( 25-C , 28-C ) :   1.0799
B( 28-C , 29-H ) :   0.9743 B( 28-C , 30-H ) :   0.9725 B( 28-C , 31-H ) :   0.9732

Dispersion correction           -0.014315556
FINAL SINGLE POINT ENERGY     -1339.856120843996

DIPOLE MOMENT
-------------
                                X             Y             Z
Electronic contribution:    -21.15543       1.05603      20.09874
Nuclear contribution   :     21.57460      -0.72902     -20.48990
                        -----------------------------------------
Total Dipole Moment    :      0.41917       0.32701      -0.39116
                        -----------------------------------------
Magnitude (a.u.)       :      0.66003
Magnitude (Debye)      :      1.67767

Rotational constants in cm-1:     0.016451     0.009418     0.007101
Rotational constants in MHz :   493.195021   282.359126   212.868872

                             ****ORCA TERMINATED NORMALLY****
TOTAL RUN TIME: 0 days 0 hours 0 minutes 21 seconds 887 msec
