                         Program Version 4.2.1 -  RELEASE  -
|  1> ! wB97X-D3 SP def2-SVP
|  2> %pal
|  3> nprocs 24
|  4> end
|  5>
|  6> * xyz 0 1
|  7> S 	 -34.649 	 -7.11586 	 6.65015
|  8> C 	 -35.318 	 -5.86202 	 7.63795
|  9> C 	 -35.9368 	 -4.88532 	 6.92377
| 10> C 	 -35.91 	 -5.18194 	 5.49752
| 11> C 	 -35.1344 	 -6.27406 	 5.19365
| 12> H 	 -36.3461 	 -4.58343 	 4.74646
| 13> C 	 -36.7849 	 -3.78978 	 7.60636
| 14> H 	 -36.5553 	 -3.57803 	 8.67876
| 15> H 	 -37.7112 	 -4.26919 	 7.60724
| 16> C 	 -37.0011 	 -2.53972 	 6.82102
| 17> H 	 -37.404 	 -2.69025 	 5.85554
| 18> H 	 -37.8394 	 -2.05287 	 7.36987
| 19> C 	 -35.7477 	 -1.64904 	 6.65864
| 20> H 	 -36.0119 	 -0.661301 	 6.35879
| 21> H 	 -35.1953 	 -1.50987 	 7.59852
| 22> H 	 -35.0265 	 -2.03893 	 5.90538
| 23> S 	 -34.7036 	 -8.54996 	 3.71589
| 24> C 	 -34.6116 	 -8.35467 	 1.9477
| 25> C 	 -34.4869 	 -7.02771 	 1.60897
| 26> C 	 -34.5038 	 -6.09704 	 2.71142
| 27> C 	 -34.7188 	 -6.82533 	 3.90384
| 28> H 	 -34.3517 	 -6.66327 	 0.562657
| 29> C 	 -34.4537 	 -4.5759 	 2.49483
| 30> H 	 -33.5311 	 -4.26944 	 2.00156
| 31> H 	 -34.3964 	 -4.02753 	 3.42555
| 32> C 	 -35.6485 	 -4.14226 	 1.59154
| 33> H 	 -36.672 	 -4.46295 	 1.8361
| 34> H 	 -35.4876 	 -4.48519 	 0.655267
| 35> C 	 -35.6809 	 -2.58795 	 1.38269
| 36> H 	 -34.7468 	 -2.15506 	 1.09591
| 37> H 	 -35.9357 	 -2.21033 	 2.34053
| 38> H 	 -36.469 	 -2.21139 	 0.756676
| 39> H 	 -35.1568 	 -5.8955 	 8.70594
| 40> H 	 -34.5103 	 -9.04457 	 1.13575
| 41> *
| 42>
| 43>                          ****END OF INPUT****

CARTESIAN COORDINATES (ANGSTROEM)
---------------------------------
  S    -34.649000   -7.115860    6.650150
  C    -35.318000   -5.862020    7.637950
  C    -35.936800   -4.885320    6.923770
  C    -35.910000   -5.181940    5.497520
  C    -35.134400   -6.274060    5.193650
  H    -36.346100   -4.583430    4.746460
  C    -36.784900   -3.789780    7.606360
  H    -36.555300   -3.578030    8.678760
  H    -37.711200   -4.269190    7.607240
  C    -37.001100   -2.539720    6.821020
  H    -37.404000   -2.690250    5.855540
  H    -37.839400   -2.052870    7.369870
  C    -35.747700   -1.649040    6.658640
  H    -36.011900   -0.661301    6.358790
  H    -35.195300   -1.509870    7.598520
  H    -35.026500   -2.038930    5.905380
  S    -34.703600   -8.549960    3.715890
  C    -34.611600   -8.354670    1.947700
  C    -34.486900   -7.027710    1.608970
  C    -34.503800   -6.097040    2.711420
  C    -34.718800   -6.825330    3.903840
  H    -34.351700   -6.663270    0.562657
  C    -34.453700   -4.575900    2.494830
  H    -33.531100   -4.269440    2.001560
  H    -34.396400   -4.027530    3.425550
  C    -35.648500   -4.142260    1.591540
  H    -36.672000   -4.462950    1.836100
  H    -35.487600   -4.485190    0.655267
  C    -35.680900   -2.587950    1.382690
  H    -34.746800   -2.155060    1.095910
  H    -35.935700   -2.210330    2.340530
  H    -36.469000   -2.211390    0.756676
  H    -35.156800   -5.895500    8.705940
  H    -34.510300   -9.044570    1.135750

 Total Charge           Charge          ....    0
 Multiplicity           Mult            ....    1
 Number of Electrons    NEL             ....  134
 Basis Dimension        Dim             ....  322

ORBITAL ENERGIES
----------------

  NO   OCC          E(Eh)            E(eV)
   0   2.0000     -88.971252     -2421.0308
   1   2.0000     -88.958564     -2420.6856
   2   2.0000     -10.328967      -281.0655
   3   2.0000     -10.327804      -281.0338
   4   2.0000     -10.317669      -280.7580
   5   2.0000     -10.307499      -280.4813
   6   2.0000     -10.305532      -280.4278
   7   2.0000     -10.301516      -280.3185
   8   2.0000     -10.300148      -280.2813
   9   2.0000     -10.297064      -280.1974
  10   2.0000     -10.293312      -280.0952
  11   2.0000     -10.290515      -280.0191
  12   2.0000     -10.285737      -279.8891
  13   2.0000     -10.285622      -279.8860
  14   2.0000     -10.277712      -279.6708
  15   2.0000     -10.273115      -279.5457
  16   2.0000      -8.085387      -220.0146
  17   2.0000      -8.074354      -219.7144
  18   2.0000      -6.044108      -164.4685
  19   2.0000      -6.040101      -164.3595
  20   2.0000      -6.035825      -164.2431
  21   2.0000      -6.032839      -164.1619
  22   2.0000      -6.028819      -164.0525
  23   2.0000      -6.025004      -163.9487
  24   2.0000      -1.006210       -27.3804
  25   2.0000      -0.981865       -26.7179
  26   2.0000      -0.915588       -24.9144
  27   2.0000      -0.908599       -24.7242
  28   2.0000      -0.869088       -23.6491
  29   2.0000      -0.851803       -23.1787
  30   2.0000      -0.840232       -22.8639
  31   2.0000      -0.817112       -22.2348
  32   2.0000      -0.787260       -21.4224
  33   2.0000      -0.774602       -21.0780
  34   2.0000      -0.713974       -19.4282
  35   2.0000      -0.706744       -19.2315
  36   2.0000      -0.690249       -18.7826
  37   2.0000      -0.656919       -17.8757
  38   2.0000      -0.639973       -17.4145
  39   2.0000      -0.626061       -17.0360
  40   2.0000      -0.596892       -16.2423
  41   2.0000      -0.566824       -15.4241
  42   2.0000      -0.563232       -15.3263
  43   2.0000      -0.557903       -15.1813
  44   2.0000      -0.534080       -14.5331
  45   2.0000      -0.527346       -14.3498
  46   2.0000      -0.516541       -14.0558
  47   2.0000      -0.511015       -13.9054
  48   2.0000      -0.506554       -13.7840
  49   2.0000      -0.493854       -13.4384
  50   2.0000      -0.493068       -13.4171
  51   2.0000      -0.484953       -13.1962
  52   2.0000      -0.468476       -12.7479
  53   2.0000      -0.463880       -12.6228
  54   2.0000      -0.457991       -12.4626
  55   2.0000      -0.451659       -12.2903
  56   2.0000      -0.447106       -12.1664
  57   2.0000      -0.440802       -11.9948
  58   2.0000      -0.438777       -11.9397
  59   2.0000      -0.431559       -11.7433
  60   2.0000      -0.426645       -11.6096
  61   2.0000      -0.421271       -11.4634
  62   2.0000      -0.409076       -11.1315
  63   2.0000      -0.354209        -9.6385
  64   2.0000      -0.333980        -9.0880
  65   2.0000      -0.324948        -8.8423
  66   2.0000      -0.284878        -7.7519
  67   0.0000       0.026543         0.7223
  68   0.0000       0.081102         2.2069
  69   0.0000       0.097838         2.6623
  70   0.0000       0.116777         3.1777
  71   0.0000       0.125395         3.4122

MULLIKEN ATOMIC CHARGES
-----------------------
   0 S :    0.084884
   1 C :   -0.130483
   2 C :   -0.073239
   3 C :    0.027145
   4 C :   -0.133231
   5 H :   -0.012541
   6 C :    0.072551
   7 H :    0.035931
   8 H :    0.029178
   9 C :   -0.075735
  10 H :    0.016277
  11 H :    0.027243
  12 C :   -0.046998
  13 H :    0.023879
  14 H :    0.027185
  15 H :    0.043640
  16 S :    0.117954
  17 C :   -0.063210
  18 C :   -0.067669
  19 C :   -0.040715
  20 C :   -0.129594
  21 H :    0.033280
  22 C :    0.076843
  23 H :    0.029063
  24 H :    0.023873
  25 C :   -0.068236
  26 H :    0.038602
  27 H :    0.004437
  28 C :   -0.024278
  29 H :    0.023859
  30 H :    0.007092
  31 H :    0.029896
  32 H :    0.047309
  33 H :    0.045807
Sum of atomic charges:   -0.0000000

LOEWDIN ATOMIC CHARGES
----------------------
   0 S :    0.393697
   1 C :   -0.200391
   2 C :   -0.058883
   3 C :   -0.063775
   4 C :   -0.179204
   5 H :    0.021548
   6 C :   -0.029534
   7 H :    0.037208
   8 H :    0.032540
   9 C :   -0.044545
  10 H :    0.017028
  11 H :    0.031545
  12 C :   -0.067101
  13 H :    0.020636
  14 H :    0.025726
  15 H :    0.030162
  16 S :    0.403303
  17 C :   -0.184168
  18 C :   -0.068647
  19 C :   -0.052698
  20 C :   -0.202723
  21 H :    0.035649
  22 C :   -0.024496
  23 H :    0.035839
  24 H :    0.026861
  25 C :   -0.028698
  26 H :    0.029131
  27 H :    0.006068
  28 C :   -0.059697
  29 H :    0.019908
  30 H :    0.017028
  31 H :    0.024727
  32 H :    0.025044
  33 H :    0.030912

  Mayer bond orders larger than 0.100000
B(  0-S ,  1-C ) :   1.1306 B(  0-S ,  4-C ) :   1.1484 B(  1-C ,  2-C ) :   1.6424
B(  1-C , 32-H ) :   0.9717 B(  2-C ,  3-C ) :   1.2065 B(  2-C ,  6-C ) :   1.0020
B(  3-C ,  4-C ) :   1.5988 B(  3-C ,  5-H ) :   0.9971 B(  4-C , 20-C ) :   1.0346
B(  6-C ,  7-H ) :   0.9471 B(  6-C ,  8-H ) :   0.9304 B(  6-C ,  9-C ) :   1.0976
B(  9-C , 10-H ) :   0.9464 B(  9-C , 11-H ) :   0.9515 B(  9-C , 12-C ) :   1.0723
B( 12-C , 13-H ) :   0.9749 B( 12-C , 14-H ) :   0.9760 B( 12-C , 15-H ) :   0.9735
B( 16-S , 17-C ) :   1.1190 B( 16-S , 20-C ) :   1.1434 B( 17-C , 18-C ) :   1.6450
B( 17-C , 33-H ) :   0.9665 B( 18-C , 19-C ) :   1.2363 B( 18-C , 21-H ) :   0.9747
B( 19-C , 20-C ) :   1.5876 B( 19-C , 22-C ) :   1.0454 B( 22-C , 23-H ) :   0.9278
B( 22-C , 24-H ) :   0.9441 B( 22-C , 25-C ) :   1.0480 B( 25-C , 26-H ) :   0.9613
B( 25-C , 27-H ) :   0.9523 B( 25-C , 28-C ) :   1.0818 B( 28-C , 29-H ) :   0.9743
B( 28-C , 30-H ) :   0.9762 B( 28-C , 31-H ) :   0.9748

Dispersion correction           -0.014631739
FINAL SINGLE POINT ENERGY     -1339.871604052417

DIPOLE MOMENT
-------------
                                X             Y             Z
Electronic contribution:      7.94484     -31.67367       5.67688
Nuclear contribution   :     -8.23899      32.39035      -5.95751
                        -----------------------------------------
Total Dipole Moment    :     -0.29415       0.71668      -0.28063
                        -----------------------------------------
Magnitude (a.u.)       :      0.82396
Magnitude (Debye)      :      2.09433

Rotational constants in cm-1:     0.016344     0.010697     0.006786
Rotational constants in MHz :   489.969562   320.676540   203.426443

                             ****ORCA TERMINATED NORMALLY****
TOTAL RUN TIME: 0 days 0 hours 0 minutes 22 seconds 153 msec
