                         Program Version 4.2.1 -  RELEASE  -
|  1> ! wB97X-D3 SP def2-SVP
|  2> %pal
|  3> nprocs 24
|  4> end
|  5>
|  6> * xyz 0 1
|  7> S 	 -47.8885 	 16.7286 	 21.893
|  8> C 	 -49.0223 	 16.2871 	 23.1163
|  9> C 	 -49.9211 	 15.3855 	 22.7296
| 10> C 	 -49.8573 	 15.0843 	 21.3234
| 11> C 	 -48.8212 	 15.7878 	 20.6725
| 12> H 	 -50.5542 	 14.4514 	 20.7103
| 13> C 	 -51.2114 	 15.0417 	 23.4448
| 14> H 	 -51.8126 	 14.5445 	 22.6803
| 15> H 	 -51.7402 	 15.9367 	 23.8942
| 16> C 	 -50.9796 	 14.0359 	 24.5812
| 17> H 	 -50.1393 	 14.3411 	 25.1493
| 18> H 	 -51.8136 	 14.0844 	 25.2635
| 19> C 	 -50.7496 	 12.5886 	 24.0415
| 20> H 	 -49.9664 	 12.5809 	 23.2332
| 21> H 	 -50.4148 	 11.9362 	 24.8278
| 22> H 	 -51.7135 	 12.1486 	 23.7351
| 23> S 	 -48.6546 	 14.2111 	 18.4797
| 24> C 	 -48.1964 	 14.8204 	 16.9083
| 25> C 	 -47.9805 	 16.2128 	 16.913
| 26> C 	 -48.1058 	 16.6776 	 18.2984
| 27> C 	 -48.4444 	 15.7144 	 19.2553
| 28> H 	 -47.8725 	 16.9119 	 16.1238
| 29> C 	 -47.9981 	 18.1322 	 18.6059
| 30> H 	 -47.2872 	 18.6001 	 17.8812
| 31> H 	 -47.5069 	 18.1789 	 19.5864
| 32> C 	 -49.2178 	 19.0165 	 18.6942
| 33> H 	 -49.9371 	 18.5872 	 19.5152
| 34> H 	 -49.7921 	 18.9599 	 17.8335
| 35> C 	 -48.8921 	 20.4976 	 19.0104
| 36> H 	 -49.7638 	 21.0712 	 19.0498
| 37> H 	 -48.3225 	 20.8725 	 18.1977
| 38> H 	 -48.3708 	 20.7073 	 19.8977
| 39> H 	 -49.1504 	 16.6828 	 24.1086
| 40> H 	 -48.2943 	 14.2395 	 15.9858
| 41> *
| 42>
| 43>                          ****END OF INPUT****

CARTESIAN COORDINATES (ANGSTROEM)
---------------------------------
  S    -47.888500   16.728600   21.893000
  C    -49.022300   16.287100   23.116300
  C    -49.921100   15.385500   22.729600
  C    -49.857300   15.084300   21.323400
  C    -48.821200   15.787800   20.672500
  H    -50.554200   14.451400   20.710300
  C    -51.211400   15.041700   23.444800
  H    -51.812600   14.544500   22.680300
  H    -51.740200   15.936700   23.894200
  C    -50.979600   14.035900   24.581200
  H    -50.139300   14.341100   25.149300
  H    -51.813600   14.084400   25.263500
  C    -50.749600   12.588600   24.041500
  H    -49.966400   12.580900   23.233200
  H    -50.414800   11.936200   24.827800
  H    -51.713500   12.148600   23.735100
  S    -48.654600   14.211100   18.479700
  C    -48.196400   14.820400   16.908300
  C    -47.980500   16.212800   16.913000
  C    -48.105800   16.677600   18.298400
  C    -48.444400   15.714400   19.255300
  H    -47.872500   16.911900   16.123800
  C    -47.998100   18.132200   18.605900
  H    -47.287200   18.600100   17.881200
  H    -47.506900   18.178900   19.586400
  C    -49.217800   19.016500   18.694200
  H    -49.937100   18.587200   19.515200
  H    -49.792100   18.959900   17.833500
  C    -48.892100   20.497600   19.010400
  H    -49.763800   21.071200   19.049800
  H    -48.322500   20.872500   18.197700
  H    -48.370800   20.707300   19.897700
  H    -49.150400   16.682800   24.108600
  H    -48.294300   14.239500   15.985800

 Total Charge           Charge          ....    0
 Multiplicity           Mult            ....    1
 Number of Electrons    NEL             ....  134
 Basis Dimension        Dim             ....  322

ORBITAL ENERGIES
----------------

  NO   OCC          E(Eh)            E(eV)
   0   2.0000     -88.970260     -2421.0039
   1   2.0000     -88.968656     -2420.9602
   2   2.0000     -10.339829      -281.3611
   3   2.0000     -10.326314      -280.9933
   4   2.0000     -10.325252      -280.9644
   5   2.0000     -10.307740      -280.4879
   6   2.0000     -10.303957      -280.3849
   7   2.0000     -10.303286      -280.3667
   8   2.0000     -10.301830      -280.3271
   9   2.0000     -10.293837      -280.1095
  10   2.0000     -10.293569      -280.1023
  11   2.0000     -10.285100      -279.8718
  12   2.0000     -10.283959      -279.8408
  13   2.0000     -10.280695      -279.7519
  14   2.0000     -10.280207      -279.7387
  15   2.0000     -10.264778      -279.3188
  16   2.0000      -8.084118      -219.9800
  17   2.0000      -8.083926      -219.9748
  18   2.0000      -6.042877      -164.4350
  19   2.0000      -6.042453      -164.4235
  20   2.0000      -6.038759      -164.3230
  21   2.0000      -6.038206      -164.3079
  22   2.0000      -6.034794      -164.2151
  23   2.0000      -6.034661      -164.2115
  24   2.0000      -1.007760       -27.4225
  25   2.0000      -0.987192       -26.8629
  26   2.0000      -0.910446       -24.7745
  27   2.0000      -0.908619       -24.7248
  28   2.0000      -0.871216       -23.7070
  29   2.0000      -0.852057       -23.1856
  30   2.0000      -0.843616       -22.9559
  31   2.0000      -0.813928       -22.1481
  32   2.0000      -0.780164       -21.2293
  33   2.0000      -0.770993       -20.9798
  34   2.0000      -0.711175       -19.3521
  35   2.0000      -0.701497       -19.0887
  36   2.0000      -0.691858       -18.8264
  37   2.0000      -0.672293       -18.2940
  38   2.0000      -0.635202       -17.2847
  39   2.0000      -0.608813       -16.5666
  40   2.0000      -0.595610       -16.2074
  41   2.0000      -0.576010       -15.6740
  42   2.0000      -0.561796       -15.2873
  43   2.0000      -0.548500       -14.9254
  44   2.0000      -0.539647       -14.6845
  45   2.0000      -0.524254       -14.2657
  46   2.0000      -0.516557       -14.0562
  47   2.0000      -0.509566       -13.8660
  48   2.0000      -0.505075       -13.7438
  49   2.0000      -0.494690       -13.4612
  50   2.0000      -0.488831       -13.3018
  51   2.0000      -0.477354       -12.9895
  52   2.0000      -0.474586       -12.9141
  53   2.0000      -0.469763       -12.7829
  54   2.0000      -0.465762       -12.6740
  55   2.0000      -0.448975       -12.2172
  56   2.0000      -0.445771       -12.1300
  57   2.0000      -0.434769       -11.8307
  58   2.0000      -0.430014       -11.7013
  59   2.0000      -0.425420       -11.5763
  60   2.0000      -0.419668       -11.4197
  61   2.0000      -0.416143       -11.3238
  62   2.0000      -0.406680       -11.0663
  63   2.0000      -0.353835        -9.6283
  64   2.0000      -0.332783        -9.0555
  65   2.0000      -0.329456        -8.9649
  66   2.0000      -0.289400        -7.8750
  67   0.0000       0.021374         0.5816
  68   0.0000       0.076354         2.0777
  69   0.0000       0.106040         2.8855
  70   0.0000       0.110232         2.9996
  71   0.0000       0.124964         3.4005

MULLIKEN ATOMIC CHARGES
-----------------------
   0 S :    0.111230
   1 C :   -0.091128
   2 C :   -0.073663
   3 C :   -0.015807
   4 C :   -0.145447
   5 H :    0.041996
   6 C :    0.027228
   7 H :    0.021538
   8 H :    0.050668
   9 C :   -0.043353
  10 H :    0.014757
  11 H :    0.018063
  12 C :   -0.074656
  13 H :    0.049936
  14 H :    0.030653
  15 H :    0.034415
  16 S :    0.106841
  17 C :   -0.093819
  18 C :    0.007531
  19 C :   -0.083572
  20 C :   -0.119351
  21 H :    0.013970
  22 C :    0.027380
  23 H :    0.016978
  24 H :    0.016768
  25 C :   -0.055661
  26 H :    0.037413
  27 H :    0.004274
  28 C :    0.007986
  29 H :    0.017270
  30 H :    0.012903
  31 H :    0.023007
  32 H :    0.034491
  33 H :    0.069160
Sum of atomic charges:    0.0000000

LOEWDIN ATOMIC CHARGES
----------------------
   0 S :    0.400494
   1 C :   -0.196059
   2 C :   -0.076332
   3 C :   -0.070751
   4 C :   -0.173691
   5 H :    0.037192
   6 C :   -0.028021
   7 H :    0.028436
   8 H :    0.039223
   9 C :   -0.038348
  10 H :    0.015141
  11 H :    0.018689
  12 C :   -0.068510
  13 H :    0.032851
  14 H :    0.022921
  15 H :    0.026029
  16 S :    0.439903
  17 C :   -0.188405
  18 C :   -0.059255
  19 C :   -0.055157
  20 C :   -0.221623
  21 H :    0.028693
  22 C :   -0.048597
  23 H :    0.029748
  24 H :    0.022770
  25 C :   -0.034975
  26 H :    0.033510
  27 H :    0.010233
  28 C :   -0.051916
  29 H :    0.021764
  30 H :    0.020811
  31 H :    0.020666
  32 H :    0.030515
  33 H :    0.032052

  Mayer bond orders larger than 0.100000
B(  0-S ,  1-C ) :   1.1232 B(  0-S ,  4-C ) :   1.1302 B(  1-C ,  2-C ) :   1.6700
B(  1-C , 32-H ) :   0.9522 B(  2-C ,  3-C ) :   1.2165 B(  2-C ,  6-C ) :   1.0118
B(  3-C ,  4-C ) :   1.5985 B(  3-C ,  5-H ) :   0.9736 B(  4-C , 20-C ) :   1.0555
B(  6-C ,  7-H ) :   0.9490 B(  6-C ,  8-H ) :   0.9504 B(  6-C ,  9-C ) :   1.0576
B(  9-C , 10-H ) :   0.9606 B(  9-C , 11-H ) :   0.9566 B(  9-C , 12-C ) :   1.0735
B( 12-C , 13-H ) :   0.9762 B( 12-C , 14-H ) :   0.9750 B( 12-C , 15-H ) :   0.9758
B( 16-S , 17-C ) :   1.1819 B( 16-S , 20-C ) :   1.1402 B( 17-C , 18-C ) :   1.5516
B( 17-C , 33-H ) :   0.9647 B( 18-C , 19-C ) :   1.2803 B( 18-C , 21-H ) :   0.9943
B( 19-C , 20-C ) :   1.5499 B( 19-C , 22-C ) :   1.0599 B( 22-C , 23-H ) :   0.9304
B( 22-C , 24-H ) :   0.9269 B( 22-C , 25-C ) :   1.0684 B( 25-C , 26-H ) :   0.9506
B( 25-C , 27-H ) :   0.9521 B( 25-C , 28-C ) :   1.0798 B( 28-C , 29-H ) :   0.9712
B( 28-C , 30-H ) :   0.9722 B( 28-C , 31-H ) :   0.9770

Dispersion correction           -0.014358746
FINAL SINGLE POINT ENERGY     -1339.871210851100

DIPOLE MOMENT
-------------
                                X             Y             Z
Electronic contribution:     10.79398      -6.97158      -8.46461
Nuclear contribution   :    -11.27748       7.22956       8.43923
                        -----------------------------------------
Total Dipole Moment    :     -0.48350       0.25797      -0.02537
                        -----------------------------------------
Magnitude (a.u.)       :      0.54860
Magnitude (Debye)      :      1.39444

Rotational constants in cm-1:     0.020045     0.008503     0.006601
Rotational constants in MHz :   600.933149   254.912339   197.900891

                             ****ORCA TERMINATED NORMALLY****
TOTAL RUN TIME: 0 days 0 hours 0 minutes 21 seconds 552 msec
