                         Program Version 4.2.1 -  RELEASE  -
|  1> ! wB97X-D3 SP def2-SVP
|  2> %pal
|  3> nprocs 24
|  4> end
|  5>
|  6> * xyz 0 1
|  7> S 	 -56.324 	 -2.80557 	 -28.2921
|  8> C 	 -54.6557 	 -2.36682 	 -27.8723
|  9> C 	 -54.504 	 -0.967607 	 -27.9022
| 10> C 	 -55.7052 	 -0.287327 	 -28.3012
| 11> C 	 -56.7729 	 -1.13086 	 -28.7118
| 12> H 	 -55.7896 	 0.79873 	 -28.3972
| 13> C 	 -53.2547 	 -0.259763 	 -27.5773
| 14> H 	 -53.4161 	 0.770338 	 -27.9339
| 15> H 	 -52.3954 	 -0.776985 	 -28.0363
| 16> C 	 -52.8138 	 -0.0565086 	 -26.112
| 17> H 	 -53.5686 	 0.537352 	 -25.6179
| 18> H 	 -52.6134 	 -1.06132 	 -25.6617
| 19> C 	 -51.5465 	 0.762148 	 -26.1832
| 20> H 	 -51.1945 	 1.10865 	 -25.2349
| 21> H 	 -50.7128 	 0.0921412 	 -26.4561
| 22> H 	 -51.4912 	 1.57072 	 -26.8499
| 23> S 	 -59.4628 	 -1.30824 	 -28.8148
| 24> C 	 -60.3303 	 -0.305901 	 -29.8948
| 25> C 	 -59.4421 	 0.415984 	 -30.7102
| 26> C 	 -58.0936 	 0.185457 	 -30.4631
| 27> C 	 -57.9567 	 -0.725575 	 -29.4781
| 28> H 	 -59.8622 	 1.16347 	 -31.36
| 29> C 	 -56.9463 	 0.85904 	 -31.1779
| 30> H 	 -56.0179 	 0.81699 	 -30.5716
| 31> H 	 -57.1338 	 1.9589 	 -31.2977
| 32> C 	 -56.6917 	 0.225644 	 -32.5468
| 33> H 	 -55.9519 	 0.873113 	 -33.0248
| 34> H 	 -57.6196 	 0.137467 	 -33.1024
| 35> C 	 -56.1108 	 -1.16612 	 -32.5056
| 36> H 	 -55.0367 	 -1.14012 	 -32.1554
| 37> H 	 -56.1322 	 -1.61005 	 -33.512
| 38> H 	 -56.7952 	 -1.75679 	 -31.8583
| 39> H 	 -53.8761 	 -3.11363 	 -27.5428
| 40> H 	 -61.4116 	 -0.142128 	 -29.8831
| 41> *
| 42>
| 43>                          ****END OF INPUT****

CARTESIAN COORDINATES (ANGSTROEM)
---------------------------------
  S    -56.324000   -2.805570  -28.292100
  C    -54.655700   -2.366820  -27.872300
  C    -54.504000   -0.967607  -27.902200
  C    -55.705200   -0.287327  -28.301200
  C    -56.772900   -1.130860  -28.711800
  H    -55.789600    0.798730  -28.397200
  C    -53.254700   -0.259763  -27.577300
  H    -53.416100    0.770338  -27.933900
  H    -52.395400   -0.776985  -28.036300
  C    -52.813800   -0.056509  -26.112000
  H    -53.568600    0.537352  -25.617900
  H    -52.613400   -1.061320  -25.661700
  C    -51.546500    0.762148  -26.183200
  H    -51.194500    1.108650  -25.234900
  H    -50.712800    0.092141  -26.456100
  H    -51.491200    1.570720  -26.849900
  S    -59.462800   -1.308240  -28.814800
  C    -60.330300   -0.305901  -29.894800
  C    -59.442100    0.415984  -30.710200
  C    -58.093600    0.185457  -30.463100
  C    -57.956700   -0.725575  -29.478100
  H    -59.862200    1.163470  -31.360000
  C    -56.946300    0.859040  -31.177900
  H    -56.017900    0.816990  -30.571600
  H    -57.133800    1.958900  -31.297700
  C    -56.691700    0.225644  -32.546800
  H    -55.951900    0.873113  -33.024800
  H    -57.619600    0.137467  -33.102400
  C    -56.110800   -1.166120  -32.505600
  H    -55.036700   -1.140120  -32.155400
  H    -56.132200   -1.610050  -33.512000
  H    -56.795200   -1.756790  -31.858300
  H    -53.876100   -3.113630  -27.542800
  H    -61.411600   -0.142128  -29.883100

 Total Charge           Charge          ....    0
 Multiplicity           Mult            ....    1
 Number of Electrons    NEL             ....  134
 Basis Dimension        Dim             ....  322

ORBITAL ENERGIES
----------------

  NO   OCC          E(Eh)            E(eV)
   0   2.0000     -88.967103     -2420.9180
   1   2.0000     -88.966418     -2420.8993
   2   2.0000     -10.335187      -281.2347
   3   2.0000     -10.324099      -280.9330
   4   2.0000     -10.321769      -280.8696
   5   2.0000     -10.318709      -280.7863
   6   2.0000     -10.301756      -280.3250
   7   2.0000     -10.299179      -280.2549
   8   2.0000     -10.298765      -280.2436
   9   2.0000     -10.294464      -280.1266
  10   2.0000     -10.292362      -280.0694
  11   2.0000     -10.289843      -280.0009
  12   2.0000     -10.289169      -279.9825
  13   2.0000     -10.279854      -279.7290
  14   2.0000     -10.273689      -279.5613
  15   2.0000     -10.271667      -279.5063
  16   2.0000      -8.082839      -219.9452
  17   2.0000      -8.079884      -219.8648
  18   2.0000      -6.041094      -164.3865
  19   2.0000      -6.038507      -164.3161
  20   2.0000      -6.037198      -164.2805
  21   2.0000      -6.034450      -164.2057
  22   2.0000      -6.033807      -164.1882
  23   2.0000      -6.030718      -164.1042
  24   2.0000      -1.012417       -27.5493
  25   2.0000      -0.979104       -26.6428
  26   2.0000      -0.917131       -24.9564
  27   2.0000      -0.913935       -24.8694
  28   2.0000      -0.867871       -23.6160
  29   2.0000      -0.856317       -23.3016
  30   2.0000      -0.846324       -23.0297
  31   2.0000      -0.807424       -21.9711
  32   2.0000      -0.782575       -21.2950
  33   2.0000      -0.768954       -20.9243
  34   2.0000      -0.702620       -19.1193
  35   2.0000      -0.699081       -19.0230
  36   2.0000      -0.687899       -18.7187
  37   2.0000      -0.662513       -18.0279
  38   2.0000      -0.634458       -17.2645
  39   2.0000      -0.620764       -16.8918
  40   2.0000      -0.602678       -16.3997
  41   2.0000      -0.578723       -15.7478
  42   2.0000      -0.563431       -15.3317
  43   2.0000      -0.552850       -15.0438
  44   2.0000      -0.543901       -14.8003
  45   2.0000      -0.522812       -14.2264
  46   2.0000      -0.514596       -14.0029
  47   2.0000      -0.506672       -13.7872
  48   2.0000      -0.500961       -13.6318
  49   2.0000      -0.497780       -13.5453
  50   2.0000      -0.491666       -13.3789
  51   2.0000      -0.478641       -13.0245
  52   2.0000      -0.472551       -12.8588
  53   2.0000      -0.469196       -12.7675
  54   2.0000      -0.451716       -12.2918
  55   2.0000      -0.447884       -12.1876
  56   2.0000      -0.440960       -11.9991
  57   2.0000      -0.436470       -11.8770
  58   2.0000      -0.431667       -11.7463
  59   2.0000      -0.425901       -11.5894
  60   2.0000      -0.422022       -11.4838
  61   2.0000      -0.416346       -11.3294
  62   2.0000      -0.408202       -11.1077
  63   2.0000      -0.344820        -9.3830
  64   2.0000      -0.338199        -9.2029
  65   2.0000      -0.325810        -8.8657
  66   2.0000      -0.286296        -7.7905
  67   0.0000       0.025820         0.7026
  68   0.0000       0.064336         1.7507
  69   0.0000       0.108291         2.9467
  70   0.0000       0.114438         3.1140
  71   0.0000       0.136706         3.7200

MULLIKEN ATOMIC CHARGES
-----------------------
   0 S :    0.102323
   1 C :   -0.142622
   2 C :   -0.065589
   3 C :    0.022602
   4 C :   -0.139617
   5 H :    0.025804
   6 C :    0.000204
   7 H :    0.016508
   8 H :    0.034171
   9 C :   -0.043535
  10 H :    0.029879
  11 H :    0.038750
  12 C :   -0.022739
  13 H :    0.019445
  14 H :    0.016960
  15 H :    0.018789
  16 S :    0.120308
  17 C :   -0.095722
  18 C :   -0.057138
  19 C :   -0.024180
  20 C :   -0.167344
  21 H :    0.011349
  22 C :    0.066130
  23 H :    0.020042
  24 H :    0.033271
  25 C :   -0.065678
  26 H :    0.027515
  27 H :    0.028243
  28 C :   -0.067542
  29 H :    0.041457
  30 H :    0.036024
  31 H :    0.044596
  32 H :    0.073372
  33 H :    0.063965
Sum of atomic charges:   -0.0000000

LOEWDIN ATOMIC CHARGES
----------------------
   0 S :    0.384253
   1 C :   -0.202651
   2 C :   -0.070054
   3 C :   -0.067461
   4 C :   -0.187247
   5 H :    0.030579
   6 C :   -0.040379
   7 H :    0.030977
   8 H :    0.035552
   9 C :   -0.031659
  10 H :    0.022285
  11 H :    0.029568
  12 C :   -0.065283
  13 H :    0.022149
  14 H :    0.028483
  15 H :    0.017272
  16 S :    0.430133
  17 C :   -0.198447
  18 C :   -0.069176
  19 C :   -0.060994
  20 C :   -0.198849
  21 H :    0.028705
  22 C :   -0.032398
  23 H :    0.031486
  24 H :    0.035927
  25 C :   -0.041780
  26 H :    0.023370
  27 H :    0.023289
  28 C :   -0.069528
  29 H :    0.030404
  30 H :    0.026748
  31 H :    0.029177
  32 H :    0.041920
  33 H :    0.033628

  Mayer bond orders larger than 0.100000
B(  0-S ,  1-C ) :   1.1344 B(  0-S ,  4-C ) :   1.1558 B(  1-C ,  2-C ) :   1.5697
B(  1-C ,  4-C ) :   0.1082 B(  1-C , 32-H ) :   0.9651 B(  2-C ,  3-C ) :   1.2689
B(  2-C ,  6-C ) :   1.0345 B(  3-C ,  4-C ) :   1.5408 B(  3-C ,  5-H ) :   0.9809
B(  4-C , 20-C ) :   1.0197 B(  6-C ,  7-H ) :   0.9404 B(  6-C ,  8-H ) :   0.9431
B(  6-C ,  9-C ) :   1.0702 B(  9-C , 10-H ) :   0.9541 B(  9-C , 11-H ) :   0.9535
B(  9-C , 12-C ) :   1.0829 B( 12-C , 13-H ) :   0.9702 B( 12-C , 14-H ) :   0.9693
B( 12-C , 15-H ) :   0.9740 B( 16-S , 17-C ) :   1.1731 B( 16-S , 20-C ) :   1.1556
B( 17-C , 18-C ) :   1.5841 B( 17-C , 20-C ) :   0.1020 B( 17-C , 33-H ) :   0.9679
B( 18-C , 19-C ) :   1.2505 B( 18-C , 21-H ) :   0.9930 B( 19-C , 20-C ) :   1.5986
B( 19-C , 22-C ) :   1.0376 B( 22-C , 23-H ) :   0.9276 B( 22-C , 24-H ) :   0.9313
B( 22-C , 25-C ) :   1.0719 B( 25-C , 26-H ) :   0.9522 B( 25-C , 27-H ) :   0.9573
B( 25-C , 28-C ) :   1.0874 B( 28-C , 29-H ) :   0.9723 B( 28-C , 30-H ) :   0.9719
B( 28-C , 31-H ) :   0.9726

Dispersion correction           -0.014725444
FINAL SINGLE POINT ENERGY     -1339.880200647489

DIPOLE MOMENT
-------------
                                X             Y             Z
Electronic contribution:    -23.33787     -12.47092       4.71346
Nuclear contribution   :     23.71499      13.06934      -4.83052
                        -----------------------------------------
Total Dipole Moment    :      0.37712       0.59842      -0.11706
                        -----------------------------------------
Magnitude (a.u.)       :      0.71696
Magnitude (Debye)      :      1.82236

Rotational constants in cm-1:     0.021299     0.007914     0.007012
Rotational constants in MHz :   638.540211   237.261705   210.207782

                             ****ORCA TERMINATED NORMALLY****
TOTAL RUN TIME: 0 days 0 hours 0 minutes 20 seconds 885 msec
