                         Program Version 4.2.1 -  RELEASE  -
|  1> ! wB97X-D3 SP def2-SVP
|  2> %pal
|  3> nprocs 24
|  4> end
|  5>
|  6> * xyz 0 1
|  7> S 	 -62.7654 	 17.7013 	 -103.59
|  8> C 	 -62.8116 	 16.1348 	 -102.852
|  9> C 	 -61.823 	 15.3467 	 -103.238
| 10> C 	 -61.1264 	 15.9455 	 -104.376
| 11> C 	 -61.7194 	 17.1199 	 -104.809
| 12> H 	 -60.3234 	 15.5443 	 -104.965
| 13> C 	 -61.6008 	 13.9704 	 -102.708
| 14> H 	 -62.1859 	 13.9489 	 -101.814
| 15> H 	 -60.5386 	 13.822 	 -102.456
| 16> C 	 -62.0465 	 12.8295 	 -103.612
| 17> H 	 -63.0843 	 13.0088 	 -103.954
| 18> H 	 -61.5717 	 12.8631 	 -104.585
| 19> C 	 -62.0509 	 11.4072 	 -103.035
| 20> H 	 -61.1518 	 11.2159 	 -102.532
| 21> H 	 -62.861 	 11.3138 	 -102.263
| 22> H 	 -62.2067 	 10.581 	 -103.747
| 23> S 	 -59.9984 	 19.1249 	 -105.654
| 24> C 	 -60.009 	 19.5505 	 -107.353
| 25> C 	 -61.0661 	 18.8832 	 -108.014
| 26> C 	 -61.8629 	 18.0217 	 -107.2
| 27> C 	 -61.3127 	 17.9717 	 -105.925
| 28> H 	 -61.1918 	 19.0756 	 -109.056
| 29> C 	 -63.0459 	 17.2509 	 -107.782
| 30> H 	 -63.5806 	 17.7794 	 -108.487
| 31> H 	 -63.7642 	 17.0578 	 -107.045
| 32> C 	 -62.786 	 15.8832 	 -108.441
| 33> H 	 -63.7508 	 15.4353 	 -108.688
| 34> H 	 -62.1934 	 15.3395 	 -107.713
| 35> C 	 -61.8894 	 16.0033 	 -109.681
| 36> H 	 -60.9457 	 16.3489 	 -109.444
| 37> H 	 -62.3137 	 16.7292 	 -110.401
| 38> H 	 -61.8127 	 15.0786 	 -110.176
| 39> H 	 -63.4812 	 15.9201 	 -101.972
| 40> H 	 -59.409 	 20.2918 	 -107.812
| 41> *
| 42>
| 43>                          ****END OF INPUT****

CARTESIAN COORDINATES (ANGSTROEM)
---------------------------------
  S    -62.765400   17.701300  -103.590000
  C    -62.811600   16.134800  -102.852000
  C    -61.823000   15.346700  -103.238000
  C    -61.126400   15.945500  -104.376000
  C    -61.719400   17.119900  -104.809000
  H    -60.323400   15.544300  -104.965000
  C    -61.600800   13.970400  -102.708000
  H    -62.185900   13.948900  -101.814000
  H    -60.538600   13.822000  -102.456000
  C    -62.046500   12.829500  -103.612000
  H    -63.084300   13.008800  -103.954000
  H    -61.571700   12.863100  -104.585000
  C    -62.050900   11.407200  -103.035000
  H    -61.151800   11.215900  -102.532000
  H    -62.861000   11.313800  -102.263000
  H    -62.206700   10.581000  -103.747000
  S    -59.998400   19.124900  -105.654000
  C    -60.009000   19.550500  -107.353000
  C    -61.066100   18.883200  -108.014000
  C    -61.862900   18.021700  -107.200000
  C    -61.312700   17.971700  -105.925000
  H    -61.191800   19.075600  -109.056000
  C    -63.045900   17.250900  -107.782000
  H    -63.580600   17.779400  -108.487000
  H    -63.764200   17.057800  -107.045000
  C    -62.786000   15.883200  -108.441000
  H    -63.750800   15.435300  -108.688000
  H    -62.193400   15.339500  -107.713000
  C    -61.889400   16.003300  -109.681000
  H    -60.945700   16.348900  -109.444000
  H    -62.313700   16.729200  -110.401000
  H    -61.812700   15.078600  -110.176000
  H    -63.481200   15.920100  -101.972000
  H    -59.409000   20.291800  -107.812000

 Total Charge           Charge          ....    0
 Multiplicity           Mult            ....    1
 Number of Electrons    NEL             ....  134
 Basis Dimension        Dim             ....  322

ORBITAL ENERGIES
----------------

  NO   OCC          E(Eh)            E(eV)
   0   2.0000     -88.969068     -2420.9714
   1   2.0000     -88.959263     -2420.7046
   2   2.0000     -10.327470      -281.0248
   3   2.0000     -10.322545      -280.8907
   4   2.0000     -10.317847      -280.7629
   5   2.0000     -10.308902      -280.5195
   6   2.0000     -10.307341      -280.4770
   7   2.0000     -10.296596      -280.1846
   8   2.0000     -10.294580      -280.1298
   9   2.0000     -10.293852      -280.1099
  10   2.0000     -10.291315      -280.0409
  11   2.0000     -10.284906      -279.8665
  12   2.0000     -10.283420      -279.8261
  13   2.0000     -10.280078      -279.7351
  14   2.0000     -10.279513      -279.7198
  15   2.0000     -10.264906      -279.3223
  16   2.0000      -8.083247      -219.9563
  17   2.0000      -8.075712      -219.7513
  18   2.0000      -6.041688      -164.4027
  19   2.0000      -6.037835      -164.2978
  20   2.0000      -6.034112      -164.1965
  21   2.0000      -6.034092      -164.1960
  22   2.0000      -6.030274      -164.0921
  23   2.0000      -6.026190      -163.9810
  24   2.0000      -1.011443       -27.5228
  25   2.0000      -0.985275       -26.8107
  26   2.0000      -0.915412       -24.9096
  27   2.0000      -0.911055       -24.7911
  28   2.0000      -0.869729       -23.6665
  29   2.0000      -0.848804       -23.0971
  30   2.0000      -0.844892       -22.9907
  31   2.0000      -0.813324       -22.1317
  32   2.0000      -0.791618       -21.5410
  33   2.0000      -0.777768       -21.1642
  34   2.0000      -0.710222       -19.3261
  35   2.0000      -0.699261       -19.0279
  36   2.0000      -0.688048       -18.7227
  37   2.0000      -0.662073       -18.0159
  38   2.0000      -0.644807       -17.5461
  39   2.0000      -0.616442       -16.7742
  40   2.0000      -0.600733       -16.3468
  41   2.0000      -0.574266       -15.6266
  42   2.0000      -0.559140       -15.2150
  43   2.0000      -0.552361       -15.0305
  44   2.0000      -0.546435       -14.8692
  45   2.0000      -0.524590       -14.2748
  46   2.0000      -0.520901       -14.1744
  47   2.0000      -0.508494       -13.8368
  48   2.0000      -0.504270       -13.7219
  49   2.0000      -0.499493       -13.5919
  50   2.0000      -0.489367       -13.3164
  51   2.0000      -0.484951       -13.1962
  52   2.0000      -0.472389       -12.8544
  53   2.0000      -0.464440       -12.6380
  54   2.0000      -0.461609       -12.5610
  55   2.0000      -0.450049       -12.2464
  56   2.0000      -0.442663       -12.0455
  57   2.0000      -0.439151       -11.9499
  58   2.0000      -0.434611       -11.8264
  59   2.0000      -0.427334       -11.6284
  60   2.0000      -0.425069       -11.5667
  61   2.0000      -0.417181       -11.3521
  62   2.0000      -0.409627       -11.1465
  63   2.0000      -0.335187        -9.1209
  64   2.0000      -0.326232        -8.8772
  65   2.0000      -0.321095        -8.7374
  66   2.0000      -0.313405        -8.5282
  67   0.0000       0.044991         1.2243
  68   0.0000       0.051871         1.4115
  69   0.0000       0.112752         3.0681
  70   0.0000       0.115472         3.1421
  71   0.0000       0.132946         3.6177

MULLIKEN ATOMIC CHARGES
-----------------------
   0 S :    0.112163
   1 C :   -0.142703
   2 C :   -0.082486
   3 C :    0.046362
   4 C :   -0.180220
   5 H :    0.006782
   6 C :    0.115845
   7 H :    0.002349
   8 H :    0.033270
   9 C :   -0.084784
  10 H :    0.020006
  11 H :    0.020501
  12 C :   -0.036207
  13 H :    0.015596
  14 H :    0.031246
  15 H :    0.041121
  16 S :    0.129917
  17 C :   -0.084691
  18 C :   -0.043807
  19 C :    0.004758
  20 C :   -0.210829
  21 H :    0.009732
  22 C :    0.134412
  23 H :   -0.003732
  24 H :    0.008217
  25 C :   -0.068950
  26 H :    0.036090
  27 H :    0.025437
  28 C :   -0.024316
  29 H :    0.022334
  30 H :    0.015165
  31 H :    0.023809
  32 H :    0.061711
  33 H :    0.045903
Sum of atomic charges:    0.0000000

LOEWDIN ATOMIC CHARGES
----------------------
   0 S :    0.416391
   1 C :   -0.199372
   2 C :   -0.068774
   3 C :   -0.052876
   4 C :   -0.210416
   5 H :    0.027199
   6 C :   -0.026222
   7 H :    0.026398
   8 H :    0.035207
   9 C :   -0.048735
  10 H :    0.026469
  11 H :    0.021139
  12 C :   -0.064894
  13 H :    0.014149
  14 H :    0.029170
  15 H :    0.032047
  16 S :    0.406394
  17 C :   -0.184843
  18 C :   -0.065072
  19 C :   -0.045148
  20 C :   -0.200317
  21 H :    0.024809
  22 C :   -0.021926
  23 H :    0.019719
  24 H :    0.026835
  25 C :   -0.025841
  26 H :    0.026290
  27 H :    0.023249
  28 C :   -0.058799
  29 H :    0.014924
  30 H :    0.022844
  31 H :    0.020208
  32 H :    0.037390
  33 H :    0.022405

  Mayer bond orders larger than 0.100000
B(  0-S ,  1-C ) :   1.1313 B(  0-S ,  4-C ) :   1.1583 B(  1-C ,  2-C ) :   1.6637
B(  1-C , 32-H ) :   0.9549 B(  2-C ,  3-C ) :   1.1838 B(  2-C ,  6-C ) :   1.0432
B(  3-C ,  4-C ) :   1.6097 B(  3-C ,  5-H ) :   1.0038 B(  4-C , 20-C ) :   1.0132
B(  6-C ,  7-H ) :   0.9326 B(  6-C ,  8-H ) :   0.9271 B(  6-C ,  9-C ) :   1.0633
B(  9-C , 10-H ) :   0.9522 B(  9-C , 11-H ) :   0.9545 B(  9-C , 12-C ) :   1.0799
B( 12-C , 13-H ) :   0.9757 B( 12-C , 14-H ) :   0.9759 B( 12-C , 15-H ) :   0.9740
B( 16-S , 17-C ) :   1.1489 B( 16-S , 20-C ) :   1.1613 B( 17-C , 18-C ) :   1.6066
B( 17-C , 20-C ) :   0.1061 B( 17-C , 33-H ) :   0.9730 B( 18-C , 19-C ) :   1.2368
B( 18-C , 21-H ) :   0.9897 B( 19-C , 20-C ) :   1.5914 B( 19-C , 22-C ) :   1.0498
B( 22-C , 23-H ) :   0.9296 B( 22-C , 24-H ) :   0.9181 B( 22-C , 25-C ) :   1.0798
B( 25-C , 26-H ) :   0.9554 B( 25-C , 27-H ) :   0.9528 B( 25-C , 28-C ) :   1.0867
B( 28-C , 29-H ) :   0.9715 B( 28-C , 30-H ) :   0.9734 B( 28-C , 31-H ) :   0.9721

Dispersion correction           -0.014458024
FINAL SINGLE POINT ENERGY     -1339.871709171394

DIPOLE MOMENT
-------------
                                X             Y             Z
Electronic contribution:      5.25040      26.43075       9.01604
Nuclear contribution   :     -5.31832     -26.89890      -9.25813
                        -----------------------------------------
Total Dipole Moment    :     -0.06793      -0.46815      -0.24209
                        -----------------------------------------
Magnitude (a.u.)       :      0.53140
Magnitude (Debye)      :      1.35071

Rotational constants in cm-1:     0.018804     0.008436     0.006771
Rotational constants in MHz :   563.744092   252.898883   202.980507

                             ****ORCA TERMINATED NORMALLY****
TOTAL RUN TIME: 0 days 0 hours 0 minutes 21 seconds 512 msec
