                         Program Version 4.2.1 -  RELEASE  -
|  1> ! wB97X-D3 SP def2-SVP
|  2> %pal
|  3> nprocs 24
|  4> end
|  5>
|  6> * xyz 0 1
|  7> S 	 -102.8 	 59.4148 	 -105.88
|  8> C 	 -101.619 	 58.3732 	 -105.011
|  9> C 	 -101.878 	 58.3475 	 -103.623
| 10> C 	 -102.804 	 59.3767 	 -103.242
| 11> C 	 -103.364 	 60.0061 	 -104.339
| 12> H 	 -103.056 	 59.6206 	 -102.222
| 13> C 	 -101.183 	 57.477 	 -102.588
| 14> H 	 -100.898 	 58.1592 	 -101.762
| 15> H 	 -100.215 	 57.2253 	 -103.165
| 16> C 	 -101.981 	 56.2011 	 -102.216
| 17> H 	 -102.141 	 55.6249 	 -103.105
| 18> H 	 -101.317 	 55.5724 	 -101.587
| 19> C 	 -103.293 	 56.4783 	 -101.387
| 20> H 	 -103.968 	 57.0217 	 -101.99
| 21> H 	 -103.783 	 55.4704 	 -101.371
| 22> H 	 -103.261 	 56.8693 	 -100.346
| 23> S 	 -104.108 	 62.5281 	 -105.224
| 24> C 	 -105.556 	 63.2562 	 -104.624
| 25> C 	 -106.302 	 62.387 	 -103.853
| 26> C 	 -105.515 	 61.2107 	 -103.488
| 27> C 	 -104.379 	 61.0832 	 -104.278
| 28> H 	 -107.381 	 62.7225 	 -103.518
| 29> C 	 -106.128 	 60.1822 	 -102.529
| 30> H 	 -106.716 	 60.7611 	 -101.773
| 31> H 	 -105.21 	 59.8709 	 -102.042
| 32> C 	 -106.964 	 59.0698 	 -103.183
| 33> H 	 -106.469 	 58.729 	 -104.11
| 34> H 	 -107.965 	 59.5122 	 -103.434
| 35> C 	 -107.313 	 57.8392 	 -102.321
| 36> H 	 -107.963 	 58.0393 	 -101.446
| 37> H 	 -106.433 	 57.395 	 -102.042
| 38> H 	 -107.767 	 57.1258 	 -102.946
| 39> H 	 -100.996 	 57.7113 	 -105.595
| 40> H 	 -105.973 	 64.2027 	 -104.977
| 41> *
| 42>
| 43>                          ****END OF INPUT****

CARTESIAN COORDINATES (ANGSTROEM)
---------------------------------
  S    -102.800000   59.414800  -105.880000
  C    -101.619000   58.373200  -105.011000
  C    -101.878000   58.347500  -103.623000
  C    -102.804000   59.376700  -103.242000
  C    -103.364000   60.006100  -104.339000
  H    -103.056000   59.620600  -102.222000
  C    -101.183000   57.477000  -102.588000
  H    -100.898000   58.159200  -101.762000
  H    -100.215000   57.225300  -103.165000
  C    -101.981000   56.201100  -102.216000
  H    -102.141000   55.624900  -103.105000
  H    -101.317000   55.572400  -101.587000
  C    -103.293000   56.478300  -101.387000
  H    -103.968000   57.021700  -101.990000
  H    -103.783000   55.470400  -101.371000
  H    -103.261000   56.869300  -100.346000
  S    -104.108000   62.528100  -105.224000
  C    -105.556000   63.256200  -104.624000
  C    -106.302000   62.387000  -103.853000
  C    -105.515000   61.210700  -103.488000
  C    -104.379000   61.083200  -104.278000
  H    -107.381000   62.722500  -103.518000
  C    -106.128000   60.182200  -102.529000
  H    -106.716000   60.761100  -101.773000
  H    -105.210000   59.870900  -102.042000
  C    -106.964000   59.069800  -103.183000
  H    -106.469000   58.729000  -104.110000
  H    -107.965000   59.512200  -103.434000
  C    -107.313000   57.839200  -102.321000
  H    -107.963000   58.039300  -101.446000
  H    -106.433000   57.395000  -102.042000
  H    -107.767000   57.125800  -102.946000
  H    -100.996000   57.711300  -105.595000
  H    -105.973000   64.202700  -104.977000

 Total Charge           Charge          ....    0
 Multiplicity           Mult            ....    1
 Number of Electrons    NEL             ....  134
 Basis Dimension        Dim             ....  322

ORBITAL ENERGIES
----------------

  NO   OCC          E(Eh)            E(eV)
   0   2.0000     -88.968796     -2420.9640
   1   2.0000     -88.964084     -2420.8358
   2   2.0000     -10.332273      -281.1554
   3   2.0000     -10.326668      -281.0029
   4   2.0000     -10.319536      -280.8089
   5   2.0000     -10.314363      -280.6681
   6   2.0000     -10.306655      -280.4583
   7   2.0000     -10.306185      -280.4455
   8   2.0000     -10.302717      -280.3512
   9   2.0000     -10.301949      -280.3303
  10   2.0000     -10.297371      -280.2057
  11   2.0000     -10.293894      -280.1111
  12   2.0000     -10.293361      -280.0966
  13   2.0000     -10.290430      -280.0168
  14   2.0000     -10.285526      -279.8834
  15   2.0000     -10.268376      -279.4167
  16   2.0000      -8.082898      -219.9468
  17   2.0000      -8.079274      -219.8482
  18   2.0000      -6.041366      -164.3939
  19   2.0000      -6.037841      -164.2980
  20   2.0000      -6.037629      -164.2922
  21   2.0000      -6.033671      -164.1845
  22   2.0000      -6.033619      -164.1831
  23   2.0000      -6.029992      -164.0844
  24   2.0000      -1.003479       -27.3060
  25   2.0000      -0.979607       -26.6565
  26   2.0000      -0.906888       -24.6777
  27   2.0000      -0.903950       -24.5977
  28   2.0000      -0.861733       -23.4490
  29   2.0000      -0.851893       -23.1812
  30   2.0000      -0.843165       -22.9437
  31   2.0000      -0.812276       -22.1032
  32   2.0000      -0.783297       -21.3146
  33   2.0000      -0.770904       -20.9774
  34   2.0000      -0.706706       -19.2304
  35   2.0000      -0.701531       -19.0896
  36   2.0000      -0.688421       -18.7329
  37   2.0000      -0.654852       -17.8194
  38   2.0000      -0.637506       -17.3474
  39   2.0000      -0.613591       -16.6967
  40   2.0000      -0.583336       -15.8734
  41   2.0000      -0.567752       -15.4493
  42   2.0000      -0.564279       -15.3548
  43   2.0000      -0.540924       -14.7193
  44   2.0000      -0.536739       -14.6054
  45   2.0000      -0.526050       -14.3146
  46   2.0000      -0.519278       -14.1303
  47   2.0000      -0.508462       -13.8360
  48   2.0000      -0.499885       -13.6025
  49   2.0000      -0.493656       -13.4331
  50   2.0000      -0.487420       -13.2634
  51   2.0000      -0.485837       -13.2203
  52   2.0000      -0.474482       -12.9113
  53   2.0000      -0.462049       -12.5730
  54   2.0000      -0.458281       -12.4704
  55   2.0000      -0.450732       -12.2650
  56   2.0000      -0.442457       -12.0399
  57   2.0000      -0.439534       -11.9603
  58   2.0000      -0.434652       -11.8275
  59   2.0000      -0.422496       -11.4967
  60   2.0000      -0.421314       -11.4645
  61   2.0000      -0.415980       -11.3194
  62   2.0000      -0.405790       -11.0421
  63   2.0000      -0.345455        -9.4003
  64   2.0000      -0.332207        -9.0398
  65   2.0000      -0.327651        -8.9158
  66   2.0000      -0.290166        -7.8958
  67   0.0000       0.029198         0.7945
  68   0.0000       0.071694         1.9509
  69   0.0000       0.103906         2.8274
  70   0.0000       0.118725         3.2307
  71   0.0000       0.127117         3.4590

MULLIKEN ATOMIC CHARGES
-----------------------
   0 S :    0.103325
   1 C :   -0.130608
   2 C :   -0.102964
   3 C :    0.021561
   4 C :   -0.137002
   5 H :    0.023611
   6 C :    0.021735
   7 H :    0.042152
   8 H :    0.036469
   9 C :   -0.042915
  10 H :    0.029110
  11 H :    0.036271
  12 C :   -0.079706
  13 H :    0.038587
  14 H :    0.034961
  15 H :    0.055563
  16 S :    0.111170
  17 C :   -0.096551
  18 C :   -0.072681
  19 C :   -0.091114
  20 C :   -0.143958
  21 H :    0.060947
  22 C :    0.100367
  23 H :    0.026807
  24 H :   -0.004403
  25 C :   -0.086933
  26 H :    0.041381
  27 H :    0.029693
  28 C :    0.015661
  29 H :    0.037115
  30 H :   -0.004655
  31 H :    0.019147
  32 H :    0.048321
  33 H :    0.059537
Sum of atomic charges:   -0.0000000

LOEWDIN ATOMIC CHARGES
----------------------
   0 S :    0.387938
   1 C :   -0.190919
   2 C :   -0.056741
   3 C :   -0.067918
   4 C :   -0.187037
   5 H :    0.030042
   6 C :   -0.041690
   7 H :    0.034074
   8 H :    0.040937
   9 C :   -0.033220
  10 H :    0.026039
  11 H :    0.027491
  12 C :   -0.073368
  13 H :    0.015640
  14 H :    0.035725
  15 H :    0.033491
  16 S :    0.412376
  17 C :   -0.199352
  18 C :   -0.084586
  19 C :   -0.055835
  20 C :   -0.206718
  21 H :    0.051757
  22 C :   -0.036513
  23 H :    0.033966
  24 H :    0.023285
  25 C :   -0.037731
  26 H :    0.030720
  27 H :    0.028378
  28 C :   -0.056130
  29 H :    0.029647
  30 H :    0.009923
  31 H :    0.023915
  32 H :    0.021333
  33 H :    0.031081

  Mayer bond orders larger than 0.100000
B(  0-S ,  1-C ) :   1.1192 B(  0-S ,  4-C ) :   1.1627 B(  1-C ,  2-C ) :   1.6140
B(  1-C , 32-H ) :   0.9700 B(  2-C ,  3-C ) :   1.2263 B(  2-C ,  6-C ) :   1.0103
B(  3-C ,  4-C ) :   1.5824 B(  3-C ,  5-H ) :   0.9870 B(  4-C , 20-C ) :   1.0186
B(  6-C ,  7-H ) :   0.9484 B(  6-C ,  8-H ) :   0.9433 B(  6-C ,  9-C ) :   1.0585
B(  9-C , 10-H ) :   0.9544 B(  9-C , 11-H ) :   0.9578 B(  9-C , 12-C ) :   1.0704
B( 12-C , 13-H ) :   0.9707 B( 12-C , 14-H ) :   0.9713 B( 12-C , 15-H ) :   0.9757
B( 16-S , 17-C ) :   1.1555 B( 16-S , 20-C ) :   1.1379 B( 17-C , 18-C ) :   1.6374
B( 17-C , 33-H ) :   0.9620 B( 18-C , 19-C ) :   1.2184 B( 18-C , 21-H ) :   0.9692
B( 19-C , 20-C ) :   1.6122 B( 19-C , 22-C ) :   1.0359 B( 22-C , 23-H ) :   0.9307
B( 22-C , 24-H ) :   0.9285 B( 22-C , 25-C ) :   1.0611 B( 25-C , 26-H ) :   0.9574
B( 25-C , 27-H ) :   0.9536 B( 25-C , 28-C ) :   1.0873 B( 28-C , 29-H ) :   0.9723
B( 28-C , 30-H ) :   0.9739 B( 28-C , 31-H ) :   0.9670

Dispersion correction           -0.015460436
FINAL SINGLE POINT ENERGY     -1339.869722663647

DIPOLE MOMENT
-------------
                                X             Y             Z
Electronic contribution:      8.56151      21.44211     -20.17333
Nuclear contribution   :     -8.82439     -21.90134      20.64193
                        -----------------------------------------
Total Dipole Moment    :     -0.26287      -0.45922       0.46860
                        -----------------------------------------
Magnitude (a.u.)       :      0.70681
Magnitude (Debye)      :      1.79656

Rotational constants in cm-1:     0.017649     0.010319     0.007316
Rotational constants in MHz :   529.097621   309.348774   219.317273

                             ****ORCA TERMINATED NORMALLY****
TOTAL RUN TIME: 0 days 0 hours 0 minutes 22 seconds 584 msec
