                         Program Version 4.2.1 -  RELEASE  -
|  1> ! wB97X-D3 SP def2-SVP
|  2> %pal
|  3> nprocs 24
|  4> end
|  5>
|  6> * xyz 0 1
|  7> S 	 -43.7039 	 -47.7763 	 -72.9976
|  8> C 	 -43.7412 	 -46.023 	 -73.0635
|  9> C 	 -44.7986 	 -45.5074 	 -72.3967
| 10> C 	 -45.604 	 -46.5861 	 -71.8418
| 11> C 	 -45.1047 	 -47.8573 	 -71.9943
| 12> H 	 -46.5524 	 -46.5126 	 -71.3844
| 13> C 	 -45.1887 	 -44.0575 	 -72.3663
| 14> H 	 -44.3778 	 -43.5776 	 -72.9458
| 15> H 	 -45.025 	 -43.6523 	 -71.389
| 16> C 	 -46.5116 	 -43.5079 	 -72.8305
| 17> H 	 -46.4449 	 -42.4509 	 -72.8761
| 18> H 	 -46.7488 	 -43.8383 	 -73.8666
| 19> C 	 -47.7263 	 -43.9863 	 -71.9269
| 20> H 	 -47.5065 	 -43.9915 	 -70.8312
| 21> H 	 -48.407 	 -43.2335 	 -72.1487
| 22> H 	 -48.0648 	 -44.9636 	 -72.2695
| 23> S 	 -44.5239 	 -50.2021 	 -70.7042
| 24> C 	 -45.7714 	 -51.1145 	 -69.9535
| 25> C 	 -46.9818 	 -50.719 	 -70.4291
| 26> C 	 -46.8927 	 -49.5127 	 -71.193
| 27> C 	 -45.5967 	 -49.0451 	 -71.3583
| 28> H 	 -47.8956 	 -51.3691 	 -70.2228
| 29> C 	 -48.0897 	 -48.7559 	 -71.704
| 30> H 	 -47.7219 	 -48.0527 	 -72.4158
| 31> H 	 -48.5529 	 -48.2543 	 -70.8558
| 32> C 	 -49.1576 	 -49.505 	 -72.4866
| 33> H 	 -49.6768 	 -50.1803 	 -71.8094
| 34> H 	 -48.7995 	 -50.0872 	 -73.3417
| 35> C 	 -50.2484 	 -48.5904 	 -72.9658
| 36> H 	 -51.0995 	 -49.0758 	 -73.3968
| 37> H 	 -49.9052 	 -47.8018 	 -73.6082
| 38> H 	 -50.7147 	 -48.0539 	 -72.2063
| 39> H 	 -43.0181 	 -45.3328 	 -73.4926
| 40> H 	 -45.6979 	 -51.9424 	 -69.3758
| 41> *
| 42>
| 43>                          ****END OF INPUT****

CARTESIAN COORDINATES (ANGSTROEM)
---------------------------------
  S    -43.703900  -47.776300  -72.997600
  C    -43.741200  -46.023000  -73.063500
  C    -44.798600  -45.507400  -72.396700
  C    -45.604000  -46.586100  -71.841800
  C    -45.104700  -47.857300  -71.994300
  H    -46.552400  -46.512600  -71.384400
  C    -45.188700  -44.057500  -72.366300
  H    -44.377800  -43.577600  -72.945800
  H    -45.025000  -43.652300  -71.389000
  C    -46.511600  -43.507900  -72.830500
  H    -46.444900  -42.450900  -72.876100
  H    -46.748800  -43.838300  -73.866600
  C    -47.726300  -43.986300  -71.926900
  H    -47.506500  -43.991500  -70.831200
  H    -48.407000  -43.233500  -72.148700
  H    -48.064800  -44.963600  -72.269500
  S    -44.523900  -50.202100  -70.704200
  C    -45.771400  -51.114500  -69.953500
  C    -46.981800  -50.719000  -70.429100
  C    -46.892700  -49.512700  -71.193000
  C    -45.596700  -49.045100  -71.358300
  H    -47.895600  -51.369100  -70.222800
  C    -48.089700  -48.755900  -71.704000
  H    -47.721900  -48.052700  -72.415800
  H    -48.552900  -48.254300  -70.855800
  C    -49.157600  -49.505000  -72.486600
  H    -49.676800  -50.180300  -71.809400
  H    -48.799500  -50.087200  -73.341700
  C    -50.248400  -48.590400  -72.965800
  H    -51.099500  -49.075800  -73.396800
  H    -49.905200  -47.801800  -73.608200
  H    -50.714700  -48.053900  -72.206300
  H    -43.018100  -45.332800  -73.492600
  H    -45.697900  -51.942400  -69.375800

 Total Charge           Charge          ....    0
 Multiplicity           Mult            ....    1
 Number of Electrons    NEL             ....  134
 Basis Dimension        Dim             ....  322

ORBITAL ENERGIES
----------------

  NO   OCC          E(Eh)            E(eV)
   0   2.0000     -88.965372     -2420.8709
   1   2.0000     -88.963604     -2420.8227
   2   2.0000     -10.326348      -280.9942
   3   2.0000     -10.322765      -280.8967
   4   2.0000     -10.311931      -280.6019
   5   2.0000     -10.306330      -280.4495
   6   2.0000     -10.300525      -280.2915
   7   2.0000     -10.299594      -280.2662
   8   2.0000     -10.295996      -280.1683
   9   2.0000     -10.290470      -280.0179
  10   2.0000     -10.288864      -279.9742
  11   2.0000     -10.287501      -279.9371
  12   2.0000     -10.284725      -279.8616
  13   2.0000     -10.282987      -279.8143
  14   2.0000     -10.280132      -279.7366
  15   2.0000     -10.265068      -279.3267
  16   2.0000      -8.080450      -219.8802
  17   2.0000      -8.079730      -219.8606
  18   2.0000      -6.039118      -164.3328
  19   2.0000      -6.038170      -164.3070
  20   2.0000      -6.034909      -164.2182
  21   2.0000      -6.034042      -164.1946
  22   2.0000      -6.031018      -164.1123
  23   2.0000      -6.030454      -164.0970
  24   2.0000      -1.016946       -27.6725
  25   2.0000      -0.991983       -26.9932
  26   2.0000      -0.916409       -24.9368
  27   2.0000      -0.915414       -24.9097
  28   2.0000      -0.879131       -23.9224
  29   2.0000      -0.856029       -23.2937
  30   2.0000      -0.842720       -22.9316
  31   2.0000      -0.822372       -22.3779
  32   2.0000      -0.788774       -21.4636
  33   2.0000      -0.777521       -21.1574
  34   2.0000      -0.713399       -19.4126
  35   2.0000      -0.705775       -19.2051
  36   2.0000      -0.700963       -19.0742
  37   2.0000      -0.656700       -17.8697
  38   2.0000      -0.640352       -17.4249
  39   2.0000      -0.620034       -16.8720
  40   2.0000      -0.599625       -16.3166
  41   2.0000      -0.581008       -15.8100
  42   2.0000      -0.575919       -15.6715
  43   2.0000      -0.549291       -14.9470
  44   2.0000      -0.542140       -14.7524
  45   2.0000      -0.527694       -14.3593
  46   2.0000      -0.524106       -14.2617
  47   2.0000      -0.514936       -14.0121
  48   2.0000      -0.511303       -13.9133
  49   2.0000      -0.504611       -13.7312
  50   2.0000      -0.493614       -13.4319
  51   2.0000      -0.483602       -13.1595
  52   2.0000      -0.474513       -12.9122
  53   2.0000      -0.471915       -12.8415
  54   2.0000      -0.465614       -12.6700
  55   2.0000      -0.453656       -12.3446
  56   2.0000      -0.446578       -12.1520
  57   2.0000      -0.436609       -11.8807
  58   2.0000      -0.431403       -11.7391
  59   2.0000      -0.424360       -11.5474
  60   2.0000      -0.418381       -11.3847
  61   2.0000      -0.413413       -11.2495
  62   2.0000      -0.408526       -11.1166
  63   2.0000      -0.357903        -9.7390
  64   2.0000      -0.328574        -8.9410
  65   2.0000      -0.327629        -8.9152
  66   2.0000      -0.291478        -7.9315
  67   0.0000       0.031379         0.8539
  68   0.0000       0.078469         2.1352
  69   0.0000       0.115259         3.1364
  70   0.0000       0.126812         3.4507
  71   0.0000       0.130706         3.5567

MULLIKEN ATOMIC CHARGES
-----------------------
   0 S :    0.112765
   1 C :   -0.117586
   2 C :   -0.072655
   3 C :    0.015208
   4 C :   -0.144836
   5 H :   -0.018874
   6 C :    0.076504
   7 H :    0.002984
   8 H :    0.025907
   9 C :   -0.063514
  10 H :    0.026524
  11 H :    0.031258
  12 C :   -0.056111
  13 H :    0.043148
  14 H :    0.024019
  15 H :    0.045766
  16 S :    0.115718
  17 C :   -0.040561
  18 C :   -0.064679
  19 C :   -0.042493
  20 C :   -0.134616
  21 H :    0.047117
  22 C :    0.042785
  23 H :    0.022854
  24 H :    0.041056
  25 C :   -0.055780
  26 H :    0.016269
  27 H :    0.038420
  28 C :   -0.008266
  29 H :    0.024244
  30 H :    0.016389
  31 H :   -0.004966
  32 H :    0.044355
  33 H :    0.011647
Sum of atomic charges:    0.0000000

LOEWDIN ATOMIC CHARGES
----------------------
   0 S :    0.406469
   1 C :   -0.194620
   2 C :   -0.061292
   3 C :   -0.061958
   4 C :   -0.197558
   5 H :    0.018805
   6 C :   -0.039231
   7 H :    0.030896
   8 H :    0.029809
   9 C :   -0.031039
  10 H :    0.021353
  11 H :    0.028406
  12 C :   -0.062631
  13 H :    0.029135
  14 H :    0.019293
  15 H :    0.025032
  16 S :    0.436353
  17 C :   -0.178864
  18 C :   -0.076954
  19 C :   -0.058186
  20 C :   -0.212548
  21 H :    0.045620
  22 C :   -0.034279
  23 H :    0.026668
  24 H :    0.034292
  25 C :   -0.036214
  26 H :    0.019942
  27 H :    0.028524
  28 C :   -0.062377
  29 H :    0.026587
  30 H :    0.020924
  31 H :    0.015970
  32 H :    0.032893
  33 H :    0.010779

  Mayer bond orders larger than 0.100000
B(  0-S ,  1-C ) :   1.1209 B(  0-S ,  4-C ) :   1.1341 B(  1-C ,  2-C ) :   1.6574
B(  1-C , 32-H ) :   0.9553 B(  2-C ,  3-C ) :   1.2042 B(  2-C ,  6-C ) :   1.0295
B(  3-C ,  4-C ) :   1.5843 B(  3-C ,  5-H ) :   0.9986 B(  4-C , 20-C ) :   1.0679
B(  6-C ,  7-H ) :   0.9278 B(  6-C ,  8-H ) :   0.9274 B(  6-C ,  9-C ) :   1.0844
B(  9-C , 10-H ) :   0.9556 B(  9-C , 11-H ) :   0.9539 B(  9-C , 12-C ) :   1.0627
B( 12-C , 13-H ) :   0.9779 B( 12-C , 14-H ) :   0.9728 B( 12-C , 15-H ) :   0.9739
B( 16-S , 17-C ) :   1.1652 B( 16-S , 20-C ) :   1.1404 B( 17-C , 18-C ) :   1.6025
B( 17-C , 33-H ) :   0.9781 B( 18-C , 19-C ) :   1.2496 B( 18-C , 21-H ) :   0.9816
B( 19-C , 20-C ) :   1.5674 B( 19-C , 22-C ) :   1.0512 B( 22-C , 23-H ) :   0.9277
B( 22-C , 24-H ) :   0.9279 B( 22-C , 25-C ) :   1.0740 B( 25-C , 26-H ) :   0.9454
B( 25-C , 27-H ) :   0.9567 B( 25-C , 28-C ) :   1.0969 B( 28-C , 29-H ) :   0.9694
B( 28-C , 30-H ) :   0.9715 B( 28-C , 31-H ) :   0.9641

Dispersion correction           -0.014291715
FINAL SINGLE POINT ENERGY     -1339.865534276573

DIPOLE MOMENT
-------------
                                X             Y             Z
Electronic contribution:     26.13891     -16.91237       4.01428
Nuclear contribution   :    -26.80699      17.30931      -3.97442
                        -----------------------------------------
Total Dipole Moment    :     -0.66808       0.39694       0.03986
                        -----------------------------------------
Magnitude (a.u.)       :      0.77812
Magnitude (Debye)      :      1.97783

Rotational constants in cm-1:     0.016207     0.010276     0.007014
Rotational constants in MHz :   485.877051   308.066380   210.279924

                             ****ORCA TERMINATED NORMALLY****
TOTAL RUN TIME: 0 days 0 hours 0 minutes 22 seconds 215 msec
