                         Program Version 4.2.1 -  RELEASE  -
|  1> ! wB97X-D3 SP def2-SVP
|  2> %pal
|  3> nprocs 24
|  4> end
|  5>
|  6> * xyz 0 1
|  7> S 	 36.1436 	 -30.3785 	 -113.12
|  8> C 	 34.5317 	 -30.7793 	 -112.56
|  9> C 	 34.2744 	 -32.1512 	 -112.695
| 10> C 	 35.3036 	 -32.8288 	 -113.422
| 11> C 	 36.4377 	 -32.0609 	 -113.702
| 12> H 	 35.3338 	 -33.8411 	 -113.718
| 13> C 	 33.0732 	 -32.939 	 -112.177
| 14> H 	 32.4907 	 -33.2331 	 -113.119
| 15> H 	 32.3948 	 -32.174 	 -111.645
| 16> C 	 33.2984 	 -34.0882 	 -111.23
| 17> H 	 34.2703 	 -34.4946 	 -111.524
| 18> H 	 33.489 	 -33.783 	 -110.199
| 19> C 	 32.2671 	 -35.2426 	 -111.345
| 20> H 	 31.2757 	 -34.9609 	 -110.986
| 21> H 	 32.2842 	 -35.3764 	 -112.418
| 22> H 	 32.7158 	 -36.092 	 -110.844
| 23> S 	 37.571 	 -33.6154 	 -115.724
| 24> C 	 39.3168 	 -33.4942 	 -115.942
| 25> C 	 39.8868 	 -32.6157 	 -115.102
| 26> C 	 39.0677 	 -32.2028 	 -114.038
| 27> C 	 37.7075 	 -32.485 	 -114.315
| 28> H 	 40.968 	 -32.596 	 -115.128
| 29> C 	 39.6479 	 -31.5271 	 -112.816
| 30> H 	 39.1802 	 -30.5124 	 -112.995
| 31> H 	 40.73 	 -31.3123 	 -112.805
| 32> C 	 39.3077 	 -32.0193 	 -111.399
| 33> H 	 39.263 	 -33.0823 	 -111.336
| 34> H 	 38.2499 	 -31.7922 	 -111.235
| 35> C 	 40.0475 	 -31.325 	 -110.261
| 36> H 	 41.1333 	 -31.4635 	 -110.285
| 37> H 	 39.6525 	 -31.6523 	 -109.307
| 38> H 	 39.9343 	 -30.2582 	 -110.47
| 39> H 	 33.8262 	 -30.1514 	 -112.125
| 40> H 	 39.8746 	 -33.8403 	 -116.813
| 41> *
| 42>
| 43>                          ****END OF INPUT****

CARTESIAN COORDINATES (ANGSTROEM)
---------------------------------
  S     36.143600  -30.378500  -113.120000
  C     34.531700  -30.779300  -112.560000
  C     34.274400  -32.151200  -112.695000
  C     35.303600  -32.828800  -113.422000
  C     36.437700  -32.060900  -113.702000
  H     35.333800  -33.841100  -113.718000
  C     33.073200  -32.939000  -112.177000
  H     32.490700  -33.233100  -113.119000
  H     32.394800  -32.174000  -111.645000
  C     33.298400  -34.088200  -111.230000
  H     34.270300  -34.494600  -111.524000
  H     33.489000  -33.783000  -110.199000
  C     32.267100  -35.242600  -111.345000
  H     31.275700  -34.960900  -110.986000
  H     32.284200  -35.376400  -112.418000
  H     32.715800  -36.092000  -110.844000
  S     37.571000  -33.615400  -115.724000
  C     39.316800  -33.494200  -115.942000
  C     39.886800  -32.615700  -115.102000
  C     39.067700  -32.202800  -114.038000
  C     37.707500  -32.485000  -114.315000
  H     40.968000  -32.596000  -115.128000
  C     39.647900  -31.527100  -112.816000
  H     39.180200  -30.512400  -112.995000
  H     40.730000  -31.312300  -112.805000
  C     39.307700  -32.019300  -111.399000
  H     39.263000  -33.082300  -111.336000
  H     38.249900  -31.792200  -111.235000
  C     40.047500  -31.325000  -110.261000
  H     41.133300  -31.463500  -110.285000
  H     39.652500  -31.652300  -109.307000
  H     39.934300  -30.258200  -110.470000
  H     33.826200  -30.151400  -112.125000
  H     39.874600  -33.840300  -116.813000

 Total Charge           Charge          ....    0
 Multiplicity           Mult            ....    1
 Number of Electrons    NEL             ....  134
 Basis Dimension        Dim             ....  322

ORBITAL ENERGIES
----------------

  NO   OCC          E(Eh)            E(eV)
   0   2.0000     -88.970277     -2421.0043
   1   2.0000     -88.968372     -2420.9525
   2   2.0000     -10.338469      -281.3241
   3   2.0000     -10.336799      -281.2786
   4   2.0000     -10.315673      -280.7037
   5   2.0000     -10.315365      -280.6953
   6   2.0000     -10.311261      -280.5837
   7   2.0000     -10.306003      -280.4406
   8   2.0000     -10.302965      -280.3579
   9   2.0000     -10.297507      -280.2094
  10   2.0000     -10.293909      -280.1115
  11   2.0000     -10.287554      -279.9386
  12   2.0000     -10.286090      -279.8987
  13   2.0000     -10.280921      -279.7581
  14   2.0000     -10.279103      -279.7086
  15   2.0000     -10.278017      -279.6791
  16   2.0000      -8.083387      -219.9601
  17   2.0000      -8.081957      -219.9212
  18   2.0000      -6.042058      -164.4128
  19   2.0000      -6.040539      -164.3714
  20   2.0000      -6.038070      -164.3042
  21   2.0000      -6.036776      -164.2690
  22   2.0000      -6.034132      -164.1971
  23   2.0000      -6.032561      -164.1543
  24   2.0000      -1.000226       -27.2175
  25   2.0000      -0.980608       -26.6837
  26   2.0000      -0.910990       -24.7893
  27   2.0000      -0.906881       -24.6775
  28   2.0000      -0.870740       -23.6940
  29   2.0000      -0.854360       -23.2483
  30   2.0000      -0.846455       -23.0332
  31   2.0000      -0.815849       -22.2004
  32   2.0000      -0.782049       -21.2806
  33   2.0000      -0.769436       -20.9374
  34   2.0000      -0.713454       -19.4141
  35   2.0000      -0.696902       -18.9637
  36   2.0000      -0.692777       -18.8514
  37   2.0000      -0.662941       -18.0396
  38   2.0000      -0.637992       -17.3606
  39   2.0000      -0.617395       -16.8002
  40   2.0000      -0.598145       -16.2763
  41   2.0000      -0.569664       -15.5013
  42   2.0000      -0.562091       -15.2953
  43   2.0000      -0.556828       -15.1521
  44   2.0000      -0.528142       -14.3715
  45   2.0000      -0.527210       -14.3461
  46   2.0000      -0.521646       -14.1947
  47   2.0000      -0.512855       -13.9555
  48   2.0000      -0.504254       -13.7214
  49   2.0000      -0.501939       -13.6585
  50   2.0000      -0.488247       -13.2859
  51   2.0000      -0.483787       -13.1645
  52   2.0000      -0.468912       -12.7597
  53   2.0000      -0.462505       -12.5854
  54   2.0000      -0.456213       -12.4142
  55   2.0000      -0.450747       -12.2654
  56   2.0000      -0.446164       -12.1408
  57   2.0000      -0.440984       -11.9998
  58   2.0000      -0.437078       -11.8935
  59   2.0000      -0.425614       -11.5815
  60   2.0000      -0.418573       -11.3900
  61   2.0000      -0.408075       -11.1043
  62   2.0000      -0.401181       -10.9167
  63   2.0000      -0.354931        -9.6582
  64   2.0000      -0.332556        -9.0493
  65   2.0000      -0.329397        -8.9634
  66   2.0000      -0.282509        -7.6875
  67   0.0000       0.017912         0.4874
  68   0.0000       0.070272         1.9122
  69   0.0000       0.097240         2.6460
  70   0.0000       0.113171         3.0796
  71   0.0000       0.127989         3.4828

MULLIKEN ATOMIC CHARGES
-----------------------
   0 S :    0.101617
   1 C :   -0.080748
   2 C :   -0.087722
   3 C :    0.029553
   4 C :   -0.137195
   5 H :   -0.000300
   6 C :    0.008906
   7 H :    0.052499
   8 H :    0.025706
   9 C :   -0.074562
  10 H :    0.016724
  11 H :    0.030284
  12 C :   -0.030502
  13 H :    0.045166
  14 H :    0.025937
  15 H :    0.041199
  16 S :    0.092648
  17 C :   -0.087361
  18 C :   -0.031267
  19 C :   -0.026240
  20 C :   -0.155433
  21 H :    0.023627
  22 C :    0.007398
  23 H :    0.044785
  24 H :    0.023774
  25 C :   -0.045678
  26 H :    0.022026
  27 H :    0.021606
  28 C :   -0.039157
  29 H :    0.027483
  30 H :    0.042021
  31 H :    0.028925
  32 H :    0.021342
  33 H :    0.062937
Sum of atomic charges:   -0.0000000

LOEWDIN ATOMIC CHARGES
----------------------
   0 S :    0.389318
   1 C :   -0.188621
   2 C :   -0.061751
   3 C :   -0.062515
   4 C :   -0.174930
   5 H :    0.021012
   6 C :   -0.045455
   7 H :    0.041030
   8 H :    0.033416
   9 C :   -0.047980
  10 H :    0.022259
  11 H :    0.024006
  12 C :   -0.054309
  13 H :    0.025492
  14 H :    0.024609
  15 H :    0.029588
  16 S :    0.376281
  17 C :   -0.176763
  18 C :   -0.076071
  19 C :   -0.048552
  20 C :   -0.182095
  21 H :    0.034926
  22 C :   -0.043825
  23 H :    0.041587
  24 H :    0.030793
  25 C :   -0.045297
  26 H :    0.018343
  27 H :    0.024135
  28 C :   -0.060598
  29 H :    0.021504
  30 H :    0.029904
  31 H :    0.028580
  32 H :    0.017485
  33 H :    0.034493

  Mayer bond orders larger than 0.100000
B(  0-S ,  1-C ) :   1.1322 B(  0-S ,  4-C ) :   1.1270 B(  1-C ,  2-C ) :   1.6168
B(  1-C , 32-H ) :   0.9710 B(  2-C ,  3-C ) :   1.2317 B(  2-C ,  6-C ) :   1.0268
B(  3-C ,  4-C ) :   1.5751 B(  3-C ,  5-H ) :   0.9903 B(  4-C , 20-C ) :   1.0708
B(  6-C ,  7-H ) :   0.9434 B(  6-C ,  8-H ) :   0.9380 B(  6-C ,  9-C ) :   1.0511
B(  9-C , 10-H ) :   0.9620 B(  9-C , 11-H ) :   0.9505 B(  9-C , 12-C ) :   1.0656
B( 12-C , 13-H ) :   0.9794 B( 12-C , 14-H ) :   0.9791 B( 12-C , 15-H ) :   0.9737
B( 16-S , 17-C ) :   1.1351 B( 16-S , 20-C ) :   1.1222 B( 17-C , 18-C ) :   1.6677
B( 17-C , 33-H ) :   0.9556 B( 18-C , 19-C ) :   1.2403 B( 18-C , 21-H ) :   0.9748
B( 19-C , 20-C ) :   1.5646 B( 19-C , 22-C ) :   1.0236 B( 22-C , 23-H ) :   0.9233
B( 22-C , 24-H ) :   0.9496 B( 22-C , 25-C ) :   1.0550 B( 25-C , 26-H ) :   0.9601
B( 25-C , 27-H ) :   0.9417 B( 25-C , 28-C ) :   1.0856 B( 28-C , 29-H ) :   0.9753
B( 28-C , 30-H ) :   0.9729 B( 28-C , 31-H ) :   0.9736

Dispersion correction           -0.014093437
FINAL SINGLE POINT ENERGY     -1339.858703756041

DIPOLE MOMENT
-------------
                                X             Y             Z
Electronic contribution:      4.14732       6.27239     -19.89941
Nuclear contribution   :     -4.05984      -6.47247      20.24516
                        -----------------------------------------
Total Dipole Moment    :      0.08748      -0.20008       0.34575
                        -----------------------------------------
Magnitude (a.u.)       :      0.40894
Magnitude (Debye)      :      1.03944

Rotational constants in cm-1:     0.017082     0.008356     0.007054
Rotational constants in MHz :   512.099866   250.520894   211.459203

                             ****ORCA TERMINATED NORMALLY****
TOTAL RUN TIME: 0 days 0 hours 0 minutes 22 seconds 438 msec
