                         Program Version 4.2.1 -  RELEASE  -
|  1> ! wB97X-D3 SP def2-SVP
|  2> %pal
|  3> nprocs 24
|  4> end
|  5>
|  6> * xyz 0 1
|  7> S 	 -32.3547 	 -47.5402 	 -78.2567
|  8> C 	 -30.7925 	 -47.971 	 -78.8707
|  9> C 	 -29.7386 	 -47.5219 	 -78.1371
| 10> C 	 -30.2242 	 -46.8152 	 -76.959
| 11> C 	 -31.584 	 -46.6445 	 -76.9824
| 12> H 	 -29.6314 	 -46.4002 	 -76.1888
| 13> C 	 -28.2416 	 -47.7207 	 -78.393
| 14> H 	 -28.0054 	 -48.7381 	 -78.6933
| 15> H 	 -27.5645 	 -47.7597 	 -77.5601
| 16> C 	 -27.5535 	 -46.8388 	 -79.4464
| 17> H 	 -26.4433 	 -47.0965 	 -79.5387
| 18> H 	 -28.0411 	 -47.1187 	 -80.409
| 19> C 	 -27.9202 	 -45.3344 	 -79.1863
| 20> H 	 -29.0098 	 -45.2806 	 -79.0983
| 21> H 	 -27.4163 	 -45.0096 	 -78.3033
| 22> H 	 -27.5853 	 -44.7602 	 -80.0513
| 23> S 	 -33.5019 	 -47.1171 	 -75.0634
| 24> C 	 -33.8136 	 -45.7999 	 -73.9257
| 25> C 	 -33.0544 	 -44.6623 	 -74.1146
| 26> C 	 -32.2292 	 -44.7825 	 -75.3084
| 27> C 	 -32.304 	 -46.0648 	 -75.8803
| 28> H 	 -33.2304 	 -43.8294 	 -73.4172
| 29> C 	 -31.29 	 -43.7213 	 -75.7616
| 30> H 	 -30.3693 	 -44.1022 	 -75.6351
| 31> H 	 -31.2443 	 -42.8725 	 -75.0518
| 32> C 	 -31.4381 	 -43.254 	 -77.2654
| 33> H 	 -32.4349 	 -43.0828 	 -77.5987
| 34> H 	 -31.0947 	 -44.0475 	 -77.9088
| 35> C 	 -30.621 	 -41.8809 	 -77.4758
| 36> H 	 -30.4743 	 -41.7102 	 -78.6079
| 37> H 	 -29.6713 	 -41.9003 	 -76.9588
| 38> H 	 -31.1641 	 -41.0437 	 -77.0052
| 39> H 	 -30.6788 	 -48.5167 	 -79.8022
| 40> H 	 -34.503 	 -45.7368 	 -73.1639
| 41> *
| 42>
| 43>                          ****END OF INPUT****

CARTESIAN COORDINATES (ANGSTROEM)
---------------------------------
  S    -32.354700  -47.540200  -78.256700
  C    -30.792500  -47.971000  -78.870700
  C    -29.738600  -47.521900  -78.137100
  C    -30.224200  -46.815200  -76.959000
  C    -31.584000  -46.644500  -76.982400
  H    -29.631400  -46.400200  -76.188800
  C    -28.241600  -47.720700  -78.393000
  H    -28.005400  -48.738100  -78.693300
  H    -27.564500  -47.759700  -77.560100
  C    -27.553500  -46.838800  -79.446400
  H    -26.443300  -47.096500  -79.538700
  H    -28.041100  -47.118700  -80.409000
  C    -27.920200  -45.334400  -79.186300
  H    -29.009800  -45.280600  -79.098300
  H    -27.416300  -45.009600  -78.303300
  H    -27.585300  -44.760200  -80.051300
  S    -33.501900  -47.117100  -75.063400
  C    -33.813600  -45.799900  -73.925700
  C    -33.054400  -44.662300  -74.114600
  C    -32.229200  -44.782500  -75.308400
  C    -32.304000  -46.064800  -75.880300
  H    -33.230400  -43.829400  -73.417200
  C    -31.290000  -43.721300  -75.761600
  H    -30.369300  -44.102200  -75.635100
  H    -31.244300  -42.872500  -75.051800
  C    -31.438100  -43.254000  -77.265400
  H    -32.434900  -43.082800  -77.598700
  H    -31.094700  -44.047500  -77.908800
  C    -30.621000  -41.880900  -77.475800
  H    -30.474300  -41.710200  -78.607900
  H    -29.671300  -41.900300  -76.958800
  H    -31.164100  -41.043700  -77.005200
  H    -30.678800  -48.516700  -79.802200
  H    -34.503000  -45.736800  -73.163900

 Total Charge           Charge          ....    0
 Multiplicity           Mult            ....    1
 Number of Electrons    NEL             ....  134
 Basis Dimension        Dim             ....  322

ORBITAL ENERGIES
----------------

  NO   OCC          E(Eh)            E(eV)
   0   2.0000     -88.970357     -2421.0065
   1   2.0000     -88.967161     -2420.9195
   2   2.0000     -10.325123      -280.9609
   3   2.0000     -10.324707      -280.9496
   4   2.0000     -10.315186      -280.6905
   5   2.0000     -10.310481      -280.5625
   6   2.0000     -10.307174      -280.4725
   7   2.0000     -10.306444      -280.4526
   8   2.0000     -10.296203      -280.1739
   9   2.0000     -10.294878      -280.1379
  10   2.0000     -10.293208      -280.0924
  11   2.0000     -10.290164      -280.0096
  12   2.0000     -10.286546      -279.9111
  13   2.0000     -10.286124      -279.8997
  14   2.0000     -10.284291      -279.8498
  15   2.0000     -10.275101      -279.5997
  16   2.0000      -8.085702      -220.0231
  17   2.0000      -8.080763      -219.8887
  18   2.0000      -6.044143      -164.4695
  19   2.0000      -6.040245      -164.3634
  20   2.0000      -6.039326      -164.3384
  21   2.0000      -6.036378      -164.2582
  22   2.0000      -6.035592      -164.2368
  23   2.0000      -6.031381      -164.1222
  24   2.0000      -1.008942       -27.4547
  25   2.0000      -0.978665       -26.6308
  26   2.0000      -0.909733       -24.7551
  27   2.0000      -0.900835       -24.5130
  28   2.0000      -0.870396       -23.6847
  29   2.0000      -0.848336       -23.0844
  30   2.0000      -0.839791       -22.8519
  31   2.0000      -0.813653       -22.1406
  32   2.0000      -0.786307       -21.3965
  33   2.0000      -0.768514       -20.9123
  34   2.0000      -0.712599       -19.3908
  35   2.0000      -0.697419       -18.9777
  36   2.0000      -0.692885       -18.8543
  37   2.0000      -0.660820       -17.9818
  38   2.0000      -0.644880       -17.5481
  39   2.0000      -0.617217       -16.7953
  40   2.0000      -0.592902       -16.1337
  41   2.0000      -0.576107       -15.6767
  42   2.0000      -0.556409       -15.1407
  43   2.0000      -0.544845       -14.8260
  44   2.0000      -0.539574       -14.6826
  45   2.0000      -0.521291       -14.1851
  46   2.0000      -0.509195       -13.8559
  47   2.0000      -0.504871       -13.7382
  48   2.0000      -0.501480       -13.6460
  49   2.0000      -0.494976       -13.4690
  50   2.0000      -0.493899       -13.4397
  51   2.0000      -0.479874       -13.0580
  52   2.0000      -0.469185       -12.7672
  53   2.0000      -0.463969       -12.6252
  54   2.0000      -0.457748       -12.4560
  55   2.0000      -0.452932       -12.3249
  56   2.0000      -0.447284       -12.1712
  57   2.0000      -0.439147       -11.9498
  58   2.0000      -0.433504       -11.7962
  59   2.0000      -0.428332       -11.6555
  60   2.0000      -0.421810       -11.4780
  61   2.0000      -0.412570       -11.2266
  62   2.0000      -0.404830       -11.0160
  63   2.0000      -0.345643        -9.4054
  64   2.0000      -0.333168        -9.0660
  65   2.0000      -0.329906        -8.9772
  66   2.0000      -0.292667        -7.9639
  67   0.0000       0.030837         0.8391
  68   0.0000       0.067298         1.8313
  69   0.0000       0.104790         2.8515
  70   0.0000       0.121896         3.3170
  71   0.0000       0.123518         3.3611

MULLIKEN ATOMIC CHARGES
-----------------------
   0 S :    0.124905
   1 C :   -0.123788
   2 C :   -0.052147
   3 C :    0.030677
   4 C :   -0.160808
   5 H :    0.006771
   6 C :    0.068268
   7 H :    0.013503
   8 H :    0.012431
   9 C :   -0.119862
  10 H :    0.046512
  11 H :    0.024460
  12 C :   -0.048652
  13 H :    0.058682
  14 H :    0.027158
  15 H :    0.036497
  16 S :    0.107443
  17 C :   -0.044139
  18 C :   -0.062621
  19 C :   -0.028251
  20 C :   -0.160891
  21 H :    0.031184
  22 C :    0.109964
  23 H :   -0.008104
  24 H :    0.011162
  25 C :   -0.071282
  26 H :    0.029241
  27 H :    0.044066
  28 C :   -0.086121
  29 H :    0.052242
  30 H :    0.029234
  31 H :    0.039453
  32 H :    0.048080
  33 H :    0.014734
Sum of atomic charges:   -0.0000000

LOEWDIN ATOMIC CHARGES
----------------------
   0 S :    0.415990
   1 C :   -0.192564
   2 C :   -0.060663
   3 C :   -0.044382
   4 C :   -0.204746
   5 H :    0.025978
   6 C :   -0.045467
   7 H :    0.031352
   8 H :    0.027830
   9 C :   -0.042951
  10 H :    0.031531
  11 H :    0.019803
  12 C :   -0.063108
  13 H :    0.029870
  14 H :    0.018575
  15 H :    0.026039
  16 S :    0.378778
  17 C :   -0.168096
  18 C :   -0.071273
  19 C :   -0.045849
  20 C :   -0.188778
  21 H :    0.038791
  22 C :   -0.029892
  23 H :    0.016084
  24 H :    0.032462
  25 C :   -0.026796
  26 H :    0.020111
  27 H :    0.021646
  28 C :   -0.071586
  29 H :    0.036273
  30 H :    0.018924
  31 H :    0.025983
  32 H :    0.027928
  33 H :    0.012205

  Mayer bond orders larger than 0.100000
B(  0-S ,  1-C ) :   1.1358 B(  0-S ,  4-C ) :   1.1391 B(  1-C ,  2-C ) :   1.6412
B(  1-C , 32-H ) :   0.9630 B(  2-C ,  3-C ) :   1.2089 B(  2-C ,  6-C ) :   1.0097
B(  3-C ,  4-C ) :   1.5851 B(  3-C ,  5-H ) :   1.0008 B(  4-C , 20-C ) :   1.0588
B(  6-C ,  7-H ) :   0.9366 B(  6-C ,  8-H ) :   0.9459 B(  6-C ,  9-C ) :   1.0692
B(  9-C , 10-H ) :   0.9559 B(  9-C , 11-H ) :   0.9598 B(  9-C , 12-C ) :   1.0690
B( 12-C , 13-H ) :   0.9684 B( 12-C , 14-H ) :   0.9782 B( 12-C , 15-H ) :   0.9748
B( 16-S , 17-C ) :   1.1338 B( 16-S , 20-C ) :   1.1137 B( 17-C , 18-C ) :   1.6689
B( 17-C , 33-H ) :   0.9667 B( 18-C , 19-C ) :   1.2024 B( 18-C , 21-H ) :   0.9838
B( 19-C , 20-C ) :   1.6133 B( 19-C , 22-C ) :   1.0467 B( 22-C , 23-H ) :   0.9156
B( 22-C , 24-H ) :   0.9375 B( 22-C , 25-C ) :   1.0391 B( 25-C , 26-H ) :   0.9649
B( 25-C , 27-H ) :   0.9547 B( 25-C , 28-C ) :   1.0699 B( 28-C , 29-H ) :   0.9761
B( 28-C , 30-H ) :   0.9768 B( 28-C , 31-H ) :   0.9783

Dispersion correction           -0.015739799
FINAL SINGLE POINT ENERGY     -1339.862645658627

DIPOLE MOMENT
-------------
                                X             Y             Z
Electronic contribution:    -22.22237     -18.03158       9.56036
Nuclear contribution   :     22.76126      18.30946      -9.54863
                        -----------------------------------------
Total Dipole Moment    :      0.53889       0.27787       0.01174
                        -----------------------------------------
Magnitude (a.u.)       :      0.60643
Magnitude (Debye)      :      1.54142

Rotational constants in cm-1:     0.018282     0.010149     0.007438
Rotational constants in MHz :   548.086987   304.271369   222.981091

                             ****ORCA TERMINATED NORMALLY****
TOTAL RUN TIME: 0 days 0 hours 0 minutes 23 seconds 109 msec
