                         Program Version 4.2.1 -  RELEASE  -
|  1> ! wB97X-D3 SP def2-SVP
|  2> %pal
|  3> nprocs 24
|  4> end
|  5>
|  6> * xyz 0 1
|  7> S 	 -64.2612 	 7.484 	 -76.3321
|  8> C 	 -64.1621 	 9.0189 	 -75.579
|  9> C 	 -64.6911 	 10.0492 	 -76.2755
| 10> C 	 -65.0144 	 9.62723 	 -77.6139
| 11> C 	 -64.8278 	 8.29084 	 -77.8823
| 12> H 	 -65.3638 	 10.2906 	 -78.3796
| 13> C 	 -64.8543 	 11.5087 	 -75.8513
| 14> H 	 -65.3175 	 11.6324 	 -74.8324
| 15> H 	 -65.6344 	 11.8848 	 -76.458
| 16> C 	 -63.5988 	 12.3257 	 -76.097
| 17> H 	 -63.7724 	 13.4118 	 -75.9087
| 18> H 	 -62.8677 	 11.8992 	 -75.4077
| 19> C 	 -62.9469 	 12.1898 	 -77.5328
| 20> H 	 -62.02 	 12.7798 	 -77.577
| 21> H 	 -62.7103 	 11.1563 	 -77.7063
| 22> H 	 -63.6052 	 12.5535 	 -78.3607
| 23> S 	 -64.0196 	 7.77319 	 -80.5132
| 24> C 	 -64.8591 	 6.50208 	 -81.3518
| 25> C 	 -65.8421 	 5.94382 	 -80.6025
| 26> C 	 -65.9986 	 6.55858 	 -79.3711
| 27> C 	 -65.0983 	 7.54036 	 -79.1304
| 28> H 	 -66.3167 	 5.04236 	 -80.9873
| 29> C 	 -67.0299 	 5.9634 	 -78.3293
| 30> H 	 -67.8975 	 5.94056 	 -78.9262
| 31> H 	 -67.1598 	 6.61459 	 -77.4811
| 32> C 	 -66.5638 	 4.5967 	 -77.7443
| 33> H 	 -66.3832 	 4.72579 	 -76.6757
| 34> H 	 -65.5682 	 4.16124 	 -78.0845
| 35> C 	 -67.614 	 3.50947 	 -78.0542
| 36> H 	 -68.6813 	 3.88615 	 -78.0177
| 37> H 	 -67.6127 	 2.65163 	 -77.358
| 38> H 	 -67.4912 	 3.21608 	 -79.1268
| 39> H 	 -63.7403 	 9.02723 	 -74.5838
| 40> H 	 -64.5553 	 6.19952 	 -82.3373
| 41> *
| 42>
| 43>                          ****END OF INPUT****

CARTESIAN COORDINATES (ANGSTROEM)
---------------------------------
  S    -64.261200    7.484000  -76.332100
  C    -64.162100    9.018900  -75.579000
  C    -64.691100   10.049200  -76.275500
  C    -65.014400    9.627230  -77.613900
  C    -64.827800    8.290840  -77.882300
  H    -65.363800   10.290600  -78.379600
  C    -64.854300   11.508700  -75.851300
  H    -65.317500   11.632400  -74.832400
  H    -65.634400   11.884800  -76.458000
  C    -63.598800   12.325700  -76.097000
  H    -63.772400   13.411800  -75.908700
  H    -62.867700   11.899200  -75.407700
  C    -62.946900   12.189800  -77.532800
  H    -62.020000   12.779800  -77.577000
  H    -62.710300   11.156300  -77.706300
  H    -63.605200   12.553500  -78.360700
  S    -64.019600    7.773190  -80.513200
  C    -64.859100    6.502080  -81.351800
  C    -65.842100    5.943820  -80.602500
  C    -65.998600    6.558580  -79.371100
  C    -65.098300    7.540360  -79.130400
  H    -66.316700    5.042360  -80.987300
  C    -67.029900    5.963400  -78.329300
  H    -67.897500    5.940560  -78.926200
  H    -67.159800    6.614590  -77.481100
  C    -66.563800    4.596700  -77.744300
  H    -66.383200    4.725790  -76.675700
  H    -65.568200    4.161240  -78.084500
  C    -67.614000    3.509470  -78.054200
  H    -68.681300    3.886150  -78.017700
  H    -67.612700    2.651630  -77.358000
  H    -67.491200    3.216080  -79.126800
  H    -63.740300    9.027230  -74.583800
  H    -64.555300    6.199520  -82.337300

 Total Charge           Charge          ....    0
 Multiplicity           Mult            ....    1
 Number of Electrons    NEL             ....  134
 Basis Dimension        Dim             ....  322

ORBITAL ENERGIES
----------------

  NO   OCC          E(Eh)            E(eV)
   0   2.0000     -88.962837     -2420.8019
   1   2.0000     -88.962676     -2420.7975
   2   2.0000     -10.332821      -281.1703
   3   2.0000     -10.321998      -280.8758
   4   2.0000     -10.313042      -280.6321
   5   2.0000     -10.310904      -280.5740
   6   2.0000     -10.299067      -280.2519
   7   2.0000     -10.296938      -280.1939
   8   2.0000     -10.294666      -280.1321
   9   2.0000     -10.292559      -280.0748
  10   2.0000     -10.291174      -280.0371
  11   2.0000     -10.291084      -280.0346
  12   2.0000     -10.290520      -280.0193
  13   2.0000     -10.287224      -279.9296
  14   2.0000     -10.285084      -279.8714
  15   2.0000     -10.279106      -279.7087
  16   2.0000      -8.077834      -219.8090
  17   2.0000      -8.077111      -219.7894
  18   2.0000      -6.036229      -164.2541
  19   2.0000      -6.035617      -164.2375
  20   2.0000      -6.032378      -164.1494
  21   2.0000      -6.031821      -164.1342
  22   2.0000      -6.028623      -164.0472
  23   2.0000      -6.027739      -164.0231
  24   2.0000      -1.006050       -27.3760
  25   2.0000      -0.987135       -26.8613
  26   2.0000      -0.907567       -24.6961
  27   2.0000      -0.901079       -24.5196
  28   2.0000      -0.867956       -23.6183
  29   2.0000      -0.847285       -23.0558
  30   2.0000      -0.840642       -22.8750
  31   2.0000      -0.813250       -22.1297
  32   2.0000      -0.781618       -21.2689
  33   2.0000      -0.771768       -21.0009
  34   2.0000      -0.701769       -19.0961
  35   2.0000      -0.697593       -18.9825
  36   2.0000      -0.691905       -18.8277
  37   2.0000      -0.662123       -18.0173
  38   2.0000      -0.646354       -17.5882
  39   2.0000      -0.612715       -16.6728
  40   2.0000      -0.597813       -16.2673
  41   2.0000      -0.575529       -15.6609
  42   2.0000      -0.552652       -15.0384
  43   2.0000      -0.541265       -14.7286
  44   2.0000      -0.540043       -14.6953
  45   2.0000      -0.524505       -14.2725
  46   2.0000      -0.516785       -14.0624
  47   2.0000      -0.510224       -13.8839
  48   2.0000      -0.503818       -13.7096
  49   2.0000      -0.490740       -13.3537
  50   2.0000      -0.488184       -13.2842
  51   2.0000      -0.472070       -12.8457
  52   2.0000      -0.469971       -12.7886
  53   2.0000      -0.464940       -12.6517
  54   2.0000      -0.461081       -12.5466
  55   2.0000      -0.448617       -12.2075
  56   2.0000      -0.443686       -12.0733
  57   2.0000      -0.440778       -11.9942
  58   2.0000      -0.438244       -11.9252
  59   2.0000      -0.419358       -11.4113
  60   2.0000      -0.412701       -11.2302
  61   2.0000      -0.411969       -11.2102
  62   2.0000      -0.405786       -11.0420
  63   2.0000      -0.341404        -9.2901
  64   2.0000      -0.335760        -9.1365
  65   2.0000      -0.326625        -8.8879
  66   2.0000      -0.302085        -8.2201
  67   0.0000       0.043432         1.1818
  68   0.0000       0.059148         1.6095
  69   0.0000       0.105562         2.8725
  70   0.0000       0.114897         3.1265
  71   0.0000       0.138535         3.7697

MULLIKEN ATOMIC CHARGES
-----------------------
   0 S :    0.093804
   1 C :   -0.140781
   2 C :   -0.087242
   3 C :    0.037445
   4 C :   -0.160351
   5 H :    0.007676
   6 C :    0.098706
   7 H :    0.040543
   8 H :    0.003098
   9 C :   -0.078741
  10 H :    0.042919
  11 H :    0.029739
  12 C :   -0.082262
  13 H :    0.040243
  14 H :    0.050595
  15 H :    0.036383
  16 S :    0.107427
  17 C :   -0.094964
  18 C :   -0.039227
  19 C :   -0.028336
  20 C :   -0.181890
  21 H :    0.020667
  22 C :    0.107242
  23 H :    0.028070
  24 H :    0.030888
  25 C :   -0.077621
  26 H :    0.032060
  27 H :    0.049017
  28 C :   -0.097412
  29 H :    0.033765
  30 H :    0.042368
  31 H :    0.037474
  32 H :    0.049941
  33 H :    0.048755
Sum of atomic charges:   -0.0000000

LOEWDIN ATOMIC CHARGES
----------------------
   0 S :    0.376093
   1 C :   -0.192421
   2 C :   -0.071378
   3 C :   -0.048260
   4 C :   -0.169611
   5 H :    0.029740
   6 C :   -0.035038
   7 H :    0.039110
   8 H :    0.022146
   9 C :   -0.039460
  10 H :    0.027561
  11 H :    0.024137
  12 C :   -0.068726
  13 H :    0.029286
  14 H :    0.023983
  15 H :    0.025823
  16 S :    0.398618
  17 C :   -0.174288
  18 C :   -0.078454
  19 C :   -0.054640
  20 C :   -0.201460
  21 H :    0.035716
  22 C :   -0.012964
  23 H :    0.024954
  24 H :    0.029743
  25 C :   -0.048325
  26 H :    0.022540
  27 H :    0.033508
  28 C :   -0.076347
  29 H :    0.025999
  30 H :    0.026039
  31 H :    0.027076
  32 H :    0.025153
  33 H :    0.024149

  Mayer bond orders larger than 0.100000
B(  0-S ,  1-C ) :   1.1543 B(  0-S ,  4-C ) :   1.1083 B(  1-C ,  2-C ) :   1.6291
B(  1-C , 32-H ) :   0.9668 B(  2-C ,  3-C ) :   1.2151 B(  2-C ,  6-C ) :   1.0142
B(  3-C ,  4-C ) :   1.6289 B(  3-C ,  5-H ) :   0.9927 B(  4-C , 20-C ) :   1.0142
B(  6-C ,  7-H ) :   0.9446 B(  6-C ,  8-H ) :   0.9306 B(  6-C ,  9-C ) :   1.0651
B(  9-C , 10-H ) :   0.9581 B(  9-C , 11-H ) :   0.9577 B(  9-C , 12-C ) :   1.0782
B( 12-C , 13-H ) :   0.9739 B( 12-C , 14-H ) :   0.9694 B( 12-C , 15-H ) :   0.9757
B( 16-S , 17-C ) :   1.1634 B( 16-S , 20-C ) :   1.1345 B( 17-C , 18-C ) :   1.6140
B( 17-C , 33-H ) :   0.9686 B( 18-C , 19-C ) :   1.2277 B( 18-C , 21-H ) :   0.9944
B( 19-C , 20-C ) :   1.6327 B( 19-C , 22-C ) :   1.0293 B( 22-C , 23-H ) :   0.9483
B( 22-C , 24-H ) :   0.9355 B( 22-C , 25-C ) :   1.0255 B( 25-C , 26-H ) :   0.9626
B( 25-C , 27-H ) :   0.9674 B( 25-C , 28-C ) :   1.0590 B( 28-C , 29-H ) :   0.9802
B( 28-C , 30-H ) :   0.9741 B( 28-C , 31-H ) :   0.9777

Dispersion correction           -0.015231352
FINAL SINGLE POINT ENERGY     -1339.880520168507

DIPOLE MOMENT
-------------
                                X             Y             Z
Electronic contribution:      6.84410      -2.90649      -6.30944
Nuclear contribution   :     -7.08039       2.98576       6.41471
                        -----------------------------------------
Total Dipole Moment    :     -0.23628       0.07927       0.10527
                        -----------------------------------------
Magnitude (a.u.)       :      0.27054
Magnitude (Debye)      :      0.68767

Rotational constants in cm-1:     0.022755     0.008196     0.006577
Rotational constants in MHz :   682.182412   245.703762   197.164980

                             ****ORCA TERMINATED NORMALLY****
TOTAL RUN TIME: 0 days 0 hours 0 minutes 21 seconds 579 msec
