                         Program Version 4.2.1 -  RELEASE  -
|  1> ! wB97X-D3 SP def2-SVP
|  2> %pal
|  3> nprocs 24
|  4> end
|  5>
|  6> * xyz 0 1
|  7> S 	 -97.0471 	 -27.834 	 -63.4393
|  8> C 	 -96.537 	 -26.4666 	 -64.4099
|  9> C 	 -96.1699 	 -25.3959 	 -63.6194
| 10> C 	 -96.2493 	 -25.719 	 -62.2466
| 11> C 	 -96.8027 	 -26.9674 	 -62.002
| 12> H 	 -95.9772 	 -25.0509 	 -61.3966
| 13> C 	 -95.4367 	 -24.1085 	 -64.1616
| 14> H 	 -96.0551 	 -23.235 	 -63.8491
| 15> H 	 -95.5967 	 -24.0972 	 -65.2549
| 16> C 	 -94.0203 	 -23.9477 	 -63.7281
| 17> H 	 -93.7602 	 -24.3837 	 -62.7808
| 18> H 	 -93.3582 	 -24.4989 	 -64.4017
| 19> C 	 -93.5348 	 -22.4384 	 -63.7678
| 20> H 	 -92.4287 	 -22.4514 	 -63.8104
| 21> H 	 -93.8905 	 -21.8406 	 -64.6072
| 22> H 	 -93.8263 	 -21.875 	 -62.8656
| 23> S 	 -96.4047 	 -29.228 	 -60.3838
| 24> C 	 -97.1971 	 -29.3452 	 -58.8682
| 25> C 	 -97.9385 	 -28.2691 	 -58.584
| 26> C 	 -97.8733 	 -27.2437 	 -59.5451
| 27> C 	 -97.1263 	 -27.5817 	 -60.6987
| 28> H 	 -98.4181 	 -28.1514 	 -57.6313
| 29> C 	 -98.5548 	 -25.8882 	 -59.3698
| 30> H 	 -99.6002 	 -26.0156 	 -59.1376
| 31> H 	 -98.6625 	 -25.3651 	 -60.2957
| 32> C 	 -97.9769 	 -24.9762 	 -58.2938
| 33> H 	 -96.9473 	 -24.8657 	 -58.4102
| 34> H 	 -98.0894 	 -25.5075 	 -57.3206
| 35> C 	 -98.7075 	 -23.6286 	 -58.0211
| 36> H 	 -99.759 	 -23.8464 	 -57.8735
| 37> H 	 -98.5421 	 -22.957 	 -58.8569
| 38> H 	 -98.2192 	 -23.0804 	 -57.1422
| 39> H 	 -96.5898 	 -26.5204 	 -65.4553
| 40> H 	 -97.1055 	 -30.2024 	 -58.1872
| 41> *
| 42>
| 43>                          ****END OF INPUT****

CARTESIAN COORDINATES (ANGSTROEM)
---------------------------------
  S    -97.047100  -27.834000  -63.439300
  C    -96.537000  -26.466600  -64.409900
  C    -96.169900  -25.395900  -63.619400
  C    -96.249300  -25.719000  -62.246600
  C    -96.802700  -26.967400  -62.002000
  H    -95.977200  -25.050900  -61.396600
  C    -95.436700  -24.108500  -64.161600
  H    -96.055100  -23.235000  -63.849100
  H    -95.596700  -24.097200  -65.254900
  C    -94.020300  -23.947700  -63.728100
  H    -93.760200  -24.383700  -62.780800
  H    -93.358200  -24.498900  -64.401700
  C    -93.534800  -22.438400  -63.767800
  H    -92.428700  -22.451400  -63.810400
  H    -93.890500  -21.840600  -64.607200
  H    -93.826300  -21.875000  -62.865600
  S    -96.404700  -29.228000  -60.383800
  C    -97.197100  -29.345200  -58.868200
  C    -97.938500  -28.269100  -58.584000
  C    -97.873300  -27.243700  -59.545100
  C    -97.126300  -27.581700  -60.698700
  H    -98.418100  -28.151400  -57.631300
  C    -98.554800  -25.888200  -59.369800
  H    -99.600200  -26.015600  -59.137600
  H    -98.662500  -25.365100  -60.295700
  C    -97.976900  -24.976200  -58.293800
  H    -96.947300  -24.865700  -58.410200
  H    -98.089400  -25.507500  -57.320600
  C    -98.707500  -23.628600  -58.021100
  H    -99.759000  -23.846400  -57.873500
  H    -98.542100  -22.957000  -58.856900
  H    -98.219200  -23.080400  -57.142200
  H    -96.589800  -26.520400  -65.455300
  H    -97.105500  -30.202400  -58.187200

 Total Charge           Charge          ....    0
 Multiplicity           Mult            ....    1
 Number of Electrons    NEL             ....  134
 Basis Dimension        Dim             ....  322

ORBITAL ENERGIES
----------------

  NO   OCC          E(Eh)            E(eV)
   0   2.0000     -88.966276     -2420.8955
   1   2.0000     -88.961583     -2420.7678
   2   2.0000     -10.334939      -281.2280
   3   2.0000     -10.328636      -281.0565
   4   2.0000     -10.313599      -280.6473
   5   2.0000     -10.311355      -280.5862
   6   2.0000     -10.307878      -280.4916
   7   2.0000     -10.303723      -280.3786
   8   2.0000     -10.299302      -280.2583
   9   2.0000     -10.295637      -280.1585
  10   2.0000     -10.288446      -279.9628
  11   2.0000     -10.285995      -279.8962
  12   2.0000     -10.285868      -279.8927
  13   2.0000     -10.285699      -279.8881
  14   2.0000     -10.284901      -279.8664
  15   2.0000     -10.282685      -279.8061
  16   2.0000      -8.082100      -219.9251
  17   2.0000      -8.076288      -219.7670
  18   2.0000      -6.040431      -164.3685
  19   2.0000      -6.036415      -164.2592
  20   2.0000      -6.034770      -164.2145
  21   2.0000      -6.033010      -164.1665
  22   2.0000      -6.030777      -164.1058
  23   2.0000      -6.027095      -164.0056
  24   2.0000      -1.008873       -27.4528
  25   2.0000      -0.987802       -26.8795
  26   2.0000      -0.909464       -24.7478
  27   2.0000      -0.907397       -24.6915
  28   2.0000      -0.868124       -23.6229
  29   2.0000      -0.849803       -23.1243
  30   2.0000      -0.843837       -22.9620
  31   2.0000      -0.813652       -22.1406
  32   2.0000      -0.783650       -21.3242
  33   2.0000      -0.772777       -21.0283
  34   2.0000      -0.708914       -19.2905
  35   2.0000      -0.700184       -19.0530
  36   2.0000      -0.695671       -18.9302
  37   2.0000      -0.656731       -17.8706
  38   2.0000      -0.646373       -17.5887
  39   2.0000      -0.621368       -16.9083
  40   2.0000      -0.601410       -16.3652
  41   2.0000      -0.569104       -15.4861
  42   2.0000      -0.563442       -15.3320
  43   2.0000      -0.552678       -15.0391
  44   2.0000      -0.526891       -14.3374
  45   2.0000      -0.522866       -14.2279
  46   2.0000      -0.514359       -13.9964
  47   2.0000      -0.508149       -13.8274
  48   2.0000      -0.505498       -13.7553
  49   2.0000      -0.502195       -13.6654
  50   2.0000      -0.492872       -13.4117
  51   2.0000      -0.476002       -12.9527
  52   2.0000      -0.473527       -12.8853
  53   2.0000      -0.464391       -12.6367
  54   2.0000      -0.460875       -12.5410
  55   2.0000      -0.453767       -12.3476
  56   2.0000      -0.450689       -12.2639
  57   2.0000      -0.446180       -12.1412
  58   2.0000      -0.438443       -11.9306
  59   2.0000      -0.417183       -11.3521
  60   2.0000      -0.416589       -11.3360
  61   2.0000      -0.412038       -11.2121
  62   2.0000      -0.409338       -11.1387
  63   2.0000      -0.344978        -9.3873
  64   2.0000      -0.335691        -9.1346
  65   2.0000      -0.331156        -9.0112
  66   2.0000      -0.294238        -8.0066
  67   0.0000       0.032592         0.8869
  68   0.0000       0.069080         1.8798
  69   0.0000       0.117145         3.1877
  70   0.0000       0.128408         3.4941
  71   0.0000       0.129902         3.5348

MULLIKEN ATOMIC CHARGES
-----------------------
   0 S :    0.122708
   1 C :   -0.119817
   2 C :   -0.073890
   3 C :    0.010418
   4 C :   -0.155116
   5 H :    0.027854
   6 C :    0.067543
   7 H :    0.032296
   8 H :    0.023271
   9 C :   -0.050004
  10 H :    0.031800
  11 H :    0.028180
  12 C :   -0.088154
  13 H :    0.036617
  14 H :    0.037237
  15 H :    0.039870
  16 S :    0.083326
  17 C :   -0.079668
  18 C :   -0.023933
  19 C :   -0.015967
  20 C :   -0.166615
  21 H :    0.012236
  22 C :    0.092977
  23 H :    0.007554
  24 H :    0.011452
  25 C :   -0.085120
  26 H :    0.014706
  27 H :    0.022575
  28 C :   -0.057866
  29 H :    0.038386
  30 H :    0.031347
  31 H :    0.048450
  32 H :    0.031647
  33 H :    0.063701
Sum of atomic charges:   -0.0000000

LOEWDIN ATOMIC CHARGES
----------------------
   0 S :    0.434891
   1 C :   -0.188475
   2 C :   -0.062879
   3 C :   -0.070788
   4 C :   -0.215990
   5 H :    0.038510
   6 C :   -0.031969
   7 H :    0.032502
   8 H :    0.031868
   9 C :   -0.041896
  10 H :    0.025410
  11 H :    0.028185
  12 C :   -0.068869
  13 H :    0.028985
  14 H :    0.024014
  15 H :    0.025674
  16 S :    0.383257
  17 C :   -0.187386
  18 C :   -0.080152
  19 C :   -0.046650
  20 C :   -0.176086
  21 H :    0.031523
  22 C :   -0.033601
  23 H :    0.028333
  24 H :    0.025131
  25 C :   -0.040566
  26 H :    0.011626
  27 H :    0.024953
  28 C :   -0.065227
  29 H :    0.024692
  30 H :    0.020647
  31 H :    0.038170
  32 H :    0.015475
  33 H :    0.036686

  Mayer bond orders larger than 0.100000
B(  0-S ,  1-C ) :   1.1486 B(  0-S ,  4-C ) :   1.1857 B(  1-C ,  2-C ) :   1.5907
B(  1-C ,  4-C ) :   0.1001 B(  1-C , 32-H ) :   0.9787 B(  2-C ,  3-C ) :   1.2576
B(  2-C ,  6-C ) :   1.0139 B(  3-C ,  4-C ) :   1.5531 B(  3-C ,  5-H ) :   0.9906
B(  4-C , 20-C ) :   1.0180 B(  6-C ,  7-H ) :   0.9448 B(  6-C ,  8-H ) :   0.9412
B(  6-C ,  9-C ) :   1.0527 B(  9-C , 10-H ) :   0.9612 B(  9-C , 11-H ) :   0.9559
B(  9-C , 12-C ) :   1.0658 B( 12-C , 13-H ) :   0.9776 B( 12-C , 14-H ) :   0.9792
B( 12-C , 15-H ) :   0.9781 B( 16-S , 17-C ) :   1.1595 B( 16-S , 20-C ) :   1.1293
B( 17-C , 18-C ) :   1.6121 B( 17-C , 33-H ) :   0.9598 B( 18-C , 19-C ) :   1.2493
B( 18-C , 21-H ) :   0.9924 B( 19-C , 20-C ) :   1.5916 B( 19-C , 22-C ) :   1.0485
B( 22-C , 23-H ) :   0.9260 B( 22-C , 24-H ) :   0.9355 B( 22-C , 25-C ) :   1.0552
B( 25-C , 26-H ) :   0.9574 B( 25-C , 27-H ) :   0.9559 B( 25-C , 28-C ) :   1.0787
B( 28-C , 29-H ) :   0.9740 B( 28-C , 30-H ) :   0.9774 B( 28-C , 31-H ) :   0.9743

Dispersion correction           -0.013498684
FINAL SINGLE POINT ENERGY     -1339.885041118611

DIPOLE MOMENT
-------------
                                X             Y             Z
Electronic contribution:     -3.62058     -29.78420      -5.35422
Nuclear contribution   :      3.66054      30.35808       5.54617
                        -----------------------------------------
Total Dipole Moment    :      0.03997       0.57388       0.19196
                        -----------------------------------------
Magnitude (a.u.)       :      0.60645
Magnitude (Debye)      :      1.54147

Rotational constants in cm-1:     0.016148     0.008586     0.006381
Rotational constants in MHz :   484.096229   257.414445   191.309201

                             ****ORCA TERMINATED NORMALLY****
TOTAL RUN TIME: 0 days 0 hours 0 minutes 20 seconds 874 msec
