                         Program Version 4.2.1 -  RELEASE  -
|  1> ! wB97X-D3 SP def2-SVP
|  2> %pal
|  3> nprocs 24
|  4> end
|  5>
|  6> * xyz 0 1
|  7> S 	 -107.626 	 48.2074 	 -69.3941
|  8> C 	 -108.465 	 47.9658 	 -70.8839
|  9> C 	 -107.587 	 48.2226 	 -71.9711
| 10> C 	 -106.412 	 48.8897 	 -71.5161
| 11> C 	 -106.342 	 49.0919 	 -70.1688
| 12> H 	 -105.669 	 49.3573 	 -72.1707
| 13> C 	 -107.797 	 48.1609 	 -73.4761
| 14> H 	 -108.148 	 47.148 	 -73.8335
| 15> H 	 -106.828 	 48.2043 	 -74.035
| 16> C 	 -108.828 	 49.0861 	 -74.0406
| 17> H 	 -109.71 	 49.0023 	 -73.4882
| 18> H 	 -108.603 	 50.1291 	 -73.7473
| 19> C 	 -108.809 	 48.9804 	 -75.5914
| 20> H 	 -108.947 	 47.9777 	 -75.9524
| 21> H 	 -109.628 	 49.5597 	 -75.9691
| 22> H 	 -107.957 	 49.4312 	 -76.0135
| 23> S 	 -104.321 	 48.7692 	 -68.4027
| 24> C 	 -103.112 	 50.0197 	 -68.1241
| 25> C 	 -103.256 	 51.0613 	 -69.0414
| 26> C 	 -104.48 	 50.9493 	 -69.8182
| 27> C 	 -105.149 	 49.72 	 -69.5755
| 28> H 	 -102.484 	 51.8162 	 -69.1866
| 29> C 	 -104.773 	 52.0413 	 -70.798
| 30> H 	 -105.573 	 51.6187 	 -71.4969
| 31> H 	 -103.862 	 52.175 	 -71.3793
| 32> C 	 -105.104 	 53.4529 	 -70.1874
| 33> H 	 -104.277 	 53.6642 	 -69.4377
| 34> H 	 -106.037 	 53.4687 	 -69.752
| 35> C 	 -105.008 	 54.6853 	 -71.1559
| 36> H 	 -103.977 	 54.6873 	 -71.5686
| 37> H 	 -105.111 	 55.6735 	 -70.6956
| 38> H 	 -105.738 	 54.5143 	 -71.8762
| 39> H 	 -109.498 	 47.6161 	 -71.0119
| 40> H 	 -102.159 	 49.849 	 -67.6571
| 41> *
| 42>
| 43>                          ****END OF INPUT****

CARTESIAN COORDINATES (ANGSTROEM)
---------------------------------
  S    -107.626000   48.207400  -69.394100
  C    -108.465000   47.965800  -70.883900
  C    -107.587000   48.222600  -71.971100
  C    -106.412000   48.889700  -71.516100
  C    -106.342000   49.091900  -70.168800
  H    -105.669000   49.357300  -72.170700
  C    -107.797000   48.160900  -73.476100
  H    -108.148000   47.148000  -73.833500
  H    -106.828000   48.204300  -74.035000
  C    -108.828000   49.086100  -74.040600
  H    -109.710000   49.002300  -73.488200
  H    -108.603000   50.129100  -73.747300
  C    -108.809000   48.980400  -75.591400
  H    -108.947000   47.977700  -75.952400
  H    -109.628000   49.559700  -75.969100
  H    -107.957000   49.431200  -76.013500
  S    -104.321000   48.769200  -68.402700
  C    -103.112000   50.019700  -68.124100
  C    -103.256000   51.061300  -69.041400
  C    -104.480000   50.949300  -69.818200
  C    -105.149000   49.720000  -69.575500
  H    -102.484000   51.816200  -69.186600
  C    -104.773000   52.041300  -70.798000
  H    -105.573000   51.618700  -71.496900
  H    -103.862000   52.175000  -71.379300
  C    -105.104000   53.452900  -70.187400
  H    -104.277000   53.664200  -69.437700
  H    -106.037000   53.468700  -69.752000
  C    -105.008000   54.685300  -71.155900
  H    -103.977000   54.687300  -71.568600
  H    -105.111000   55.673500  -70.695600
  H    -105.738000   54.514300  -71.876200
  H    -109.498000   47.616100  -71.011900
  H    -102.159000   49.849000  -67.657100

 Total Charge           Charge          ....    0
 Multiplicity           Mult            ....    1
 Number of Electrons    NEL             ....  134
 Basis Dimension        Dim             ....  322

ORBITAL ENERGIES
----------------

  NO   OCC          E(Eh)            E(eV)
   0   2.0000     -88.971953     -2421.0499
   1   2.0000     -88.965704     -2420.8799
   2   2.0000     -10.332606      -281.1645
   3   2.0000     -10.327339      -281.0212
   4   2.0000     -10.322432      -280.8877
   5   2.0000     -10.315548      -280.7003
   6   2.0000     -10.307172      -280.4724
   7   2.0000     -10.306030      -280.4413
   8   2.0000     -10.298561      -280.2381
   9   2.0000     -10.297833      -280.2183
  10   2.0000     -10.295638      -280.1585
  11   2.0000     -10.290635      -280.0224
  12   2.0000     -10.287945      -279.9492
  13   2.0000     -10.283481      -279.8277
  14   2.0000     -10.277416      -279.6627
  15   2.0000     -10.276108      -279.6271
  16   2.0000      -8.086746      -220.0516
  17   2.0000      -8.080698      -219.8870
  18   2.0000      -6.045326      -164.5017
  19   2.0000      -6.041218      -164.3899
  20   2.0000      -6.039211      -164.3353
  21   2.0000      -6.037439      -164.2871
  22   2.0000      -6.035104      -164.2235
  23   2.0000      -6.031504      -164.1256
  24   2.0000      -1.009268       -27.4636
  25   2.0000      -0.984171       -26.7807
  26   2.0000      -0.916103       -24.9284
  27   2.0000      -0.903324       -24.5807
  28   2.0000      -0.869822       -23.6691
  29   2.0000      -0.853754       -23.2318
  30   2.0000      -0.847251       -23.0549
  31   2.0000      -0.812713       -22.1150
  32   2.0000      -0.780629       -21.2420
  33   2.0000      -0.769056       -20.9271
  34   2.0000      -0.712901       -19.3990
  35   2.0000      -0.702747       -19.1227
  36   2.0000      -0.690529       -18.7902
  37   2.0000      -0.663155       -18.0454
  38   2.0000      -0.642736       -17.4897
  39   2.0000      -0.620997       -16.8982
  40   2.0000      -0.588631       -16.0175
  41   2.0000      -0.570849       -15.5336
  42   2.0000      -0.567837       -15.4516
  43   2.0000      -0.558760       -15.2046
  44   2.0000      -0.525267       -14.2933
  45   2.0000      -0.523375       -14.2417
  46   2.0000      -0.519601       -14.1391
  47   2.0000      -0.513063       -13.9611
  48   2.0000      -0.506587       -13.7849
  49   2.0000      -0.498315       -13.5598
  50   2.0000      -0.496566       -13.5123
  51   2.0000      -0.480149       -13.0655
  52   2.0000      -0.469607       -12.7787
  53   2.0000      -0.463879       -12.6228
  54   2.0000      -0.459400       -12.5009
  55   2.0000      -0.456886       -12.4325
  56   2.0000      -0.451644       -12.2898
  57   2.0000      -0.438882       -11.9426
  58   2.0000      -0.431264       -11.7353
  59   2.0000      -0.430017       -11.7014
  60   2.0000      -0.423855       -11.5337
  61   2.0000      -0.408407       -11.1133
  62   2.0000      -0.405336       -11.0298
  63   2.0000      -0.350675        -9.5423
  64   2.0000      -0.329879        -8.9765
  65   2.0000      -0.326274        -8.8784
  66   2.0000      -0.290007        -7.8915
  67   0.0000       0.030479         0.8294
  68   0.0000       0.061013         1.6602
  69   0.0000       0.101016         2.7488
  70   0.0000       0.121896         3.3169
  71   0.0000       0.133198         3.6245

MULLIKEN ATOMIC CHARGES
-----------------------
   0 S :    0.134392
   1 C :   -0.136874
   2 C :   -0.041388
   3 C :    0.000660
   4 C :   -0.133902
   5 H :    0.027592
   6 C :    0.004566
   7 H :    0.022780
   8 H :    0.027314
   9 C :   -0.039424
  10 H :    0.004385
  11 H :    0.011703
  12 C :   -0.005348
  13 H :    0.028106
  14 H :    0.023655
  15 H :    0.027787
  16 S :    0.101764
  17 C :   -0.081224
  18 C :   -0.060327
  19 C :   -0.043926
  20 C :   -0.161990
  21 H :    0.032414
  22 C :    0.046070
  23 H :    0.033391
  24 H :    0.023670
  25 C :   -0.078950
  26 H :    0.033691
  27 H :    0.025701
  28 C :   -0.043385
  29 H :    0.026596
  30 H :    0.042669
  31 H :    0.026178
  32 H :    0.062719
  33 H :    0.058934
Sum of atomic charges:   -0.0000000

LOEWDIN ATOMIC CHARGES
----------------------
   0 S :    0.426324
   1 C :   -0.208948
   2 C :   -0.059888
   3 C :   -0.062252
   4 C :   -0.208952
   5 H :    0.033676
   6 C :   -0.043189
   7 H :    0.031362
   8 H :    0.032992
   9 C :   -0.039525
  10 H :    0.015148
  11 H :    0.024568
  12 C :   -0.052428
  13 H :    0.022968
  14 H :    0.026681
  15 H :    0.023127
  16 S :    0.415019
  17 C :   -0.193289
  18 C :   -0.062549
  19 C :   -0.063741
  20 C :   -0.197215
  21 H :    0.032798
  22 C :   -0.040611
  23 H :    0.034288
  24 H :    0.031248
  25 C :   -0.030449
  26 H :    0.028917
  27 H :    0.012561
  28 C :   -0.061438
  29 H :    0.025908
  30 H :    0.029946
  31 H :    0.014093
  32 H :    0.035411
  33 H :    0.027443

  Mayer bond orders larger than 0.100000
B(  0-S ,  1-C ) :   1.1561 B(  0-S ,  4-C ) :   1.1505 B(  1-C ,  2-C ) :   1.5627
B(  1-C ,  4-C ) :   0.1009 B(  1-C , 32-H ) :   0.9711 B(  2-C ,  3-C ) :   1.2663
B(  2-C ,  6-C ) :   1.0259 B(  3-C ,  4-C ) :   1.5535 B(  3-C ,  5-H ) :   0.9889
B(  4-C , 20-C ) :   1.0325 B(  6-C ,  7-H ) :   0.9337 B(  6-C ,  8-H ) :   0.9494
B(  6-C ,  9-C ) :   1.0648 B(  9-C , 10-H ) :   0.9544 B(  9-C , 11-H ) :   0.9481
B(  9-C , 12-C ) :   1.0679 B( 12-C , 13-H ) :   0.9774 B( 12-C , 14-H ) :   0.9717
B( 12-C , 15-H ) :   0.9747 B( 16-S , 17-C ) :   1.1454 B( 16-S , 20-C ) :   1.1630
B( 17-C , 18-C ) :   1.6200 B( 17-C , 33-H ) :   0.9634 B( 18-C , 19-C ) :   1.2391
B( 18-C , 21-H ) :   0.9803 B( 19-C , 20-C ) :   1.5805 B( 19-C , 22-C ) :   1.0570
B( 22-C , 23-H ) :   0.9291 B( 22-C , 24-H ) :   0.9329 B( 22-C , 25-C ) :   1.0500
B( 25-C , 26-H ) :   0.9609 B( 25-C , 27-H ) :   0.9612 B( 25-C , 28-C ) :   1.0726
B( 28-C , 29-H ) :   0.9762 B( 28-C , 30-H ) :   0.9764 B( 28-C , 31-H ) :   0.9796

Dispersion correction           -0.013312398
FINAL SINGLE POINT ENERGY     -1339.855373184287

DIPOLE MOMENT
-------------
                                X             Y             Z
Electronic contribution:      4.65958     -18.20622      25.06046
Nuclear contribution   :     -4.61197      18.55665     -25.79765
                        -----------------------------------------
Total Dipole Moment    :      0.04762       0.35043      -0.73719
                        -----------------------------------------
Magnitude (a.u.)       :      0.81763
Magnitude (Debye)      :      2.07825

Rotational constants in cm-1:     0.016160     0.008529     0.006206
Rotational constants in MHz :   484.451263   255.697310   186.041667

                             ****ORCA TERMINATED NORMALLY****
TOTAL RUN TIME: 0 days 0 hours 0 minutes 20 seconds 944 msec
