                         Program Version 4.2.1 -  RELEASE  -
|  1> ! wB97X-D3 SP def2-SVP
|  2> %pal
|  3> nprocs 24
|  4> end
|  5>
|  6> * xyz 0 1
|  7> S 	 -124.702 	 54.0508 	 -34.5841
|  8> C 	 -123.321 	 53.1152 	 -33.9704
|  9> C 	 -122.697 	 53.7392 	 -32.9388
| 10> C 	 -123.301 	 55.0521 	 -32.6736
| 11> C 	 -124.39 	 55.404 	 -33.469
| 12> H 	 -122.942 	 55.7445 	 -31.9972
| 13> C 	 -121.496 	 53.3212 	 -32.066
| 14> H 	 -120.973 	 54.1799 	 -31.7101
| 15> H 	 -120.782 	 52.7938 	 -32.6492
| 16> C 	 -121.941 	 52.3535 	 -30.898
| 17> H 	 -122.761 	 52.8386 	 -30.3471
| 18> H 	 -122.462 	 51.5127 	 -31.2203
| 19> C 	 -120.84 	 51.8968 	 -29.9761
| 20> H 	 -121.222 	 51.2329 	 -29.2004
| 21> H 	 -120.051 	 51.4051 	 -30.5861
| 22> H 	 -120.326 	 52.667 	 -29.4706
| 23> S 	 -125.412 	 57.1066 	 -35.5132
| 24> C 	 -125.818 	 58.6778 	 -35.0975
| 25> C 	 -125.767 	 58.8984 	 -33.8002
| 26> C 	 -125.331 	 57.8033 	 -33.0471
| 27> C 	 -125.115 	 56.6668 	 -33.8042
| 28> H 	 -125.959 	 59.9277 	 -33.4019
| 29> C 	 -124.978 	 57.9775 	 -31.6057
| 30> H 	 -125.043 	 56.9339 	 -31.213
| 31> H 	 -125.794 	 58.5698 	 -31.1889
| 32> C 	 -123.462 	 58.462 	 -31.4288
| 33> H 	 -123.417 	 59.5293 	 -31.583
| 34> H 	 -122.709 	 57.9187 	 -31.9863
| 35> C 	 -122.926 	 58.343 	 -29.9891
| 36> H 	 -121.844 	 58.1805 	 -30.0189
| 37> H 	 -123.413 	 57.6289 	 -29.4037
| 38> H 	 -123.196 	 59.2895 	 -29.4428
| 39> H 	 -122.962 	 52.1655 	 -34.4186
| 40> H 	 -126.137 	 59.509 	 -35.9165
| 41> *
| 42>
| 43>                          ****END OF INPUT****

CARTESIAN COORDINATES (ANGSTROEM)
---------------------------------
  S    -124.702000   54.050800  -34.584100
  C    -123.321000   53.115200  -33.970400
  C    -122.697000   53.739200  -32.938800
  C    -123.301000   55.052100  -32.673600
  C    -124.390000   55.404000  -33.469000
  H    -122.942000   55.744500  -31.997200
  C    -121.496000   53.321200  -32.066000
  H    -120.973000   54.179900  -31.710100
  H    -120.782000   52.793800  -32.649200
  C    -121.941000   52.353500  -30.898000
  H    -122.761000   52.838600  -30.347100
  H    -122.462000   51.512700  -31.220300
  C    -120.840000   51.896800  -29.976100
  H    -121.222000   51.232900  -29.200400
  H    -120.051000   51.405100  -30.586100
  H    -120.326000   52.667000  -29.470600
  S    -125.412000   57.106600  -35.513200
  C    -125.818000   58.677800  -35.097500
  C    -125.767000   58.898400  -33.800200
  C    -125.331000   57.803300  -33.047100
  C    -125.115000   56.666800  -33.804200
  H    -125.959000   59.927700  -33.401900
  C    -124.978000   57.977500  -31.605700
  H    -125.043000   56.933900  -31.213000
  H    -125.794000   58.569800  -31.188900
  C    -123.462000   58.462000  -31.428800
  H    -123.417000   59.529300  -31.583000
  H    -122.709000   57.918700  -31.986300
  C    -122.926000   58.343000  -29.989100
  H    -121.844000   58.180500  -30.018900
  H    -123.413000   57.628900  -29.403700
  H    -123.196000   59.289500  -29.442800
  H    -122.962000   52.165500  -34.418600
  H    -126.137000   59.509000  -35.916500

 Total Charge           Charge          ....    0
 Multiplicity           Mult            ....    1
 Number of Electrons    NEL             ....  134
 Basis Dimension        Dim             ....  322

ORBITAL ENERGIES
----------------

  NO   OCC          E(Eh)            E(eV)
   0   2.0000     -88.963295     -2420.8143
   1   2.0000     -88.960810     -2420.7467
   2   2.0000     -10.338529      -281.3257
   3   2.0000     -10.329956      -281.0924
   4   2.0000     -10.318600      -280.7834
   5   2.0000     -10.318120      -280.7703
   6   2.0000     -10.306288      -280.4483
   7   2.0000     -10.298647      -280.2404
   8   2.0000     -10.297711      -280.2150
   9   2.0000     -10.295596      -280.1574
  10   2.0000     -10.294976      -280.1405
  11   2.0000     -10.293052      -280.0882
  12   2.0000     -10.284966      -279.8681
  13   2.0000     -10.282656      -279.8053
  14   2.0000     -10.277022      -279.6520
  15   2.0000     -10.276086      -279.6265
  16   2.0000      -8.079099      -219.8434
  17   2.0000      -8.075037      -219.7329
  18   2.0000      -6.037592      -164.2912
  19   2.0000      -6.033834      -164.1890
  20   2.0000      -6.033454      -164.1786
  21   2.0000      -6.029764      -164.0782
  22   2.0000      -6.029561      -164.0727
  23   2.0000      -6.025573      -163.9642
  24   2.0000      -1.012455       -27.5503
  25   2.0000      -0.983178       -26.7536
  26   2.0000      -0.909184       -24.7401
  27   2.0000      -0.907822       -24.7031
  28   2.0000      -0.869515       -23.6607
  29   2.0000      -0.858741       -23.3675
  30   2.0000      -0.841945       -22.9105
  31   2.0000      -0.816931       -22.2298
  32   2.0000      -0.784631       -21.3509
  33   2.0000      -0.772493       -21.0206
  34   2.0000      -0.708513       -19.2796
  35   2.0000      -0.705169       -19.1886
  36   2.0000      -0.692737       -18.8503
  37   2.0000      -0.659745       -17.9526
  38   2.0000      -0.637960       -17.3598
  39   2.0000      -0.621404       -16.9093
  40   2.0000      -0.592133       -16.1128
  41   2.0000      -0.569203       -15.4888
  42   2.0000      -0.565679       -15.3929
  43   2.0000      -0.555340       -15.1116
  44   2.0000      -0.538168       -14.6443
  45   2.0000      -0.528333       -14.3767
  46   2.0000      -0.522768       -14.2253
  47   2.0000      -0.509736       -13.8706
  48   2.0000      -0.503899       -13.7118
  49   2.0000      -0.499055       -13.5800
  50   2.0000      -0.493994       -13.4423
  51   2.0000      -0.477801       -13.0016
  52   2.0000      -0.468896       -12.7593
  53   2.0000      -0.464831       -12.6487
  54   2.0000      -0.458143       -12.4667
  55   2.0000      -0.451587       -12.2883
  56   2.0000      -0.446757       -12.1569
  57   2.0000      -0.441370       -12.0103
  58   2.0000      -0.433132       -11.7861
  59   2.0000      -0.422449       -11.4954
  60   2.0000      -0.417955       -11.3731
  61   2.0000      -0.415734       -11.3127
  62   2.0000      -0.412739       -11.2312
  63   2.0000      -0.358439        -9.7536
  64   2.0000      -0.332128        -9.0377
  65   2.0000      -0.326846        -8.8939
  66   2.0000      -0.291481        -7.9316
  67   0.0000       0.026743         0.7277
  68   0.0000       0.079008         2.1499
  69   0.0000       0.108504         2.9526
  70   0.0000       0.122579         3.3355
  71   0.0000       0.130471         3.5503

MULLIKEN ATOMIC CHARGES
-----------------------
   0 S :    0.068146
   1 C :   -0.129847
   2 C :   -0.082559
   3 C :    0.042264
   4 C :   -0.126958
   5 H :   -0.043152
   6 C :    0.100841
   7 H :    0.018144
   8 H :    0.011590
   9 C :   -0.061620
  10 H :    0.019360
  11 H :    0.010352
  12 C :   -0.022729
  13 H :    0.038596
  14 H :    0.026732
  15 H :    0.016108
  16 S :    0.105017
  17 C :   -0.122406
  18 C :   -0.041879
  19 C :   -0.070393
  20 C :   -0.105027
  21 H :    0.026562
  22 C :    0.051219
  23 H :    0.032712
  24 H :    0.038455
  25 C :   -0.076280
  26 H :    0.033624
  27 H :    0.042618
  28 C :   -0.046833
  29 H :    0.041212
  30 H :    0.015781
  31 H :    0.030422
  32 H :    0.059275
  33 H :    0.100650
Sum of atomic charges:    0.0000000

LOEWDIN ATOMIC CHARGES
----------------------
   0 S :    0.369693
   1 C :   -0.189016
   2 C :   -0.058595
   3 C :   -0.061002
   4 C :   -0.166216
   5 H :    0.011381
   6 C :   -0.017750
   7 H :    0.026627
   8 H :    0.023371
   9 C :   -0.038415
  10 H :    0.025079
  11 H :    0.017037
  12 C :   -0.063901
  13 H :    0.030927
  14 H :    0.028020
  15 H :    0.016477
  16 S :    0.417595
  17 C :   -0.216510
  18 C :   -0.096367
  19 C :   -0.057582
  20 C :   -0.200066
  21 H :    0.039774
  22 C :   -0.031046
  23 H :    0.034563
  24 H :    0.034939
  25 C :   -0.034530
  26 H :    0.026117
  27 H :    0.025653
  28 C :   -0.067655
  29 H :    0.028489
  30 H :    0.012781
  31 H :    0.030620
  32 H :    0.037164
  33 H :    0.062346

  Mayer bond orders larger than 0.100000
B(  0-S ,  1-C ) :   1.1186 B(  0-S ,  4-C ) :   1.1303 B(  1-C ,  2-C ) :   1.6604
B(  1-C , 32-H ) :   0.9618 B(  2-C ,  3-C ) :   1.2084 B(  2-C ,  6-C ) :   1.0242
B(  3-C ,  4-C ) :   1.5952 B(  3-C ,  5-H ) :   1.0008 B(  4-C , 20-C ) :   1.0288
B(  6-C ,  7-H ) :   0.9444 B(  6-C ,  8-H ) :   0.9394 B(  6-C ,  9-C ) :   1.0497
B(  9-C , 10-H ) :   0.9536 B(  9-C , 11-H ) :   0.9552 B(  9-C , 12-C ) :   1.0892
B( 12-C , 13-H ) :   0.9715 B( 12-C , 14-H ) :   0.9719 B( 12-C , 15-H ) :   0.9743
B( 16-S , 17-C ) :   1.1777 B( 16-S , 20-C ) :   1.1236 B( 17-C , 18-C ) :   1.6156
B( 17-C , 33-H ) :   0.9377 B( 18-C , 19-C ) :   1.2542 B( 18-C , 21-H ) :   0.9877
B( 19-C , 20-C ) :   1.5986 B( 19-C , 22-C ) :   1.0529 B( 22-C , 23-H ) :   0.9328
B( 22-C , 24-H ) :   0.9366 B( 22-C , 25-C ) :   1.0491 B( 25-C , 26-H ) :   0.9608
B( 25-C , 27-H ) :   0.9664 B( 25-C , 28-C ) :   1.0671 B( 28-C , 29-H ) :   0.9802
B( 28-C , 30-H ) :   0.9754 B( 28-C , 31-H ) :   0.9787

Dispersion correction           -0.014124739
FINAL SINGLE POINT ENERGY     -1339.855611257498

DIPOLE MOMENT
-------------
                                X             Y             Z
Electronic contribution:    -17.80531       1.85831     -27.17240
Nuclear contribution   :     18.30394      -1.51116      27.69188
                        -----------------------------------------
Total Dipole Moment    :      0.49863       0.34714       0.51948
                        -----------------------------------------
Magnitude (a.u.)       :      0.79937
Magnitude (Debye)      :      2.03184

Rotational constants in cm-1:     0.019252     0.008682     0.006240
Rotational constants in MHz :   577.162605   260.280797   187.059457

                             ****ORCA TERMINATED NORMALLY****
TOTAL RUN TIME: 0 days 0 hours 0 minutes 21 seconds 585 msec
