                         Program Version 4.2.1 -  RELEASE  -
|  1> ! wB97X-D3 SP def2-SVP
|  2> %pal
|  3> nprocs 24
|  4> end
|  5>
|  6> * xyz 0 1
|  7> S 	 -106.793 	 69.2969 	 -8.05042
|  8> C 	 -106.481 	 70.7705 	 -8.95557
|  9> C 	 -106.179 	 70.5545 	 -10.2847
| 10> C 	 -106.215 	 69.1606 	 -10.5469
| 11> C 	 -106.765 	 68.3509 	 -9.53652
| 12> H 	 -105.828 	 68.5842 	 -11.3911
| 13> C 	 -105.356 	 71.4972 	 -11.1846
| 14> H 	 -106.11 	 72.024 	 -11.8869
| 15> H 	 -104.753 	 70.8759 	 -11.8765
| 16> C 	 -104.453 	 72.5518 	 -10.4284
| 17> H 	 -105.042 	 73.3515 	 -9.91896
| 18> H 	 -103.959 	 72.0184 	 -9.59869
| 19> C 	 -103.313 	 73.184 	 -11.2953
| 20> H 	 -102.861 	 74.0337 	 -10.7135
| 21> H 	 -102.486 	 72.4396 	 -11.4014
| 22> H 	 -103.742 	 73.5932 	 -12.2328
| 23> S 	 -107.153 	 66.1641 	 -7.83828
| 24> C 	 -107.545 	 64.5904 	 -8.53383
| 25> C 	 -107.586 	 64.7184 	 -9.89025
| 26> C 	 -107.354 	 66.0268 	 -10.4458
| 27> C 	 -106.96 	 66.9278 	 -9.43766
| 28> H 	 -107.872 	 63.8622 	 -10.5163
| 29> C 	 -107.498 	 66.4829 	 -11.9367
| 30> H 	 -106.56 	 66.4935 	 -12.456
| 31> H 	 -107.857 	 67.5502 	 -11.9002
| 32> C 	 -108.483 	 65.7843 	 -12.8551
| 33> H 	 -108.12 	 64.851 	 -13.1857
| 34> H 	 -108.529 	 66.4222 	 -13.7806
| 35> C 	 -109.89 	 65.8232 	 -12.3204
| 36> H 	 -110.075 	 65.1273 	 -11.4596
| 37> H 	 -110.698 	 65.5648 	 -13.1055
| 38> H 	 -110.178 	 66.8714 	 -12.0379
| 39> H 	 -106.3 	 71.7802 	 -8.52598
| 40> H 	 -107.705 	 63.6746 	 -7.95357
| 41> *
| 42>
| 43>                          ****END OF INPUT****

CARTESIAN COORDINATES (ANGSTROEM)
---------------------------------
  S    -106.793000   69.296900   -8.050420
  C    -106.481000   70.770500   -8.955570
  C    -106.179000   70.554500  -10.284700
  C    -106.215000   69.160600  -10.546900
  C    -106.765000   68.350900   -9.536520
  H    -105.828000   68.584200  -11.391100
  C    -105.356000   71.497200  -11.184600
  H    -106.110000   72.024000  -11.886900
  H    -104.753000   70.875900  -11.876500
  C    -104.453000   72.551800  -10.428400
  H    -105.042000   73.351500   -9.918960
  H    -103.959000   72.018400   -9.598690
  C    -103.313000   73.184000  -11.295300
  H    -102.861000   74.033700  -10.713500
  H    -102.486000   72.439600  -11.401400
  H    -103.742000   73.593200  -12.232800
  S    -107.153000   66.164100   -7.838280
  C    -107.545000   64.590400   -8.533830
  C    -107.586000   64.718400   -9.890250
  C    -107.354000   66.026800  -10.445800
  C    -106.960000   66.927800   -9.437660
  H    -107.872000   63.862200  -10.516300
  C    -107.498000   66.482900  -11.936700
  H    -106.560000   66.493500  -12.456000
  H    -107.857000   67.550200  -11.900200
  C    -108.483000   65.784300  -12.855100
  H    -108.120000   64.851000  -13.185700
  H    -108.529000   66.422200  -13.780600
  C    -109.890000   65.823200  -12.320400
  H    -110.075000   65.127300  -11.459600
  H    -110.698000   65.564800  -13.105500
  H    -110.178000   66.871400  -12.037900
  H    -106.300000   71.780200   -8.525980
  H    -107.705000   63.674600   -7.953570

 Total Charge           Charge          ....    0
 Multiplicity           Mult            ....    1
 Number of Electrons    NEL             ....  134
 Basis Dimension        Dim             ....  322

ORBITAL ENERGIES
----------------

  NO   OCC          E(Eh)            E(eV)
   0   2.0000     -88.967000     -2420.9152
   1   2.0000     -88.965120     -2420.8640
   2   2.0000     -10.331655      -281.1386
   3   2.0000     -10.330821      -281.1159
   4   2.0000     -10.322347      -280.8853
   5   2.0000     -10.317610      -280.7564
   6   2.0000     -10.310575      -280.5650
   7   2.0000     -10.309513      -280.5361
   8   2.0000     -10.303374      -280.3691
   9   2.0000     -10.298832      -280.2455
  10   2.0000     -10.297857      -280.2189
  11   2.0000     -10.297750      -280.2160
  12   2.0000     -10.297218      -280.2015
  13   2.0000     -10.292457      -280.0720
  14   2.0000     -10.286108      -279.8992
  15   2.0000     -10.285948      -279.8949
  16   2.0000      -8.081419      -219.9066
  17   2.0000      -8.079271      -219.8481
  18   2.0000      -6.040039      -164.3578
  19   2.0000      -6.037996      -164.3022
  20   2.0000      -6.036174      -164.2527
  21   2.0000      -6.033937      -164.1918
  22   2.0000      -6.031876      -164.1357
  23   2.0000      -6.029763      -164.0782
  24   2.0000      -1.005145       -27.3514
  25   2.0000      -0.980915       -26.6921
  26   2.0000      -0.911227       -24.7957
  27   2.0000      -0.903394       -24.5826
  28   2.0000      -0.869077       -23.6488
  29   2.0000      -0.851017       -23.1573
  30   2.0000      -0.837473       -22.7888
  31   2.0000      -0.810857       -22.0645
  32   2.0000      -0.781085       -21.2544
  33   2.0000      -0.770180       -20.9577
  34   2.0000      -0.709363       -19.3027
  35   2.0000      -0.699650       -19.0384
  36   2.0000      -0.691220       -18.8091
  37   2.0000      -0.654017       -17.7967
  38   2.0000      -0.632497       -17.2111
  39   2.0000      -0.611663       -16.6442
  40   2.0000      -0.596514       -16.2320
  41   2.0000      -0.562652       -15.3105
  42   2.0000      -0.561715       -15.2850
  43   2.0000      -0.559530       -15.2256
  44   2.0000      -0.539178       -14.6718
  45   2.0000      -0.521653       -14.1949
  46   2.0000      -0.516178       -14.0459
  47   2.0000      -0.510538       -13.8924
  48   2.0000      -0.502323       -13.6689
  49   2.0000      -0.494630       -13.4596
  50   2.0000      -0.487985       -13.2787
  51   2.0000      -0.477726       -12.9996
  52   2.0000      -0.467681       -12.7262
  53   2.0000      -0.463961       -12.6250
  54   2.0000      -0.457062       -12.4373
  55   2.0000      -0.445254       -12.1160
  56   2.0000      -0.443101       -12.0574
  57   2.0000      -0.437146       -11.8953
  58   2.0000      -0.431520       -11.7423
  59   2.0000      -0.424175       -11.5424
  60   2.0000      -0.420557       -11.4439
  61   2.0000      -0.416942       -11.3456
  62   2.0000      -0.407202       -11.0805
  63   2.0000      -0.362123        -9.8539
  64   2.0000      -0.334067        -9.0904
  65   2.0000      -0.326684        -8.8895
  66   2.0000      -0.279498        -7.6055
  67   0.0000       0.013167         0.3583
  68   0.0000       0.077899         2.1197
  69   0.0000       0.095528         2.5995
  70   0.0000       0.120059         3.2670
  71   0.0000       0.136202         3.7063

MULLIKEN ATOMIC CHARGES
-----------------------
   0 S :    0.095893
   1 C :   -0.117489
   2 C :   -0.050589
   3 C :   -0.030907
   4 C :   -0.143626
   5 H :    0.023779
   6 C :    0.033544
   7 H :    0.049900
   8 H :    0.034283
   9 C :   -0.126811
  10 H :    0.043141
  11 H :    0.040593
  12 C :   -0.074393
  13 H :    0.041894
  14 H :    0.049120
  15 H :    0.047181
  16 S :    0.075152
  17 C :   -0.092298
  18 C :   -0.027293
  19 C :   -0.053629
  20 C :   -0.115202
  21 H :    0.024857
  22 C :    0.008475
  23 H :    0.045504
  24 H :    0.048213
  25 C :   -0.038505
  26 H :    0.019826
  27 H :    0.031244
  28 C :   -0.100434
  29 H :    0.047867
  30 H :    0.040462
  31 H :    0.038289
  32 H :    0.060991
  33 H :    0.070970
Sum of atomic charges:    0.0000000

LOEWDIN ATOMIC CHARGES
----------------------
   0 S :    0.396921
   1 C :   -0.194101
   2 C :   -0.074709
   3 C :   -0.065375
   4 C :   -0.185587
   5 H :    0.032403
   6 C :   -0.034943
   7 H :    0.041118
   8 H :    0.032678
   9 C :   -0.052453
  10 H :    0.025090
  11 H :    0.026132
  12 C :   -0.071738
  13 H :    0.033137
  14 H :    0.031412
  15 H :    0.028097
  16 S :    0.375162
  17 C :   -0.180723
  18 C :   -0.076914
  19 C :   -0.055661
  20 C :   -0.186230
  21 H :    0.032896
  22 C :   -0.035906
  23 H :    0.027758
  24 H :    0.040689
  25 C :   -0.047234
  26 H :    0.014203
  27 H :    0.036865
  28 C :   -0.078867
  29 H :    0.027685
  30 H :    0.032286
  31 H :    0.031391
  32 H :    0.035000
  33 H :    0.039518

  Mayer bond orders larger than 0.100000
B(  0-S ,  1-C ) :   1.1513 B(  0-S ,  4-C ) :   1.1309 B(  1-C ,  2-C ) :   1.6178
B(  1-C , 32-H ) :   0.9518 B(  2-C ,  3-C ) :   1.2432 B(  2-C ,  6-C ) :   1.0118
B(  3-C ,  4-C ) :   1.5497 B(  3-C ,  5-H ) :   0.9851 B(  4-C , 20-C ) :   1.1258
B(  6-C ,  7-H ) :   0.9269 B(  6-C ,  8-H ) :   0.9590 B(  6-C ,  9-C ) :   1.0537
B(  9-C , 10-H ) :   0.9535 B(  9-C , 11-H ) :   0.9603 B(  9-C , 12-C ) :   1.0801
B( 12-C , 13-H ) :   0.9745 B( 12-C , 14-H ) :   0.9763 B( 12-C , 15-H ) :   0.9766
B( 16-S , 17-C ) :   1.1337 B( 16-S , 20-C ) :   1.1244 B( 17-C , 18-C ) :   1.6138
B( 17-C , 33-H ) :   0.9679 B( 18-C , 19-C ) :   1.2515 B( 18-C , 21-H ) :   0.9817
B( 19-C , 20-C ) :   1.5751 B( 19-C , 22-C ) :   1.0210 B( 22-C , 23-H ) :   0.9358
B( 22-C , 24-H ) :   0.9294 B( 22-C , 25-C ) :   1.0898 B( 25-C , 26-H ) :   0.9487
B( 25-C , 27-H ) :   0.9489 B( 25-C , 28-C ) :   1.0783 B( 28-C , 29-H ) :   0.9724
B( 28-C , 30-H ) :   0.9743 B( 28-C , 31-H ) :   0.9706

Dispersion correction           -0.013714984
FINAL SINGLE POINT ENERGY     -1339.869703768645

DIPOLE MOMENT
-------------
                                X             Y             Z
Electronic contribution:     -2.85441     -10.70154      22.99638
Nuclear contribution   :      3.09220      10.76559     -23.63995
                        -----------------------------------------
Total Dipole Moment    :      0.23778       0.06405      -0.64356
                        -----------------------------------------
Magnitude (a.u.)       :      0.68907
Magnitude (Debye)      :      1.75148

Rotational constants in cm-1:     0.021811     0.007358     0.005966
Rotational constants in MHz :   653.880609   220.589625   178.854054

                             ****ORCA TERMINATED NORMALLY****
TOTAL RUN TIME: 0 days 0 hours 0 minutes 21 seconds 115 msec
