                         Program Version 4.2.1 -  RELEASE  -
|  1> ! wB97X-D3 SP def2-SVP
|  2> %pal
|  3> nprocs 24
|  4> end
|  5>
|  6> * xyz 0 1
|  7> S 	 -41.6073 	 -39.977 	 -77.3632
|  8> C 	 -43.1702 	 -40.1557 	 -76.611
|  9> C 	 -43.0793 	 -40.8569 	 -75.416
| 10> C 	 -41.8311 	 -41.45 	 -75.2341
| 11> C 	 -40.9046 	 -41.1835 	 -76.2485
| 12> H 	 -41.6533 	 -41.9609 	 -74.3237
| 13> C 	 -44.2306 	 -41.0764 	 -74.4358
| 14> H 	 -44.0137 	 -41.8358 	 -73.6703
| 15> H 	 -45.0692 	 -41.4442 	 -74.9205
| 16> C 	 -44.8332 	 -39.7608 	 -73.9109
| 17> H 	 -44.133 	 -39.1715 	 -73.2983
| 18> H 	 -45.3073 	 -39.2079 	 -74.6955
| 19> C 	 -45.9412 	 -40.0182 	 -72.8216
| 20> H 	 -46.9234 	 -40.2755 	 -73.2559
| 21> H 	 -45.7416 	 -40.744 	 -72.0001
| 22> H 	 -46.2878 	 -39.112 	 -72.4117
| 23> S 	 -39.1819 	 -43.3406 	 -76.5393
| 24> C 	 -37.4221 	 -43.0642 	 -76.7352
| 25> C 	 -37.1438 	 -41.7375 	 -76.4993
| 26> C 	 -38.3408 	 -40.921 	 -76.2512
| 27> C 	 -39.5491 	 -41.6415 	 -76.3183
| 28> H 	 -36.1228 	 -41.4672 	 -76.6549
| 29> C 	 -38.2886 	 -39.3793 	 -76.1058
| 30> H 	 -37.4373 	 -39.0141 	 -75.5692
| 31> H 	 -39.2008 	 -39.1447 	 -75.519
| 32> C 	 -38.218 	 -38.6737 	 -77.473
| 33> H 	 -39.1272 	 -38.9836 	 -78.0059
| 34> H 	 -37.3521 	 -39.0699 	 -77.9139
| 35> C 	 -38.1849 	 -37.1197 	 -77.4149
| 36> H 	 -37.9231 	 -36.6667 	 -76.4458
| 37> H 	 -39.212 	 -36.7469 	 -77.6536
| 38> H 	 -37.519 	 -36.704 	 -78.1115
| 39> H 	 -44.0458 	 -39.7349 	 -77.0342
| 40> H 	 -36.594 	 -43.7541 	 -76.8945
| 41> *
| 42>
| 43>                          ****END OF INPUT****

CARTESIAN COORDINATES (ANGSTROEM)
---------------------------------
  S    -41.607300  -39.977000  -77.363200
  C    -43.170200  -40.155700  -76.611000
  C    -43.079300  -40.856900  -75.416000
  C    -41.831100  -41.450000  -75.234100
  C    -40.904600  -41.183500  -76.248500
  H    -41.653300  -41.960900  -74.323700
  C    -44.230600  -41.076400  -74.435800
  H    -44.013700  -41.835800  -73.670300
  H    -45.069200  -41.444200  -74.920500
  C    -44.833200  -39.760800  -73.910900
  H    -44.133000  -39.171500  -73.298300
  H    -45.307300  -39.207900  -74.695500
  C    -45.941200  -40.018200  -72.821600
  H    -46.923400  -40.275500  -73.255900
  H    -45.741600  -40.744000  -72.000100
  H    -46.287800  -39.112000  -72.411700
  S    -39.181900  -43.340600  -76.539300
  C    -37.422100  -43.064200  -76.735200
  C    -37.143800  -41.737500  -76.499300
  C    -38.340800  -40.921000  -76.251200
  C    -39.549100  -41.641500  -76.318300
  H    -36.122800  -41.467200  -76.654900
  C    -38.288600  -39.379300  -76.105800
  H    -37.437300  -39.014100  -75.569200
  H    -39.200800  -39.144700  -75.519000
  C    -38.218000  -38.673700  -77.473000
  H    -39.127200  -38.983600  -78.005900
  H    -37.352100  -39.069900  -77.913900
  C    -38.184900  -37.119700  -77.414900
  H    -37.923100  -36.666700  -76.445800
  H    -39.212000  -36.746900  -77.653600
  H    -37.519000  -36.704000  -78.111500
  H    -44.045800  -39.734900  -77.034200
  H    -36.594000  -43.754100  -76.894500

 Total Charge           Charge          ....    0
 Multiplicity           Mult            ....    1
 Number of Electrons    NEL             ....  134
 Basis Dimension        Dim             ....  322

ORBITAL ENERGIES
----------------

  NO   OCC          E(Eh)            E(eV)
   0   2.0000     -88.972412     -2421.0624
   1   2.0000     -88.963750     -2420.8267
   2   2.0000     -10.334379      -281.2127
   3   2.0000     -10.327517      -281.0260
   4   2.0000     -10.319632      -280.8115
   5   2.0000     -10.315258      -280.6924
   6   2.0000     -10.308441      -280.5069
   7   2.0000     -10.299965      -280.2763
   8   2.0000     -10.294581      -280.1298
   9   2.0000     -10.293531      -280.1012
  10   2.0000     -10.292415      -280.0708
  11   2.0000     -10.290540      -280.0198
  12   2.0000     -10.286898      -279.9207
  13   2.0000     -10.279457      -279.7182
  14   2.0000     -10.279077      -279.7079
  15   2.0000     -10.274830      -279.5923
  16   2.0000      -8.085915      -220.0289
  17   2.0000      -8.077623      -219.8033
  18   2.0000      -6.044421      -164.4771
  19   2.0000      -6.040606      -164.3732
  20   2.0000      -6.036759      -164.2686
  21   2.0000      -6.036383      -164.2583
  22   2.0000      -6.032183      -164.1441
  23   2.0000      -6.028193      -164.0355
  24   2.0000      -1.003469       -27.3058
  25   2.0000      -0.978761       -26.6334
  26   2.0000      -0.911604       -24.8060
  27   2.0000      -0.900588       -24.5062
  28   2.0000      -0.871693       -23.7200
  29   2.0000      -0.853466       -23.2240
  30   2.0000      -0.836813       -22.7708
  31   2.0000      -0.816398       -22.2153
  32   2.0000      -0.784462       -21.3463
  33   2.0000      -0.767169       -20.8757
  34   2.0000      -0.710761       -19.3408
  35   2.0000      -0.702938       -19.1279
  36   2.0000      -0.691710       -18.8224
  37   2.0000      -0.659151       -17.9364
  38   2.0000      -0.644435       -17.5360
  39   2.0000      -0.624716       -16.9994
  40   2.0000      -0.585300       -15.9268
  41   2.0000      -0.574958       -15.6454
  42   2.0000      -0.569964       -15.5095
  43   2.0000      -0.565987       -15.4013
  44   2.0000      -0.526534       -14.3277
  45   2.0000      -0.518838       -14.1183
  46   2.0000      -0.516978       -14.0677
  47   2.0000      -0.510420       -13.8892
  48   2.0000      -0.503125       -13.6907
  49   2.0000      -0.499539       -13.5932
  50   2.0000      -0.495672       -13.4879
  51   2.0000      -0.476087       -12.9550
  52   2.0000      -0.469409       -12.7733
  53   2.0000      -0.464761       -12.6468
  54   2.0000      -0.456655       -12.4262
  55   2.0000      -0.450795       -12.2668
  56   2.0000      -0.446330       -12.1452
  57   2.0000      -0.436871       -11.8879
  58   2.0000      -0.428922       -11.6716
  59   2.0000      -0.425389       -11.5754
  60   2.0000      -0.415500       -11.3063
  61   2.0000      -0.412929       -11.2364
  62   2.0000      -0.410080       -11.1588
  63   2.0000      -0.343824        -9.3559
  64   2.0000      -0.335458        -9.1283
  65   2.0000      -0.322906        -8.7867
  66   2.0000      -0.294071        -8.0021
  67   0.0000       0.028052         0.7633
  68   0.0000       0.055349         1.5061
  69   0.0000       0.100212         2.7269
  70   0.0000       0.122125         3.3232
  71   0.0000       0.131293         3.5727

MULLIKEN ATOMIC CHARGES
-----------------------
   0 S :    0.107853
   1 C :   -0.116038
   2 C :   -0.049819
   3 C :    0.042698
   4 C :   -0.160491
   5 H :    0.001239
   6 C :    0.100931
   7 H :    0.023729
   8 H :    0.009405
   9 C :   -0.086092
  10 H :    0.041423
  11 H :    0.033239
  12 C :   -0.066386
  13 H :    0.013762
  14 H :    0.045301
  15 H :    0.014226
  16 S :    0.105835
  17 C :   -0.102918
  18 C :   -0.030532
  19 C :   -0.041262
  20 C :   -0.147835
  21 H :    0.015675
  22 C :    0.048450
  23 H :    0.014919
  24 H :    0.037269
  25 C :   -0.057499
  26 H :    0.028759
  27 H :    0.015456
  28 C :   -0.028042
  29 H :    0.027472
  30 H :    0.035334
  31 H :    0.024127
  32 H :    0.038632
  33 H :    0.061181
Sum of atomic charges:   -0.0000000

LOEWDIN ATOMIC CHARGES
----------------------
   0 S :    0.416629
   1 C :   -0.186357
   2 C :   -0.060882
   3 C :   -0.048433
   4 C :   -0.185956
   5 H :    0.028984
   6 C :   -0.028996
   7 H :    0.032441
   8 H :    0.026397
   9 C :   -0.029455
  10 H :    0.026600
  11 H :    0.023365
  12 C :   -0.077604
  13 H :    0.022818
  14 H :    0.029577
  15 H :    0.019511
  16 S :    0.390159
  17 C :   -0.179067
  18 C :   -0.072192
  19 C :   -0.050169
  20 C :   -0.205962
  21 H :    0.028666
  22 C :   -0.033798
  23 H :    0.023008
  24 H :    0.028954
  25 C :   -0.035692
  26 H :    0.014354
  27 H :    0.015583
  28 C :   -0.066501
  29 H :    0.025236
  30 H :    0.033150
  31 H :    0.018711
  32 H :    0.019719
  33 H :    0.037201

  Mayer bond orders larger than 0.100000
B(  0-S ,  1-C ) :   1.1591 B(  0-S ,  4-C ) :   1.1429 B(  1-C ,  2-C ) :   1.5580
B(  1-C ,  4-C ) :   0.1087 B(  1-C , 32-H ) :   0.9766 B(  2-C ,  3-C ) :   1.3028
B(  2-C ,  6-C ) :   1.0206 B(  3-C ,  4-C ) :   1.5211 B(  3-C ,  5-H ) :   1.0017
B(  4-C , 20-C ) :   1.0622 B(  6-C ,  7-H ) :   0.9503 B(  6-C ,  8-H ) :   0.9322
B(  6-C ,  9-C ) :   1.0522 B(  9-C , 10-H ) :   0.9650 B(  9-C , 11-H ) :   0.9553
B(  9-C , 12-C ) :   1.0793 B( 12-C , 13-H ) :   0.9702 B( 12-C , 14-H ) :   0.9774
B( 12-C , 15-H ) :   0.9722 B( 16-S , 17-C ) :   1.1337 B( 16-S , 20-C ) :   1.1269
B( 17-C , 18-C ) :   1.6541 B( 17-C , 33-H ) :   0.9629 B( 18-C , 19-C ) :   1.2060
B( 18-C , 21-H ) :   0.9905 B( 19-C , 20-C ) :   1.5892 B( 19-C , 22-C ) :   1.0537
B( 22-C , 23-H ) :   0.9361 B( 22-C , 24-H ) :   0.9326 B( 22-C , 25-C ) :   1.0622
B( 25-C , 26-H ) :   0.9560 B( 25-C , 27-H ) :   0.9613 B( 25-C , 28-C ) :   1.0644
B( 28-C , 29-H ) :   0.9777 B( 28-C , 30-H ) :   0.9782 B( 28-C , 31-H ) :   0.9777

Dispersion correction           -0.014139126
FINAL SINGLE POINT ENERGY     -1339.859768488342

DIPOLE MOMENT
-------------
                                X             Y             Z
Electronic contribution:      9.71029     -16.91138     -10.21107
Nuclear contribution   :     -9.88404      17.24464      10.49137
                        -----------------------------------------
Total Dipole Moment    :     -0.17375       0.33326       0.28029
                        -----------------------------------------
Magnitude (a.u.)       :      0.46885
Magnitude (Debye)      :      1.19171

Rotational constants in cm-1:     0.020283     0.007657     0.006219
Rotational constants in MHz :   608.066102   229.559266   186.429048

                             ****ORCA TERMINATED NORMALLY****
TOTAL RUN TIME: 0 days 0 hours 0 minutes 21 seconds 133 msec
