                         Program Version 4.2.1 -  RELEASE  -
|  1> ! wB97X-D3 SP def2-SVP
|  2> %pal
|  3> nprocs 24
|  4> end
|  5>
|  6> * xyz 0 1
|  7> S 	 -33.3768 	 -34.2679 	 -93.8664
|  8> C 	 -33.1063 	 -32.5327 	 -93.9186
|  9> C 	 -31.781 	 -32.2654 	 -94.2545
| 10> C 	 -30.9247 	 -33.4327 	 -94.067
| 11> C 	 -31.6646 	 -34.5134 	 -93.6834
| 12> H 	 -29.8764 	 -33.4668 	 -94.1167
| 13> C 	 -31.2127 	 -30.8937 	 -94.605
| 14> H 	 -30.4347 	 -30.685 	 -93.8675
| 15> H 	 -31.9452 	 -30.2113 	 -94.2591
| 16> C 	 -30.7301 	 -30.659 	 -96.042
| 17> H 	 -30.3422 	 -29.563 	 -96.0749
| 18> H 	 -29.8239 	 -31.2781 	 -96.2736
| 19> C 	 -31.6687 	 -30.9394 	 -97.1366
| 20> H 	 -31.205 	 -30.6028 	 -98.0916
| 21> H 	 -31.9049 	 -32.0128 	 -97.2528
| 22> H 	 -32.6236 	 -30.4749 	 -96.9496
| 23> S 	 -30.5721 	 -36.898 	 -94.5131
| 24> C 	 -30.468 	 -38.1869 	 -93.3889
| 25> C 	 -30.79 	 -37.7748 	 -92.1162
| 26> C 	 -31.157 	 -36.4077 	 -92.0676
| 27> C 	 -31.1358 	 -35.8178 	 -93.2849
| 28> H 	 -30.7451 	 -38.5079 	 -91.3487
| 29> C 	 -31.505 	 -35.7376 	 -90.727
| 30> H 	 -31.8247 	 -36.6196 	 -90.1697
| 31> H 	 -32.287 	 -35.0515 	 -90.8002
| 32> C 	 -30.3207 	 -35.2451 	 -89.9319
| 33> H 	 -30.075 	 -34.3716 	 -90.5757
| 34> H 	 -29.5082 	 -35.9266 	 -89.9289
| 35> C 	 -30.7562 	 -34.6894 	 -88.5707
| 36> H 	 -29.9106 	 -34.4611 	 -87.9238
| 37> H 	 -31.3666 	 -35.4726 	 -88.0935
| 38> H 	 -31.3347 	 -33.7533 	 -88.8025
| 39> H 	 -33.945 	 -31.7798 	 -93.963
| 40> H 	 -30.1243 	 -39.0819 	 -93.751
| 41> *
| 42>
| 43>                          ****END OF INPUT****

CARTESIAN COORDINATES (ANGSTROEM)
---------------------------------
  S    -33.376800  -34.267900  -93.866400
  C    -33.106300  -32.532700  -93.918600
  C    -31.781000  -32.265400  -94.254500
  C    -30.924700  -33.432700  -94.067000
  C    -31.664600  -34.513400  -93.683400
  H    -29.876400  -33.466800  -94.116700
  C    -31.212700  -30.893700  -94.605000
  H    -30.434700  -30.685000  -93.867500
  H    -31.945200  -30.211300  -94.259100
  C    -30.730100  -30.659000  -96.042000
  H    -30.342200  -29.563000  -96.074900
  H    -29.823900  -31.278100  -96.273600
  C    -31.668700  -30.939400  -97.136600
  H    -31.205000  -30.602800  -98.091600
  H    -31.904900  -32.012800  -97.252800
  H    -32.623600  -30.474900  -96.949600
  S    -30.572100  -36.898000  -94.513100
  C    -30.468000  -38.186900  -93.388900
  C    -30.790000  -37.774800  -92.116200
  C    -31.157000  -36.407700  -92.067600
  C    -31.135800  -35.817800  -93.284900
  H    -30.745100  -38.507900  -91.348700
  C    -31.505000  -35.737600  -90.727000
  H    -31.824700  -36.619600  -90.169700
  H    -32.287000  -35.051500  -90.800200
  C    -30.320700  -35.245100  -89.931900
  H    -30.075000  -34.371600  -90.575700
  H    -29.508200  -35.926600  -89.928900
  C    -30.756200  -34.689400  -88.570700
  H    -29.910600  -34.461100  -87.923800
  H    -31.366600  -35.472600  -88.093500
  H    -31.334700  -33.753300  -88.802500
  H    -33.945000  -31.779800  -93.963000
  H    -30.124300  -39.081900  -93.751000

 Total Charge           Charge          ....    0
 Multiplicity           Mult            ....    1
 Number of Electrons    NEL             ....  134
 Basis Dimension        Dim             ....  322

ORBITAL ENERGIES
----------------

  NO   OCC          E(Eh)            E(eV)
   0   2.0000     -88.964080     -2420.8357
   1   2.0000     -88.960155     -2420.7289
   2   2.0000     -10.324233      -280.9367
   3   2.0000     -10.318364      -280.7770
   4   2.0000     -10.315025      -280.6861
   5   2.0000     -10.308207      -280.5006
   6   2.0000     -10.304887      -280.4102
   7   2.0000     -10.297493      -280.2090
   8   2.0000     -10.294089      -280.1164
   9   2.0000     -10.290917      -280.0301
  10   2.0000     -10.289719      -279.9975
  11   2.0000     -10.288816      -279.9729
  12   2.0000     -10.281478      -279.7732
  13   2.0000     -10.281043      -279.7614
  14   2.0000     -10.278328      -279.6875
  15   2.0000     -10.274012      -279.5701
  16   2.0000      -8.078992      -219.8405
  17   2.0000      -8.076481      -219.7722
  18   2.0000      -6.037482      -164.2883
  19   2.0000      -6.034743      -164.2137
  20   2.0000      -6.033811      -164.1883
  21   2.0000      -6.030698      -164.1036
  22   2.0000      -6.029407      -164.0685
  23   2.0000      -6.027498      -164.0166
  24   2.0000      -1.012120       -27.5412
  25   2.0000      -0.987374       -26.8678
  26   2.0000      -0.913987       -24.8709
  27   2.0000      -0.912269       -24.8241
  28   2.0000      -0.869476       -23.6596
  29   2.0000      -0.852131       -23.1877
  30   2.0000      -0.848370       -23.0853
  31   2.0000      -0.816119       -22.2077
  32   2.0000      -0.783843       -21.3295
  33   2.0000      -0.772969       -21.0336
  34   2.0000      -0.701857       -19.0985
  35   2.0000      -0.693086       -18.8598
  36   2.0000      -0.685845       -18.6628
  37   2.0000      -0.669294       -18.2124
  38   2.0000      -0.641281       -17.4502
  39   2.0000      -0.619475       -16.8568
  40   2.0000      -0.604371       -16.4458
  41   2.0000      -0.570663       -15.5285
  42   2.0000      -0.560898       -15.2628
  43   2.0000      -0.554254       -15.0820
  44   2.0000      -0.542902       -14.7731
  45   2.0000      -0.527526       -14.3547
  46   2.0000      -0.518719       -14.1151
  47   2.0000      -0.514168       -13.9912
  48   2.0000      -0.506894       -13.7933
  49   2.0000      -0.497212       -13.5298
  50   2.0000      -0.486999       -13.2519
  51   2.0000      -0.476952       -12.9785
  52   2.0000      -0.472434       -12.8556
  53   2.0000      -0.468047       -12.7362
  54   2.0000      -0.452316       -12.3081
  55   2.0000      -0.448626       -12.2077
  56   2.0000      -0.447387       -12.1740
  57   2.0000      -0.443185       -12.0597
  58   2.0000      -0.440632       -11.9902
  59   2.0000      -0.421419       -11.4674
  60   2.0000      -0.420376       -11.4390
  61   2.0000      -0.404548       -11.0083
  62   2.0000      -0.400603       -10.9010
  63   2.0000      -0.334141        -9.0924
  64   2.0000      -0.331115        -9.0101
  65   2.0000      -0.319680        -8.6989
  66   2.0000      -0.309590        -8.4244
  67   0.0000       0.041075         1.1177
  68   0.0000       0.062517         1.7012
  69   0.0000       0.104212         2.8358
  70   0.0000       0.126486         3.4419
  71   0.0000       0.130164         3.5419

MULLIKEN ATOMIC CHARGES
-----------------------
   0 S :    0.120626
   1 C :   -0.147785
   2 C :   -0.111315
   3 C :    0.052957
   4 C :   -0.147434
   5 H :   -0.002216
   6 C :    0.093090
   7 H :    0.026745
   8 H :   -0.000167
   9 C :   -0.097714
  10 H :    0.042574
  11 H :    0.032358
  12 C :   -0.035791
  13 H :    0.040277
  14 H :    0.042744
  15 H :    0.020795
  16 S :    0.109936
  17 C :   -0.072241
  18 C :   -0.020103
  19 C :   -0.019569
  20 C :   -0.198098
  21 H :    0.006282
  22 C :    0.105222
  23 H :    0.001491
  24 H :    0.012692
  25 C :   -0.067182
  26 H :    0.024197
  27 H :    0.020924
  28 C :   -0.039976
  29 H :    0.040214
  30 H :    0.030300
  31 H :    0.044910
  32 H :    0.067284
  33 H :    0.023973
Sum of atomic charges:   -0.0000000

LOEWDIN ATOMIC CHARGES
----------------------
   0 S :    0.400258
   1 C :   -0.207919
   2 C :   -0.058432
   3 C :   -0.053433
   4 C :   -0.189910
   5 H :    0.025333
   6 C :   -0.038665
   7 H :    0.035001
   8 H :    0.023903
   9 C :   -0.051515
  10 H :    0.035143
  11 H :    0.027895
  12 C :   -0.069493
  13 H :    0.033985
  14 H :    0.031229
  15 H :    0.020133
  16 S :    0.425211
  17 C :   -0.172840
  18 C :   -0.067952
  19 C :   -0.050694
  20 C :   -0.217903
  21 H :    0.027400
  22 C :   -0.019519
  23 H :    0.025394
  24 H :    0.018626
  25 C :   -0.040701
  26 H :    0.027518
  27 H :    0.016344
  28 C :   -0.064885
  29 H :    0.026342
  30 H :    0.023768
  31 H :    0.035700
  32 H :    0.036860
  33 H :    0.007819

  Mayer bond orders larger than 0.100000
B(  0-S ,  1-C ) :   1.1240 B(  0-S ,  4-C ) :   1.1436 B(  1-C ,  2-C ) :   1.6313
B(  1-C , 32-H ) :   0.9603 B(  2-C ,  3-C ) :   1.1852 B(  2-C ,  6-C ) :   1.0246
B(  3-C ,  4-C ) :   1.6103 B(  3-C ,  5-H ) :   1.0079 B(  4-C , 20-C ) :   1.0132
B(  6-C ,  7-H ) :   0.9391 B(  6-C ,  8-H ) :   0.9347 B(  6-C ,  9-C ) :   1.0650
B(  9-C , 10-H ) :   0.9515 B(  9-C , 11-H ) :   0.9532 B(  9-C , 12-C ) :   1.0885
B( 12-C , 13-H ) :   0.9690 B( 12-C , 14-H ) :   0.9671 B( 12-C , 15-H ) :   0.9742
B( 16-S , 17-C ) :   1.1820 B( 16-S , 20-C ) :   1.1511 B( 17-C , 18-C ) :   1.5769
B( 17-C , 33-H ) :   0.9829 B( 18-C , 19-C ) :   1.2433 B( 18-C , 21-H ) :   1.0030
B( 19-C , 20-C ) :   1.6114 B( 19-C , 22-C ) :   1.0309 B( 22-C , 23-H ) :   0.9229
B( 22-C , 24-H ) :   0.9338 B( 22-C , 25-C ) :   1.0669 B( 25-C , 26-H ) :   0.9562
B( 25-C , 27-H ) :   0.9562 B( 25-C , 28-C ) :   1.0732 B( 28-C , 29-H ) :   0.9744
B( 28-C , 30-H ) :   0.9757 B( 28-C , 31-H ) :   0.9745

Dispersion correction           -0.014440732
FINAL SINGLE POINT ENERGY     -1339.869033324579

DIPOLE MOMENT
-------------
                                X             Y             Z
Electronic contribution:     -5.48881     -16.73857      -7.99587
Nuclear contribution   :      5.74367      16.96645       8.17360
                        -----------------------------------------
Total Dipole Moment    :      0.25487       0.22788       0.17772
                        -----------------------------------------
Magnitude (a.u.)       :      0.38532
Magnitude (Debye)      :      0.97941

Rotational constants in cm-1:     0.019576     0.008315     0.006905
Rotational constants in MHz :   586.877091   249.270999   207.012347

                             ****ORCA TERMINATED NORMALLY****
TOTAL RUN TIME: 0 days 0 hours 0 minutes 20 seconds 482 msec
