                         Program Version 4.2.1 -  RELEASE  -
|  1> ! wB97X-D3 SP def2-SVP
|  2> %pal
|  3> nprocs 24
|  4> end
|  5>
|  6> * xyz 0 1
|  7> S 	 -115.554 	 60.9944 	 -67.0438
|  8> C 	 -116.924 	 60.8332 	 -65.9036
|  9> C 	 -116.867 	 61.767 	 -64.839
| 10> C 	 -115.781 	 62.7108 	 -64.9922
| 11> C 	 -115.046 	 62.4636 	 -66.1673
| 12> H 	 -115.655 	 63.5211 	 -64.2931
| 13> C 	 -117.744 	 61.8366 	 -63.613
| 14> H 	 -117.173 	 61.6318 	 -62.7303
| 15> H 	 -118.286 	 60.9967 	 -63.7841
| 16> C 	 -118.691 	 63.0638 	 -63.5814
| 17> H 	 -118.12 	 63.9585 	 -63.631
| 18> H 	 -119.195 	 62.8172 	 -64.5607
| 19> C 	 -119.47 	 63.1772 	 -62.2405
| 20> H 	 -118.882 	 63.4751 	 -61.3942
| 21> H 	 -120.262 	 63.8705 	 -62.3253
| 22> H 	 -119.864 	 62.2464 	 -61.994
| 23> S 	 -112.596 	 62.8776 	 -67.1897
| 24> C 	 -112.042 	 64.5629 	 -67.4293
| 25> C 	 -113.113 	 65.4253 	 -67.3994
| 26> C 	 -114.308 	 64.7786 	 -67.0432
| 27> C 	 -114.179 	 63.4315 	 -66.8181
| 28> H 	 -113.044 	 66.4929 	 -67.5165
| 29> C 	 -115.564 	 65.5968 	 -66.7006
| 30> H 	 -116.428 	 64.89 	 -66.6355
| 31> H 	 -115.697 	 66.363 	 -67.5363
| 32> C 	 -115.547 	 66.3216 	 -65.3994
| 33> H 	 -115.294 	 65.7273 	 -64.5494
| 34> H 	 -116.644 	 66.578 	 -65.2142
| 35> C 	 -114.587 	 67.5732 	 -65.3378
| 36> H 	 -114.742 	 68.1697 	 -66.2461
| 37> H 	 -113.584 	 67.2058 	 -65.392
| 38> H 	 -114.803 	 68.1186 	 -64.5113
| 39> H 	 -117.662 	 60.0995 	 -66.0265
| 40> H 	 -110.97 	 64.8349 	 -67.7215
| 41> *
| 42>
| 43>                          ****END OF INPUT****

CARTESIAN COORDINATES (ANGSTROEM)
---------------------------------
  S    -115.554000   60.994400  -67.043800
  C    -116.924000   60.833200  -65.903600
  C    -116.867000   61.767000  -64.839000
  C    -115.781000   62.710800  -64.992200
  C    -115.046000   62.463600  -66.167300
  H    -115.655000   63.521100  -64.293100
  C    -117.744000   61.836600  -63.613000
  H    -117.173000   61.631800  -62.730300
  H    -118.286000   60.996700  -63.784100
  C    -118.691000   63.063800  -63.581400
  H    -118.120000   63.958500  -63.631000
  H    -119.195000   62.817200  -64.560700
  C    -119.470000   63.177200  -62.240500
  H    -118.882000   63.475100  -61.394200
  H    -120.262000   63.870500  -62.325300
  H    -119.864000   62.246400  -61.994000
  S    -112.596000   62.877600  -67.189700
  C    -112.042000   64.562900  -67.429300
  C    -113.113000   65.425300  -67.399400
  C    -114.308000   64.778600  -67.043200
  C    -114.179000   63.431500  -66.818100
  H    -113.044000   66.492900  -67.516500
  C    -115.564000   65.596800  -66.700600
  H    -116.428000   64.890000  -66.635500
  H    -115.697000   66.363000  -67.536300
  C    -115.547000   66.321600  -65.399400
  H    -115.294000   65.727300  -64.549400
  H    -116.644000   66.578000  -65.214200
  C    -114.587000   67.573200  -65.337800
  H    -114.742000   68.169700  -66.246100
  H    -113.584000   67.205800  -65.392000
  H    -114.803000   68.118600  -64.511300
  H    -117.662000   60.099500  -66.026500
  H    -110.970000   64.834900  -67.721500

 Total Charge           Charge          ....    0
 Multiplicity           Mult            ....    1
 Number of Electrons    NEL             ....  134
 Basis Dimension        Dim             ....  322

ORBITAL ENERGIES
----------------

  NO   OCC          E(Eh)            E(eV)
   0   2.0000     -88.970280     -2421.0044
   1   2.0000     -88.961965     -2420.7781
   2   2.0000     -10.334211      -281.2082
   3   2.0000     -10.325553      -280.9726
   4   2.0000     -10.320127      -280.8249
   5   2.0000     -10.319280      -280.8019
   6   2.0000     -10.305935      -280.4388
   7   2.0000     -10.298518      -280.2369
   8   2.0000     -10.296602      -280.1848
   9   2.0000     -10.294529      -280.1284
  10   2.0000     -10.293556      -280.1019
  11   2.0000     -10.292698      -280.0786
  12   2.0000     -10.287656      -279.9414
  13   2.0000     -10.281686      -279.7789
  14   2.0000     -10.273893      -279.5668
  15   2.0000     -10.271936      -279.5136
  16   2.0000      -8.083857      -219.9729
  17   2.0000      -8.077111      -219.7894
  18   2.0000      -6.042396      -164.4220
  19   2.0000      -6.038700      -164.3214
  20   2.0000      -6.035582      -164.2365
  21   2.0000      -6.034485      -164.2067
  22   2.0000      -6.031592      -164.1280
  23   2.0000      -6.027853      -164.0262
  24   2.0000      -1.005963       -27.3736
  25   2.0000      -0.976700       -26.5773
  26   2.0000      -0.915201       -24.9039
  27   2.0000      -0.908849       -24.7310
  28   2.0000      -0.868571       -23.6350
  29   2.0000      -0.849638       -23.1198
  30   2.0000      -0.844739       -22.9865
  31   2.0000      -0.814891       -22.1743
  32   2.0000      -0.787775       -21.4364
  33   2.0000      -0.774120       -21.0649
  34   2.0000      -0.712383       -19.3849
  35   2.0000      -0.702908       -19.1271
  36   2.0000      -0.687902       -18.7188
  37   2.0000      -0.666816       -18.1450
  38   2.0000      -0.640887       -17.4394
  39   2.0000      -0.621926       -16.9235
  40   2.0000      -0.592097       -16.1118
  41   2.0000      -0.575014       -15.6469
  42   2.0000      -0.560708       -15.2577
  43   2.0000      -0.552688       -15.0394
  44   2.0000      -0.542558       -14.7638
  45   2.0000      -0.530766       -14.4429
  46   2.0000      -0.519813       -14.1448
  47   2.0000      -0.509492       -13.8640
  48   2.0000      -0.506408       -13.7801
  49   2.0000      -0.501243       -13.6395
  50   2.0000      -0.493771       -13.4362
  51   2.0000      -0.479614       -13.0510
  52   2.0000      -0.475229       -12.9316
  53   2.0000      -0.465726       -12.6730
  54   2.0000      -0.457266       -12.4428
  55   2.0000      -0.451297       -12.2804
  56   2.0000      -0.446602       -12.1526
  57   2.0000      -0.440565       -11.9884
  58   2.0000      -0.435031       -11.8378
  59   2.0000      -0.432996       -11.7824
  60   2.0000      -0.416898       -11.3444
  61   2.0000      -0.414637       -11.2829
  62   2.0000      -0.404521       -11.0076
  63   2.0000      -0.345776        -9.4090
  64   2.0000      -0.333383        -9.0718
  65   2.0000      -0.326280        -8.8785
  66   2.0000      -0.290479        -7.9043
  67   0.0000       0.028765         0.7827
  68   0.0000       0.059950         1.6313
  69   0.0000       0.097596         2.6557
  70   0.0000       0.119793         3.2597
  71   0.0000       0.124059         3.3758

MULLIKEN ATOMIC CHARGES
-----------------------
   0 S :    0.108586
   1 C :   -0.107474
   2 C :   -0.153011
   3 C :    0.034335
   4 C :   -0.112597
   5 H :    0.007798
   6 C :    0.131489
   7 H :    0.029986
   8 H :   -0.021875
   9 C :   -0.100096
  10 H :    0.025216
  11 H :    0.047462
  12 C :    0.014762
  13 H :    0.027986
  14 H :    0.027501
  15 H :    0.009485
  16 S :    0.094637
  17 C :   -0.122558
  18 C :   -0.022838
  19 C :   -0.034838
  20 C :   -0.154595
  21 H :    0.017387
  22 C :    0.031659
  23 H :    0.044780
  24 H :    0.037578
  25 C :   -0.098841
  26 H :    0.020898
  27 H :    0.035956
  28 C :   -0.009230
  29 H :    0.019839
  30 H :    0.038259
  31 H :    0.020168
  32 H :    0.029403
  33 H :    0.082783
Sum of atomic charges:   -0.0000000

LOEWDIN ATOMIC CHARGES
----------------------
   0 S :    0.380146
   1 C :   -0.181719
   2 C :   -0.053127
   3 C :   -0.051468
   4 C :   -0.180265
   5 H :    0.028872
   6 C :   -0.030489
   7 H :    0.028306
   8 H :    0.015004
   9 C :   -0.033681
  10 H :    0.015262
  11 H :    0.038772
  12 C :   -0.052725
  13 H :    0.028065
  14 H :    0.023510
  15 H :    0.015967
  16 S :    0.399141
  17 C :   -0.180575
  18 C :   -0.071676
  19 C :   -0.062849
  20 C :   -0.211181
  21 H :    0.031424
  22 C :   -0.037407
  23 H :    0.037452
  24 H :    0.037194
  25 C :   -0.042658
  26 H :    0.014541
  27 H :    0.030516
  28 C :   -0.051635
  29 H :    0.023277
  30 H :    0.024079
  31 H :    0.012530
  32 H :    0.013819
  33 H :    0.043576

  Mayer bond orders larger than 0.100000
B(  0-S ,  1-C ) :   1.1283 B(  0-S ,  4-C ) :   1.1448 B(  1-C ,  2-C ) :   1.6158
B(  1-C , 32-H ) :   0.9733 B(  2-C ,  3-C ) :   1.2212 B(  2-C ,  6-C ) :   1.0214
B(  3-C ,  4-C ) :   1.5697 B(  3-C ,  5-H ) :   0.9979 B(  4-C , 20-C ) :   1.0005
B(  6-C ,  7-H ) :   0.9366 B(  6-C ,  8-H ) :   0.9253 B(  6-C ,  9-C ) :   1.0354
B(  9-C , 10-H ) :   0.9664 B(  9-C , 11-H ) :   0.9588 B(  9-C , 12-C ) :   1.0713
B( 12-C , 13-H ) :   0.9725 B( 12-C , 14-H ) :   0.9745 B( 12-C , 15-H ) :   0.9746
B( 16-S , 17-C ) :   1.1529 B( 16-S , 20-C ) :   1.1413 B( 17-C , 18-C ) :   1.5923
B( 17-C , 20-C ) :   0.1003 B( 17-C , 33-H ) :   0.9590 B( 18-C , 19-C ) :   1.2509
B( 18-C , 21-H ) :   0.9879 B( 19-C , 20-C ) :   1.6153 B( 19-C , 22-C ) :   1.0422
B( 22-C , 23-H ) :   0.9304 B( 22-C , 24-H ) :   0.9341 B( 22-C , 25-C ) :   1.0787
B( 25-C , 26-H ) :   0.9469 B( 25-C , 27-H ) :   0.9558 B( 25-C , 28-C ) :   1.0727
B( 28-C , 29-H ) :   0.9763 B( 28-C , 30-H ) :   0.9702 B( 28-C , 31-H ) :   0.9713

Dispersion correction           -0.015205809
FINAL SINGLE POINT ENERGY     -1339.849041465694

DIPOLE MOMENT
-------------
                                X             Y             Z
Electronic contribution:     18.53437     -18.34682     -18.18679
Nuclear contribution   :    -18.97493      18.82893      18.69732
                        -----------------------------------------
Total Dipole Moment    :     -0.44056       0.48211       0.51053
                        -----------------------------------------
Magnitude (a.u.)       :      0.82895
Magnitude (Debye)      :      2.10703

Rotational constants in cm-1:     0.017976     0.009689     0.006728
Rotational constants in MHz :   538.906218   290.455490   201.688838

                             ****ORCA TERMINATED NORMALLY****
TOTAL RUN TIME: 0 days 0 hours 0 minutes 22 seconds 363 msec
