                         Program Version 4.2.1 -  RELEASE  -
|  1> ! wB97X-D3 SP def2-SVP
|  2> %pal
|  3> nprocs 24
|  4> end
|  5>
|  6> * xyz 0 1
|  7> S 	 18.595 	 -0.11281 	 -111.858
|  8> C 	 18.5565 	 -1.51658 	 -110.882
|  9> C 	 19.3744 	 -1.3943 	 -109.764
| 10> C 	 20.2838 	 -0.32158 	 -109.824
| 11> C 	 19.9026 	 0.53165 	 -110.878
| 12> H 	 21.1476 	 -0.172806 	 -109.091
| 13> C 	 19.4928 	 -2.45744 	 -108.758
| 14> H 	 20.5962 	 -2.63847 	 -108.588
| 15> H 	 19.0427 	 -3.26826 	 -109.265
| 16> C 	 18.8947 	 -2.0629 	 -107.449
| 17> H 	 18.933 	 -2.87453 	 -106.727
| 18> H 	 19.4821 	 -1.23542 	 -106.975
| 19> C 	 17.3402 	 -1.87812 	 -107.449
| 20> H 	 16.8275 	 -1.21803 	 -108.211
| 21> H 	 16.989 	 -2.87008 	 -107.695
| 22> H 	 17.0334 	 -1.51485 	 -106.495
| 23> S 	 20.5193 	 2.9586 	 -109.769
| 24> C 	 21.2368 	 4.1339 	 -110.76
| 25> C 	 21.3798 	 3.75417 	 -112.049
| 26> C 	 20.8417 	 2.46414 	 -112.331
| 27> C 	 20.4387 	 1.85269 	 -111.153
| 28> H 	 21.8522 	 4.40917 	 -112.822
| 29> C 	 21.0219 	 1.82729 	 -113.704
| 30> H 	 21.3847 	 2.5523 	 -114.499
| 31> H 	 19.9817 	 1.5655 	 -114.099
| 32> C 	 22.0038 	 0.668208 	 -113.764
| 33> H 	 21.6024 	 -0.241014 	 -113.272
| 34> H 	 22.9157 	 0.889607 	 -113.245
| 35> C 	 22.3815 	 0.316745 	 -115.258
| 36> H 	 23.0566 	 -0.487132 	 -115.288
| 37> H 	 22.8364 	 1.21545 	 -115.608
| 38> H 	 21.4661 	 0.0294771 	 -115.83
| 39> H 	 17.7468 	 -2.23942 	 -111.067
| 40> H 	 21.619 	 5.09423 	 -110.352
| 41> *
| 42>
| 43>                          ****END OF INPUT****

CARTESIAN COORDINATES (ANGSTROEM)
---------------------------------
  S     18.595000   -0.112810  -111.858000
  C     18.556500   -1.516580  -110.882000
  C     19.374400   -1.394300  -109.764000
  C     20.283800   -0.321580  -109.824000
  C     19.902600    0.531650  -110.878000
  H     21.147600   -0.172806  -109.091000
  C     19.492800   -2.457440  -108.758000
  H     20.596200   -2.638470  -108.588000
  H     19.042700   -3.268260  -109.265000
  C     18.894700   -2.062900  -107.449000
  H     18.933000   -2.874530  -106.727000
  H     19.482100   -1.235420  -106.975000
  C     17.340200   -1.878120  -107.449000
  H     16.827500   -1.218030  -108.211000
  H     16.989000   -2.870080  -107.695000
  H     17.033400   -1.514850  -106.495000
  S     20.519300    2.958600  -109.769000
  C     21.236800    4.133900  -110.760000
  C     21.379800    3.754170  -112.049000
  C     20.841700    2.464140  -112.331000
  C     20.438700    1.852690  -111.153000
  H     21.852200    4.409170  -112.822000
  C     21.021900    1.827290  -113.704000
  H     21.384700    2.552300  -114.499000
  H     19.981700    1.565500  -114.099000
  C     22.003800    0.668208  -113.764000
  H     21.602400   -0.241014  -113.272000
  H     22.915700    0.889607  -113.245000
  C     22.381500    0.316745  -115.258000
  H     23.056600   -0.487132  -115.288000
  H     22.836400    1.215450  -115.608000
  H     21.466100    0.029477  -115.830000
  H     17.746800   -2.239420  -111.067000
  H     21.619000    5.094230  -110.352000

 Total Charge           Charge          ....    0
 Multiplicity           Mult            ....    1
 Number of Electrons    NEL             ....  134
 Basis Dimension        Dim             ....  322

ORBITAL ENERGIES
----------------

  NO   OCC          E(Eh)            E(eV)
   0   2.0000     -88.966977     -2420.9145
   1   2.0000     -88.964351     -2420.8431
   2   2.0000     -10.329852      -281.0896
   3   2.0000     -10.322927      -280.9011
   4   2.0000     -10.310113      -280.5524
   5   2.0000     -10.309483      -280.5353
   6   2.0000     -10.301399      -280.3153
   7   2.0000     -10.299659      -280.2680
   8   2.0000     -10.299482      -280.2632
   9   2.0000     -10.293389      -280.0974
  10   2.0000     -10.289976      -280.0045
  11   2.0000     -10.287908      -279.9482
  12   2.0000     -10.283581      -279.8305
  13   2.0000     -10.281643      -279.7777
  14   2.0000     -10.276954      -279.6501
  15   2.0000     -10.273797      -279.5642
  16   2.0000      -8.082093      -219.9249
  17   2.0000      -8.079793      -219.8623
  18   2.0000      -6.040359      -164.3665
  19   2.0000      -6.038170      -164.3070
  20   2.0000      -6.036566      -164.2633
  21   2.0000      -6.034244      -164.2001
  22   2.0000      -6.033090      -164.1687
  23   2.0000      -6.030614      -164.1014
  24   2.0000      -1.009455       -27.4687
  25   2.0000      -0.989547       -26.9270
  26   2.0000      -0.918943       -25.0057
  27   2.0000      -0.904612       -24.6157
  28   2.0000      -0.865888       -23.5620
  29   2.0000      -0.852924       -23.2092
  30   2.0000      -0.847547       -23.0629
  31   2.0000      -0.809253       -22.0209
  32   2.0000      -0.781720       -21.2717
  33   2.0000      -0.767430       -20.8828
  34   2.0000      -0.708521       -19.2798
  35   2.0000      -0.694449       -18.8969
  36   2.0000      -0.684037       -18.6136
  37   2.0000      -0.658833       -17.9277
  38   2.0000      -0.635472       -17.2921
  39   2.0000      -0.615352       -16.7446
  40   2.0000      -0.597301       -16.2534
  41   2.0000      -0.562004       -15.2929
  42   2.0000      -0.557208       -15.1624
  43   2.0000      -0.551792       -15.0150
  44   2.0000      -0.546870       -14.8811
  45   2.0000      -0.521885       -14.2012
  46   2.0000      -0.519290       -14.1306
  47   2.0000      -0.508185       -13.8284
  48   2.0000      -0.502505       -13.6738
  49   2.0000      -0.494022       -13.4430
  50   2.0000      -0.487660       -13.2699
  51   2.0000      -0.474628       -12.9153
  52   2.0000      -0.468966       -12.7612
  53   2.0000      -0.463920       -12.6239
  54   2.0000      -0.452448       -12.3117
  55   2.0000      -0.449707       -12.2371
  56   2.0000      -0.442761       -12.0481
  57   2.0000      -0.440964       -11.9992
  58   2.0000      -0.438766       -11.9394
  59   2.0000      -0.420847       -11.4518
  60   2.0000      -0.418396       -11.3851
  61   2.0000      -0.410444       -11.1687
  62   2.0000      -0.407918       -11.1000
  63   2.0000      -0.344234        -9.3671
  64   2.0000      -0.333781        -9.0826
  65   2.0000      -0.330837        -9.0025
  66   2.0000      -0.286159        -7.7868
  67   0.0000       0.028108         0.7649
  68   0.0000       0.079004         2.1498
  69   0.0000       0.107624         2.9286
  70   0.0000       0.113494         3.0883
  71   0.0000       0.131421         3.5761

MULLIKEN ATOMIC CHARGES
-----------------------
   0 S :    0.121226
   1 C :   -0.142011
   2 C :   -0.098859
   3 C :   -0.009903
   4 C :   -0.156767
   5 H :    0.052195
   6 C :    0.089317
   7 H :    0.035664
   8 H :    0.003451
   9 C :   -0.072887
  10 H :    0.025925
  11 H :    0.033978
  12 C :   -0.062187
  13 H :    0.043373
  14 H :    0.021311
  15 H :    0.033499
  16 S :    0.122529
  17 C :   -0.096038
  18 C :   -0.051956
  19 C :    0.001057
  20 C :   -0.169231
  21 H :    0.030196
  22 C :    0.012212
  23 H :    0.020288
  24 H :    0.041329
  25 C :   -0.074723
  26 H :    0.039247
  27 H :    0.027068
  28 C :   -0.036495
  29 H :    0.026003
  30 H :    0.025452
  31 H :    0.040436
  32 H :    0.061633
  33 H :    0.063670
Sum of atomic charges:   -0.0000000

LOEWDIN ATOMIC CHARGES
----------------------
   0 S :    0.428839
   1 C :   -0.224408
   2 C :   -0.062857
   3 C :   -0.072468
   4 C :   -0.188910
   5 H :    0.048891
   6 C :   -0.035348
   7 H :    0.040477
   8 H :    0.024228
   9 C :   -0.042870
  10 H :    0.025397
  11 H :    0.026032
  12 C :   -0.065795
  13 H :    0.027815
  14 H :    0.022118
  15 H :    0.022297
  16 S :    0.422466
  17 C :   -0.207728
  18 C :   -0.080130
  19 C :   -0.058159
  20 C :   -0.195196
  21 H :    0.038372
  22 C :   -0.043890
  23 H :    0.033041
  24 H :    0.035183
  25 C :   -0.038718
  26 H :    0.024488
  27 H :    0.021206
  28 C :   -0.056260
  29 H :    0.018100
  30 H :    0.018726
  31 H :    0.030663
  32 H :    0.029159
  33 H :    0.035233

  Mayer bond orders larger than 0.100000
B(  0-S ,  1-C ) :   1.1462 B(  0-S ,  4-C ) :   1.1764 B(  1-C ,  2-C ) :   1.5761
B(  1-C , 32-H ) :   0.9631 B(  2-C ,  3-C ) :   1.2627 B(  2-C ,  6-C ) :   1.0306
B(  3-C ,  4-C ) :   1.5283 B(  3-C ,  5-H ) :   0.9795 B(  4-C , 20-C ) :   1.0632
B(  6-C ,  7-H ) :   0.9372 B(  6-C ,  8-H ) :   0.9398 B(  6-C ,  9-C ) :   1.0768
B(  9-C , 10-H ) :   0.9564 B(  9-C , 11-H ) :   0.9551 B(  9-C , 12-C ) :   1.0518
B( 12-C , 13-H ) :   0.9781 B( 12-C , 14-H ) :   0.9783 B( 12-C , 15-H ) :   0.9765
B( 16-S , 17-C ) :   1.1604 B( 16-S , 20-C ) :   1.1447 B( 17-C , 18-C ) :   1.6130
B( 17-C , 33-H ) :   0.9591 B( 18-C , 19-C ) :   1.2504 B( 18-C , 21-H ) :   0.9824
B( 19-C , 20-C ) :   1.5702 B( 19-C , 22-C ) :   1.0429 B( 22-C , 23-H ) :   0.9435
B( 22-C , 24-H ) :   0.9242 B( 22-C , 25-C ) :   1.0597 B( 25-C , 26-H ) :   0.9503
B( 25-C , 27-H ) :   0.9586 B( 25-C , 28-C ) :   1.0792 B( 28-C , 29-H ) :   0.9762
B( 28-C , 30-H ) :   0.9774 B( 28-C , 31-H ) :   0.9772

Dispersion correction           -0.014811937
FINAL SINGLE POINT ENERGY     -1339.878344782332

DIPOLE MOMENT
-------------
                                X             Y             Z
Electronic contribution:     -3.09750      13.39623       1.81954
Nuclear contribution   :      3.32029     -13.60579      -1.77861
                        -----------------------------------------
Total Dipole Moment    :      0.22279      -0.20956       0.04093
                        -----------------------------------------
Magnitude (a.u.)       :      0.30858
Magnitude (Debye)      :      0.78436

Rotational constants in cm-1:     0.020605     0.008763     0.006914
Rotational constants in MHz :   617.721483   262.711572   207.267914

                             ****ORCA TERMINATED NORMALLY****
TOTAL RUN TIME: 0 days 0 hours 0 minutes 20 seconds 636 msec
