                         Program Version 4.2.1 -  RELEASE  -
|  1> ! wB97X-D3 SP def2-SVP
|  2> %pal
|  3> nprocs 24
|  4> end
|  5>
|  6> * xyz 0 1
|  7> S 	 -35.3367 	 9.85371 	 1.53035
|  8> C 	 -36.0718 	 9.12002 	 2.90162
|  9> C 	 -35.09 	 8.53025 	 3.67876
| 10> C 	 -33.7867 	 8.50168 	 3.0674
| 11> C 	 -33.7295 	 9.32741 	 1.93682
| 12> H 	 -32.9128 	 8.06446 	 3.41029
| 13> C 	 -35.343 	 7.70705 	 4.93521
| 14> H 	 -34.6846 	 6.92204 	 4.73349
| 15> H 	 -36.3901 	 7.27589 	 4.86912
| 16> C 	 -35.1947 	 8.37747 	 6.31929
| 17> H 	 -36.1217 	 9.01091 	 6.53059
| 18> H 	 -35.1284 	 7.58219 	 7.0772
| 19> C 	 -33.975 	 9.35309 	 6.44493
| 20> H 	 -33.008 	 8.89614 	 6.15082
| 21> H 	 -34.0708 	 10.245 	 5.80277
| 22> H 	 -33.8963 	 9.6498 	 7.42969
| 23> S 	 -32.7073 	 9.05702 	 -0.607232
| 24> C 	 -30.9777 	 8.90403 	 -0.866982
| 25> C 	 -30.3605 	 9.32097 	 0.268171
| 26> C 	 -31.1996 	 9.6408 	 1.36265
| 27> C 	 -32.5356 	 9.44322 	 1.09541
| 28> H 	 -29.2952 	 9.14555 	 0.368387
| 29> C 	 -30.6507 	 9.92658 	 2.77817
| 30> H 	 -31.4878 	 9.88859 	 3.42863
| 31> H 	 -30.2432 	 10.9414 	 2.79247
| 32> C 	 -29.518 	 9.04362 	 3.406
| 33> H 	 -29.0907 	 9.564 	 4.25225
| 34> H 	 -28.7227 	 8.89894 	 2.66143
| 35> C 	 -30.0368 	 7.61127 	 3.9036
| 36> H 	 -30.773 	 7.16022 	 3.28589
| 37> H 	 -30.4662 	 7.76447 	 4.85786
| 38> H 	 -29.2308 	 6.95944 	 4.04904
| 39> H 	 -37.1209 	 9.21081 	 3.13725
| 40> H 	 -30.4417 	 8.4525 	 -1.6892
| 41> *
| 42>
| 43>                          ****END OF INPUT****

CARTESIAN COORDINATES (ANGSTROEM)
---------------------------------
  S    -35.336700    9.853710    1.530350
  C    -36.071800    9.120020    2.901620
  C    -35.090000    8.530250    3.678760
  C    -33.786700    8.501680    3.067400
  C    -33.729500    9.327410    1.936820
  H    -32.912800    8.064460    3.410290
  C    -35.343000    7.707050    4.935210
  H    -34.684600    6.922040    4.733490
  H    -36.390100    7.275890    4.869120
  C    -35.194700    8.377470    6.319290
  H    -36.121700    9.010910    6.530590
  H    -35.128400    7.582190    7.077200
  C    -33.975000    9.353090    6.444930
  H    -33.008000    8.896140    6.150820
  H    -34.070800   10.245000    5.802770
  H    -33.896300    9.649800    7.429690
  S    -32.707300    9.057020   -0.607232
  C    -30.977700    8.904030   -0.866982
  C    -30.360500    9.320970    0.268171
  C    -31.199600    9.640800    1.362650
  C    -32.535600    9.443220    1.095410
  H    -29.295200    9.145550    0.368387
  C    -30.650700    9.926580    2.778170
  H    -31.487800    9.888590    3.428630
  H    -30.243200   10.941400    2.792470
  C    -29.518000    9.043620    3.406000
  H    -29.090700    9.564000    4.252250
  H    -28.722700    8.898940    2.661430
  C    -30.036800    7.611270    3.903600
  H    -30.773000    7.160220    3.285890
  H    -30.466200    7.764470    4.857860
  H    -29.230800    6.959440    4.049040
  H    -37.120900    9.210810    3.137250
  H    -30.441700    8.452500   -1.689200

 Total Charge           Charge          ....    0
 Multiplicity           Mult            ....    1
 Number of Electrons    NEL             ....  134
 Basis Dimension        Dim             ....  322

ORBITAL ENERGIES
----------------

  NO   OCC          E(Eh)            E(eV)
   0   2.0000     -88.967317     -2420.9238
   1   2.0000     -88.961282     -2420.7596
   2   2.0000     -10.333291      -281.1831
   3   2.0000     -10.329461      -281.0789
   4   2.0000     -10.316994      -280.7397
   5   2.0000     -10.314149      -280.6623
   6   2.0000     -10.303815      -280.3811
   7   2.0000     -10.302350      -280.3412
   8   2.0000     -10.297815      -280.2178
   9   2.0000     -10.295689      -280.1599
  10   2.0000     -10.292400      -280.0704
  11   2.0000     -10.291174      -280.0371
  12   2.0000     -10.290081      -280.0073
  13   2.0000     -10.289711      -279.9973
  14   2.0000     -10.275752      -279.6174
  15   2.0000     -10.273184      -279.5475
  16   2.0000      -8.082570      -219.9379
  17   2.0000      -8.076262      -219.7663
  18   2.0000      -6.041110      -164.3870
  19   2.0000      -6.036780      -164.2691
  20   2.0000      -6.034899      -164.2179
  21   2.0000      -6.033492      -164.1797
  22   2.0000      -6.030668      -164.1028
  23   2.0000      -6.026895      -164.0002
  24   2.0000      -1.010516       -27.4975
  25   2.0000      -0.989151       -26.9162
  26   2.0000      -0.906432       -24.6653
  27   2.0000      -0.900548       -24.5052
  28   2.0000      -0.873117       -23.7587
  29   2.0000      -0.848421       -23.0867
  30   2.0000      -0.842898       -22.9364
  31   2.0000      -0.818738       -22.2790
  32   2.0000      -0.784933       -21.3591
  33   2.0000      -0.777918       -21.1682
  34   2.0000      -0.709900       -19.3174
  35   2.0000      -0.704166       -19.1613
  36   2.0000      -0.699292       -19.0287
  37   2.0000      -0.659603       -17.9487
  38   2.0000      -0.647094       -17.6083
  39   2.0000      -0.610925       -16.6241
  40   2.0000      -0.594550       -16.1785
  41   2.0000      -0.569462       -15.4959
  42   2.0000      -0.553070       -15.0498
  43   2.0000      -0.547590       -14.9007
  44   2.0000      -0.542844       -14.7715
  45   2.0000      -0.539359       -14.6767
  46   2.0000      -0.524246       -14.2655
  47   2.0000      -0.518317       -14.1041
  48   2.0000      -0.512073       -13.9342
  49   2.0000      -0.499929       -13.6037
  50   2.0000      -0.489659       -13.3243
  51   2.0000      -0.479665       -13.0523
  52   2.0000      -0.474901       -12.9227
  53   2.0000      -0.469705       -12.7813
  54   2.0000      -0.464197       -12.6314
  55   2.0000      -0.449102       -12.2207
  56   2.0000      -0.443198       -12.0600
  57   2.0000      -0.436777       -11.8853
  58   2.0000      -0.431410       -11.7393
  59   2.0000      -0.425745       -11.5851
  60   2.0000      -0.421069       -11.4579
  61   2.0000      -0.413827       -11.2608
  62   2.0000      -0.408130       -11.1058
  63   2.0000      -0.353259        -9.6127
  64   2.0000      -0.330572        -8.9953
  65   2.0000      -0.327354        -8.9077
  66   2.0000      -0.293971        -7.9993
  67   0.0000       0.029010         0.7894
  68   0.0000       0.069912         1.9024
  69   0.0000       0.112781         3.0689
  70   0.0000       0.121846         3.3156
  71   0.0000       0.127481         3.4689

MULLIKEN ATOMIC CHARGES
-----------------------
   0 S :    0.115173
   1 C :   -0.119074
   2 C :   -0.099593
   3 C :    0.060838
   4 C :   -0.142630
   5 H :   -0.043396
   6 C :    0.064033
   7 H :    0.016822
   8 H :    0.031387
   9 C :   -0.076213
  10 H :    0.040211
  11 H :    0.038296
  12 C :   -0.049142
  13 H :    0.025803
  14 H :    0.048343
  15 H :    0.021042
  16 S :    0.091921
  17 C :   -0.091119
  18 C :   -0.038553
  19 C :   -0.041812
  20 C :   -0.145380
  21 H :    0.021070
  22 C :    0.076607
  23 H :    0.008947
  24 H :    0.037148
  25 C :   -0.086190
  26 H :    0.033765
  27 H :    0.029191
  28 C :   -0.035969
  29 H :    0.049915
  30 H :    0.020101
  31 H :    0.023470
  32 H :    0.054716
  33 H :    0.060271
Sum of atomic charges:    0.0000000

LOEWDIN ATOMIC CHARGES
----------------------
   0 S :    0.425354
   1 C :   -0.206496
   2 C :   -0.063111
   3 C :   -0.053038
   4 C :   -0.196086
   5 H :    0.014860
   6 C :   -0.036122
   7 H :    0.023177
   8 H :    0.037218
   9 C :   -0.039417
  10 H :    0.032362
  11 H :    0.026220
  12 C :   -0.066481
  13 H :    0.023032
  14 H :    0.031443
  15 H :    0.014952
  16 S :    0.395922
  17 C :   -0.179072
  18 C :   -0.077147
  19 C :   -0.061774
  20 C :   -0.189909
  21 H :    0.030192
  22 C :   -0.028570
  23 H :    0.020967
  24 H :    0.036388
  25 C :   -0.029658
  26 H :    0.025644
  27 H :    0.018708
  28 C :   -0.059599
  29 H :    0.020992
  30 H :    0.020275
  31 H :    0.021180
  32 H :    0.031423
  33 H :    0.036171

  Mayer bond orders larger than 0.100000
B(  0-S ,  1-C ) :   1.1466 B(  0-S ,  4-C ) :   1.1683 B(  1-C ,  2-C ) :   1.5829
B(  1-C , 32-H ) :   0.9733 B(  2-C ,  3-C ) :   1.2511 B(  2-C ,  6-C ) :   1.0078
B(  3-C ,  4-C ) :   1.5404 B(  3-C ,  5-H ) :   0.9948 B(  4-C , 20-C ) :   1.0362
B(  6-C ,  7-H ) :   0.9423 B(  6-C ,  8-H ) :   0.9488 B(  6-C ,  9-C ) :   1.0611
B(  9-C , 10-H ) :   0.9550 B(  9-C , 11-H ) :   0.9576 B(  9-C , 12-C ) :   1.0838
B( 12-C , 13-H ) :   0.9765 B( 12-C , 14-H ) :   0.9691 B( 12-C , 15-H ) :   0.9734
B( 16-S , 17-C ) :   1.1464 B( 16-S , 20-C ) :   1.1359 B( 17-C , 18-C ) :   1.6274
B( 17-C , 33-H ) :   0.9687 B( 18-C , 19-C ) :   1.2379 B( 18-C , 21-H ) :   0.9832
B( 19-C , 20-C ) :   1.6051 B( 19-C , 22-C ) :   1.0416 B( 22-C , 23-H ) :   0.9389
B( 22-C , 24-H ) :   0.9276 B( 22-C , 25-C ) :   1.0695 B( 25-C , 26-H ) :   0.9567
B( 25-C , 27-H ) :   0.9610 B( 25-C , 28-C ) :   1.0665 B( 28-C , 29-H ) :   0.9731
B( 28-C , 30-H ) :   0.9761 B( 28-C , 31-H ) :   0.9720

Dispersion correction           -0.015661008
FINAL SINGLE POINT ENERGY     -1339.872184869866

DIPOLE MOMENT
-------------
                                X             Y             Z
Electronic contribution:    -10.72718       6.22263     -27.71675
Nuclear contribution   :     11.11429      -6.56861      28.37329
                        -----------------------------------------
Total Dipole Moment    :      0.38712      -0.34598       0.65654
                        -----------------------------------------
Magnitude (a.u.)       :      0.83702
Magnitude (Debye)      :      2.12754

Rotational constants in cm-1:     0.018174     0.010390     0.007196
Rotational constants in MHz :   544.843391   311.493796   215.717507

                             ****ORCA TERMINATED NORMALLY****
TOTAL RUN TIME: 0 days 0 hours 0 minutes 22 seconds 875 msec
