                         Program Version 4.2.1 -  RELEASE  -
|  1> ! wB97X-D3 SP def2-SVP
|  2> %pal
|  3> nprocs 24
|  4> end
|  5>
|  6> * xyz 0 1
|  7> S 	 -119.66 	 55.5175 	 -36.3591
|  8> C 	 -118.251 	 54.5391 	 -36.4646
|  9> C 	 -117.338 	 55.1075 	 -37.3734
| 10> C 	 -117.826 	 56.2169 	 -38.0887
| 11> C 	 -119.033 	 56.7151 	 -37.5743
| 12> H 	 -117.254 	 56.6377 	 -38.9195
| 13> C 	 -116.001 	 54.5162 	 -37.6434
| 14> H 	 -115.966 	 54.197 	 -38.7681
| 15> H 	 -115.791 	 53.5414 	 -37.1636
| 16> C 	 -114.795 	 55.4566 	 -37.3263
| 17> H 	 -113.868 	 54.9747 	 -37.5999
| 18> H 	 -114.856 	 56.3546 	 -37.9397
| 19> C 	 -114.812 	 55.6915 	 -35.8055
| 20> H 	 -114.929 	 54.7077 	 -35.3234
| 21> H 	 -113.858 	 56.1371 	 -35.4698
| 22> H 	 -115.664 	 56.3067 	 -35.4757
| 23> S 	 -121.458 	 57.6737 	 -37.9842
| 24> C 	 -121.718 	 59.2835 	 -38.5755
| 25> C 	 -120.517 	 59.9776 	 -38.7846
| 26> C 	 -119.419 	 59.1357 	 -38.424
| 27> C 	 -119.765 	 57.8791 	 -37.9169
| 28> H 	 -120.423 	 60.9552 	 -38.9045
| 29> C 	 -118.078 	 59.6245 	 -38.4476
| 30> H 	 -117.51 	 59.2426 	 -37.5767
| 31> H 	 -118.246 	 60.6902 	 -38.1712
| 32> C 	 -117.321 	 59.5411 	 -39.746
| 33> H 	 -118.039 	 59.6878 	 -40.5523
| 34> H 	 -117.048 	 58.5263 	 -39.9138
| 35> C 	 -116.11 	 60.4853 	 -39.6375
| 36> H 	 -115.447 	 60.4922 	 -40.509
| 37> H 	 -115.457 	 60.32 	 -38.7881
| 38> H 	 -116.605 	 61.3948 	 -39.5623
| 39> H 	 -118.225 	 53.587 	 -35.9444
| 40> H 	 -122.727 	 59.6273 	 -38.6788
| 41> *
| 42>
| 43>                          ****END OF INPUT****

CARTESIAN COORDINATES (ANGSTROEM)
---------------------------------
  S    -119.660000   55.517500  -36.359100
  C    -118.251000   54.539100  -36.464600
  C    -117.338000   55.107500  -37.373400
  C    -117.826000   56.216900  -38.088700
  C    -119.033000   56.715100  -37.574300
  H    -117.254000   56.637700  -38.919500
  C    -116.001000   54.516200  -37.643400
  H    -115.966000   54.197000  -38.768100
  H    -115.791000   53.541400  -37.163600
  C    -114.795000   55.456600  -37.326300
  H    -113.868000   54.974700  -37.599900
  H    -114.856000   56.354600  -37.939700
  C    -114.812000   55.691500  -35.805500
  H    -114.929000   54.707700  -35.323400
  H    -113.858000   56.137100  -35.469800
  H    -115.664000   56.306700  -35.475700
  S    -121.458000   57.673700  -37.984200
  C    -121.718000   59.283500  -38.575500
  C    -120.517000   59.977600  -38.784600
  C    -119.419000   59.135700  -38.424000
  C    -119.765000   57.879100  -37.916900
  H    -120.423000   60.955200  -38.904500
  C    -118.078000   59.624500  -38.447600
  H    -117.510000   59.242600  -37.576700
  H    -118.246000   60.690200  -38.171200
  C    -117.321000   59.541100  -39.746000
  H    -118.039000   59.687800  -40.552300
  H    -117.048000   58.526300  -39.913800
  C    -116.110000   60.485300  -39.637500
  H    -115.447000   60.492200  -40.509000
  H    -115.457000   60.320000  -38.788100
  H    -116.605000   61.394800  -39.562300
  H    -118.225000   53.587000  -35.944400
  H    -122.727000   59.627300  -38.678800

 Total Charge           Charge          ....    0
 Multiplicity           Mult            ....    1
 Number of Electrons    NEL             ....  134
 Basis Dimension        Dim             ....  322

ORBITAL ENERGIES
----------------

  NO   OCC          E(Eh)            E(eV)
   0   2.0000     -88.965001     -2420.8608
   1   2.0000     -88.963920     -2420.8313
   2   2.0000     -10.335819      -281.2519
   3   2.0000     -10.320932      -280.8468
   4   2.0000     -10.319081      -280.7965
   5   2.0000     -10.315832      -280.7081
   6   2.0000     -10.300662      -280.2953
   7   2.0000     -10.297852      -280.2188
   8   2.0000     -10.297177      -280.2004
   9   2.0000     -10.297030      -280.1964
  10   2.0000     -10.290667      -280.0233
  11   2.0000     -10.286787      -279.9177
  12   2.0000     -10.283785      -279.8360
  13   2.0000     -10.282229      -279.7937
  14   2.0000     -10.277392      -279.6620
  15   2.0000     -10.275747      -279.6173
  16   2.0000      -8.080042      -219.8691
  17   2.0000      -8.079388      -219.8513
  18   2.0000      -6.038335      -164.3114
  19   2.0000      -6.037855      -164.2984
  20   2.0000      -6.034223      -164.1996
  21   2.0000      -6.033894      -164.1906
  22   2.0000      -6.031069      -164.1137
  23   2.0000      -6.030269      -164.0919
  24   2.0000      -1.012445       -27.5500
  25   2.0000      -0.984994       -26.8030
  26   2.0000      -0.924567       -25.1587
  27   2.0000      -0.909094       -24.7377
  28   2.0000      -0.875003       -23.8100
  29   2.0000      -0.859988       -23.4015
  30   2.0000      -0.846256       -23.0278
  31   2.0000      -0.814013       -22.1504
  32   2.0000      -0.778521       -21.1846
  33   2.0000      -0.763031       -20.7631
  34   2.0000      -0.716742       -19.5035
  35   2.0000      -0.704002       -19.1569
  36   2.0000      -0.694866       -18.9083
  37   2.0000      -0.677873       -18.4459
  38   2.0000      -0.639860       -17.4115
  39   2.0000      -0.628158       -17.0931
  40   2.0000      -0.603616       -16.4252
  41   2.0000      -0.576014       -15.6741
  42   2.0000      -0.563810       -15.3421
  43   2.0000      -0.549719       -14.9586
  44   2.0000      -0.539097       -14.6696
  45   2.0000      -0.526361       -14.3230
  46   2.0000      -0.522233       -14.2107
  47   2.0000      -0.516986       -14.0679
  48   2.0000      -0.506482       -13.7821
  49   2.0000      -0.504126       -13.7180
  50   2.0000      -0.489780       -13.3276
  51   2.0000      -0.481166       -13.0932
  52   2.0000      -0.467586       -12.7237
  53   2.0000      -0.464865       -12.6496
  54   2.0000      -0.458079       -12.4650
  55   2.0000      -0.454216       -12.3599
  56   2.0000      -0.447779       -12.1847
  57   2.0000      -0.439797       -11.9675
  58   2.0000      -0.430580       -11.7167
  59   2.0000      -0.427298       -11.6274
  60   2.0000      -0.423676       -11.5288
  61   2.0000      -0.413977       -11.2649
  62   2.0000      -0.406305       -11.0561
  63   2.0000      -0.357742        -9.7347
  64   2.0000      -0.332733        -9.0541
  65   2.0000      -0.325205        -8.8493
  66   2.0000      -0.279680        -7.6105
  67   0.0000       0.017749         0.4830
  68   0.0000       0.075053         2.0423
  69   0.0000       0.105941         2.8828
  70   0.0000       0.114259         3.1091
  71   0.0000       0.126618         3.4454

MULLIKEN ATOMIC CHARGES
-----------------------
   0 S :    0.092797
   1 C :   -0.124010
   2 C :   -0.070840
   3 C :    0.029087
   4 C :   -0.127184
   5 H :    0.012674
   6 C :   -0.024127
   7 H :    0.043966
   8 H :    0.024390
   9 C :   -0.048757
  10 H :    0.025338
  11 H :    0.026162
  12 C :   -0.064249
  13 H :    0.023803
  14 H :    0.037237
  15 H :    0.054787
  16 S :    0.101724
  17 C :   -0.084756
  18 C :    0.049805
  19 C :   -0.063487
  20 C :   -0.109297
  21 H :   -0.031032
  22 C :   -0.029477
  23 H :    0.035537
  24 H :    0.013234
  25 C :   -0.009089
  26 H :    0.021923
  27 H :    0.000648
  28 C :   -0.008772
  29 H :    0.032530
  30 H :    0.034663
  31 H :    0.016779
  32 H :    0.061646
  33 H :    0.056347
Sum of atomic charges:   -0.0000000

LOEWDIN ATOMIC CHARGES
----------------------
   0 S :    0.388585
   1 C :   -0.205988
   2 C :   -0.071067
   3 C :   -0.059123
   4 C :   -0.171150
   5 H :    0.033481
   6 C :   -0.044459
   7 H :    0.038020
   8 H :    0.027686
   9 C :   -0.038736
  10 H :    0.022298
  11 H :    0.018821
  12 C :   -0.067373
  13 H :    0.025379
  14 H :    0.025426
  15 H :    0.030631
  16 S :    0.436247
  17 C :   -0.172534
  18 C :   -0.051717
  19 C :   -0.054696
  20 C :   -0.219413
  21 H :    0.008399
  22 C :   -0.045581
  23 H :    0.035242
  24 H :    0.033012
  25 C :   -0.032707
  26 H :    0.027204
  27 H :    0.011869
  28 C :   -0.054217
  29 H :    0.026003
  30 H :    0.028611
  31 H :    0.018475
  32 H :    0.031129
  33 H :    0.022245

  Mayer bond orders larger than 0.100000
B(  0-S ,  1-C ) :   1.1511 B(  0-S ,  4-C ) :   1.1419 B(  1-C ,  2-C ) :   1.5501
B(  1-C ,  4-C ) :   0.1082 B(  1-C , 32-H ) :   0.9732 B(  2-C ,  3-C ) :   1.2794
B(  2-C ,  6-C ) :   1.0337 B(  3-C ,  4-C ) :   1.5172 B(  3-C ,  5-H ) :   0.9888
B(  4-C , 20-C ) :   1.0874 B(  6-C ,  7-H ) :   0.9383 B(  6-C ,  8-H ) :   0.9509
B(  6-C ,  9-C ) :   1.0688 B(  9-C , 10-H ) :   0.9563 B(  9-C , 11-H ) :   0.9567
B(  9-C , 12-C ) :   1.0643 B( 12-C , 13-H ) :   0.9740 B( 12-C , 14-H ) :   0.9754
B( 12-C , 15-H ) :   0.9744 B( 16-S , 17-C ) :   1.1950 B( 16-S , 20-C ) :   1.1413
B( 17-C , 18-C ) :   1.5361 B( 17-C , 33-H ) :   0.9729 B( 18-C , 19-C ) :   1.2741
B( 18-C , 21-H ) :   1.0085 B( 19-C , 20-C ) :   1.5456 B( 19-C , 22-C ) :   1.0638
B( 22-C , 23-H ) :   0.9315 B( 22-C , 24-H ) :   0.9379 B( 22-C , 25-C ) :   1.0490
B( 25-C , 26-H ) :   0.9519 B( 25-C , 27-H ) :   0.9450 B( 25-C , 28-C ) :   1.0584
B( 28-C , 29-H ) :   0.9744 B( 28-C , 30-H ) :   0.9737 B( 28-C , 31-H ) :   0.9801

Dispersion correction           -0.014915267
FINAL SINGLE POINT ENERGY     -1339.867952203608

DIPOLE MOMENT
-------------
                                X             Y             Z
Electronic contribution:    -29.08438      -6.45922       4.64730
Nuclear contribution   :     29.58049       6.69168      -4.86964
                        -----------------------------------------
Total Dipole Moment    :      0.49611       0.23246      -0.22235
                        -----------------------------------------
Magnitude (a.u.)       :      0.59127
Magnitude (Debye)      :      1.50289

Rotational constants in cm-1:     0.017548     0.010510     0.007006
Rotational constants in MHz :   526.089558   315.082141   210.036884

                             ****ORCA TERMINATED NORMALLY****
TOTAL RUN TIME: 0 days 0 hours 0 minutes 22 seconds 705 msec
