                         Program Version 4.2.1 -  RELEASE  -
|  1> ! wB97X-D3 SP def2-SVP
|  2> %pal
|  3> nprocs 24
|  4> end
|  5>
|  6> * xyz 0 1
|  7> S 	 -121.866 	 21.9478 	 -15.4452
|  8> C 	 -120.516 	 22.2668 	 -16.5424
|  9> C 	 -119.728 	 23.3427 	 -16.1423
| 10> C 	 -120.223 	 23.8405 	 -14.9091
| 11> C 	 -121.431 	 23.3563 	 -14.443
| 12> H 	 -119.865 	 24.705 	 -14.3191
| 13> C 	 -118.699 	 24.0989 	 -16.9765
| 14> H 	 -118.988 	 25.0559 	 -16.9153
| 15> H 	 -118.633 	 23.8766 	 -18.0508
| 16> C 	 -117.357 	 23.9416 	 -16.3204
| 17> H 	 -116.68 	 24.6919 	 -16.7728
| 18> H 	 -117.363 	 24.031 	 -15.2385
| 19> C 	 -116.688 	 22.6243 	 -16.7445
| 20> H 	 -117.227 	 21.7243 	 -16.5552
| 21> H 	 -116.582 	 22.466 	 -17.8049
| 22> H 	 -115.661 	 22.4699 	 -16.2299
| 23> S 	 -123.113 	 22.9375 	 -12.3392
| 24> C 	 -123.93 	 24.2603 	 -11.5441
| 25> C 	 -123.549 	 25.4902 	 -12.0989
| 26> C 	 -122.631 	 25.3295 	 -13.158
| 27> C 	 -122.265 	 24.0059 	 -13.4341
| 28> H 	 -124.028 	 26.3757 	 -11.6659
| 29> C 	 -122.216 	 26.5909 	 -14.022
| 30> H 	 -121.175 	 26.5637 	 -14.3149
| 31> H 	 -122.078 	 27.4583 	 -13.3688
| 32> C 	 -123.239 	 26.9522 	 -15.0745
| 33> H 	 -122.876 	 27.9598 	 -15.3582
| 34> H 	 -124.288 	 26.9155 	 -14.6541
| 35> C 	 -123.175 	 26.0773 	 -16.3624
| 36> H 	 -123.257 	 25.0522 	 -15.9179
| 37> H 	 -122.165 	 26.236 	 -16.8595
| 38> H 	 -124.061 	 26.2156 	 -17.0155
| 39> H 	 -120.499 	 21.8598 	 -17.5148
| 40> H 	 -124.518 	 24.2127 	 -10.6995
| 41> *
| 42>
| 43>                          ****END OF INPUT****

CARTESIAN COORDINATES (ANGSTROEM)
---------------------------------
  S    -121.866000   21.947800  -15.445200
  C    -120.516000   22.266800  -16.542400
  C    -119.728000   23.342700  -16.142300
  C    -120.223000   23.840500  -14.909100
  C    -121.431000   23.356300  -14.443000
  H    -119.865000   24.705000  -14.319100
  C    -118.699000   24.098900  -16.976500
  H    -118.988000   25.055900  -16.915300
  H    -118.633000   23.876600  -18.050800
  C    -117.357000   23.941600  -16.320400
  H    -116.680000   24.691900  -16.772800
  H    -117.363000   24.031000  -15.238500
  C    -116.688000   22.624300  -16.744500
  H    -117.227000   21.724300  -16.555200
  H    -116.582000   22.466000  -17.804900
  H    -115.661000   22.469900  -16.229900
  S    -123.113000   22.937500  -12.339200
  C    -123.930000   24.260300  -11.544100
  C    -123.549000   25.490200  -12.098900
  C    -122.631000   25.329500  -13.158000
  C    -122.265000   24.005900  -13.434100
  H    -124.028000   26.375700  -11.665900
  C    -122.216000   26.590900  -14.022000
  H    -121.175000   26.563700  -14.314900
  H    -122.078000   27.458300  -13.368800
  C    -123.239000   26.952200  -15.074500
  H    -122.876000   27.959800  -15.358200
  H    -124.288000   26.915500  -14.654100
  C    -123.175000   26.077300  -16.362400
  H    -123.257000   25.052200  -15.917900
  H    -122.165000   26.236000  -16.859500
  H    -124.061000   26.215600  -17.015500
  H    -120.499000   21.859800  -17.514800
  H    -124.518000   24.212700  -10.699500

 Total Charge           Charge          ....    0
 Multiplicity           Mult            ....    1
 Number of Electrons    NEL             ....  134
 Basis Dimension        Dim             ....  322

ORBITAL ENERGIES
----------------

  NO   OCC          E(Eh)            E(eV)
   0   2.0000     -88.967594     -2420.9313
   1   2.0000     -88.967281     -2420.9228
   2   2.0000     -10.333948      -281.2010
   3   2.0000     -10.333685      -281.1939
   4   2.0000     -10.315863      -280.7089
   5   2.0000     -10.314564      -280.6735
   6   2.0000     -10.311648      -280.5942
   7   2.0000     -10.306369      -280.4506
   8   2.0000     -10.298616      -280.2396
   9   2.0000     -10.295601      -280.1575
  10   2.0000     -10.294052      -280.1154
  11   2.0000     -10.290512      -280.0191
  12   2.0000     -10.288956      -279.9767
  13   2.0000     -10.288421      -279.9622
  14   2.0000     -10.280926      -279.7582
  15   2.0000     -10.275892      -279.6212
  16   2.0000      -8.082392      -219.9331
  17   2.0000      -8.081039      -219.8963
  18   2.0000      -6.040772      -164.3778
  19   2.0000      -6.039630      -164.3467
  20   2.0000      -6.036742      -164.2681
  21   2.0000      -6.035751      -164.2411
  22   2.0000      -6.033435      -164.1781
  23   2.0000      -6.031685      -164.1305
  24   2.0000      -1.005590       -27.3635
  25   2.0000      -0.983836       -26.7715
  26   2.0000      -0.920536       -25.0491
  27   2.0000      -0.905300       -24.6345
  28   2.0000      -0.870669       -23.6921
  29   2.0000      -0.846663       -23.0389
  30   2.0000      -0.841049       -22.8861
  31   2.0000      -0.812771       -22.1166
  32   2.0000      -0.785919       -21.3859
  33   2.0000      -0.776575       -21.1317
  34   2.0000      -0.709234       -19.2992
  35   2.0000      -0.698582       -19.0094
  36   2.0000      -0.685725       -18.6595
  37   2.0000      -0.660772       -17.9805
  38   2.0000      -0.647821       -17.6281
  39   2.0000      -0.622855       -16.9488
  40   2.0000      -0.602309       -16.3897
  41   2.0000      -0.576824       -15.6962
  42   2.0000      -0.558291       -15.1919
  43   2.0000      -0.545302       -14.8384
  44   2.0000      -0.539175       -14.6717
  45   2.0000      -0.533985       -14.5305
  46   2.0000      -0.522509       -14.2182
  47   2.0000      -0.509805       -13.8725
  48   2.0000      -0.504816       -13.7368
  49   2.0000      -0.498512       -13.5652
  50   2.0000      -0.483510       -13.1570
  51   2.0000      -0.479676       -13.0527
  52   2.0000      -0.472554       -12.8588
  53   2.0000      -0.461046       -12.5457
  54   2.0000      -0.458963       -12.4890
  55   2.0000      -0.446018       -12.1368
  56   2.0000      -0.442463       -12.0400
  57   2.0000      -0.437605       -11.9078
  58   2.0000      -0.434501       -11.8234
  59   2.0000      -0.428881       -11.6704
  60   2.0000      -0.415943       -11.3184
  61   2.0000      -0.408716       -11.1217
  62   2.0000      -0.396254       -10.7826
  63   2.0000      -0.352126        -9.5818
  64   2.0000      -0.336307        -9.1514
  65   2.0000      -0.330981        -9.0065
  66   2.0000      -0.288263        -7.8440
  67   0.0000       0.022730         0.6185
  68   0.0000       0.066220         1.8019
  69   0.0000       0.108526         2.9532
  70   0.0000       0.111879         3.0444
  71   0.0000       0.134540         3.6610

MULLIKEN ATOMIC CHARGES
-----------------------
   0 S :    0.102691
   1 C :   -0.110245
   2 C :   -0.086673
   3 C :    0.002010
   4 C :   -0.126554
   5 H :    0.022327
   6 C :    0.146762
   7 H :   -0.004180
   8 H :    0.027619
   9 C :   -0.075447
  10 H :    0.031833
  11 H :    0.042831
  12 C :   -0.071441
  13 H :    0.016016
  14 H :    0.014287
  15 H :    0.045440
  16 S :    0.103255
  17 C :   -0.064722
  18 C :   -0.054495
  19 C :   -0.038821
  20 C :   -0.167587
  21 H :    0.032168
  22 C :    0.066981
  23 H :    0.002099
  24 H :    0.014302
  25 C :   -0.076013
  26 H :    0.027503
  27 H :    0.045802
  28 C :   -0.068744
  29 H :    0.042098
  30 H :    0.042998
  31 H :    0.046218
  32 H :    0.039919
  33 H :    0.029761
Sum of atomic charges:   -0.0000000

LOEWDIN ATOMIC CHARGES
----------------------
   0 S :    0.379562
   1 C :   -0.182696
   2 C :   -0.054023
   3 C :   -0.065782
   4 C :   -0.188701
   5 H :    0.032454
   6 C :   -0.015092
   7 H :    0.015246
   8 H :    0.036264
   9 C :   -0.036568
  10 H :    0.028096
  11 H :    0.027154
  12 C :   -0.076853
  13 H :    0.017724
  14 H :    0.020112
  15 H :    0.035845
  16 S :    0.414341
  17 C :   -0.174103
  18 C :   -0.072264
  19 C :   -0.057531
  20 C :   -0.200129
  21 H :    0.039099
  22 C :   -0.036776
  23 H :    0.023147
  24 H :    0.032066
  25 C :   -0.044649
  26 H :    0.023702
  27 H :    0.033083
  28 C :   -0.075656
  29 H :    0.030761
  30 H :    0.030770
  31 H :    0.028147
  32 H :    0.019212
  33 H :    0.014037

  Mayer bond orders larger than 0.100000
B(  0-S ,  1-C ) :   1.1343 B(  0-S ,  4-C ) :   1.1232 B(  1-C ,  2-C ) :   1.6185
B(  1-C , 32-H ) :   0.9700 B(  2-C ,  3-C ) :   1.2196 B(  2-C ,  6-C ) :   1.0111
B(  3-C ,  4-C ) :   1.6087 B(  3-C ,  5-H ) :   0.9826 B(  4-C , 20-C ) :   1.0584
B(  6-C ,  7-H ) :   0.9297 B(  6-C ,  8-H ) :   0.9469 B(  6-C ,  9-C ) :   1.0724
B(  9-C , 10-H ) :   0.9522 B(  9-C , 11-H ) :   0.9596 B(  9-C , 12-C ) :   1.0690
B( 12-C , 13-H ) :   0.9741 B( 12-C , 14-H ) :   0.9718 B( 12-C , 15-H ) :   0.9746
B( 16-S , 17-C ) :   1.1703 B( 16-S , 20-C ) :   1.1454 B( 17-C , 18-C ) :   1.5889
B( 17-C , 20-C ) :   0.1076 B( 17-C , 33-H ) :   0.9759 B( 18-C , 19-C ) :   1.2640
B( 18-C , 21-H ) :   0.9905 B( 19-C , 20-C ) :   1.5678 B( 19-C , 22-C ) :   1.0220
B( 22-C , 23-H ) :   0.9356 B( 22-C , 24-H ) :   0.9333 B( 22-C , 25-C ) :   1.0650
B( 25-C , 26-H ) :   0.9536 B( 25-C , 27-H ) :   0.9545 B( 25-C , 28-C ) :   1.0737
B( 28-C , 29-H ) :   0.9747 B( 28-C , 30-H ) :   0.9737 B( 28-C , 31-H ) :   0.9739

Dispersion correction           -0.015697482
FINAL SINGLE POINT ENERGY     -1339.854273785915

DIPOLE MOMENT
-------------
                                X             Y             Z
Electronic contribution:    -14.68184     -14.87966      14.47660
Nuclear contribution   :     14.84641      15.62838     -14.69250
                        -----------------------------------------
Total Dipole Moment    :      0.16457       0.74871      -0.21589
                        -----------------------------------------
Magnitude (a.u.)       :      0.79641
Magnitude (Debye)      :      2.02431

Rotational constants in cm-1:     0.021374     0.008609     0.007425
Rotational constants in MHz :   640.765118   258.089259   222.602482

                             ****ORCA TERMINATED NORMALLY****
TOTAL RUN TIME: 0 days 0 hours 0 minutes 22 seconds 573 msec
