                         Program Version 4.2.1 -  RELEASE  -
|  1> ! wB97X-D3 SP def2-SVP
|  2> %pal
|  3> nprocs 24
|  4> end
|  5>
|  6> * xyz 0 1
|  7> S 	 -43.0453 	 18.5843 	 -92.1795
|  8> C 	 -41.3426 	 18.939 	 -92.2517
|  9> C 	 -40.7645 	 18.3319 	 -93.3311
| 10> C 	 -41.6333 	 17.4713 	 -94.041
| 11> C 	 -42.9499 	 17.6527 	 -93.6778
| 12> H 	 -41.2189 	 16.8833 	 -94.8745
| 13> C 	 -39.2555 	 18.3019 	 -93.4848
| 14> H 	 -39.096 	 17.3689 	 -94.0398
| 15> H 	 -38.8028 	 18.1292 	 -92.5516
| 16> C 	 -38.6262 	 19.4122 	 -94.2968
| 17> H 	 -38.9188 	 20.4321 	 -94.0084
| 18> H 	 -37.6018 	 19.4379 	 -94.0087
| 19> C 	 -38.8303 	 19.1435 	 -95.8054
| 20> H 	 -38.6217 	 19.951 	 -96.5113
| 21> H 	 -38.0385 	 18.458 	 -96.1424
| 22> H 	 -39.8031 	 18.6985 	 -95.949
| 23> S 	 -45.3057 	 16.3126 	 -93.22
| 24> C 	 -46.4084 	 16.0901 	 -94.5123
| 25> C 	 -45.9111 	 16.4697 	 -95.7454
| 26> C 	 -44.6221 	 17.0918 	 -95.5986
| 27> C 	 -44.1162 	 17.105 	 -94.2941
| 28> H 	 -46.5582 	 16.2683 	 -96.5672
| 29> C 	 -43.8883 	 17.7655 	 -96.7993
| 30> H 	 -43.1708 	 18.4401 	 -96.4816
| 31> H 	 -44.5908 	 18.539 	 -97.138
| 32> C 	 -43.3376 	 16.9524 	 -97.9688
| 33> H 	 -42.9981 	 16.0251 	 -97.5034
| 34> H 	 -42.4852 	 17.6268 	 -98.2912
| 35> C 	 -44.2796 	 16.9015 	 -99.1994
| 36> H 	 -43.9044 	 16.3228 	 -100.04
| 37> H 	 -44.5174 	 17.9202 	 -99.4983
| 38> H 	 -45.3151 	 16.5799 	 -98.9849
| 39> H 	 -40.7022 	 19.618 	 -91.6268
| 40> H 	 -47.3575 	 15.6305 	 -94.4244
| 41> *
| 42>
| 43>                          ****END OF INPUT****

CARTESIAN COORDINATES (ANGSTROEM)
---------------------------------
  S    -43.045300   18.584300  -92.179500
  C    -41.342600   18.939000  -92.251700
  C    -40.764500   18.331900  -93.331100
  C    -41.633300   17.471300  -94.041000
  C    -42.949900   17.652700  -93.677800
  H    -41.218900   16.883300  -94.874500
  C    -39.255500   18.301900  -93.484800
  H    -39.096000   17.368900  -94.039800
  H    -38.802800   18.129200  -92.551600
  C    -38.626200   19.412200  -94.296800
  H    -38.918800   20.432100  -94.008400
  H    -37.601800   19.437900  -94.008700
  C    -38.830300   19.143500  -95.805400
  H    -38.621700   19.951000  -96.511300
  H    -38.038500   18.458000  -96.142400
  H    -39.803100   18.698500  -95.949000
  S    -45.305700   16.312600  -93.220000
  C    -46.408400   16.090100  -94.512300
  C    -45.911100   16.469700  -95.745400
  C    -44.622100   17.091800  -95.598600
  C    -44.116200   17.105000  -94.294100
  H    -46.558200   16.268300  -96.567200
  C    -43.888300   17.765500  -96.799300
  H    -43.170800   18.440100  -96.481600
  H    -44.590800   18.539000  -97.138000
  C    -43.337600   16.952400  -97.968800
  H    -42.998100   16.025100  -97.503400
  H    -42.485200   17.626800  -98.291200
  C    -44.279600   16.901500  -99.199400
  H    -43.904400   16.322800  -100.040000
  H    -44.517400   17.920200  -99.498300
  H    -45.315100   16.579900  -98.984900
  H    -40.702200   19.618000  -91.626800
  H    -47.357500   15.630500  -94.424400

 Total Charge           Charge          ....    0
 Multiplicity           Mult            ....    1
 Number of Electrons    NEL             ....  134
 Basis Dimension        Dim             ....  322

ORBITAL ENERGIES
----------------

  NO   OCC          E(Eh)            E(eV)
   0   2.0000     -88.968663     -2420.9604
   1   2.0000     -88.962779     -2420.8003
   2   2.0000     -10.330465      -281.1062
   3   2.0000     -10.327327      -281.0208
   4   2.0000     -10.313177      -280.6358
   5   2.0000     -10.312747      -280.6241
   6   2.0000     -10.311462      -280.5891
   7   2.0000     -10.295117      -280.1444
   8   2.0000     -10.293755      -280.1073
   9   2.0000     -10.293201      -280.0922
  10   2.0000     -10.291065      -280.0341
  11   2.0000     -10.285512      -279.8830
  12   2.0000     -10.284459      -279.8544
  13   2.0000     -10.283008      -279.8149
  14   2.0000     -10.281806      -279.7822
  15   2.0000     -10.279390      -279.7164
  16   2.0000      -8.083105      -219.9525
  17   2.0000      -8.077911      -219.8111
  18   2.0000      -6.041674      -164.4023
  19   2.0000      -6.037678      -164.2936
  20   2.0000      -6.036319      -164.2566
  21   2.0000      -6.033765      -164.1871
  22   2.0000      -6.032334      -164.1481
  23   2.0000      -6.028783      -164.0515
  24   2.0000      -1.008003       -27.4292
  25   2.0000      -0.984925       -26.8012
  26   2.0000      -0.916140       -24.9294
  27   2.0000      -0.905856       -24.6496
  28   2.0000      -0.872519       -23.7425
  29   2.0000      -0.850238       -23.1361
  30   2.0000      -0.842927       -22.9372
  31   2.0000      -0.816211       -22.2102
  32   2.0000      -0.786690       -21.4069
  33   2.0000      -0.773351       -21.0440
  34   2.0000      -0.711656       -19.3652
  35   2.0000      -0.709355       -19.3025
  36   2.0000      -0.695567       -18.9274
  37   2.0000      -0.659320       -17.9410
  38   2.0000      -0.630619       -17.1600
  39   2.0000      -0.623716       -16.9722
  40   2.0000      -0.599352       -16.3092
  41   2.0000      -0.573783       -15.6134
  42   2.0000      -0.564587       -15.3632
  43   2.0000      -0.546158       -14.8617
  44   2.0000      -0.538316       -14.6483
  45   2.0000      -0.534555       -14.5460
  46   2.0000      -0.511999       -13.9322
  47   2.0000      -0.507118       -13.7994
  48   2.0000      -0.505658       -13.7597
  49   2.0000      -0.501543       -13.6477
  50   2.0000      -0.490750       -13.3540
  51   2.0000      -0.481225       -13.0948
  52   2.0000      -0.471021       -12.8171
  53   2.0000      -0.464797       -12.6478
  54   2.0000      -0.461327       -12.5533
  55   2.0000      -0.448650       -12.2084
  56   2.0000      -0.443700       -12.0737
  57   2.0000      -0.436930       -11.8895
  58   2.0000      -0.434907       -11.8344
  59   2.0000      -0.431209       -11.7338
  60   2.0000      -0.414029       -11.2663
  61   2.0000      -0.409292       -11.1374
  62   2.0000      -0.407515       -11.0890
  63   2.0000      -0.348287        -9.4774
  64   2.0000      -0.334131        -9.0922
  65   2.0000      -0.330451        -8.9920
  66   2.0000      -0.289156        -7.8683
  67   0.0000       0.025733         0.7002
  68   0.0000       0.070349         1.9143
  69   0.0000       0.108788         2.9603
  70   0.0000       0.122850         3.3429
  71   0.0000       0.128374         3.4932

MULLIKEN ATOMIC CHARGES
-----------------------
   0 S :    0.123184
   1 C :   -0.117378
   2 C :   -0.117312
   3 C :    0.040427
   4 C :   -0.144937
   5 H :    0.026361
   6 C :    0.036143
   7 H :    0.012512
   8 H :    0.020317
   9 C :   -0.014921
  10 H :    0.022025
  11 H :    0.012963
  12 C :   -0.059313
  13 H :    0.032752
  14 H :    0.027877
  15 H :    0.032364
  16 S :    0.099643
  17 C :   -0.080834
  18 C :   -0.033821
  19 C :   -0.015789
  20 C :   -0.156741
  21 H :    0.013839
  22 C :    0.055113
  23 H :   -0.002847
  24 H :    0.015723
  25 C :   -0.054019
  26 H :    0.041407
  27 H :    0.039737
  28 C :   -0.044970
  29 H :    0.045142
  30 H :    0.018975
  31 H :    0.022614
  32 H :    0.060283
  33 H :    0.043482
Sum of atomic charges:    0.0000000

LOEWDIN ATOMIC CHARGES
----------------------
   0 S :    0.408739
   1 C :   -0.206203
   2 C :   -0.074304
   3 C :   -0.061747
   4 C :   -0.189841
   5 H :    0.035694
   6 C :   -0.027039
   7 H :    0.032189
   8 H :    0.024447
   9 C :   -0.039069
  10 H :    0.022439
  11 H :    0.019810
  12 C :   -0.067889
  13 H :    0.027043
  14 H :    0.029183
  15 H :    0.021884
  16 S :    0.399486
  17 C :   -0.181761
  18 C :   -0.074183
  19 C :   -0.044405
  20 C :   -0.193524
  21 H :    0.030932
  22 C :   -0.038662
  23 H :    0.019607
  24 H :    0.034208
  25 C :   -0.040844
  26 H :    0.026434
  27 H :    0.037666
  28 C :   -0.070883
  29 H :    0.026741
  30 H :    0.025844
  31 H :    0.023349
  32 H :    0.042434
  33 H :    0.022229

  Mayer bond orders larger than 0.100000
B(  0-S ,  1-C ) :   1.1313 B(  0-S ,  4-C ) :   1.1466 B(  1-C ,  2-C ) :   1.6263
B(  1-C , 32-H ) :   0.9574 B(  2-C ,  3-C ) :   1.2621 B(  2-C ,  6-C ) :   1.0080
B(  3-C ,  4-C ) :   1.5435 B(  3-C ,  5-H ) :   0.9832 B(  4-C , 20-C ) :   1.0751
B(  6-C ,  7-H ) :   0.9447 B(  6-C ,  8-H ) :   0.9484 B(  6-C ,  9-C ) :   1.0618
B(  9-C , 10-H ) :   0.9600 B(  9-C , 11-H ) :   0.9545 B(  9-C , 12-C ) :   1.0610
B( 12-C , 13-H ) :   0.9743 B( 12-C , 14-H ) :   0.9728 B( 12-C , 15-H ) :   0.9816
B( 16-S , 17-C ) :   1.1683 B( 16-S , 20-C ) :   1.1218 B( 17-C , 18-C ) :   1.6215
B( 17-C , 33-H ) :   0.9664 B( 18-C , 19-C ) :   1.2110 B( 18-C , 21-H ) :   1.0008
B( 19-C , 20-C ) :   1.5977 B( 19-C , 22-C ) :   1.0407 B( 22-C , 23-H ) :   0.9331
B( 22-C , 24-H ) :   0.9295 B( 22-C , 25-C ) :   1.0451 B( 25-C , 26-H ) :   0.9612
B( 25-C , 27-H ) :   0.9583 B( 25-C , 28-C ) :   1.0710 B( 28-C , 29-H ) :   0.9750
B( 28-C , 30-H ) :   0.9701 B( 28-C , 31-H ) :   0.9770

Dispersion correction           -0.014357422
FINAL SINGLE POINT ENERGY     -1339.860984366805

DIPOLE MOMENT
-------------
                                X             Y             Z
Electronic contribution:    -17.54375      -4.39490      24.93794
Nuclear contribution   :     17.93122       4.48334     -25.45910
                        -----------------------------------------
Total Dipole Moment    :      0.38747       0.08844      -0.52116
                        -----------------------------------------
Magnitude (a.u.)       :      0.65541
Magnitude (Debye)      :      1.66592

Rotational constants in cm-1:     0.017108     0.009650     0.006473
Rotational constants in MHz :   512.899187   289.305316   194.053815

                             ****ORCA TERMINATED NORMALLY****
TOTAL RUN TIME: 0 days 0 hours 0 minutes 21 seconds 823 msec
