                         Program Version 4.2.1 -  RELEASE  -
|  1> ! wB97X-D3 SP def2-SVP
|  2> %pal
|  3> nprocs 24
|  4> end
|  5>
|  6> * xyz 0 1
|  7> S 	 -45.3982 	 9.44797 	 29.1038
|  8> C 	 -45.5892 	 8.17358 	 27.8965
|  9> C 	 -45.6862 	 8.75908 	 26.6317
| 10> C 	 -45.6968 	 10.1954 	 26.7177
| 11> C 	 -45.6167 	 10.7501 	 27.9668
| 12> H 	 -45.7572 	 10.7907 	 25.8725
| 13> C 	 -45.6292 	 7.91582 	 25.2955
| 14> H 	 -44.9884 	 7.01107 	 25.54
| 15> H 	 -45.148 	 8.4559 	 24.4494
| 16> C 	 -47.0841 	 7.53569 	 24.8012
| 17> H 	 -47.1277 	 6.82472 	 24.0406
| 18> H 	 -47.5691 	 7.10872 	 25.664
| 19> C 	 -47.8372 	 8.80346 	 24.4215
| 20> H 	 -48.8586 	 8.53726 	 24.1448
| 21> H 	 -47.963 	 9.55569 	 25.1926
| 22> H 	 -47.3233 	 9.25082 	 23.5506
| 23> S 	 -44.5828 	 12.4239 	 29.691
| 24> C 	 -44.9124 	 14.1226 	 29.4685
| 25> C 	 -45.7633 	 14.4479 	 28.4591
| 26> C 	 -46.1013 	 13.2976 	 27.6921
| 27> C 	 -45.5644 	 12.1283 	 28.3058
| 28> H 	 -46.01 	 15.4864 	 28.2488
| 29> C 	 -47.1995 	 13.2934 	 26.6277
| 30> H 	 -48.0861 	 13.7475 	 27.0742
| 31> H 	 -47.3803 	 12.3008 	 26.1797
| 32> C 	 -46.7786 	 14.237 	 25.4136
| 33> H 	 -46.7459 	 15.2214 	 25.9031
| 34> H 	 -47.6261 	 14.2806 	 24.7171
| 35> C 	 -45.3717 	 13.7834 	 24.716
| 36> H 	 -44.542 	 13.7258 	 25.5476
| 37> H 	 -44.8817 	 14.5223 	 24.0001
| 38> H 	 -45.5151 	 12.8426 	 24.2752
| 39> H 	 -45.4811 	 7.08329 	 28.075
| 40> H 	 -44.6733 	 14.7755 	 30.3272
| 41> *
| 42>
| 43>                          ****END OF INPUT****

CARTESIAN COORDINATES (ANGSTROEM)
---------------------------------
  S    -45.398200    9.447970   29.103800
  C    -45.589200    8.173580   27.896500
  C    -45.686200    8.759080   26.631700
  C    -45.696800   10.195400   26.717700
  C    -45.616700   10.750100   27.966800
  H    -45.757200   10.790700   25.872500
  C    -45.629200    7.915820   25.295500
  H    -44.988400    7.011070   25.540000
  H    -45.148000    8.455900   24.449400
  C    -47.084100    7.535690   24.801200
  H    -47.127700    6.824720   24.040600
  H    -47.569100    7.108720   25.664000
  C    -47.837200    8.803460   24.421500
  H    -48.858600    8.537260   24.144800
  H    -47.963000    9.555690   25.192600
  H    -47.323300    9.250820   23.550600
  S    -44.582800   12.423900   29.691000
  C    -44.912400   14.122600   29.468500
  C    -45.763300   14.447900   28.459100
  C    -46.101300   13.297600   27.692100
  C    -45.564400   12.128300   28.305800
  H    -46.010000   15.486400   28.248800
  C    -47.199500   13.293400   26.627700
  H    -48.086100   13.747500   27.074200
  H    -47.380300   12.300800   26.179700
  C    -46.778600   14.237000   25.413600
  H    -46.745900   15.221400   25.903100
  H    -47.626100   14.280600   24.717100
  C    -45.371700   13.783400   24.716000
  H    -44.542000   13.725800   25.547600
  H    -44.881700   14.522300   24.000100
  H    -45.515100   12.842600   24.275200
  H    -45.481100    7.083290   28.075000
  H    -44.673300   14.775500   30.327200

 Total Charge           Charge          ....    0
 Multiplicity           Mult            ....    1
 Number of Electrons    NEL             ....  134
 Basis Dimension        Dim             ....  322

ORBITAL ENERGIES
----------------

  NO   OCC          E(Eh)            E(eV)
   0   2.0000     -88.967629     -2420.9323
   1   2.0000     -88.964716     -2420.8530
   2   2.0000     -10.326534      -280.9993
   3   2.0000     -10.324945      -280.9560
   4   2.0000     -10.319745      -280.8146
   5   2.0000     -10.316401      -280.7235
   6   2.0000     -10.310126      -280.5528
   7   2.0000     -10.307054      -280.4692
   8   2.0000     -10.306387      -280.4511
   9   2.0000     -10.300406      -280.2883
  10   2.0000     -10.299628      -280.2671
  11   2.0000     -10.297942      -280.2212
  12   2.0000     -10.294622      -280.1309
  13   2.0000     -10.285446      -279.8812
  14   2.0000     -10.282418      -279.7988
  15   2.0000     -10.276665      -279.6423
  16   2.0000      -8.083512      -219.9635
  17   2.0000      -8.079329      -219.8497
  18   2.0000      -6.041749      -164.4043
  19   2.0000      -6.038084      -164.3046
  20   2.0000      -6.038073      -164.3043
  21   2.0000      -6.034262      -164.2006
  22   2.0000      -6.033765      -164.1871
  23   2.0000      -6.029927      -164.0826
  24   2.0000      -1.013119       -27.5684
  25   2.0000      -0.984026       -26.7767
  26   2.0000      -0.906981       -24.6802
  27   2.0000      -0.900756       -24.5108
  28   2.0000      -0.874910       -23.8075
  29   2.0000      -0.844663       -22.9845
  30   2.0000      -0.837696       -22.7949
  31   2.0000      -0.811498       -22.0820
  32   2.0000      -0.779934       -21.2231
  33   2.0000      -0.767997       -20.8983
  34   2.0000      -0.708903       -19.2902
  35   2.0000      -0.700838       -19.0708
  36   2.0000      -0.691550       -18.8180
  37   2.0000      -0.662523       -18.0282
  38   2.0000      -0.636899       -17.3309
  39   2.0000      -0.620834       -16.8937
  40   2.0000      -0.595829       -16.2133
  41   2.0000      -0.573439       -15.6041
  42   2.0000      -0.554691       -15.0939
  43   2.0000      -0.546193       -14.8627
  44   2.0000      -0.539386       -14.6775
  45   2.0000      -0.535030       -14.5589
  46   2.0000      -0.512607       -13.9487
  47   2.0000      -0.504748       -13.7349
  48   2.0000      -0.502748       -13.6805
  49   2.0000      -0.495316       -13.4782
  50   2.0000      -0.484879       -13.1942
  51   2.0000      -0.478793       -13.0286
  52   2.0000      -0.472872       -12.8675
  53   2.0000      -0.464820       -12.6484
  54   2.0000      -0.457038       -12.4366
  55   2.0000      -0.454757       -12.3746
  56   2.0000      -0.438232       -11.9249
  57   2.0000      -0.435263       -11.8441
  58   2.0000      -0.430146       -11.7049
  59   2.0000      -0.427189       -11.6244
  60   2.0000      -0.423202       -11.5159
  61   2.0000      -0.418634       -11.3916
  62   2.0000      -0.410659       -11.1746
  63   2.0000      -0.360159        -9.8004
  64   2.0000      -0.337644        -9.1878
  65   2.0000      -0.327027        -8.8989
  66   2.0000      -0.280997        -7.6463
  67   0.0000       0.019616         0.5338
  68   0.0000       0.075204         2.0464
  69   0.0000       0.102409         2.7867
  70   0.0000       0.114736         3.1221
  71   0.0000       0.130455         3.5499

MULLIKEN ATOMIC CHARGES
-----------------------
   0 S :    0.090675
   1 C :   -0.133330
   2 C :   -0.091766
   3 C :    0.033108
   4 C :   -0.095235
   5 H :   -0.046915
   6 C :    0.010224
   7 H :    0.042578
   8 H :    0.037384
   9 C :   -0.016889
  10 H :    0.021793
  11 H :    0.018750
  12 C :   -0.074546
  13 H :    0.030485
  14 H :    0.044921
  15 H :    0.026581
  16 S :    0.102620
  17 C :   -0.094250
  18 C :   -0.032409
  19 C :   -0.046508
  20 C :   -0.139074
  21 H :    0.031113
  22 C :    0.044083
  23 H :    0.047226
  24 H :    0.034152
  25 C :   -0.099570
  26 H :    0.027524
  27 H :    0.037293
  28 C :   -0.104884
  29 H :    0.062441
  30 H :    0.054476
  31 H :    0.045139
  32 H :    0.066406
  33 H :    0.066399
Sum of atomic charges:   -0.0000000

LOEWDIN ATOMIC CHARGES
----------------------
   0 S :    0.392556
   1 C :   -0.200669
   2 C :   -0.059331
   3 C :   -0.066059
   4 C :   -0.196700
   5 H :    0.011585
   6 C :   -0.030858
   7 H :    0.034819
   8 H :    0.029381
   9 C :   -0.032921
  10 H :    0.014727
  11 H :    0.021751
  12 C :   -0.066266
  13 H :    0.026552
  14 H :    0.024454
  15 H :    0.023910
  16 S :    0.419883
  17 C :   -0.186139
  18 C :   -0.067897
  19 C :   -0.054858
  20 C :   -0.196591
  21 H :    0.037598
  22 C :   -0.025986
  23 H :    0.036609
  24 H :    0.028334
  25 C :   -0.039338
  26 H :    0.018330
  27 H :    0.021818
  28 C :   -0.078587
  29 H :    0.042551
  30 H :    0.035612
  31 H :    0.013738
  32 H :    0.038680
  33 H :    0.029314

  Mayer bond orders larger than 0.100000
B(  0-S ,  1-C ) :   1.1349 B(  0-S ,  4-C ) :   1.1341 B(  1-C ,  2-C ) :   1.6059
B(  1-C , 32-H ) :   0.9633 B(  2-C ,  3-C ) :   1.2569 B(  2-C ,  6-C ) :   1.0027
B(  3-C ,  4-C ) :   1.5466 B(  3-C ,  5-H ) :   1.0086 B(  4-C , 20-C ) :   1.0997
B(  6-C ,  7-H ) :   0.9501 B(  6-C ,  8-H ) :   0.9554 B(  6-C ,  9-C ) :   1.0529
B(  9-C , 10-H ) :   0.9606 B(  9-C , 11-H ) :   0.9545 B(  9-C , 12-C ) :   1.0794
B( 12-C , 13-H ) :   0.9702 B( 12-C , 14-H ) :   0.9729 B( 12-C , 15-H ) :   0.9758
B( 16-S , 17-C ) :   1.1512 B( 16-S , 20-C ) :   1.1577 B( 17-C , 18-C ) :   1.6299
B( 17-C , 33-H ) :   0.9589 B( 18-C , 19-C ) :   1.2275 B( 18-C , 21-H ) :   0.9858
B( 19-C , 20-C ) :   1.5498 B( 19-C , 22-C ) :   1.0375 B( 22-C , 23-H ) :   0.9446
B( 22-C , 24-H ) :   0.9450 B( 22-C , 25-C ) :   1.0494 B( 25-C , 26-H ) :   0.9640
B( 25-C , 27-H ) :   0.9631 B( 25-C , 28-C ) :   1.0474 B( 28-C , 29-H ) :   0.9716
B( 28-C , 30-H ) :   0.9766 B( 28-C , 31-H ) :   0.9752

Dispersion correction           -0.015368541
FINAL SINGLE POINT ENERGY     -1339.866602459625

DIPOLE MOMENT
-------------
                                X             Y             Z
Electronic contribution:     10.16811      -0.42592      27.26664
Nuclear contribution   :    -10.42033       0.56519     -27.76665
                        -----------------------------------------
Total Dipole Moment    :     -0.25222       0.13927      -0.50001
                        -----------------------------------------
Magnitude (a.u.)       :      0.57708
Magnitude (Debye)      :      1.46683

Rotational constants in cm-1:     0.018529     0.010199     0.007091
Rotational constants in MHz :   555.489015   305.765318   212.582554

                             ****ORCA TERMINATED NORMALLY****
TOTAL RUN TIME: 0 days 0 hours 0 minutes 22 seconds 747 msec
