                         Program Version 4.2.1 -  RELEASE  -
|  1> ! wB97X-D3 SP def2-SVP
|  2> %pal
|  3> nprocs 24
|  4> end
|  5>
|  6> * xyz 0 1
|  7> S 	 -18.9433 	 -34.6029 	 -96.3934
|  8> C 	 -17.5911 	 -35.6405 	 -96.161
|  9> C 	 -16.4011 	 -34.9882 	 -96.2692
| 10> C 	 -16.5743 	 -33.6298 	 -96.6403
| 11> C 	 -17.9131 	 -33.2235 	 -96.588
| 12> H 	 -15.7618 	 -32.9873 	 -96.9685
| 13> C 	 -14.9862 	 -35.5324 	 -96.2138
| 14> H 	 -14.6601 	 -35.506 	 -97.1795
| 15> H 	 -15.1451 	 -36.5927 	 -95.9208
| 16> C 	 -14.1039 	 -34.744 	 -95.2408
| 17> H 	 -13.9174 	 -33.8002 	 -95.5674
| 18> H 	 -14.464 	 -34.7249 	 -94.2246
| 19> C 	 -12.7007 	 -35.4394 	 -95.0152
| 20> H 	 -12.089 	 -35.254 	 -95.9248
| 21> H 	 -12.0816 	 -34.8594 	 -94.3001
| 22> H 	 -12.8259 	 -36.4751 	 -94.6869
| 23> S 	 -19.6058 	 -31.8122 	 -98.2284
| 24> C 	 -19.5878 	 -30.0749 	 -98.3213
| 25> C 	 -18.8981 	 -29.6544 	 -97.2307
| 26> C 	 -18.0033 	 -30.62 	 -96.6476
| 27> C 	 -18.4258 	 -31.9321 	 -96.9829
| 28> H 	 -19.046 	 -28.6221 	 -96.8525
| 29> C 	 -16.9577 	 -30.2307 	 -95.7337
| 30> H 	 -16.4341 	 -31.1642 	 -95.4351
| 31> H 	 -17.4695 	 -29.836 	 -94.8219
| 32> C 	 -15.9775 	 -29.1522 	 -96.1747
| 33> H 	 -16.6023 	 -28.3198 	 -96.5248
| 34> H 	 -15.4814 	 -29.5149 	 -97.1313
| 35> C 	 -14.9732 	 -28.7706 	 -95.0871
| 36> H 	 -15.4435 	 -28.3783 	 -94.1627
| 37> H 	 -14.2636 	 -27.9764 	 -95.401
| 38> H 	 -14.3653 	 -29.6192 	 -94.7906
| 39> H 	 -17.7724 	 -36.6819 	 -95.9552
| 40> H 	 -20.3906 	 -29.4734 	 -98.8315
| 41> *
| 42>
| 43>                          ****END OF INPUT****

CARTESIAN COORDINATES (ANGSTROEM)
---------------------------------
  S    -18.943300  -34.602900  -96.393400
  C    -17.591100  -35.640500  -96.161000
  C    -16.401100  -34.988200  -96.269200
  C    -16.574300  -33.629800  -96.640300
  C    -17.913100  -33.223500  -96.588000
  H    -15.761800  -32.987300  -96.968500
  C    -14.986200  -35.532400  -96.213800
  H    -14.660100  -35.506000  -97.179500
  H    -15.145100  -36.592700  -95.920800
  C    -14.103900  -34.744000  -95.240800
  H    -13.917400  -33.800200  -95.567400
  H    -14.464000  -34.724900  -94.224600
  C    -12.700700  -35.439400  -95.015200
  H    -12.089000  -35.254000  -95.924800
  H    -12.081600  -34.859400  -94.300100
  H    -12.825900  -36.475100  -94.686900
  S    -19.605800  -31.812200  -98.228400
  C    -19.587800  -30.074900  -98.321300
  C    -18.898100  -29.654400  -97.230700
  C    -18.003300  -30.620000  -96.647600
  C    -18.425800  -31.932100  -96.982900
  H    -19.046000  -28.622100  -96.852500
  C    -16.957700  -30.230700  -95.733700
  H    -16.434100  -31.164200  -95.435100
  H    -17.469500  -29.836000  -94.821900
  C    -15.977500  -29.152200  -96.174700
  H    -16.602300  -28.319800  -96.524800
  H    -15.481400  -29.514900  -97.131300
  C    -14.973200  -28.770600  -95.087100
  H    -15.443500  -28.378300  -94.162700
  H    -14.263600  -27.976400  -95.401000
  H    -14.365300  -29.619200  -94.790600
  H    -17.772400  -36.681900  -95.955200
  H    -20.390600  -29.473400  -98.831500

 Total Charge           Charge          ....    0
 Multiplicity           Mult            ....    1
 Number of Electrons    NEL             ....  134
 Basis Dimension        Dim             ....  322

ORBITAL ENERGIES
----------------

  NO   OCC          E(Eh)            E(eV)
   0   2.0000     -88.966341     -2420.8972
   1   2.0000     -88.958492     -2420.6836
   2   2.0000     -10.328813      -281.0613
   3   2.0000     -10.326111      -280.9878
   4   2.0000     -10.315146      -280.6894
   5   2.0000     -10.310384      -280.5598
   6   2.0000     -10.300247      -280.2840
   7   2.0000     -10.296417      -280.1798
   8   2.0000     -10.293746      -280.1071
   9   2.0000     -10.293467      -280.0995
  10   2.0000     -10.292075      -280.0616
  11   2.0000     -10.289600      -279.9943
  12   2.0000     -10.286514      -279.9103
  13   2.0000     -10.284825      -279.8643
  14   2.0000     -10.284104      -279.8447
  15   2.0000     -10.283231      -279.8209
  16   2.0000      -8.082061      -219.9241
  17   2.0000      -8.074141      -219.7085
  18   2.0000      -6.040496      -164.3703
  19   2.0000      -6.036446      -164.2600
  20   2.0000      -6.032837      -164.1618
  21   2.0000      -6.032756      -164.1596
  22   2.0000      -6.028439      -164.0422
  23   2.0000      -6.024791      -163.9429
  24   2.0000      -1.013484       -27.5783
  25   2.0000      -0.991834       -26.9892
  26   2.0000      -0.916281       -24.9333
  27   2.0000      -0.913892       -24.8683
  28   2.0000      -0.873829       -23.7781
  29   2.0000      -0.852814       -23.2062
  30   2.0000      -0.846400       -23.0317
  31   2.0000      -0.815082       -22.1795
  32   2.0000      -0.781630       -21.2692
  33   2.0000      -0.770340       -20.9620
  34   2.0000      -0.712703       -19.3936
  35   2.0000      -0.701478       -19.0882
  36   2.0000      -0.696143       -18.9430
  37   2.0000      -0.656680       -17.8692
  38   2.0000      -0.638948       -17.3867
  39   2.0000      -0.623379       -16.9630
  40   2.0000      -0.595415       -16.2021
  41   2.0000      -0.579925       -15.7806
  42   2.0000      -0.564041       -15.3483
  43   2.0000      -0.561714       -15.2850
  44   2.0000      -0.528335       -14.3767
  45   2.0000      -0.525486       -14.2992
  46   2.0000      -0.521676       -14.1955
  47   2.0000      -0.513615       -13.9762
  48   2.0000      -0.510048       -13.8791
  49   2.0000      -0.503501       -13.7010
  50   2.0000      -0.492144       -13.3919
  51   2.0000      -0.483283       -13.1508
  52   2.0000      -0.471905       -12.8412
  53   2.0000      -0.465900       -12.6778
  54   2.0000      -0.458611       -12.4794
  55   2.0000      -0.453435       -12.3386
  56   2.0000      -0.447563       -12.1788
  57   2.0000      -0.439753       -11.9663
  58   2.0000      -0.430174       -11.7056
  59   2.0000      -0.428374       -11.6567
  60   2.0000      -0.418567       -11.3898
  61   2.0000      -0.413183       -11.2433
  62   2.0000      -0.411387       -11.1944
  63   2.0000      -0.352183        -9.5834
  64   2.0000      -0.331295        -9.0150
  65   2.0000      -0.316516        -8.6128
  66   2.0000      -0.289416        -7.8754
  67   0.0000       0.028331         0.7709
  68   0.0000       0.077054         2.0967
  69   0.0000       0.106506         2.8982
  70   0.0000       0.119724         3.2579
  71   0.0000       0.132192         3.5971

MULLIKEN ATOMIC CHARGES
-----------------------
   0 S :    0.113807
   1 C :   -0.140049
   2 C :   -0.078988
   3 C :    0.005394
   4 C :   -0.158805
   5 H :    0.026389
   6 C :    0.127283
   7 H :    0.018709
   8 H :    0.016081
   9 C :   -0.056145
  10 H :    0.007182
  11 H :    0.035731
  12 C :   -0.079339
  13 H :    0.029138
  14 H :    0.031186
  15 H :    0.048225
  16 S :    0.087352
  17 C :   -0.106475
  18 C :   -0.057039
  19 C :   -0.058494
  20 C :   -0.099219
  21 H :    0.040124
  22 C :    0.031292
  23 H :    0.017870
  24 H :    0.035019
  25 C :   -0.087134
  26 H :    0.025724
  27 H :    0.033067
  28 C :   -0.038205
  29 H :    0.032228
  30 H :    0.040501
  31 H :    0.029657
  32 H :    0.044579
  33 H :    0.083354
Sum of atomic charges:    0.0000000

LOEWDIN ATOMIC CHARGES
----------------------
   0 S :    0.427187
   1 C :   -0.204638
   2 C :   -0.064200
   3 C :   -0.058259
   4 C :   -0.199978
   5 H :    0.031614
   6 C :   -0.018035
   7 H :    0.022189
   8 H :    0.033751
   9 C :   -0.026997
  10 H :    0.007927
  11 H :    0.028644
  12 C :   -0.069769
  13 H :    0.025489
  14 H :    0.026776
  15 H :    0.026008
  16 S :    0.412937
  17 C :   -0.207943
  18 C :   -0.071356
  19 C :   -0.062403
  20 C :   -0.207303
  21 H :    0.034912
  22 C :   -0.047815
  23 H :    0.030307
  24 H :    0.039339
  25 C :   -0.045034
  26 H :    0.022294
  27 H :    0.029694
  28 C :   -0.069459
  29 H :    0.028552
  30 H :    0.031451
  31 H :    0.025145
  32 H :    0.024664
  33 H :    0.044309

  Mayer bond orders larger than 0.100000
B(  0-S ,  1-C ) :   1.1439 B(  0-S ,  4-C ) :   1.1666 B(  1-C ,  2-C ) :   1.6054
B(  1-C , 32-H ) :   0.9710 B(  2-C ,  3-C ) :   1.2555 B(  2-C ,  6-C ) :   1.0133
B(  3-C ,  4-C ) :   1.5433 B(  3-C ,  5-H ) :   0.9869 B(  4-C , 20-C ) :   1.0514
B(  6-C ,  7-H ) :   0.9345 B(  6-C ,  8-H ) :   0.9392 B(  6-C ,  9-C ) :   1.0661
B(  9-C , 10-H ) :   0.9536 B(  9-C , 11-H ) :   0.9622 B(  9-C , 12-C ) :   1.0895
B( 12-C , 13-H ) :   0.9750 B( 12-C , 14-H ) :   0.9760 B( 12-C , 15-H ) :   0.9768
B( 16-S , 17-C ) :   1.1439 B( 16-S , 20-C ) :   1.1513 B( 17-C , 18-C ) :   1.6206
B( 17-C , 33-H ) :   0.9565 B( 18-C , 19-C ) :   1.2283 B( 18-C , 21-H ) :   0.9747
B( 19-C , 20-C ) :   1.5533 B( 19-C , 22-C ) :   1.0888 B( 22-C , 23-H ) :   0.9261
B( 22-C , 24-H ) :   0.9216 B( 22-C , 25-C ) :   1.0549 B( 25-C , 26-H ) :   0.9512
B( 25-C , 27-H ) :   0.9526 B( 25-C , 28-C ) :   1.0815 B( 28-C , 29-H ) :   0.9724
B( 28-C , 30-H ) :   0.9740 B( 28-C , 31-H ) :   0.9730

Dispersion correction           -0.013611832
FINAL SINGLE POINT ENERGY     -1339.865992531870

DIPOLE MOMENT
-------------
                                X             Y             Z
Electronic contribution:    -29.58643      -6.32915     -11.82529
Nuclear contribution   :     30.15907       6.52486      12.09135
                        -----------------------------------------
Total Dipole Moment    :      0.57265       0.19570       0.26606
                        -----------------------------------------
Magnitude (a.u.)       :      0.66107
Magnitude (Debye)      :      1.68030

Rotational constants in cm-1:     0.016141     0.009539     0.006328
Rotational constants in MHz :   483.886282   285.964621   189.703387

                             ****ORCA TERMINATED NORMALLY****
TOTAL RUN TIME: 0 days 0 hours 0 minutes 21 seconds 532 msec
