                         Program Version 4.2.1 -  RELEASE  -
|  1> ! wB97X-D3 SP def2-SVP
|  2> %pal
|  3> nprocs 24
|  4> end
|  5>
|  6> * xyz 0 1
|  7> S 	 -111.491 	 53.6892 	 -92.5269
|  8> C 	 -111.088 	 54.5899 	 -93.9784
|  9> C 	 -112.108 	 55.5079 	 -94.2936
| 10> C 	 -113.19 	 55.504 	 -93.3658
| 11> C 	 -112.974 	 54.6045 	 -92.3421
| 12> H 	 -114.139 	 56.0564 	 -93.3698
| 13> C 	 -112.134 	 56.4397 	 -95.4792
| 14> H 	 -113.201 	 56.2231 	 -95.9442
| 15> H 	 -111.499 	 56.0297 	 -96.3245
| 16> C 	 -111.954 	 57.9296 	 -95.1548
| 17> H 	 -112.555 	 58.1837 	 -94.2567
| 18> H 	 -110.968 	 58.086 	 -94.8446
| 19> C 	 -112.416 	 58.889 	 -96.2654
| 20> H 	 -113.458 	 58.7694 	 -96.2947
| 21> H 	 -112.222 	 59.9378 	 -96.0213
| 22> H 	 -111.92 	 58.6618 	 -97.1759
| 23> S 	 -114.639 	 52.8271 	 -90.9942
| 24> C 	 -115.191 	 53.3052 	 -89.3871
| 25> C 	 -114.994 	 54.6641 	 -89.292
| 26> C 	 -114.344 	 55.2965 	 -90.3785
| 27> C 	 -113.866 	 54.3766 	 -91.2698
| 28> H 	 -115.404 	 55.1976 	 -88.4597
| 29> C 	 -114.244 	 56.7565 	 -90.4277
| 30> H 	 -115.072 	 57.1651 	 -89.8234
| 31> H 	 -114.345 	 57.0231 	 -91.4972
| 32> C 	 -112.836 	 57.3144 	 -90.023
| 33> H 	 -112.169 	 56.8337 	 -90.7673
| 34> H 	 -112.51 	 56.8446 	 -89.0105
| 35> C 	 -112.937 	 58.8875 	 -90.1301
| 36> H 	 -112.963 	 59.2599 	 -91.2056
| 37> H 	 -111.985 	 59.393 	 -89.9124
| 38> H 	 -113.785 	 59.2682 	 -89.5687
| 39> H 	 -110.227 	 54.3306 	 -94.5406
| 40> H 	 -115.552 	 52.6726 	 -88.6029
| 41> *
| 42>
| 43>                          ****END OF INPUT****

CARTESIAN COORDINATES (ANGSTROEM)
---------------------------------
  S    -111.491000   53.689200  -92.526900
  C    -111.088000   54.589900  -93.978400
  C    -112.108000   55.507900  -94.293600
  C    -113.190000   55.504000  -93.365800
  C    -112.974000   54.604500  -92.342100
  H    -114.139000   56.056400  -93.369800
  C    -112.134000   56.439700  -95.479200
  H    -113.201000   56.223100  -95.944200
  H    -111.499000   56.029700  -96.324500
  C    -111.954000   57.929600  -95.154800
  H    -112.555000   58.183700  -94.256700
  H    -110.968000   58.086000  -94.844600
  C    -112.416000   58.889000  -96.265400
  H    -113.458000   58.769400  -96.294700
  H    -112.222000   59.937800  -96.021300
  H    -111.920000   58.661800  -97.175900
  S    -114.639000   52.827100  -90.994200
  C    -115.191000   53.305200  -89.387100
  C    -114.994000   54.664100  -89.292000
  C    -114.344000   55.296500  -90.378500
  C    -113.866000   54.376600  -91.269800
  H    -115.404000   55.197600  -88.459700
  C    -114.244000   56.756500  -90.427700
  H    -115.072000   57.165100  -89.823400
  H    -114.345000   57.023100  -91.497200
  C    -112.836000   57.314400  -90.023000
  H    -112.169000   56.833700  -90.767300
  H    -112.510000   56.844600  -89.010500
  C    -112.937000   58.887500  -90.130100
  H    -112.963000   59.259900  -91.205600
  H    -111.985000   59.393000  -89.912400
  H    -113.785000   59.268200  -89.568700
  H    -110.227000   54.330600  -94.540600
  H    -115.552000   52.672600  -88.602900

 Total Charge           Charge          ....    0
 Multiplicity           Mult            ....    1
 Number of Electrons    NEL             ....  134
 Basis Dimension        Dim             ....  322

ORBITAL ENERGIES
----------------

  NO   OCC          E(Eh)            E(eV)
   0   2.0000     -88.967896     -2420.9395
   1   2.0000     -88.960745     -2420.7449
   2   2.0000     -10.325026      -280.9582
   3   2.0000     -10.317005      -280.7400
   4   2.0000     -10.316620      -280.7295
   5   2.0000     -10.315046      -280.6867
   6   2.0000     -10.307375      -280.4779
   7   2.0000     -10.305013      -280.4137
   8   2.0000     -10.299135      -280.2537
   9   2.0000     -10.296980      -280.1951
  10   2.0000     -10.291878      -280.0562
  11   2.0000     -10.290092      -280.0076
  12   2.0000     -10.288477      -279.9637
  13   2.0000     -10.286698      -279.9153
  14   2.0000     -10.286683      -279.9149
  15   2.0000     -10.274551      -279.5847
  16   2.0000      -8.082519      -219.9365
  17   2.0000      -8.075350      -219.7414
  18   2.0000      -6.040920      -164.3818
  19   2.0000      -6.037007      -164.2753
  20   2.0000      -6.033966      -164.1925
  21   2.0000      -6.033435      -164.1781
  22   2.0000      -6.029927      -164.0827
  23   2.0000      -6.025947      -163.9744
  24   2.0000      -1.010590       -27.4996
  25   2.0000      -0.984344       -26.7854
  26   2.0000      -0.911271       -24.7970
  27   2.0000      -0.906527       -24.6679
  28   2.0000      -0.873537       -23.7702
  29   2.0000      -0.853961       -23.2375
  30   2.0000      -0.843108       -22.9421
  31   2.0000      -0.813485       -22.1360
  32   2.0000      -0.779417       -21.2090
  33   2.0000      -0.767823       -20.8935
  34   2.0000      -0.711607       -19.3638
  35   2.0000      -0.703542       -19.1444
  36   2.0000      -0.692825       -18.8527
  37   2.0000      -0.664191       -18.0735
  38   2.0000      -0.648360       -17.6428
  39   2.0000      -0.618155       -16.8209
  40   2.0000      -0.593320       -16.1451
  41   2.0000      -0.566336       -15.4108
  42   2.0000      -0.565172       -15.3791
  43   2.0000      -0.560217       -15.2443
  44   2.0000      -0.529743       -14.4151
  45   2.0000      -0.523303       -14.2398
  46   2.0000      -0.516575       -14.0567
  47   2.0000      -0.511724       -13.9247
  48   2.0000      -0.509440       -13.8626
  49   2.0000      -0.495176       -13.4744
  50   2.0000      -0.492751       -13.4084
  51   2.0000      -0.485561       -13.2128
  52   2.0000      -0.469439       -12.7741
  53   2.0000      -0.465060       -12.6549
  54   2.0000      -0.459974       -12.5165
  55   2.0000      -0.449137       -12.2216
  56   2.0000      -0.445753       -12.1295
  57   2.0000      -0.438679       -11.9370
  58   2.0000      -0.427027       -11.6200
  59   2.0000      -0.423370       -11.5205
  60   2.0000      -0.420683       -11.4474
  61   2.0000      -0.416366       -11.3299
  62   2.0000      -0.413207       -11.2439
  63   2.0000      -0.341713        -9.2985
  64   2.0000      -0.329042        -8.9537
  65   2.0000      -0.324745        -8.8368
  66   2.0000      -0.292250        -7.9525
  67   0.0000       0.024522         0.6673
  68   0.0000       0.068674         1.8687
  69   0.0000       0.108746         2.9591
  70   0.0000       0.116028         3.1573
  71   0.0000       0.119951         3.2640

MULLIKEN ATOMIC CHARGES
-----------------------
   0 S :    0.122247
   1 C :   -0.118190
   2 C :   -0.052799
   3 C :    0.009113
   4 C :   -0.187462
   5 H :    0.038607
   6 C :   -0.008242
   7 H :    0.038237
   8 H :    0.032713
   9 C :   -0.047395
  10 H :    0.024317
  11 H :    0.016403
  12 C :   -0.011807
  13 H :    0.023059
  14 H :    0.033819
  15 H :    0.029698
  16 S :    0.105329
  17 C :   -0.089031
  18 C :   -0.033164
  19 C :   -0.010167
  20 C :   -0.170409
  21 H :    0.005797
  22 C :    0.058668
  23 H :    0.027807
  24 H :    0.009961
  25 C :   -0.106632
  26 H :    0.049689
  27 H :    0.048008
  28 C :   -0.046390
  29 H :    0.034140
  30 H :    0.034581
  31 H :    0.043832
  32 H :    0.040789
  33 H :    0.054875
Sum of atomic charges:   -0.0000000

LOEWDIN ATOMIC CHARGES
----------------------
   0 S :    0.410583
   1 C :   -0.192532
   2 C :   -0.062227
   3 C :   -0.061642
   4 C :   -0.194145
   5 H :    0.039421
   6 C :   -0.046175
   7 H :    0.040238
   8 H :    0.032838
   9 C :   -0.037337
  10 H :    0.026557
  11 H :    0.015556
  12 C :   -0.052987
  13 H :    0.020148
  14 H :    0.029484
  15 H :    0.020581
  16 S :    0.391751
  17 C :   -0.179486
  18 C :   -0.068516
  19 C :   -0.060038
  20 C :   -0.205334
  21 H :    0.025348
  22 C :   -0.036837
  23 H :    0.031135
  24 H :    0.030217
  25 C :   -0.041564
  26 H :    0.029764
  27 H :    0.032478
  28 C :   -0.077041
  29 H :    0.035032
  30 H :    0.027772
  31 H :    0.025746
  32 H :    0.020968
  33 H :    0.030243

  Mayer bond orders larger than 0.100000
B(  0-S ,  1-C ) :   1.1378 B(  0-S ,  4-C ) :   1.1529 B(  1-C ,  2-C ) :   1.5892
B(  1-C ,  4-C ) :   0.1008 B(  1-C , 32-H ) :   0.9794 B(  2-C ,  3-C ) :   1.2300
B(  2-C ,  6-C ) :   1.0246 B(  3-C ,  4-C ) :   1.5693 B(  3-C ,  5-H ) :   0.9851
B(  4-C , 20-C ) :   1.0754 B(  6-C ,  7-H ) :   0.9442 B(  6-C ,  8-H ) :   0.9419
B(  6-C ,  9-C ) :   1.0429 B(  9-C , 10-H ) :   0.9591 B(  9-C , 11-H ) :   0.9533
B(  9-C , 12-C ) :   1.0753 B( 12-C , 13-H ) :   0.9776 B( 12-C , 14-H ) :   0.9741
B( 12-C , 15-H ) :   0.9774 B( 16-S , 17-C ) :   1.1385 B( 16-S , 20-C ) :   1.1396
B( 17-C , 18-C ) :   1.5995 B( 17-C , 20-C ) :   0.1016 B( 17-C , 33-H ) :   0.9738
B( 18-C , 19-C ) :   1.2511 B( 18-C , 21-H ) :   0.9898 B( 19-C , 20-C ) :   1.5638
B( 19-C , 22-C ) :   1.0564 B( 22-C , 23-H ) :   0.9319 B( 22-C , 24-H ) :   0.9241
B( 22-C , 25-C ) :   1.0462 B( 25-C , 26-H ) :   0.9559 B( 25-C , 27-H ) :   0.9600
B( 25-C , 28-C ) :   1.0620 B( 28-C , 29-H ) :   0.9710 B( 28-C , 30-H ) :   0.9728
B( 28-C , 31-H ) :   0.9757

Dispersion correction           -0.014984699
FINAL SINGLE POINT ENERGY     -1339.866175624732

DIPOLE MOMENT
-------------
                                X             Y             Z
Electronic contribution:     -2.18463     -30.34348       7.97154
Nuclear contribution   :      2.14367      31.01515      -8.10288
                        -----------------------------------------
Total Dipole Moment    :     -0.04096       0.67167      -0.13134
                        -----------------------------------------
Magnitude (a.u.)       :      0.68562
Magnitude (Debye)      :      1.74271

Rotational constants in cm-1:     0.018503     0.009286     0.007144
Rotational constants in MHz :   554.691087   278.378585   214.184751

                             ****ORCA TERMINATED NORMALLY****
TOTAL RUN TIME: 0 days 0 hours 0 minutes 22 seconds 496 msec
