                         Program Version 4.2.1 -  RELEASE  -
|  1> ! wB97X-D3 SP def2-SVP
|  2> %pal
|  3> nprocs 24
|  4> end
|  5>
|  6> * xyz 0 1
|  7> S 	 -87.3491 	 -30.1275 	 -78.9158
|  8> C 	 -87.7228 	 -29.795 	 -80.6248
|  9> C 	 -88.3512 	 -30.9346 	 -81.1876
| 10> C 	 -88.896 	 -31.7904 	 -80.1806
| 11> C 	 -88.4997 	 -31.4661 	 -78.9118
| 12> H 	 -89.4384 	 -32.6826 	 -80.4138
| 13> C 	 -88.6603 	 -31.2853 	 -82.6442
| 14> H 	 -88.602 	 -32.3581 	 -82.7773
| 15> H 	 -87.7957 	 -31.0098 	 -83.2723
| 16> C 	 -89.9227 	 -30.6826 	 -83.2249
| 17> H 	 -89.8069 	 -30.6898 	 -84.3128
| 18> H 	 -90.7732 	 -31.3088 	 -82.9551
| 19> C 	 -90.2316 	 -29.2522 	 -82.8162
| 20> H 	 -90.1113 	 -29.0484 	 -81.7411
| 21> H 	 -89.5377 	 -28.562 	 -83.1915
| 22> H 	 -91.1602 	 -28.9098 	 -83.3256
| 23> S 	 -87.7188 	 -32.4842 	 -76.516
| 24> C 	 -88.863 	 -33.073 	 -75.3802
| 25> C 	 -90.1074 	 -32.9755 	 -75.8955
| 26> C 	 -90.1452 	 -32.4773 	 -77.2484
| 27> C 	 -88.9243 	 -32.0989 	 -77.7065
| 28> H 	 -90.9299 	 -33.2788 	 -75.2567
| 29> C 	 -91.4327 	 -32.3203 	 -78.1229
| 30> H 	 -92.211 	 -32.9113 	 -77.5947
| 31> H 	 -91.3544 	 -32.9481 	 -79.0569
| 32> C 	 -91.99 	 -30.9452 	 -78.4575
| 33> H 	 -91.2361 	 -30.3456 	 -78.9127
| 34> H 	 -92.3969 	 -30.6656 	 -77.4947
| 35> C 	 -93.1195 	 -30.8896 	 -79.4472
| 36> H 	 -93.3578 	 -29.8063 	 -79.7063
| 37> H 	 -94.0577 	 -31.3028 	 -79.0835
| 38> H 	 -92.9384 	 -31.2583 	 -80.5086
| 39> H 	 -87.2623 	 -28.97 	 -81.1543
| 40> H 	 -88.7467 	 -33.3394 	 -74.3653
| 41> *
| 42>
| 43>                          ****END OF INPUT****

CARTESIAN COORDINATES (ANGSTROEM)
---------------------------------
  S    -87.349100  -30.127500  -78.915800
  C    -87.722800  -29.795000  -80.624800
  C    -88.351200  -30.934600  -81.187600
  C    -88.896000  -31.790400  -80.180600
  C    -88.499700  -31.466100  -78.911800
  H    -89.438400  -32.682600  -80.413800
  C    -88.660300  -31.285300  -82.644200
  H    -88.602000  -32.358100  -82.777300
  H    -87.795700  -31.009800  -83.272300
  C    -89.922700  -30.682600  -83.224900
  H    -89.806900  -30.689800  -84.312800
  H    -90.773200  -31.308800  -82.955100
  C    -90.231600  -29.252200  -82.816200
  H    -90.111300  -29.048400  -81.741100
  H    -89.537700  -28.562000  -83.191500
  H    -91.160200  -28.909800  -83.325600
  S    -87.718800  -32.484200  -76.516000
  C    -88.863000  -33.073000  -75.380200
  C    -90.107400  -32.975500  -75.895500
  C    -90.145200  -32.477300  -77.248400
  C    -88.924300  -32.098900  -77.706500
  H    -90.929900  -33.278800  -75.256700
  C    -91.432700  -32.320300  -78.122900
  H    -92.211000  -32.911300  -77.594700
  H    -91.354400  -32.948100  -79.056900
  C    -91.990000  -30.945200  -78.457500
  H    -91.236100  -30.345600  -78.912700
  H    -92.396900  -30.665600  -77.494700
  C    -93.119500  -30.889600  -79.447200
  H    -93.357800  -29.806300  -79.706300
  H    -94.057700  -31.302800  -79.083500
  H    -92.938400  -31.258300  -80.508600
  H    -87.262300  -28.970000  -81.154300
  H    -88.746700  -33.339400  -74.365300

 Total Charge           Charge          ....    0
 Multiplicity           Mult            ....    1
 Number of Electrons    NEL             ....  134
 Basis Dimension        Dim             ....  322

ORBITAL ENERGIES
----------------

  NO   OCC          E(Eh)            E(eV)
   0   2.0000     -88.969106     -2420.9724
   1   2.0000     -88.961064     -2420.7536
   2   2.0000     -10.329447      -281.0785
   3   2.0000     -10.323753      -280.9236
   4   2.0000     -10.320438      -280.8334
   5   2.0000     -10.309408      -280.5332
   6   2.0000     -10.308173      -280.4997
   7   2.0000     -10.303625      -280.3759
   8   2.0000     -10.295016      -280.1416
   9   2.0000     -10.293841      -280.1097
  10   2.0000     -10.292000      -280.0595
  11   2.0000     -10.291367      -280.0423
  12   2.0000     -10.287458      -279.9360
  13   2.0000     -10.282661      -279.8054
  14   2.0000     -10.279380      -279.7161
  15   2.0000     -10.273089      -279.5450
  16   2.0000      -8.083127      -219.9531
  17   2.0000      -8.077016      -219.7868
  18   2.0000      -6.041720      -164.4036
  19   2.0000      -6.037893      -164.2994
  20   2.0000      -6.035583      -164.2366
  21   2.0000      -6.033673      -164.1846
  22   2.0000      -6.031274      -164.1193
  23   2.0000      -6.027705      -164.0222
  24   2.0000      -1.013527       -27.5795
  25   2.0000      -0.985872       -26.8269
  26   2.0000      -0.915437       -24.9103
  27   2.0000      -0.907195       -24.6860
  28   2.0000      -0.874700       -23.8018
  29   2.0000      -0.852754       -23.2046
  30   2.0000      -0.844581       -22.9822
  31   2.0000      -0.816118       -22.2077
  32   2.0000      -0.787349       -21.4249
  33   2.0000      -0.774178       -21.0665
  34   2.0000      -0.710733       -19.3400
  35   2.0000      -0.701040       -19.0763
  36   2.0000      -0.687937       -18.7197
  37   2.0000      -0.662837       -18.0367
  38   2.0000      -0.642015       -17.4701
  39   2.0000      -0.625509       -17.0210
  40   2.0000      -0.590229       -16.0610
  41   2.0000      -0.575530       -15.6610
  42   2.0000      -0.572103       -15.5677
  43   2.0000      -0.550763       -14.9870
  44   2.0000      -0.548323       -14.9206
  45   2.0000      -0.523223       -14.2376
  46   2.0000      -0.518818       -14.1178
  47   2.0000      -0.511831       -13.9276
  48   2.0000      -0.502030       -13.6609
  49   2.0000      -0.499491       -13.5918
  50   2.0000      -0.489829       -13.3289
  51   2.0000      -0.486787       -13.2462
  52   2.0000      -0.466744       -12.7008
  53   2.0000      -0.465578       -12.6690
  54   2.0000      -0.461255       -12.5514
  55   2.0000      -0.450934       -12.2705
  56   2.0000      -0.441273       -12.0077
  57   2.0000      -0.437694       -11.9102
  58   2.0000      -0.425816       -11.5870
  59   2.0000      -0.423182       -11.5154
  60   2.0000      -0.411678       -11.2023
  61   2.0000      -0.410571       -11.1722
  62   2.0000      -0.408767       -11.1231
  63   2.0000      -0.353870        -9.6293
  64   2.0000      -0.333457        -9.0738
  65   2.0000      -0.329620        -8.9694
  66   2.0000      -0.290169        -7.8959
  67   0.0000       0.023368         0.6359
  68   0.0000       0.065333         1.7778
  69   0.0000       0.106644         2.9019
  70   0.0000       0.119771         3.2591
  71   0.0000       0.131470         3.5775

MULLIKEN ATOMIC CHARGES
-----------------------
   0 S :    0.114082
   1 C :   -0.140406
   2 C :   -0.093504
   3 C :    0.006418
   4 C :   -0.113387
   5 H :    0.011562
   6 C :    0.063276
   7 H :    0.024534
   8 H :    0.020364
   9 C :   -0.052791
  10 H :    0.031314
  11 H :    0.030247
  12 C :   -0.050332
  13 H :    0.053472
  14 H :    0.000203
  15 H :    0.037961
  16 S :    0.097296
  17 C :   -0.059024
  18 C :   -0.055373
  19 C :   -0.022873
  20 C :   -0.140076
  21 H :    0.016061
  22 C :    0.018124
  23 H :    0.007029
  24 H :    0.023307
  25 C :    0.001489
  26 H :    0.042089
  27 H :    0.029047
  28 C :   -0.095395
  29 H :    0.035666
  30 H :    0.028448
  31 H :    0.034221
  32 H :    0.057412
  33 H :    0.039537
Sum of atomic charges:   -0.0000000

LOEWDIN ATOMIC CHARGES
----------------------
   0 S :    0.391750
   1 C :   -0.191386
   2 C :   -0.051549
   3 C :   -0.057667
   4 C :   -0.183527
   5 H :    0.030609
   6 C :   -0.038968
   7 H :    0.032694
   8 H :    0.031561
   9 C :   -0.040029
  10 H :    0.029340
  11 H :    0.022391
  12 C :   -0.073783
  13 H :    0.030267
  14 H :    0.014957
  15 H :    0.034250
  16 S :    0.414020
  17 C :   -0.191868
  18 C :   -0.072992
  19 C :   -0.060453
  20 C :   -0.195738
  21 H :    0.032466
  22 C :   -0.040239
  23 H :    0.027243
  24 H :    0.027399
  25 C :   -0.040013
  26 H :    0.026959
  27 H :    0.030952
  28 C :   -0.075555
  29 H :    0.034994
  30 H :    0.019294
  31 H :    0.028279
  32 H :    0.026430
  33 H :    0.027915

  Mayer bond orders larger than 0.100000
B(  0-S ,  1-C ) :   1.1356 B(  0-S ,  4-C ) :   1.1355 B(  1-C ,  2-C ) :   1.5774
B(  1-C ,  4-C ) :   0.1070 B(  1-C , 32-H ) :   0.9740 B(  2-C ,  3-C ) :   1.2247
B(  2-C ,  6-C ) :   1.0348 B(  3-C ,  4-C ) :   1.5584 B(  3-C ,  5-H ) :   1.0048
B(  4-C , 20-C ) :   1.0677 B(  6-C ,  7-H ) :   0.9415 B(  6-C ,  8-H ) :   0.9353
B(  6-C ,  9-C ) :   1.0681 B(  9-C , 10-H ) :   0.9519 B(  9-C , 11-H ) :   0.9551
B(  9-C , 12-C ) :   1.0939 B( 12-C , 13-H ) :   0.9632 B( 12-C , 14-H ) :   0.9684
B( 12-C , 15-H ) :   0.9697 B( 16-S , 17-C ) :   1.1446 B( 16-S , 20-C ) :   1.1324
B( 17-C , 18-C ) :   1.6391 B( 17-C , 33-H ) :   0.9671 B( 18-C , 19-C ) :   1.2279
B( 18-C , 21-H ) :   0.9910 B( 19-C , 20-C ) :   1.6188 B( 19-C , 22-C ) :   1.0305
B( 22-C , 23-H ) :   0.9316 B( 22-C , 24-H ) :   0.9386 B( 22-C , 25-C ) :   1.0622
B( 25-C , 26-H ) :   0.9523 B( 25-C , 27-H ) :   0.9500 B( 25-C , 28-C ) :   1.0963
B( 28-C , 29-H ) :   0.9710 B( 28-C , 30-H ) :   0.9742 B( 28-C , 31-H ) :   0.9691

Dispersion correction           -0.015669333
FINAL SINGLE POINT ENERGY     -1339.866368036965

DIPOLE MOMENT
-------------
                                X             Y             Z
Electronic contribution:     23.04845      -5.02340      20.57948
Nuclear contribution   :    -23.49736       4.95285     -21.01425
                        -----------------------------------------
Total Dipole Moment    :     -0.44891      -0.07054      -0.43476
                        -----------------------------------------
Magnitude (a.u.)       :      0.62890
Magnitude (Debye)      :      1.59854

Rotational constants in cm-1:     0.020125     0.009919     0.007421
Rotational constants in MHz :   603.337184   297.360875   222.472852

                             ****ORCA TERMINATED NORMALLY****
TOTAL RUN TIME: 0 days 0 hours 0 minutes 22 seconds 951 msec
