                         Program Version 4.2.1 -  RELEASE  -
|  1> ! wB97X-D3 SP def2-SVP
|  2> %pal
|  3> nprocs 24
|  4> end
|  5>
|  6> * xyz 0 1
|  7> S 	 -27.5969 	 -7.07678 	 -1.58184
|  8> C 	 -27.6487 	 -7.36334 	 0.109733
|  9> C 	 -28.8291 	 -8.01223 	 0.491385
| 10> C 	 -29.7923 	 -7.94466 	 -0.593727
| 11> C 	 -29.3002 	 -7.26918 	 -1.68031
| 12> H 	 -30.8031 	 -8.38286 	 -0.610652
| 13> C 	 -29.2121 	 -8.57354 	 1.85072
| 14> H 	 -30.3002 	 -8.37223 	 1.90641
| 15> H 	 -28.7493 	 -7.9758 	 2.56495
| 16> C 	 -28.9512 	 -10.0362 	 1.92984
| 17> H 	 -27.9049 	 -10.2037 	 1.959
| 18> H 	 -29.3269 	 -10.2749 	 2.88719
| 19> C 	 -29.6337 	 -10.8659 	 0.829117
| 20> H 	 -29.1118 	 -10.6286 	 -0.0547776
| 21> H 	 -29.5808 	 -11.9615 	 0.9543
| 22> H 	 -30.6539 	 -10.6724 	 0.663204
| 23> S 	 -28.9861 	 -6.50334 	 -4.29466
| 24> C 	 -30.431 	 -6.16412 	 -5.25764
| 25> C 	 -31.5286 	 -6.33985 	 -4.49236
| 26> C 	 -31.3353 	 -6.64968 	 -3.16212
| 27> C 	 -30.0187 	 -6.94315 	 -2.89142
| 28> H 	 -32.4914 	 -6.2068 	 -4.95726
| 29> C 	 -32.4603 	 -6.6287 	 -2.0774
| 30> H 	 -33.131 	 -5.82048 	 -2.31289
| 31> H 	 -32.108 	 -6.48918 	 -1.01589
| 32> C 	 -33.3431 	 -7.88847 	 -2.14901
| 33> H 	 -32.8279 	 -8.77718 	 -1.88382
| 34> H 	 -33.7211 	 -8.05867 	 -3.19625
| 35> C 	 -34.6779 	 -7.81341 	 -1.30498
| 36> H 	 -35.2594 	 -6.85107 	 -1.3504
| 37> H 	 -34.525 	 -7.80112 	 -0.219367
| 38> H 	 -35.4367 	 -8.48885 	 -1.73159
| 39> H 	 -26.8344 	 -7.29781 	 0.776438
| 40> H 	 -30.4209 	 -5.6934 	 -6.24941
| 41> *
| 42>
| 43>                          ****END OF INPUT****

CARTESIAN COORDINATES (ANGSTROEM)
---------------------------------
  S    -27.596900   -7.076780   -1.581840
  C    -27.648700   -7.363340    0.109733
  C    -28.829100   -8.012230    0.491385
  C    -29.792300   -7.944660   -0.593727
  C    -29.300200   -7.269180   -1.680310
  H    -30.803100   -8.382860   -0.610652
  C    -29.212100   -8.573540    1.850720
  H    -30.300200   -8.372230    1.906410
  H    -28.749300   -7.975800    2.564950
  C    -28.951200  -10.036200    1.929840
  H    -27.904900  -10.203700    1.959000
  H    -29.326900  -10.274900    2.887190
  C    -29.633700  -10.865900    0.829117
  H    -29.111800  -10.628600   -0.054778
  H    -29.580800  -11.961500    0.954300
  H    -30.653900  -10.672400    0.663204
  S    -28.986100   -6.503340   -4.294660
  C    -30.431000   -6.164120   -5.257640
  C    -31.528600   -6.339850   -4.492360
  C    -31.335300   -6.649680   -3.162120
  C    -30.018700   -6.943150   -2.891420
  H    -32.491400   -6.206800   -4.957260
  C    -32.460300   -6.628700   -2.077400
  H    -33.131000   -5.820480   -2.312890
  H    -32.108000   -6.489180   -1.015890
  C    -33.343100   -7.888470   -2.149010
  H    -32.827900   -8.777180   -1.883820
  H    -33.721100   -8.058670   -3.196250
  C    -34.677900   -7.813410   -1.304980
  H    -35.259400   -6.851070   -1.350400
  H    -34.525000   -7.801120   -0.219367
  H    -35.436700   -8.488850   -1.731590
  H    -26.834400   -7.297810    0.776438
  H    -30.420900   -5.693400   -6.249410

 Total Charge           Charge          ....    0
 Multiplicity           Mult            ....    1
 Number of Electrons    NEL             ....  134
 Basis Dimension        Dim             ....  322

ORBITAL ENERGIES
----------------

  NO   OCC          E(Eh)            E(eV)
   0   2.0000     -88.964572     -2420.8491
   1   2.0000     -88.961060     -2420.7535
   2   2.0000     -10.327691      -281.0308
   3   2.0000     -10.323742      -280.9233
   4   2.0000     -10.316579      -280.7284
   5   2.0000     -10.308011      -280.4952
   6   2.0000     -10.302145      -280.3356
   7   2.0000     -10.301029      -280.3052
   8   2.0000     -10.300983      -280.3040
   9   2.0000     -10.293760      -280.1075
  10   2.0000     -10.293096      -280.0894
  11   2.0000     -10.287400      -279.9344
  12   2.0000     -10.286837      -279.9191
  13   2.0000     -10.286573      -279.9119
  14   2.0000     -10.278445      -279.6907
  15   2.0000     -10.270783      -279.4822
  16   2.0000      -8.080668      -219.8862
  17   2.0000      -8.075368      -219.7419
  18   2.0000      -6.039188      -164.3347
  19   2.0000      -6.035365      -164.2306
  20   2.0000      -6.033993      -164.1933
  21   2.0000      -6.030960      -164.1108
  22   2.0000      -6.030104      -164.0875
  23   2.0000      -6.025879      -163.9725
  24   2.0000      -1.012846       -27.5610
  25   2.0000      -0.988131       -26.8884
  26   2.0000      -0.923230       -25.1224
  27   2.0000      -0.903232       -24.5782
  28   2.0000      -0.871839       -23.7239
  29   2.0000      -0.851344       -23.1662
  30   2.0000      -0.840968       -22.8839
  31   2.0000      -0.815734       -22.1972
  32   2.0000      -0.787363       -21.4252
  33   2.0000      -0.776407       -21.1271
  34   2.0000      -0.711281       -19.3549
  35   2.0000      -0.705801       -19.2058
  36   2.0000      -0.697344       -18.9757
  37   2.0000      -0.665004       -18.0957
  38   2.0000      -0.638250       -17.3677
  39   2.0000      -0.617705       -16.8086
  40   2.0000      -0.598345       -16.2818
  41   2.0000      -0.577769       -15.7219
  42   2.0000      -0.564459       -15.3597
  43   2.0000      -0.552022       -15.0213
  44   2.0000      -0.542487       -14.7618
  45   2.0000      -0.527296       -14.3484
  46   2.0000      -0.520124       -14.1533
  47   2.0000      -0.513461       -13.9720
  48   2.0000      -0.501494       -13.6464
  49   2.0000      -0.497082       -13.5263
  50   2.0000      -0.492422       -13.3995
  51   2.0000      -0.481328       -13.0976
  52   2.0000      -0.474400       -12.9091
  53   2.0000      -0.466213       -12.6863
  54   2.0000      -0.462337       -12.5808
  55   2.0000      -0.451128       -12.2758
  56   2.0000      -0.444537       -12.0965
  57   2.0000      -0.440172       -11.9777
  58   2.0000      -0.435410       -11.8481
  59   2.0000      -0.431461       -11.7407
  60   2.0000      -0.421080       -11.4582
  61   2.0000      -0.411955       -11.2099
  62   2.0000      -0.408975       -11.1288
  63   2.0000      -0.361205        -9.8289
  64   2.0000      -0.336246        -9.1497
  65   2.0000      -0.323024        -8.7899
  66   2.0000      -0.279602        -7.6084
  67   0.0000       0.018108         0.4928
  68   0.0000       0.081096         2.2067
  69   0.0000       0.091903         2.5008
  70   0.0000       0.120658         3.2833
  71   0.0000       0.125903         3.4260

MULLIKEN ATOMIC CHARGES
-----------------------
   0 S :    0.109808
   1 C :   -0.081142
   2 C :   -0.141475
   3 C :   -0.035958
   4 C :   -0.087301
   5 H :    0.014306
   6 C :    0.094276
   7 H :    0.023291
   8 H :    0.009096
   9 C :   -0.003892
  10 H :    0.018342
  11 H :    0.012433
  12 C :   -0.045028
  13 H :    0.040959
  14 H :    0.036837
  15 H :    0.016287
  16 S :    0.061849
  17 C :   -0.090164
  18 C :   -0.027948
  19 C :   -0.038362
  20 C :   -0.125268
  21 H :    0.009892
  22 C :    0.071975
  23 H :    0.015486
  24 H :    0.048989
  25 C :   -0.085770
  26 H :    0.030781
  27 H :    0.032353
  28 C :   -0.075216
  29 H :    0.018933
  30 H :    0.034606
  31 H :    0.045506
  32 H :    0.023206
  33 H :    0.068313
Sum of atomic charges:    0.0000000

LOEWDIN ATOMIC CHARGES
----------------------
   0 S :    0.421910
   1 C :   -0.205149
   2 C :   -0.054873
   3 C :   -0.071827
   4 C :   -0.195943
   5 H :    0.032827
   6 C :   -0.023633
   7 H :    0.033257
   8 H :    0.022912
   9 C :   -0.028216
  10 H :    0.021554
  11 H :    0.017818
  12 C :   -0.058142
  13 H :    0.024978
  14 H :    0.031955
  15 H :    0.016423
  16 S :    0.361001
  17 C :   -0.177064
  18 C :   -0.073714
  19 C :   -0.060616
  20 C :   -0.166307
  21 H :    0.030739
  22 C :   -0.025656
  23 H :    0.028410
  24 H :    0.037125
  25 C :   -0.040659
  26 H :    0.015610
  27 H :    0.030020
  28 C :   -0.084317
  29 H :    0.027616
  30 H :    0.024485
  31 H :    0.031919
  32 H :    0.017297
  33 H :    0.038260

  Mayer bond orders larger than 0.100000
B(  0-S ,  1-C ) :   1.1356 B(  0-S ,  4-C ) :   1.1482 B(  1-C ,  2-C ) :   1.6178
B(  1-C , 32-H ) :   0.9729 B(  2-C ,  3-C ) :   1.2194 B(  2-C ,  6-C ) :   1.0059
B(  3-C ,  4-C ) :   1.5593 B(  3-C ,  5-H ) :   0.9941 B(  4-C , 20-C ) :   1.0953
B(  6-C ,  7-H ) :   0.9431 B(  6-C ,  8-H ) :   0.9374 B(  6-C ,  9-C ) :   1.0773
B(  9-C , 10-H ) :   0.9537 B(  9-C , 11-H ) :   0.9524 B(  9-C , 12-C ) :   1.0775
B( 12-C , 13-H ) :   0.9688 B( 12-C , 14-H ) :   0.9725 B( 12-C , 15-H ) :   0.9744
B( 16-S , 17-C ) :   1.1334 B( 16-S , 20-C ) :   1.1170 B( 17-C , 18-C ) :   1.6291
B( 17-C , 20-C ) :   0.1005 B( 17-C , 33-H ) :   0.9650 B( 18-C , 19-C ) :   1.2473
B( 18-C , 21-H ) :   0.9866 B( 19-C , 20-C ) :   1.6060 B( 19-C , 22-C ) :   1.0307
B( 22-C , 23-H ) :   0.9299 B( 22-C , 24-H ) :   0.9405 B( 22-C , 25-C ) :   1.0600
B( 25-C , 26-H ) :   0.9545 B( 25-C , 27-H ) :   0.9582 B( 25-C , 28-C ) :   1.0673
B( 28-C , 29-H ) :   0.9723 B( 28-C , 30-H ) :   0.9751 B( 28-C , 31-H ) :   0.9771

Dispersion correction           -0.014670031
FINAL SINGLE POINT ENERGY     -1339.860611281727

DIPOLE MOMENT
-------------
                                X             Y             Z
Electronic contribution:     21.27315      13.16731     -16.96272
Nuclear contribution   :    -21.86233     -13.29997      17.34971
                        -----------------------------------------
Total Dipole Moment    :     -0.58918      -0.13266       0.38699
                        -----------------------------------------
Magnitude (a.u.)       :      0.71728
Magnitude (Debye)      :      1.82318

Rotational constants in cm-1:     0.016715     0.010367     0.006962
Rotational constants in MHz :   501.088405   310.794777   208.730010

                             ****ORCA TERMINATED NORMALLY****
TOTAL RUN TIME: 0 days 0 hours 0 minutes 21 seconds 281 msec
