                         Program Version 4.2.1 -  RELEASE  -
|  1> ! wB97X-D3 SP def2-SVP
|  2> %pal
|  3> nprocs 24
|  4> end
|  5>
|  6> * xyz 0 1
|  7> S 	 -90.2074 	 -35.2664 	 -57.9162
|  8> C 	 -90.5485 	 -36.5605 	 -56.8657
|  9> C 	 -91.2975 	 -36.1392 	 -55.7571
| 10> C 	 -91.5424 	 -34.7123 	 -55.8105
| 11> C 	 -91.0037 	 -34.1009 	 -56.9332
| 12> H 	 -92.0712 	 -34.0834 	 -55.0594
| 13> C 	 -91.7827 	 -37.0138 	 -54.5536
| 14> H 	 -92.2463 	 -36.3931 	 -53.756
| 15> H 	 -90.9534 	 -37.531 	 -54.0853
| 16> C 	 -92.8308 	 -38.1539 	 -55.002
| 17> H 	 -93.5135 	 -37.6492 	 -55.6189
| 18> H 	 -92.4199 	 -38.8948 	 -55.6569
| 19> C 	 -93.3877 	 -38.9369 	 -53.7526
| 20> H 	 -94.0676 	 -39.7097 	 -54.0084
| 21> H 	 -92.6244 	 -39.3824 	 -53.0604
| 22> H 	 -93.9788 	 -38.2851 	 -53.1503
| 23> S 	 -89.5051 	 -32.0043 	 -57.9168
| 24> C 	 -90.2329 	 -30.4788 	 -58.0478
| 25> C 	 -91.522 	 -30.413 	 -57.5495
| 26> C 	 -91.9055 	 -31.623 	 -56.9719
| 27> C 	 -90.9898 	 -32.6521 	 -57.2485
| 28> H 	 -91.8939 	 -29.4213 	 -57.7637
| 29> C 	 -93.2683 	 -31.636 	 -56.3546
| 30> H 	 -93.5653 	 -30.609 	 -56.0746
| 31> H 	 -93.2574 	 -32.2554 	 -55.4451
| 32> C 	 -94.3666 	 -32.2612 	 -57.2794
| 33> H 	 -93.8202 	 -33.0285 	 -57.9264
| 34> H 	 -94.7636 	 -31.5508 	 -57.9922
| 35> C 	 -95.6099 	 -32.9979 	 -56.6885
| 36> H 	 -96.245 	 -32.4671 	 -56.0454
| 37> H 	 -95.3904 	 -33.8987 	 -56.1436
| 38> H 	 -96.2272 	 -33.3753 	 -57.5211
| 39> H 	 -90.4004 	 -37.5784 	 -57.0253
| 40> H 	 -89.7637 	 -29.7586 	 -58.6597
| 41> *
| 42>
| 43>                          ****END OF INPUT****

CARTESIAN COORDINATES (ANGSTROEM)
---------------------------------
  S    -90.207400  -35.266400  -57.916200
  C    -90.548500  -36.560500  -56.865700
  C    -91.297500  -36.139200  -55.757100
  C    -91.542400  -34.712300  -55.810500
  C    -91.003700  -34.100900  -56.933200
  H    -92.071200  -34.083400  -55.059400
  C    -91.782700  -37.013800  -54.553600
  H    -92.246300  -36.393100  -53.756000
  H    -90.953400  -37.531000  -54.085300
  C    -92.830800  -38.153900  -55.002000
  H    -93.513500  -37.649200  -55.618900
  H    -92.419900  -38.894800  -55.656900
  C    -93.387700  -38.936900  -53.752600
  H    -94.067600  -39.709700  -54.008400
  H    -92.624400  -39.382400  -53.060400
  H    -93.978800  -38.285100  -53.150300
  S    -89.505100  -32.004300  -57.916800
  C    -90.232900  -30.478800  -58.047800
  C    -91.522000  -30.413000  -57.549500
  C    -91.905500  -31.623000  -56.971900
  C    -90.989800  -32.652100  -57.248500
  H    -91.893900  -29.421300  -57.763700
  C    -93.268300  -31.636000  -56.354600
  H    -93.565300  -30.609000  -56.074600
  H    -93.257400  -32.255400  -55.445100
  C    -94.366600  -32.261200  -57.279400
  H    -93.820200  -33.028500  -57.926400
  H    -94.763600  -31.550800  -57.992200
  C    -95.609900  -32.997900  -56.688500
  H    -96.245000  -32.467100  -56.045400
  H    -95.390400  -33.898700  -56.143600
  H    -96.227200  -33.375300  -57.521100
  H    -90.400400  -37.578400  -57.025300
  H    -89.763700  -29.758600  -58.659700

 Total Charge           Charge          ....    0
 Multiplicity           Mult            ....    1
 Number of Electrons    NEL             ....  134
 Basis Dimension        Dim             ....  322

ORBITAL ENERGIES
----------------

  NO   OCC          E(Eh)            E(eV)
   0   2.0000     -88.969336     -2420.9787
   1   2.0000     -88.965769     -2420.8817
   2   2.0000     -10.331367      -281.1308
   3   2.0000     -10.329069      -281.0683
   4   2.0000     -10.308955      -280.5209
   5   2.0000     -10.307734      -280.4877
   6   2.0000     -10.305713      -280.4327
   7   2.0000     -10.305181      -280.4182
   8   2.0000     -10.301601      -280.3208
   9   2.0000     -10.296887      -280.1925
  10   2.0000     -10.295864      -280.1647
  11   2.0000     -10.291196      -280.0377
  12   2.0000     -10.289514      -279.9919
  13   2.0000     -10.288875      -279.9745
  14   2.0000     -10.280133      -279.7366
  15   2.0000     -10.273486      -279.5558
  16   2.0000      -8.085034      -220.0049
  17   2.0000      -8.081730      -219.9150
  18   2.0000      -6.043539      -164.4531
  19   2.0000      -6.039942      -164.3552
  20   2.0000      -6.039184      -164.3346
  21   2.0000      -6.036078      -164.2500
  22   2.0000      -6.035970      -164.2471
  23   2.0000      -6.032731      -164.1589
  24   2.0000      -1.012538       -27.5526
  25   2.0000      -0.991661       -26.9845
  26   2.0000      -0.905311       -24.6348
  27   2.0000      -0.897762       -24.4293
  28   2.0000      -0.867231       -23.5986
  29   2.0000      -0.853359       -23.2211
  30   2.0000      -0.845313       -23.0021
  31   2.0000      -0.813348       -22.1323
  32   2.0000      -0.784824       -21.3561
  33   2.0000      -0.773237       -21.0408
  34   2.0000      -0.711086       -19.3496
  35   2.0000      -0.706799       -19.2330
  36   2.0000      -0.690775       -18.7969
  37   2.0000      -0.665480       -18.1086
  38   2.0000      -0.639984       -17.4148
  39   2.0000      -0.619365       -16.8538
  40   2.0000      -0.596042       -16.2191
  41   2.0000      -0.571195       -15.5430
  42   2.0000      -0.558159       -15.1883
  43   2.0000      -0.554308       -15.0835
  44   2.0000      -0.524092       -14.2613
  45   2.0000      -0.519428       -14.1344
  46   2.0000      -0.512692       -13.9511
  47   2.0000      -0.505127       -13.7452
  48   2.0000      -0.501929       -13.6582
  49   2.0000      -0.495787       -13.4910
  50   2.0000      -0.494248       -13.4492
  51   2.0000      -0.488615       -13.2959
  52   2.0000      -0.475499       -12.9390
  53   2.0000      -0.467295       -12.7158
  54   2.0000      -0.464201       -12.6315
  55   2.0000      -0.450211       -12.2509
  56   2.0000      -0.440771       -11.9940
  57   2.0000      -0.433663       -11.8006
  58   2.0000      -0.430090       -11.7034
  59   2.0000      -0.428087       -11.6488
  60   2.0000      -0.424334       -11.5467
  61   2.0000      -0.418309       -11.3828
  62   2.0000      -0.414481       -11.2786
  63   2.0000      -0.353560        -9.6208
  64   2.0000      -0.335423        -9.1273
  65   2.0000      -0.329546        -8.9674
  66   2.0000      -0.284673        -7.7463
  67   0.0000       0.025702         0.6994
  68   0.0000       0.076918         2.0931
  69   0.0000       0.112048         3.0490
  70   0.0000       0.122062         3.3215
  71   0.0000       0.133284         3.6268

MULLIKEN ATOMIC CHARGES
-----------------------
   0 S :    0.125395
   1 C :   -0.078616
   2 C :   -0.100722
   3 C :   -0.000692
   4 C :   -0.142911
   5 H :    0.020972
   6 C :    0.047622
   7 H :    0.031269
   8 H :    0.035850
   9 C :   -0.070115
  10 H :    0.024549
  11 H :    0.025596
  12 C :   -0.046101
  13 H :    0.027613
  14 H :    0.040033
  15 H :    0.018463
  16 S :    0.114155
  17 C :   -0.103528
  18 C :   -0.042520
  19 C :   -0.026794
  20 C :   -0.142037
  21 H :    0.021732
  22 C :    0.095869
  23 H :    0.030527
  24 H :    0.016424
  25 C :   -0.102196
  26 H :    0.047142
  27 H :    0.028136
  28 C :   -0.032391
  29 H :    0.020156
  30 H :    0.019466
  31 H :    0.031444
  32 H :    0.023439
  33 H :    0.042772
Sum of atomic charges:   -0.0000000

LOEWDIN ATOMIC CHARGES
----------------------
   0 S :    0.443816
   1 C :   -0.209629
   2 C :   -0.059066
   3 C :   -0.074386
   4 C :   -0.209421
   5 H :    0.034766
   6 C :   -0.026831
   7 H :    0.032044
   8 H :    0.028590
   9 C :   -0.031531
  10 H :    0.017509
  11 H :    0.018647
  12 C :   -0.067626
  13 H :    0.021960
  14 H :    0.033054
  15 H :    0.019136
  16 S :    0.430592
  17 C :   -0.196632
  18 C :   -0.072617
  19 C :   -0.056947
  20 C :   -0.196206
  21 H :    0.040090
  22 C :   -0.031349
  23 H :    0.034465
  24 H :    0.027577
  25 C :   -0.042366
  26 H :    0.036440
  27 H :    0.021426
  28 C :   -0.068310
  29 H :    0.014058
  30 H :    0.020913
  31 H :    0.034005
  32 H :    0.018160
  33 H :    0.015667

  Mayer bond orders larger than 0.100000
B(  0-S ,  1-C ) :   1.1538 B(  0-S ,  4-C ) :   1.1726 B(  1-C ,  2-C ) :   1.5843
B(  1-C , 32-H ) :   0.9761 B(  2-C ,  3-C ) :   1.2679 B(  2-C ,  6-C ) :   1.0157
B(  3-C ,  4-C ) :   1.5523 B(  3-C ,  5-H ) :   0.9852 B(  4-C , 20-C ) :   1.0367
B(  6-C ,  7-H ) :   0.9547 B(  6-C ,  8-H ) :   0.9460 B(  6-C ,  9-C ) :   1.0410
B(  9-C , 10-H ) :   0.9636 B(  9-C , 11-H ) :   0.9620 B(  9-C , 12-C ) :   1.0706
B( 12-C , 13-H ) :   0.9757 B( 12-C , 14-H ) :   0.9762 B( 12-C , 15-H ) :   0.9769
B( 16-S , 17-C ) :   1.1820 B( 16-S , 20-C ) :   1.1660 B( 17-C , 18-C ) :   1.5977
B( 17-C , 20-C ) :   0.1087 B( 17-C , 33-H ) :   0.9671 B( 18-C , 19-C ) :   1.2320
B( 18-C , 21-H ) :   1.0012 B( 19-C , 20-C ) :   1.5560 B( 19-C , 22-C ) :   1.0625
B( 22-C , 23-H ) :   0.9311 B( 22-C , 24-H ) :   0.9315 B( 22-C , 25-C ) :   1.0430
B( 25-C , 26-H ) :   0.9621 B( 25-C , 27-H ) :   0.9588 B( 25-C , 28-C ) :   1.0799
B( 28-C , 29-H ) :   0.9771 B( 28-C , 30-H ) :   0.9742 B( 28-C , 31-H ) :   0.9714

Dispersion correction           -0.013950462
FINAL SINGLE POINT ENERGY     -1339.865137351516

DIPOLE MOMENT
-------------
                                X             Y             Z
Electronic contribution:     25.46884      12.26807     -14.64437
Nuclear contribution   :    -25.96991     -12.31125      14.87371
                        -----------------------------------------
Total Dipole Moment    :     -0.50107      -0.04318       0.22934
                        -----------------------------------------
Magnitude (a.u.)       :      0.55275
Magnitude (Debye)      :      1.40497

Rotational constants in cm-1:     0.019517     0.008263     0.006284
Rotational constants in MHz :   585.108617   247.717843   188.381921

                             ****ORCA TERMINATED NORMALLY****
TOTAL RUN TIME: 0 days 0 hours 0 minutes 21 seconds 213 msec
