                         Program Version 4.2.1 -  RELEASE  -
|  1> ! wB97X-D3 SP def2-SVP
|  2> %pal
|  3> nprocs 24
|  4> end
|  5>
|  6> * xyz 0 1
|  7> S 	 -70.9248 	 0.203382 	 -67.1884
|  8> C 	 -71.1366 	 1.61349 	 -66.1304
|  9> C 	 -72.1814 	 2.41892 	 -66.4812
| 10> C 	 -72.8016 	 1.92946 	 -67.6499
| 11> C 	 -72.3565 	 0.753685 	 -68.1274
| 12> H 	 -73.6943 	 2.25787 	 -68.0941
| 13> C 	 -72.6256 	 3.72024 	 -65.7878
| 14> H 	 -73.6571 	 4.06407 	 -66.1146
| 15> H 	 -71.913 	 4.4668 	 -66.0346
| 16> C 	 -72.5817 	 3.59923 	 -64.2336
| 17> H 	 -73.2051 	 2.79264 	 -63.8776
| 18> H 	 -71.5959 	 3.29868 	 -64.0007
| 19> C 	 -72.9269 	 4.84276 	 -63.4871
| 20> H 	 -72.0371 	 5.52792 	 -63.4386
| 21> H 	 -73.8438 	 5.35301 	 -63.8265
| 22> H 	 -72.9672 	 4.69893 	 -62.4365
| 23> S 	 -71.4958 	 -0.10319 	 -70.5654
| 24> C 	 -72.6731 	 -0.622401 	 -71.7668
| 25> C 	 -73.9622 	 -0.67701 	 -71.2491
| 26> C 	 -74.002 	 -0.219872 	 -69.9081
| 27> C 	 -72.7572 	 0.0758482 	 -69.3584
| 28> H 	 -74.782 	 -0.90236 	 -71.9416
| 29> C 	 -75.2357 	 0.123558 	 -69.137
| 30> H 	 -75.2486 	 1.2075 	 -69.0566
| 31> H 	 -75.2449 	 -0.35518 	 -68.1113
| 32> C 	 -76.5676 	 -0.151275 	 -69.792
| 33> H 	 -76.6502 	 -1.29255 	 -69.818
| 34> H 	 -76.7685 	 0.269298 	 -70.7962
| 35> C 	 -77.7574 	 0.254566 	 -68.9382
| 36> H 	 -78.6773 	 0.333 	 -69.4985
| 37> H 	 -77.7486 	 1.27697 	 -68.5033
| 38> H 	 -77.9285 	 -0.528307 	 -68.2356
| 39> H 	 -70.3836 	 1.89514 	 -65.395
| 40> H 	 -72.5133 	 -1.01727 	 -72.7684
| 41> *
| 42>
| 43>                          ****END OF INPUT****

CARTESIAN COORDINATES (ANGSTROEM)
---------------------------------
  S    -70.924800    0.203382  -67.188400
  C    -71.136600    1.613490  -66.130400
  C    -72.181400    2.418920  -66.481200
  C    -72.801600    1.929460  -67.649900
  C    -72.356500    0.753685  -68.127400
  H    -73.694300    2.257870  -68.094100
  C    -72.625600    3.720240  -65.787800
  H    -73.657100    4.064070  -66.114600
  H    -71.913000    4.466800  -66.034600
  C    -72.581700    3.599230  -64.233600
  H    -73.205100    2.792640  -63.877600
  H    -71.595900    3.298680  -64.000700
  C    -72.926900    4.842760  -63.487100
  H    -72.037100    5.527920  -63.438600
  H    -73.843800    5.353010  -63.826500
  H    -72.967200    4.698930  -62.436500
  S    -71.495800   -0.103190  -70.565400
  C    -72.673100   -0.622401  -71.766800
  C    -73.962200   -0.677010  -71.249100
  C    -74.002000   -0.219872  -69.908100
  C    -72.757200    0.075848  -69.358400
  H    -74.782000   -0.902360  -71.941600
  C    -75.235700    0.123558  -69.137000
  H    -75.248600    1.207500  -69.056600
  H    -75.244900   -0.355180  -68.111300
  C    -76.567600   -0.151275  -69.792000
  H    -76.650200   -1.292550  -69.818000
  H    -76.768500    0.269298  -70.796200
  C    -77.757400    0.254566  -68.938200
  H    -78.677300    0.333000  -69.498500
  H    -77.748600    1.276970  -68.503300
  H    -77.928500   -0.528307  -68.235600
  H    -70.383600    1.895140  -65.395000
  H    -72.513300   -1.017270  -72.768400

 Total Charge           Charge          ....    0
 Multiplicity           Mult            ....    1
 Number of Electrons    NEL             ....  134
 Basis Dimension        Dim             ....  322

ORBITAL ENERGIES
----------------

  NO   OCC          E(Eh)            E(eV)
   0   2.0000     -88.966657     -2420.9058
   1   2.0000     -88.964462     -2420.8461
   2   2.0000     -10.327366      -281.0219
   3   2.0000     -10.323820      -280.9254
   4   2.0000     -10.318060      -280.7687
   5   2.0000     -10.314661      -280.6762
   6   2.0000     -10.302734      -280.3517
   7   2.0000     -10.300804      -280.2991
   8   2.0000     -10.298813      -280.2450
   9   2.0000     -10.295635      -280.1585
  10   2.0000     -10.293170      -280.0914
  11   2.0000     -10.291298      -280.0405
  12   2.0000     -10.284447      -279.8540
  13   2.0000     -10.281212      -279.7660
  14   2.0000     -10.278322      -279.6874
  15   2.0000     -10.275151      -279.6011
  16   2.0000      -8.080917      -219.8929
  17   2.0000      -8.078296      -219.8216
  18   2.0000      -6.039477      -164.3425
  19   2.0000      -6.036856      -164.2712
  20   2.0000      -6.035378      -164.2310
  21   2.0000      -6.033083      -164.1685
  22   2.0000      -6.031749      -164.1322
  23   2.0000      -6.028914      -164.0551
  24   2.0000      -1.005826       -27.3699
  25   2.0000      -0.982846       -26.7446
  26   2.0000      -0.914893       -24.8955
  27   2.0000      -0.911762       -24.8103
  28   2.0000      -0.871128       -23.7046
  29   2.0000      -0.855396       -23.2765
  30   2.0000      -0.847583       -23.0639
  31   2.0000      -0.818650       -22.2766
  32   2.0000      -0.783707       -21.3257
  33   2.0000      -0.770827       -20.9753
  34   2.0000      -0.708329       -19.2746
  35   2.0000      -0.699285       -19.0285
  36   2.0000      -0.694122       -18.8880
  37   2.0000      -0.650933       -17.7128
  38   2.0000      -0.643448       -17.5091
  39   2.0000      -0.618468       -16.8294
  40   2.0000      -0.595964       -16.2170
  41   2.0000      -0.582165       -15.8415
  42   2.0000      -0.576284       -15.6815
  43   2.0000      -0.563079       -15.3222
  44   2.0000      -0.527317       -14.3490
  45   2.0000      -0.522171       -14.2090
  46   2.0000      -0.518107       -14.0984
  47   2.0000      -0.509833       -13.8732
  48   2.0000      -0.504991       -13.7415
  49   2.0000      -0.497100       -13.5268
  50   2.0000      -0.494405       -13.4534
  51   2.0000      -0.484493       -13.1837
  52   2.0000      -0.473433       -12.8828
  53   2.0000      -0.466910       -12.7053
  54   2.0000      -0.454194       -12.3593
  55   2.0000      -0.450492       -12.2585
  56   2.0000      -0.449192       -12.2231
  57   2.0000      -0.430594       -11.7171
  58   2.0000      -0.427610       -11.6358
  59   2.0000      -0.425920       -11.5899
  60   2.0000      -0.420484       -11.4420
  61   2.0000      -0.416323       -11.3287
  62   2.0000      -0.410797       -11.1783
  63   2.0000      -0.347207        -9.4480
  64   2.0000      -0.332631        -9.0514
  65   2.0000      -0.328596        -8.9416
  66   2.0000      -0.293156        -7.9772
  67   0.0000       0.029205         0.7947
  68   0.0000       0.066917         1.8209
  69   0.0000       0.107387         2.9222
  70   0.0000       0.125549         3.4164
  71   0.0000       0.137174         3.7327

MULLIKEN ATOMIC CHARGES
-----------------------
   0 S :    0.095652
   1 C :   -0.150123
   2 C :   -0.050603
   3 C :    0.054445
   4 C :   -0.159753
   5 H :   -0.023746
   6 C :    0.082322
   7 H :    0.034641
   8 H :    0.031543
   9 C :   -0.075143
  10 H :    0.029941
  11 H :    0.006619
  12 C :   -0.036681
  13 H :    0.023243
  14 H :    0.042133
  15 H :    0.019115
  16 S :    0.113911
  17 C :   -0.087762
  18 C :   -0.064177
  19 C :   -0.022740
  20 C :   -0.135654
  21 H :    0.033452
  22 C :    0.042501
  23 H :    0.037270
  24 H :    0.057423
  25 C :   -0.132974
  26 H :    0.035804
  27 H :    0.040647
  28 C :   -0.027925
  29 H :    0.018220
  30 H :    0.029023
  31 H :    0.029244
  32 H :    0.054969
  33 H :    0.055165
Sum of atomic charges:    0.0000000

LOEWDIN ATOMIC CHARGES
----------------------
   0 S :    0.366414
   1 C :   -0.185418
   2 C :   -0.062402
   3 C :   -0.054732
   4 C :   -0.174584
   5 H :    0.021981
   6 C :   -0.021145
   7 H :    0.033852
   8 H :    0.029300
   9 C :   -0.039728
  10 H :    0.023709
  11 H :    0.016490
  12 C :   -0.072419
  13 H :    0.031273
  14 H :    0.028473
  15 H :    0.024332
  16 S :    0.410024
  17 C :   -0.185835
  18 C :   -0.076823
  19 C :   -0.058381
  20 C :   -0.199969
  21 H :    0.038701
  22 C :   -0.039209
  23 H :    0.030507
  24 H :    0.046460
  25 C :   -0.052299
  26 H :    0.031223
  27 H :    0.025127
  28 C :   -0.068564
  29 H :    0.025340
  30 H :    0.026392
  31 H :    0.022464
  32 H :    0.027029
  33 H :    0.032417

  Mayer bond orders larger than 0.100000
B(  0-S ,  1-C ) :   1.1306 B(  0-S ,  4-C ) :   1.1165 B(  1-C ,  2-C ) :   1.6371
B(  1-C , 32-H ) :   0.9608 B(  2-C ,  3-C ) :   1.2283 B(  2-C ,  6-C ) :   1.0060
B(  3-C ,  4-C ) :   1.6251 B(  3-C ,  5-H ) :   0.9934 B(  4-C , 20-C ) :   1.0249
B(  6-C ,  7-H ) :   0.9498 B(  6-C ,  8-H ) :   0.9347 B(  6-C ,  9-C ) :   1.0617
B(  9-C , 10-H ) :   0.9606 B(  9-C , 11-H ) :   0.9479 B(  9-C , 12-C ) :   1.1030
B( 12-C , 13-H ) :   0.9681 B( 12-C , 14-H ) :   0.9732 B( 12-C , 15-H ) :   0.9660
B( 16-S , 17-C ) :   1.1653 B( 16-S , 20-C ) :   1.1424 B( 17-C , 18-C ) :   1.6033
B( 17-C , 20-C ) :   0.1039 B( 17-C , 33-H ) :   0.9577 B( 18-C , 19-C ) :   1.2563
B( 18-C , 21-H ) :   0.9853 B( 19-C , 20-C ) :   1.5930 B( 19-C , 22-C ) :   1.0383
B( 22-C , 23-H ) :   0.9223 B( 22-C , 24-H ) :   0.9318 B( 22-C , 25-C ) :   1.0874
B( 25-C , 26-H ) :   0.9543 B( 25-C , 27-H ) :   0.9514 B( 25-C , 28-C ) :   1.0847
B( 28-C , 29-H ) :   0.9711 B( 28-C , 30-H ) :   0.9711 B( 28-C , 31-H ) :   0.9774

Dispersion correction           -0.013315362
FINAL SINGLE POINT ENERGY     -1339.868241086599

DIPOLE MOMENT
-------------
                                X             Y             Z
Electronic contribution:     22.74144     -14.09585     -14.24913
Nuclear contribution   :    -23.34702      14.55081      14.35815
                        -----------------------------------------
Total Dipole Moment    :     -0.60558       0.45496       0.10902
                        -----------------------------------------
Magnitude (a.u.)       :      0.76524
Magnitude (Debye)      :      1.94508

Rotational constants in cm-1:     0.018043     0.007952     0.005892
Rotational constants in MHz :   540.910703   238.400461   176.645356

                             ****ORCA TERMINATED NORMALLY****
TOTAL RUN TIME: 0 days 0 hours 0 minutes 21 seconds 199 msec
