                         Program Version 4.2.1 -  RELEASE  -
|  1> ! wB97X-D3 SP def2-SVP
|  2> %pal
|  3> nprocs 24
|  4> end
|  5>
|  6> * xyz 0 1
|  7> S 	 -57.6867 	 6.59659 	 -17.391
|  8> C 	 -57.1176 	 4.94587 	 -17.2597
|  9> C 	 -58.0631 	 4.04161 	 -17.7718
| 10> C 	 -59.2806 	 4.71619 	 -18.1304
| 11> C 	 -59.2052 	 6.06186 	 -17.9133
| 12> H 	 -60.2204 	 4.28982 	 -18.4687
| 13> C 	 -58.035 	 2.55249 	 -17.6624
| 14> H 	 -57.0463 	 2.23703 	 -18.0463
| 15> H 	 -58.8698 	 2.20874 	 -18.2838
| 16> C 	 -58.1719 	 1.9935 	 -16.2765
| 17> H 	 -57.3014 	 2.14881 	 -15.6723
| 18> H 	 -59.0346 	 2.45684 	 -15.7979
| 19> C 	 -58.2667 	 0.453256 	 -16.2293
| 20> H 	 -59.2432 	 0.105325 	 -16.5683
| 21> H 	 -57.4961 	 -0.00262727 	 -16.7967
| 22> H 	 -58.1323 	 0.0484866 	 -15.2334
| 23> S 	 -61.1956 	 7.51223 	 -16.5425
| 24> C 	 -62.1749 	 8.63922 	 -17.4107
| 25> C 	 -61.9231 	 8.5962 	 -18.7639
| 26> C 	 -60.8437 	 7.75266 	 -19.0858
| 27> C 	 -60.2635 	 7.07872 	 -17.9912
| 28> H 	 -62.4926 	 9.17571 	 -19.4838
| 29> C 	 -60.3577 	 7.84091 	 -20.5574
| 30> H 	 -59.2736 	 7.79918 	 -20.4583
| 31> H 	 -60.5022 	 8.82621 	 -20.884
| 32> C 	 -60.9809 	 6.90904 	 -21.5993
| 33> H 	 -60.5928 	 7.23307 	 -22.6528
| 34> H 	 -62.0427 	 7.28173 	 -21.5653
| 35> C 	 -60.8372 	 5.41716 	 -21.3004
| 36> H 	 -59.7579 	 5.3239 	 -21.0803
| 37> H 	 -61.1729 	 4.81555 	 -22.1429
| 38> H 	 -61.4658 	 5.08158 	 -20.4907
| 39> H 	 -56.1251 	 4.64943 	 -16.8538
| 40> H 	 -62.7781 	 9.46175 	 -16.9109
| 41> *
| 42>
| 43>                          ****END OF INPUT****

CARTESIAN COORDINATES (ANGSTROEM)
---------------------------------
  S    -57.686700    6.596590  -17.391000
  C    -57.117600    4.945870  -17.259700
  C    -58.063100    4.041610  -17.771800
  C    -59.280600    4.716190  -18.130400
  C    -59.205200    6.061860  -17.913300
  H    -60.220400    4.289820  -18.468700
  C    -58.035000    2.552490  -17.662400
  H    -57.046300    2.237030  -18.046300
  H    -58.869800    2.208740  -18.283800
  C    -58.171900    1.993500  -16.276500
  H    -57.301400    2.148810  -15.672300
  H    -59.034600    2.456840  -15.797900
  C    -58.266700    0.453256  -16.229300
  H    -59.243200    0.105325  -16.568300
  H    -57.496100   -0.002627  -16.796700
  H    -58.132300    0.048487  -15.233400
  S    -61.195600    7.512230  -16.542500
  C    -62.174900    8.639220  -17.410700
  C    -61.923100    8.596200  -18.763900
  C    -60.843700    7.752660  -19.085800
  C    -60.263500    7.078720  -17.991200
  H    -62.492600    9.175710  -19.483800
  C    -60.357700    7.840910  -20.557400
  H    -59.273600    7.799180  -20.458300
  H    -60.502200    8.826210  -20.884000
  C    -60.980900    6.909040  -21.599300
  H    -60.592800    7.233070  -22.652800
  H    -62.042700    7.281730  -21.565300
  C    -60.837200    5.417160  -21.300400
  H    -59.757900    5.323900  -21.080300
  H    -61.172900    4.815550  -22.142900
  H    -61.465800    5.081580  -20.490700
  H    -56.125100    4.649430  -16.853800
  H    -62.778100    9.461750  -16.910900

 Total Charge           Charge          ....    0
 Multiplicity           Mult            ....    1
 Number of Electrons    NEL             ....  134
 Basis Dimension        Dim             ....  322

ORBITAL ENERGIES
----------------

  NO   OCC          E(Eh)            E(eV)
   0   2.0000     -88.966568     -2420.9034
   1   2.0000     -88.964739     -2420.8536
   2   2.0000     -10.328177      -281.0440
   3   2.0000     -10.322531      -280.8904
   4   2.0000     -10.319891      -280.8185
   5   2.0000     -10.317560      -280.7551
   6   2.0000     -10.303010      -280.3592
   7   2.0000     -10.301912      -280.3293
   8   2.0000     -10.295566      -280.1566
   9   2.0000     -10.293342      -280.0961
  10   2.0000     -10.290528      -280.0195
  11   2.0000     -10.289366      -279.9879
  12   2.0000     -10.284072      -279.8438
  13   2.0000     -10.281706      -279.7794
  14   2.0000     -10.275767      -279.6178
  15   2.0000     -10.273570      -279.5580
  16   2.0000      -8.082267      -219.9297
  17   2.0000      -8.079431      -219.8525
  18   2.0000      -6.040591      -164.3728
  19   2.0000      -6.037902      -164.2997
  20   2.0000      -6.036535      -164.2625
  21   2.0000      -6.033775      -164.1874
  22   2.0000      -6.033263      -164.1734
  23   2.0000      -6.030408      -164.0957
  24   2.0000      -1.009147       -27.4603
  25   2.0000      -0.985901       -26.8277
  26   2.0000      -0.918304       -24.9883
  27   2.0000      -0.904870       -24.6228
  28   2.0000      -0.866238       -23.5715
  29   2.0000      -0.851337       -23.1661
  30   2.0000      -0.845360       -23.0034
  31   2.0000      -0.812320       -22.1043
  32   2.0000      -0.785502       -21.3746
  33   2.0000      -0.772247       -21.0139
  34   2.0000      -0.703390       -19.1402
  35   2.0000      -0.699031       -19.0216
  36   2.0000      -0.682924       -18.5833
  37   2.0000      -0.655003       -17.8235
  38   2.0000      -0.644626       -17.5412
  39   2.0000      -0.617204       -16.7950
  40   2.0000      -0.589944       -16.0532
  41   2.0000      -0.575207       -15.6522
  42   2.0000      -0.563522       -15.3342
  43   2.0000      -0.552332       -15.0297
  44   2.0000      -0.540661       -14.7121
  45   2.0000      -0.520692       -14.1688
  46   2.0000      -0.516861       -14.0645
  47   2.0000      -0.512146       -13.9362
  48   2.0000      -0.507105       -13.7990
  49   2.0000      -0.498594       -13.5674
  50   2.0000      -0.494080       -13.4446
  51   2.0000      -0.475462       -12.9380
  52   2.0000      -0.467706       -12.7269
  53   2.0000      -0.461741       -12.5646
  54   2.0000      -0.455411       -12.3924
  55   2.0000      -0.447140       -12.1673
  56   2.0000      -0.443880       -12.0786
  57   2.0000      -0.438988       -11.9455
  58   2.0000      -0.435206       -11.8426
  59   2.0000      -0.426791       -11.6136
  60   2.0000      -0.417880       -11.3711
  61   2.0000      -0.415947       -11.3185
  62   2.0000      -0.403175       -10.9710
  63   2.0000      -0.337966        -9.1965
  64   2.0000      -0.328455        -8.9377
  65   2.0000      -0.316672        -8.6171
  66   2.0000      -0.312172        -8.4946
  67   0.0000       0.038731         1.0539
  68   0.0000       0.057941         1.5767
  69   0.0000       0.114996         3.1292
  70   0.0000       0.121095         3.2952
  71   0.0000       0.129100         3.5130

MULLIKEN ATOMIC CHARGES
-----------------------
   0 S :    0.134427
   1 C :   -0.144154
   2 C :   -0.085042
   3 C :    0.052162
   4 C :   -0.191171
   5 H :    0.011827
   6 C :    0.070483
   7 H :    0.025813
   8 H :    0.024526
   9 C :   -0.058825
  10 H :    0.019036
  11 H :    0.030262
  12 C :   -0.032856
  13 H :    0.026495
  14 H :    0.017556
  15 H :    0.027653
  16 S :    0.114741
  17 C :   -0.117352
  18 C :   -0.037278
  19 C :   -0.023798
  20 C :   -0.184893
  21 H :    0.022326
  22 C :    0.072155
  23 H :    0.019709
  24 H :    0.004542
  25 C :   -0.098916
  26 H :    0.045465
  27 H :    0.021165
  28 C :   -0.033251
  29 H :    0.050152
  30 H :    0.034587
  31 H :    0.037632
  32 H :    0.058974
  33 H :    0.085852
Sum of atomic charges:    0.0000000

LOEWDIN ATOMIC CHARGES
----------------------
   0 S :    0.441086
   1 C :   -0.206018
   2 C :   -0.062459
   3 C :   -0.057957
   4 C :   -0.217950
   5 H :    0.033735
   6 C :   -0.034810
   7 H :    0.033725
   8 H :    0.032514
   9 C :   -0.037016
  10 H :    0.021651
  11 H :    0.025346
  12 C :   -0.059995
  13 H :    0.021816
  14 H :    0.018947
  15 H :    0.026081
  16 S :    0.409990
  17 C :   -0.201643
  18 C :   -0.080124
  19 C :   -0.052014
  20 C :   -0.211148
  21 H :    0.032253
  22 C :   -0.032263
  23 H :    0.025762
  24 H :    0.022815
  25 C :   -0.047383
  26 H :    0.034266
  27 H :    0.022940
  28 C :   -0.067577
  29 H :    0.033875
  30 H :    0.027723
  31 H :    0.024386
  32 H :    0.033461
  33 H :    0.045987

  Mayer bond orders larger than 0.100000
B(  0-S ,  1-C ) :   1.1497 B(  0-S ,  4-C ) :   1.1875 B(  1-C ,  2-C ) :   1.5854
B(  1-C , 32-H ) :   0.9687 B(  2-C ,  3-C ) :   1.2285 B(  2-C ,  6-C ) :   1.0417
B(  3-C ,  4-C ) :   1.5940 B(  3-C ,  5-H ) :   0.9959 B(  4-C , 20-C ) :   0.9873
B(  6-C ,  7-H ) :   0.9231 B(  6-C ,  8-H ) :   0.9405 B(  6-C ,  9-C ) :   1.0826
B(  9-C , 10-H ) :   0.9513 B(  9-C , 11-H ) :   0.9563 B(  9-C , 12-C ) :   1.0831
B( 12-C , 13-H ) :   0.9767 B( 12-C , 14-H ) :   0.9726 B( 12-C , 15-H ) :   0.9757
B( 16-S , 17-C ) :   1.1796 B( 16-S , 20-C ) :   1.1467 B( 17-C , 18-C ) :   1.5747
B( 17-C , 20-C ) :   0.1073 B( 17-C , 33-H ) :   0.9545 B( 18-C , 19-C ) :   1.2815
B( 18-C , 21-H ) :   0.9882 B( 19-C , 20-C ) :   1.5755 B( 19-C , 22-C ) :   1.0166
B( 22-C , 23-H ) :   0.9352 B( 22-C , 24-H ) :   0.9411 B( 22-C , 25-C ) :   1.0679
B( 25-C , 26-H ) :   0.9540 B( 25-C , 27-H ) :   0.9522 B( 25-C , 28-C ) :   1.0710
B( 28-C , 29-H ) :   0.9742 B( 28-C , 30-H ) :   0.9702 B( 28-C , 31-H ) :   0.9689

Dispersion correction           -0.014995108
FINAL SINGLE POINT ENERGY     -1339.877956544745

DIPOLE MOMENT
-------------
                                X             Y             Z
Electronic contribution:      0.37694      20.36262      11.13313
Nuclear contribution   :     -0.43967     -20.59177     -11.36305
                        -----------------------------------------
Total Dipole Moment    :     -0.06273      -0.22915      -0.22992
                        -----------------------------------------
Magnitude (a.u.)       :      0.33062
Magnitude (Debye)      :      0.84036

Rotational constants in cm-1:     0.020584     0.007942     0.007082
Rotational constants in MHz :   617.086409   238.107459   212.316289

                             ****ORCA TERMINATED NORMALLY****
TOTAL RUN TIME: 0 days 0 hours 0 minutes 21 seconds 951 msec
