                         Program Version 4.2.1 -  RELEASE  -
|  1> ! wB97X-D3 SP def2-SVP
|  2> %pal
|  3> nprocs 24
|  4> end
|  5>
|  6> * xyz 0 1
|  7> S 	 -106.512 	 55.3461 	 -11.719
|  8> C 	 -106.743 	 56.7176 	 -12.6786
|  9> C 	 -106.22 	 56.445 	 -13.9525
| 10> C 	 -105.811 	 55.076 	 -14.0718
| 11> C 	 -105.953 	 54.2823 	 -12.9815
| 12> H 	 -105.515 	 54.5776 	 -14.9854
| 13> C 	 -106.165 	 57.2643 	 -15.1991
| 14> H 	 -106.673 	 58.2507 	 -15.1358
| 15> H 	 -106.727 	 56.8446 	 -16.0183
| 16> C 	 -104.772 	 57.2877 	 -15.8417
| 17> H 	 -103.98 	 57.6551 	 -15.2103
| 18> H 	 -104.449 	 56.3286 	 -16.1504
| 19> C 	 -104.557 	 58.2123 	 -17.0665
| 20> H 	 -103.613 	 57.9412 	 -17.5645
| 21> H 	 -105.208 	 58.2253 	 -17.866
| 22> H 	 -104.439 	 59.2245 	 -16.8427
| 23> S 	 -107.03 	 51.7406 	 -13.0083
| 24> C 	 -105.945 	 50.4309 	 -12.8679
| 25> C 	 -104.611 	 50.7892 	 -12.8184
| 26> C 	 -104.457 	 52.2093 	 -12.8606
| 27> C 	 -105.704 	 52.8555 	 -12.9002
| 28> H 	 -103.859 	 50.1131 	 -12.8056
| 29> C 	 -103.069 	 52.9117 	 -12.8006
| 30> H 	 -103.107 	 53.9649 	 -13.1071
| 31> H 	 -102.361 	 52.6394 	 -13.627
| 32> C 	 -102.399 	 52.8869 	 -11.4072
| 33> H 	 -101.39 	 53.4417 	 -11.572
| 34> H 	 -102.199 	 51.8998 	 -11.03
| 35> C 	 -103.209 	 53.5766 	 -10.3174
| 36> H 	 -102.712 	 53.5659 	 -9.31875
| 37> H 	 -104.114 	 52.9464 	 -10.1691
| 38> H 	 -103.529 	 54.5778 	 -10.5262
| 39> H 	 -107.167 	 57.6609 	 -12.3728
| 40> H 	 -106.269 	 49.4264 	 -12.8913
| 41> *
| 42>
| 43>                          ****END OF INPUT****

CARTESIAN COORDINATES (ANGSTROEM)
---------------------------------
  S    -106.512000   55.346100  -11.719000
  C    -106.743000   56.717600  -12.678600
  C    -106.220000   56.445000  -13.952500
  C    -105.811000   55.076000  -14.071800
  C    -105.953000   54.282300  -12.981500
  H    -105.515000   54.577600  -14.985400
  C    -106.165000   57.264300  -15.199100
  H    -106.673000   58.250700  -15.135800
  H    -106.727000   56.844600  -16.018300
  C    -104.772000   57.287700  -15.841700
  H    -103.980000   57.655100  -15.210300
  H    -104.449000   56.328600  -16.150400
  C    -104.557000   58.212300  -17.066500
  H    -103.613000   57.941200  -17.564500
  H    -105.208000   58.225300  -17.866000
  H    -104.439000   59.224500  -16.842700
  S    -107.030000   51.740600  -13.008300
  C    -105.945000   50.430900  -12.867900
  C    -104.611000   50.789200  -12.818400
  C    -104.457000   52.209300  -12.860600
  C    -105.704000   52.855500  -12.900200
  H    -103.859000   50.113100  -12.805600
  C    -103.069000   52.911700  -12.800600
  H    -103.107000   53.964900  -13.107100
  H    -102.361000   52.639400  -13.627000
  C    -102.399000   52.886900  -11.407200
  H    -101.390000   53.441700  -11.572000
  H    -102.199000   51.899800  -11.030000
  C    -103.209000   53.576600  -10.317400
  H    -102.712000   53.565900   -9.318750
  H    -104.114000   52.946400  -10.169100
  H    -103.529000   54.577800  -10.526200
  H    -107.167000   57.660900  -12.372800
  H    -106.269000   49.426400  -12.891300

 Total Charge           Charge          ....    0
 Multiplicity           Mult            ....    1
 Number of Electrons    NEL             ....  134
 Basis Dimension        Dim             ....  322

ORBITAL ENERGIES
----------------

  NO   OCC          E(Eh)            E(eV)
   0   2.0000     -88.970607     -2421.0133
   1   2.0000     -88.961299     -2420.7600
   2   2.0000     -10.326021      -280.9853
   3   2.0000     -10.321387      -280.8592
   4   2.0000     -10.314956      -280.6842
   5   2.0000     -10.313758      -280.6516
   6   2.0000     -10.309739      -280.5423
   7   2.0000     -10.301129      -280.3080
   8   2.0000     -10.297335      -280.2047
   9   2.0000     -10.291271      -280.0397
  10   2.0000     -10.290127      -280.0086
  11   2.0000     -10.288327      -279.9596
  12   2.0000     -10.286153      -279.9005
  13   2.0000     -10.283152      -279.8188
  14   2.0000     -10.270415      -279.4722
  15   2.0000     -10.266587      -279.3680
  16   2.0000      -8.086253      -220.0381
  17   2.0000      -8.076966      -219.7854
  18   2.0000      -6.044533      -164.4801
  19   2.0000      -6.040594      -164.3729
  20   2.0000      -6.037253      -164.2820
  21   2.0000      -6.035442      -164.2327
  22   2.0000      -6.031061      -164.1135
  23   2.0000      -6.027943      -164.0287
  24   2.0000      -1.012624       -27.5549
  25   2.0000      -0.992481       -27.0068
  26   2.0000      -0.911769       -24.8105
  27   2.0000      -0.903065       -24.5737
  28   2.0000      -0.874948       -23.8085
  29   2.0000      -0.849987       -23.1293
  30   2.0000      -0.848094       -23.0778
  31   2.0000      -0.815466       -22.1899
  32   2.0000      -0.784285       -21.3415
  33   2.0000      -0.773697       -21.0534
  34   2.0000      -0.711263       -19.3545
  35   2.0000      -0.699026       -19.0215
  36   2.0000      -0.689347       -18.7581
  37   2.0000      -0.663180       -18.0461
  38   2.0000      -0.649728       -17.6800
  39   2.0000      -0.622973       -16.9520
  40   2.0000      -0.606666       -16.5082
  41   2.0000      -0.575772       -15.6675
  42   2.0000      -0.560612       -15.2550
  43   2.0000      -0.543531       -14.7902
  44   2.0000      -0.539211       -14.6727
  45   2.0000      -0.525445       -14.2981
  46   2.0000      -0.518996       -14.1226
  47   2.0000      -0.510959       -13.9039
  48   2.0000      -0.502298       -13.6682
  49   2.0000      -0.497400       -13.5349
  50   2.0000      -0.489495       -13.3198
  51   2.0000      -0.477690       -12.9986
  52   2.0000      -0.472255       -12.8507
  53   2.0000      -0.465905       -12.6779
  54   2.0000      -0.464751       -12.6465
  55   2.0000      -0.450692       -12.2640
  56   2.0000      -0.443078       -12.0568
  57   2.0000      -0.438935       -11.9440
  58   2.0000      -0.435502       -11.8506
  59   2.0000      -0.417032       -11.3480
  60   2.0000      -0.414578       -11.2812
  61   2.0000      -0.411914       -11.2088
  62   2.0000      -0.406816       -11.0700
  63   2.0000      -0.340115        -9.2550
  64   2.0000      -0.332073        -9.0362
  65   2.0000      -0.319746        -8.7007
  66   2.0000      -0.308675        -8.3995
  67   0.0000       0.041987         1.1425
  68   0.0000       0.062443         1.6992
  69   0.0000       0.115180         3.1342
  70   0.0000       0.125944         3.4271
  71   0.0000       0.132284         3.5996

MULLIKEN ATOMIC CHARGES
-----------------------
   0 S :    0.113386
   1 C :   -0.111317
   2 C :   -0.056632
   3 C :    0.024125
   4 C :   -0.165667
   5 H :    0.010407
   6 C :    0.083458
   7 H :    0.018768
   8 H :    0.025669
   9 C :   -0.078483
  10 H :    0.025479
  11 H :    0.021937
  12 C :   -0.024885
  13 H :    0.019283
  14 H :    0.002744
  15 H :    0.014637
  16 S :    0.143313
  17 C :   -0.073958
  18 C :    0.014798
  19 C :   -0.009396
  20 C :   -0.197014
  21 H :   -0.026454
  22 C :    0.054512
  23 H :    0.018637
  24 H :    0.035534
  25 C :   -0.082065
  26 H :    0.038615
  27 H :    0.027821
  28 C :   -0.062695
  29 H :    0.037272
  30 H :    0.037892
  31 H :    0.028759
  32 H :    0.049133
  33 H :    0.042385
Sum of atomic charges:   -0.0000000

LOEWDIN ATOMIC CHARGES
----------------------
   0 S :    0.434665
   1 C :   -0.211598
   2 C :   -0.068752
   3 C :   -0.059767
   4 C :   -0.208907
   5 H :    0.029295
   6 C :   -0.039646
   7 H :    0.031431
   8 H :    0.034381
   9 C :   -0.032168
  10 H :    0.025472
  11 H :    0.017704
  12 C :   -0.062923
  13 H :    0.032271
  14 H :    0.010143
  15 H :    0.016784
  16 S :    0.444069
  17 C :   -0.184653
  18 C :   -0.056256
  19 C :   -0.040881
  20 C :   -0.214706
  21 H :    0.013773
  22 C :   -0.043995
  23 H :    0.032452
  24 H :    0.037945
  25 C :   -0.042645
  26 H :    0.031880
  27 H :    0.018264
  28 C :   -0.071800
  29 H :    0.030332
  30 H :    0.029399
  31 H :    0.015805
  32 H :    0.032652
  33 H :    0.019977

  Mayer bond orders larger than 0.100000
B(  0-S ,  1-C ) :   1.1694 B(  0-S ,  4-C ) :   1.1465 B(  1-C ,  2-C ) :   1.5590
B(  1-C , 32-H ) :   0.9769 B(  2-C ,  3-C ) :   1.2423 B(  2-C ,  6-C ) :   1.0486
B(  3-C ,  4-C ) :   1.5944 B(  3-C ,  5-H ) :   0.9937 B(  4-C , 20-C ) :   1.0226
B(  6-C ,  7-H ) :   0.9475 B(  6-C ,  8-H ) :   0.9345 B(  6-C ,  9-C ) :   1.0410
B(  9-C , 10-H ) :   0.9572 B(  9-C , 11-H ) :   0.9585 B(  9-C , 12-C ) :   1.0827
B( 12-C , 13-H ) :   0.9716 B( 12-C , 14-H ) :   0.9733 B( 12-C , 15-H ) :   0.9767
B( 16-S , 17-C ) :   1.1788 B( 16-S , 20-C ) :   1.1656 B( 17-C , 18-C ) :   1.5787
B( 17-C , 33-H ) :   0.9720 B( 18-C , 19-C ) :   1.2554 B( 18-C , 21-H ) :   1.0104
B( 19-C , 20-C ) :   1.5748 B( 19-C , 22-C ) :   1.0349 B( 22-C , 23-H ) :   0.9297
B( 22-C , 24-H ) :   0.9403 B( 22-C , 25-C ) :   1.0638 B( 25-C , 26-H ) :   0.9524
B( 25-C , 27-H ) :   0.9612 B( 25-C , 28-C ) :   1.0749 B( 28-C , 29-H ) :   0.9726
B( 28-C , 30-H ) :   0.9711 B( 28-C , 31-H ) :   0.9750

Dispersion correction           -0.015097519
FINAL SINGLE POINT ENERGY     -1339.867063509001

DIPOLE MOMENT
-------------
                                X             Y             Z
Electronic contribution:    -18.14174     -13.02233       9.15882
Nuclear contribution   :     18.46824      13.04689      -9.61016
                        -----------------------------------------
Total Dipole Moment    :      0.32650       0.02456      -0.45134
                        -----------------------------------------
Magnitude (a.u.)       :      0.55759
Magnitude (Debye)      :      1.41729

Rotational constants in cm-1:     0.019006     0.008177     0.007750
Rotational constants in MHz :   569.778060   245.129419   232.326630

                             ****ORCA TERMINATED NORMALLY****
TOTAL RUN TIME: 0 days 0 hours 0 minutes 20 seconds 741 msec
