                         Program Version 4.2.1 -  RELEASE  -
|  1> ! wB97X-D3 SP def2-SVP
|  2> %pal
|  3> nprocs 24
|  4> end
|  5>
|  6> * xyz 0 1
|  7> S 	 -121.079 	 59.5345 	 -35.6729
|  8> C 	 -122.332 	 60.1003 	 -36.8401
|  9> C 	 -122.054 	 61.3551 	 -37.4141
| 10> C 	 -120.849 	 61.9493 	 -36.8452
| 11> C 	 -120.248 	 61.123 	 -35.9101
| 12> H 	 -120.446 	 62.9179 	 -37.0628
| 13> C 	 -122.901 	 62.0774 	 -38.4219
| 14> H 	 -123.365 	 62.8441 	 -37.773
| 15> H 	 -123.779 	 61.446 	 -38.6329
| 16> C 	 -122.183 	 62.7238 	 -39.6504
| 17> H 	 -122.949 	 63.2171 	 -40.2737
| 18> H 	 -121.489 	 63.5239 	 -39.3921
| 19> C 	 -121.455 	 61.6553 	 -40.4684
| 20> H 	 -122.175 	 60.9476 	 -40.8897
| 21> H 	 -120.828 	 62.1478 	 -41.1819
| 22> H 	 -120.69 	 61.1929 	 -39.8453
| 23> S 	 -117.726 	 60.3065 	 -35.2527
| 24> C 	 -116.881 	 61.3113 	 -34.0276
| 25> C 	 -117.277 	 62.579 	 -34.0456
| 26> C 	 -118.58 	 62.7357 	 -34.7259
| 27> C 	 -119.019 	 61.502 	 -35.1803
| 28> H 	 -116.759 	 63.3398 	 -33.4889
| 29> C 	 -119.308 	 64.1473 	 -34.7417
| 30> H 	 -120.335 	 63.9088 	 -34.928
| 31> H 	 -118.932 	 64.7312 	 -35.5559
| 32> C 	 -119.15 	 64.9065 	 -33.3999
| 33> H 	 -118.11 	 65.092 	 -33.2261
| 34> H 	 -119.511 	 64.3069 	 -32.5413
| 35> C 	 -119.899 	 66.2255 	 -33.3833
| 36> H 	 -119.832 	 66.7993 	 -32.4803
| 37> H 	 -120.932 	 66.2279 	 -33.6866
| 38> H 	 -119.479 	 66.8721 	 -34.1451
| 39> H 	 -123.229 	 59.5272 	 -37.1027
| 40> H 	 -116.039 	 61.043 	 -33.4123
| 41> *
| 42>
| 43>                          ****END OF INPUT****

CARTESIAN COORDINATES (ANGSTROEM)
---------------------------------
  S    -121.079000   59.534500  -35.672900
  C    -122.332000   60.100300  -36.840100
  C    -122.054000   61.355100  -37.414100
  C    -120.849000   61.949300  -36.845200
  C    -120.248000   61.123000  -35.910100
  H    -120.446000   62.917900  -37.062800
  C    -122.901000   62.077400  -38.421900
  H    -123.365000   62.844100  -37.773000
  H    -123.779000   61.446000  -38.632900
  C    -122.183000   62.723800  -39.650400
  H    -122.949000   63.217100  -40.273700
  H    -121.489000   63.523900  -39.392100
  C    -121.455000   61.655300  -40.468400
  H    -122.175000   60.947600  -40.889700
  H    -120.828000   62.147800  -41.181900
  H    -120.690000   61.192900  -39.845300
  S    -117.726000   60.306500  -35.252700
  C    -116.881000   61.311300  -34.027600
  C    -117.277000   62.579000  -34.045600
  C    -118.580000   62.735700  -34.725900
  C    -119.019000   61.502000  -35.180300
  H    -116.759000   63.339800  -33.488900
  C    -119.308000   64.147300  -34.741700
  H    -120.335000   63.908800  -34.928000
  H    -118.932000   64.731200  -35.555900
  C    -119.150000   64.906500  -33.399900
  H    -118.110000   65.092000  -33.226100
  H    -119.511000   64.306900  -32.541300
  C    -119.899000   66.225500  -33.383300
  H    -119.832000   66.799300  -32.480300
  H    -120.932000   66.227900  -33.686600
  H    -119.479000   66.872100  -34.145100
  H    -123.229000   59.527200  -37.102700
  H    -116.039000   61.043000  -33.412300

 Total Charge           Charge          ....    0
 Multiplicity           Mult            ....    1
 Number of Electrons    NEL             ....  134
 Basis Dimension        Dim             ....  322

ORBITAL ENERGIES
----------------

  NO   OCC          E(Eh)            E(eV)
   0   2.0000     -88.969795     -2420.9912
   1   2.0000     -88.959942     -2420.7231
   2   2.0000     -10.333603      -281.1916
   3   2.0000     -10.326561      -281.0000
   4   2.0000     -10.320137      -280.8252
   5   2.0000     -10.310256      -280.5563
   6   2.0000     -10.309650      -280.5398
   7   2.0000     -10.307330      -280.4767
   8   2.0000     -10.297668      -280.2138
   9   2.0000     -10.297416      -280.2069
  10   2.0000     -10.296989      -280.1953
  11   2.0000     -10.294125      -280.1174
  12   2.0000     -10.289999      -280.0051
  13   2.0000     -10.288988      -279.9776
  14   2.0000     -10.273463      -279.5551
  15   2.0000     -10.273368      -279.5526
  16   2.0000      -8.082459      -219.9349
  17   2.0000      -8.074366      -219.7147
  18   2.0000      -6.041124      -164.3874
  19   2.0000      -6.037537      -164.2897
  20   2.0000      -6.033093      -164.1688
  21   2.0000      -6.032896      -164.1634
  22   2.0000      -6.029513      -164.0714
  23   2.0000      -6.024310      -163.9298
  24   2.0000      -0.996642       -27.1200
  25   2.0000      -0.971633       -26.4395
  26   2.0000      -0.908811       -24.7300
  27   2.0000      -0.906225       -24.6596
  28   2.0000      -0.866286       -23.5728
  29   2.0000      -0.848084       -23.0775
  30   2.0000      -0.840767       -22.8784
  31   2.0000      -0.815440       -22.1893
  32   2.0000      -0.781351       -21.2616
  33   2.0000      -0.769990       -20.9525
  34   2.0000      -0.710151       -19.3242
  35   2.0000      -0.702373       -19.1125
  36   2.0000      -0.692316       -18.8389
  37   2.0000      -0.652664       -17.7599
  38   2.0000      -0.634199       -17.2574
  39   2.0000      -0.618129       -16.8201
  40   2.0000      -0.590905       -16.0794
  41   2.0000      -0.569614       -15.5000
  42   2.0000      -0.561378       -15.2759
  43   2.0000      -0.552736       -15.0407
  44   2.0000      -0.539271       -14.6743
  45   2.0000      -0.527490       -14.3537
  46   2.0000      -0.518210       -14.1012
  47   2.0000      -0.507649       -13.8138
  48   2.0000      -0.499694       -13.5974
  49   2.0000      -0.490188       -13.3387
  50   2.0000      -0.486304       -13.2330
  51   2.0000      -0.478696       -13.0260
  52   2.0000      -0.468094       -12.7375
  53   2.0000      -0.464301       -12.6343
  54   2.0000      -0.458440       -12.4748
  55   2.0000      -0.449846       -12.2409
  56   2.0000      -0.445220       -12.1150
  57   2.0000      -0.435553       -11.8520
  58   2.0000      -0.435253       -11.8438
  59   2.0000      -0.426280       -11.5997
  60   2.0000      -0.422089       -11.4856
  61   2.0000      -0.420262       -11.4359
  62   2.0000      -0.418485       -11.3876
  63   2.0000      -0.345890        -9.4122
  64   2.0000      -0.326776        -8.8920
  65   2.0000      -0.325073        -8.8457
  66   2.0000      -0.288780        -7.8581
  67   0.0000       0.024751         0.6735
  68   0.0000       0.073191         1.9916
  69   0.0000       0.091490         2.4896
  70   0.0000       0.111889         3.0447
  71   0.0000       0.129353         3.5199

MULLIKEN ATOMIC CHARGES
-----------------------
   0 S :    0.109659
   1 C :   -0.131523
   2 C :   -0.105829
   3 C :    0.019528
   4 C :   -0.140073
   5 H :    0.009495
   6 C :    0.061789
   7 H :    0.041865
   8 H :    0.015941
   9 C :   -0.077557
  10 H :    0.034388
  11 H :    0.030053
  12 C :   -0.031915
  13 H :    0.043308
  14 H :    0.021925
  15 H :    0.039954
  16 S :    0.083866
  17 C :   -0.069096
  18 C :   -0.031745
  19 C :   -0.053780
  20 C :   -0.151975
  21 H :    0.018404
  22 C :    0.080978
  23 H :    0.025558
  24 H :    0.037199
  25 C :   -0.084076
  26 H :    0.027724
  27 H :    0.042522
  28 C :   -0.022213
  29 H :    0.031382
  30 H :    0.022229
  31 H :    0.007714
  32 H :    0.051872
  33 H :    0.042428
Sum of atomic charges:   -0.0000000

LOEWDIN ATOMIC CHARGES
----------------------
   0 S :    0.361259
   1 C :   -0.191725
   2 C :   -0.057328
   3 C :   -0.056636
   4 C :   -0.174090
   5 H :    0.028473
   6 C :   -0.041210
   7 H :    0.040325
   8 H :    0.031408
   9 C :   -0.040315
  10 H :    0.028331
  11 H :    0.023420
  12 C :   -0.062810
  13 H :    0.028946
  14 H :    0.022908
  15 H :    0.029725
  16 S :    0.359256
  17 C :   -0.161599
  18 C :   -0.067147
  19 C :   -0.048758
  20 C :   -0.187185
  21 H :    0.029877
  22 C :   -0.021827
  23 H :    0.026647
  24 H :    0.028681
  25 C :   -0.038705
  26 H :    0.019058
  27 H :    0.031147
  28 C :   -0.067968
  29 H :    0.025255
  30 H :    0.023506
  31 H :    0.022672
  32 H :    0.029267
  33 H :    0.027142

  Mayer bond orders larger than 0.100000
B(  0-S ,  1-C ) :   1.1071 B(  0-S ,  4-C ) :   1.1252 B(  1-C ,  2-C ) :   1.6485
B(  1-C , 32-H ) :   0.9601 B(  2-C ,  3-C ) :   1.1863 B(  2-C ,  6-C ) :   1.0212
B(  3-C ,  4-C ) :   1.6088 B(  3-C ,  5-H ) :   0.9912 B(  4-C , 20-C ) :   1.0404
B(  6-C ,  7-H ) :   0.9325 B(  6-C ,  8-H ) :   0.9404 B(  6-C ,  9-C ) :   1.0597
B(  9-C , 10-H ) :   0.9551 B(  9-C , 11-H ) :   0.9537 B(  9-C , 12-C ) :   1.0817
B( 12-C , 13-H ) :   0.9769 B( 12-C , 14-H ) :   0.9716 B( 12-C , 15-H ) :   0.9706
B( 16-S , 17-C ) :   1.0926 B( 16-S , 20-C ) :   1.1200 B( 17-C , 18-C ) :   1.7160
B( 17-C , 33-H ) :   0.9666 B( 18-C , 19-C ) :   1.1531 B( 18-C , 21-H ) :   0.9866
B( 19-C , 20-C ) :   1.6788 B( 19-C , 22-C ) :   1.0208 B( 22-C , 23-H ) :   0.9369
B( 22-C , 24-H ) :   0.9350 B( 22-C , 25-C ) :   1.0687 B( 25-C , 26-H ) :   0.9490
B( 25-C , 27-H ) :   0.9591 B( 25-C , 28-C ) :   1.0908 B( 28-C , 29-H ) :   0.9733
B( 28-C , 30-H ) :   0.9738 B( 28-C , 31-H ) :   0.9680

Dispersion correction           -0.014001443
FINAL SINGLE POINT ENERGY     -1339.862380800644

DIPOLE MOMENT
-------------
                                X             Y             Z
Electronic contribution:      8.43750     -24.02612       7.94392
Nuclear contribution   :     -8.61374      24.88696      -8.12629
                        -----------------------------------------
Total Dipole Moment    :     -0.17624       0.86084      -0.18237
                        -----------------------------------------
Magnitude (a.u.)       :      0.89742
Magnitude (Debye)      :      2.28105

Rotational constants in cm-1:     0.016335     0.008829     0.006857
Rotational constants in MHz :   489.717589   264.691710   205.581057

                             ****ORCA TERMINATED NORMALLY****
TOTAL RUN TIME: 0 days 0 hours 0 minutes 21 seconds 237 msec
