                         Program Version 4.2.1 -  RELEASE  -
|  1> ! wB97X-D3 SP def2-SVP
|  2> %pal
|  3> nprocs 24
|  4> end
|  5>
|  6> * xyz 0 1
|  7> S 	 -136.425 	 21.3847 	 -19.0392
|  8> C 	 -137.975 	 20.5763 	 -18.8307
|  9> C 	 -138.855 	 21.3303 	 -18.1078
| 10> C 	 -138.183 	 22.4509 	 -17.5694
| 11> C 	 -136.865 	 22.5513 	 -17.87
| 12> H 	 -138.661 	 23.1398 	 -16.8377
| 13> C 	 -140.287 	 20.9165 	 -17.8735
| 14> H 	 -140.333 	 20.5017 	 -16.9155
| 15> H 	 -140.466 	 20.0638 	 -18.5268
| 16> C 	 -141.322 	 22.0612 	 -18.0849
| 17> H 	 -141.004 	 22.8925 	 -17.3726
| 18> H 	 -141.205 	 22.5338 	 -19.0739
| 19> C 	 -142.774 	 21.6342 	 -17.7823
| 20> H 	 -143.584 	 22.1293 	 -18.3958
| 21> H 	 -143.002 	 20.5707 	 -18.0411
| 22> H 	 -143.125 	 21.7289 	 -16.7371
| 23> S 	 -135.135 	 24.642 	 -18.3005
| 24> C 	 -134.137 	 25.2226 	 -16.9965
| 25> C 	 -134.052 	 24.2917 	 -16.005
| 26> C 	 -135.05 	 23.2616 	 -16.1304
| 27> C 	 -135.817 	 23.4088 	 -17.2596
| 28> H 	 -133.397 	 24.4251 	 -15.1733
| 29> C 	 -135.296 	 22.2301 	 -15.0397
| 30> H 	 -134.388 	 21.7352 	 -14.6901
| 31> H 	 -135.753 	 21.414 	 -15.5125
| 32> C 	 -136.026 	 22.6961 	 -13.6932
| 33> H 	 -135.417 	 23.127 	 -12.9591
| 34> H 	 -136.464 	 21.7865 	 -13.2079
| 35> C 	 -137.203 	 23.6178 	 -14.0087
| 36> H 	 -137.65 	 23.807 	 -12.9934
| 37> H 	 -138.038 	 23.1326 	 -14.522
| 38> H 	 -136.864 	 24.5241 	 -14.4912
| 39> H 	 -138.121 	 19.6563 	 -19.3464
| 40> H 	 -133.368 	 26.0019 	 -17.0568
| 41> *
| 42>
| 43>                          ****END OF INPUT****

CARTESIAN COORDINATES (ANGSTROEM)
---------------------------------
  S    -136.425000   21.384700  -19.039200
  C    -137.975000   20.576300  -18.830700
  C    -138.855000   21.330300  -18.107800
  C    -138.183000   22.450900  -17.569400
  C    -136.865000   22.551300  -17.870000
  H    -138.661000   23.139800  -16.837700
  C    -140.287000   20.916500  -17.873500
  H    -140.333000   20.501700  -16.915500
  H    -140.466000   20.063800  -18.526800
  C    -141.322000   22.061200  -18.084900
  H    -141.004000   22.892500  -17.372600
  H    -141.205000   22.533800  -19.073900
  C    -142.774000   21.634200  -17.782300
  H    -143.584000   22.129300  -18.395800
  H    -143.002000   20.570700  -18.041100
  H    -143.125000   21.728900  -16.737100
  S    -135.135000   24.642000  -18.300500
  C    -134.137000   25.222600  -16.996500
  C    -134.052000   24.291700  -16.005000
  C    -135.050000   23.261600  -16.130400
  C    -135.817000   23.408800  -17.259600
  H    -133.397000   24.425100  -15.173300
  C    -135.296000   22.230100  -15.039700
  H    -134.388000   21.735200  -14.690100
  H    -135.753000   21.414000  -15.512500
  C    -136.026000   22.696100  -13.693200
  H    -135.417000   23.127000  -12.959100
  H    -136.464000   21.786500  -13.207900
  C    -137.203000   23.617800  -14.008700
  H    -137.650000   23.807000  -12.993400
  H    -138.038000   23.132600  -14.522000
  H    -136.864000   24.524100  -14.491200
  H    -138.121000   19.656300  -19.346400
  H    -133.368000   26.001900  -17.056800

 Total Charge           Charge          ....    0
 Multiplicity           Mult            ....    1
 Number of Electrons    NEL             ....  134
 Basis Dimension        Dim             ....  322

ORBITAL ENERGIES
----------------

  NO   OCC          E(Eh)            E(eV)
   0   2.0000     -88.961872     -2420.7756
   1   2.0000     -88.960903     -2420.7492
   2   2.0000     -10.325316      -280.9661
   3   2.0000     -10.323716      -280.9226
   4   2.0000     -10.314609      -280.6748
   5   2.0000     -10.309807      -280.5441
   6   2.0000     -10.302735      -280.3517
   7   2.0000     -10.300548      -280.2922
   8   2.0000     -10.298099      -280.2255
   9   2.0000     -10.292166      -280.0641
  10   2.0000     -10.291210      -280.0381
  11   2.0000     -10.289816      -280.0001
  12   2.0000     -10.289132      -279.9815
  13   2.0000     -10.287321      -279.9322
  14   2.0000     -10.285919      -279.8941
  15   2.0000     -10.273871      -279.5663
  16   2.0000      -8.077065      -219.7881
  17   2.0000      -8.076840      -219.7820
  18   2.0000      -6.035574      -164.2363
  19   2.0000      -6.035131      -164.2243
  20   2.0000      -6.031662      -164.1299
  21   2.0000      -6.031336      -164.1210
  22   2.0000      -6.027636      -164.0203
  23   2.0000      -6.027594      -164.0192
  24   2.0000      -1.012079       -27.5401
  25   2.0000      -0.989966       -26.9383
  26   2.0000      -0.911019       -24.7901
  27   2.0000      -0.900038       -24.4913
  28   2.0000      -0.867580       -23.6081
  29   2.0000      -0.845775       -23.0147
  30   2.0000      -0.844664       -22.9845
  31   2.0000      -0.819486       -22.2994
  32   2.0000      -0.783323       -21.3153
  33   2.0000      -0.772186       -21.0122
  34   2.0000      -0.711468       -19.3600
  35   2.0000      -0.697228       -18.9725
  36   2.0000      -0.689358       -18.7584
  37   2.0000      -0.657461       -17.8904
  38   2.0000      -0.647766       -17.6266
  39   2.0000      -0.623203       -16.9582
  40   2.0000      -0.591271       -16.0893
  41   2.0000      -0.569367       -15.4933
  42   2.0000      -0.555731       -15.1222
  43   2.0000      -0.549918       -14.9640
  44   2.0000      -0.540011       -14.6945
  45   2.0000      -0.519342       -14.1320
  46   2.0000      -0.514122       -13.9900
  47   2.0000      -0.514069       -13.9885
  48   2.0000      -0.504453       -13.7269
  49   2.0000      -0.499396       -13.5893
  50   2.0000      -0.492960       -13.4141
  51   2.0000      -0.474715       -12.9176
  52   2.0000      -0.467528       -12.7221
  53   2.0000      -0.462824       -12.5941
  54   2.0000      -0.460140       -12.5210
  55   2.0000      -0.455573       -12.3968
  56   2.0000      -0.447041       -12.1646
  57   2.0000      -0.436164       -11.8686
  58   2.0000      -0.428844       -11.6694
  59   2.0000      -0.422079       -11.4854
  60   2.0000      -0.416435       -11.3318
  61   2.0000      -0.414088       -11.2679
  62   2.0000      -0.411069       -11.1858
  63   2.0000      -0.333858        -9.0847
  64   2.0000      -0.333417        -9.0727
  65   2.0000      -0.324536        -8.8311
  66   2.0000      -0.307905        -8.3785
  67   0.0000       0.048032         1.3070
  68   0.0000       0.052685         1.4336
  69   0.0000       0.108573         2.9544
  70   0.0000       0.122519         3.3339
  71   0.0000       0.130939         3.5630

MULLIKEN ATOMIC CHARGES
-----------------------
   0 S :    0.113495
   1 C :   -0.148605
   2 C :   -0.073888
   3 C :    0.018178
   4 C :   -0.161265
   5 H :    0.021742
   6 C :    0.125048
   7 H :    0.024837
   8 H :    0.012142
   9 C :   -0.102543
  10 H :    0.044160
  11 H :    0.045804
  12 C :   -0.075939
  13 H :    0.039283
  14 H :    0.028072
  15 H :    0.041655
  16 S :    0.097259
  17 C :   -0.075380
  18 C :   -0.034535
  19 C :   -0.037648
  20 C :   -0.177767
  21 H :    0.012000
  22 C :    0.106396
  23 H :    0.018005
  24 H :    0.012500
  25 C :   -0.069034
  26 H :    0.023477
  27 H :    0.030272
  28 C :   -0.065511
  29 H :    0.025111
  30 H :    0.030829
  31 H :    0.054292
  32 H :    0.037219
  33 H :    0.060342
Sum of atomic charges:    0.0000000

LOEWDIN ATOMIC CHARGES
----------------------
   0 S :    0.411397
   1 C :   -0.181186
   2 C :   -0.065313
   3 C :   -0.066968
   4 C :   -0.209656
   5 H :    0.034925
   6 C :   -0.023231
   7 H :    0.026149
   8 H :    0.029389
   9 C :   -0.044760
  10 H :    0.032394
  11 H :    0.031297
  12 C :   -0.084528
  13 H :    0.033944
  14 H :    0.027548
  15 H :    0.028958
  16 S :    0.401707
  17 C :   -0.186856
  18 C :   -0.067999
  19 C :   -0.053758
  20 C :   -0.196705
  21 H :    0.027809
  22 C :   -0.032822
  23 H :    0.032457
  24 H :    0.024593
  25 C :   -0.033211
  26 H :    0.014013
  27 H :    0.031502
  28 C :   -0.069697
  29 H :    0.029790
  30 H :    0.021987
  31 H :    0.025109
  32 H :    0.018037
  33 H :    0.033683

  Mayer bond orders larger than 0.100000
B(  0-S ,  1-C ) :   1.1462 B(  0-S ,  4-C ) :   1.1620 B(  1-C ,  2-C ) :   1.6057
B(  1-C , 32-H ) :   0.9764 B(  2-C ,  3-C ) :   1.2312 B(  2-C ,  6-C ) :   1.0175
B(  3-C ,  4-C ) :   1.6150 B(  3-C ,  5-H ) :   0.9882 B(  4-C , 20-C ) :   0.9809
B(  6-C ,  7-H ) :   0.9338 B(  6-C ,  8-H ) :   0.9345 B(  6-C ,  9-C ) :   1.0519
B(  9-C , 10-H ) :   0.9575 B(  9-C , 11-H ) :   0.9628 B(  9-C , 12-C ) :   1.0625
B( 12-C , 13-H ) :   0.9771 B( 12-C , 14-H ) :   0.9758 B( 12-C , 15-H ) :   0.9773
B( 16-S , 17-C ) :   1.1461 B( 16-S , 20-C ) :   1.1434 B( 17-C , 18-C ) :   1.6352
B( 17-C , 33-H ) :   0.9616 B( 18-C , 19-C ) :   1.2140 B( 18-C , 21-H ) :   0.9962
B( 19-C , 20-C ) :   1.6185 B( 19-C , 22-C ) :   1.0582 B( 22-C , 23-H ) :   0.9348
B( 22-C , 24-H ) :   0.9282 B( 22-C , 25-C ) :   1.0489 B( 25-C , 26-H ) :   0.9622
B( 25-C , 27-H ) :   0.9560 B( 25-C , 28-C ) :   1.0872 B( 28-C , 29-H ) :   0.9699
B( 28-C , 30-H ) :   0.9731 B( 28-C , 31-H ) :   0.9707

Dispersion correction           -0.014990218
FINAL SINGLE POINT ENERGY     -1339.871774021708

DIPOLE MOMENT
-------------
                                X             Y             Z
Electronic contribution:     21.94262       4.55398     -16.86154
Nuclear contribution   :    -22.23376      -4.84306      17.38779
                        -----------------------------------------
Total Dipole Moment    :     -0.29114      -0.28908       0.52625
                        -----------------------------------------
Magnitude (a.u.)       :      0.66729
Magnitude (Debye)      :      1.69611

Rotational constants in cm-1:     0.020119     0.008278     0.007063
Rotational constants in MHz :   603.156381   248.172035   211.748930

                             ****ORCA TERMINATED NORMALLY****
TOTAL RUN TIME: 0 days 0 hours 0 minutes 22 seconds 107 msec
