                         Program Version 4.2.1 -  RELEASE  -
|  1> ! wB97X-D3 SP def2-SVP
|  2> %pal
|  3> nprocs 24
|  4> end
|  5>
|  6> * xyz 0 1
|  7> S 	 -124.469 	 18.27 	 -23.8475
|  8> C 	 -124.313 	 19.5461 	 -22.6009
|  9> C 	 -124.156 	 20.8072 	 -23.1583
| 10> C 	 -124.19 	 20.7578 	 -24.58
| 11> C 	 -124.364 	 19.4677 	 -25.094
| 12> H 	 -124.174 	 21.558 	 -25.4047
| 13> C 	 -123.934 	 22.0076 	 -22.3337
| 14> H 	 -123.88 	 21.6853 	 -21.2879
| 15> H 	 -124.865 	 22.647 	 -22.3831
| 16> C 	 -122.572 	 22.7044 	 -22.6062
| 17> H 	 -121.782 	 21.9262 	 -22.4767
| 18> H 	 -122.592 	 22.9491 	 -23.7149
| 19> C 	 -122.31 	 23.8884 	 -21.7374
| 20> H 	 -121.451 	 24.5102 	 -22.0469
| 21> H 	 -123.124 	 24.5693 	 -21.8814
| 22> H 	 -122.224 	 23.7219 	 -20.6434
| 23> S 	 -125.603 	 18.1232 	 -27.1589
| 24> C 	 -125.061 	 18.2672 	 -28.8173
| 25> C 	 -123.971 	 19.0639 	 -28.8377
| 26> C 	 -123.535 	 19.5504 	 -27.5479
| 27> C 	 -124.321 	 19.0555 	 -26.4875
| 28> H 	 -123.527 	 19.3042 	 -29.7359
| 29> C 	 -122.212 	 20.2507 	 -27.442
| 30> H 	 -122.328 	 21.2661 	 -27.1118
| 31> H 	 -121.97 	 20.3824 	 -28.462
| 32> C 	 -121.05 	 19.5341 	 -26.7838
| 33> H 	 -120.105 	 19.8903 	 -27.2347
| 34> H 	 -121.215 	 18.5344 	 -27.0784
| 35> C 	 -120.947 	 19.5374 	 -25.3174
| 36> H 	 -120 	 19.216 	 -24.9712
| 37> H 	 -121.584 	 18.8587 	 -24.7928
| 38> H 	 -121.172 	 20.4885 	 -24.8768
| 39> H 	 -124.335 	 19.3675 	 -21.502
| 40> H 	 -125.654 	 17.9249 	 -29.7135
| 41> *
| 42>
| 43>                          ****END OF INPUT****

CARTESIAN COORDINATES (ANGSTROEM)
---------------------------------
  S    -124.469000   18.270000  -23.847500
  C    -124.313000   19.546100  -22.600900
  C    -124.156000   20.807200  -23.158300
  C    -124.190000   20.757800  -24.580000
  C    -124.364000   19.467700  -25.094000
  H    -124.174000   21.558000  -25.404700
  C    -123.934000   22.007600  -22.333700
  H    -123.880000   21.685300  -21.287900
  H    -124.865000   22.647000  -22.383100
  C    -122.572000   22.704400  -22.606200
  H    -121.782000   21.926200  -22.476700
  H    -122.592000   22.949100  -23.714900
  C    -122.310000   23.888400  -21.737400
  H    -121.451000   24.510200  -22.046900
  H    -123.124000   24.569300  -21.881400
  H    -122.224000   23.721900  -20.643400
  S    -125.603000   18.123200  -27.158900
  C    -125.061000   18.267200  -28.817300
  C    -123.971000   19.063900  -28.837700
  C    -123.535000   19.550400  -27.547900
  C    -124.321000   19.055500  -26.487500
  H    -123.527000   19.304200  -29.735900
  C    -122.212000   20.250700  -27.442000
  H    -122.328000   21.266100  -27.111800
  H    -121.970000   20.382400  -28.462000
  C    -121.050000   19.534100  -26.783800
  H    -120.105000   19.890300  -27.234700
  H    -121.215000   18.534400  -27.078400
  C    -120.947000   19.537400  -25.317400
  H    -120.000000   19.216000  -24.971200
  H    -121.584000   18.858700  -24.792800
  H    -121.172000   20.488500  -24.876800
  H    -124.335000   19.367500  -21.502000
  H    -125.654000   17.924900  -29.713500

 Total Charge           Charge          ....    0
 Multiplicity           Mult            ....    1
 Number of Electrons    NEL             ....  134
 Basis Dimension        Dim             ....  322

ORBITAL ENERGIES
----------------

  NO   OCC          E(Eh)            E(eV)
   0   2.0000     -88.968733     -2420.9623
   1   2.0000     -88.962803     -2420.8009
   2   2.0000     -10.330531      -281.1080
   3   2.0000     -10.326442      -280.9968
   4   2.0000     -10.320079      -280.8236
   5   2.0000     -10.319898      -280.8187
   6   2.0000     -10.303554      -280.3740
   7   2.0000     -10.302999      -280.3588
   8   2.0000     -10.302475      -280.3446
   9   2.0000     -10.296135      -280.1721
  10   2.0000     -10.295455      -280.1536
  11   2.0000     -10.287659      -279.9414
  12   2.0000     -10.279977      -279.7324
  13   2.0000     -10.279418      -279.7172
  14   2.0000     -10.273759      -279.5632
  15   2.0000     -10.254784      -279.0469
  16   2.0000      -8.082752      -219.9429
  17   2.0000      -8.078244      -219.8202
  18   2.0000      -6.041229      -164.3902
  19   2.0000      -6.037308      -164.2835
  20   2.0000      -6.036755      -164.2685
  21   2.0000      -6.033643      -164.1838
  22   2.0000      -6.032425      -164.1506
  23   2.0000      -6.029164      -164.0619
  24   2.0000      -1.008731       -27.4490
  25   2.0000      -0.985312       -26.8117
  26   2.0000      -0.917203       -24.9584
  27   2.0000      -0.914455       -24.8836
  28   2.0000      -0.874010       -23.7830
  29   2.0000      -0.851383       -23.1673
  30   2.0000      -0.849083       -23.1047
  31   2.0000      -0.817974       -22.2582
  32   2.0000      -0.785756       -21.3815
  33   2.0000      -0.772299       -21.0153
  34   2.0000      -0.711561       -19.3626
  35   2.0000      -0.695924       -18.9371
  36   2.0000      -0.688311       -18.7299
  37   2.0000      -0.664596       -18.0846
  38   2.0000      -0.639693       -17.4069
  39   2.0000      -0.615673       -16.7533
  40   2.0000      -0.596950       -16.2438
  41   2.0000      -0.570211       -15.5162
  42   2.0000      -0.563059       -15.3216
  43   2.0000      -0.553442       -15.0599
  44   2.0000      -0.543294       -14.7838
  45   2.0000      -0.522774       -14.2254
  46   2.0000      -0.516297       -14.0492
  47   2.0000      -0.514230       -13.9929
  48   2.0000      -0.504871       -13.7382
  49   2.0000      -0.500406       -13.6167
  50   2.0000      -0.496753       -13.5173
  51   2.0000      -0.482653       -13.1337
  52   2.0000      -0.476921       -12.9777
  53   2.0000      -0.470801       -12.8111
  54   2.0000      -0.456366       -12.4184
  55   2.0000      -0.450687       -12.2638
  56   2.0000      -0.436659       -11.8821
  57   2.0000      -0.435164       -11.8414
  58   2.0000      -0.429556       -11.6888
  59   2.0000      -0.424377       -11.5479
  60   2.0000      -0.417141       -11.3510
  61   2.0000      -0.410584       -11.1726
  62   2.0000      -0.405560       -11.0359
  63   2.0000      -0.351426        -9.5628
  64   2.0000      -0.334079        -9.0907
  65   2.0000      -0.326842        -8.8938
  66   2.0000      -0.291934        -7.9439
  67   0.0000       0.026305         0.7158
  68   0.0000       0.072280         1.9668
  69   0.0000       0.111746         3.0408
  70   0.0000       0.119815         3.2603
  71   0.0000       0.133822         3.6415

MULLIKEN ATOMIC CHARGES
-----------------------
   0 S :    0.107398
   1 C :   -0.132634
   2 C :   -0.077521
   3 C :    0.007189
   4 C :   -0.180152
   5 H :    0.047135
   6 C :    0.052870
   7 H :    0.007784
   8 H :    0.051055
   9 C :   -0.117930
  10 H :    0.046354
  11 H :    0.041999
  12 C :   -0.019171
  13 H :    0.035894
  14 H :    0.015225
  15 H :    0.039924
  16 S :    0.098726
  17 C :   -0.106212
  18 C :   -0.003205
  19 C :   -0.096123
  20 C :   -0.121473
  21 H :   -0.010889
  22 C :    0.116488
  23 H :    0.007268
  24 H :   -0.011371
  25 C :   -0.034216
  26 H :    0.027585
  27 H :    0.012877
  28 C :    0.019500
  29 H :    0.009257
  30 H :    0.012715
  31 H :    0.008029
  32 H :    0.061563
  33 H :    0.084063
Sum of atomic charges:    0.0000000

LOEWDIN ATOMIC CHARGES
----------------------
   0 S :    0.400827
   1 C :   -0.192575
   2 C :   -0.064960
   3 C :   -0.071723
   4 C :   -0.196157
   5 H :    0.047773
   6 C :   -0.038159
   7 H :    0.027749
   8 H :    0.039465
   9 C :   -0.045220
  10 H :    0.029823
  11 H :    0.029364
  12 C :   -0.073106
  13 H :    0.032149
  14 H :    0.023062
  15 H :    0.030389
  16 S :    0.418475
  17 C :   -0.192516
  18 C :   -0.067675
  19 C :   -0.057468
  20 C :   -0.216005
  21 H :    0.018099
  22 C :   -0.032495
  23 H :    0.022371
  24 H :    0.027225
  25 C :   -0.034355
  26 H :    0.029171
  27 H :    0.023393
  28 C :   -0.062211
  29 H :    0.022166
  30 H :    0.020703
  31 H :    0.018502
  32 H :    0.035777
  33 H :    0.048143

  Mayer bond orders larger than 0.100000
B(  0-S ,  1-C ) :   1.1236 B(  0-S ,  4-C ) :   1.1600 B(  1-C ,  2-C ) :   1.6211
B(  1-C ,  4-C ) :   0.1005 B(  1-C , 32-H ) :   0.9615 B(  2-C ,  3-C ) :   1.2132
B(  2-C ,  6-C ) :   1.0404 B(  3-C ,  4-C ) :   1.5947 B(  3-C ,  5-H ) :   0.9781
B(  4-C , 20-C ) :   1.0253 B(  6-C ,  7-H ) :   0.9358 B(  6-C ,  8-H ) :   0.9316
B(  6-C ,  9-C ) :   1.0487 B(  9-C , 10-H ) :   0.9525 B(  9-C , 11-H ) :   0.9542
B(  9-C , 12-C ) :   1.0885 B( 12-C , 13-H ) :   0.9701 B( 12-C , 14-H ) :   0.9677
B( 12-C , 15-H ) :   0.9721 B( 16-S , 17-C ) :   1.1570 B( 16-S , 20-C ) :   1.1590
B( 17-C , 18-C ) :   1.5936 B( 17-C , 33-H ) :   0.9596 B( 18-C , 19-C ) :   1.2682
B( 18-C , 21-H ) :   0.9998 B( 19-C , 20-C ) :   1.5414 B( 19-C , 22-C ) :   1.0532
B( 22-C , 23-H ) :   0.9170 B( 22-C , 24-H ) :   0.9180 B( 22-C , 25-C ) :   1.0765
B( 25-C , 26-H ) :   0.9530 B( 25-C , 27-H ) :   0.9462 B( 25-C , 28-C ) :   1.1015
B( 28-C , 29-H ) :   0.9623 B( 28-C , 30-H ) :   0.9611 B( 28-C , 31-H ) :   0.9688

Dispersion correction           -0.016214586
FINAL SINGLE POINT ENERGY     -1339.877430595891

DIPOLE MOMENT
-------------
                                X             Y             Z
Electronic contribution:    -19.52067     -20.07452      -9.03405
Nuclear contribution   :     19.85481      20.65707       8.97214
                        -----------------------------------------
Total Dipole Moment    :      0.33414       0.58255      -0.06191
                        -----------------------------------------
Magnitude (a.u.)       :      0.67443
Magnitude (Debye)      :      1.71425

Rotational constants in cm-1:     0.022068     0.008831     0.007439
Rotational constants in MHz :   661.590070   264.758226   223.010500

                             ****ORCA TERMINATED NORMALLY****
TOTAL RUN TIME: 0 days 0 hours 0 minutes 23 seconds 326 msec
