                         Program Version 4.2.1 -  RELEASE  -
|  1> ! wB97X-D3 SP def2-SVP
|  2> %pal
|  3> nprocs 24
|  4> end
|  5>
|  6> * xyz 0 1
|  7> S 	 -136.392 	 70.3324 	 -55.1741
|  8> C 	 -135.185 	 69.62 	 -56.2395
|  9> C 	 -134.039 	 69.2617 	 -55.5801
| 10> C 	 -134.204 	 69.5504 	 -54.1422
| 11> C 	 -135.393 	 70.0723 	 -53.8072
| 12> H 	 -133.423 	 69.505 	 -53.4468
| 13> C 	 -132.729 	 68.9079 	 -56.2415
| 14> H 	 -132.936 	 68.8668 	 -57.3434
| 15> H 	 -132.514 	 67.9471 	 -55.9093
| 16> C 	 -131.551 	 69.8001 	 -55.9214
| 17> H 	 -131.402 	 69.7275 	 -54.7974
| 18> H 	 -130.692 	 69.4712 	 -56.4442
| 19> C 	 -131.697 	 71.2504 	 -56.3767
| 20> H 	 -130.805 	 71.7743 	 -56.0759
| 21> H 	 -131.723 	 71.3469 	 -57.4591
| 22> H 	 -132.591 	 71.7824 	 -55.9538
| 23> S 	 -136.24 	 72.1825 	 -52.383
| 24> C 	 -136.263 	 72.1582 	 -50.6099
| 25> C 	 -135.647 	 71.0087 	 -50.1949
| 26> C 	 -135.388 	 70.0575 	 -51.2362
| 27> C 	 -135.725 	 70.5539 	 -52.4713
| 28> H 	 -135.375 	 70.9582 	 -49.1177
| 29> C 	 -134.714 	 68.6812 	 -50.8855
| 30> H 	 -134.271 	 68.7986 	 -49.9304
| 31> H 	 -133.872 	 68.439 	 -51.4226
| 32> C 	 -135.625 	 67.4673 	 -50.8663
| 33> H 	 -135.969 	 67.5195 	 -51.9223
| 34> H 	 -136.429 	 67.7623 	 -50.2096
| 35> C 	 -134.957 	 66.1671 	 -50.6407
| 36> H 	 -135.541 	 65.308 	 -50.9099
| 37> H 	 -134.625 	 66.0077 	 -49.6059
| 38> H 	 -134.041 	 66.1415 	 -51.2483
| 39> H 	 -135.26 	 69.7334 	 -57.3511
| 40> H 	 -136.461 	 73.06 	 -50.0236
| 41> *
| 42>
| 43>                          ****END OF INPUT****

CARTESIAN COORDINATES (ANGSTROEM)
---------------------------------
  S    -136.392000   70.332400  -55.174100
  C    -135.185000   69.620000  -56.239500
  C    -134.039000   69.261700  -55.580100
  C    -134.204000   69.550400  -54.142200
  C    -135.393000   70.072300  -53.807200
  H    -133.423000   69.505000  -53.446800
  C    -132.729000   68.907900  -56.241500
  H    -132.936000   68.866800  -57.343400
  H    -132.514000   67.947100  -55.909300
  C    -131.551000   69.800100  -55.921400
  H    -131.402000   69.727500  -54.797400
  H    -130.692000   69.471200  -56.444200
  C    -131.697000   71.250400  -56.376700
  H    -130.805000   71.774300  -56.075900
  H    -131.723000   71.346900  -57.459100
  H    -132.591000   71.782400  -55.953800
  S    -136.240000   72.182500  -52.383000
  C    -136.263000   72.158200  -50.609900
  C    -135.647000   71.008700  -50.194900
  C    -135.388000   70.057500  -51.236200
  C    -135.725000   70.553900  -52.471300
  H    -135.375000   70.958200  -49.117700
  C    -134.714000   68.681200  -50.885500
  H    -134.271000   68.798600  -49.930400
  H    -133.872000   68.439000  -51.422600
  C    -135.625000   67.467300  -50.866300
  H    -135.969000   67.519500  -51.922300
  H    -136.429000   67.762300  -50.209600
  C    -134.957000   66.167100  -50.640700
  H    -135.541000   65.308000  -50.909900
  H    -134.625000   66.007700  -49.605900
  H    -134.041000   66.141500  -51.248300
  H    -135.260000   69.733400  -57.351100
  H    -136.461000   73.060000  -50.023600

 Total Charge           Charge          ....    0
 Multiplicity           Mult            ....    1
 Number of Electrons    NEL             ....  134
 Basis Dimension        Dim             ....  322

ORBITAL ENERGIES
----------------

  NO   OCC          E(Eh)            E(eV)
   0   2.0000     -88.963773     -2420.8273
   1   2.0000     -88.962920     -2420.8041
   2   2.0000     -10.324769      -280.9512
   3   2.0000     -10.323543      -280.9179
   4   2.0000     -10.318142      -280.7709
   5   2.0000     -10.315748      -280.7058
   6   2.0000     -10.306032      -280.4414
   7   2.0000     -10.303313      -280.3674
   8   2.0000     -10.298279      -280.2304
   9   2.0000     -10.290197      -280.0105
  10   2.0000     -10.289809      -279.9999
  11   2.0000     -10.288495      -279.9642
  12   2.0000     -10.281266      -279.7675
  13   2.0000     -10.277225      -279.6575
  14   2.0000     -10.276311      -279.6326
  15   2.0000     -10.275111      -279.6000
  16   2.0000      -8.079325      -219.8496
  17   2.0000      -8.078436      -219.8254
  18   2.0000      -6.037948      -164.3009
  19   2.0000      -6.036894      -164.2722
  20   2.0000      -6.033781      -164.1875
  21   2.0000      -6.032888      -164.1632
  22   2.0000      -6.029849      -164.0805
  23   2.0000      -6.029127      -164.0609
  24   2.0000      -1.014576       -27.6080
  25   2.0000      -0.987771       -26.8786
  26   2.0000      -0.918478       -24.9930
  27   2.0000      -0.913870       -24.8677
  28   2.0000      -0.873548       -23.7705
  29   2.0000      -0.852280       -23.1917
  30   2.0000      -0.843896       -22.9636
  31   2.0000      -0.818683       -22.2775
  32   2.0000      -0.786888       -21.4123
  33   2.0000      -0.779452       -21.2100
  34   2.0000      -0.707819       -19.2607
  35   2.0000      -0.696341       -18.9484
  36   2.0000      -0.688719       -18.7410
  37   2.0000      -0.662917       -18.0389
  38   2.0000      -0.638457       -17.3733
  39   2.0000      -0.625637       -17.0244
  40   2.0000      -0.600671       -16.3451
  41   2.0000      -0.567931       -15.4542
  42   2.0000      -0.564656       -15.3651
  43   2.0000      -0.556435       -15.1414
  44   2.0000      -0.550664       -14.9843
  45   2.0000      -0.522698       -14.2233
  46   2.0000      -0.519290       -14.1306
  47   2.0000      -0.516159       -14.0454
  48   2.0000      -0.504082       -13.7168
  49   2.0000      -0.496497       -13.5104
  50   2.0000      -0.493930       -13.4405
  51   2.0000      -0.486904       -13.2493
  52   2.0000      -0.467026       -12.7084
  53   2.0000      -0.465233       -12.6596
  54   2.0000      -0.459817       -12.5123
  55   2.0000      -0.450973       -12.2716
  56   2.0000      -0.445335       -12.1182
  57   2.0000      -0.440284       -11.9807
  58   2.0000      -0.429209       -11.6794
  59   2.0000      -0.425237       -11.5713
  60   2.0000      -0.421577       -11.4717
  61   2.0000      -0.417426       -11.3587
  62   2.0000      -0.404837       -11.0162
  63   2.0000      -0.353486        -9.6189
  64   2.0000      -0.330766        -9.0006
  65   2.0000      -0.328169        -8.9299
  66   2.0000      -0.298718        -8.1285
  67   0.0000       0.031542         0.8583
  68   0.0000       0.079092         2.1522
  69   0.0000       0.102861         2.7990
  70   0.0000       0.126227         3.4348
  71   0.0000       0.135002         3.6736

MULLIKEN ATOMIC CHARGES
-----------------------
   0 S :    0.102322
   1 C :   -0.146544
   2 C :   -0.100799
   3 C :    0.017598
   4 C :   -0.126073
   5 H :   -0.009097
   6 C :    0.114305
   7 H :    0.020765
   8 H :    0.016366
   9 C :   -0.078486
  10 H :    0.038832
  11 H :    0.025261
  12 C :   -0.063176
  13 H :    0.029572
  14 H :    0.025336
  15 H :    0.053814
  16 S :    0.092068
  17 C :   -0.104547
  18 C :   -0.053902
  19 C :   -0.050374
  20 C :   -0.121591
  21 H :    0.037993
  22 C :    0.116870
  23 H :   -0.012668
  24 H :   -0.021170
  25 C :   -0.068057
  26 H :    0.034111
  27 H :    0.027379
  28 C :   -0.014588
  29 H :    0.036475
  30 H :    0.026636
  31 H :    0.020671
  32 H :    0.066956
  33 H :    0.067737
Sum of atomic charges:   -0.0000000

LOEWDIN ATOMIC CHARGES
----------------------
   0 S :    0.404732
   1 C :   -0.201041
   2 C :   -0.056881
   3 C :   -0.058143
   4 C :   -0.203716
   5 H :    0.018236
   6 C :   -0.028896
   7 H :    0.033774
   8 H :    0.024494
   9 C :   -0.039090
  10 H :    0.030366
  11 H :    0.023344
  12 C :   -0.068180
  13 H :    0.025004
  14 H :    0.023088
  15 H :    0.032632
  16 S :    0.410893
  17 C :   -0.185539
  18 C :   -0.071636
  19 C :   -0.059309
  20 C :   -0.200418
  21 H :    0.039894
  22 C :   -0.021989
  23 H :    0.019481
  24 H :    0.009535
  25 C :   -0.043278
  26 H :    0.032423
  27 H :    0.022923
  28 C :   -0.064005
  29 H :    0.027632
  30 H :    0.025449
  31 H :    0.028313
  32 H :    0.036165
  33 H :    0.033745

  Mayer bond orders larger than 0.100000
B(  0-S ,  1-C ) :   1.1223 B(  0-S ,  4-C ) :   1.1419 B(  1-C ,  2-C ) :   1.6572
B(  1-C , 32-H ) :   0.9565 B(  2-C ,  3-C ) :   1.1943 B(  2-C ,  6-C ) :   1.0224
B(  3-C ,  4-C ) :   1.6208 B(  3-C ,  5-H ) :   1.0005 B(  4-C , 20-C ) :   1.0139
B(  6-C ,  7-H ) :   0.9411 B(  6-C ,  8-H ) :   0.9218 B(  6-C ,  9-C ) :   1.0870
B(  9-C , 10-H ) :   0.9502 B(  9-C , 11-H ) :   0.9511 B(  9-C , 12-C ) :   1.0794
B( 12-C , 13-H ) :   0.9729 B( 12-C , 14-H ) :   0.9736 B( 12-C , 15-H ) :   0.9752
B( 16-S , 17-C ) :   1.1392 B( 16-S , 20-C ) :   1.1699 B( 17-C , 18-C ) :   1.6180
B( 17-C , 33-H ) :   0.9684 B( 18-C , 19-C ) :   1.2442 B( 18-C , 21-H ) :   0.9820
B( 19-C , 20-C ) :   1.6032 B( 19-C , 22-C ) :   1.0260 B( 22-C , 23-H ) :   0.9233
B( 22-C , 24-H ) :   0.9312 B( 22-C , 25-C ) :   1.0607 B( 25-C , 26-H ) :   0.9546
B( 25-C , 27-H ) :   0.9547 B( 25-C , 28-C ) :   1.0896 B( 28-C , 29-H ) :   0.9711
B( 28-C , 30-H ) :   0.9719 B( 28-C , 31-H ) :   0.9668

Dispersion correction           -0.014479343
FINAL SINGLE POINT ENERGY     -1339.875621867613

DIPOLE MOMENT
-------------
                                X             Y             Z
Electronic contribution:    -18.60254      14.75755      -1.36502
Nuclear contribution   :     19.40161     -14.89446       1.49255
                        -----------------------------------------
Total Dipole Moment    :      0.79906      -0.13691       0.12753
                        -----------------------------------------
Magnitude (a.u.)       :      0.82068
Magnitude (Debye)      :      2.08599

Rotational constants in cm-1:     0.016717     0.009425     0.007652
Rotational constants in MHz :   501.160395   282.551410   229.408486

                             ****ORCA TERMINATED NORMALLY****
TOTAL RUN TIME: 0 days 0 hours 0 minutes 22 seconds 57 msec
