                         Program Version 4.2.1 -  RELEASE  -
|  1> ! wB97X-D3 SP def2-SVP
|  2> %pal
|  3> nprocs 24
|  4> end
|  5>
|  6> * xyz 0 1
|  7> S 	 -77.5595 	 -17.4905 	 -53.4182
|  8> C 	 -78.2375 	 -18.8345 	 -52.545
|  9> C 	 -79.1858 	 -18.4361 	 -51.6028
| 10> C 	 -79.3248 	 -16.9988 	 -51.5304
| 11> C 	 -78.5578 	 -16.3114 	 -52.5094
| 12> H 	 -80.0346 	 -16.4411 	 -50.978
| 13> C 	 -80.1021 	 -19.3852 	 -50.8033
| 14> H 	 -80.1158 	 -19.0086 	 -49.803
| 15> H 	 -79.5356 	 -20.2351 	 -50.5553
| 16> C 	 -81.5078 	 -19.7547 	 -51.2822
| 17> H 	 -81.8392 	 -20.5983 	 -50.703
| 18> H 	 -82.1909 	 -18.9842 	 -51.0376
| 19> C 	 -81.3494 	 -20.1628 	 -52.7436
| 20> H 	 -81.3245 	 -19.1426 	 -53.26
| 21> H 	 -80.5944 	 -20.8419 	 -52.9581
| 22> H 	 -82.3049 	 -20.6048 	 -53.1977
| 23> S 	 -78.8069 	 -14.3349 	 -54.4656
| 24> C 	 -78.3827 	 -12.6696 	 -54.0979
| 25> C 	 -78.4498 	 -12.4989 	 -52.7285
| 26> C 	 -78.547 	 -13.7275 	 -52.008
| 27> C 	 -78.5739 	 -14.8663 	 -52.7857
| 28> H 	 -78.4894 	 -11.5676 	 -52.2653
| 29> C 	 -78.7653 	 -13.7119 	 -50.4893
| 30> H 	 -78.176 	 -12.9416 	 -49.9868
| 31> H 	 -78.4619 	 -14.5892 	 -49.928
| 32> C 	 -80.2409 	 -13.3723 	 -50.1495
| 33> H 	 -80.8611 	 -14.2529 	 -50.2828
| 34> H 	 -80.4627 	 -12.5227 	 -50.8139
| 35> C 	 -80.5666 	 -12.8291 	 -48.6936
| 36> H 	 -79.8206 	 -12.0693 	 -48.471
| 37> H 	 -80.4442 	 -13.6209 	 -48.0227
| 38> H 	 -81.5919 	 -12.3268 	 -48.5179
| 39> H 	 -77.8518 	 -19.8441 	 -52.6113
| 40> H 	 -78.4846 	 -11.8583 	 -54.7871
| 41> *
| 42>
| 43>                          ****END OF INPUT****

CARTESIAN COORDINATES (ANGSTROEM)
---------------------------------
  S    -77.559500  -17.490500  -53.418200
  C    -78.237500  -18.834500  -52.545000
  C    -79.185800  -18.436100  -51.602800
  C    -79.324800  -16.998800  -51.530400
  C    -78.557800  -16.311400  -52.509400
  H    -80.034600  -16.441100  -50.978000
  C    -80.102100  -19.385200  -50.803300
  H    -80.115800  -19.008600  -49.803000
  H    -79.535600  -20.235100  -50.555300
  C    -81.507800  -19.754700  -51.282200
  H    -81.839200  -20.598300  -50.703000
  H    -82.190900  -18.984200  -51.037600
  C    -81.349400  -20.162800  -52.743600
  H    -81.324500  -19.142600  -53.260000
  H    -80.594400  -20.841900  -52.958100
  H    -82.304900  -20.604800  -53.197700
  S    -78.806900  -14.334900  -54.465600
  C    -78.382700  -12.669600  -54.097900
  C    -78.449800  -12.498900  -52.728500
  C    -78.547000  -13.727500  -52.008000
  C    -78.573900  -14.866300  -52.785700
  H    -78.489400  -11.567600  -52.265300
  C    -78.765300  -13.711900  -50.489300
  H    -78.176000  -12.941600  -49.986800
  H    -78.461900  -14.589200  -49.928000
  C    -80.240900  -13.372300  -50.149500
  H    -80.861100  -14.252900  -50.282800
  H    -80.462700  -12.522700  -50.813900
  C    -80.566600  -12.829100  -48.693600
  H    -79.820600  -12.069300  -48.471000
  H    -80.444200  -13.620900  -48.022700
  H    -81.591900  -12.326800  -48.517900
  H    -77.851800  -19.844100  -52.611300
  H    -78.484600  -11.858300  -54.787100

 Total Charge           Charge          ....    0
 Multiplicity           Mult            ....    1
 Number of Electrons    NEL             ....  134
 Basis Dimension        Dim             ....  322

ORBITAL ENERGIES
----------------

  NO   OCC          E(Eh)            E(eV)
   0   2.0000     -88.971100     -2421.0267
   1   2.0000     -88.962385     -2420.7896
   2   2.0000     -10.340166      -281.3702
   3   2.0000     -10.332548      -281.1629
   4   2.0000     -10.318829      -280.7896
   5   2.0000     -10.318026      -280.7678
   6   2.0000     -10.307504      -280.4814
   7   2.0000     -10.305996      -280.4404
   8   2.0000     -10.300539      -280.2919
   9   2.0000     -10.293245      -280.0934
  10   2.0000     -10.292930      -280.0849
  11   2.0000     -10.291417      -280.0437
  12   2.0000     -10.285150      -279.8732
  13   2.0000     -10.284365      -279.8518
  14   2.0000     -10.283676      -279.8331
  15   2.0000     -10.279539      -279.7205
  16   2.0000      -8.084943      -220.0025
  17   2.0000      -8.076895      -219.7835
  18   2.0000      -6.043545      -164.4532
  19   2.0000      -6.039418      -164.3409
  20   2.0000      -6.035802      -164.2425
  21   2.0000      -6.035553      -164.2358
  22   2.0000      -6.031538      -164.1265
  23   2.0000      -6.027385      -164.0135
  24   2.0000      -1.002048       -27.2671
  25   2.0000      -0.980854       -26.6904
  26   2.0000      -0.913365       -24.8539
  27   2.0000      -0.903689       -24.5906
  28   2.0000      -0.868983       -23.6462
  29   2.0000      -0.847390       -23.0586
  30   2.0000      -0.841893       -22.9091
  31   2.0000      -0.813194       -22.1281
  32   2.0000      -0.782322       -21.2881
  33   2.0000      -0.774364       -21.0715
  34   2.0000      -0.709943       -19.3185
  35   2.0000      -0.699191       -19.0260
  36   2.0000      -0.693430       -18.8692
  37   2.0000      -0.668025       -18.1779
  38   2.0000      -0.644706       -17.5434
  39   2.0000      -0.618458       -16.8291
  40   2.0000      -0.600232       -16.3331
  41   2.0000      -0.571688       -15.5564
  42   2.0000      -0.566463       -15.4142
  43   2.0000      -0.554154       -15.0793
  44   2.0000      -0.547313       -14.8931
  45   2.0000      -0.519129       -14.1262
  46   2.0000      -0.514955       -14.0126
  47   2.0000      -0.513865       -13.9830
  48   2.0000      -0.505373       -13.7519
  49   2.0000      -0.500887       -13.6298
  50   2.0000      -0.492396       -13.3988
  51   2.0000      -0.480899       -13.0859
  52   2.0000      -0.470806       -12.8113
  53   2.0000      -0.465750       -12.6737
  54   2.0000      -0.455452       -12.3935
  55   2.0000      -0.451077       -12.2744
  56   2.0000      -0.441912       -12.0250
  57   2.0000      -0.432287       -11.7631
  58   2.0000      -0.429559       -11.6889
  59   2.0000      -0.421488       -11.4693
  60   2.0000      -0.418891       -11.3986
  61   2.0000      -0.412773       -11.2321
  62   2.0000      -0.409496       -11.1430
  63   2.0000      -0.350669        -9.5422
  64   2.0000      -0.332481        -9.0473
  65   2.0000      -0.326195        -8.8762
  66   2.0000      -0.291323        -7.9273
  67   0.0000       0.020780         0.5655
  68   0.0000       0.064627         1.7586
  69   0.0000       0.101073         2.7503
  70   0.0000       0.117873         3.2075
  71   0.0000       0.130008         3.5377

MULLIKEN ATOMIC CHARGES
-----------------------
   0 S :    0.124370
   1 C :   -0.115047
   2 C :   -0.114921
   3 C :    0.054627
   4 C :   -0.151276
   5 H :   -0.010398
   6 C :    0.076455
   7 H :    0.004216
   8 H :    0.000494
   9 C :   -0.005861
  10 H :    0.021211
  11 H :    0.023774
  12 C :   -0.073084
  13 H :    0.059948
  14 H :    0.029643
  15 H :    0.031442
  16 S :    0.085669
  17 C :   -0.067030
  18 C :   -0.017275
  19 C :   -0.022936
  20 C :   -0.155162
  21 H :    0.000313
  22 C :    0.056215
  23 H :    0.009924
  24 H :    0.025020
  25 C :   -0.098171
  26 H :    0.038557
  27 H :    0.032192
  28 C :   -0.059651
  29 H :    0.024123
  30 H :    0.022923
  31 H :    0.056219
  32 H :    0.054970
  33 H :    0.058509
Sum of atomic charges:    0.0000000

LOEWDIN ATOMIC CHARGES
----------------------
   0 S :    0.406774
   1 C :   -0.196480
   2 C :   -0.062463
   3 C :   -0.051193
   4 C :   -0.183851
   5 H :    0.022719
   6 C :   -0.037120
   7 H :    0.027350
   8 H :    0.023883
   9 C :   -0.032258
  10 H :    0.023748
  11 H :    0.020140
  12 C :   -0.066314
  13 H :    0.042891
  14 H :    0.014312
  15 H :    0.028108
  16 S :    0.388318
  17 C :   -0.175393
  18 C :   -0.060110
  19 C :   -0.055811
  20 C :   -0.186103
  21 H :    0.021351
  22 C :   -0.034703
  23 H :    0.026341
  24 H :    0.026788
  25 C :   -0.037170
  26 H :    0.018507
  27 H :    0.025431
  28 C :   -0.069594
  29 H :    0.020921
  30 H :    0.013071
  31 H :    0.040117
  32 H :    0.030132
  33 H :    0.027659

  Mayer bond orders larger than 0.100000
B(  0-S ,  1-C ) :   1.1504 B(  0-S ,  4-C ) :   1.1504 B(  1-C ,  2-C ) :   1.5952
B(  1-C , 32-H ) :   0.9644 B(  2-C ,  3-C ) :   1.2504 B(  2-C ,  6-C ) :   1.0193
B(  3-C ,  4-C ) :   1.5467 B(  3-C ,  5-H ) :   0.9980 B(  4-C , 20-C ) :   1.0559
B(  6-C ,  7-H ) :   0.9293 B(  6-C ,  8-H ) :   0.9338 B(  6-C ,  9-C ) :   1.0676
B(  9-C , 10-H ) :   0.9493 B(  9-C , 11-H ) :   0.9595 B(  9-C , 12-C ) :   1.0761
B( 12-C , 13-H ) :   0.9696 B( 12-C , 14-H ) :   0.9778 B( 12-C , 15-H ) :   0.9737
B( 16-S , 17-C ) :   1.1497 B( 16-S , 20-C ) :   1.1364 B( 17-C , 18-C ) :   1.5869
B( 17-C , 20-C ) :   0.1003 B( 17-C , 33-H ) :   0.9687 B( 18-C , 19-C ) :   1.2543
B( 18-C , 21-H ) :   0.9958 B( 19-C , 20-C ) :   1.5876 B( 19-C , 22-C ) :   1.0577
B( 22-C , 23-H ) :   0.9334 B( 22-C , 24-H ) :   0.9371 B( 22-C , 25-C ) :   1.0505
B( 25-C , 26-H ) :   0.9583 B( 25-C , 27-H ) :   0.9593 B( 25-C , 28-C ) :   1.0693
B( 28-C , 29-H ) :   0.9752 B( 28-C , 30-H ) :   0.9785 B( 28-C , 31-H ) :   0.9765

Dispersion correction           -0.014490680
FINAL SINGLE POINT ENERGY     -1339.851451105215

DIPOLE MOMENT
-------------
                                X             Y             Z
Electronic contribution:     16.37470       3.73425     -20.12210
Nuclear contribution   :    -16.80933      -3.74014      20.73833
                        -----------------------------------------
Total Dipole Moment    :     -0.43463      -0.00589       0.61623
                        -----------------------------------------
Magnitude (a.u.)       :      0.75411
Magnitude (Debye)      :      1.91679

Rotational constants in cm-1:     0.017803     0.008805     0.006716
Rotational constants in MHz :   533.724789   263.980819   201.344884

                             ****ORCA TERMINATED NORMALLY****
TOTAL RUN TIME: 0 days 0 hours 0 minutes 21 seconds 517 msec
