                         Program Version 4.2.1 -  RELEASE  -
|  1> ! wB97X-D3 SP def2-SVP
|  2> %pal
|  3> nprocs 24
|  4> end
|  5>
|  6> * xyz 0 1
|  7> S 	 -106.557 	 67.2038 	 -13.0396
|  8> C 	 -106.728 	 67.6443 	 -11.4054
|  9> C 	 -106.798 	 66.5032 	 -10.6087
| 10> C 	 -106.849 	 65.3346 	 -11.3837
| 11> C 	 -106.93 	 65.5249 	 -12.7483
| 12> H 	 -106.841 	 64.2918 	 -11.0075
| 13> C 	 -106.504 	 66.3793 	 -9.12213
| 14> H 	 -106.969 	 65.3939 	 -8.75181
| 15> H 	 -107.038 	 67.1553 	 -8.53126
| 16> C 	 -105.045 	 66.3457 	 -8.64702
| 17> H 	 -104.441 	 65.6027 	 -9.1001
| 18> H 	 -104.496 	 67.2622 	 -8.95786
| 19> C 	 -104.862 	 66.2253 	 -7.11972
| 20> H 	 -105.107 	 67.1212 	 -6.60362
| 21> H 	 -105.43 	 65.3113 	 -6.77197
| 22> H 	 -103.82 	 65.976 	 -7.03326
| 23> S 	 -105.345 	 64.4352 	 -14.6555
| 24> C 	 -106.103 	 63.2904 	 -15.7789
| 25> C 	 -107.353 	 62.9052 	 -15.3738
| 26> C 	 -107.803 	 63.5656 	 -14.1924
| 27> C 	 -106.837 	 64.5109 	 -13.7729
| 28> H 	 -107.962 	 62.2441 	 -15.9754
| 29> C 	 -109.157 	 63.37 	 -13.6144
| 30> H 	 -109.797 	 62.8918 	 -14.2832
| 31> H 	 -109.617 	 64.3445 	 -13.4222
| 32> C 	 -109.169 	 62.5686 	 -12.4231
| 33> H 	 -110.101 	 62.6376 	 -11.9386
| 34> H 	 -108.482 	 63.0578 	 -11.7083
| 35> C 	 -108.979 	 61.0338 	 -12.5722
| 36> H 	 -109.938 	 60.4996 	 -12.9434
| 37> H 	 -108.722 	 60.5735 	 -11.589
| 38> H 	 -108.227 	 60.7839 	 -13.259
| 39> H 	 -106.562 	 68.6223 	 -10.8805
| 40> H 	 -105.495 	 62.931 	 -16.6314
| 41> *
| 42>
| 43>                          ****END OF INPUT****

CARTESIAN COORDINATES (ANGSTROEM)
---------------------------------
  S    -106.557000   67.203800  -13.039600
  C    -106.728000   67.644300  -11.405400
  C    -106.798000   66.503200  -10.608700
  C    -106.849000   65.334600  -11.383700
  C    -106.930000   65.524900  -12.748300
  H    -106.841000   64.291800  -11.007500
  C    -106.504000   66.379300   -9.122130
  H    -106.969000   65.393900   -8.751810
  H    -107.038000   67.155300   -8.531260
  C    -105.045000   66.345700   -8.647020
  H    -104.441000   65.602700   -9.100100
  H    -104.496000   67.262200   -8.957860
  C    -104.862000   66.225300   -7.119720
  H    -105.107000   67.121200   -6.603620
  H    -105.430000   65.311300   -6.771970
  H    -103.820000   65.976000   -7.033260
  S    -105.345000   64.435200  -14.655500
  C    -106.103000   63.290400  -15.778900
  C    -107.353000   62.905200  -15.373800
  C    -107.803000   63.565600  -14.192400
  C    -106.837000   64.510900  -13.772900
  H    -107.962000   62.244100  -15.975400
  C    -109.157000   63.370000  -13.614400
  H    -109.797000   62.891800  -14.283200
  H    -109.617000   64.344500  -13.422200
  C    -109.169000   62.568600  -12.423100
  H    -110.101000   62.637600  -11.938600
  H    -108.482000   63.057800  -11.708300
  C    -108.979000   61.033800  -12.572200
  H    -109.938000   60.499600  -12.943400
  H    -108.722000   60.573500  -11.589000
  H    -108.227000   60.783900  -13.259000
  H    -106.562000   68.622300  -10.880500
  H    -105.495000   62.931000  -16.631400

 Total Charge           Charge          ....    0
 Multiplicity           Mult            ....    1
 Number of Electrons    NEL             ....  134
 Basis Dimension        Dim             ....  322

ORBITAL ENERGIES
----------------

  NO   OCC          E(Eh)            E(eV)
   0   2.0000     -88.968368     -2420.9524
   1   2.0000     -88.965950     -2420.8866
   2   2.0000     -10.325234      -280.9639
   3   2.0000     -10.323685      -280.9217
   4   2.0000     -10.319089      -280.7967
   5   2.0000     -10.317299      -280.7480
   6   2.0000     -10.302377      -280.3419
   7   2.0000     -10.300109      -280.2802
   8   2.0000     -10.297676      -280.2140
   9   2.0000     -10.294590      -280.1300
  10   2.0000     -10.291899      -280.0568
  11   2.0000     -10.284756      -279.8624
  12   2.0000     -10.281686      -279.7789
  13   2.0000     -10.279552      -279.7208
  14   2.0000     -10.277488      -279.6647
  15   2.0000     -10.274391      -279.5804
  16   2.0000      -8.083714      -219.9690
  17   2.0000      -8.080833      -219.8906
  18   2.0000      -6.042165      -164.4157
  19   2.0000      -6.039213      -164.3353
  20   2.0000      -6.038086      -164.3047
  21   2.0000      -6.035399      -164.2316
  22   2.0000      -6.034513      -164.2074
  23   2.0000      -6.031644      -164.1294
  24   2.0000      -1.012864       -27.5614
  25   2.0000      -0.987742       -26.8778
  26   2.0000      -0.924295       -25.1513
  27   2.0000      -0.908233       -24.7143
  28   2.0000      -0.872488       -23.7416
  29   2.0000      -0.852407       -23.1952
  30   2.0000      -0.846455       -23.0332
  31   2.0000      -0.812869       -22.1193
  32   2.0000      -0.784947       -21.3595
  33   2.0000      -0.770889       -20.9770
  34   2.0000      -0.708685       -19.2843
  35   2.0000      -0.697585       -18.9823
  36   2.0000      -0.688076       -18.7235
  37   2.0000      -0.664159       -18.0727
  38   2.0000      -0.640148       -17.4193
  39   2.0000      -0.618135       -16.8203
  40   2.0000      -0.601529       -16.3684
  41   2.0000      -0.568880       -15.4800
  42   2.0000      -0.560716       -15.2578
  43   2.0000      -0.558642       -15.2014
  44   2.0000      -0.553301       -15.0561
  45   2.0000      -0.524906       -14.2834
  46   2.0000      -0.513482       -13.9725
  47   2.0000      -0.506954       -13.7949
  48   2.0000      -0.499052       -13.5799
  49   2.0000      -0.497008       -13.5243
  50   2.0000      -0.486945       -13.2504
  51   2.0000      -0.482381       -13.1262
  52   2.0000      -0.474726       -12.9180
  53   2.0000      -0.465720       -12.6729
  54   2.0000      -0.458990       -12.4898
  55   2.0000      -0.452622       -12.3165
  56   2.0000      -0.444477       -12.0948
  57   2.0000      -0.439612       -11.9624
  58   2.0000      -0.434359       -11.8195
  59   2.0000      -0.424520       -11.5518
  60   2.0000      -0.418646       -11.3919
  61   2.0000      -0.411197       -11.1892
  62   2.0000      -0.409510       -11.1433
  63   2.0000      -0.345557        -9.4031
  64   2.0000      -0.331755        -9.0275
  65   2.0000      -0.325888        -8.8679
  66   2.0000      -0.294359        -8.0099
  67   0.0000       0.029979         0.8158
  68   0.0000       0.059508         1.6193
  69   0.0000       0.113554         3.0900
  70   0.0000       0.123466         3.3597
  71   0.0000       0.128703         3.5022

MULLIKEN ATOMIC CHARGES
-----------------------
   0 S :    0.126237
   1 C :   -0.113992
   2 C :   -0.069560
   3 C :    0.008130
   4 C :   -0.165752
   5 H :    0.039436
   6 C :    0.020561
   7 H :    0.027259
   8 H :    0.027398
   9 C :   -0.069069
  10 H :    0.015018
  11 H :    0.018503
  12 C :   -0.039075
  13 H :    0.039898
  14 H :    0.034964
  15 H :    0.030306
  16 S :    0.112102
  17 C :   -0.114077
  18 C :   -0.017086
  19 C :   -0.041632
  20 C :   -0.193114
  21 H :    0.018058
  22 C :    0.145962
  23 H :   -0.014121
  24 H :    0.035066
  25 C :   -0.045621
  26 H :    0.011239
  27 H :    0.003339
  28 C :   -0.068880
  29 H :    0.038492
  30 H :    0.041212
  31 H :    0.023776
  32 H :    0.065938
  33 H :    0.069083
Sum of atomic charges:    0.0000000

LOEWDIN ATOMIC CHARGES
----------------------
   0 S :    0.439866
   1 C :   -0.218250
   2 C :   -0.079017
   3 C :   -0.060541
   4 C :   -0.212992
   5 H :    0.034856
   6 C :   -0.040821
   7 H :    0.034336
   8 H :    0.030792
   9 C :   -0.044223
  10 H :    0.017320
  11 H :    0.023935
  12 C :   -0.058778
  13 H :    0.020088
  14 H :    0.030390
  15 H :    0.027919
  16 S :    0.402471
  17 C :   -0.181369
  18 C :   -0.068666
  19 C :   -0.046339
  20 C :   -0.204566
  21 H :    0.032371
  22 C :   -0.031298
  23 H :    0.021364
  24 H :    0.042209
  25 C :   -0.042860
  26 H :    0.020806
  27 H :    0.021988
  28 C :   -0.066735
  29 H :    0.033280
  30 H :    0.032677
  31 H :    0.012661
  32 H :    0.044945
  33 H :    0.032180

  Mayer bond orders larger than 0.100000
B(  0-S ,  1-C ) :   1.1732 B(  0-S ,  4-C ) :   1.1577 B(  1-C ,  2-C ) :   1.5593
B(  1-C ,  4-C ) :   0.1028 B(  1-C , 32-H ) :   0.9611 B(  2-C ,  3-C ) :   1.2938
B(  2-C ,  6-C ) :   1.0330 B(  3-C ,  4-C ) :   1.5377 B(  3-C ,  5-H ) :   0.9766
B(  4-C , 20-C ) :   1.0450 B(  6-C ,  7-H ) :   0.9416 B(  6-C ,  8-H ) :   0.9399
B(  6-C ,  9-C ) :   1.0598 B(  9-C , 10-H ) :   0.9574 B(  9-C , 11-H ) :   0.9502
B(  9-C , 12-C ) :   1.0827 B( 12-C , 13-H ) :   0.9779 B( 12-C , 14-H ) :   0.9742
B( 12-C , 15-H ) :   0.9741 B( 16-S , 17-C ) :   1.1421 B( 16-S , 20-C ) :   1.1666
B( 17-C , 18-C ) :   1.6028 B( 17-C , 20-C ) :   0.1016 B( 17-C , 33-H ) :   0.9662
B( 18-C , 19-C ) :   1.2479 B( 18-C , 21-H ) :   0.9908 B( 19-C , 20-C ) :   1.5745
B( 19-C , 22-C ) :   1.0557 B( 22-C , 23-H ) :   0.9188 B( 22-C , 24-H ) :   0.9130
B( 22-C , 25-C ) :   1.0976 B( 25-C , 26-H ) :   0.9419 B( 25-C , 27-H ) :   0.9478
B( 25-C , 28-C ) :   1.0649 B( 28-C , 29-H ) :   0.9734 B( 28-C , 30-H ) :   0.9737
B( 28-C , 31-H ) :   0.9801

Dispersion correction           -0.014341715
FINAL SINGLE POINT ENERGY     -1339.866797448742

DIPOLE MOMENT
-------------
                                X             Y             Z
Electronic contribution:      6.29440      11.02741     -22.79927
Nuclear contribution   :     -6.32989     -11.28206      23.14332
                        -----------------------------------------
Total Dipole Moment    :     -0.03549      -0.25465       0.34405
                        -----------------------------------------
Magnitude (a.u.)       :      0.42951
Magnitude (Debye)      :      1.09172

Rotational constants in cm-1:     0.019394     0.008214     0.006862
Rotational constants in MHz :   581.412278   246.260049   205.709011

                             ****ORCA TERMINATED NORMALLY****
TOTAL RUN TIME: 0 days 0 hours 0 minutes 21 seconds 687 msec
