                         Program Version 4.2.1 -  RELEASE  -
|  1> ! wB97X-D3 SP def2-SVP
|  2> %pal
|  3> nprocs 24
|  4> end
|  5>
|  6> * xyz 0 1
|  7> S 	 -121.132 	 59.4017 	 -34.1984
|  8> C 	 -121.573 	 58.5626 	 -35.6154
|  9> C 	 -121.64 	 59.4096 	 -36.6958
| 10> C 	 -121.524 	 60.7725 	 -36.4092
| 11> C 	 -121.359 	 60.9085 	 -35.0499
| 12> H 	 -121.69 	 61.7726 	 -36.8645
| 13> C 	 -121.969 	 58.9562 	 -38.0903
| 14> H 	 -122.843 	 59.3851 	 -38.4926
| 15> H 	 -122.359 	 57.91 	 -38.0315
| 16> C 	 -120.936 	 59.2478 	 -39.1673
| 17> H 	 -121.394 	 59.3055 	 -40.0823
| 18> H 	 -120.588 	 60.2346 	 -38.9687
| 19> C 	 -119.742 	 58.2615 	 -39.2013
| 20> H 	 -119.955 	 57.2566 	 -39.3988
| 21> H 	 -119.068 	 58.5006 	 -39.9857
| 22> H 	 -119.114 	 58.1327 	 -38.3075
| 23> S 	 -119.556 	 62.8657 	 -34.4953
| 24> C 	 -120.062 	 64.2186 	 -33.6168
| 25> C 	 -121.391 	 64.167 	 -33.2726
| 26> C 	 -122.068 	 62.9591 	 -33.7357
| 27> C 	 -121.163 	 62.1364 	 -34.3269
| 28> H 	 -121.869 	 65.0441 	 -32.7803
| 29> C 	 -123.607 	 62.7091 	 -33.7374
| 30> H 	 -123.942 	 63.3096 	 -32.9212
| 31> H 	 -123.723 	 61.6755 	 -33.4925
| 32> C 	 -124.423 	 63.1526 	 -34.9453
| 33> H 	 -123.84 	 62.6817 	 -35.7778
| 34> H 	 -124.411 	 64.2383 	 -35.2049
| 35> C 	 -125.795 	 62.436 	 -34.9443
| 36> H 	 -125.64 	 61.3715 	 -34.9593
| 37> H 	 -126.371 	 62.7376 	 -35.8152
| 38> H 	 -126.382 	 62.7069 	 -34.0951
| 39> H 	 -121.499 	 57.5126 	 -35.7226
| 40> H 	 -119.347 	 65.0017 	 -33.3073
| 41> *
| 42>
| 43>                          ****END OF INPUT****

CARTESIAN COORDINATES (ANGSTROEM)
---------------------------------
  S    -121.132000   59.401700  -34.198400
  C    -121.573000   58.562600  -35.615400
  C    -121.640000   59.409600  -36.695800
  C    -121.524000   60.772500  -36.409200
  C    -121.359000   60.908500  -35.049900
  H    -121.690000   61.772600  -36.864500
  C    -121.969000   58.956200  -38.090300
  H    -122.843000   59.385100  -38.492600
  H    -122.359000   57.910000  -38.031500
  C    -120.936000   59.247800  -39.167300
  H    -121.394000   59.305500  -40.082300
  H    -120.588000   60.234600  -38.968700
  C    -119.742000   58.261500  -39.201300
  H    -119.955000   57.256600  -39.398800
  H    -119.068000   58.500600  -39.985700
  H    -119.114000   58.132700  -38.307500
  S    -119.556000   62.865700  -34.495300
  C    -120.062000   64.218600  -33.616800
  C    -121.391000   64.167000  -33.272600
  C    -122.068000   62.959100  -33.735700
  C    -121.163000   62.136400  -34.326900
  H    -121.869000   65.044100  -32.780300
  C    -123.607000   62.709100  -33.737400
  H    -123.942000   63.309600  -32.921200
  H    -123.723000   61.675500  -33.492500
  C    -124.423000   63.152600  -34.945300
  H    -123.840000   62.681700  -35.777800
  H    -124.411000   64.238300  -35.204900
  C    -125.795000   62.436000  -34.944300
  H    -125.640000   61.371500  -34.959300
  H    -126.371000   62.737600  -35.815200
  H    -126.382000   62.706900  -34.095100
  H    -121.499000   57.512600  -35.722600
  H    -119.347000   65.001700  -33.307300

 Total Charge           Charge          ....    0
 Multiplicity           Mult            ....    1
 Number of Electrons    NEL             ....  134
 Basis Dimension        Dim             ....  322

ORBITAL ENERGIES
----------------

  NO   OCC          E(Eh)            E(eV)
   0   2.0000     -88.965117     -2420.8639
   1   2.0000     -88.961090     -2420.7543
   2   2.0000     -10.320092      -280.8240
   3   2.0000     -10.315755      -280.7060
   4   2.0000     -10.313770      -280.6519
   5   2.0000     -10.305341      -280.4226
   6   2.0000     -10.304000      -280.3861
   7   2.0000     -10.297579      -280.2114
   8   2.0000     -10.295697      -280.1602
   9   2.0000     -10.293628      -280.1039
  10   2.0000     -10.291202      -280.0378
  11   2.0000     -10.289235      -279.9843
  12   2.0000     -10.281756      -279.7808
  13   2.0000     -10.278177      -279.6834
  14   2.0000     -10.275667      -279.6151
  15   2.0000     -10.265848      -279.3479
  16   2.0000      -8.080858      -219.8913
  17   2.0000      -8.077077      -219.7884
  18   2.0000      -6.039055      -164.3310
  19   2.0000      -6.035424      -164.2322
  20   2.0000      -6.035301      -164.2289
  21   2.0000      -6.031815      -164.1340
  22   2.0000      -6.031510      -164.1257
  23   2.0000      -6.027825      -164.0255
  24   2.0000      -1.014520       -27.6065
  25   2.0000      -0.990065       -26.9410
  26   2.0000      -0.912717       -24.8363
  27   2.0000      -0.908441       -24.7199
  28   2.0000      -0.871955       -23.7271
  29   2.0000      -0.853237       -23.2178
  30   2.0000      -0.849184       -23.1075
  31   2.0000      -0.811874       -22.0922
  32   2.0000      -0.787182       -21.4203
  33   2.0000      -0.775715       -21.1083
  34   2.0000      -0.713145       -19.4057
  35   2.0000      -0.701333       -19.0843
  36   2.0000      -0.690476       -18.7888
  37   2.0000      -0.659013       -17.9327
  38   2.0000      -0.651237       -17.7210
  39   2.0000      -0.616070       -16.7641
  40   2.0000      -0.594492       -16.1769
  41   2.0000      -0.569032       -15.4842
  42   2.0000      -0.563468       -15.3328
  43   2.0000      -0.545260       -14.8373
  44   2.0000      -0.531226       -14.4554
  45   2.0000      -0.523490       -14.2449
  46   2.0000      -0.521185       -14.1822
  47   2.0000      -0.513622       -13.9764
  48   2.0000      -0.508342       -13.8327
  49   2.0000      -0.498335       -13.5604
  50   2.0000      -0.488973       -13.3056
  51   2.0000      -0.479543       -13.0490
  52   2.0000      -0.470834       -12.8120
  53   2.0000      -0.463332       -12.6079
  54   2.0000      -0.459131       -12.4936
  55   2.0000      -0.451330       -12.2813
  56   2.0000      -0.447673       -12.1818
  57   2.0000      -0.443885       -12.0787
  58   2.0000      -0.430930       -11.7262
  59   2.0000      -0.424391       -11.5483
  60   2.0000      -0.421186       -11.4611
  61   2.0000      -0.417103       -11.3499
  62   2.0000      -0.405696       -11.0396
  63   2.0000      -0.341429        -9.2908
  64   2.0000      -0.328058        -8.9269
  65   2.0000      -0.321196        -8.7402
  66   2.0000      -0.309252        -8.4152
  67   0.0000       0.047670         1.2972
  68   0.0000       0.057727         1.5708
  69   0.0000       0.112280         3.0553
  70   0.0000       0.125835         3.4241
  71   0.0000       0.128526         3.4974

MULLIKEN ATOMIC CHARGES
-----------------------
   0 S :    0.126467
   1 C :   -0.089222
   2 C :   -0.070133
   3 C :    0.045236
   4 C :   -0.209600
   5 H :    0.043381
   6 C :    0.061328
   7 H :    0.007986
   8 H :    0.006738
   9 C :    0.000996
  10 H :    0.003969
  11 H :    0.016947
  12 C :   -0.029375
  13 H :    0.002774
  14 H :    0.016237
  15 H :    0.029186
  16 S :    0.119721
  17 C :   -0.102071
  18 C :   -0.056241
  19 C :   -0.031364
  20 C :   -0.216868
  21 H :    0.029205
  22 C :    0.118743
  23 H :    0.007630
  24 H :    0.024142
  25 C :   -0.085832
  26 H :    0.016089
  27 H :    0.042095
  28 C :   -0.027951
  29 H :    0.037905
  30 H :    0.032736
  31 H :    0.026442
  32 H :    0.033748
  33 H :    0.068958
Sum of atomic charges:    0.0000000

LOEWDIN ATOMIC CHARGES
----------------------
   0 S :    0.429775
   1 C :   -0.208890
   2 C :   -0.062863
   3 C :   -0.066442
   4 C :   -0.195683
   5 H :    0.048446
   6 C :   -0.034828
   7 H :    0.025388
   8 H :    0.029460
   9 C :   -0.022714
  10 H :    0.015130
  11 H :    0.024083
  12 C :   -0.067836
  13 H :    0.015588
  14 H :    0.021630
  15 H :    0.029641
  16 S :    0.416073
  17 C :   -0.205465
  18 C :   -0.084519
  19 C :   -0.048452
  20 C :   -0.208175
  21 H :    0.035747
  22 C :   -0.022748
  23 H :    0.024440
  24 H :    0.030222
  25 C :   -0.045418
  26 H :    0.024715
  27 H :    0.029547
  28 C :   -0.057083
  29 H :    0.027833
  30 H :    0.027428
  31 H :    0.019558
  32 H :    0.021112
  33 H :    0.035302

  Mayer bond orders larger than 0.100000
B(  0-S ,  1-C ) :   1.1423 B(  0-S ,  4-C ) :   1.1770 B(  1-C ,  2-C ) :   1.6158
B(  1-C ,  4-C ) :   0.1003 B(  1-C , 32-H ) :   0.9684 B(  2-C ,  3-C ) :   1.2053
B(  2-C ,  6-C ) :   1.0349 B(  3-C ,  4-C ) :   1.5909 B(  3-C ,  5-H ) :   0.9843
B(  4-C , 20-C ) :   1.0081 B(  6-C ,  7-H ) :   0.9379 B(  6-C ,  8-H ) :   0.9403
B(  6-C ,  9-C ) :   1.0726 B(  9-C , 10-H ) :   0.9522 B(  9-C , 11-H ) :   0.9534
B(  9-C , 12-C ) :   1.0713 B( 12-C , 13-H ) :   0.9738 B( 12-C , 14-H ) :   0.9735
B( 12-C , 15-H ) :   0.9773 B( 16-S , 17-C ) :   1.1637 B( 16-S , 20-C ) :   1.1414
B( 17-C , 18-C ) :   1.6255 B( 17-C , 33-H ) :   0.9615 B( 18-C , 19-C ) :   1.2177
B( 18-C , 21-H ) :   0.9847 B( 19-C , 20-C ) :   1.6398 B( 19-C , 22-C ) :   1.0379
B( 22-C , 23-H ) :   0.9218 B( 22-C , 24-H ) :   0.9283 B( 22-C , 25-C ) :   1.0643
B( 25-C , 26-H ) :   0.9537 B( 25-C , 27-H ) :   0.9559 B( 25-C , 28-C ) :   1.0741
B( 28-C , 29-H ) :   0.9757 B( 28-C , 30-H ) :   0.9730 B( 28-C , 31-H ) :   0.9777

Dispersion correction           -0.014822352
FINAL SINGLE POINT ENERGY     -1339.862145647395

DIPOLE MOMENT
-------------
                                X             Y             Z
Electronic contribution:     14.46118       3.24151      16.45972
Nuclear contribution   :    -14.82958      -3.05342     -16.81370
                        -----------------------------------------
Total Dipole Moment    :     -0.36841       0.18809      -0.35397
                        -----------------------------------------
Magnitude (a.u.)       :      0.54442
Magnitude (Debye)      :      1.38382

Rotational constants in cm-1:     0.018128     0.009017     0.007492
Rotational constants in MHz :   543.472216   270.333972   224.591609

                             ****ORCA TERMINATED NORMALLY****
TOTAL RUN TIME: 0 days 0 hours 0 minutes 22 seconds 141 msec
