                         Program Version 4.2.1 -  RELEASE  -
|  1> ! wB97X-D3 SP def2-SVP
|  2> %pal
|  3> nprocs 24
|  4> end
|  5>
|  6> * xyz 0 1
|  7> S 	 -106.508 	 54.8565 	 -85.8345
|  8> C 	 -108.218 	 54.7532 	 -85.4332
|  9> C 	 -108.852 	 55.571 	 -86.2634
| 10> C 	 -108.101 	 56.3062 	 -87.2427
| 11> C 	 -106.74 	 56.0459 	 -87.0796
| 12> H 	 -108.541 	 56.9416 	 -88.0648
| 13> C 	 -110.313 	 55.6525 	 -86.2088
| 14> H 	 -110.468 	 55.1523 	 -85.3004
| 15> H 	 -110.806 	 55.1772 	 -87.0848
| 16> C 	 -110.848 	 57.0247 	 -86.2265
| 17> H 	 -110.659 	 57.5616 	 -87.2106
| 18> H 	 -111.931 	 56.805 	 -86.2213
| 19> C 	 -110.643 	 57.8787 	 -84.9132
| 20> H 	 -110.431 	 57.183 	 -84.0763
| 21> H 	 -109.749 	 58.4362 	 -85.0855
| 22> H 	 -111.426 	 58.5371 	 -84.5791
| 23> S 	 -104.707 	 55.5357 	 -88.6855
| 24> C 	 -103.801 	 56.8736 	 -89.485
| 25> C 	 -104.236 	 58.077 	 -89.0333
| 26> C 	 -105.287 	 57.9208 	 -88.0449
| 27> C 	 -105.644 	 56.6409 	 -87.7619
| 28> H 	 -103.935 	 58.9876 	 -89.4913
| 29> C 	 -106.046 	 59.104 	 -87.5096
| 30> H 	 -106.446 	 58.8474 	 -86.5303
| 31> H 	 -106.942 	 59.2531 	 -88.1202
| 32> C 	 -105.153 	 60.322 	 -87.3536
| 33> H 	 -104.708 	 60.6065 	 -88.335
| 34> H 	 -104.36 	 60.102 	 -86.6806
| 35> C 	 -105.993 	 61.5067 	 -86.8468
| 36> H 	 -106.538 	 61.2735 	 -85.9285
| 37> H 	 -106.845 	 61.9206 	 -87.4522
| 38> H 	 -105.211 	 62.2046 	 -86.6005
| 39> H 	 -108.718 	 54.2139 	 -84.717
| 40> H 	 -103.048 	 56.7326 	 -90.1442
| 41> *
| 42>
| 43>                          ****END OF INPUT****

CARTESIAN COORDINATES (ANGSTROEM)
---------------------------------
  S    -106.508000   54.856500  -85.834500
  C    -108.218000   54.753200  -85.433200
  C    -108.852000   55.571000  -86.263400
  C    -108.101000   56.306200  -87.242700
  C    -106.740000   56.045900  -87.079600
  H    -108.541000   56.941600  -88.064800
  C    -110.313000   55.652500  -86.208800
  H    -110.468000   55.152300  -85.300400
  H    -110.806000   55.177200  -87.084800
  C    -110.848000   57.024700  -86.226500
  H    -110.659000   57.561600  -87.210600
  H    -111.931000   56.805000  -86.221300
  C    -110.643000   57.878700  -84.913200
  H    -110.431000   57.183000  -84.076300
  H    -109.749000   58.436200  -85.085500
  H    -111.426000   58.537100  -84.579100
  S    -104.707000   55.535700  -88.685500
  C    -103.801000   56.873600  -89.485000
  C    -104.236000   58.077000  -89.033300
  C    -105.287000   57.920800  -88.044900
  C    -105.644000   56.640900  -87.761900
  H    -103.935000   58.987600  -89.491300
  C    -106.046000   59.104000  -87.509600
  H    -106.446000   58.847400  -86.530300
  H    -106.942000   59.253100  -88.120200
  C    -105.153000   60.322000  -87.353600
  H    -104.708000   60.606500  -88.335000
  H    -104.360000   60.102000  -86.680600
  C    -105.993000   61.506700  -86.846800
  H    -106.538000   61.273500  -85.928500
  H    -106.845000   61.920600  -87.452200
  H    -105.211000   62.204600  -86.600500
  H    -108.718000   54.213900  -84.717000
  H    -103.048000   56.732600  -90.144200

 Total Charge           Charge          ....    0
 Multiplicity           Mult            ....    1
 Number of Electrons    NEL             ....  134
 Basis Dimension        Dim             ....  322

ORBITAL ENERGIES
----------------

  NO   OCC          E(Eh)            E(eV)
   0   2.0000     -88.962844     -2420.8021
   1   2.0000     -88.958631     -2420.6874
   2   2.0000     -10.331062      -281.1225
   3   2.0000     -10.316877      -280.7365
   4   2.0000     -10.313601      -280.6473
   5   2.0000     -10.303275      -280.3664
   6   2.0000     -10.299410      -280.2612
   7   2.0000     -10.298558      -280.2380
   8   2.0000     -10.293582      -280.1026
   9   2.0000     -10.289707      -279.9972
  10   2.0000     -10.286344      -279.9056
  11   2.0000     -10.286310      -279.9047
  12   2.0000     -10.284239      -279.8484
  13   2.0000     -10.279498      -279.7194
  14   2.0000     -10.278573      -279.6942
  15   2.0000     -10.277442      -279.6634
  16   2.0000      -8.077836      -219.8091
  17   2.0000      -8.073801      -219.6993
  18   2.0000      -6.036428      -164.2596
  19   2.0000      -6.032372      -164.1492
  20   2.0000      -6.032227      -164.1453
  21   2.0000      -6.028525      -164.0445
  22   2.0000      -6.028237      -164.0367
  23   2.0000      -6.024448      -163.9336
  24   2.0000      -1.014202       -27.5979
  25   2.0000      -0.989741       -26.9322
  26   2.0000      -0.924660       -25.1613
  27   2.0000      -0.911806       -24.8115
  28   2.0000      -0.880051       -23.9474
  29   2.0000      -0.847094       -23.0506
  30   2.0000      -0.839200       -22.8358
  31   2.0000      -0.826134       -22.4803
  32   2.0000      -0.783975       -21.3331
  33   2.0000      -0.770797       -20.9745
  34   2.0000      -0.722318       -19.6553
  35   2.0000      -0.707873       -19.2622
  36   2.0000      -0.691900       -18.8276
  37   2.0000      -0.662267       -18.0212
  38   2.0000      -0.638324       -17.3697
  39   2.0000      -0.623488       -16.9660
  40   2.0000      -0.600786       -16.3482
  41   2.0000      -0.575636       -15.6638
  42   2.0000      -0.566614       -15.4183
  43   2.0000      -0.560260       -15.2455
  44   2.0000      -0.539472       -14.6798
  45   2.0000      -0.535559       -14.5733
  46   2.0000      -0.524455       -14.2712
  47   2.0000      -0.521758       -14.1978
  48   2.0000      -0.514578       -14.0024
  49   2.0000      -0.497851       -13.5472
  50   2.0000      -0.491466       -13.3735
  51   2.0000      -0.480160       -13.0658
  52   2.0000      -0.473783       -12.8923
  53   2.0000      -0.468282       -12.7426
  54   2.0000      -0.454321       -12.3627
  55   2.0000      -0.452092       -12.3020
  56   2.0000      -0.442763       -12.0482
  57   2.0000      -0.441181       -12.0052
  58   2.0000      -0.433296       -11.7906
  59   2.0000      -0.427465       -11.6319
  60   2.0000      -0.418694       -11.3932
  61   2.0000      -0.403898       -10.9906
  62   2.0000      -0.394088       -10.7237
  63   2.0000      -0.349672        -9.5151
  64   2.0000      -0.327461        -8.9107
  65   2.0000      -0.323435        -8.8011
  66   2.0000      -0.302083        -8.2201
  67   0.0000       0.034246         0.9319
  68   0.0000       0.069344         1.8870
  69   0.0000       0.113260         3.0820
  70   0.0000       0.124015         3.3746
  71   0.0000       0.130676         3.5559

MULLIKEN ATOMIC CHARGES
-----------------------
   0 S :    0.107022
   1 C :   -0.083622
   2 C :   -0.107656
   3 C :    0.019273
   4 C :   -0.152342
   5 H :    0.042051
   6 C :    0.113502
   7 H :   -0.014356
   8 H :    0.044894
   9 C :   -0.130863
  10 H :    0.041823
  11 H :    0.027903
  12 C :   -0.036330
  13 H :    0.024289
  14 H :    0.031299
  15 H :    0.042298
  16 S :    0.084324
  17 C :   -0.040827
  18 C :   -0.018371
  19 C :   -0.058776
  20 C :   -0.127982
  21 H :    0.015671
  22 C :    0.066559
  23 H :    0.025217
  24 H :    0.033259
  25 C :   -0.095215
  26 H :    0.034498
  27 H :    0.033724
  28 C :   -0.039271
  29 H :    0.018988
  30 H :    0.042252
  31 H :    0.032350
  32 H :    0.009817
  33 H :    0.014598
Sum of atomic charges:    0.0000000

LOEWDIN ATOMIC CHARGES
----------------------
   0 S :    0.405974
   1 C :   -0.186310
   2 C :   -0.070795
   3 C :   -0.068916
   4 C :   -0.191364
   5 H :    0.043286
   6 C :   -0.033963
   7 H :    0.020783
   8 H :    0.042078
   9 C :   -0.050322
  10 H :    0.028111
  11 H :    0.027000
  12 C :   -0.065211
  13 H :    0.028480
  14 H :    0.022836
  15 H :    0.025101
  16 S :    0.393326
  17 C :   -0.140175
  18 C :   -0.063799
  19 C :   -0.055751
  20 C :   -0.213549
  21 H :    0.029010
  22 C :   -0.035701
  23 H :    0.030625
  24 H :    0.031165
  25 C :   -0.035489
  26 H :    0.024621
  27 H :    0.025858
  28 C :   -0.071996
  29 H :    0.022758
  30 H :    0.032327
  31 H :    0.026267
  32 H :    0.017272
  33 H :    0.006465

  Mayer bond orders larger than 0.100000
B(  0-S ,  1-C ) :   1.0979 B(  0-S ,  4-C ) :   1.1689 B(  1-C ,  2-C ) :   1.6441
B(  1-C , 32-H ) :   0.9801 B(  2-C ,  3-C ) :   1.2073 B(  2-C ,  6-C ) :   1.0374
B(  3-C ,  4-C ) :   1.5658 B(  3-C ,  5-H ) :   0.9870 B(  4-C , 20-C ) :   1.0157
B(  6-C ,  7-H ) :   0.9300 B(  6-C ,  8-H ) :   0.9284 B(  6-C ,  9-C ) :   1.0969
B(  9-C , 10-H ) :   0.9508 B(  9-C , 11-H ) :   0.9564 B(  9-C , 12-C ) :   1.0486
B( 12-C , 13-H ) :   0.9757 B( 12-C , 14-H ) :   0.9760 B( 12-C , 15-H ) :   0.9816
B( 16-S , 17-C ) :   1.1426 B( 16-S , 20-C ) :   1.1289 B( 17-C , 18-C ) :   1.6310
B( 17-C , 33-H ) :   0.9805 B( 18-C , 19-C ) :   1.2015 B( 18-C , 21-H ) :   0.9963
B( 19-C , 20-C ) :   1.6451 B( 19-C , 22-C ) :   1.0455 B( 22-C , 23-H ) :   0.9308
B( 22-C , 24-H ) :   0.9309 B( 22-C , 25-C ) :   1.0738 B( 25-C , 26-H ) :   0.9464
B( 25-C , 27-H ) :   0.9584 B( 25-C , 28-C ) :   1.0821 B( 28-C , 29-H ) :   0.9708
B( 28-C , 30-H ) :   0.9748 B( 28-C , 31-H ) :   0.9735

Dispersion correction           -0.014292124
FINAL SINGLE POINT ENERGY     -1339.850909813393

DIPOLE MOMENT
-------------
                                X             Y             Z
Electronic contribution:     16.94921     -23.56711      -6.20004
Nuclear contribution   :    -17.41699      24.12967       6.07777
                        -----------------------------------------
Total Dipole Moment    :     -0.46779       0.56257      -0.12227
                        -----------------------------------------
Magnitude (a.u.)       :      0.74179
Magnitude (Debye)      :      1.88549

Rotational constants in cm-1:     0.016987     0.009918     0.006964
Rotational constants in MHz :   509.242653   297.337116   208.786567

                             ****ORCA TERMINATED NORMALLY****
TOTAL RUN TIME: 0 days 0 hours 0 minutes 22 seconds 169 msec
