                         Program Version 4.2.1 -  RELEASE  -
|  1> ! wB97X-D3 SP def2-SVP
|  2> %pal
|  3> nprocs 24
|  4> end
|  5>
|  6> * xyz 0 1
|  7> S 	 -110.425 	 55.839 	 -101.704
|  8> C 	 -112.07 	 55.3371 	 -101.973
|  9> C 	 -112.999 	 56.1737 	 -101.39
| 10> C 	 -112.277 	 57.2212 	 -100.714
| 11> C 	 -110.901 	 57.2386 	 -100.774
| 12> H 	 -112.749 	 58.0461 	 -100.212
| 13> C 	 -114.483 	 56.1282 	 -101.486
| 14> H 	 -114.799 	 55.0697 	 -101.48
| 15> H 	 -114.691 	 56.5295 	 -102.481
| 16> C 	 -115.355 	 56.9941 	 -100.479
| 17> H 	 -114.856 	 57.0187 	 -99.4792
| 18> H 	 -115.534 	 58.0255 	 -100.887
| 19> C 	 -116.819 	 56.5415 	 -100.231
| 20> H 	 -117.295 	 57.2469 	 -99.5206
| 21> H 	 -117.36 	 56.6008 	 -101.199
| 22> H 	 -116.927 	 55.4569 	 -100.059
| 23> S 	 -109.331 	 58.1039 	 -98.6133
| 24> C 	 -108.466 	 59.6923 	 -98.687
| 25> C 	 -108.763 	 60.357 	 -99.9402
| 26> C 	 -109.627 	 59.564 	 -100.783
| 27> C 	 -109.976 	 58.3063 	 -100.282
| 28> H 	 -108.407 	 61.3117 	 -100.237
| 29> C 	 -109.991 	 60.0171 	 -102.186
| 30> H 	 -110.627 	 59.208 	 -102.657
| 31> H 	 -109.057 	 60.0883 	 -102.728
| 32> C 	 -110.703 	 61.398 	 -102.146
| 33> H 	 -110.593 	 61.857 	 -103.083
| 34> H 	 -110.179 	 62.1211 	 -101.492
| 35> C 	 -112.156 	 61.3687 	 -101.643
| 36> H 	 -112.695 	 60.4235 	 -101.768
| 37> H 	 -112.732 	 62.1937 	 -102.152
| 38> H 	 -112.196 	 61.6264 	 -100.588
| 39> H 	 -112.234 	 54.5222 	 -102.592
| 40> H 	 -107.719 	 60.0858 	 -97.9528
| 41> *
| 42>
| 43>                          ****END OF INPUT****

CARTESIAN COORDINATES (ANGSTROEM)
---------------------------------
  S    -110.425000   55.839000  -101.704000
  C    -112.070000   55.337100  -101.973000
  C    -112.999000   56.173700  -101.390000
  C    -112.277000   57.221200  -100.714000
  C    -110.901000   57.238600  -100.774000
  H    -112.749000   58.046100  -100.212000
  C    -114.483000   56.128200  -101.486000
  H    -114.799000   55.069700  -101.480000
  H    -114.691000   56.529500  -102.481000
  C    -115.355000   56.994100  -100.479000
  H    -114.856000   57.018700  -99.479200
  H    -115.534000   58.025500  -100.887000
  C    -116.819000   56.541500  -100.231000
  H    -117.295000   57.246900  -99.520600
  H    -117.360000   56.600800  -101.199000
  H    -116.927000   55.456900  -100.059000
  S    -109.331000   58.103900  -98.613300
  C    -108.466000   59.692300  -98.687000
  C    -108.763000   60.357000  -99.940200
  C    -109.627000   59.564000  -100.783000
  C    -109.976000   58.306300  -100.282000
  H    -108.407000   61.311700  -100.237000
  C    -109.991000   60.017100  -102.186000
  H    -110.627000   59.208000  -102.657000
  H    -109.057000   60.088300  -102.728000
  C    -110.703000   61.398000  -102.146000
  H    -110.593000   61.857000  -103.083000
  H    -110.179000   62.121100  -101.492000
  C    -112.156000   61.368700  -101.643000
  H    -112.695000   60.423500  -101.768000
  H    -112.732000   62.193700  -102.152000
  H    -112.196000   61.626400  -100.588000
  H    -112.234000   54.522200  -102.592000
  H    -107.719000   60.085800  -97.952800

 Total Charge           Charge          ....    0
 Multiplicity           Mult            ....    1
 Number of Electrons    NEL             ....  134
 Basis Dimension        Dim             ....  322

ORBITAL ENERGIES
----------------

  NO   OCC          E(Eh)            E(eV)
   0   2.0000     -88.965892     -2420.8850
   1   2.0000     -88.963144     -2420.8102
   2   2.0000     -10.335531      -281.2441
   3   2.0000     -10.332594      -281.1642
   4   2.0000     -10.329397      -281.0772
   5   2.0000     -10.310900      -280.5738
   6   2.0000     -10.306353      -280.4501
   7   2.0000     -10.304525      -280.4004
   8   2.0000     -10.302579      -280.3474
   9   2.0000     -10.301201      -280.3099
  10   2.0000     -10.301096      -280.3071
  11   2.0000     -10.293843      -280.1097
  12   2.0000     -10.291407      -280.0434
  13   2.0000     -10.287707      -279.9427
  14   2.0000     -10.284976      -279.8684
  15   2.0000     -10.278781      -279.6998
  16   2.0000      -8.078672      -219.8318
  17   2.0000      -8.078171      -219.8182
  18   2.0000      -6.037351      -164.2847
  19   2.0000      -6.036589      -164.2639
  20   2.0000      -6.033378      -164.1765
  21   2.0000      -6.032512      -164.1530
  22   2.0000      -6.029432      -164.0692
  23   2.0000      -6.029130      -164.0610
  24   2.0000      -0.999999       -27.2113
  25   2.0000      -0.972307       -26.4578
  26   2.0000      -0.906808       -24.6755
  27   2.0000      -0.902183       -24.5497
  28   2.0000      -0.863936       -23.5089
  29   2.0000      -0.846444       -23.0329
  30   2.0000      -0.841379       -22.8951
  31   2.0000      -0.811262       -22.0756
  32   2.0000      -0.780682       -21.2434
  33   2.0000      -0.769266       -20.9328
  34   2.0000      -0.706451       -19.2235
  35   2.0000      -0.698086       -18.9959
  36   2.0000      -0.687449       -18.7064
  37   2.0000      -0.660224       -17.9656
  38   2.0000      -0.645456       -17.5637
  39   2.0000      -0.616518       -16.7763
  40   2.0000      -0.587526       -15.9874
  41   2.0000      -0.569511       -15.4972
  42   2.0000      -0.564566       -15.3626
  43   2.0000      -0.551538       -15.0081
  44   2.0000      -0.535319       -14.5668
  45   2.0000      -0.528595       -14.3838
  46   2.0000      -0.519341       -14.1320
  47   2.0000      -0.509246       -13.8573
  48   2.0000      -0.502705       -13.6793
  49   2.0000      -0.493062       -13.4169
  50   2.0000      -0.485802       -13.2193
  51   2.0000      -0.482492       -13.1293
  52   2.0000      -0.464434       -12.6379
  53   2.0000      -0.460695       -12.5362
  54   2.0000      -0.456490       -12.4217
  55   2.0000      -0.449023       -12.2185
  56   2.0000      -0.443712       -12.0740
  57   2.0000      -0.433900       -11.8070
  58   2.0000      -0.427361       -11.6291
  59   2.0000      -0.425562       -11.5801
  60   2.0000      -0.422420       -11.4946
  61   2.0000      -0.416853       -11.3431
  62   2.0000      -0.406251       -11.0547
  63   2.0000      -0.332225        -9.0403
  64   2.0000      -0.326034        -8.8718
  65   2.0000      -0.318138        -8.6570
  66   2.0000      -0.311386        -8.4732
  67   0.0000       0.040950         1.1143
  68   0.0000       0.050246         1.3673
  69   0.0000       0.113732         3.0948
  70   0.0000       0.117117         3.1869
  71   0.0000       0.124368         3.3842

MULLIKEN ATOMIC CHARGES
-----------------------
   0 S :    0.109218
   1 C :   -0.120899
   2 C :   -0.064746
   3 C :    0.031700
   4 C :   -0.179453
   5 H :    0.008423
   6 C :    0.075432
   7 H :    0.035046
   8 H :    0.045532
   9 C :   -0.132307
  10 H :    0.054436
  11 H :    0.045677
  12 C :   -0.061274
  13 H :    0.054745
  14 H :    0.022787
  15 H :    0.035976
  16 S :    0.095708
  17 C :   -0.115259
  18 C :   -0.019351
  19 C :   -0.028397
  20 C :   -0.172952
  21 H :    0.012761
  22 C :    0.056049
  23 H :    0.050227
  24 H :    0.037043
  25 C :   -0.069095
  26 H :    0.014662
  27 H :    0.022742
  28 C :   -0.061915
  29 H :    0.038040
  30 H :    0.036382
  31 H :    0.036650
  32 H :    0.022028
  33 H :    0.084383
Sum of atomic charges:   -0.0000000

LOEWDIN ATOMIC CHARGES
----------------------
   0 S :    0.412616
   1 C :   -0.181951
   2 C :   -0.065447
   3 C :   -0.059205
   4 C :   -0.212795
   5 H :    0.026279
   6 C :   -0.037194
   7 H :    0.035380
   8 H :    0.041116
   9 C :   -0.049287
  10 H :    0.028431
  11 H :    0.032657
  12 C :   -0.073437
  13 H :    0.035249
  14 H :    0.024865
  15 H :    0.024972
  16 S :    0.370426
  17 C :   -0.175229
  18 C :   -0.066390
  19 C :   -0.051106
  20 C :   -0.193805
  21 H :    0.023606
  22 C :   -0.028162
  23 H :    0.039062
  24 H :    0.032956
  25 C :   -0.042270
  26 H :    0.014875
  27 H :    0.026313
  28 C :   -0.070181
  29 H :    0.024011
  30 H :    0.033640
  31 H :    0.027037
  32 H :    0.011221
  33 H :    0.041749

  Mayer bond orders larger than 0.100000
B(  0-S ,  1-C ) :   1.1676 B(  0-S ,  4-C ) :   1.1451 B(  1-C ,  2-C ) :   1.5785
B(  1-C , 32-H ) :   0.9839 B(  2-C ,  3-C ) :   1.2512 B(  2-C ,  6-C ) :   1.0179
B(  3-C ,  4-C ) :   1.5875 B(  3-C ,  5-H ) :   0.9924 B(  4-C , 20-C ) :   0.9959
B(  6-C ,  7-H ) :   0.9442 B(  6-C ,  8-H ) :   0.9275 B(  6-C ,  9-C ) :   1.0582
B(  9-C , 10-H ) :   0.9621 B(  9-C , 11-H ) :   0.9521 B(  9-C , 12-C ) :   1.0815
B( 12-C , 13-H ) :   0.9730 B( 12-C , 14-H ) :   0.9737 B( 12-C , 15-H ) :   0.9750
B( 16-S , 17-C ) :   1.1603 B( 16-S , 20-C ) :   1.1231 B( 17-C , 18-C ) :   1.5847
B( 17-C , 20-C ) :   0.1077 B( 17-C , 33-H ) :   0.9619 B( 18-C , 19-C ) :   1.2446
B( 18-C , 21-H ) :   0.9867 B( 19-C , 20-C ) :   1.6101 B( 19-C , 22-C ) :   1.0335
B( 22-C , 23-H ) :   0.9430 B( 22-C , 24-H ) :   0.9370 B( 22-C , 25-C ) :   1.0669
B( 25-C , 26-H ) :   0.9609 B( 25-C , 27-H ) :   0.9591 B( 25-C , 28-C ) :   1.0551
B( 28-C , 29-H ) :   0.9788 B( 28-C , 30-H ) :   0.9750 B( 28-C , 31-H ) :   0.9782

Dispersion correction           -0.014592515
FINAL SINGLE POINT ENERGY     -1339.871344089976

DIPOLE MOMENT
-------------
                                X             Y             Z
Electronic contribution:     24.26960     -12.22582       6.57403
Nuclear contribution   :    -24.77454      12.68179      -6.94705
                        -----------------------------------------
Total Dipole Moment    :     -0.50494       0.45597      -0.37302
                        -----------------------------------------
Magnitude (a.u.)       :      0.77590
Magnitude (Debye)      :      1.97217

Rotational constants in cm-1:     0.017564     0.008329     0.007219
Rotational constants in MHz :   526.553878   249.689927   216.424934

                             ****ORCA TERMINATED NORMALLY****
TOTAL RUN TIME: 0 days 0 hours 0 minutes 21 seconds 576 msec
