                         Program Version 4.2.1 -  RELEASE  -
|  1> ! wB97X-D3 SP def2-SVP
|  2> %pal
|  3> nprocs 24
|  4> end
|  5>
|  6> * xyz 0 1
|  7> S 	 -105.976 	 20.2881 	 -109.241
|  8> C 	 -104.508 	 20.2676 	 -108.247
|  9> C 	 -103.513 	 19.4252 	 -108.829
| 10> C 	 -103.939 	 19.027 	 -110.134
| 11> C 	 -105.117 	 19.5771 	 -110.575
| 12> H 	 -103.446 	 18.3615 	 -110.841
| 13> C 	 -102.192 	 19.0073 	 -108.219
| 14> H 	 -101.572 	 18.8743 	 -109.097
| 15> H 	 -102.25 	 18.0502 	 -107.821
| 16> C 	 -101.603 	 19.9642 	 -107.192
| 17> H 	 -102.262 	 20.0662 	 -106.365
| 18> H 	 -100.648 	 19.593 	 -106.784
| 19> C 	 -101.273 	 21.3512 	 -107.737
| 20> H 	 -102.181 	 21.8163 	 -107.991
| 21> H 	 -100.825 	 21.9825 	 -107.002
| 22> H 	 -100.607 	 21.339 	 -108.66
| 23> S 	 -107.039 	 18.2456 	 -112.045
| 24> C 	 -106.974 	 18.2904 	 -113.807
| 25> C 	 -105.995 	 19.1729 	 -114.206
| 26> C 	 -105.377 	 19.8942 	 -113.117
| 27> C 	 -105.724 	 19.3917 	 -111.871
| 28> H 	 -105.753 	 19.2752 	 -115.298
| 29> C 	 -104.304 	 20.9651 	 -113.435
| 30> H 	 -103.901 	 20.6126 	 -114.379
| 31> H 	 -103.513 	 20.8303 	 -112.695
| 32> C 	 -104.853 	 22.3898 	 -113.533
| 33> H 	 -105.735 	 22.4851 	 -114.243
| 34> H 	 -104.073 	 23.0903 	 -113.829
| 35> C 	 -105.363 	 22.8999 	 -112.235
| 36> H 	 -106.287 	 22.4692 	 -111.875
| 37> H 	 -105.459 	 23.9752 	 -112.382
| 38> H 	 -104.688 	 22.7507 	 -111.382
| 39> H 	 -104.434 	 20.526 	 -107.247
| 40> H 	 -107.583 	 17.6732 	 -114.467
| 41> *
| 42>
| 43>                          ****END OF INPUT****

CARTESIAN COORDINATES (ANGSTROEM)
---------------------------------
  S    -105.976000   20.288100  -109.241000
  C    -104.508000   20.267600  -108.247000
  C    -103.513000   19.425200  -108.829000
  C    -103.939000   19.027000  -110.134000
  C    -105.117000   19.577100  -110.575000
  H    -103.446000   18.361500  -110.841000
  C    -102.192000   19.007300  -108.219000
  H    -101.572000   18.874300  -109.097000
  H    -102.250000   18.050200  -107.821000
  C    -101.603000   19.964200  -107.192000
  H    -102.262000   20.066200  -106.365000
  H    -100.648000   19.593000  -106.784000
  C    -101.273000   21.351200  -107.737000
  H    -102.181000   21.816300  -107.991000
  H    -100.825000   21.982500  -107.002000
  H    -100.607000   21.339000  -108.660000
  S    -107.039000   18.245600  -112.045000
  C    -106.974000   18.290400  -113.807000
  C    -105.995000   19.172900  -114.206000
  C    -105.377000   19.894200  -113.117000
  C    -105.724000   19.391700  -111.871000
  H    -105.753000   19.275200  -115.298000
  C    -104.304000   20.965100  -113.435000
  H    -103.901000   20.612600  -114.379000
  H    -103.513000   20.830300  -112.695000
  C    -104.853000   22.389800  -113.533000
  H    -105.735000   22.485100  -114.243000
  H    -104.073000   23.090300  -113.829000
  C    -105.363000   22.899900  -112.235000
  H    -106.287000   22.469200  -111.875000
  H    -105.459000   23.975200  -112.382000
  H    -104.688000   22.750700  -111.382000
  H    -104.434000   20.526000  -107.247000
  H    -107.583000   17.673200  -114.467000

 Total Charge           Charge          ....    0
 Multiplicity           Mult            ....    1
 Number of Electrons    NEL             ....  134
 Basis Dimension        Dim             ....  322

ORBITAL ENERGIES
----------------

  NO   OCC          E(Eh)            E(eV)
   0   2.0000     -88.967933     -2420.9405
   1   2.0000     -88.962600     -2420.7954
   2   2.0000     -10.326625      -281.0018
   3   2.0000     -10.325601      -280.9739
   4   2.0000     -10.320586      -280.8374
   5   2.0000     -10.315163      -280.6899
   6   2.0000     -10.308770      -280.5159
   7   2.0000     -10.305898      -280.4377
   8   2.0000     -10.298584      -280.2387
   9   2.0000     -10.294921      -280.1391
  10   2.0000     -10.289941      -280.0035
  11   2.0000     -10.289721      -279.9975
  12   2.0000     -10.287369      -279.9335
  13   2.0000     -10.285045      -279.8703
  14   2.0000     -10.272171      -279.5200
  15   2.0000     -10.262684      -279.2618
  16   2.0000      -8.082189      -219.9275
  17   2.0000      -8.077340      -219.7956
  18   2.0000      -6.040666      -164.3749
  19   2.0000      -6.036907      -164.2726
  20   2.0000      -6.035912      -164.2455
  21   2.0000      -6.032853      -164.1623
  22   2.0000      -6.031776      -164.1330
  23   2.0000      -6.028101      -164.0330
  24   2.0000      -1.006098       -27.3773
  25   2.0000      -0.981656       -26.7122
  26   2.0000      -0.918041       -24.9812
  27   2.0000      -0.907742       -24.7009
  28   2.0000      -0.868013       -23.6198
  29   2.0000      -0.850821       -23.1520
  30   2.0000      -0.845209       -22.9993
  31   2.0000      -0.812934       -22.1211
  32   2.0000      -0.787578       -21.4311
  33   2.0000      -0.773059       -21.0360
  34   2.0000      -0.711513       -19.3613
  35   2.0000      -0.701250       -19.0820
  36   2.0000      -0.686878       -18.6909
  37   2.0000      -0.656433       -17.8625
  38   2.0000      -0.644676       -17.5425
  39   2.0000      -0.608732       -16.5645
  40   2.0000      -0.590691       -16.0735
  41   2.0000      -0.577133       -15.7046
  42   2.0000      -0.561259       -15.2726
  43   2.0000      -0.555501       -15.1160
  44   2.0000      -0.545184       -14.8352
  45   2.0000      -0.536130       -14.5888
  46   2.0000      -0.517341       -14.0776
  47   2.0000      -0.514323       -13.9954
  48   2.0000      -0.505114       -13.7448
  49   2.0000      -0.497677       -13.5425
  50   2.0000      -0.491942       -13.3864
  51   2.0000      -0.475519       -12.9395
  52   2.0000      -0.470111       -12.7924
  53   2.0000      -0.462859       -12.5950
  54   2.0000      -0.454236       -12.3604
  55   2.0000      -0.443081       -12.0569
  56   2.0000      -0.441917       -12.0252
  57   2.0000      -0.438519       -11.9327
  58   2.0000      -0.433447       -11.7947
  59   2.0000      -0.424943       -11.5633
  60   2.0000      -0.419801       -11.4234
  61   2.0000      -0.417962       -11.3733
  62   2.0000      -0.408749       -11.1226
  63   2.0000      -0.336655        -9.1608
  64   2.0000      -0.327310        -8.9065
  65   2.0000      -0.325244        -8.8504
  66   2.0000      -0.302867        -8.2414
  67   0.0000       0.034879         0.9491
  68   0.0000       0.052993         1.4420
  69   0.0000       0.106810         2.9065
  70   0.0000       0.124580         3.3900
  71   0.0000       0.127427         3.4675

MULLIKEN ATOMIC CHARGES
-----------------------
   0 S :    0.117685
   1 C :   -0.081168
   2 C :   -0.138155
   3 C :    0.046878
   4 C :   -0.182903
   5 H :    0.016226
   6 C :    0.136492
   7 H :    0.016621
   8 H :    0.027964
   9 C :   -0.079663
  10 H :    0.021274
  11 H :    0.029255
  12 C :   -0.043409
  13 H :    0.019067
  14 H :    0.027492
  15 H :    0.037725
  16 S :    0.100553
  17 C :   -0.096426
  18 C :   -0.053787
  19 C :   -0.064086
  20 C :   -0.167275
  21 H :    0.041985
  22 C :    0.102053
  23 H :    0.011018
  24 H :    0.027079
  25 C :   -0.058501
  26 H :    0.038314
  27 H :    0.032454
  28 C :   -0.053952
  29 H :    0.032416
  30 H :    0.027254
  31 H :    0.025357
  32 H :    0.021488
  33 H :    0.062672
Sum of atomic charges:    0.0000000

LOEWDIN ATOMIC CHARGES
----------------------
   0 S :    0.409496
   1 C :   -0.189344
   2 C :   -0.050561
   3 C :   -0.059053
   4 C :   -0.201815
   5 H :    0.033807
   6 C :   -0.025383
   7 H :    0.032651
   8 H :    0.029115
   9 C :   -0.037671
  10 H :    0.018627
  11 H :    0.028880
  12 C :   -0.062874
  13 H :    0.015552
  14 H :    0.022205
  15 H :    0.032427
  16 S :    0.394150
  17 C :   -0.181483
  18 C :   -0.080695
  19 C :   -0.050634
  20 C :   -0.208499
  21 H :    0.040667
  22 C :   -0.027607
  23 H :    0.026165
  24 H :    0.030122
  25 C :   -0.043975
  26 H :    0.034303
  27 H :    0.026249
  28 C :   -0.068989
  29 H :    0.020043
  30 H :    0.027043
  31 H :    0.023446
  32 H :    0.010486
  33 H :    0.033149

  Mayer bond orders larger than 0.100000
B(  0-S ,  1-C ) :   1.1409 B(  0-S ,  4-C ) :   1.1485 B(  1-C ,  2-C ) :   1.5930
B(  1-C ,  4-C ) :   0.1076 B(  1-C , 32-H ) :   0.9707 B(  2-C ,  3-C ) :   1.2469
B(  2-C ,  6-C ) :   1.0003 B(  3-C ,  4-C ) :   1.5940 B(  3-C ,  5-H ) :   0.9902
B(  4-C , 20-C ) :   1.0277 B(  6-C ,  7-H ) :   0.9389 B(  6-C ,  8-H ) :   0.9259
B(  6-C ,  9-C ) :   1.0847 B(  9-C , 10-H ) :   0.9501 B(  9-C , 11-H ) :   0.9540
B(  9-C , 12-C ) :   1.0838 B( 12-C , 13-H ) :   0.9731 B( 12-C , 14-H ) :   0.9728
B( 12-C , 15-H ) :   0.9745 B( 16-S , 17-C ) :   1.1476 B( 16-S , 20-C ) :   1.1373
B( 17-C , 18-C ) :   1.6231 B( 17-C , 33-H ) :   0.9673 B( 18-C , 19-C ) :   1.2402
B( 18-C , 21-H ) :   0.9774 B( 19-C , 20-C ) :   1.6069 B( 19-C , 22-C ) :   1.0195
B( 22-C , 23-H ) :   0.9342 B( 22-C , 24-H ) :   0.9376 B( 22-C , 25-C ) :   1.0744
B( 25-C , 26-H ) :   0.9516 B( 25-C , 27-H ) :   0.9554 B( 25-C , 28-C ) :   1.0820
B( 28-C , 29-H ) :   0.9724 B( 28-C , 30-H ) :   0.9721 B( 28-C , 31-H ) :   0.9728

Dispersion correction           -0.015453777
FINAL SINGLE POINT ENERGY     -1339.876567981328

DIPOLE MOMENT
-------------
                                X             Y             Z
Electronic contribution:    -20.06431     -13.96557      -2.76885
Nuclear contribution   :     20.67665      13.87772       2.65534
                        -----------------------------------------
Total Dipole Moment    :      0.61234      -0.08785      -0.11351
                        -----------------------------------------
Magnitude (a.u.)       :      0.62894
Magnitude (Debye)      :      1.59864

Rotational constants in cm-1:     0.021924     0.008437     0.007357
Rotational constants in MHz :   657.266961   252.935382   220.543343

                             ****ORCA TERMINATED NORMALLY****
TOTAL RUN TIME: 0 days 0 hours 0 minutes 22 seconds 266 msec
