                         Program Version 4.2.1 -  RELEASE  -
|  1> ! wB97X-D3 SP def2-SVP
|  2> %pal
|  3> nprocs 24
|  4> end
|  5>
|  6> * xyz 0 1
|  7> S 	 -38.0767 	 -9.80797 	 16.1923
|  8> C 	 -36.6078 	 -10.4306 	 16.9874
|  9> C 	 -35.5623 	 -9.55318 	 16.8521
| 10> C 	 -35.9789 	 -8.36416 	 16.035
| 11> C 	 -37.2735 	 -8.36351 	 15.5882
| 12> H 	 -35.4151 	 -7.43053 	 15.8581
| 13> C 	 -34.185 	 -9.80231 	 17.4031
| 14> H 	 -33.9743 	 -8.94677 	 18.0681
| 15> H 	 -33.4527 	 -9.73102 	 16.6743
| 16> C 	 -33.9993 	 -11.0575 	 18.2345
| 17> H 	 -34.8156 	 -11.194 	 18.9158
| 18> H 	 -33.9594 	 -11.966 	 17.6163
| 19> C 	 -32.6869 	 -11.0619 	 19.0202
| 20> H 	 -32.58 	 -11.9546 	 19.5569
| 21> H 	 -31.7157 	 -11.0365 	 18.3962
| 22> H 	 -32.7293 	 -10.1909 	 19.7315
| 23> S 	 -37.1899 	 -6.81518 	 13.3366
| 24> C 	 -38.4978 	 -5.60152 	 13.1499
| 25> C 	 -39.3878 	 -5.63891 	 14.1948
| 26> C 	 -39.0986 	 -6.60394 	 15.1692
| 27> C 	 -37.9394 	 -7.31346 	 14.8872
| 28> H 	 -40.1933 	 -4.90852 	 14.3169
| 29> C 	 -40.0034 	 -6.53728 	 16.4011
| 30> H 	 -40.2032 	 -7.52115 	 16.8161
| 31> H 	 -40.9815 	 -6.22751 	 16.0247
| 32> C 	 -39.5815 	 -5.708 	 17.57
| 33> H 	 -40.3873 	 -5.55321 	 18.2021
| 34> H 	 -39.3631 	 -4.72362 	 17.2512
| 35> C 	 -38.3879 	 -6.31137 	 18.3223
| 36> H 	 -38.7042 	 -7.18629 	 18.7685
| 37> H 	 -38.137 	 -5.74124 	 19.207
| 38> H 	 -37.4575 	 -6.45113 	 17.7065
| 39> H 	 -36.5691 	 -11.4066 	 17.4851
| 40> H 	 -38.6781 	 -4.86632 	 12.3544
| 41> *
| 42>
| 43>                          ****END OF INPUT****

CARTESIAN COORDINATES (ANGSTROEM)
---------------------------------
  S    -38.076700   -9.807970   16.192300
  C    -36.607800  -10.430600   16.987400
  C    -35.562300   -9.553180   16.852100
  C    -35.978900   -8.364160   16.035000
  C    -37.273500   -8.363510   15.588200
  H    -35.415100   -7.430530   15.858100
  C    -34.185000   -9.802310   17.403100
  H    -33.974300   -8.946770   18.068100
  H    -33.452700   -9.731020   16.674300
  C    -33.999300  -11.057500   18.234500
  H    -34.815600  -11.194000   18.915800
  H    -33.959400  -11.966000   17.616300
  C    -32.686900  -11.061900   19.020200
  H    -32.580000  -11.954600   19.556900
  H    -31.715700  -11.036500   18.396200
  H    -32.729300  -10.190900   19.731500
  S    -37.189900   -6.815180   13.336600
  C    -38.497800   -5.601520   13.149900
  C    -39.387800   -5.638910   14.194800
  C    -39.098600   -6.603940   15.169200
  C    -37.939400   -7.313460   14.887200
  H    -40.193300   -4.908520   14.316900
  C    -40.003400   -6.537280   16.401100
  H    -40.203200   -7.521150   16.816100
  H    -40.981500   -6.227510   16.024700
  C    -39.581500   -5.708000   17.570000
  H    -40.387300   -5.553210   18.202100
  H    -39.363100   -4.723620   17.251200
  C    -38.387900   -6.311370   18.322300
  H    -38.704200   -7.186290   18.768500
  H    -38.137000   -5.741240   19.207000
  H    -37.457500   -6.451130   17.706500
  H    -36.569100  -11.406600   17.485100
  H    -38.678100   -4.866320   12.354400

 Total Charge           Charge          ....    0
 Multiplicity           Mult            ....    1
 Number of Electrons    NEL             ....  134
 Basis Dimension        Dim             ....  322

ORBITAL ENERGIES
----------------

  NO   OCC          E(Eh)            E(eV)
   0   2.0000     -88.972242     -2421.0578
   1   2.0000     -88.960167     -2420.7292
   2   2.0000     -10.330422      -281.1051
   3   2.0000     -10.327493      -281.0254
   4   2.0000     -10.320839      -280.8443
   5   2.0000     -10.316458      -280.7251
   6   2.0000     -10.308944      -280.5206
   7   2.0000     -10.301658      -280.3224
   8   2.0000     -10.299396      -280.2608
   9   2.0000     -10.290099      -280.0078
  10   2.0000     -10.288930      -279.9760
  11   2.0000     -10.287414      -279.9348
  12   2.0000     -10.287195      -279.9288
  13   2.0000     -10.285461      -279.8816
  14   2.0000     -10.272046      -279.5166
  15   2.0000     -10.265300      -279.3330
  16   2.0000      -8.085217      -220.0099
  17   2.0000      -8.074317      -219.7133
  18   2.0000      -6.043848      -164.4615
  19   2.0000      -6.040084      -164.3590
  20   2.0000      -6.035824      -164.2431
  21   2.0000      -6.033036      -164.1673
  22   2.0000      -6.028925      -164.0554
  23   2.0000      -6.024847      -163.9444
  24   2.0000      -1.002208       -27.2715
  25   2.0000      -0.977442       -26.5975
  26   2.0000      -0.918314       -24.9886
  27   2.0000      -0.912246       -24.8235
  28   2.0000      -0.873079       -23.7577
  29   2.0000      -0.850483       -23.1428
  30   2.0000      -0.840138       -22.8613
  31   2.0000      -0.811580       -22.0842
  32   2.0000      -0.785499       -21.3745
  33   2.0000      -0.772889       -21.0314
  34   2.0000      -0.715137       -19.4599
  35   2.0000      -0.706156       -19.2155
  36   2.0000      -0.691547       -18.8179
  37   2.0000      -0.663834       -18.0638
  38   2.0000      -0.638611       -17.3775
  39   2.0000      -0.604321       -16.4444
  40   2.0000      -0.596267       -16.2252
  41   2.0000      -0.578197       -15.7335
  42   2.0000      -0.569272       -15.4907
  43   2.0000      -0.555398       -15.1131
  44   2.0000      -0.539106       -14.6698
  45   2.0000      -0.522783       -14.2256
  46   2.0000      -0.515254       -14.0208
  47   2.0000      -0.508999       -13.8506
  48   2.0000      -0.506574       -13.7846
  49   2.0000      -0.496220       -13.5028
  50   2.0000      -0.492585       -13.4039
  51   2.0000      -0.478134       -13.0107
  52   2.0000      -0.467341       -12.7170
  53   2.0000      -0.462748       -12.5920
  54   2.0000      -0.455270       -12.3885
  55   2.0000      -0.448005       -12.1908
  56   2.0000      -0.446839       -12.1591
  57   2.0000      -0.433766       -11.8034
  58   2.0000      -0.432074       -11.7573
  59   2.0000      -0.426283       -11.5998
  60   2.0000      -0.423171       -11.5151
  61   2.0000      -0.415046       -11.2940
  62   2.0000      -0.412979       -11.2377
  63   2.0000      -0.348011        -9.4699
  64   2.0000      -0.337489        -9.1836
  65   2.0000      -0.321785        -8.7562
  66   2.0000      -0.294717        -8.0197
  67   0.0000       0.029116         0.7923
  68   0.0000       0.072157         1.9635
  69   0.0000       0.099990         2.7209
  70   0.0000       0.118051         3.2123
  71   0.0000       0.130857         3.5608

MULLIKEN ATOMIC CHARGES
-----------------------
   0 S :    0.095834
   1 C :   -0.147840
   2 C :   -0.084952
   3 C :    0.005808
   4 C :   -0.131543
   5 H :    0.025144
   6 C :    0.116155
   7 H :    0.026078
   8 H :    0.017417
   9 C :   -0.103938
  10 H :    0.029665
  11 H :    0.033067
  12 C :   -0.057968
  13 H :    0.022313
  14 H :    0.042870
  15 H :    0.038352
  16 S :    0.117099
  17 C :   -0.085410
  18 C :   -0.051498
  19 C :   -0.007399
  20 C :   -0.197812
  21 H :    0.024906
  22 C :    0.066320
  23 H :    0.009420
  24 H :    0.013851
  25 C :    0.013487
  26 H :    0.006927
  27 H :   -0.001768
  28 C :   -0.033145
  29 H :    0.005134
  30 H :    0.017235
  31 H :    0.054930
  32 H :    0.062545
  33 H :    0.058716
Sum of atomic charges:   -0.0000000

LOEWDIN ATOMIC CHARGES
----------------------
   0 S :    0.378961
   1 C :   -0.191733
   2 C :   -0.056225
   3 C :   -0.072119
   4 C :   -0.192923
   5 H :    0.032492
   6 C :   -0.028438
   7 H :    0.038413
   8 H :    0.024531
   9 C :   -0.043518
  10 H :    0.021396
  11 H :    0.025837
  12 C :   -0.065129
  13 H :    0.017380
  14 H :    0.034463
  15 H :    0.028463
  16 S :    0.386193
  17 C :   -0.177484
  18 C :   -0.070328
  19 C :   -0.053598
  20 C :   -0.185192
  21 H :    0.034698
  22 C :   -0.028097
  23 H :    0.024172
  24 H :    0.030029
  25 C :   -0.030264
  26 H :    0.018752
  27 H :    0.015125
  28 C :   -0.060389
  29 H :    0.013930
  30 H :    0.024691
  31 H :    0.036210
  32 H :    0.033564
  33 H :    0.036136

  Mayer bond orders larger than 0.100000
B(  0-S ,  1-C ) :   1.1086 B(  0-S ,  4-C ) :   1.1159 B(  1-C ,  2-C ) :   1.6689
B(  1-C , 32-H ) :   0.9562 B(  2-C ,  3-C ) :   1.1833 B(  2-C ,  6-C ) :   1.0171
B(  3-C ,  4-C ) :   1.6203 B(  3-C ,  5-H ) :   0.9849 B(  4-C , 20-C ) :   1.0668
B(  6-C ,  7-H ) :   0.9304 B(  6-C ,  8-H ) :   0.9311 B(  6-C ,  9-C ) :   1.0857
B(  9-C , 10-H ) :   0.9475 B(  9-C , 11-H ) :   0.9482 B(  9-C , 12-C ) :   1.0918
B( 12-C , 13-H ) :   0.9719 B( 12-C , 14-H ) :   0.9737 B( 12-C , 15-H ) :   0.9748
B( 16-S , 17-C ) :   1.1303 B( 16-S , 20-C ) :   1.1277 B( 17-C , 18-C ) :   1.6358
B( 17-C , 20-C ) :   0.1023 B( 17-C , 33-H ) :   0.9598 B( 18-C , 19-C ) :   1.2475
B( 18-C , 21-H ) :   0.9788 B( 19-C , 20-C ) :   1.5909 B( 19-C , 22-C ) :   1.0381
B( 22-C , 23-H ) :   0.9269 B( 22-C , 24-H ) :   0.9282 B( 22-C , 25-C ) :   1.0870
B( 25-C , 26-H ) :   0.9443 B( 25-C , 27-H ) :   0.9456 B( 25-C , 28-C ) :   1.0853
B( 28-C , 29-H ) :   0.9709 B( 28-C , 30-H ) :   0.9682 B( 28-C , 31-H ) :   0.9725

Dispersion correction           -0.015048751
FINAL SINGLE POINT ENERGY     -1339.875488775627

DIPOLE MOMENT
-------------
                                X             Y             Z
Electronic contribution:     -9.40418       1.21287     -21.93036
Nuclear contribution   :      9.54394      -1.00128      22.41895
                        -----------------------------------------
Total Dipole Moment    :      0.13976       0.21160       0.48859
                        -----------------------------------------
Magnitude (a.u.)       :      0.55047
Magnitude (Debye)      :      1.39920

Rotational constants in cm-1:     0.023798     0.007482     0.006645
Rotational constants in MHz :   713.448580   224.312698   199.212774

                             ****ORCA TERMINATED NORMALLY****
TOTAL RUN TIME: 0 days 0 hours 0 minutes 20 seconds 570 msec
