                         Program Version 4.2.1 -  RELEASE  -
|  1> ! wB97X-D3 SP def2-SVP
|  2> %pal
|  3> nprocs 24
|  4> end
|  5>
|  6> * xyz 0 1
|  7> S 	 -146.989 	 14.8353 	 -4.027
|  8> C 	 -146.974 	 15.1286 	 -5.80579
|  9> C 	 -146.111 	 14.2954 	 -6.40745
| 10> C 	 -145.531 	 13.3158 	 -5.53175
| 11> C 	 -146.165 	 13.3157 	 -4.25721
| 12> H 	 -144.757 	 12.5818 	 -5.70976
| 13> C 	 -145.665 	 14.4993 	 -7.81939
| 14> H 	 -146.505 	 14.7046 	 -8.51067
| 15> H 	 -145.475 	 13.5273 	 -8.1876
| 16> C 	 -144.462 	 15.4049 	 -7.94449
| 17> H 	 -144.679 	 16.4392 	 -7.58333
| 18> H 	 -143.707 	 14.885 	 -7.32684
| 19> C 	 -143.94 	 15.5968 	 -9.34141
| 20> H 	 -144.701 	 15.8746 	 -10.0667
| 21> H 	 -143.147 	 16.3556 	 -9.34994
| 22> H 	 -143.541 	 14.6104 	 -9.71891
| 23> S 	 -145.752 	 12.6281 	 -1.55336
| 24> C 	 -145.746 	 10.9553 	 -1.15459
| 25> C 	 -146.208 	 10.1947 	 -2.20009
| 26> C 	 -146.339 	 10.8945 	 -3.43121
| 27> C 	 -146.188 	 12.2826 	 -3.27262
| 28> H 	 -146.505 	 9.12421 	 -2.12111
| 29> C 	 -146.496 	 10.1942 	 -4.7874
| 30> H 	 -146.231 	 10.7805 	 -5.57977
| 31> H 	 -147.51 	 9.99158 	 -4.93418
| 32> C 	 -145.671 	 8.96178 	 -5.06446
| 33> H 	 -145.87 	 8.06679 	 -4.55149
| 34> H 	 -144.564 	 9.17257 	 -4.98553
| 35> C 	 -145.933 	 8.47884 	 -6.46098
| 36> H 	 -146.978 	 8.14658 	 -6.68273
| 37> H 	 -145.359 	 7.61517 	 -6.65299
| 38> H 	 -145.71 	 9.24029 	 -7.19155
| 39> H 	 -147.385 	 15.9893 	 -6.37553
| 40> H 	 -145.714 	 10.6073 	 -0.0985953
| 41> *
| 42>
| 43>                          ****END OF INPUT****

CARTESIAN COORDINATES (ANGSTROEM)
---------------------------------
  S    -146.989000   14.835300   -4.027000
  C    -146.974000   15.128600   -5.805790
  C    -146.111000   14.295400   -6.407450
  C    -145.531000   13.315800   -5.531750
  C    -146.165000   13.315700   -4.257210
  H    -144.757000   12.581800   -5.709760
  C    -145.665000   14.499300   -7.819390
  H    -146.505000   14.704600   -8.510670
  H    -145.475000   13.527300   -8.187600
  C    -144.462000   15.404900   -7.944490
  H    -144.679000   16.439200   -7.583330
  H    -143.707000   14.885000   -7.326840
  C    -143.940000   15.596800   -9.341410
  H    -144.701000   15.874600  -10.066700
  H    -143.147000   16.355600   -9.349940
  H    -143.541000   14.610400   -9.718910
  S    -145.752000   12.628100   -1.553360
  C    -145.746000   10.955300   -1.154590
  C    -146.208000   10.194700   -2.200090
  C    -146.339000   10.894500   -3.431210
  C    -146.188000   12.282600   -3.272620
  H    -146.505000    9.124210   -2.121110
  C    -146.496000   10.194200   -4.787400
  H    -146.231000   10.780500   -5.579770
  H    -147.510000    9.991580   -4.934180
  C    -145.671000    8.961780   -5.064460
  H    -145.870000    8.066790   -4.551490
  H    -144.564000    9.172570   -4.985530
  C    -145.933000    8.478840   -6.460980
  H    -146.978000    8.146580   -6.682730
  H    -145.359000    7.615170   -6.652990
  H    -145.710000    9.240290   -7.191550
  H    -147.385000   15.989300   -6.375530
  H    -145.714000   10.607300   -0.098595

 Total Charge           Charge          ....    0
 Multiplicity           Mult            ....    1
 Number of Electrons    NEL             ....  134
 Basis Dimension        Dim             ....  322

ORBITAL ENERGIES
----------------

  NO   OCC          E(Eh)            E(eV)
   0   2.0000     -88.965351     -2420.8703
   1   2.0000     -88.963170     -2420.8109
   2   2.0000     -10.331760      -281.1415
   3   2.0000     -10.329914      -281.0912
   4   2.0000     -10.320755      -280.8420
   5   2.0000     -10.312905      -280.6284
   6   2.0000     -10.307739      -280.4878
   7   2.0000     -10.298874      -280.2466
   8   2.0000     -10.296839      -280.1912
   9   2.0000     -10.296700      -280.1874
  10   2.0000     -10.289265      -279.9851
  11   2.0000     -10.286380      -279.9066
  12   2.0000     -10.283549      -279.8296
  13   2.0000     -10.281568      -279.7757
  14   2.0000     -10.280254      -279.7399
  15   2.0000     -10.273585      -279.5585
  16   2.0000      -8.079970      -219.8672
  17   2.0000      -8.077523      -219.8006
  18   2.0000      -6.038556      -164.3175
  19   2.0000      -6.036163      -164.2523
  20   2.0000      -6.034504      -164.2072
  21   2.0000      -6.032382      -164.1495
  22   2.0000      -6.030638      -164.1020
  23   2.0000      -6.027860      -164.0264
  24   2.0000      -1.004378       -27.3305
  25   2.0000      -0.983205       -26.7544
  26   2.0000      -0.921469       -25.0745
  27   2.0000      -0.919209       -25.0130
  28   2.0000      -0.873723       -23.7752
  29   2.0000      -0.856651       -23.3107
  30   2.0000      -0.841996       -22.9119
  31   2.0000      -0.810604       -22.0577
  32   2.0000      -0.789128       -21.4733
  33   2.0000      -0.775497       -21.1024
  34   2.0000      -0.707551       -19.2534
  35   2.0000      -0.701499       -19.0888
  36   2.0000      -0.697669       -18.9845
  37   2.0000      -0.654007       -17.7964
  38   2.0000      -0.635760       -17.2999
  39   2.0000      -0.619442       -16.8559
  40   2.0000      -0.604030       -16.4365
  41   2.0000      -0.578543       -15.7430
  42   2.0000      -0.571698       -15.5567
  43   2.0000      -0.558933       -15.2093
  44   2.0000      -0.534715       -14.5503
  45   2.0000      -0.529657       -14.4127
  46   2.0000      -0.517447       -14.0804
  47   2.0000      -0.514093       -13.9892
  48   2.0000      -0.507798       -13.8179
  49   2.0000      -0.505134       -13.7454
  50   2.0000      -0.493185       -13.4202
  51   2.0000      -0.476922       -12.9777
  52   2.0000      -0.471714       -12.8360
  53   2.0000      -0.460721       -12.5369
  54   2.0000      -0.456201       -12.4139
  55   2.0000      -0.451269       -12.2796
  56   2.0000      -0.446574       -12.1519
  57   2.0000      -0.434992       -11.8367
  58   2.0000      -0.434285       -11.8175
  59   2.0000      -0.427836       -11.6420
  60   2.0000      -0.422758       -11.5038
  61   2.0000      -0.417917       -11.3721
  62   2.0000      -0.408603       -11.1187
  63   2.0000      -0.347948        -9.4681
  64   2.0000      -0.331190        -9.0121
  65   2.0000      -0.326466        -8.8836
  66   2.0000      -0.286638        -7.7998
  67   0.0000       0.017577         0.4783
  68   0.0000       0.066440         1.8079
  69   0.0000       0.102794         2.7972
  70   0.0000       0.121637         3.3099
  71   0.0000       0.129032         3.5111

MULLIKEN ATOMIC CHARGES
-----------------------
   0 S :    0.097062
   1 C :   -0.108834
   2 C :   -0.104955
   3 C :    0.037787
   4 C :   -0.172334
   5 H :    0.022708
   6 C :    0.073647
   7 H :    0.017623
   8 H :   -0.007355
   9 C :   -0.064648
  10 H :    0.034725
  11 H :    0.033810
  12 C :   -0.039967
  13 H :    0.028744
  14 H :    0.041636
  15 H :    0.026194
  16 S :    0.096991
  17 C :   -0.094598
  18 C :   -0.044447
  19 C :   -0.043216
  20 C :   -0.138323
  21 H :    0.035524
  22 C :    0.156189
  23 H :   -0.028405
  24 H :    0.015049
  25 C :   -0.073661
  26 H :    0.015699
  27 H :    0.039880
  28 C :   -0.057046
  29 H :    0.028437
  30 H :    0.021771
  31 H :    0.020517
  32 H :    0.055076
  33 H :    0.078720
Sum of atomic charges:    0.0000000

LOEWDIN ATOMIC CHARGES
----------------------
   0 S :    0.380537
   1 C :   -0.183806
   2 C :   -0.068268
   3 C :   -0.060934
   4 C :   -0.185499
   5 H :    0.030026
   6 C :   -0.039605
   7 H :    0.031851
   8 H :    0.021490
   9 C :   -0.041732
  10 H :    0.028904
  11 H :    0.031301
  12 C :   -0.068111
  13 H :    0.022907
  14 H :    0.028879
  15 H :    0.027081
  16 S :    0.392330
  17 C :   -0.195761
  18 C :   -0.078443
  19 C :   -0.041876
  20 C :   -0.191699
  21 H :    0.039029
  22 C :   -0.020590
  23 H :    0.017021
  24 H :    0.030026
  25 C :   -0.038459
  26 H :    0.015643
  27 H :    0.033103
  28 C :   -0.060766
  29 H :    0.028084
  30 H :    0.020636
  31 H :    0.017555
  32 H :    0.039044
  33 H :    0.040102

  Mayer bond orders larger than 0.100000
B(  0-S ,  1-C ) :   1.1027 B(  0-S ,  4-C ) :   1.1493 B(  1-C ,  2-C ) :   1.6542
B(  1-C , 32-H ) :   0.9625 B(  2-C ,  3-C ) :   1.2161 B(  2-C ,  6-C ) :   1.0322
B(  3-C ,  4-C ) :   1.5456 B(  3-C ,  5-H ) :   0.9899 B(  4-C , 20-C ) :   1.0767
B(  6-C ,  7-H ) :   0.9341 B(  6-C ,  8-H ) :   0.9250 B(  6-C ,  9-C ) :   1.0606
B(  9-C , 10-H ) :   0.9566 B(  9-C , 11-H ) :   0.9510 B(  9-C , 12-C ) :   1.0898
B( 12-C , 13-H ) :   0.9725 B( 12-C , 14-H ) :   0.9738 B( 12-C , 15-H ) :   0.9717
B( 16-S , 17-C ) :   1.1671 B( 16-S , 20-C ) :   1.1175 B( 17-C , 18-C ) :   1.5945
B( 17-C , 33-H ) :   0.9581 B( 18-C , 19-C ) :   1.2628 B( 18-C , 21-H ) :   0.9801
B( 19-C , 20-C ) :   1.5853 B( 19-C , 22-C ) :   1.0328 B( 22-C , 23-H ) :   0.9311
B( 22-C , 24-H ) :   0.9162 B( 22-C , 25-C ) :   1.0708 B( 25-C , 26-H ) :   0.9475
B( 25-C , 27-H ) :   0.9533 B( 25-C , 28-C ) :   1.0923 B( 28-C , 29-H ) :   0.9710
B( 28-C , 30-H ) :   0.9723 B( 28-C , 31-H ) :   0.9728

Dispersion correction           -0.013775510
FINAL SINGLE POINT ENERGY     -1339.853987150376

DIPOLE MOMENT
-------------
                                X             Y             Z
Electronic contribution:     -7.81392      10.02815      28.54009
Nuclear contribution   :      7.95283     -10.52603     -29.14913
                        -----------------------------------------
Total Dipole Moment    :      0.13891      -0.49788      -0.60904
                        -----------------------------------------
Magnitude (a.u.)       :      0.79882
Magnitude (Debye)      :      2.03043

Rotational constants in cm-1:     0.017561     0.008501     0.006273
Rotational constants in MHz :   526.477165   254.865820   188.068537

                             ****ORCA TERMINATED NORMALLY****
TOTAL RUN TIME: 0 days 0 hours 0 minutes 21 seconds 512 msec
