                         Program Version 4.2.1 -  RELEASE  -
|  1> ! wB97X-D3 SP def2-SVP
|  2> %pal
|  3> nprocs 24
|  4> end
|  5>
|  6> * xyz 0 1
|  7> S 	 -140.216 	 9.6315 	 1.44802
|  8> C 	 -141.441 	 9.45149 	 0.201536
|  9> C 	 -141.019 	 8.8274 	 -0.893069
| 10> C 	 -139.616 	 8.52085 	 -0.879783
| 11> C 	 -139.039 	 8.85506 	 0.354163
| 12> H 	 -139.02 	 8.06873 	 -1.68869
| 13> C 	 -141.866 	 8.66207 	 -2.14004
| 14> H 	 -141.201 	 8.27481 	 -2.89086
| 15> H 	 -142.154 	 9.62889 	 -2.47238
| 16> C 	 -143.086 	 7.69376 	 -2.05026
| 17> H 	 -142.763 	 6.65327 	 -1.86137
| 18> H 	 -143.776 	 8.07259 	 -1.32794
| 19> C 	 -143.811 	 7.71457 	 -3.40519
| 20> H 	 -143.305 	 7.3002 	 -4.3469
| 21> H 	 -144.757 	 7.18505 	 -3.42497
| 22> H 	 -144.164 	 8.7334 	 -3.62445
| 23> S 	 -136.623 	 10.0968 	 0.817151
| 24> C 	 -135.143 	 9.16387 	 1.06735
| 25> C 	 -135.444 	 7.81415 	 1.12704
| 26> C 	 -136.826 	 7.53175 	 0.85857
| 27> C 	 -137.618 	 8.67262 	 0.680584
| 28> H 	 -134.677 	 7.03397 	 1.1494
| 29> C 	 -137.339 	 6.13547 	 0.825737
| 30> H 	 -137.799 	 5.90686 	 -0.0976417
| 31> H 	 -138.292 	 6.1383 	 1.34817
| 32> C 	 -136.461 	 4.96344 	 1.47128
| 33> H 	 -135.359 	 4.92467 	 1.01693
| 34> H 	 -136.943 	 3.96548 	 1.24716
| 35> C 	 -136.339 	 5.05117 	 2.98876
| 36> H 	 -137.282 	 4.85098 	 3.68959
| 37> H 	 -135.88 	 5.94656 	 3.41929
| 38> H 	 -135.715 	 4.24171 	 3.35442
| 39> H 	 -142.449 	 9.81142 	 0.317004
| 40> H 	 -134.174 	 9.5943 	 1.20154
| 41> *
| 42>
| 43>                          ****END OF INPUT****

CARTESIAN COORDINATES (ANGSTROEM)
---------------------------------
  S    -140.216000    9.631500    1.448020
  C    -141.441000    9.451490    0.201536
  C    -141.019000    8.827400   -0.893069
  C    -139.616000    8.520850   -0.879783
  C    -139.039000    8.855060    0.354163
  H    -139.020000    8.068730   -1.688690
  C    -141.866000    8.662070   -2.140040
  H    -141.201000    8.274810   -2.890860
  H    -142.154000    9.628890   -2.472380
  C    -143.086000    7.693760   -2.050260
  H    -142.763000    6.653270   -1.861370
  H    -143.776000    8.072590   -1.327940
  C    -143.811000    7.714570   -3.405190
  H    -143.305000    7.300200   -4.346900
  H    -144.757000    7.185050   -3.424970
  H    -144.164000    8.733400   -3.624450
  S    -136.623000   10.096800    0.817151
  C    -135.143000    9.163870    1.067350
  C    -135.444000    7.814150    1.127040
  C    -136.826000    7.531750    0.858570
  C    -137.618000    8.672620    0.680584
  H    -134.677000    7.033970    1.149400
  C    -137.339000    6.135470    0.825737
  H    -137.799000    5.906860   -0.097642
  H    -138.292000    6.138300    1.348170
  C    -136.461000    4.963440    1.471280
  H    -135.359000    4.924670    1.016930
  H    -136.943000    3.965480    1.247160
  C    -136.339000    5.051170    2.988760
  H    -137.282000    4.850980    3.689590
  H    -135.880000    5.946560    3.419290
  H    -135.715000    4.241710    3.354420
  H    -142.449000    9.811420    0.317004
  H    -134.174000    9.594300    1.201540

 Total Charge           Charge          ....    0
 Multiplicity           Mult            ....    1
 Number of Electrons    NEL             ....  134
 Basis Dimension        Dim             ....  322

ORBITAL ENERGIES
----------------

  NO   OCC          E(Eh)            E(eV)
   0   2.0000     -88.967989     -2420.9421
   1   2.0000     -88.961914     -2420.7767
   2   2.0000     -10.334151      -281.2065
   3   2.0000     -10.323209      -280.9088
   4   2.0000     -10.318016      -280.7675
   5   2.0000     -10.311670      -280.5948
   6   2.0000     -10.308016      -280.4954
   7   2.0000     -10.303251      -280.3657
   8   2.0000     -10.300489      -280.2906
   9   2.0000     -10.294250      -280.1208
  10   2.0000     -10.294104      -280.1168
  11   2.0000     -10.293091      -280.0893
  12   2.0000     -10.287946      -279.9492
  13   2.0000     -10.287064      -279.9252
  14   2.0000     -10.284774      -279.8629
  15   2.0000     -10.283563      -279.8300
  16   2.0000      -8.082069      -219.9243
  17   2.0000      -8.076539      -219.7738
  18   2.0000      -6.040645      -164.3743
  19   2.0000      -6.036728      -164.2677
  20   2.0000      -6.035091      -164.2232
  21   2.0000      -6.032744      -164.1593
  22   2.0000      -6.030911      -164.1094
  23   2.0000      -6.027410      -164.0142
  24   2.0000      -1.002110       -27.2688
  25   2.0000      -0.982257       -26.7286
  26   2.0000      -0.909981       -24.7618
  27   2.0000      -0.900234       -24.4966
  28   2.0000      -0.868651       -23.6372
  29   2.0000      -0.849378       -23.1128
  30   2.0000      -0.842664       -22.9301
  31   2.0000      -0.814653       -22.1678
  32   2.0000      -0.780226       -21.2310
  33   2.0000      -0.769861       -20.9490
  34   2.0000      -0.707010       -19.2387
  35   2.0000      -0.701716       -19.0947
  36   2.0000      -0.696252       -18.9460
  37   2.0000      -0.654209       -17.8019
  38   2.0000      -0.641322       -17.4512
  39   2.0000      -0.613809       -16.7026
  40   2.0000      -0.599863       -16.3231
  41   2.0000      -0.573819       -15.6144
  42   2.0000      -0.563517       -15.3341
  43   2.0000      -0.543572       -14.7913
  44   2.0000      -0.525556       -14.3011
  45   2.0000      -0.518881       -14.1195
  46   2.0000      -0.513303       -13.9677
  47   2.0000      -0.509657       -13.8685
  48   2.0000      -0.506599       -13.7853
  49   2.0000      -0.497192       -13.5293
  50   2.0000      -0.488756       -13.2997
  51   2.0000      -0.476519       -12.9667
  52   2.0000      -0.469443       -12.7742
  53   2.0000      -0.461859       -12.5678
  54   2.0000      -0.459471       -12.5028
  55   2.0000      -0.452232       -12.3058
  56   2.0000      -0.440587       -11.9890
  57   2.0000      -0.435389       -11.8475
  58   2.0000      -0.432812       -11.7774
  59   2.0000      -0.426673       -11.6104
  60   2.0000      -0.421616       -11.4727
  61   2.0000      -0.414964       -11.2917
  62   2.0000      -0.410461       -11.1692
  63   2.0000      -0.339156        -9.2289
  64   2.0000      -0.331939        -9.0325
  65   2.0000      -0.322928        -8.7873
  66   2.0000      -0.299849        -8.1593
  67   0.0000       0.035795         0.9740
  68   0.0000       0.061106         1.6628
  69   0.0000       0.114800         3.1239
  70   0.0000       0.128398         3.4939
  71   0.0000       0.132169         3.5965

MULLIKEN ATOMIC CHARGES
-----------------------
   0 S :    0.117390
   1 C :   -0.125090
   2 C :   -0.051743
   3 C :    0.028641
   4 C :   -0.178725
   5 H :    0.031982
   6 C :    0.068127
   7 H :    0.006162
   8 H :    0.026793
   9 C :   -0.039869
  10 H :    0.042870
  11 H :    0.028875
  12 C :   -0.087439
  13 H :    0.044877
  14 H :    0.025231
  15 H :    0.021362
  16 S :    0.104214
  17 C :   -0.086488
  18 C :   -0.030913
  19 C :   -0.038611
  20 C :   -0.173921
  21 H :    0.022114
  22 C :    0.110776
  23 H :    0.008047
  24 H :    0.018355
  25 C :   -0.103716
  26 H :    0.052558
  27 H :    0.045593
  28 C :   -0.091617
  29 H :    0.042529
  30 H :    0.042766
  31 H :    0.027030
  32 H :    0.039257
  33 H :    0.052584
Sum of atomic charges:    0.0000000

LOEWDIN ATOMIC CHARGES
----------------------
   0 S :    0.389039
   1 C :   -0.185346
   2 C :   -0.071605
   3 C :   -0.054592
   4 C :   -0.187977
   5 H :    0.039123
   6 C :   -0.024350
   7 H :    0.026196
   8 H :    0.027445
   9 C :   -0.030097
  10 H :    0.030838
  11 H :    0.021850
  12 C :   -0.080847
  13 H :    0.032931
  14 H :    0.022735
  15 H :    0.023414
  16 S :    0.406512
  17 C :   -0.174634
  18 C :   -0.076262
  19 C :   -0.051841
  20 C :   -0.214441
  21 H :    0.032454
  22 C :   -0.044472
  23 H :    0.028547
  24 H :    0.040630
  25 C :   -0.046738
  26 H :    0.035268
  27 H :    0.036073
  28 C :   -0.088993
  29 H :    0.038311
  30 H :    0.024478
  31 H :    0.024435
  32 H :    0.025589
  33 H :    0.026328

  Mayer bond orders larger than 0.100000
B(  0-S ,  1-C ) :   1.1196 B(  0-S ,  4-C ) :   1.1449 B(  1-C ,  2-C ) :   1.6572
B(  1-C , 32-H ) :   0.9666 B(  2-C ,  3-C ) :   1.2221 B(  2-C ,  6-C ) :   1.0080
B(  3-C ,  4-C ) :   1.5938 B(  3-C ,  5-H ) :   0.9862 B(  4-C , 20-C ) :   1.0258
B(  6-C ,  7-H ) :   0.9415 B(  6-C ,  8-H ) :   0.9449 B(  6-C ,  9-C ) :   1.0655
B(  9-C , 10-H ) :   0.9573 B(  9-C , 11-H ) :   0.9548 B(  9-C , 12-C ) :   1.0818
B( 12-C , 13-H ) :   0.9755 B( 12-C , 14-H ) :   0.9730 B( 12-C , 15-H ) :   0.9724
B( 16-S , 17-C ) :   1.1675 B( 16-S , 20-C ) :   1.1464 B( 17-C , 18-C ) :   1.5827
B( 17-C , 20-C ) :   0.1028 B( 17-C , 33-H ) :   0.9699 B( 18-C , 19-C ) :   1.2711
B( 18-C , 21-H ) :   0.9782 B( 19-C , 20-C ) :   1.5813 B( 19-C , 22-C ) :   1.0438
B( 22-C , 23-H ) :   0.9182 B( 22-C , 24-H ) :   0.9151 B( 22-C , 25-C ) :   1.0565
B( 25-C , 26-H ) :   0.9517 B( 25-C , 27-H ) :   0.9526 B( 25-C , 28-C ) :   1.0702
B( 28-C , 29-H ) :   0.9711 B( 28-C , 30-H ) :   0.9757 B( 28-C , 31-H ) :   0.9718

Dispersion correction           -0.013752932
FINAL SINGLE POINT ENERGY     -1339.870847560639

DIPOLE MOMENT
-------------
                                X             Y             Z
Electronic contribution:      9.82763      20.63468       9.07973
Nuclear contribution   :    -10.01458     -21.14536      -9.45785
                        -----------------------------------------
Total Dipole Moment    :     -0.18695      -0.51069      -0.37812
                        -----------------------------------------
Magnitude (a.u.)       :      0.66236
Magnitude (Debye)      :      1.68359

Rotational constants in cm-1:     0.021115     0.006965     0.006026
Rotational constants in MHz :   633.005865   208.811799   180.655488

                             ****ORCA TERMINATED NORMALLY****
TOTAL RUN TIME: 0 days 0 hours 0 minutes 20 seconds 870 msec
