                         Program Version 4.2.1 -  RELEASE  -
|  1> ! wB97X-D3 SP def2-SVP
|  2> %pal
|  3> nprocs 24
|  4> end
|  5>
|  6> * xyz 0 1
|  7> S 	 -2.39375 	 -25.5128 	 -108.22
|  8> C 	 -1.72164 	 -24.1405 	 -109.032
|  9> C 	 -1.4161 	 -24.456 	 -110.343
| 10> C 	 -1.43301 	 -25.9036 	 -110.557
| 11> C 	 -1.88195 	 -26.6336 	 -109.432
| 12> H 	 -0.920334 	 -26.4218 	 -111.399
| 13> C 	 -0.837629 	 -23.4793 	 -111.287
| 14> H 	 0.223073 	 -23.2928 	 -111.107
| 15> H 	 -1.23337 	 -22.4471 	 -111.109
| 16> C 	 -0.963109 	 -23.7538 	 -112.787
| 17> H 	 -1.98773 	 -23.9199 	 -113.117
| 18> H 	 -0.628018 	 -22.7748 	 -113.274
| 19> C 	 -0.114915 	 -24.8761 	 -113.381
| 20> H 	 -0.726739 	 -25.6692 	 -113.834
| 21> H 	 0.444708 	 -24.4503 	 -114.218
| 22> H 	 0.624922 	 -25.3346 	 -112.716
| 23> S 	 -1.60431 	 -28.6861 	 -107.778
| 24> C 	 -2.01162 	 -30.2793 	 -108.158
| 25> C 	 -2.52164 	 -30.3009 	 -109.426
| 26> C 	 -2.59917 	 -29.0254 	 -110.097
| 27> C 	 -2.09088 	 -28.0696 	 -109.32
| 28> H 	 -2.79435 	 -31.2284 	 -109.829
| 29> C 	 -2.98198 	 -28.983 	 -111.497
| 30> H 	 -3.05344 	 -27.9806 	 -111.773
| 31> H 	 -3.98926 	 -29.4233 	 -111.536
| 32> C 	 -1.85256 	 -29.6349 	 -112.381
| 33> H 	 -1.87081 	 -30.6748 	 -112.234
| 34> H 	 -0.827124 	 -29.2138 	 -112.293
| 35> C 	 -2.29833 	 -29.2488 	 -113.808
| 36> H 	 -1.82847 	 -29.7889 	 -114.624
| 37> H 	 -2.17354 	 -28.1216 	 -113.949
| 38> H 	 -3.39175 	 -29.4169 	 -113.914
| 39> H 	 -1.84706 	 -23.0863 	 -108.738
| 40> H 	 -1.74798 	 -31.1601 	 -107.622
| 41> *
| 42>
| 43>                          ****END OF INPUT****

CARTESIAN COORDINATES (ANGSTROEM)
---------------------------------
  S     -2.393750  -25.512800  -108.220000
  C     -1.721640  -24.140500  -109.032000
  C     -1.416100  -24.456000  -110.343000
  C     -1.433010  -25.903600  -110.557000
  C     -1.881950  -26.633600  -109.432000
  H     -0.920334  -26.421800  -111.399000
  C     -0.837629  -23.479300  -111.287000
  H      0.223073  -23.292800  -111.107000
  H     -1.233370  -22.447100  -111.109000
  C     -0.963109  -23.753800  -112.787000
  H     -1.987730  -23.919900  -113.117000
  H     -0.628018  -22.774800  -113.274000
  C     -0.114915  -24.876100  -113.381000
  H     -0.726739  -25.669200  -113.834000
  H      0.444708  -24.450300  -114.218000
  H      0.624922  -25.334600  -112.716000
  S     -1.604310  -28.686100  -107.778000
  C     -2.011620  -30.279300  -108.158000
  C     -2.521640  -30.300900  -109.426000
  C     -2.599170  -29.025400  -110.097000
  C     -2.090880  -28.069600  -109.320000
  H     -2.794350  -31.228400  -109.829000
  C     -2.981980  -28.983000  -111.497000
  H     -3.053440  -27.980600  -111.773000
  H     -3.989260  -29.423300  -111.536000
  C     -1.852560  -29.634900  -112.381000
  H     -1.870810  -30.674800  -112.234000
  H     -0.827124  -29.213800  -112.293000
  C     -2.298330  -29.248800  -113.808000
  H     -1.828470  -29.788900  -114.624000
  H     -2.173540  -28.121600  -113.949000
  H     -3.391750  -29.416900  -113.914000
  H     -1.847060  -23.086300  -108.738000
  H     -1.747980  -31.160100  -107.622000

 Total Charge           Charge          ....    0
 Multiplicity           Mult            ....    1
 Number of Electrons    NEL             ....  134
 Basis Dimension        Dim             ....  322

ORBITAL ENERGIES
----------------

  NO   OCC          E(Eh)            E(eV)
   0   2.0000     -88.965132     -2420.8643
   1   2.0000     -88.955867     -2420.6122
   2   2.0000     -10.330892      -281.1179
   3   2.0000     -10.317841      -280.7627
   4   2.0000     -10.310552      -280.5644
   5   2.0000     -10.308313      -280.5035
   6   2.0000     -10.300854      -280.3005
   7   2.0000     -10.299408      -280.2611
   8   2.0000     -10.292650      -280.0772
   9   2.0000     -10.292605      -280.0760
  10   2.0000     -10.292364      -280.0695
  11   2.0000     -10.291377      -280.0426
  12   2.0000     -10.286317      -279.9049
  13   2.0000     -10.284284      -279.8496
  14   2.0000     -10.283807      -279.8366
  15   2.0000     -10.280164      -279.7375
  16   2.0000      -8.080340      -219.8772
  17   2.0000      -8.072765      -219.6711
  18   2.0000      -6.038820      -164.3247
  19   2.0000      -6.034714      -164.2129
  20   2.0000      -6.031249      -164.1186
  21   2.0000      -6.031136      -164.1156
  22   2.0000      -6.026814      -163.9980
  23   2.0000      -6.023556      -163.9093
  24   2.0000      -1.016906       -27.6714
  25   2.0000      -0.989395       -26.9228
  26   2.0000      -0.919570       -25.0228
  27   2.0000      -0.913977       -24.8706
  28   2.0000      -0.873719       -23.7751
  29   2.0000      -0.854918       -23.2635
  30   2.0000      -0.841090       -22.8872
  31   2.0000      -0.815996       -22.2044
  32   2.0000      -0.783142       -21.3104
  33   2.0000      -0.773017       -21.0349
  34   2.0000      -0.709382       -19.3033
  35   2.0000      -0.703749       -19.1500
  36   2.0000      -0.690909       -18.8006
  37   2.0000      -0.667946       -18.1757
  38   2.0000      -0.636342       -17.3157
  39   2.0000      -0.620367       -16.8810
  40   2.0000      -0.601382       -16.3644
  41   2.0000      -0.575232       -15.6529
  42   2.0000      -0.571395       -15.5485
  43   2.0000      -0.543217       -14.7817
  44   2.0000      -0.533001       -14.5037
  45   2.0000      -0.530635       -14.4393
  46   2.0000      -0.521072       -14.1791
  47   2.0000      -0.517714       -14.0877
  48   2.0000      -0.512521       -13.9464
  49   2.0000      -0.500851       -13.6288
  50   2.0000      -0.496691       -13.5156
  51   2.0000      -0.486784       -13.2461
  52   2.0000      -0.469197       -12.7675
  53   2.0000      -0.462559       -12.5869
  54   2.0000      -0.459411       -12.5012
  55   2.0000      -0.444593       -12.0980
  56   2.0000      -0.440770       -11.9940
  57   2.0000      -0.435938       -11.8625
  58   2.0000      -0.433556       -11.7977
  59   2.0000      -0.428371       -11.6566
  60   2.0000      -0.424574       -11.5532
  61   2.0000      -0.412667       -11.2292
  62   2.0000      -0.408378       -11.1125
  63   2.0000      -0.352908        -9.6031
  64   2.0000      -0.326544        -8.8857
  65   2.0000      -0.321858        -8.7582
  66   2.0000      -0.293393        -7.9836
  67   0.0000       0.034163         0.9296
  68   0.0000       0.076707         2.0873
  69   0.0000       0.109611         2.9827
  70   0.0000       0.117014         3.1841
  71   0.0000       0.129099         3.5130

MULLIKEN ATOMIC CHARGES
-----------------------
   0 S :    0.124483
   1 C :   -0.119235
   2 C :   -0.065176
   3 C :   -0.009634
   4 C :   -0.125276
   5 H :    0.027926
   6 C :    0.027624
   7 H :    0.041435
   8 H :    0.021747
   9 C :   -0.099146
  10 H :    0.033397
  11 H :    0.037176
  12 C :   -0.071901
  13 H :    0.036355
  14 H :    0.031853
  15 H :    0.043936
  16 S :    0.095144
  17 C :   -0.055323
  18 C :   -0.049932
  19 C :   -0.034990
  20 C :   -0.167364
  21 H :   -0.009943
  22 C :    0.087652
  23 H :   -0.004792
  24 H :    0.041500
  25 C :   -0.057467
  26 H :    0.027004
  27 H :    0.052928
  28 C :   -0.072308
  29 H :    0.034517
  30 H :    0.042424
  31 H :    0.026658
  32 H :    0.058954
  33 H :    0.049774
Sum of atomic charges:    0.0000000

LOEWDIN ATOMIC CHARGES
----------------------
   0 S :    0.426887
   1 C :   -0.212248
   2 C :   -0.065027
   3 C :   -0.080230
   4 C :   -0.199438
   5 H :    0.035673
   6 C :   -0.043984
   7 H :    0.036506
   8 H :    0.035852
   9 C :   -0.047499
  10 H :    0.024454
  11 H :    0.034136
  12 C :   -0.078851
  13 H :    0.026582
  14 H :    0.030562
  15 H :    0.025071
  16 S :    0.428387
  17 C :   -0.194997
  18 C :   -0.066810
  19 C :   -0.059308
  20 C :   -0.203596
  21 H :    0.016831
  22 C :   -0.024112
  23 H :    0.019440
  24 H :    0.041968
  25 C :   -0.024162
  26 H :    0.016172
  27 H :    0.034854
  28 C :   -0.072233
  29 H :    0.019409
  30 H :    0.030020
  31 H :    0.024878
  32 H :    0.035303
  33 H :    0.029508

  Mayer bond orders larger than 0.100000
B(  0-S ,  1-C ) :   1.1370 B(  0-S ,  4-C ) :   1.1766 B(  1-C ,  2-C ) :   1.6009
B(  1-C , 32-H ) :   0.9641 B(  2-C ,  3-C ) :   1.2406 B(  2-C ,  6-C ) :   1.0449
B(  3-C ,  4-C ) :   1.5586 B(  3-C ,  5-H ) :   0.9798 B(  4-C , 20-C ) :   1.0225
B(  6-C ,  7-H ) :   0.9353 B(  6-C ,  8-H ) :   0.9348 B(  6-C ,  9-C ) :   1.0800
B(  9-C , 10-H ) :   0.9628 B(  9-C , 11-H ) :   0.9637 B(  9-C , 12-C ) :   1.0518
B( 12-C , 13-H ) :   0.9765 B( 12-C , 14-H ) :   0.9717 B( 12-C , 15-H ) :   0.9758
B( 16-S , 17-C ) :   1.1581 B( 16-S , 20-C ) :   1.1388 B( 17-C , 18-C ) :   1.6147
B( 17-C , 33-H ) :   0.9719 B( 18-C , 19-C ) :   1.1962 B( 18-C , 21-H ) :   0.9997
B( 19-C , 20-C ) :   1.6286 B( 19-C , 22-C ) :   1.0706 B( 22-C , 23-H ) :   0.9302
B( 22-C , 24-H ) :   0.9136 B( 22-C , 25-C ) :   1.0543 B( 25-C , 26-H ) :   0.9548
B( 25-C , 27-H ) :   0.9590 B( 25-C , 28-C ) :   1.0787 B( 28-C , 29-H ) :   0.9730
B( 28-C , 30-H ) :   0.9759 B( 28-C , 31-H ) :   0.9680

Dispersion correction           -0.014753013
FINAL SINGLE POINT ENERGY     -1339.867310841905

DIPOLE MOMENT
-------------
                                X             Y             Z
Electronic contribution:     -4.42575      -2.53959      31.15731
Nuclear contribution   :      4.55268       2.45596     -31.90590
                        -----------------------------------------
Total Dipole Moment    :      0.12693      -0.08363      -0.74860
                        -----------------------------------------
Magnitude (a.u.)       :      0.76387
Magnitude (Debye)      :      1.94161

Rotational constants in cm-1:     0.016871     0.010790     0.007031
Rotational constants in MHz :   505.780128   323.467257   210.784572

                             ****ORCA TERMINATED NORMALLY****
TOTAL RUN TIME: 0 days 0 hours 0 minutes 22 seconds 573 msec
