                         Program Version 4.2.1 -  RELEASE  -
|  1> ! wB97X-D3 SP def2-SVP
|  2> %pal
|  3> nprocs 24
|  4> end
|  5>
|  6> * xyz 0 1
|  7> S 	 -115.372 	 62.8566 	 -29.6238
|  8> C 	 -115.32 	 62.5321 	 -27.8611
|  9> C 	 -116.297 	 61.6053 	 -27.6225
| 10> C 	 -117.173 	 61.245 	 -28.6968
| 11> C 	 -116.836 	 61.8079 	 -29.875
| 12> H 	 -117.948 	 60.496 	 -28.6974
| 13> C 	 -116.383 	 60.9759 	 -26.2364
| 14> H 	 -117.471 	 60.8513 	 -26.0015
| 15> H 	 -116.051 	 61.604 	 -25.4499
| 16> C 	 -115.724 	 59.6185 	 -26.1942
| 17> H 	 -116.134 	 58.9455 	 -26.9349
| 18> H 	 -114.695 	 59.8092 	 -26.5249
| 19> C 	 -115.585 	 58.9889 	 -24.7642
| 20> H 	 -116.523 	 59.0121 	 -24.2223
| 21> H 	 -115.268 	 57.9781 	 -24.8525
| 22> H 	 -114.845 	 59.4466 	 -24.1523
| 23> S 	 -117.283 	 63.0333 	 -32.2168
| 24> C 	 -118.113 	 62.1626 	 -33.478
| 25> C 	 -118.569 	 60.9655 	 -33.0605
| 26> C 	 -118.091 	 60.6036 	 -31.7936
| 27> C 	 -117.398 	 61.6848 	 -31.1963
| 28> H 	 -119.109 	 60.3351 	 -33.6969
| 29> C 	 -118.2 	 59.2334 	 -31.0868
| 30> H 	 -119.063 	 59.3454 	 -30.4954
| 31> H 	 -117.383 	 59.0071 	 -30.4254
| 32> C 	 -118.26 	 58.0629 	 -32.1038
| 33> H 	 -117.511 	 58.1431 	 -32.8819
| 34> H 	 -119.276 	 58.0729 	 -32.5424
| 35> C 	 -118.048 	 56.7087 	 -31.4774
| 36> H 	 -118.658 	 56.539 	 -30.5865
| 37> H 	 -116.989 	 56.5991 	 -31.2009
| 38> H 	 -118.219 	 55.8729 	 -32.1528
| 39> H 	 -114.754 	 62.9637 	 -27.0535
| 40> H 	 -118.388 	 62.4866 	 -34.4872
| 41> *
| 42>
| 43>                          ****END OF INPUT****

CARTESIAN COORDINATES (ANGSTROEM)
---------------------------------
  S    -115.372000   62.856600  -29.623800
  C    -115.320000   62.532100  -27.861100
  C    -116.297000   61.605300  -27.622500
  C    -117.173000   61.245000  -28.696800
  C    -116.836000   61.807900  -29.875000
  H    -117.948000   60.496000  -28.697400
  C    -116.383000   60.975900  -26.236400
  H    -117.471000   60.851300  -26.001500
  H    -116.051000   61.604000  -25.449900
  C    -115.724000   59.618500  -26.194200
  H    -116.134000   58.945500  -26.934900
  H    -114.695000   59.809200  -26.524900
  C    -115.585000   58.988900  -24.764200
  H    -116.523000   59.012100  -24.222300
  H    -115.268000   57.978100  -24.852500
  H    -114.845000   59.446600  -24.152300
  S    -117.283000   63.033300  -32.216800
  C    -118.113000   62.162600  -33.478000
  C    -118.569000   60.965500  -33.060500
  C    -118.091000   60.603600  -31.793600
  C    -117.398000   61.684800  -31.196300
  H    -119.109000   60.335100  -33.696900
  C    -118.200000   59.233400  -31.086800
  H    -119.063000   59.345400  -30.495400
  H    -117.383000   59.007100  -30.425400
  C    -118.260000   58.062900  -32.103800
  H    -117.511000   58.143100  -32.881900
  H    -119.276000   58.072900  -32.542400
  C    -118.048000   56.708700  -31.477400
  H    -118.658000   56.539000  -30.586500
  H    -116.989000   56.599100  -31.200900
  H    -118.219000   55.872900  -32.152800
  H    -114.754000   62.963700  -27.053500
  H    -118.388000   62.486600  -34.487200

 Total Charge           Charge          ....    0
 Multiplicity           Mult            ....    1
 Number of Electrons    NEL             ....  134
 Basis Dimension        Dim             ....  322

ORBITAL ENERGIES
----------------

  NO   OCC          E(Eh)            E(eV)
   0   2.0000     -88.970301     -2421.0050
   1   2.0000     -88.959648     -2420.7151
   2   2.0000     -10.332145      -281.1519
   3   2.0000     -10.322729      -280.8957
   4   2.0000     -10.314221      -280.6642
   5   2.0000     -10.313449      -280.6432
   6   2.0000     -10.305963      -280.4395
   7   2.0000     -10.298610      -280.2394
   8   2.0000     -10.293478      -280.0998
   9   2.0000     -10.291962      -280.0585
  10   2.0000     -10.289360      -279.9877
  11   2.0000     -10.287166      -279.9280
  12   2.0000     -10.286057      -279.8978
  13   2.0000     -10.284252      -279.8487
  14   2.0000     -10.278704      -279.6978
  15   2.0000     -10.273661      -279.5605
  16   2.0000      -8.085813      -220.0262
  17   2.0000      -8.072939      -219.6758
  18   2.0000      -6.044174      -164.4703
  19   2.0000      -6.040187      -164.3618
  20   2.0000      -6.036686      -164.2666
  21   2.0000      -6.031791      -164.1334
  22   2.0000      -6.027719      -164.0226
  23   2.0000      -6.023314      -163.9027
  24   2.0000      -1.014311       -27.6008
  25   2.0000      -0.983784       -26.7701
  26   2.0000      -0.913934       -24.8694
  27   2.0000      -0.909831       -24.7578
  28   2.0000      -0.875414       -23.8212
  29   2.0000      -0.858378       -23.3576
  30   2.0000      -0.837489       -22.7892
  31   2.0000      -0.824472       -22.4350
  32   2.0000      -0.784883       -21.3578
  33   2.0000      -0.770629       -20.9699
  34   2.0000      -0.710920       -19.3451
  35   2.0000      -0.705039       -19.1851
  36   2.0000      -0.697024       -18.9670
  37   2.0000      -0.658846       -17.9281
  38   2.0000      -0.642921       -17.4948
  39   2.0000      -0.621493       -16.9117
  40   2.0000      -0.600105       -16.3297
  41   2.0000      -0.577232       -15.7073
  42   2.0000      -0.566573       -15.4172
  43   2.0000      -0.558128       -15.1874
  44   2.0000      -0.530792       -14.4436
  45   2.0000      -0.524625       -14.2758
  46   2.0000      -0.521803       -14.1990
  47   2.0000      -0.514695       -14.0056
  48   2.0000      -0.510545       -13.8926
  49   2.0000      -0.501316       -13.6415
  50   2.0000      -0.492372       -13.3981
  51   2.0000      -0.484536       -13.1849
  52   2.0000      -0.477591       -12.9959
  53   2.0000      -0.467213       -12.7135
  54   2.0000      -0.461011       -12.5447
  55   2.0000      -0.457333       -12.4447
  56   2.0000      -0.444276       -12.0894
  57   2.0000      -0.442626       -12.0445
  58   2.0000      -0.435831       -11.8596
  59   2.0000      -0.430172       -11.7056
  60   2.0000      -0.419626       -11.4186
  61   2.0000      -0.411795       -11.2055
  62   2.0000      -0.398004       -10.8302
  63   2.0000      -0.359881        -9.7929
  64   2.0000      -0.337001        -9.1703
  65   2.0000      -0.325968        -8.8700
  66   2.0000      -0.286281        -7.7901
  67   0.0000       0.021363         0.5813
  68   0.0000       0.085708         2.3322
  69   0.0000       0.103439         2.8147
  70   0.0000       0.126338         3.4378
  71   0.0000       0.135862         3.6970

MULLIKEN ATOMIC CHARGES
-----------------------
   0 S :    0.067935
   1 C :   -0.093523
   2 C :   -0.107064
   3 C :    0.024910
   4 C :   -0.109873
   5 H :    0.001582
   6 C :    0.061346
   7 H :    0.019564
   8 H :    0.006898
   9 C :   -0.075922
  10 H :    0.025871
  11 H :    0.020983
  12 C :   -0.015682
  13 H :    0.026251
  14 H :    0.025664
  15 H :    0.025322
  16 S :    0.132997
  17 C :   -0.073944
  18 C :   -0.025343
  19 C :   -0.053613
  20 C :   -0.151001
  21 H :   -0.005559
  22 C :    0.072608
  23 H :    0.037486
  24 H :    0.033919
  25 C :   -0.089575
  26 H :    0.040365
  27 H :    0.033816
  28 C :   -0.047174
  29 H :    0.028654
  30 H :    0.030387
  31 H :    0.032449
  32 H :    0.046639
  33 H :    0.052628
Sum of atomic charges:    0.0000000

LOEWDIN ATOMIC CHARGES
----------------------
   0 S :    0.342074
   1 C :   -0.184969
   2 C :   -0.058823
   3 C :   -0.071503
   4 C :   -0.153917
   5 H :    0.030658
   6 C :   -0.034000
   7 H :    0.028325
   8 H :    0.021205
   9 C :   -0.039589
  10 H :    0.021348
  11 H :    0.025110
  12 C :   -0.060478
  13 H :    0.022622
  14 H :    0.024481
  15 H :    0.021892
  16 S :    0.444045
  17 C :   -0.188375
  18 C :   -0.066956
  19 C :   -0.046285
  20 C :   -0.221480
  21 H :    0.023878
  22 C :   -0.025488
  23 H :    0.027366
  24 H :    0.029561
  25 C :   -0.041856
  26 H :    0.027230
  27 H :    0.024819
  28 C :   -0.068155
  29 H :    0.023593
  30 H :    0.026324
  31 H :    0.027165
  32 H :    0.035017
  33 H :    0.035162

  Mayer bond orders larger than 0.100000
B(  0-S ,  1-C ) :   1.0926 B(  0-S ,  4-C ) :   1.1152 B(  1-C ,  2-C ) :   1.6501
B(  1-C , 32-H ) :   0.9701 B(  2-C ,  3-C ) :   1.1982 B(  2-C ,  6-C ) :   1.0356
B(  3-C ,  4-C ) :   1.6084 B(  3-C ,  5-H ) :   0.9942 B(  4-C , 20-C ) :   1.0748
B(  6-C ,  7-H ) :   0.9348 B(  6-C ,  8-H ) :   0.9455 B(  6-C ,  9-C ) :   1.0602
B(  9-C , 10-H ) :   0.9585 B(  9-C , 11-H ) :   0.9537 B(  9-C , 12-C ) :   1.0766
B( 12-C , 13-H ) :   0.9764 B( 12-C , 14-H ) :   0.9734 B( 12-C , 15-H ) :   0.9759
B( 16-S , 17-C ) :   1.1529 B( 16-S , 20-C ) :   1.1642 B( 17-C , 18-C ) :   1.6024
B( 17-C , 33-H ) :   0.9615 B( 18-C , 19-C ) :   1.2831 B( 18-C , 21-H ) :   0.9935
B( 19-C , 20-C ) :   1.5425 B( 19-C , 22-C ) :   1.0184 B( 22-C , 23-H ) :   0.9195
B( 22-C , 24-H ) :   0.9459 B( 22-C , 25-C ) :   1.0647 B( 25-C , 26-H ) :   0.9625
B( 25-C , 27-H ) :   0.9451 B( 25-C , 28-C ) :   1.1007 B( 28-C , 29-H ) :   0.9721
B( 28-C , 30-H ) :   0.9717 B( 28-C , 31-H ) :   0.9721

Dispersion correction           -0.013610825
FINAL SINGLE POINT ENERGY     -1339.877439843901

DIPOLE MOMENT
-------------
                                X             Y             Z
Electronic contribution:      2.99482      28.00966     -15.56216
Nuclear contribution   :     -3.31382     -28.73518      15.69920
                        -----------------------------------------
Total Dipole Moment    :     -0.31900      -0.72551       0.13704
                        -----------------------------------------
Magnitude (a.u.)       :      0.80431
Magnitude (Debye)      :      2.04439

Rotational constants in cm-1:     0.017147     0.008996     0.006181
Rotational constants in MHz :   514.060452   269.702985   185.293681

                             ****ORCA TERMINATED NORMALLY****
TOTAL RUN TIME: 0 days 0 hours 0 minutes 20 seconds 360 msec
