                         Program Version 4.2.1 -  RELEASE  -
|  1> ! wB97X-D3 SP def2-SVP
|  2> %pal
|  3> nprocs 24
|  4> end
|  5>
|  6> * xyz 0 1
|  7> S 	 -68.1025 	 6.48791 	 17.6905
|  8> C 	 -67.1451 	 7.82903 	 18.0334
|  9> C 	 -65.9314 	 7.45996 	 18.651
| 10> C 	 -65.8107 	 6.10147 	 18.7786
| 11> C 	 -66.8997 	 5.36211 	 18.3135
| 12> H 	 -65.042 	 5.44573 	 19.1178
| 13> C 	 -64.8411 	 8.3924 	 19.1604
| 14> H 	 -65.061 	 9.41659 	 18.8627
| 15> H 	 -63.8957 	 8.17003 	 18.7316
| 16> C 	 -64.6211 	 8.38875 	 20.7135
| 17> H 	 -65.5793 	 8.40791 	 21.1373
| 18> H 	 -64.2524 	 7.41619 	 20.9838
| 19> C 	 -63.6357 	 9.41133 	 21.2907
| 20> H 	 -63.3205 	 9.11197 	 22.2626
| 21> H 	 -62.7192 	 9.47584 	 20.7002
| 22> H 	 -63.9796 	 10.432 	 21.3659
| 23> S 	 -68.4929 	 3.52236 	 19.4285
| 24> C 	 -68.2111 	 1.79989 	 19.223
| 25> C 	 -66.9439 	 1.60973 	 18.6718
| 26> C 	 -66.3177 	 2.85379 	 18.2929
| 27> C 	 -67.1172 	 3.91184 	 18.5162
| 28> H 	 -66.5297 	 0.571721 	 18.6948
| 29> C 	 -64.8932 	 2.7522 	 17.7602
| 30> H 	 -64.3343 	 3.66707 	 17.3841
| 31> H 	 -64.9106 	 2.1143 	 16.9109
| 32> C 	 -63.9428 	 1.95631 	 18.7798
| 33> H 	 -64.3618 	 1.07505 	 19.2136
| 34> H 	 -63.6735 	 2.61359 	 19.595
| 35> C 	 -62.5893 	 1.63356 	 18.1212
| 36> H 	 -62.7475 	 0.918916 	 17.2494
| 37> H 	 -61.9067 	 1.20677 	 18.8095
| 38> H 	 -62.2136 	 2.65243 	 17.8421
| 39> H 	 -67.492 	 8.91523 	 17.849
| 40> H 	 -68.814 	 1.0441 	 19.6982
| 41> *
| 42>
| 43>                          ****END OF INPUT****

CARTESIAN COORDINATES (ANGSTROEM)
---------------------------------
  S    -68.102500    6.487910   17.690500
  C    -67.145100    7.829030   18.033400
  C    -65.931400    7.459960   18.651000
  C    -65.810700    6.101470   18.778600
  C    -66.899700    5.362110   18.313500
  H    -65.042000    5.445730   19.117800
  C    -64.841100    8.392400   19.160400
  H    -65.061000    9.416590   18.862700
  H    -63.895700    8.170030   18.731600
  C    -64.621100    8.388750   20.713500
  H    -65.579300    8.407910   21.137300
  H    -64.252400    7.416190   20.983800
  C    -63.635700    9.411330   21.290700
  H    -63.320500    9.111970   22.262600
  H    -62.719200    9.475840   20.700200
  H    -63.979600   10.432000   21.365900
  S    -68.492900    3.522360   19.428500
  C    -68.211100    1.799890   19.223000
  C    -66.943900    1.609730   18.671800
  C    -66.317700    2.853790   18.292900
  C    -67.117200    3.911840   18.516200
  H    -66.529700    0.571721   18.694800
  C    -64.893200    2.752200   17.760200
  H    -64.334300    3.667070   17.384100
  H    -64.910600    2.114300   16.910900
  C    -63.942800    1.956310   18.779800
  H    -64.361800    1.075050   19.213600
  H    -63.673500    2.613590   19.595000
  C    -62.589300    1.633560   18.121200
  H    -62.747500    0.918916   17.249400
  H    -61.906700    1.206770   18.809500
  H    -62.213600    2.652430   17.842100
  H    -67.492000    8.915230   17.849000
  H    -68.814000    1.044100   19.698200

 Total Charge           Charge          ....    0
 Multiplicity           Mult            ....    1
 Number of Electrons    NEL             ....  134
 Basis Dimension        Dim             ....  322

ORBITAL ENERGIES
----------------

  NO   OCC          E(Eh)            E(eV)
   0   2.0000     -88.969935     -2420.9950
   1   2.0000     -88.961988     -2420.7788
   2   2.0000     -10.326738      -281.0048
   3   2.0000     -10.321615      -280.8654
   4   2.0000     -10.319696      -280.8132
   5   2.0000     -10.316717      -280.7321
   6   2.0000     -10.303294      -280.3669
   7   2.0000     -10.300244      -280.2839
   8   2.0000     -10.299839      -280.2729
   9   2.0000     -10.299736      -280.2701
  10   2.0000     -10.288107      -279.9536
  11   2.0000     -10.287493      -279.9369
  12   2.0000     -10.286938      -279.9218
  13   2.0000     -10.284551      -279.8569
  14   2.0000     -10.279863      -279.7293
  15   2.0000     -10.275573      -279.6125
  16   2.0000      -8.085161      -220.0084
  17   2.0000      -8.077911      -219.8111
  18   2.0000      -6.043430      -164.4501
  19   2.0000      -6.039340      -164.3388
  20   2.0000      -6.036424      -164.2595
  21   2.0000      -6.036405      -164.2589
  22   2.0000      -6.032322      -164.1478
  23   2.0000      -6.028506      -164.0440
  24   2.0000      -1.014229       -27.5986
  25   2.0000      -0.992496       -27.0072
  26   2.0000      -0.907465       -24.6934
  27   2.0000      -0.904795       -24.6207
  28   2.0000      -0.868845       -23.6425
  29   2.0000      -0.856768       -23.3138
  30   2.0000      -0.849919       -23.1275
  31   2.0000      -0.813975       -22.1494
  32   2.0000      -0.779485       -21.2109
  33   2.0000      -0.770889       -20.9769
  34   2.0000      -0.707093       -19.2410
  35   2.0000      -0.698426       -19.0051
  36   2.0000      -0.690718       -18.7954
  37   2.0000      -0.665519       -18.1097
  38   2.0000      -0.646043       -17.5797
  39   2.0000      -0.620068       -16.8729
  40   2.0000      -0.601009       -16.3543
  41   2.0000      -0.571604       -15.5541
  42   2.0000      -0.563660       -15.3380
  43   2.0000      -0.555973       -15.1288
  44   2.0000      -0.525678       -14.3044
  45   2.0000      -0.523423       -14.2431
  46   2.0000      -0.515343       -14.0232
  47   2.0000      -0.507954       -13.8221
  48   2.0000      -0.505758       -13.7624
  49   2.0000      -0.501054       -13.6344
  50   2.0000      -0.493898       -13.4397
  51   2.0000      -0.478823       -13.0294
  52   2.0000      -0.472787       -12.8652
  53   2.0000      -0.468160       -12.7393
  54   2.0000      -0.457851       -12.4588
  55   2.0000      -0.450707       -12.2644
  56   2.0000      -0.442131       -12.0310
  57   2.0000      -0.433840       -11.8054
  58   2.0000      -0.431343       -11.7374
  59   2.0000      -0.426588       -11.6081
  60   2.0000      -0.424998       -11.5648
  61   2.0000      -0.422214       -11.4890
  62   2.0000      -0.418811       -11.3964
  63   2.0000      -0.349460        -9.5093
  64   2.0000      -0.332553        -9.0492
  65   2.0000      -0.326522        -8.8851
  66   2.0000      -0.293222        -7.9790
  67   0.0000       0.035111         0.9554
  68   0.0000       0.071072         1.9340
  69   0.0000       0.109221         2.9720
  70   0.0000       0.124244         3.3808
  71   0.0000       0.133359         3.6289

MULLIKEN ATOMIC CHARGES
-----------------------
   0 S :    0.135847
   1 C :   -0.153429
   2 C :   -0.067508
   3 C :    0.046672
   4 C :   -0.195815
   5 H :   -0.001765
   6 C :    0.095676
   7 H :    0.007375
   8 H :    0.016143
   9 C :   -0.066310
  10 H :    0.019262
  11 H :    0.015826
  12 C :   -0.022542
  13 H :    0.025028
  14 H :    0.020515
  15 H :    0.030316
  16 S :    0.107899
  17 C :   -0.100057
  18 C :   -0.067692
  19 C :    0.010206
  20 C :   -0.153117
  21 H :    0.043816
  22 C :    0.048188
  23 H :    0.039817
  24 H :    0.018643
  25 C :   -0.095939
  26 H :    0.026765
  27 H :    0.025799
  28 C :   -0.061711
  29 H :    0.045061
  30 H :    0.032962
  31 H :    0.032848
  32 H :    0.083385
  33 H :    0.057833
Sum of atomic charges:    0.0000000

LOEWDIN ATOMIC CHARGES
----------------------
   0 S :    0.443567
   1 C :   -0.232167
   2 C :   -0.072375
   3 C :   -0.057581
   4 C :   -0.201029
   5 H :    0.029703
   6 C :   -0.024195
   7 H :    0.024427
   8 H :    0.023202
   9 C :   -0.034227
  10 H :    0.017768
  11 H :    0.020010
  12 C :   -0.061819
  13 H :    0.024973
  14 H :    0.026156
  15 H :    0.023419
  16 S :    0.422551
  17 C :   -0.185952
  18 C :   -0.069557
  19 C :   -0.065030
  20 C :   -0.213211
  21 H :    0.040198
  22 C :   -0.031045
  23 H :    0.036530
  24 H :    0.026099
  25 C :   -0.035891
  26 H :    0.015171
  27 H :    0.020878
  28 C :   -0.066074
  29 H :    0.030238
  30 H :    0.019440
  31 H :    0.029776
  32 H :    0.049146
  33 H :    0.026900

  Mayer bond orders larger than 0.100000
B(  0-S ,  1-C ) :   1.1883 B(  0-S ,  4-C ) :   1.1766 B(  1-C ,  2-C ) :   1.5352
B(  1-C ,  4-C ) :   0.1121 B(  1-C , 32-H ) :   0.9555 B(  2-C ,  3-C ) :   1.2852
B(  2-C ,  6-C ) :   1.0356 B(  3-C ,  4-C ) :   1.5354 B(  3-C ,  5-H ) :   1.0010
B(  4-C , 20-C ) :   1.0060 B(  6-C ,  7-H ) :   0.9426 B(  6-C ,  8-H ) :   0.9365
B(  6-C ,  9-C ) :   1.0584 B(  9-C , 10-H ) :   0.9576 B(  9-C , 11-H ) :   0.9547
B(  9-C , 12-C ) :   1.0847 B( 12-C , 13-H ) :   0.9737 B( 12-C , 14-H ) :   0.9719
B( 12-C , 15-H ) :   0.9764 B( 16-S , 17-C ) :   1.1483 B( 16-S , 20-C ) :   1.1590
B( 17-C , 18-C ) :   1.6212 B( 17-C , 33-H ) :   0.9710 B( 18-C , 19-C ) :   1.2131
B( 18-C , 21-H ) :   0.9809 B( 19-C , 20-C ) :   1.6365 B( 19-C , 22-C ) :   1.0357
B( 22-C , 23-H ) :   0.9441 B( 22-C , 24-H ) :   0.9354 B( 22-C , 25-C ) :   1.0441
B( 25-C , 26-H ) :   0.9585 B( 25-C , 27-H ) :   0.9571 B( 25-C , 28-C ) :   1.0830
B( 28-C , 29-H ) :   0.9757 B( 28-C , 30-H ) :   0.9741 B( 28-C , 31-H ) :   0.9746

Dispersion correction           -0.013479008
FINAL SINGLE POINT ENERGY     -1339.868277808829

DIPOLE MOMENT
-------------
                                X             Y             Z
Electronic contribution:    -28.92831      -2.84250      -6.83163
Nuclear contribution   :     29.56424       2.72293       7.12823
                        -----------------------------------------
Total Dipole Moment    :      0.63593      -0.11957       0.29660
                        -----------------------------------------
Magnitude (a.u.)       :      0.71181
Magnitude (Debye)      :      1.80928

Rotational constants in cm-1:     0.016148     0.008583     0.006472
Rotational constants in MHz :   484.110273   257.321461   194.025358

                             ****ORCA TERMINATED NORMALLY****
TOTAL RUN TIME: 0 days 0 hours 0 minutes 19 seconds 965 msec
