                         Program Version 4.2.1 -  RELEASE  -
|  1> ! wB97X-D3 SP def2-SVP
|  2> %pal
|  3> nprocs 24
|  4> end
|  5>
|  6> * xyz 0 1
|  7> S 	 -90.1945 	 -2.7279 	 7.4177
|  8> C 	 -90.162 	 -2.11143 	 5.83265
|  9> C 	 -88.8402 	 -2.10347 	 5.34496
| 10> C 	 -87.9984 	 -2.93716 	 6.15101
| 11> C 	 -88.6381 	 -3.49836 	 7.26516
| 12> H 	 -86.9254 	 -3.27197 	 5.93998
| 13> C 	 -88.3911 	 -1.46921 	 4.07865
| 14> H 	 -87.4408 	 -1.0219 	 4.3293
| 15> H 	 -89.0785 	 -0.669812 	 3.77477
| 16> C 	 -88.2148 	 -2.35211 	 2.82034
| 17> H 	 -87.9279 	 -1.80476 	 1.9626
| 18> H 	 -87.4016 	 -3.03849 	 3.01868
| 19> C 	 -89.4796 	 -3.19934 	 2.46318
| 20> H 	 -90.3608 	 -2.69609 	 2.24183
| 21> H 	 -89.2844 	 -3.79791 	 1.56598
| 22> H 	 -89.6688 	 -3.80844 	 3.32482
| 23> S 	 -89.1304 	 -5.86056 	 8.6316
| 24> C 	 -87.7767 	 -6.53355 	 9.53273
| 25> C 	 -86.6539 	 -5.85557 	 9.40572
| 26> C 	 -86.8209 	 -4.68943 	 8.6561
| 27> C 	 -88.0613 	 -4.53767 	 8.12606
| 28> H 	 -85.7779 	 -6.16379 	 9.92966
| 29> C 	 -85.7128 	 -3.64304 	 8.53731
| 30> H 	 -85.7061 	 -3.3172 	 9.58854
| 31> H 	 -86.1454 	 -2.79818 	 7.95866
| 32> C 	 -84.3153 	 -4.17387 	 8.08337
| 33> H 	 -84.2503 	 -4.45189 	 6.99914
| 34> H 	 -84.1198 	 -5.06225 	 8.56212
| 35> C 	 -83.189 	 -3.1898 	 8.44103
| 36> H 	 -83.3123 	 -2.8028 	 9.43609
| 37> H 	 -83.0919 	 -2.37164 	 7.72506
| 38> H 	 -82.265 	 -3.65556 	 8.35085
| 39> H 	 -90.9532 	 -1.50449 	 5.39856
| 40> H 	 -87.8724 	 -7.50992 	 10.028
| 41> *
| 42>
| 43>                          ****END OF INPUT****

CARTESIAN COORDINATES (ANGSTROEM)
---------------------------------
  S    -90.194500   -2.727900    7.417700
  C    -90.162000   -2.111430    5.832650
  C    -88.840200   -2.103470    5.344960
  C    -87.998400   -2.937160    6.151010
  C    -88.638100   -3.498360    7.265160
  H    -86.925400   -3.271970    5.939980
  C    -88.391100   -1.469210    4.078650
  H    -87.440800   -1.021900    4.329300
  H    -89.078500   -0.669812    3.774770
  C    -88.214800   -2.352110    2.820340
  H    -87.927900   -1.804760    1.962600
  H    -87.401600   -3.038490    3.018680
  C    -89.479600   -3.199340    2.463180
  H    -90.360800   -2.696090    2.241830
  H    -89.284400   -3.797910    1.565980
  H    -89.668800   -3.808440    3.324820
  S    -89.130400   -5.860560    8.631600
  C    -87.776700   -6.533550    9.532730
  C    -86.653900   -5.855570    9.405720
  C    -86.820900   -4.689430    8.656100
  C    -88.061300   -4.537670    8.126060
  H    -85.777900   -6.163790    9.929660
  C    -85.712800   -3.643040    8.537310
  H    -85.706100   -3.317200    9.588540
  H    -86.145400   -2.798180    7.958660
  C    -84.315300   -4.173870    8.083370
  H    -84.250300   -4.451890    6.999140
  H    -84.119800   -5.062250    8.562120
  C    -83.189000   -3.189800    8.441030
  H    -83.312300   -2.802800    9.436090
  H    -83.091900   -2.371640    7.725060
  H    -82.265000   -3.655560    8.350850
  H    -90.953200   -1.504490    5.398560
  H    -87.872400   -7.509920   10.028000

 Total Charge           Charge          ....    0
 Multiplicity           Mult            ....    1
 Number of Electrons    NEL             ....  134
 Basis Dimension        Dim             ....  322

ORBITAL ENERGIES
----------------

  NO   OCC          E(Eh)            E(eV)
   0   2.0000     -88.966396     -2420.8987
   1   2.0000     -88.961103     -2420.7547
   2   2.0000     -10.329791      -281.0879
   3   2.0000     -10.324019      -280.9308
   4   2.0000     -10.313659      -280.6489
   5   2.0000     -10.312165      -280.6083
   6   2.0000     -10.302834      -280.3544
   7   2.0000     -10.299560      -280.2653
   8   2.0000     -10.296943      -280.1941
   9   2.0000     -10.295155      -280.1454
  10   2.0000     -10.289518      -279.9920
  11   2.0000     -10.288795      -279.9723
  12   2.0000     -10.284082      -279.8441
  13   2.0000     -10.282641      -279.8049
  14   2.0000     -10.272459      -279.5278
  15   2.0000     -10.266244      -279.3587
  16   2.0000      -8.081829      -219.9177
  17   2.0000      -8.075929      -219.7572
  18   2.0000      -6.040205      -164.3623
  19   2.0000      -6.036317      -164.2565
  20   2.0000      -6.034432      -164.2052
  21   2.0000      -6.032600      -164.1554
  22   2.0000      -6.030612      -164.1013
  23   2.0000      -6.026498      -163.9894
  24   2.0000      -1.010943       -27.5092
  25   2.0000      -0.991517       -26.9805
  26   2.0000      -0.909871       -24.7589
  27   2.0000      -0.906734       -24.6735
  28   2.0000      -0.872252       -23.7352
  29   2.0000      -0.855129       -23.2692
  30   2.0000      -0.844316       -22.9750
  31   2.0000      -0.816447       -22.2166
  32   2.0000      -0.782766       -21.3001
  33   2.0000      -0.772954       -21.0331
  34   2.0000      -0.712658       -19.3924
  35   2.0000      -0.704483       -19.1699
  36   2.0000      -0.696863       -18.9626
  37   2.0000      -0.661921       -18.0118
  38   2.0000      -0.636104       -17.3093
  39   2.0000      -0.617173       -16.7941
  40   2.0000      -0.596798       -16.2397
  41   2.0000      -0.569861       -15.5067
  42   2.0000      -0.562149       -15.2969
  43   2.0000      -0.549194       -14.9443
  44   2.0000      -0.542396       -14.7593
  45   2.0000      -0.533134       -14.5073
  46   2.0000      -0.522218       -14.2103
  47   2.0000      -0.513754       -13.9800
  48   2.0000      -0.500935       -13.6311
  49   2.0000      -0.493503       -13.4289
  50   2.0000      -0.483932       -13.1685
  51   2.0000      -0.479899       -13.0587
  52   2.0000      -0.472680       -12.8623
  53   2.0000      -0.466600       -12.6968
  54   2.0000      -0.458578       -12.4785
  55   2.0000      -0.454437       -12.3659
  56   2.0000      -0.446056       -12.1378
  57   2.0000      -0.443396       -12.0654
  58   2.0000      -0.437288       -11.8992
  59   2.0000      -0.425243       -11.5714
  60   2.0000      -0.421384       -11.4665
  61   2.0000      -0.413741       -11.2585
  62   2.0000      -0.412890       -11.2353
  63   2.0000      -0.353922        -9.6307
  64   2.0000      -0.333112        -9.0644
  65   2.0000      -0.325450        -8.8559
  66   2.0000      -0.289195        -7.8694
  67   0.0000       0.026942         0.7331
  68   0.0000       0.078616         2.1393
  69   0.0000       0.105720         2.8768
  70   0.0000       0.118263         3.2181
  71   0.0000       0.131391         3.5753

MULLIKEN ATOMIC CHARGES
-----------------------
   0 S :    0.128731
   1 C :   -0.118033
   2 C :   -0.114483
   3 C :   -0.008713
   4 C :   -0.165063
   5 H :    0.046303
   6 C :    0.075589
   7 H :    0.026767
   8 H :    0.019560
   9 C :   -0.049691
  10 H :    0.022385
  11 H :    0.020292
  12 C :   -0.047844
  13 H :    0.011457
  14 H :    0.031995
  15 H :    0.043298
  16 S :    0.092393
  17 C :   -0.087383
  18 C :   -0.021015
  19 C :   -0.032493
  20 C :   -0.162737
  21 H :    0.010650
  22 C :    0.047090
  23 H :    0.037709
  24 H :    0.032739
  25 C :   -0.046794
  26 H :    0.035177
  27 H :    0.003803
  28 C :   -0.015894
  29 H :    0.027944
  30 H :    0.028343
  31 H :    0.012789
  32 H :    0.055259
  33 H :    0.059870
Sum of atomic charges:    0.0000000

LOEWDIN ATOMIC CHARGES
----------------------
   0 S :    0.429961
   1 C :   -0.215962
   2 C :   -0.066370
   3 C :   -0.073950
   4 C :   -0.201288
   5 H :    0.042866
   6 C :   -0.034851
   7 H :    0.033061
   8 H :    0.029852
   9 C :   -0.030336
  10 H :    0.017507
  11 H :    0.020990
  12 C :   -0.061384
  13 H :    0.012139
  14 H :    0.029009
  15 H :    0.026381
  16 S :    0.379110
  17 C :   -0.164673
  18 C :   -0.076769
  19 C :   -0.057644
  20 C :   -0.190890
  21 H :    0.032119
  22 C :   -0.031266
  23 H :    0.038738
  24 H :    0.032350
  25 C :   -0.033363
  26 H :    0.031687
  27 H :    0.010167
  28 C :   -0.057006
  29 H :    0.023604
  30 H :    0.026565
  31 H :    0.017476
  32 H :    0.030124
  33 H :    0.032048

  Mayer bond orders larger than 0.100000
B(  0-S ,  1-C ) :   1.1590 B(  0-S ,  4-C ) :   1.1664 B(  1-C ,  2-C ) :   1.5538
B(  1-C ,  4-C ) :   0.1002 B(  1-C , 32-H ) :   0.9679 B(  2-C ,  3-C ) :   1.2589
B(  2-C ,  6-C ) :   1.0465 B(  3-C ,  4-C ) :   1.5409 B(  3-C ,  5-H ) :   0.9786
B(  4-C , 20-C ) :   1.0537 B(  6-C ,  7-H ) :   0.9341 B(  6-C ,  8-H ) :   0.9397
B(  6-C ,  9-C ) :   1.0732 B(  9-C , 10-H ) :   0.9580 B(  9-C , 11-H ) :   0.9559
B(  9-C , 12-C ) :   1.0731 B( 12-C , 13-H ) :   0.9781 B( 12-C , 14-H ) :   0.9745
B( 12-C , 15-H ) :   0.9750 B( 16-S , 17-C ) :   1.1435 B( 16-S , 20-C ) :   1.1137
B( 17-C , 18-C ) :   1.6509 B( 17-C , 33-H ) :   0.9586 B( 18-C , 19-C ) :   1.2112
B( 18-C , 21-H ) :   0.9965 B( 19-C , 20-C ) :   1.6436 B( 19-C , 22-C ) :   1.0176
B( 22-C , 23-H ) :   0.9329 B( 22-C , 24-H ) :   0.9368 B( 22-C , 25-C ) :   1.0541
B( 25-C , 26-H ) :   0.9526 B( 25-C , 27-H ) :   0.9556 B( 25-C , 28-C ) :   1.0889
B( 28-C , 29-H ) :   0.9762 B( 28-C , 30-H ) :   0.9755 B( 28-C , 31-H ) :   0.9721

Dispersion correction           -0.014143336
FINAL SINGLE POINT ENERGY     -1339.873031150664

DIPOLE MOMENT
-------------
                                X             Y             Z
Electronic contribution:    -19.83052      -7.24868      15.48613
Nuclear contribution   :     20.52052       7.34442     -15.65161
                        -----------------------------------------
Total Dipole Moment    :      0.69000       0.09574      -0.16548
                        -----------------------------------------
Magnitude (a.u.)       :      0.71600
Magnitude (Debye)      :      1.81992

Rotational constants in cm-1:     0.017039     0.008876     0.006814
Rotational constants in MHz :   510.822202   266.098955   204.272206

                             ****ORCA TERMINATED NORMALLY****
TOTAL RUN TIME: 0 days 0 hours 0 minutes 21 seconds 400 msec
