                         Program Version 4.2.1 -  RELEASE  -
|  1> ! wB97X-D3 SP def2-SVP
|  2> %pal
|  3> nprocs 24
|  4> end
|  5>
|  6> * xyz 0 1
|  7> S 	 -56.3971 	 -59.4836 	 -80.8753
|  8> C 	 -55.9541 	 -57.9446 	 -80.1578
|  9> C 	 -56.3697 	 -56.8843 	 -80.9068
| 10> C 	 -57.0444 	 -57.3573 	 -82.1101
| 11> C 	 -57.2537 	 -58.7335 	 -82.2137
| 12> H 	 -57.5195 	 -56.7184 	 -82.7754
| 13> C 	 -56.1902 	 -55.4913 	 -80.5484
| 14> H 	 -55.3619 	 -55.0739 	 -81.1574
| 15> H 	 -55.6804 	 -55.3459 	 -79.6078
| 16> C 	 -57.5832 	 -54.7767 	 -80.5759
| 17> H 	 -58.1304 	 -54.9768 	 -81.4974
| 18> H 	 -58.159 	 -55.3368 	 -79.8541
| 19> C 	 -57.3884 	 -53.3216 	 -80.1852
| 20> H 	 -56.917 	 -53.022 	 -79.2657
| 21> H 	 -56.9831 	 -52.6507 	 -80.975
| 22> H 	 -58.3431 	 -52.9712 	 -79.8754
| 23> S 	 -59.0837 	 -60.721 	 -82.613
| 24> C 	 -59.6303 	 -61.0966 	 -84.2401
| 25> C 	 -59.2379 	 -60.1063 	 -85.1064
| 26> C 	 -58.2681 	 -59.245 	 -84.5746
| 27> C 	 -57.9943 	 -59.4918 	 -83.2378
| 28> H 	 -59.7267 	 -59.9592 	 -86.1108
| 29> C 	 -57.7314 	 -58.1594 	 -85.3469
| 30> H 	 -57.4261 	 -57.3492 	 -84.6714
| 31> H 	 -58.5699 	 -57.6932 	 -85.8871
| 32> C 	 -56.7194 	 -58.4357 	 -86.462
| 33> H 	 -56.7788 	 -57.5095 	 -86.9733
| 34> H 	 -57.2174 	 -59.1889 	 -87.2053
| 35> C 	 -55.2792 	 -58.7705 	 -86.0776
| 36> H 	 -55.1826 	 -59.529 	 -85.3149
| 37> H 	 -54.8993 	 -57.8218 	 -85.6178
| 38> H 	 -54.6624 	 -59.0889 	 -86.9541
| 39> H 	 -55.5599 	 -57.842 	 -79.1466
| 40> H 	 -60.5134 	 -61.6917 	 -84.4599
| 41> *
| 42>
| 43>                          ****END OF INPUT****

CARTESIAN COORDINATES (ANGSTROEM)
---------------------------------
  S    -56.397100  -59.483600  -80.875300
  C    -55.954100  -57.944600  -80.157800
  C    -56.369700  -56.884300  -80.906800
  C    -57.044400  -57.357300  -82.110100
  C    -57.253700  -58.733500  -82.213700
  H    -57.519500  -56.718400  -82.775400
  C    -56.190200  -55.491300  -80.548400
  H    -55.361900  -55.073900  -81.157400
  H    -55.680400  -55.345900  -79.607800
  C    -57.583200  -54.776700  -80.575900
  H    -58.130400  -54.976800  -81.497400
  H    -58.159000  -55.336800  -79.854100
  C    -57.388400  -53.321600  -80.185200
  H    -56.917000  -53.022000  -79.265700
  H    -56.983100  -52.650700  -80.975000
  H    -58.343100  -52.971200  -79.875400
  S    -59.083700  -60.721000  -82.613000
  C    -59.630300  -61.096600  -84.240100
  C    -59.237900  -60.106300  -85.106400
  C    -58.268100  -59.245000  -84.574600
  C    -57.994300  -59.491800  -83.237800
  H    -59.726700  -59.959200  -86.110800
  C    -57.731400  -58.159400  -85.346900
  H    -57.426100  -57.349200  -84.671400
  H    -58.569900  -57.693200  -85.887100
  C    -56.719400  -58.435700  -86.462000
  H    -56.778800  -57.509500  -86.973300
  H    -57.217400  -59.188900  -87.205300
  C    -55.279200  -58.770500  -86.077600
  H    -55.182600  -59.529000  -85.314900
  H    -54.899300  -57.821800  -85.617800
  H    -54.662400  -59.088900  -86.954100
  H    -55.559900  -57.842000  -79.146600
  H    -60.513400  -61.691700  -84.459900

 Total Charge           Charge          ....    0
 Multiplicity           Mult            ....    1
 Number of Electrons    NEL             ....  134
 Basis Dimension        Dim             ....  322

ORBITAL ENERGIES
----------------

  NO   OCC          E(Eh)            E(eV)
   0   2.0000     -88.965600     -2420.8771
   1   2.0000     -88.961758     -2420.7725
   2   2.0000     -10.334588      -281.2184
   3   2.0000     -10.329705      -281.0855
   4   2.0000     -10.316609      -280.7292
   5   2.0000     -10.309693      -280.5410
   6   2.0000     -10.296720      -280.1880
   7   2.0000     -10.295942      -280.1668
   8   2.0000     -10.295501      -280.1548
   9   2.0000     -10.292999      -280.0868
  10   2.0000     -10.291596      -280.0486
  11   2.0000     -10.289880      -280.0019
  12   2.0000     -10.288894      -279.9751
  13   2.0000     -10.285826      -279.8916
  14   2.0000     -10.279423      -279.7173
  15   2.0000     -10.277434      -279.6632
  16   2.0000      -8.080199      -219.8734
  17   2.0000      -8.076347      -219.7686
  18   2.0000      -6.038678      -164.3208
  19   2.0000      -6.034984      -164.2203
  20   2.0000      -6.034866      -164.2170
  21   2.0000      -6.030839      -164.1075
  22   2.0000      -6.030784      -164.1060
  23   2.0000      -6.027074      -164.0050
  24   2.0000      -1.008087       -27.4314
  25   2.0000      -0.986154       -26.8346
  26   2.0000      -0.917789       -24.9743
  27   2.0000      -0.914427       -24.8828
  28   2.0000      -0.871053       -23.7026
  29   2.0000      -0.852217       -23.1900
  30   2.0000      -0.845320       -23.0023
  31   2.0000      -0.816654       -22.2223
  32   2.0000      -0.784161       -21.3381
  33   2.0000      -0.774498       -21.0752
  34   2.0000      -0.720489       -19.6055
  35   2.0000      -0.701513       -19.0891
  36   2.0000      -0.693070       -18.8594
  37   2.0000      -0.661016       -17.9872
  38   2.0000      -0.642400       -17.4806
  39   2.0000      -0.625334       -17.0162
  40   2.0000      -0.596810       -16.2400
  41   2.0000      -0.570156       -15.5147
  42   2.0000      -0.557425       -15.1683
  43   2.0000      -0.548157       -14.9161
  44   2.0000      -0.539589       -14.6830
  45   2.0000      -0.527672       -14.3587
  46   2.0000      -0.517400       -14.0792
  47   2.0000      -0.514479       -13.9997
  48   2.0000      -0.503928       -13.7126
  49   2.0000      -0.497682       -13.5426
  50   2.0000      -0.497483       -13.5372
  51   2.0000      -0.484191       -13.1755
  52   2.0000      -0.474105       -12.9011
  53   2.0000      -0.461079       -12.5466
  54   2.0000      -0.460644       -12.5348
  55   2.0000      -0.456006       -12.4086
  56   2.0000      -0.446209       -12.1420
  57   2.0000      -0.436438       -11.8761
  58   2.0000      -0.431424       -11.7396
  59   2.0000      -0.425633       -11.5820
  60   2.0000      -0.416332       -11.3290
  61   2.0000      -0.410558       -11.1719
  62   2.0000      -0.404283       -11.0011
  63   2.0000      -0.351799        -9.5729
  64   2.0000      -0.329310        -8.9610
  65   2.0000      -0.323872        -8.8130
  66   2.0000      -0.290421        -7.9028
  67   0.0000       0.023666         0.6440
  68   0.0000       0.076169         2.0727
  69   0.0000       0.099025         2.6946
  70   0.0000       0.121378         3.3029
  71   0.0000       0.136425         3.7123

MULLIKEN ATOMIC CHARGES
-----------------------
   0 S :    0.097238
   1 C :   -0.125473
   2 C :   -0.085159
   3 C :    0.020939
   4 C :   -0.137448
   5 H :   -0.006106
   6 C :    0.079085
   7 H :    0.036736
   8 H :   -0.000754
   9 C :   -0.083627
  10 H :    0.040535
  11 H :    0.031363
  12 C :   -0.016146
  13 H :    0.019992
  14 H :    0.045233
  15 H :    0.009160
  16 S :    0.094959
  17 C :   -0.073112
  18 C :   -0.073041
  19 C :   -0.017277
  20 C :   -0.122628
  21 H :    0.041079
  22 C :    0.026029
  23 H :    0.000632
  24 H :    0.019119
  25 C :   -0.066288
  26 H :    0.017454
  27 H :    0.029956
  28 C :   -0.037927
  29 H :    0.040483
  30 H :    0.032779
  31 H :    0.047980
  32 H :    0.050968
  33 H :    0.063269
Sum of atomic charges:    0.0000000

LOEWDIN ATOMIC CHARGES
----------------------
   0 S :    0.391792
   1 C :   -0.198409
   2 C :   -0.063489
   3 C :   -0.064387
   4 C :   -0.187924
   5 H :    0.010183
   6 C :   -0.040230
   7 H :    0.038079
   8 H :    0.028046
   9 C :   -0.029748
  10 H :    0.028180
  11 H :    0.029517
  12 C :   -0.075695
  13 H :    0.027557
  14 H :    0.032717
  15 H :    0.024244
  16 S :    0.404742
  17 C :   -0.187278
  18 C :   -0.069553
  19 C :   -0.065609
  20 C :   -0.191658
  21 H :    0.042138
  22 C :   -0.042686
  23 H :    0.028832
  24 H :    0.038810
  25 C :   -0.041243
  26 H :    0.019394
  27 H :    0.028442
  28 C :   -0.069481
  29 H :    0.025293
  30 H :    0.032547
  31 H :    0.033915
  32 H :    0.031078
  33 H :    0.031886

  Mayer bond orders larger than 0.100000
B(  0-S ,  1-C ) :   1.1226 B(  0-S ,  4-C ) :   1.1487 B(  1-C ,  2-C ) :   1.6295
B(  1-C , 32-H ) :   0.9617 B(  2-C ,  3-C ) :   1.2223 B(  2-C ,  6-C ) :   1.0505
B(  3-C ,  4-C ) :   1.5824 B(  3-C ,  5-H ) :   0.9871 B(  4-C , 20-C ) :   1.0360
B(  6-C ,  7-H ) :   0.9271 B(  6-C ,  8-H ) :   0.9362 B(  6-C ,  9-C ) :   1.0319
B(  9-C , 10-H ) :   0.9607 B(  9-C , 11-H ) :   0.9558 B(  9-C , 12-C ) :   1.0793
B( 12-C , 13-H ) :   0.9691 B( 12-C , 14-H ) :   0.9752 B( 12-C , 15-H ) :   0.9657
B( 16-S , 17-C ) :   1.1513 B( 16-S , 20-C ) :   1.1472 B( 17-C , 18-C ) :   1.6025
B( 17-C , 33-H ) :   0.9613 B( 18-C , 19-C ) :   1.2652 B( 18-C , 21-H ) :   0.9761
B( 19-C , 20-C ) :   1.5636 B( 19-C , 22-C ) :   1.0708 B( 22-C , 23-H ) :   0.9235
B( 22-C , 24-H ) :   0.9195 B( 22-C , 25-C ) :   1.0795 B( 25-C , 26-H ) :   0.9532
B( 25-C , 27-H ) :   0.9516 B( 25-C , 28-C ) :   1.0661 B( 28-C , 29-H ) :   0.9796
B( 28-C , 30-H ) :   0.9713 B( 28-C , 31-H ) :   0.9729

Dispersion correction           -0.014094566
FINAL SINGLE POINT ENERGY     -1339.859112207867

DIPOLE MOMENT
-------------
                                X             Y             Z
Electronic contribution:     -5.81808     -24.16879       8.39297
Nuclear contribution   :      5.56265      25.02650      -8.60702
                        -----------------------------------------
Total Dipole Moment    :     -0.25543       0.85771      -0.21405
                        -----------------------------------------
Magnitude (a.u.)       :      0.92018
Magnitude (Debye)      :      2.33892

Rotational constants in cm-1:     0.018292     0.008347     0.007206
Rotational constants in MHz :   548.372981   250.234943   216.027978

                             ****ORCA TERMINATED NORMALLY****
TOTAL RUN TIME: 0 days 0 hours 0 minutes 21 seconds 887 msec
