                         Program Version 4.2.1 -  RELEASE  -
|  1> ! wB97X-D3 SP def2-SVP
|  2> %pal
|  3> nprocs 24
|  4> end
|  5>
|  6> * xyz 0 1
|  7> S 	 -107.531 	 64.852 	 -74.2813
|  8> C 	 -106.824 	 63.2109 	 -74.6123
|  9> C 	 -107.79 	 62.2529 	 -74.7088
| 10> C 	 -109.114 	 62.8547 	 -74.6499
| 11> C 	 -109.106 	 64.2431 	 -74.6438
| 12> H 	 -110.073 	 62.3581 	 -74.7247
| 13> C 	 -107.515 	 60.7712 	 -74.7974
| 14> H 	 -107.31 	 60.4327 	 -73.7887
| 15> H 	 -106.561 	 60.6033 	 -75.2626
| 16> C 	 -108.758 	 59.914 	 -75.3488
| 17> H 	 -108.522 	 58.8711 	 -75.0646
| 18> H 	 -109.637 	 60.0389 	 -74.6644
| 19> C 	 -109.062 	 60.077 	 -76.8424
| 20> H 	 -108.161 	 59.9637 	 -77.3871
| 21> H 	 -109.792 	 59.3603 	 -77.156
| 22> H 	 -109.529 	 60.9964 	 -77.1926
| 23> S 	 -110.877 	 65.9608 	 -73.6157
| 24> C 	 -112.413 	 66.2275 	 -74.4754
| 25> C 	 -112.307 	 65.9353 	 -75.8276
| 26> C 	 -111.077 	 65.1742 	 -76.0584
| 27> C 	 -110.251 	 65.0704 	 -74.9097
| 28> H 	 -113.071 	 66.1409 	 -76.5124
| 29> C 	 -110.709 	 64.5682 	 -77.4063
| 30> H 	 -111.57 	 63.9179 	 -77.6837
| 31> H 	 -109.925 	 63.8222 	 -77.0653
| 32> C 	 -110.29 	 65.4962 	 -78.5144
| 33> H 	 -111.026 	 66.3008 	 -78.6234
| 34> H 	 -110.406 	 64.9768 	 -79.4384
| 35> C 	 -108.858 	 65.975 	 -78.224
| 36> H 	 -108.534 	 66.5566 	 -79.0844
| 37> H 	 -108.141 	 65.1575 	 -78.2227
| 38> H 	 -108.782 	 66.663 	 -77.3457
| 39> H 	 -105.771 	 62.9401 	 -74.3311
| 40> H 	 -113.178 	 66.8414 	 -74.087
| 41> *
| 42>
| 43>                          ****END OF INPUT****

CARTESIAN COORDINATES (ANGSTROEM)
---------------------------------
  S    -107.531000   64.852000  -74.281300
  C    -106.824000   63.210900  -74.612300
  C    -107.790000   62.252900  -74.708800
  C    -109.114000   62.854700  -74.649900
  C    -109.106000   64.243100  -74.643800
  H    -110.073000   62.358100  -74.724700
  C    -107.515000   60.771200  -74.797400
  H    -107.310000   60.432700  -73.788700
  H    -106.561000   60.603300  -75.262600
  C    -108.758000   59.914000  -75.348800
  H    -108.522000   58.871100  -75.064600
  H    -109.637000   60.038900  -74.664400
  C    -109.062000   60.077000  -76.842400
  H    -108.161000   59.963700  -77.387100
  H    -109.792000   59.360300  -77.156000
  H    -109.529000   60.996400  -77.192600
  S    -110.877000   65.960800  -73.615700
  C    -112.413000   66.227500  -74.475400
  C    -112.307000   65.935300  -75.827600
  C    -111.077000   65.174200  -76.058400
  C    -110.251000   65.070400  -74.909700
  H    -113.071000   66.140900  -76.512400
  C    -110.709000   64.568200  -77.406300
  H    -111.570000   63.917900  -77.683700
  H    -109.925000   63.822200  -77.065300
  C    -110.290000   65.496200  -78.514400
  H    -111.026000   66.300800  -78.623400
  H    -110.406000   64.976800  -79.438400
  C    -108.858000   65.975000  -78.224000
  H    -108.534000   66.556600  -79.084400
  H    -108.141000   65.157500  -78.222700
  H    -108.782000   66.663000  -77.345700
  H    -105.771000   62.940100  -74.331100
  H    -113.178000   66.841400  -74.087000

 Total Charge           Charge          ....    0
 Multiplicity           Mult            ....    1
 Number of Electrons    NEL             ....  134
 Basis Dimension        Dim             ....  322

ORBITAL ENERGIES
----------------

  NO   OCC          E(Eh)            E(eV)
   0   2.0000     -88.963008     -2420.8065
   1   2.0000     -88.962531     -2420.7935
   2   2.0000     -10.325949      -280.9833
   3   2.0000     -10.320611      -280.8381
   4   2.0000     -10.316645      -280.7302
   5   2.0000     -10.315552      -280.7004
   6   2.0000     -10.306796      -280.4622
   7   2.0000     -10.303533      -280.3734
   8   2.0000     -10.301021      -280.3050
   9   2.0000     -10.297459      -280.2081
  10   2.0000     -10.296801      -280.1902
  11   2.0000     -10.293914      -280.1116
  12   2.0000     -10.287084      -279.9258
  13   2.0000     -10.282038      -279.7885
  14   2.0000     -10.275648      -279.6146
  15   2.0000     -10.272950      -279.5412
  16   2.0000      -8.078635      -219.8308
  17   2.0000      -8.076861      -219.7826
  18   2.0000      -6.037109      -164.2781
  19   2.0000      -6.035486      -164.2339
  20   2.0000      -6.033045      -164.1675
  21   2.0000      -6.031609      -164.1284
  22   2.0000      -6.029352      -164.0670
  23   2.0000      -6.027351      -164.0125
  24   2.0000      -1.005943       -27.3731
  25   2.0000      -0.978709       -26.6320
  26   2.0000      -0.907576       -24.6964
  27   2.0000      -0.905982       -24.6530
  28   2.0000      -0.870939       -23.6994
  29   2.0000      -0.843524       -22.9535
  30   2.0000      -0.841311       -22.8932
  31   2.0000      -0.813067       -22.1247
  32   2.0000      -0.786177       -21.3930
  33   2.0000      -0.766218       -20.8499
  34   2.0000      -0.714799       -19.4507
  35   2.0000      -0.700675       -19.0663
  36   2.0000      -0.691490       -18.8164
  37   2.0000      -0.660103       -17.9623
  38   2.0000      -0.636383       -17.3169
  39   2.0000      -0.617181       -16.7944
  40   2.0000      -0.587886       -15.9972
  41   2.0000      -0.564726       -15.3670
  42   2.0000      -0.553636       -15.0652
  43   2.0000      -0.550485       -14.9795
  44   2.0000      -0.538213       -14.6455
  45   2.0000      -0.524537       -14.2734
  46   2.0000      -0.519436       -14.1346
  47   2.0000      -0.510283       -13.8855
  48   2.0000      -0.499689       -13.5972
  49   2.0000      -0.497581       -13.5399
  50   2.0000      -0.490293       -13.3415
  51   2.0000      -0.483471       -13.1559
  52   2.0000      -0.467400       -12.7186
  53   2.0000      -0.460666       -12.5354
  54   2.0000      -0.456592       -12.4245
  55   2.0000      -0.448852       -12.2139
  56   2.0000      -0.445836       -12.1318
  57   2.0000      -0.434040       -11.8108
  58   2.0000      -0.431534       -11.7427
  59   2.0000      -0.426881       -11.6160
  60   2.0000      -0.418421       -11.3858
  61   2.0000      -0.410296       -11.1647
  62   2.0000      -0.407618       -11.0918
  63   2.0000      -0.340763        -9.2726
  64   2.0000      -0.326822        -8.8933
  65   2.0000      -0.317704        -8.6452
  66   2.0000      -0.298315        -8.1176
  67   0.0000       0.035043         0.9536
  68   0.0000       0.058717         1.5978
  69   0.0000       0.101205         2.7539
  70   0.0000       0.113701         3.0940
  71   0.0000       0.133154         3.6233

MULLIKEN ATOMIC CHARGES
-----------------------
   0 S :    0.098486
   1 C :   -0.137836
   2 C :   -0.090811
   3 C :    0.045262
   4 C :   -0.170833
   5 H :    0.013905
   6 C :    0.069531
   7 H :    0.035038
   8 H :    0.021615
   9 C :   -0.101635
  10 H :    0.025955
  11 H :    0.035345
  12 C :   -0.005062
  13 H :    0.027328
  14 H :    0.026884
  15 H :    0.032732
  16 S :    0.106922
  17 C :   -0.083788
  18 C :   -0.003018
  19 C :   -0.075075
  20 C :   -0.153078
  21 H :    0.007998
  22 C :    0.015061
  23 H :    0.024939
  24 H :    0.041063
  25 C :   -0.010524
  26 H :    0.020126
  27 H :    0.017420
  28 C :   -0.053633
  29 H :    0.019609
  30 H :    0.035999
  31 H :    0.056656
  32 H :    0.062006
  33 H :    0.045413
Sum of atomic charges:    0.0000000

LOEWDIN ATOMIC CHARGES
----------------------
   0 S :    0.379411
   1 C :   -0.193051
   2 C :   -0.059658
   3 C :   -0.060832
   4 C :   -0.201569
   5 H :    0.029742
   6 C :   -0.030737
   7 H :    0.037041
   8 H :    0.029452
   9 C :   -0.043184
  10 H :    0.027748
  11 H :    0.028397
  12 C :   -0.064216
  13 H :    0.024096
  14 H :    0.027179
  15 H :    0.027800
  16 S :    0.419743
  17 C :   -0.168168
  18 C :   -0.056680
  19 C :   -0.048527
  20 C :   -0.229335
  21 H :    0.024882
  22 C :   -0.046964
  23 H :    0.028543
  24 H :    0.036860
  25 C :   -0.039470
  26 H :    0.024472
  27 H :    0.022490
  28 C :   -0.064670
  29 H :    0.022912
  30 H :    0.027872
  31 H :    0.034971
  32 H :    0.035872
  33 H :    0.017579

  Mayer bond orders larger than 0.100000
B(  0-S ,  1-C ) :   1.1025 B(  0-S ,  4-C ) :   1.1506 B(  1-C ,  2-C ) :   1.6625
B(  1-C , 32-H ) :   0.9584 B(  2-C ,  3-C ) :   1.2054 B(  2-C ,  6-C ) :   1.0100
B(  3-C ,  4-C ) :   1.5863 B(  3-C ,  5-H ) :   0.9935 B(  4-C , 20-C ) :   1.0176
B(  6-C ,  7-H ) :   0.9293 B(  6-C ,  8-H ) :   0.9437 B(  6-C ,  9-C ) :   1.0800
B(  9-C , 10-H ) :   0.9542 B(  9-C , 11-H ) :   0.9485 B(  9-C , 12-C ) :   1.0677
B( 12-C , 13-H ) :   0.9743 B( 12-C , 14-H ) :   0.9708 B( 12-C , 15-H ) :   0.9739
B( 16-S , 17-C ) :   1.1581 B( 16-S , 20-C ) :   1.1552 B( 17-C , 18-C ) :   1.6066
B( 17-C , 33-H ) :   0.9703 B( 18-C , 19-C ) :   1.2284 B( 18-C , 21-H ) :   0.9990
B( 19-C , 20-C ) :   1.5813 B( 19-C , 22-C ) :   1.0346 B( 22-C , 23-H ) :   0.9312
B( 22-C , 24-H ) :   0.9329 B( 22-C , 25-C ) :   1.0705 B( 25-C , 26-H ) :   0.9531
B( 25-C , 27-H ) :   0.9488 B( 25-C , 28-C ) :   1.0734 B( 28-C , 29-H ) :   0.9717
B( 28-C , 30-H ) :   0.9738 B( 28-C , 31-H ) :   0.9761

Dispersion correction           -0.015875258
FINAL SINGLE POINT ENERGY     -1339.863012236844

DIPOLE MOMENT
-------------
                                X             Y             Z
Electronic contribution:     -0.67403      16.13021      19.36347
Nuclear contribution   :      0.45429     -16.70558     -19.75159
                        -----------------------------------------
Total Dipole Moment    :     -0.21975      -0.57536      -0.38811
                        -----------------------------------------
Magnitude (a.u.)       :      0.72799
Magnitude (Debye)      :      1.85040

Rotational constants in cm-1:     0.017821     0.009628     0.008539
Rotational constants in MHz :   534.269319   288.629297   255.978819

                             ****ORCA TERMINATED NORMALLY****
TOTAL RUN TIME: 0 days 0 hours 0 minutes 22 seconds 794 msec
