                         Program Version 4.2.1 -  RELEASE  -
|  1> ! wB97X-D3 SP def2-SVP
|  2> %pal
|  3> nprocs 24
|  4> end
|  5>
|  6> * xyz 0 1
|  7> S 	 -54.4081 	 14.6512 	 -86.6766
|  8> C 	 -53.6931 	 13.2732 	 -87.388
|  9> C 	 -52.5742 	 13.6678 	 -88.1836
| 10> C 	 -52.537 	 15.0953 	 -88.3835
| 11> C 	 -53.502 	 15.8061 	 -87.6422
| 12> H 	 -51.8139 	 15.7212 	 -88.8995
| 13> C 	 -51.5503 	 12.7667 	 -88.7845
| 14> H 	 -51.2744 	 11.9365 	 -88.197
| 15> H 	 -50.669 	 13.3412 	 -88.9595
| 16> C 	 -51.9982 	 12.196 	 -90.1513
| 17> H 	 -53.0289 	 11.8295 	 -90.033
| 18> H 	 -51.919 	 13.0367 	 -90.9145
| 19> C 	 -51.0609 	 11.0007 	 -90.5652
| 20> H 	 -50.0972 	 11.5181 	 -90.8703
| 21> H 	 -50.8899 	 10.3761 	 -89.6841
| 22> H 	 -51.3675 	 10.4409 	 -91.4566
| 23> S 	 -53.4668 	 17.6353 	 -85.689
| 24> C 	 -53.5586 	 19.2993 	 -86.0982
| 25> C 	 -53.4007 	 19.5435 	 -87.4574
| 26> C 	 -53.4762 	 18.3386 	 -88.2216
| 27> C 	 -53.516 	 17.2072 	 -87.3518
| 28> H 	 -53.4607 	 20.6177 	 -87.7729
| 29> C 	 -53.6006 	 18.4175 	 -89.7436
| 30> H 	 -53.7008 	 17.4565 	 -90.1589
| 31> H 	 -52.5612 	 18.6906 	 -90.115
| 32> C 	 -54.6657 	 19.4065 	 -90.3598
| 33> H 	 -54.4064 	 20.4773 	 -90.1927
| 34> H 	 -55.7415 	 19.2296 	 -89.9152
| 35> C 	 -54.7097 	 19.4063 	 -91.8631
| 36> H 	 -53.7689 	 19.5051 	 -92.3165
| 37> H 	 -55.2096 	 20.3454 	 -92.1369
| 38> H 	 -55.185 	 18.5442 	 -92.3329
| 39> H 	 -53.8796 	 12.2453 	 -87.0341
| 40> H 	 -53.5619 	 20.0481 	 -85.3922
| 41> *
| 42>
| 43>                          ****END OF INPUT****

CARTESIAN COORDINATES (ANGSTROEM)
---------------------------------
  S    -54.408100   14.651200  -86.676600
  C    -53.693100   13.273200  -87.388000
  C    -52.574200   13.667800  -88.183600
  C    -52.537000   15.095300  -88.383500
  C    -53.502000   15.806100  -87.642200
  H    -51.813900   15.721200  -88.899500
  C    -51.550300   12.766700  -88.784500
  H    -51.274400   11.936500  -88.197000
  H    -50.669000   13.341200  -88.959500
  C    -51.998200   12.196000  -90.151300
  H    -53.028900   11.829500  -90.033000
  H    -51.919000   13.036700  -90.914500
  C    -51.060900   11.000700  -90.565200
  H    -50.097200   11.518100  -90.870300
  H    -50.889900   10.376100  -89.684100
  H    -51.367500   10.440900  -91.456600
  S    -53.466800   17.635300  -85.689000
  C    -53.558600   19.299300  -86.098200
  C    -53.400700   19.543500  -87.457400
  C    -53.476200   18.338600  -88.221600
  C    -53.516000   17.207200  -87.351800
  H    -53.460700   20.617700  -87.772900
  C    -53.600600   18.417500  -89.743600
  H    -53.700800   17.456500  -90.158900
  H    -52.561200   18.690600  -90.115000
  C    -54.665700   19.406500  -90.359800
  H    -54.406400   20.477300  -90.192700
  H    -55.741500   19.229600  -89.915200
  C    -54.709700   19.406300  -91.863100
  H    -53.768900   19.505100  -92.316500
  H    -55.209600   20.345400  -92.136900
  H    -55.185000   18.544200  -92.332900
  H    -53.879600   12.245300  -87.034100
  H    -53.561900   20.048100  -85.392200

 Total Charge           Charge          ....    0
 Multiplicity           Mult            ....    1
 Number of Electrons    NEL             ....  134
 Basis Dimension        Dim             ....  322

ORBITAL ENERGIES
----------------

  NO   OCC          E(Eh)            E(eV)
   0   2.0000     -88.967625     -2420.9321
   1   2.0000     -88.965632     -2420.8779
   2   2.0000     -10.327361      -281.0218
   3   2.0000     -10.325513      -280.9715
   4   2.0000     -10.317984      -280.7666
   5   2.0000     -10.308757      -280.5155
   6   2.0000     -10.307357      -280.4774
   7   2.0000     -10.306763      -280.4613
   8   2.0000     -10.300150      -280.2813
   9   2.0000     -10.297648      -280.2133
  10   2.0000     -10.297510      -280.2095
  11   2.0000     -10.295745      -280.1615
  12   2.0000     -10.292682      -280.0781
  13   2.0000     -10.286012      -279.8966
  14   2.0000     -10.283885      -279.8387
  15   2.0000     -10.273251      -279.5494
  16   2.0000      -8.083418      -219.9610
  17   2.0000      -8.080787      -219.8894
  18   2.0000      -6.041708      -164.4032
  19   2.0000      -6.039216      -164.3354
  20   2.0000      -6.037806      -164.2970
  21   2.0000      -6.035049      -164.2220
  22   2.0000      -6.034311      -164.2019
  23   2.0000      -6.031796      -164.1335
  24   2.0000      -1.009478       -27.4693
  25   2.0000      -0.983857       -26.7721
  26   2.0000      -0.912178       -24.8216
  27   2.0000      -0.904816       -24.6213
  28   2.0000      -0.869967       -23.6730
  29   2.0000      -0.857442       -23.3322
  30   2.0000      -0.844108       -22.9693
  31   2.0000      -0.811018       -22.0689
  32   2.0000      -0.781516       -21.2661
  33   2.0000      -0.766694       -20.8628
  34   2.0000      -0.700917       -19.0729
  35   2.0000      -0.696094       -18.9417
  36   2.0000      -0.693056       -18.8590
  37   2.0000      -0.657874       -17.9017
  38   2.0000      -0.642316       -17.4783
  39   2.0000      -0.618167       -16.8212
  40   2.0000      -0.598640       -16.2898
  41   2.0000      -0.571012       -15.5380
  42   2.0000      -0.560083       -15.2406
  43   2.0000      -0.559616       -15.2279
  44   2.0000      -0.529569       -14.4103
  45   2.0000      -0.519762       -14.1434
  46   2.0000      -0.515616       -14.0306
  47   2.0000      -0.507450       -13.8084
  48   2.0000      -0.505947       -13.7675
  49   2.0000      -0.500305       -13.6140
  50   2.0000      -0.487919       -13.2769
  51   2.0000      -0.482230       -13.1221
  52   2.0000      -0.472251       -12.8506
  53   2.0000      -0.463810       -12.6209
  54   2.0000      -0.460672       -12.5355
  55   2.0000      -0.450321       -12.2539
  56   2.0000      -0.437279       -11.8990
  57   2.0000      -0.432534       -11.7699
  58   2.0000      -0.431235       -11.7345
  59   2.0000      -0.429602       -11.6901
  60   2.0000      -0.424519       -11.5517
  61   2.0000      -0.417100       -11.3499
  62   2.0000      -0.414636       -11.2828
  63   2.0000      -0.350276        -9.5315
  64   2.0000      -0.331254        -9.0139
  65   2.0000      -0.324043        -8.8176
  66   2.0000      -0.282683        -7.6922
  67   0.0000       0.025585         0.6962
  68   0.0000       0.070763         1.9256
  69   0.0000       0.110533         3.0077
  70   0.0000       0.124034         3.3751
  71   0.0000       0.129980         3.5369

MULLIKEN ATOMIC CHARGES
-----------------------
   0 S :    0.107934
   1 C :   -0.109883
   2 C :   -0.108959
   3 C :    0.037856
   4 C :   -0.165320
   5 H :    0.015766
   6 C :    0.095037
   7 H :    0.007253
   8 H :    0.013867
   9 C :   -0.110290
  10 H :    0.037253
  11 H :    0.041307
  12 C :   -0.065802
  13 H :    0.032587
  14 H :    0.037966
  15 H :    0.047267
  16 S :    0.127942
  17 C :   -0.072248
  18 C :   -0.054927
  19 C :   -0.035590
  20 C :   -0.162907
  21 H :    0.041888
  22 C :    0.089707
  23 H :    0.005628
  24 H :    0.032865
  25 C :   -0.114376
  26 H :    0.031137
  27 H :    0.059016
  28 C :   -0.028875
  29 H :    0.010764
  30 H :    0.030319
  31 H :    0.038068
  32 H :    0.065194
  33 H :    0.022553
Sum of atomic charges:    0.0000000

LOEWDIN ATOMIC CHARGES
----------------------
   0 S :    0.425597
   1 C :   -0.220646
   2 C :   -0.057084
   3 C :   -0.061350
   4 C :   -0.202586
   5 H :    0.031953
   6 C :   -0.031567
   7 H :    0.021384
   8 H :    0.028360
   9 C :   -0.037704
  10 H :    0.021095
  11 H :    0.028918
  12 C :   -0.073703
  13 H :    0.031110
  14 H :    0.023142
  15 H :    0.027199
  16 S :    0.440266
  17 C :   -0.187061
  18 C :   -0.071729
  19 C :   -0.055962
  20 C :   -0.216074
  21 H :    0.041782
  22 C :   -0.035951
  23 H :    0.020338
  24 H :    0.040167
  25 C :   -0.047166
  26 H :    0.026446
  27 H :    0.039952
  28 C :   -0.066205
  29 H :    0.017157
  30 H :    0.032105
  31 H :    0.024214
  32 H :    0.035061
  33 H :    0.008541

  Mayer bond orders larger than 0.100000
B(  0-S ,  1-C ) :   1.1659 B(  0-S ,  4-C ) :   1.1647 B(  1-C ,  2-C ) :   1.5410
B(  1-C ,  4-C ) :   0.1041 B(  1-C , 32-H ) :   0.9682 B(  2-C ,  3-C ) :   1.2778
B(  2-C ,  6-C ) :   1.0486 B(  3-C ,  4-C ) :   1.5236 B(  3-C ,  5-H ) :   0.9891
B(  4-C , 20-C ) :   1.0737 B(  6-C ,  7-H ) :   0.9404 B(  6-C ,  8-H ) :   0.9350
B(  6-C ,  9-C ) :   1.0519 B(  9-C , 10-H ) :   0.9628 B(  9-C , 11-H ) :   0.9596
B(  9-C , 12-C ) :   1.0655 B( 12-C , 13-H ) :   0.9760 B( 12-C , 14-H ) :   0.9762
B( 12-C , 15-H ) :   0.9763 B( 16-S , 17-C ) :   1.1658 B( 16-S , 20-C ) :   1.1671
B( 17-C , 18-C ) :   1.6060 B( 17-C , 33-H ) :   0.9751 B( 18-C , 19-C ) :   1.2498
B( 18-C , 21-H ) :   0.9800 B( 19-C , 20-C ) :   1.5492 B( 19-C , 22-C ) :   1.0525
B( 22-C , 23-H ) :   0.9343 B( 22-C , 24-H ) :   0.9275 B( 22-C , 25-C ) :   1.0527
B( 25-C , 26-H ) :   0.9538 B( 25-C , 27-H ) :   0.9561 B( 25-C , 28-C ) :   1.0857
B( 28-C , 29-H ) :   0.9687 B( 28-C , 30-H ) :   0.9756 B( 28-C , 31-H ) :   0.9741

Dispersion correction           -0.013189285
FINAL SINGLE POINT ENERGY     -1339.866195914933

DIPOLE MOMENT
-------------
                                X             Y             Z
Electronic contribution:     -6.49040       4.18262      27.47341
Nuclear contribution   :      6.85657      -4.07354     -27.89366
                        -----------------------------------------
Total Dipole Moment    :      0.36617       0.10908      -0.42025
                        -----------------------------------------
Magnitude (a.u.)       :      0.56797
Magnitude (Debye)      :      1.44367

Rotational constants in cm-1:     0.017702     0.007757     0.005937
Rotational constants in MHz :   530.688685   232.537384   177.985018

                             ****ORCA TERMINATED NORMALLY****
TOTAL RUN TIME: 0 days 0 hours 0 minutes 21 seconds 762 msec
