                         Program Version 4.2.1 -  RELEASE  -
|  1> ! wB97X-D3 SP def2-SVP
|  2> %pal
|  3> nprocs 24
|  4> end
|  5>
|  6> * xyz 0 1
|  7> S 	 -49.2798 	 1.2577 	 -17.4662
|  8> C 	 -49.1265 	 -0.350401 	 -18.1647
|  9> C 	 -48.8298 	 -1.23699 	 -17.1085
| 10> C 	 -48.8611 	 -0.643521 	 -15.7927
| 11> C 	 -49.1762 	 0.697898 	 -15.7785
| 12> H 	 -48.7763 	 -1.04817 	 -14.8198
| 13> C 	 -48.6495 	 -2.72035 	 -17.1912
| 14> H 	 -47.725 	 -3.09672 	 -16.8025
| 15> H 	 -48.6205 	 -2.94567 	 -18.2454
| 16> C 	 -49.7965 	 -3.56032 	 -16.5694
| 17> H 	 -49.9384 	 -3.27072 	 -15.5142
| 18> H 	 -50.6351 	 -3.35623 	 -17.1717
| 19> C 	 -49.5948 	 -5.04785 	 -16.8833
| 20> H 	 -49.6201 	 -5.24888 	 -17.9361
| 21> H 	 -48.5566 	 -5.22442 	 -16.5955
| 22> H 	 -50.2964 	 -5.58943 	 -16.2925
| 23> S 	 -48.0931 	 2.99929 	 -14.5928
| 24> C 	 -48.2287 	 3.24531 	 -12.8777
| 25> C 	 -49.2157 	 2.4046 	 -12.3221
| 26> C 	 -49.6706 	 1.43632 	 -13.2961
| 27> C 	 -49.1705 	 1.5629 	 -14.617
| 28> H 	 -49.4505 	 2.61284 	 -11.3118
| 29> C 	 -50.6629 	 0.327102 	 -12.7785
| 30> H 	 -50.261 	 -0.0433619 	 -11.8427
| 31> H 	 -50.6495 	 -0.66431 	 -13.37
| 32> C 	 -52.127 	 0.689466 	 -12.7691
| 33> H 	 -52.6297 	 0.688588 	 -13.7018
| 34> H 	 -52.1582 	 1.67945 	 -12.3018
| 35> C 	 -52.8703 	 -0.357113 	 -11.9674
| 36> H 	 -52.9061 	 -1.33744 	 -12.3965
| 37> H 	 -53.8953 	 0.0413399 	 -11.9871
| 38> H 	 -52.5619 	 -0.374054 	 -10.9266
| 39> H 	 -49.2085 	 -0.560636 	 -19.2019
| 40> H 	 -47.6655 	 4.00813 	 -12.3276
| 41> *
| 42>
| 43>                          ****END OF INPUT****

CARTESIAN COORDINATES (ANGSTROEM)
---------------------------------
  S    -49.279800    1.257700  -17.466200
  C    -49.126500   -0.350401  -18.164700
  C    -48.829800   -1.236990  -17.108500
  C    -48.861100   -0.643521  -15.792700
  C    -49.176200    0.697898  -15.778500
  H    -48.776300   -1.048170  -14.819800
  C    -48.649500   -2.720350  -17.191200
  H    -47.725000   -3.096720  -16.802500
  H    -48.620500   -2.945670  -18.245400
  C    -49.796500   -3.560320  -16.569400
  H    -49.938400   -3.270720  -15.514200
  H    -50.635100   -3.356230  -17.171700
  C    -49.594800   -5.047850  -16.883300
  H    -49.620100   -5.248880  -17.936100
  H    -48.556600   -5.224420  -16.595500
  H    -50.296400   -5.589430  -16.292500
  S    -48.093100    2.999290  -14.592800
  C    -48.228700    3.245310  -12.877700
  C    -49.215700    2.404600  -12.322100
  C    -49.670600    1.436320  -13.296100
  C    -49.170500    1.562900  -14.617000
  H    -49.450500    2.612840  -11.311800
  C    -50.662900    0.327102  -12.778500
  H    -50.261000   -0.043362  -11.842700
  H    -50.649500   -0.664310  -13.370000
  C    -52.127000    0.689466  -12.769100
  H    -52.629700    0.688588  -13.701800
  H    -52.158200    1.679450  -12.301800
  C    -52.870300   -0.357113  -11.967400
  H    -52.906100   -1.337440  -12.396500
  H    -53.895300    0.041340  -11.987100
  H    -52.561900   -0.374054  -10.926600
  H    -49.208500   -0.560636  -19.201900
  H    -47.665500    4.008130  -12.327600

 Total Charge           Charge          ....    0
 Multiplicity           Mult            ....    1
 Number of Electrons    NEL             ....  134
 Basis Dimension        Dim             ....  322

ORBITAL ENERGIES
----------------

  NO   OCC          E(Eh)            E(eV)
   0   2.0000     -88.965333     -2420.8698
   1   2.0000     -88.964176     -2420.8383
   2   2.0000     -10.336569      -281.2724
   3   2.0000     -10.333373      -281.1854
   4   2.0000     -10.325044      -280.9587
   5   2.0000     -10.321346      -280.8581
   6   2.0000     -10.317366      -280.7498
   7   2.0000     -10.307044      -280.4689
   8   2.0000     -10.300206      -280.2829
   9   2.0000     -10.295928      -280.1664
  10   2.0000     -10.291327      -280.0413
  11   2.0000     -10.284828      -279.8644
  12   2.0000     -10.281796      -279.7819
  13   2.0000     -10.279616      -279.7226
  14   2.0000     -10.274797      -279.5915
  15   2.0000     -10.273699      -279.5616
  16   2.0000      -8.079676      -219.8592
  17   2.0000      -8.078292      -219.8215
  18   2.0000      -6.038217      -164.3082
  19   2.0000      -6.036997      -164.2750
  20   2.0000      -6.034068      -164.1953
  21   2.0000      -6.032799      -164.1608
  22   2.0000      -6.030565      -164.1000
  23   2.0000      -6.028954      -164.0562
  24   2.0000      -0.999744       -27.2044
  25   2.0000      -0.978006       -26.6129
  26   2.0000      -0.914267       -24.8785
  27   2.0000      -0.911933       -24.8150
  28   2.0000      -0.873061       -23.7572
  29   2.0000      -0.850293       -23.1376
  30   2.0000      -0.844476       -22.9794
  31   2.0000      -0.815788       -22.1987
  32   2.0000      -0.778018       -21.1710
  33   2.0000      -0.767811       -20.8932
  34   2.0000      -0.708653       -19.2834
  35   2.0000      -0.697868       -18.9900
  36   2.0000      -0.693172       -18.8622
  37   2.0000      -0.661574       -18.0024
  38   2.0000      -0.649364       -17.6701
  39   2.0000      -0.619953       -16.8698
  40   2.0000      -0.594768       -16.1845
  41   2.0000      -0.577414       -15.7122
  42   2.0000      -0.572022       -15.5655
  43   2.0000      -0.566386       -15.4121
  44   2.0000      -0.534216       -14.5368
  45   2.0000      -0.530142       -14.4259
  46   2.0000      -0.520795       -14.1716
  47   2.0000      -0.515905       -14.0385
  48   2.0000      -0.506773       -13.7900
  49   2.0000      -0.501540       -13.6476
  50   2.0000      -0.487429       -13.2636
  51   2.0000      -0.483067       -13.1449
  52   2.0000      -0.474989       -12.9251
  53   2.0000      -0.468102       -12.7377
  54   2.0000      -0.459465       -12.5027
  55   2.0000      -0.443942       -12.0803
  56   2.0000      -0.439985       -11.9726
  57   2.0000      -0.434857       -11.8330
  58   2.0000      -0.433872       -11.8063
  59   2.0000      -0.421317       -11.4646
  60   2.0000      -0.418437       -11.3863
  61   2.0000      -0.411015       -11.1843
  62   2.0000      -0.396725       -10.7954
  63   2.0000      -0.352839        -9.6012
  64   2.0000      -0.330561        -8.9950
  65   2.0000      -0.324607        -8.8330
  66   2.0000      -0.289892        -7.8884
  67   0.0000       0.025727         0.7001
  68   0.0000       0.060816         1.6549
  69   0.0000       0.113288         3.0827
  70   0.0000       0.117982         3.2105
  71   0.0000       0.125986         3.4283

MULLIKEN ATOMIC CHARGES
-----------------------
   0 S :    0.090213
   1 C :   -0.098504
   2 C :   -0.070034
   3 C :    0.042938
   4 C :   -0.146761
   5 H :    0.001636
   6 C :    0.060663
   7 H :    0.023230
   8 H :   -0.002368
   9 C :   -0.085118
  10 H :    0.041260
  11 H :    0.016816
  12 C :   -0.008134
  13 H :    0.028172
  14 H :    0.013421
  15 H :    0.037179
  16 S :    0.097441
  17 C :   -0.114455
  18 C :   -0.020721
  19 C :   -0.028929
  20 C :   -0.119682
  21 H :    0.015406
  22 C :    0.001994
  23 H :    0.023604
  24 H :    0.017171
  25 C :   -0.034759
  26 H :    0.034515
  27 H :    0.023824
  28 C :   -0.051107
  29 H :    0.034215
  30 H :    0.029506
  31 H :    0.028668
  32 H :    0.046183
  33 H :    0.072516
Sum of atomic charges:   -0.0000000

LOEWDIN ATOMIC CHARGES
----------------------
   0 S :    0.385241
   1 C :   -0.187190
   2 C :   -0.056914
   3 C :   -0.055424
   4 C :   -0.181432
   5 H :    0.026113
   6 C :   -0.034681
   7 H :    0.024563
   8 H :    0.023952
   9 C :   -0.034294
  10 H :    0.023925
  11 H :    0.019029
  12 C :   -0.053958
  13 H :    0.024030
  14 H :    0.021376
  15 H :    0.024798
  16 S :    0.397520
  17 C :   -0.183112
  18 C :   -0.075039
  19 C :   -0.049839
  20 C :   -0.191884
  21 H :    0.029383
  22 C :   -0.042136
  23 H :    0.025689
  24 H :    0.031617
  25 C :   -0.036548
  26 H :    0.025888
  27 H :    0.024223
  28 C :   -0.061232
  29 H :    0.022117
  30 H :    0.030505
  31 H :    0.022195
  32 H :    0.026621
  33 H :    0.034898

  Mayer bond orders larger than 0.100000
B(  0-S ,  1-C ) :   1.1305 B(  0-S ,  4-C ) :   1.1341 B(  1-C ,  2-C ) :   1.5898
B(  1-C , 32-H ) :   0.9796 B(  2-C ,  3-C ) :   1.2094 B(  2-C ,  6-C ) :   1.0464
B(  3-C ,  4-C ) :   1.5906 B(  3-C ,  5-H ) :   0.9960 B(  4-C , 20-C ) :   1.0603
B(  6-C ,  7-H ) :   0.9359 B(  6-C ,  8-H ) :   0.9382 B(  6-C ,  9-C ) :   1.0640
B(  9-C , 10-H ) :   0.9587 B(  9-C , 11-H ) :   0.9540 B(  9-C , 12-C ) :   1.0763
B( 12-C , 13-H ) :   0.9754 B( 12-C , 14-H ) :   0.9752 B( 12-C , 15-H ) :   0.9735
B( 16-S , 17-C ) :   1.1854 B( 16-S , 20-C ) :   1.1184 B( 17-C , 18-C ) :   1.5797
B( 17-C , 20-C ) :   0.1013 B( 17-C , 33-H ) :   0.9644 B( 18-C , 19-C ) :   1.2351
B( 18-C , 21-H ) :   1.0030 B( 19-C , 20-C ) :   1.5860 B( 19-C , 22-C ) :   1.0189
B( 22-C , 23-H ) :   0.9490 B( 22-C , 24-H ) :   0.9389 B( 22-C , 25-C ) :   1.0675
B( 25-C , 26-H ) :   0.9544 B( 25-C , 27-H ) :   0.9544 B( 25-C , 28-C ) :   1.0840
B( 28-C , 29-H ) :   0.9743 B( 28-C , 30-H ) :   0.9730 B( 28-C , 31-H ) :   0.9752

Dispersion correction           -0.013408412
FINAL SINGLE POINT ENERGY     -1339.853173274246

DIPOLE MOMENT
-------------
                                X             Y             Z
Electronic contribution:     13.62168      26.54355      -8.87687
Nuclear contribution   :    -13.81612     -27.08249       9.28986
                        -----------------------------------------
Total Dipole Moment    :     -0.19444      -0.53893       0.41299
                        -----------------------------------------
Magnitude (a.u.)       :      0.70627
Magnitude (Debye)      :      1.79520

Rotational constants in cm-1:     0.016175     0.008857     0.006474
Rotational constants in MHz :   484.904239   265.511880   194.087116

                             ****ORCA TERMINATED NORMALLY****
TOTAL RUN TIME: 0 days 0 hours 0 minutes 21 seconds 107 msec
