                         Program Version 4.2.1 -  RELEASE  -
|  1> ! wB97X-D3 SP def2-SVP
|  2> %pal
|  3> nprocs 24
|  4> end
|  5>
|  6> * xyz 0 1
|  7> S 	 -128.333 	 62.1164 	 -58.0164
|  8> C 	 -128.449 	 62.7843 	 -59.5607
|  9> C 	 -129.679 	 62.5743 	 -60.1623
| 10> C 	 -130.614 	 61.9167 	 -59.2953
| 11> C 	 -130.086 	 61.6435 	 -58.0618
| 12> H 	 -131.594 	 61.5579 	 -59.4893
| 13> C 	 -130.104 	 62.864 	 -61.6178
| 14> H 	 -130.381 	 63.9445 	 -61.7371
| 15> H 	 -130.993 	 62.2629 	 -61.7138
| 16> C 	 -129.236 	 62.3629 	 -62.7811
| 17> H 	 -128.16 	 62.8213 	 -62.6289
| 18> H 	 -129.084 	 61.3425 	 -62.5687
| 19> C 	 -129.961 	 62.6713 	 -64.1248
| 20> H 	 -129.805 	 63.6861 	 -64.3152
| 21> H 	 -129.48 	 62.1176 	 -64.9808
| 22> H 	 -131.054 	 62.6557 	 -64.2017
| 23> S 	 -129.838 	 59.6216 	 -56.2279
| 24> C 	 -131.224 	 59.2708 	 -55.2004
| 25> C 	 -132.29 	 59.9931 	 -55.5768
| 26> C 	 -132.082 	 61.0376 	 -56.5345
| 27> C 	 -130.753 	 60.9232 	 -57.0046
| 28> H 	 -133.308 	 59.9151 	 -55.0902
| 29> C 	 -133.266 	 61.9521 	 -56.938
| 30> H 	 -132.841 	 62.9473 	 -57.2203
| 31> H 	 -133.806 	 62.1278 	 -56.0565
| 32> C 	 -134.268 	 61.4281 	 -58.0616
| 33> H 	 -134.859 	 60.6922 	 -57.4242
| 34> H 	 -133.742 	 60.9911 	 -58.9804
| 35> C 	 -135.051 	 62.6227 	 -58.5176
| 36> H 	 -134.407 	 63.3276 	 -59.1285
| 37> H 	 -135.561 	 63.1463 	 -57.6623
| 38> H 	 -135.914 	 62.1952 	 -59.06
| 39> H 	 -127.616 	 63.2948 	 -60.0898
| 40> H 	 -131.217 	 58.5204 	 -54.3929
| 41> *
| 42>
| 43>                          ****END OF INPUT****

CARTESIAN COORDINATES (ANGSTROEM)
---------------------------------
  S    -128.333000   62.116400  -58.016400
  C    -128.449000   62.784300  -59.560700
  C    -129.679000   62.574300  -60.162300
  C    -130.614000   61.916700  -59.295300
  C    -130.086000   61.643500  -58.061800
  H    -131.594000   61.557900  -59.489300
  C    -130.104000   62.864000  -61.617800
  H    -130.381000   63.944500  -61.737100
  H    -130.993000   62.262900  -61.713800
  C    -129.236000   62.362900  -62.781100
  H    -128.160000   62.821300  -62.628900
  H    -129.084000   61.342500  -62.568700
  C    -129.961000   62.671300  -64.124800
  H    -129.805000   63.686100  -64.315200
  H    -129.480000   62.117600  -64.980800
  H    -131.054000   62.655700  -64.201700
  S    -129.838000   59.621600  -56.227900
  C    -131.224000   59.270800  -55.200400
  C    -132.290000   59.993100  -55.576800
  C    -132.082000   61.037600  -56.534500
  C    -130.753000   60.923200  -57.004600
  H    -133.308000   59.915100  -55.090200
  C    -133.266000   61.952100  -56.938000
  H    -132.841000   62.947300  -57.220300
  H    -133.806000   62.127800  -56.056500
  C    -134.268000   61.428100  -58.061600
  H    -134.859000   60.692200  -57.424200
  H    -133.742000   60.991100  -58.980400
  C    -135.051000   62.622700  -58.517600
  H    -134.407000   63.327600  -59.128500
  H    -135.561000   63.146300  -57.662300
  H    -135.914000   62.195200  -59.060000
  H    -127.616000   63.294800  -60.089800
  H    -131.217000   58.520400  -54.392900

 Total Charge           Charge          ....    0
 Multiplicity           Mult            ....    1
 Number of Electrons    NEL             ....  134
 Basis Dimension        Dim             ....  322

ORBITAL ENERGIES
----------------

  NO   OCC          E(Eh)            E(eV)
   0   2.0000     -88.966314     -2420.8965
   1   2.0000     -88.965050     -2420.8621
   2   2.0000     -10.329461      -281.0789
   3   2.0000     -10.327209      -281.0176
   4   2.0000     -10.314570      -280.6737
   5   2.0000     -10.313201      -280.6365
   6   2.0000     -10.305456      -280.4257
   7   2.0000     -10.304747      -280.4064
   8   2.0000     -10.300731      -280.2972
   9   2.0000     -10.297679      -280.2141
  10   2.0000     -10.294967      -280.1403
  11   2.0000     -10.292097      -280.0622
  12   2.0000     -10.291936      -280.0578
  13   2.0000     -10.291299      -280.0405
  14   2.0000     -10.290016      -280.0056
  15   2.0000     -10.282885      -279.8115
  16   2.0000      -8.081225      -219.9013
  17   2.0000      -8.079442      -219.8528
  18   2.0000      -6.039703      -164.3487
  19   2.0000      -6.038001      -164.3024
  20   2.0000      -6.035791      -164.2422
  21   2.0000      -6.034138      -164.1972
  22   2.0000      -6.031925      -164.1370
  23   2.0000      -6.030031      -164.0855
  24   2.0000      -1.004066       -27.3220
  25   2.0000      -0.982369       -26.7316
  26   2.0000      -0.908195       -24.7132
  27   2.0000      -0.906408       -24.6646
  28   2.0000      -0.872284       -23.7360
  29   2.0000      -0.854415       -23.2498
  30   2.0000      -0.847692       -23.0669
  31   2.0000      -0.810200       -22.0467
  32   2.0000      -0.778962       -21.1966
  33   2.0000      -0.767106       -20.8740
  34   2.0000      -0.706746       -19.2315
  35   2.0000      -0.697943       -18.9920
  36   2.0000      -0.687900       -18.7187
  37   2.0000      -0.661385       -17.9972
  38   2.0000      -0.638928       -17.3861
  39   2.0000      -0.611758       -16.6468
  40   2.0000      -0.594100       -16.1663
  41   2.0000      -0.573771       -15.6131
  42   2.0000      -0.562586       -15.3087
  43   2.0000      -0.552453       -15.0330
  44   2.0000      -0.523955       -14.2576
  45   2.0000      -0.519213       -14.1285
  46   2.0000      -0.512851       -13.9554
  47   2.0000      -0.507370       -13.8062
  48   2.0000      -0.503385       -13.6978
  49   2.0000      -0.499441       -13.5905
  50   2.0000      -0.492010       -13.3883
  51   2.0000      -0.485852       -13.2207
  52   2.0000      -0.473028       -12.8718
  53   2.0000      -0.467785       -12.7291
  54   2.0000      -0.458891       -12.4871
  55   2.0000      -0.446062       -12.1380
  56   2.0000      -0.442394       -12.0382
  57   2.0000      -0.434951       -11.8356
  58   2.0000      -0.431491       -11.7415
  59   2.0000      -0.426667       -11.6102
  60   2.0000      -0.419406       -11.4126
  61   2.0000      -0.416597       -11.3362
  62   2.0000      -0.410414       -11.1679
  63   2.0000      -0.356319        -9.6959
  64   2.0000      -0.332117        -9.0374
  65   2.0000      -0.327632        -8.9153
  66   2.0000      -0.284716        -7.7475
  67   0.0000       0.025980         0.7069
  68   0.0000       0.075904         2.0654
  69   0.0000       0.104875         2.8538
  70   0.0000       0.121133         3.2962
  71   0.0000       0.132034         3.5928

MULLIKEN ATOMIC CHARGES
-----------------------
   0 S :    0.115364
   1 C :   -0.131878
   2 C :   -0.075053
   3 C :    0.038099
   4 C :   -0.141225
   5 H :   -0.022078
   6 C :    0.031585
   7 H :    0.046755
   8 H :    0.013928
   9 C :   -0.078517
  10 H :    0.040302
  11 H :    0.025756
  12 C :   -0.037921
  13 H :    0.013699
  14 H :    0.048444
  15 H :    0.035169
  16 S :    0.098770
  17 C :   -0.090961
  18 C :   -0.044534
  19 C :   -0.030148
  20 C :   -0.171679
  21 H :    0.028887
  22 C :    0.043210
  23 H :    0.032973
  24 H :    0.014160
  25 C :   -0.105748
  26 H :    0.044661
  27 H :    0.063242
  28 C :   -0.063730
  29 H :    0.058012
  30 H :    0.035557
  31 H :    0.038667
  32 H :    0.062319
  33 H :    0.063910
Sum of atomic charges:    0.0000000

LOEWDIN ATOMIC CHARGES
----------------------
   0 S :    0.402672
   1 C :   -0.219826
   2 C :   -0.069925
   3 C :   -0.053612
   4 C :   -0.176377
   5 H :    0.025793
   6 C :   -0.037824
   7 H :    0.032938
   8 H :    0.025954
   9 C :   -0.041320
  10 H :    0.032011
  11 H :    0.016163
  12 C :   -0.070727
  13 H :    0.020803
  14 H :    0.035991
  15 H :    0.030893
  16 S :    0.387544
  17 C :   -0.188481
  18 C :   -0.079766
  19 C :   -0.058536
  20 C :   -0.186339
  21 H :    0.036414
  22 C :   -0.031882
  23 H :    0.032533
  24 H :    0.022315
  25 C :   -0.045666
  26 H :    0.033561
  27 H :    0.032688
  28 C :   -0.076507
  29 H :    0.036005
  30 H :    0.029949
  31 H :    0.029356
  32 H :    0.037416
  33 H :    0.035786

  Mayer bond orders larger than 0.100000
B(  0-S ,  1-C ) :   1.1512 B(  0-S ,  4-C ) :   1.1272 B(  1-C ,  2-C ) :   1.6092
B(  1-C , 32-H ) :   0.9624 B(  2-C ,  3-C ) :   1.2393 B(  2-C ,  6-C ) :   1.0029
B(  3-C ,  4-C ) :   1.5874 B(  3-C ,  5-H ) :   0.9950 B(  4-C , 20-C ) :   1.0743
B(  6-C ,  7-H ) :   0.9400 B(  6-C ,  8-H ) :   0.9488 B(  6-C ,  9-C ) :   1.0589
B(  9-C , 10-H ) :   0.9561 B(  9-C , 11-H ) :   0.9618 B(  9-C , 12-C ) :   1.0555
B( 12-C , 13-H ) :   0.9722 B( 12-C , 14-H ) :   0.9749 B( 12-C , 15-H ) :   0.9758
B( 16-S , 17-C ) :   1.1202 B( 16-S , 20-C ) :   1.1441 B( 17-C , 18-C ) :   1.6377
B( 17-C , 33-H ) :   0.9657 B( 18-C , 19-C ) :   1.2388 B( 18-C , 21-H ) :   0.9715
B( 19-C , 20-C ) :   1.5828 B( 19-C , 22-C ) :   1.0377 B( 22-C , 23-H ) :   0.9408
B( 22-C , 24-H ) :   0.9322 B( 22-C , 25-C ) :   1.0389 B( 25-C , 26-H ) :   0.9518
B( 25-C , 27-H ) :   0.9527 B( 25-C , 28-C ) :   1.0834 B( 28-C , 29-H ) :   0.9717
B( 28-C , 30-H ) :   0.9685 B( 28-C , 31-H ) :   0.9706

Dispersion correction           -0.013816564
FINAL SINGLE POINT ENERGY     -1339.861194652990

DIPOLE MOMENT
-------------
                                X             Y             Z
Electronic contribution:     18.99671      -9.33785      22.71615
Nuclear contribution   :    -19.66031       9.47789     -23.10002
                        -----------------------------------------
Total Dipole Moment    :     -0.66360       0.14004      -0.38387
                        -----------------------------------------
Magnitude (a.u.)       :      0.77932
Magnitude (Debye)      :      1.98087

Rotational constants in cm-1:     0.017187     0.008572     0.006260
Rotational constants in MHz :   515.241195   256.995253   187.657662

                             ****ORCA TERMINATED NORMALLY****
TOTAL RUN TIME: 0 days 0 hours 0 minutes 20 seconds 81 msec
