                         Program Version 4.2.1 -  RELEASE  -
|  1> ! wB97X-D3 SP def2-SVP
|  2> %pal
|  3> nprocs 24
|  4> end
|  5>
|  6> * xyz 0 1
|  7> S 	 -70.7546 	 2.84987 	 -69.6704
|  8> C 	 -70.6336 	 4.46221 	 -68.9191
|  9> C 	 -71.5855 	 4.67824 	 -67.8949
| 10> C 	 -72.5838 	 3.70017 	 -67.9113
| 11> C 	 -72.259 	 2.59892 	 -68.7857
| 12> H 	 -73.4337 	 3.64118 	 -67.2707
| 13> C 	 -71.6178 	 6.06621 	 -67.1444
| 14> H 	 -70.7686 	 6.70915 	 -67.4591
| 15> H 	 -71.2775 	 5.80461 	 -66.1637
| 16> C 	 -72.968 	 6.88676 	 -67.2615
| 17> H 	 -73.2342 	 7.21525 	 -68.2764
| 18> H 	 -73.8428 	 6.2534 	 -66.9684
| 19> C 	 -72.9951 	 8.02877 	 -66.202
| 20> H 	 -72.768 	 7.80549 	 -65.1709
| 21> H 	 -72.2537 	 8.84506 	 -66.4005
| 22> H 	 -74.0199 	 8.49123 	 -66.235
| 23> S 	 -72.3092 	 -0.0927325 	 -68.9692
| 24> C 	 -73.6073 	 -0.879114 	 -69.7747
| 25> C 	 -74.755 	 -0.124648 	 -69.5087
| 26> C 	 -74.4713 	 1.23103 	 -69.0912
| 27> C 	 -73.097 	 1.44737 	 -69.0003
| 28> H 	 -75.7177 	 -0.582662 	 -69.6066
| 29> C 	 -75.5952 	 2.32391 	 -68.9807
| 30> H 	 -75.0045 	 3.2441 	 -69.0693
| 31> H 	 -76.0328 	 2.31497 	 -67.9532
| 32> C 	 -76.7573 	 2.28653 	 -70.0047
| 33> H 	 -77.2618 	 1.33674 	 -69.9472
| 34> H 	 -76.3264 	 2.40163 	 -70.98
| 35> C 	 -77.846 	 3.35629 	 -69.8581
| 36> H 	 -78.1426 	 3.46369 	 -68.7794
| 37> H 	 -78.7115 	 3.1877 	 -70.5483
| 38> H 	 -77.5488 	 4.29842 	 -70.229
| 39> H 	 -69.8231 	 5.10811 	 -69.0138
| 40> H 	 -73.6316 	 -1.93325 	 -69.8861
| 41> *
| 42>
| 43>                          ****END OF INPUT****

CARTESIAN COORDINATES (ANGSTROEM)
---------------------------------
  S    -70.754600    2.849870  -69.670400
  C    -70.633600    4.462210  -68.919100
  C    -71.585500    4.678240  -67.894900
  C    -72.583800    3.700170  -67.911300
  C    -72.259000    2.598920  -68.785700
  H    -73.433700    3.641180  -67.270700
  C    -71.617800    6.066210  -67.144400
  H    -70.768600    6.709150  -67.459100
  H    -71.277500    5.804610  -66.163700
  C    -72.968000    6.886760  -67.261500
  H    -73.234200    7.215250  -68.276400
  H    -73.842800    6.253400  -66.968400
  C    -72.995100    8.028770  -66.202000
  H    -72.768000    7.805490  -65.170900
  H    -72.253700    8.845060  -66.400500
  H    -74.019900    8.491230  -66.235000
  S    -72.309200   -0.092732  -68.969200
  C    -73.607300   -0.879114  -69.774700
  C    -74.755000   -0.124648  -69.508700
  C    -74.471300    1.231030  -69.091200
  C    -73.097000    1.447370  -69.000300
  H    -75.717700   -0.582662  -69.606600
  C    -75.595200    2.323910  -68.980700
  H    -75.004500    3.244100  -69.069300
  H    -76.032800    2.314970  -67.953200
  C    -76.757300    2.286530  -70.004700
  H    -77.261800    1.336740  -69.947200
  H    -76.326400    2.401630  -70.980000
  C    -77.846000    3.356290  -69.858100
  H    -78.142600    3.463690  -68.779400
  H    -78.711500    3.187700  -70.548300
  H    -77.548800    4.298420  -70.229000
  H    -69.823100    5.108110  -69.013800
  H    -73.631600   -1.933250  -69.886100

 Total Charge           Charge          ....    0
 Multiplicity           Mult            ....    1
 Number of Electrons    NEL             ....  134
 Basis Dimension        Dim             ....  322

ORBITAL ENERGIES
----------------

  NO   OCC          E(Eh)            E(eV)
   0   2.0000     -88.975596     -2421.1491
   1   2.0000     -88.957523     -2420.6573
   2   2.0000     -10.335534      -281.2442
   3   2.0000     -10.324836      -280.9531
   4   2.0000     -10.314476      -280.6712
   5   2.0000     -10.309435      -280.5340
   6   2.0000     -10.307871      -280.4914
   7   2.0000     -10.307441      -280.4797
   8   2.0000     -10.303920      -280.3839
   9   2.0000     -10.303246      -280.3656
  10   2.0000     -10.299908      -280.2747
  11   2.0000     -10.298681      -280.2414
  12   2.0000     -10.294764      -280.1348
  13   2.0000     -10.287617      -279.9403
  14   2.0000     -10.283793      -279.8362
  15   2.0000     -10.280893      -279.7573
  16   2.0000      -8.088876      -220.1095
  17   2.0000      -8.073715      -219.6969
  18   2.0000      -6.047271      -164.5546
  19   2.0000      -6.043596      -164.4546
  20   2.0000      -6.039816      -164.3518
  21   2.0000      -6.032166      -164.1436
  22   2.0000      -6.028280      -164.0378
  23   2.0000      -6.024160      -163.9257
  24   2.0000      -1.007034       -27.4028
  25   2.0000      -0.979849       -26.6630
  26   2.0000      -0.902200       -24.5501
  27   2.0000      -0.901000       -24.5174
  28   2.0000      -0.867608       -23.6088
  29   2.0000      -0.852247       -23.1908
  30   2.0000      -0.842525       -22.9263
  31   2.0000      -0.810318       -22.0499
  32   2.0000      -0.780018       -21.2254
  33   2.0000      -0.770221       -20.9588
  34   2.0000      -0.712360       -19.3843
  35   2.0000      -0.700634       -19.0652
  36   2.0000      -0.698402       -19.0045
  37   2.0000      -0.655883       -17.8475
  38   2.0000      -0.639954       -17.4140
  39   2.0000      -0.618411       -16.8278
  40   2.0000      -0.589832       -16.0502
  41   2.0000      -0.569104       -15.4861
  42   2.0000      -0.563455       -15.3324
  43   2.0000      -0.551352       -15.0030
  44   2.0000      -0.530465       -14.4347
  45   2.0000      -0.520864       -14.1734
  46   2.0000      -0.515885       -14.0379
  47   2.0000      -0.507752       -13.8166
  48   2.0000      -0.498446       -13.5634
  49   2.0000      -0.495218       -13.4756
  50   2.0000      -0.487509       -13.2658
  51   2.0000      -0.483903       -13.1677
  52   2.0000      -0.471168       -12.8211
  53   2.0000      -0.468185       -12.7400
  54   2.0000      -0.461425       -12.5560
  55   2.0000      -0.452878       -12.3234
  56   2.0000      -0.446965       -12.1625
  57   2.0000      -0.443515       -12.0687
  58   2.0000      -0.430546       -11.7158
  59   2.0000      -0.419997       -11.4287
  60   2.0000      -0.419614       -11.4183
  61   2.0000      -0.414810       -11.2875
  62   2.0000      -0.410812       -11.1788
  63   2.0000      -0.344798        -9.3824
  64   2.0000      -0.340208        -9.2575
  65   2.0000      -0.319582        -8.6963
  66   2.0000      -0.284015        -7.7284
  67   0.0000       0.014315         0.3895
  68   0.0000       0.066991         1.8229
  69   0.0000       0.101438         2.7603
  70   0.0000       0.118031         3.2118
  71   0.0000       0.130705         3.5567

MULLIKEN ATOMIC CHARGES
-----------------------
   0 S :    0.138331
   1 C :   -0.095606
   2 C :   -0.072706
   3 C :    0.016226
   4 C :   -0.158430
   5 H :    0.013079
   6 C :    0.063947
   7 H :    0.022058
   8 H :    0.028009
   9 C :   -0.072056
  10 H :    0.047926
  11 H :    0.037336
  12 C :   -0.085626
  13 H :    0.032912
  14 H :    0.032448
  15 H :    0.043034
  16 S :    0.091060
  17 C :   -0.068350
  18 C :   -0.063188
  19 C :   -0.021211
  20 C :   -0.171445
  21 H :    0.018256
  22 C :    0.044190
  23 H :    0.027430
  24 H :    0.037870
  25 C :   -0.058765
  26 H :    0.029245
  27 H :    0.029817
  28 C :   -0.052990
  29 H :    0.037060
  30 H :    0.037046
  31 H :    0.015395
  32 H :    0.026161
  33 H :    0.051535
Sum of atomic charges:   -0.0000000

LOEWDIN ATOMIC CHARGES
----------------------
   0 S :    0.411580
   1 C :   -0.182823
   2 C :   -0.057571
   3 C :   -0.055904
   4 C :   -0.194875
   5 H :    0.027561
   6 C :   -0.029639
   7 H :    0.032525
   8 H :    0.029324
   9 C :   -0.039630
  10 H :    0.031710
  11 H :    0.028247
  12 C :   -0.076366
  13 H :    0.022866
  14 H :    0.025682
  15 H :    0.032406
  16 S :    0.416339
  17 C :   -0.197453
  18 C :   -0.063527
  19 C :   -0.060135
  20 C :   -0.201789
  21 H :    0.025772
  22 C :   -0.035326
  23 H :    0.030210
  24 H :    0.032323
  25 C :   -0.041281
  26 H :    0.020411
  27 H :    0.025486
  28 C :   -0.068154
  29 H :    0.029037
  30 H :    0.034661
  31 H :    0.016038
  32 H :    0.011384
  33 H :    0.020911

  Mayer bond orders larger than 0.100000
B(  0-S ,  1-C ) :   1.1449 B(  0-S ,  4-C ) :   1.1635 B(  1-C ,  2-C ) :   1.5759
B(  1-C ,  4-C ) :   0.1174 B(  1-C , 32-H ) :   0.9683 B(  2-C ,  3-C ) :   1.2886
B(  2-C ,  6-C ) :   1.0091 B(  3-C ,  4-C ) :   1.5022 B(  3-C ,  5-H ) :   0.9938
B(  4-C , 20-C ) :   1.0842 B(  6-C ,  7-H ) :   0.9481 B(  6-C ,  8-H ) :   0.9397
B(  6-C ,  9-C ) :   1.0423 B(  9-C , 10-H ) :   0.9603 B(  9-C , 11-H ) :   0.9591
B(  9-C , 12-C ) :   1.0655 B( 12-C , 13-H ) :   0.9787 B( 12-C , 14-H ) :   0.9771
B( 12-C , 15-H ) :   0.9759 B( 16-S , 17-C ) :   1.1480 B( 16-S , 20-C ) :   1.1674
B( 17-C , 18-C ) :   1.5871 B( 17-C , 20-C ) :   0.1045 B( 17-C , 33-H ) :   0.9695
B( 18-C , 19-C ) :   1.2497 B( 18-C , 21-H ) :   0.9908 B( 19-C , 20-C ) :   1.5511
B( 19-C , 22-C ) :   1.0288 B( 22-C , 23-H ) :   0.9382 B( 22-C , 24-H ) :   0.9313
B( 22-C , 25-C ) :   1.0702 B( 25-C , 26-H ) :   0.9523 B( 25-C , 27-H ) :   0.9555
B( 25-C , 28-C ) :   1.0886 B( 28-C , 29-H ) :   0.9739 B( 28-C , 30-H ) :   0.9722
B( 28-C , 31-H ) :   0.9750

Dispersion correction           -0.013358596
FINAL SINGLE POINT ENERGY     -1339.848686596802

DIPOLE MOMENT
-------------
                                X             Y             Z
Electronic contribution:     21.32915     -23.85235      -6.98868
Nuclear contribution   :    -21.78715      24.34798       7.30779
                        -----------------------------------------
Total Dipole Moment    :     -0.45800       0.49563       0.31911
                        -----------------------------------------
Magnitude (a.u.)       :      0.74649
Magnitude (Debye)      :      1.89742

Rotational constants in cm-1:     0.015832     0.008807     0.006102
Rotational constants in MHz :   474.620119   264.042017   182.932861

                             ****ORCA TERMINATED NORMALLY****
TOTAL RUN TIME: 0 days 0 hours 0 minutes 20 seconds 840 msec
