                         Program Version 4.2.1 -  RELEASE  -
|  1> ! wB97X-D3 SP def2-SVP
|  2> %pal
|  3> nprocs 24
|  4> end
|  5>
|  6> * xyz 0 1
|  7> S 	 -84.8621 	 -45.7064 	 -81.7398
|  8> C 	 -86.4929 	 -45.0997 	 -81.5143
|  9> C 	 -87.4773 	 -46.0664 	 -81.799
| 10> C 	 -86.8835 	 -47.363 	 -81.9323
| 11> C 	 -85.5012 	 -47.3522 	 -81.8979
| 12> H 	 -87.3469 	 -48.3287 	 -82.1821
| 13> C 	 -88.9639 	 -45.7727 	 -81.8188
| 14> H 	 -89.1538 	 -44.6957 	 -81.7173
| 15> H 	 -89.3247 	 -46.2175 	 -80.92
| 16> C 	 -89.8399 	 -46.1922 	 -83.0432
| 17> H 	 -89.6902 	 -45.7425 	 -83.9925
| 18> H 	 -89.5979 	 -47.1727 	 -83.3901
| 19> C 	 -91.4092 	 -46.0674 	 -82.956
| 20> H 	 -91.6755 	 -45.0264 	 -83.1396
| 21> H 	 -91.9484 	 -46.6381 	 -83.6551
| 22> H 	 -91.7061 	 -46.3567 	 -81.9572
| 23> S 	 -83.4741 	 -48.6149 	 -83.3796
| 24> C 	 -82.6028 	 -49.954 	 -82.6329
| 25> C 	 -83.3089 	 -50.4293 	 -81.5276
| 26> C 	 -84.4598 	 -49.6746 	 -81.2426
| 27> C 	 -84.5829 	 -48.5134 	 -82.0442
| 28> H 	 -82.9685 	 -51.3716 	 -81.1026
| 29> C 	 -85.383 	 -49.9301 	 -80.0898
| 30> H 	 -86.1207 	 -50.6683 	 -80.468
| 31> H 	 -85.8047 	 -48.989 	 -79.8836
| 32> C 	 -84.6507 	 -50.4931 	 -78.8069
| 33> H 	 -84.1426 	 -51.4303 	 -79.1171
| 34> H 	 -85.4174 	 -50.771 	 -78.1014
| 35> C 	 -83.6526 	 -49.5246 	 -78.1589
| 36> H 	 -82.7663 	 -49.3995 	 -78.8527
| 37> H 	 -83.4411 	 -49.9073 	 -77.1564
| 38> H 	 -84.0455 	 -48.52 	 -78.1485
| 39> H 	 -86.7578 	 -44.1005 	 -81.3375
| 40> H 	 -81.7324 	 -50.5048 	 -83.0265
| 41> *
| 42>
| 43>                          ****END OF INPUT****

CARTESIAN COORDINATES (ANGSTROEM)
---------------------------------
  S    -84.862100  -45.706400  -81.739800
  C    -86.492900  -45.099700  -81.514300
  C    -87.477300  -46.066400  -81.799000
  C    -86.883500  -47.363000  -81.932300
  C    -85.501200  -47.352200  -81.897900
  H    -87.346900  -48.328700  -82.182100
  C    -88.963900  -45.772700  -81.818800
  H    -89.153800  -44.695700  -81.717300
  H    -89.324700  -46.217500  -80.920000
  C    -89.839900  -46.192200  -83.043200
  H    -89.690200  -45.742500  -83.992500
  H    -89.597900  -47.172700  -83.390100
  C    -91.409200  -46.067400  -82.956000
  H    -91.675500  -45.026400  -83.139600
  H    -91.948400  -46.638100  -83.655100
  H    -91.706100  -46.356700  -81.957200
  S    -83.474100  -48.614900  -83.379600
  C    -82.602800  -49.954000  -82.632900
  C    -83.308900  -50.429300  -81.527600
  C    -84.459800  -49.674600  -81.242600
  C    -84.582900  -48.513400  -82.044200
  H    -82.968500  -51.371600  -81.102600
  C    -85.383000  -49.930100  -80.089800
  H    -86.120700  -50.668300  -80.468000
  H    -85.804700  -48.989000  -79.883600
  C    -84.650700  -50.493100  -78.806900
  H    -84.142600  -51.430300  -79.117100
  H    -85.417400  -50.771000  -78.101400
  C    -83.652600  -49.524600  -78.158900
  H    -82.766300  -49.399500  -78.852700
  H    -83.441100  -49.907300  -77.156400
  H    -84.045500  -48.520000  -78.148500
  H    -86.757800  -44.100500  -81.337500
  H    -81.732400  -50.504800  -83.026500

 Total Charge           Charge          ....    0
 Multiplicity           Mult            ....    1
 Number of Electrons    NEL             ....  134
 Basis Dimension        Dim             ....  322

ORBITAL ENERGIES
----------------

  NO   OCC          E(Eh)            E(eV)
   0   2.0000     -88.969979     -2420.9962
   1   2.0000     -88.966660     -2420.9059
   2   2.0000     -10.333891      -281.1995
   3   2.0000     -10.326852      -281.0079
   4   2.0000     -10.319993      -280.8213
   5   2.0000     -10.315363      -280.6953
   6   2.0000     -10.309318      -280.5308
   7   2.0000     -10.300701      -280.2963
   8   2.0000     -10.299690      -280.2688
   9   2.0000     -10.299254      -280.2569
  10   2.0000     -10.293209      -280.0924
  11   2.0000     -10.285771      -279.8901
  12   2.0000     -10.285506      -279.8828
  13   2.0000     -10.285147      -279.8731
  14   2.0000     -10.277804      -279.6733
  15   2.0000     -10.276360      -279.6340
  16   2.0000      -8.084072      -219.9788
  17   2.0000      -8.081019      -219.8957
  18   2.0000      -6.042571      -164.4267
  19   2.0000      -6.039474      -164.3424
  20   2.0000      -6.038764      -164.3231
  21   2.0000      -6.035521      -164.2349
  22   2.0000      -6.034777      -164.2146
  23   2.0000      -6.031921      -164.1369
  24   2.0000      -1.002851       -27.2890
  25   2.0000      -0.982103       -26.7244
  26   2.0000      -0.905489       -24.6396
  27   2.0000      -0.903817       -24.5941
  28   2.0000      -0.866113       -23.5681
  29   2.0000      -0.850605       -23.1461
  30   2.0000      -0.843404       -22.9502
  31   2.0000      -0.817826       -22.2542
  32   2.0000      -0.783523       -21.3207
  33   2.0000      -0.767414       -20.8824
  34   2.0000      -0.712571       -19.3901
  35   2.0000      -0.698635       -19.0108
  36   2.0000      -0.696157       -18.9434
  37   2.0000      -0.648810       -17.6550
  38   2.0000      -0.646919       -17.6036
  39   2.0000      -0.617821       -16.8118
  40   2.0000      -0.589358       -16.0372
  41   2.0000      -0.569900       -15.5078
  42   2.0000      -0.556574       -15.1452
  43   2.0000      -0.551968       -15.0198
  44   2.0000      -0.537847       -14.6356
  45   2.0000      -0.527315       -14.3490
  46   2.0000      -0.517846       -14.0913
  47   2.0000      -0.515291       -14.0218
  48   2.0000      -0.501899       -13.6574
  49   2.0000      -0.496640       -13.5143
  50   2.0000      -0.491350       -13.3703
  51   2.0000      -0.483593       -13.1592
  52   2.0000      -0.468362       -12.7448
  53   2.0000      -0.461491       -12.5578
  54   2.0000      -0.457364       -12.4455
  55   2.0000      -0.454620       -12.3708
  56   2.0000      -0.443003       -12.0547
  57   2.0000      -0.436992       -11.8911
  58   2.0000      -0.435240       -11.8435
  59   2.0000      -0.426642       -11.6095
  60   2.0000      -0.417684       -11.3658
  61   2.0000      -0.412472       -11.2239
  62   2.0000      -0.407918       -11.1000
  63   2.0000      -0.342328        -9.3152
  64   2.0000      -0.330921        -9.0048
  65   2.0000      -0.328481        -8.9384
  66   2.0000      -0.292627        -7.9628
  67   0.0000       0.029551         0.8041
  68   0.0000       0.060086         1.6350
  69   0.0000       0.113396         3.0857
  70   0.0000       0.119605         3.2546
  71   0.0000       0.129645         3.5278

MULLIKEN ATOMIC CHARGES
-----------------------
   0 S :    0.125057
   1 C :   -0.095469
   2 C :   -0.092011
   3 C :    0.035985
   4 C :   -0.182142
   5 H :    0.028006
   6 C :    0.107984
   7 H :    0.019946
   8 H :    0.033073
   9 C :   -0.074360
  10 H :    0.013703
  11 H :    0.005214
  12 C :   -0.042330
  13 H :    0.032084
  14 H :    0.027603
  15 H :    0.023016
  16 S :    0.117106
  17 C :   -0.109533
  18 C :   -0.050991
  19 C :   -0.043162
  20 C :   -0.181769
  21 H :    0.025367
  22 C :    0.085904
  23 H :    0.046333
  24 H :    0.023256
  25 C :   -0.098814
  26 H :    0.027722
  27 H :    0.026076
  28 C :   -0.044850
  29 H :    0.044932
  30 H :    0.045625
  31 H :    0.029103
  32 H :    0.027162
  33 H :    0.065175
Sum of atomic charges:   -0.0000000

LOEWDIN ATOMIC CHARGES
----------------------
   0 S :    0.402832
   1 C :   -0.186374
   2 C :   -0.057509
   3 C :   -0.061431
   4 C :   -0.189965
   5 H :    0.038613
   6 C :   -0.026640
   7 H :    0.032793
   8 H :    0.032551
   9 C :   -0.046561
  10 H :    0.023052
  11 H :    0.016433
  12 C :   -0.054341
  13 H :    0.024680
  14 H :    0.022145
  15 H :    0.019954
  16 S :    0.409311
  17 C :   -0.188436
  18 C :   -0.078443
  19 C :   -0.057095
  20 C :   -0.215901
  21 H :    0.034327
  22 C :   -0.028873
  23 H :    0.039327
  24 H :    0.022350
  25 C :   -0.041486
  26 H :    0.020976
  27 H :    0.020175
  28 C :   -0.068451
  29 H :    0.035209
  30 H :    0.029581
  31 H :    0.024168
  32 H :    0.016506
  33 H :    0.036524

  Mayer bond orders larger than 0.100000
B(  0-S ,  1-C ) :   1.1445 B(  0-S ,  4-C ) :   1.1459 B(  1-C ,  2-C ) :   1.6110
B(  1-C ,  4-C ) :   0.1002 B(  1-C , 32-H ) :   0.9717 B(  2-C ,  3-C ) :   1.2203
B(  2-C ,  6-C ) :   1.0315 B(  3-C ,  4-C ) :   1.5876 B(  3-C ,  5-H ) :   0.9891
B(  4-C , 20-C ) :   1.0292 B(  6-C ,  7-H ) :   0.9426 B(  6-C ,  8-H ) :   0.9356
B(  6-C ,  9-C ) :   1.0401 B(  9-C , 10-H ) :   0.9568 B(  9-C , 11-H ) :   0.9590
B(  9-C , 12-C ) :   1.0767 B( 12-C , 13-H ) :   0.9820 B( 12-C , 14-H ) :   0.9753
B( 12-C , 15-H ) :   0.9796 B( 16-S , 17-C ) :   1.1622 B( 16-S , 20-C ) :   1.1576
B( 17-C , 18-C ) :   1.5866 B( 17-C , 20-C ) :   0.1088 B( 17-C , 33-H ) :   0.9625
B( 18-C , 19-C ) :   1.2682 B( 18-C , 21-H ) :   0.9872 B( 19-C , 20-C ) :   1.5427
B( 19-C , 22-C ) :   1.0356 B( 22-C , 23-H ) :   0.9260 B( 22-C , 24-H ) :   0.9335
B( 22-C , 25-C ) :   1.0820 B( 25-C , 26-H ) :   0.9507 B( 25-C , 27-H ) :   0.9572
B( 25-C , 28-C ) :   1.0725 B( 28-C , 29-H ) :   0.9701 B( 28-C , 30-H ) :   0.9742
B( 28-C , 31-H ) :   0.9750

Dispersion correction           -0.014134188
FINAL SINGLE POINT ENERGY     -1339.866782190788

DIPOLE MOMENT
-------------
                                X             Y             Z
Electronic contribution:     20.11280       4.64376     -10.94307
Nuclear contribution   :    -20.63848      -4.91834      11.09316
                        -----------------------------------------
Total Dipole Moment    :     -0.52568      -0.27458       0.15008
                        -----------------------------------------
Magnitude (a.u.)       :      0.61177
Magnitude (Debye)      :      1.55499

Rotational constants in cm-1:     0.020220     0.007235     0.006636
Rotational constants in MHz :   606.184738   216.892887   198.943293

                             ****ORCA TERMINATED NORMALLY****
TOTAL RUN TIME: 0 days 0 hours 0 minutes 21 seconds 169 msec
