                         Program Version 4.2.1 -  RELEASE  -
|  1> ! wB97X-D3 SP def2-SVP
|  2> %pal
|  3> nprocs 24
|  4> end
|  5>
|  6> * xyz 0 1
|  7> S 	 -49.4238 	 20.9552 	 27.4351
|  8> C 	 -48.1089 	 19.8058 	 27.695
|  9> C 	 -47.2109 	 20.3209 	 28.6298
| 10> C 	 -47.653 	 21.5501 	 29.1959
| 11> C 	 -48.8235 	 22.021 	 28.6818
| 12> H 	 -47.1907 	 22.0442 	 30.0753
| 13> C 	 -45.9657 	 19.5792 	 29.0872
| 14> H 	 -46.0893 	 18.5516 	 28.9719
| 15> H 	 -45.8263 	 19.729 	 30.1252
| 16> C 	 -44.7249 	 19.8343 	 28.2391
| 17> H 	 -44.8396 	 19.9378 	 27.1713
| 18> H 	 -44.3111 	 20.8401 	 28.483
| 19> C 	 -43.5585 	 18.8738 	 28.5948
| 20> H 	 -43.5767 	 18.5909 	 29.6608
| 21> H 	 -43.573 	 17.9003 	 28.0213
| 22> H 	 -42.6299 	 19.3089 	 28.2685
| 23> S 	 -51.2536 	 22.6528 	 29.6851
| 24> C 	 -51.488 	 24.2813 	 30.3248
| 25> C 	 -50.4812 	 25.1252 	 30.0777
| 26> C 	 -49.3762 	 24.4953 	 29.4254
| 27> C 	 -49.6387 	 23.1044 	 29.2347
| 28> H 	 -50.4527 	 26.1744 	 30.3607
| 29> C 	 -48.1104 	 25.2801 	 29.0491
| 30> H 	 -48.5514 	 25.9882 	 28.2135
| 31> H 	 -47.4577 	 24.6087 	 28.5681
| 32> C 	 -47.4533 	 26.2275 	 30.0793
| 33> H 	 -48.2405 	 26.8891 	 30.4803
| 34> H 	 -46.7516 	 26.8364 	 29.5635
| 35> C 	 -46.6868 	 25.537 	 31.1961
| 36> H 	 -45.7538 	 25.0793 	 30.7719
| 37> H 	 -47.1849 	 24.6804 	 31.727
| 38> H 	 -46.3089 	 26.2194 	 32.0083
| 39> H 	 -47.9238 	 18.8127 	 27.2466
| 40> H 	 -52.3781 	 24.5681 	 30.8127
| 41> *
| 42>
| 43>                          ****END OF INPUT****

CARTESIAN COORDINATES (ANGSTROEM)
---------------------------------
  S    -49.423800   20.955200   27.435100
  C    -48.108900   19.805800   27.695000
  C    -47.210900   20.320900   28.629800
  C    -47.653000   21.550100   29.195900
  C    -48.823500   22.021000   28.681800
  H    -47.190700   22.044200   30.075300
  C    -45.965700   19.579200   29.087200
  H    -46.089300   18.551600   28.971900
  H    -45.826300   19.729000   30.125200
  C    -44.724900   19.834300   28.239100
  H    -44.839600   19.937800   27.171300
  H    -44.311100   20.840100   28.483000
  C    -43.558500   18.873800   28.594800
  H    -43.576700   18.590900   29.660800
  H    -43.573000   17.900300   28.021300
  H    -42.629900   19.308900   28.268500
  S    -51.253600   22.652800   29.685100
  C    -51.488000   24.281300   30.324800
  C    -50.481200   25.125200   30.077700
  C    -49.376200   24.495300   29.425400
  C    -49.638700   23.104400   29.234700
  H    -50.452700   26.174400   30.360700
  C    -48.110400   25.280100   29.049100
  H    -48.551400   25.988200   28.213500
  H    -47.457700   24.608700   28.568100
  C    -47.453300   26.227500   30.079300
  H    -48.240500   26.889100   30.480300
  H    -46.751600   26.836400   29.563500
  C    -46.686800   25.537000   31.196100
  H    -45.753800   25.079300   30.771900
  H    -47.184900   24.680400   31.727000
  H    -46.308900   26.219400   32.008300
  H    -47.923800   18.812700   27.246600
  H    -52.378100   24.568100   30.812700

 Total Charge           Charge          ....    0
 Multiplicity           Mult            ....    1
 Number of Electrons    NEL             ....  134
 Basis Dimension        Dim             ....  322

ORBITAL ENERGIES
----------------

  NO   OCC          E(Eh)            E(eV)
   0   2.0000     -88.966617     -2420.9047
   1   2.0000     -88.965574     -2420.8763
   2   2.0000     -10.327711      -281.0313
   3   2.0000     -10.325398      -280.9684
   4   2.0000     -10.316422      -280.7241
   5   2.0000     -10.310622      -280.5663
   6   2.0000     -10.307768      -280.4886
   7   2.0000     -10.300174      -280.2820
   8   2.0000     -10.299770      -280.2710
   9   2.0000     -10.292751      -280.0800
  10   2.0000     -10.291686      -280.0510
  11   2.0000     -10.289777      -279.9991
  12   2.0000     -10.286947      -279.9221
  13   2.0000     -10.286598      -279.9126
  14   2.0000     -10.284366      -279.8518
  15   2.0000     -10.282298      -279.7956
  16   2.0000      -8.080912      -219.8928
  17   2.0000      -8.080441      -219.8800
  18   2.0000      -6.039506      -164.3433
  19   2.0000      -6.038856      -164.3256
  20   2.0000      -6.035429      -164.2324
  21   2.0000      -6.035080      -164.2229
  22   2.0000      -6.031656      -164.1297
  23   2.0000      -6.031133      -164.1155
  24   2.0000      -1.006153       -27.3788
  25   2.0000      -0.983143       -26.7527
  26   2.0000      -0.912770       -24.8377
  27   2.0000      -0.906842       -24.6764
  28   2.0000      -0.869371       -23.6568
  29   2.0000      -0.849070       -23.1044
  30   2.0000      -0.844427       -22.9780
  31   2.0000      -0.816219       -22.2104
  32   2.0000      -0.781713       -21.2715
  33   2.0000      -0.769057       -20.9271
  34   2.0000      -0.706957       -19.2373
  35   2.0000      -0.700883       -19.0720
  36   2.0000      -0.696038       -18.9401
  37   2.0000      -0.656884       -17.8747
  38   2.0000      -0.640887       -17.4394
  39   2.0000      -0.617620       -16.8063
  40   2.0000      -0.599150       -16.3037
  41   2.0000      -0.569856       -15.5066
  42   2.0000      -0.553402       -15.0588
  43   2.0000      -0.547051       -14.8860
  44   2.0000      -0.541313       -14.7299
  45   2.0000      -0.528221       -14.3736
  46   2.0000      -0.520420       -14.1614
  47   2.0000      -0.508607       -13.8399
  48   2.0000      -0.501389       -13.6435
  49   2.0000      -0.495273       -13.4771
  50   2.0000      -0.490746       -13.3539
  51   2.0000      -0.477926       -13.0050
  52   2.0000      -0.467136       -12.7114
  53   2.0000      -0.464877       -12.6499
  54   2.0000      -0.459341       -12.4993
  55   2.0000      -0.451645       -12.2899
  56   2.0000      -0.446951       -12.1622
  57   2.0000      -0.442999       -12.0546
  58   2.0000      -0.435521       -11.8511
  59   2.0000      -0.425859       -11.5882
  60   2.0000      -0.421048       -11.4573
  61   2.0000      -0.418420       -11.3858
  62   2.0000      -0.405167       -11.0252
  63   2.0000      -0.348833        -9.4922
  64   2.0000      -0.330410        -8.9909
  65   2.0000      -0.326457        -8.8833
  66   2.0000      -0.291025        -7.9192
  67   0.0000       0.033680         0.9165
  68   0.0000       0.070052         1.9062
  69   0.0000       0.111106         3.0233
  70   0.0000       0.123352         3.3566
  71   0.0000       0.130749         3.5579

MULLIKEN ATOMIC CHARGES
-----------------------
   0 S :    0.108789
   1 C :   -0.125633
   2 C :   -0.110607
   3 C :    0.033245
   4 C :   -0.156024
   5 H :    0.022385
   6 C :    0.121128
   7 H :   -0.001037
   8 H :    0.018051
   9 C :   -0.081834
  10 H :    0.031490
  11 H :    0.019286
  12 C :   -0.066319
  13 H :    0.037942
  14 H :    0.033564
  15 H :    0.031267
  16 S :    0.112729
  17 C :   -0.066422
  18 C :   -0.023649
  19 C :   -0.035759
  20 C :   -0.178819
  21 H :    0.019444
  22 C :    0.038202
  23 H :    0.053524
  24 H :    0.014046
  25 C :   -0.017751
  26 H :    0.027500
  27 H :    0.027688
  28 C :   -0.099550
  29 H :    0.028841
  30 H :    0.047986
  31 H :    0.043776
  32 H :    0.056999
  33 H :    0.035522
Sum of atomic charges:   -0.0000000

LOEWDIN ATOMIC CHARGES
----------------------
   0 S :    0.398674
   1 C :   -0.201801
   2 C :   -0.059852
   3 C :   -0.069028
   4 C :   -0.200693
   5 H :    0.037951
   6 C :   -0.025728
   7 H :    0.022358
   8 H :    0.027729
   9 C :   -0.042232
  10 H :    0.024735
  11 H :    0.023613
  12 C :   -0.070742
  13 H :    0.027142
  14 H :    0.027267
  15 H :    0.024118
  16 S :    0.406056
  17 C :   -0.167654
  18 C :   -0.071568
  19 C :   -0.052238
  20 C :   -0.206916
  21 H :    0.033827
  22 C :   -0.030697
  23 H :    0.051499
  24 H :    0.020455
  25 C :   -0.039702
  26 H :    0.024332
  27 H :    0.026041
  28 C :   -0.081858
  29 H :    0.027297
  30 H :    0.029052
  31 H :    0.031906
  32 H :    0.037771
  33 H :    0.018887

  Mayer bond orders larger than 0.100000
B(  0-S ,  1-C ) :   1.1263 B(  0-S ,  4-C ) :   1.1485 B(  1-C ,  2-C ) :   1.6158
B(  1-C , 32-H ) :   0.9628 B(  2-C ,  3-C ) :   1.2465 B(  2-C ,  6-C ) :   1.0305
B(  3-C ,  4-C ) :   1.5851 B(  3-C ,  5-H ) :   0.9892 B(  4-C , 20-C ) :   1.0242
B(  6-C ,  7-H ) :   0.9401 B(  6-C ,  8-H ) :   0.9350 B(  6-C ,  9-C ) :   1.0534
B(  9-C , 10-H ) :   0.9592 B(  9-C , 11-H ) :   0.9566 B(  9-C , 12-C ) :   1.0740
B( 12-C , 13-H ) :   0.9748 B( 12-C , 14-H ) :   0.9745 B( 12-C , 15-H ) :   0.9759
B( 16-S , 17-C ) :   1.1390 B( 16-S , 20-C ) :   1.1505 B( 17-C , 18-C ) :   1.6317
B( 17-C , 33-H ) :   0.9710 B( 18-C , 19-C ) :   1.2328 B( 18-C , 21-H ) :   0.9866
B( 19-C , 20-C ) :   1.5801 B( 19-C , 22-C ) :   1.0393 B( 22-C , 23-H ) :   0.9307
B( 22-C , 24-H ) :   0.9383 B( 22-C , 25-C ) :   1.0691 B( 25-C , 26-H ) :   0.9523
B( 25-C , 27-H ) :   0.9503 B( 25-C , 28-C ) :   1.0703 B( 28-C , 29-H ) :   0.9734
B( 28-C , 30-H ) :   0.9773 B( 28-C , 31-H ) :   0.9730

Dispersion correction           -0.013827818
FINAL SINGLE POINT ENERGY     -1339.878734686762

DIPOLE MOMENT
-------------
                                X             Y             Z
Electronic contribution:    -29.18540      -3.47043      -6.24684
Nuclear contribution   :     29.74372       3.73483       6.51196
                        -----------------------------------------
Total Dipole Moment    :      0.55832       0.26441       0.26512
                        -----------------------------------------
Magnitude (a.u.)       :      0.67225
Magnitude (Debye)      :      1.70872

Rotational constants in cm-1:     0.018703     0.008274     0.006209
Rotational constants in MHz :   560.692035   248.043623   186.141614

                             ****ORCA TERMINATED NORMALLY****
TOTAL RUN TIME: 0 days 0 hours 0 minutes 21 seconds 167 msec
