                         Program Version 4.2.1 -  RELEASE  -
|  1> ! wB97X-D3 SP def2-SVP
|  2> %pal
|  3> nprocs 24
|  4> end
|  5>
|  6> * xyz 0 1
|  7> S 	 -92.9519 	 13.4347 	 -116.945
|  8> C 	 -91.3252 	 13.0969 	 -117.159
|  9> C 	 -90.887 	 13.0857 	 -118.471
| 10> C 	 -91.991 	 13.3544 	 -119.364
| 11> C 	 -93.1394 	 13.5815 	 -118.683
| 12> H 	 -91.9205 	 13.3993 	 -120.443
| 13> C 	 -89.4759 	 12.6445 	 -118.925
| 14> H 	 -88.7585 	 13.2857 	 -118.408
| 15> H 	 -89.2142 	 12.9454 	 -119.914
| 16> C 	 -89.0563 	 11.1372 	 -118.843
| 17> H 	 -87.931 	 11.1505 	 -118.974
| 18> H 	 -89.2655 	 10.7528 	 -117.865
| 19> C 	 -89.7229 	 10.2277 	 -119.879
| 20> H 	 -89.209 	 9.25175 	 -120.053
| 21> H 	 -90.8268 	 10.0219 	 -119.632
| 22> H 	 -89.8365 	 10.7312 	 -120.827
| 23> S 	 -95.131 	 12.8557 	 -120.349
| 24> C 	 -96.4527 	 13.9938 	 -120.559
| 25> C 	 -96.3251 	 15.1323 	 -119.804
| 26> C 	 -95.2282 	 15.0668 	 -119.012
| 27> C 	 -94.3685 	 14.0143 	 -119.332
| 28> H 	 -97.1526 	 15.854 	 -119.716
| 29> C 	 -94.7996 	 16.2402 	 -118.106
| 30> H 	 -94.0275 	 15.9757 	 -117.48
| 31> H 	 -95.6264 	 16.6543 	 -117.542
| 32> C 	 -94.2127 	 17.415 	 -118.951
| 33> H 	 -94.9397 	 17.9525 	 -119.658
| 34> H 	 -93.4832 	 16.9308 	 -119.539
| 35> C 	 -93.509 	 18.5129 	 -118.077
| 36> H 	 -92.9332 	 18.0333 	 -117.284
| 37> H 	 -94.2866 	 19.166 	 -117.643
| 38> H 	 -92.8315 	 19.1317 	 -118.635
| 39> H 	 -90.7135 	 12.8794 	 -116.308
| 40> H 	 -97.2444 	 13.7719 	 -121.218
| 41> *
| 42>
| 43>                          ****END OF INPUT****

CARTESIAN COORDINATES (ANGSTROEM)
---------------------------------
  S    -92.951900   13.434700  -116.945000
  C    -91.325200   13.096900  -117.159000
  C    -90.887000   13.085700  -118.471000
  C    -91.991000   13.354400  -119.364000
  C    -93.139400   13.581500  -118.683000
  H    -91.920500   13.399300  -120.443000
  C    -89.475900   12.644500  -118.925000
  H    -88.758500   13.285700  -118.408000
  H    -89.214200   12.945400  -119.914000
  C    -89.056300   11.137200  -118.843000
  H    -87.931000   11.150500  -118.974000
  H    -89.265500   10.752800  -117.865000
  C    -89.722900   10.227700  -119.879000
  H    -89.209000    9.251750  -120.053000
  H    -90.826800   10.021900  -119.632000
  H    -89.836500   10.731200  -120.827000
  S    -95.131000   12.855700  -120.349000
  C    -96.452700   13.993800  -120.559000
  C    -96.325100   15.132300  -119.804000
  C    -95.228200   15.066800  -119.012000
  C    -94.368500   14.014300  -119.332000
  H    -97.152600   15.854000  -119.716000
  C    -94.799600   16.240200  -118.106000
  H    -94.027500   15.975700  -117.480000
  H    -95.626400   16.654300  -117.542000
  C    -94.212700   17.415000  -118.951000
  H    -94.939700   17.952500  -119.658000
  H    -93.483200   16.930800  -119.539000
  C    -93.509000   18.512900  -118.077000
  H    -92.933200   18.033300  -117.284000
  H    -94.286600   19.166000  -117.643000
  H    -92.831500   19.131700  -118.635000
  H    -90.713500   12.879400  -116.308000
  H    -97.244400   13.771900  -121.218000

 Total Charge           Charge          ....    0
 Multiplicity           Mult            ....    1
 Number of Electrons    NEL             ....  134
 Basis Dimension        Dim             ....  322

ORBITAL ENERGIES
----------------

  NO   OCC          E(Eh)            E(eV)
   0   2.0000     -88.968701     -2420.9614
   1   2.0000     -88.966938     -2420.9135
   2   2.0000     -10.321803      -280.8705
   3   2.0000     -10.317794      -280.7614
   4   2.0000     -10.310630      -280.5665
   5   2.0000     -10.307799      -280.4895
   6   2.0000     -10.302994      -280.3587
   7   2.0000     -10.294468      -280.1267
   8   2.0000     -10.292945      -280.0853
   9   2.0000     -10.292351      -280.0691
  10   2.0000     -10.292123      -280.0629
  11   2.0000     -10.287980      -279.9502
  12   2.0000     -10.284021      -279.8424
  13   2.0000     -10.282544      -279.8023
  14   2.0000     -10.282353      -279.7971
  15   2.0000     -10.275328      -279.6059
  16   2.0000      -8.084505      -219.9906
  17   2.0000      -8.082085      -219.9247
  18   2.0000      -6.042811      -164.4332
  19   2.0000      -6.040226      -164.3629
  20   2.0000      -6.038917      -164.3273
  21   2.0000      -6.036649      -164.2656
  22   2.0000      -6.035360      -164.2305
  23   2.0000      -6.033114      -164.1694
  24   2.0000      -1.015201       -27.6250
  25   2.0000      -0.993264       -27.0281
  26   2.0000      -0.903157       -24.5762
  27   2.0000      -0.902371       -24.5548
  28   2.0000      -0.875384       -23.8204
  29   2.0000      -0.850347       -23.1391
  30   2.0000      -0.847423       -23.0596
  31   2.0000      -0.812602       -22.1120
  32   2.0000      -0.781161       -21.2565
  33   2.0000      -0.768371       -20.9084
  34   2.0000      -0.699780       -19.0420
  35   2.0000      -0.697428       -18.9780
  36   2.0000      -0.690158       -18.7802
  37   2.0000      -0.666594       -18.1389
  38   2.0000      -0.648269       -17.6403
  39   2.0000      -0.614384       -16.7182
  40   2.0000      -0.601130       -16.3576
  41   2.0000      -0.571268       -15.5450
  42   2.0000      -0.563374       -15.3302
  43   2.0000      -0.543351       -14.7853
  44   2.0000      -0.534233       -14.5372
  45   2.0000      -0.516175       -14.0458
  46   2.0000      -0.511778       -13.9262
  47   2.0000      -0.507967       -13.8225
  48   2.0000      -0.505192       -13.7470
  49   2.0000      -0.493387       -13.4257
  50   2.0000      -0.482659       -13.1338
  51   2.0000      -0.479051       -13.0356
  52   2.0000      -0.471837       -12.8393
  53   2.0000      -0.469136       -12.7658
  54   2.0000      -0.462734       -12.5916
  55   2.0000      -0.449484       -12.2311
  56   2.0000      -0.445405       -12.1201
  57   2.0000      -0.439794       -11.9674
  58   2.0000      -0.430560       -11.7161
  59   2.0000      -0.423262       -11.5175
  60   2.0000      -0.420490       -11.4421
  61   2.0000      -0.416206       -11.3255
  62   2.0000      -0.414895       -11.2899
  63   2.0000      -0.349070        -9.4987
  64   2.0000      -0.339829        -9.2472
  65   2.0000      -0.324820        -8.8388
  66   2.0000      -0.291157        -7.9228
  67   0.0000       0.036184         0.9846
  68   0.0000       0.069465         1.8902
  69   0.0000       0.108038         2.9399
  70   0.0000       0.118547         3.2258
  71   0.0000       0.133616         3.6359

MULLIKEN ATOMIC CHARGES
-----------------------
   0 S :    0.140100
   1 C :   -0.125953
   2 C :   -0.067773
   3 C :    0.006320
   4 C :   -0.135086
   5 H :    0.015875
   6 C :    0.065330
   7 H :    0.023223
   8 H :    0.001501
   9 C :   -0.053494
  10 H :    0.038110
  11 H :    0.024986
  12 C :   -0.078574
  13 H :    0.049049
  14 H :    0.045992
  15 H :    0.017528
  16 S :    0.121607
  17 C :   -0.086957
  18 C :   -0.026979
  19 C :   -0.037442
  20 C :   -0.174722
  21 H :    0.029807
  22 C :    0.118618
  23 H :   -0.011064
  24 H :    0.020038
  25 C :   -0.107961
  26 H :    0.039038
  27 H :    0.020620
  28 C :   -0.044037
  29 H :    0.029429
  30 H :    0.033292
  31 H :    0.032363
  32 H :    0.040477
  33 H :    0.036740
Sum of atomic charges:   -0.0000000

LOEWDIN ATOMIC CHARGES
----------------------
   0 S :    0.443630
   1 C :   -0.210845
   2 C :   -0.066154
   3 C :   -0.057713
   4 C :   -0.201632
   5 H :    0.033425
   6 C :   -0.036776
   7 H :    0.033642
   8 H :    0.023326
   9 C :   -0.038322
  10 H :    0.032191
  11 H :    0.017874
  12 C :   -0.078552
  13 H :    0.032235
  14 H :    0.036723
  15 H :    0.018464
  16 S :    0.428301
  17 C :   -0.172215
  18 C :   -0.070065
  19 C :   -0.060091
  20 C :   -0.210590
  21 H :    0.041171
  22 C :   -0.019125
  23 H :    0.005235
  24 H :    0.026803
  25 C :   -0.037574
  26 H :    0.027547
  27 H :    0.015333
  28 C :   -0.065715
  29 H :    0.023779
  30 H :    0.026051
  31 H :    0.022996
  32 H :    0.021887
  33 H :    0.014757

  Mayer bond orders larger than 0.100000
B(  0-S ,  1-C ) :   1.1660 B(  0-S ,  4-C ) :   1.1432 B(  1-C ,  2-C ) :   1.6025
B(  1-C , 32-H ) :   0.9704 B(  2-C ,  3-C ) :   1.2349 B(  2-C ,  6-C ) :   1.0220
B(  3-C ,  4-C ) :   1.5717 B(  3-C ,  5-H ) :   1.0019 B(  4-C , 20-C ) :   1.0207
B(  6-C ,  7-H ) :   0.9358 B(  6-C ,  8-H ) :   0.9403 B(  6-C ,  9-C ) :   1.0679
B(  9-C , 10-H ) :   0.9535 B(  9-C , 11-H ) :   0.9602 B(  9-C , 12-C ) :   1.0689
B( 12-C , 13-H ) :   0.9749 B( 12-C , 14-H ) :   0.9736 B( 12-C , 15-H ) :   0.9757
B( 16-S , 17-C ) :   1.1757 B( 16-S , 20-C ) :   1.1721 B( 17-C , 18-C ) :   1.5693
B( 17-C , 20-C ) :   0.1158 B( 17-C , 33-H ) :   0.9736 B( 18-C , 19-C ) :   1.2829
B( 18-C , 21-H ) :   0.9881 B( 19-C , 20-C ) :   1.5459 B( 19-C , 22-C ) :   1.0676
B( 22-C , 23-H ) :   0.9268 B( 22-C , 24-H ) :   0.9342 B( 22-C , 25-C ) :   1.0526
B( 25-C , 26-H ) :   0.9583 B( 25-C , 27-H ) :   0.9586 B( 25-C , 28-C ) :   1.0783
B( 28-C , 29-H ) :   0.9760 B( 28-C , 30-H ) :   0.9772 B( 28-C , 31-H ) :   0.9765

Dispersion correction           -0.014525756
FINAL SINGLE POINT ENERGY     -1339.877442537027

DIPOLE MOMENT
-------------
                                X             Y             Z
Electronic contribution:    -15.10762      -7.49642       1.42667
Nuclear contribution   :     15.34351       7.64484      -1.46614
                        -----------------------------------------
Total Dipole Moment    :      0.23589       0.14842      -0.03947
                        -----------------------------------------
Magnitude (a.u.)       :      0.28148
Magnitude (Debye)      :      0.71546

Rotational constants in cm-1:     0.019888     0.008520     0.006879
Rotational constants in MHz :   596.230582   255.425860   206.216651

                             ****ORCA TERMINATED NORMALLY****
TOTAL RUN TIME: 0 days 0 hours 0 minutes 20 seconds 453 msec
