                         Program Version 4.2.1 -  RELEASE  -
|  1> ! wB97X-D3 SP def2-SVP
|  2> %pal
|  3> nprocs 24
|  4> end
|  5>
|  6> * xyz 0 1
|  7> S 	 -96.6391 	 13.8459 	 -119.739
|  8> C 	 -94.9707 	 14.0485 	 -119.2
|  9> C 	 -94.7369 	 13.3493 	 -118.031
| 10> C 	 -95.8225 	 12.5094 	 -117.736
| 11> C 	 -96.9496 	 12.6604 	 -118.566
| 12> H 	 -95.7434 	 11.7502 	 -116.925
| 13> C 	 -93.4361 	 13.3601 	 -117.266
| 14> H 	 -92.6943 	 13.0148 	 -118.044
| 15> H 	 -93.4459 	 12.738 	 -116.447
| 16> C 	 -93.0506 	 14.733 	 -116.636
| 17> H 	 -92.0009 	 14.7828 	 -116.568
| 18> H 	 -93.2584 	 15.5331 	 -117.303
| 19> C 	 -93.6608 	 15.0813 	 -115.22
| 20> H 	 -92.9223 	 14.7899 	 -114.47
| 21> H 	 -93.9805 	 16.0989 	 -115.059
| 22> H 	 -94.6332 	 14.5466 	 -115.195
| 23> S 	 -99.6408 	 13.1447 	 -117.94
| 24> C 	 -100.614 	 11.7661 	 -117.452
| 25> C 	 -99.9987 	 10.5223 	 -117.593
| 26> C 	 -98.6529 	 10.7124 	 -118.024
| 27> C 	 -98.274 	 12.0645 	 -118.264
| 28> H 	 -100.542 	 9.58616 	 -117.331
| 29> C 	 -97.6805 	 9.57498 	 -118.074
| 30> H 	 -98.1459 	 8.67474 	 -117.621
| 31> H 	 -96.8222 	 9.82194 	 -117.484
| 32> C 	 -97.1601 	 9.03524 	 -119.351
| 33> H 	 -96.6534 	 8.09942 	 -119.043
| 34> H 	 -96.3901 	 9.72525 	 -119.859
| 35> C 	 -98.301 	 8.70637 	 -120.306
| 36> H 	 -98.9196 	 9.54243 	 -120.624
| 37> H 	 -99.0036 	 7.88616 	 -120.121
| 38> H 	 -97.9376 	 8.37621 	 -121.255
| 39> H 	 -94.2488 	 14.6887 	 -119.526
| 40> H 	 -101.617 	 11.9008 	 -117.113
| 41> *
| 42>
| 43>                          ****END OF INPUT****

CARTESIAN COORDINATES (ANGSTROEM)
---------------------------------
  S    -96.639100   13.845900  -119.739000
  C    -94.970700   14.048500  -119.200000
  C    -94.736900   13.349300  -118.031000
  C    -95.822500   12.509400  -117.736000
  C    -96.949600   12.660400  -118.566000
  H    -95.743400   11.750200  -116.925000
  C    -93.436100   13.360100  -117.266000
  H    -92.694300   13.014800  -118.044000
  H    -93.445900   12.738000  -116.447000
  C    -93.050600   14.733000  -116.636000
  H    -92.000900   14.782800  -116.568000
  H    -93.258400   15.533100  -117.303000
  C    -93.660800   15.081300  -115.220000
  H    -92.922300   14.789900  -114.470000
  H    -93.980500   16.098900  -115.059000
  H    -94.633200   14.546600  -115.195000
  S    -99.640800   13.144700  -117.940000
  C    -100.614000   11.766100  -117.452000
  C    -99.998700   10.522300  -117.593000
  C    -98.652900   10.712400  -118.024000
  C    -98.274000   12.064500  -118.264000
  H    -100.542000    9.586160  -117.331000
  C    -97.680500    9.574980  -118.074000
  H    -98.145900    8.674740  -117.621000
  H    -96.822200    9.821940  -117.484000
  C    -97.160100    9.035240  -119.351000
  H    -96.653400    8.099420  -119.043000
  H    -96.390100    9.725250  -119.859000
  C    -98.301000    8.706370  -120.306000
  H    -98.919600    9.542430  -120.624000
  H    -99.003600    7.886160  -120.121000
  H    -97.937600    8.376210  -121.255000
  H    -94.248800   14.688700  -119.526000
  H    -101.617000   11.900800  -117.113000

 Total Charge           Charge          ....    0
 Multiplicity           Mult            ....    1
 Number of Electrons    NEL             ....  134
 Basis Dimension        Dim             ....  322

ORBITAL ENERGIES
----------------

  NO   OCC          E(Eh)            E(eV)
   0   2.0000     -88.972617     -2421.0680
   1   2.0000     -88.968447     -2420.9545
   2   2.0000     -10.331818      -281.1430
   3   2.0000     -10.330886      -281.1177
   4   2.0000     -10.317430      -280.7515
   5   2.0000     -10.306198      -280.4459
   6   2.0000     -10.305142      -280.4172
   7   2.0000     -10.300145      -280.2812
   8   2.0000     -10.296681      -280.1869
   9   2.0000     -10.294075      -280.1160
  10   2.0000     -10.293690      -280.1056
  11   2.0000     -10.287670      -279.9417
  12   2.0000     -10.282822      -279.8098
  13   2.0000     -10.281597      -279.7765
  14   2.0000     -10.281263      -279.7674
  15   2.0000     -10.266370      -279.3621
  16   2.0000      -8.087410      -220.0696
  17   2.0000      -8.082587      -219.9384
  18   2.0000      -6.045844      -164.5158
  19   2.0000      -6.041795      -164.4056
  20   2.0000      -6.041038      -164.3850
  21   2.0000      -6.038368      -164.3124
  22   2.0000      -6.037171      -164.2798
  23   2.0000      -6.033470      -164.1791
  24   2.0000      -1.006791       -27.3962
  25   2.0000      -0.982436       -26.7334
  26   2.0000      -0.914000       -24.8712
  27   2.0000      -0.911501       -24.8032
  28   2.0000      -0.864432       -23.5224
  29   2.0000      -0.847490       -23.0614
  30   2.0000      -0.845313       -23.0021
  31   2.0000      -0.809759       -22.0347
  32   2.0000      -0.786880       -21.4121
  33   2.0000      -0.776585       -21.1320
  34   2.0000      -0.712701       -19.3936
  35   2.0000      -0.706087       -19.2136
  36   2.0000      -0.683568       -18.6008
  37   2.0000      -0.660349       -17.9690
  38   2.0000      -0.636475       -17.3194
  39   2.0000      -0.613514       -16.6946
  40   2.0000      -0.590262       -16.0618
  41   2.0000      -0.579803       -15.7773
  42   2.0000      -0.561341       -15.2749
  43   2.0000      -0.556095       -15.1321
  44   2.0000      -0.544015       -14.8034
  45   2.0000      -0.539583       -14.6828
  46   2.0000      -0.512672       -13.9505
  47   2.0000      -0.506785       -13.7903
  48   2.0000      -0.498260       -13.5583
  49   2.0000      -0.491045       -13.3620
  50   2.0000      -0.483865       -13.1666
  51   2.0000      -0.478828       -13.0296
  52   2.0000      -0.467482       -12.7208
  53   2.0000      -0.465572       -12.6689
  54   2.0000      -0.463642       -12.6163
  55   2.0000      -0.447694       -12.1824
  56   2.0000      -0.445064       -12.1108
  57   2.0000      -0.436250       -11.8710
  58   2.0000      -0.426548       -11.6069
  59   2.0000      -0.424146       -11.5416
  60   2.0000      -0.422291       -11.4911
  61   2.0000      -0.416165       -11.3244
  62   2.0000      -0.407421       -11.0865
  63   2.0000      -0.342678        -9.3247
  64   2.0000      -0.334444        -9.1007
  65   2.0000      -0.330661        -8.9977
  66   2.0000      -0.287255        -7.8166
  67   0.0000       0.029260         0.7962
  68   0.0000       0.061429         1.6716
  69   0.0000       0.112899         3.0722
  70   0.0000       0.120215         3.2712
  71   0.0000       0.128772         3.5041

MULLIKEN ATOMIC CHARGES
-----------------------
   0 S :    0.130752
   1 C :   -0.074471
   2 C :   -0.106233
   3 C :    0.008768
   4 C :   -0.149719
   5 H :    0.023127
   6 C :    0.079566
   7 H :    0.055253
   8 H :   -0.000618
   9 C :   -0.057416
  10 H :    0.013290
  11 H :    0.010665
  12 C :   -0.064171
  13 H :    0.047201
  14 H :    0.035187
  15 H :    0.037611
  16 S :    0.110848
  17 C :   -0.100447
  18 C :   -0.035511
  19 C :   -0.040602
  20 C :   -0.145674
  21 H :    0.041944
  22 C :    0.073833
  23 H :    0.011943
  24 H :    0.016587
  25 C :   -0.063496
  26 H :    0.031691
  27 H :    0.050520
  28 C :   -0.055632
  29 H :    0.037295
  30 H :    0.020327
  31 H :    0.007745
  32 H :    0.000899
  33 H :    0.048939
Sum of atomic charges:    0.0000000

LOEWDIN ATOMIC CHARGES
----------------------
   0 S :    0.438194
   1 C :   -0.186898
   2 C :   -0.062731
   3 C :   -0.069840
   4 C :   -0.220769
   5 H :    0.032552
   6 C :   -0.023602
   7 H :    0.047807
   8 H :    0.016561
   9 C :   -0.036404
  10 H :    0.016889
  11 H :    0.015686
  12 C :   -0.067592
  13 H :    0.028410
  14 H :    0.027039
  15 H :    0.032056
  16 S :    0.400563
  17 C :   -0.176655
  18 C :   -0.073013
  19 C :   -0.051829
  20 C :   -0.197016
  21 H :    0.044818
  22 C :   -0.041738
  23 H :    0.033299
  24 H :    0.026941
  25 C :   -0.041086
  26 H :    0.030251
  27 H :    0.034254
  28 C :   -0.079927
  29 H :    0.028680
  30 H :    0.025525
  31 H :    0.021741
  32 H :    0.007509
  33 H :    0.020325

  Mayer bond orders larger than 0.100000
B(  0-S ,  1-C ) :   1.1460 B(  0-S ,  4-C ) :   1.1798 B(  1-C ,  2-C ) :   1.5762
B(  1-C ,  4-C ) :   0.1051 B(  1-C , 32-H ) :   0.9736 B(  2-C ,  3-C ) :   1.3100
B(  2-C ,  6-C ) :   1.0198 B(  3-C ,  4-C ) :   1.5068 B(  3-C ,  5-H ) :   0.9816
B(  4-C , 20-C ) :   1.0369 B(  6-C ,  7-H ) :   0.9406 B(  6-C ,  8-H ) :   0.9441
B(  6-C ,  9-C ) :   1.0629 B(  9-C , 10-H ) :   0.9592 B(  9-C , 11-H ) :   0.9625
B(  9-C , 12-C ) :   1.0581 B( 12-C , 13-H ) :   0.9800 B( 12-C , 14-H ) :   0.9782
B( 12-C , 15-H ) :   0.9803 B( 16-S , 17-C ) :   1.1734 B( 16-S , 20-C ) :   1.1368
B( 17-C , 18-C ) :   1.5915 B( 17-C , 20-C ) :   0.1034 B( 17-C , 33-H ) :   0.9670
B( 18-C , 19-C ) :   1.2537 B( 18-C , 21-H ) :   0.9856 B( 19-C , 20-C ) :   1.5714
B( 19-C , 22-C ) :   1.0459 B( 22-C , 23-H ) :   0.9331 B( 22-C , 24-H ) :   0.9260
B( 22-C , 25-C ) :   1.0856 B( 25-C , 26-H ) :   0.9527 B( 25-C , 27-H ) :   0.9500
B( 25-C , 28-C ) :   1.0783 B( 28-C , 29-H ) :   0.9700 B( 28-C , 30-H ) :   0.9736
B( 28-C , 31-H ) :   0.9689

Dispersion correction           -0.014600801
FINAL SINGLE POINT ENERGY     -1339.857837728171

DIPOLE MOMENT
-------------
                                X             Y             Z
Electronic contribution:    -15.65419      10.19942      -6.59208
Nuclear contribution   :     16.02418     -10.49819       6.93151
                        -----------------------------------------
Total Dipole Moment    :      0.36998      -0.29877       0.33943
                        -----------------------------------------
Magnitude (a.u.)       :      0.58426
Magnitude (Debye)      :      1.48508

Rotational constants in cm-1:     0.020595     0.007977     0.007207
Rotational constants in MHz :   617.417816   239.133042   216.069208

                             ****ORCA TERMINATED NORMALLY****
TOTAL RUN TIME: 0 days 0 hours 0 minutes 21 seconds 827 msec
