                         Program Version 4.2.1 -  RELEASE  -
|  1> ! wB97X-D3 SP def2-SVP
|  2> %pal
|  3> nprocs 24
|  4> end
|  5>
|  6> * xyz 0 1
|  7> S 	 -95.9756 	 45.3626 	 -89.031
|  8> C 	 -94.8654 	 44.532 	 -87.9181
|  9> C 	 -94.5622 	 43.2553 	 -88.2781
| 10> C 	 -95.4365 	 42.8634 	 -89.35
| 11> C 	 -96.3909 	 43.7413 	 -89.7059
| 12> H 	 -95.3015 	 41.9363 	 -89.8806
| 13> C 	 -93.5802 	 42.3389 	 -87.5989
| 14> H 	 -93.0922 	 42.9175 	 -86.7597
| 15> H 	 -92.7836 	 42.0404 	 -88.2911
| 16> C 	 -94.1663 	 41.0931 	 -86.8411
| 17> H 	 -94.5311 	 41.427 	 -85.8193
| 18> H 	 -95.0898 	 40.562 	 -87.3062
| 19> C 	 -93.0641 	 39.9263 	 -86.7089
| 20> H 	 -92.6268 	 39.7885 	 -87.648
| 21> H 	 -92.362 	 40.1859 	 -85.9452
| 22> H 	 -93.5411 	 39.0579 	 -86.3646
| 23> S 	 -98.5651 	 45.0362 	 -90.729
| 24> C 	 -99.3893 	 44.4183 	 -92.0727
| 25> C 	 -99.1051 	 43.0754 	 -92.1506
| 26> C 	 -98.0765 	 42.6097 	 -91.3159
| 27> C 	 -97.4865 	 43.6165 	 -90.6197
| 28> H 	 -99.7549 	 42.4831 	 -92.8527
| 29> C 	 -97.6927 	 41.1192 	 -91.2438
| 30> H 	 -96.6344 	 40.9716 	 -91.1085
| 31> H 	 -97.934 	 40.6693 	 -92.2498
| 32> C 	 -98.5087 	 40.4358 	 -90.1099
| 33> H 	 -98.323 	 40.92 	 -89.1602
| 34> H 	 -98.2588 	 39.3831 	 -90.0557
| 35> C 	 -100.004 	 40.5269 	 -90.3761
| 36> H 	 -100.524 	 39.9689 	 -89.5954
| 37> H 	 -100.251 	 40.1385 	 -91.2838
| 38> H 	 -100.386 	 41.5635 	 -90.2262
| 39> H 	 -94.3683 	 45.0317 	 -87.1299
| 40> H 	 -100.12 	 44.8628 	 -92.7024
| 41> *
| 42>
| 43>                          ****END OF INPUT****

CARTESIAN COORDINATES (ANGSTROEM)
---------------------------------
  S    -95.975600   45.362600  -89.031000
  C    -94.865400   44.532000  -87.918100
  C    -94.562200   43.255300  -88.278100
  C    -95.436500   42.863400  -89.350000
  C    -96.390900   43.741300  -89.705900
  H    -95.301500   41.936300  -89.880600
  C    -93.580200   42.338900  -87.598900
  H    -93.092200   42.917500  -86.759700
  H    -92.783600   42.040400  -88.291100
  C    -94.166300   41.093100  -86.841100
  H    -94.531100   41.427000  -85.819300
  H    -95.089800   40.562000  -87.306200
  C    -93.064100   39.926300  -86.708900
  H    -92.626800   39.788500  -87.648000
  H    -92.362000   40.185900  -85.945200
  H    -93.541100   39.057900  -86.364600
  S    -98.565100   45.036200  -90.729000
  C    -99.389300   44.418300  -92.072700
  C    -99.105100   43.075400  -92.150600
  C    -98.076500   42.609700  -91.315900
  C    -97.486500   43.616500  -90.619700
  H    -99.754900   42.483100  -92.852700
  C    -97.692700   41.119200  -91.243800
  H    -96.634400   40.971600  -91.108500
  H    -97.934000   40.669300  -92.249800
  C    -98.508700   40.435800  -90.109900
  H    -98.323000   40.920000  -89.160200
  H    -98.258800   39.383100  -90.055700
  C    -100.004000   40.526900  -90.376100
  H    -100.524000   39.968900  -89.595400
  H    -100.251000   40.138500  -91.283800
  H    -100.386000   41.563500  -90.226200
  H    -94.368300   45.031700  -87.129900
  H    -100.120000   44.862800  -92.702400

 Total Charge           Charge          ....    0
 Multiplicity           Mult            ....    1
 Number of Electrons    NEL             ....  134
 Basis Dimension        Dim             ....  322

ORBITAL ENERGIES
----------------

  NO   OCC          E(Eh)            E(eV)
   0   2.0000     -88.962132     -2420.7827
   1   2.0000     -88.960804     -2420.7465
   2   2.0000     -10.330037      -281.0946
   3   2.0000     -10.325508      -280.9714
   4   2.0000     -10.310113      -280.5524
   5   2.0000     -10.309712      -280.5415
   6   2.0000     -10.304863      -280.4096
   7   2.0000     -10.303503      -280.3726
   8   2.0000     -10.300981      -280.3039
   9   2.0000     -10.299702      -280.2691
  10   2.0000     -10.298168      -280.2274
  11   2.0000     -10.291992      -280.0593
  12   2.0000     -10.289489      -279.9912
  13   2.0000     -10.284642      -279.8593
  14   2.0000     -10.274310      -279.5782
  15   2.0000     -10.267447      -279.3914
  16   2.0000      -8.076345      -219.7685
  17   2.0000      -8.075975      -219.7584
  18   2.0000      -6.034888      -164.2176
  19   2.0000      -6.034745      -164.2137
  20   2.0000      -6.031052      -164.1133
  21   2.0000      -6.030835      -164.1074
  22   2.0000      -6.026898      -164.0002
  23   2.0000      -6.026056      -163.9773
  24   2.0000      -1.013325       -27.5740
  25   2.0000      -0.986939       -26.8560
  26   2.0000      -0.911232       -24.7959
  27   2.0000      -0.904279       -24.6067
  28   2.0000      -0.871470       -23.7139
  29   2.0000      -0.851783       -23.1782
  30   2.0000      -0.838824       -22.8256
  31   2.0000      -0.817967       -22.2580
  32   2.0000      -0.785308       -21.3693
  33   2.0000      -0.775454       -21.1012
  34   2.0000      -0.712676       -19.3929
  35   2.0000      -0.696782       -18.9604
  36   2.0000      -0.693063       -18.8592
  37   2.0000      -0.662811       -18.0360
  38   2.0000      -0.640119       -17.4185
  39   2.0000      -0.624240       -16.9864
  40   2.0000      -0.596310       -16.2264
  41   2.0000      -0.566515       -15.4157
  42   2.0000      -0.561607       -15.2821
  43   2.0000      -0.554582       -15.0909
  44   2.0000      -0.544628       -14.8201
  45   2.0000      -0.527043       -14.3416
  46   2.0000      -0.520395       -14.1607
  47   2.0000      -0.512201       -13.9377
  48   2.0000      -0.509554       -13.8657
  49   2.0000      -0.496646       -13.5144
  50   2.0000      -0.491231       -13.3671
  51   2.0000      -0.480245       -13.0681
  52   2.0000      -0.477694       -12.9987
  53   2.0000      -0.462858       -12.5950
  54   2.0000      -0.454922       -12.3791
  55   2.0000      -0.447618       -12.1803
  56   2.0000      -0.443948       -12.0804
  57   2.0000      -0.437971       -11.9178
  58   2.0000      -0.432507       -11.7691
  59   2.0000      -0.426169       -11.5966
  60   2.0000      -0.420350       -11.4383
  61   2.0000      -0.414564       -11.2809
  62   2.0000      -0.407522       -11.0892
  63   2.0000      -0.365633        -9.9494
  64   2.0000      -0.329037        -8.9535
  65   2.0000      -0.325637        -8.8610
  66   2.0000      -0.279788        -7.6134
  67   0.0000       0.015454         0.4205
  68   0.0000       0.081389         2.2147
  69   0.0000       0.090007         2.4492
  70   0.0000       0.115061         3.1310
  71   0.0000       0.132583         3.6078

MULLIKEN ATOMIC CHARGES
-----------------------
   0 S :    0.082124
   1 C :   -0.102852
   2 C :   -0.051236
   3 C :   -0.043096
   4 C :   -0.058069
   5 H :   -0.003661
   6 C :    0.057347
   7 H :    0.030983
   8 H :    0.042475
   9 C :   -0.156403
  10 H :    0.042845
  11 H :    0.049031
  12 C :   -0.011347
  13 H :    0.027547
  14 H :    0.030416
  15 H :    0.023317
  16 S :    0.082445
  17 C :   -0.051632
  18 C :   -0.083151
  19 C :   -0.059466
  20 C :   -0.111071
  21 H :    0.029102
  22 C :    0.051339
  23 H :    0.024162
  24 H :    0.030402
  25 C :   -0.050126
  26 H :    0.034305
  27 H :    0.029388
  28 C :   -0.039040
  29 H :    0.025586
  30 H :    0.007701
  31 H :    0.052881
  32 H :    0.024630
  33 H :    0.043122
Sum of atomic charges:   -0.0000000

LOEWDIN ATOMIC CHARGES
----------------------
   0 S :    0.353009
   1 C :   -0.170043
   2 C :   -0.063826
   3 C :   -0.064152
   4 C :   -0.160897
   5 H :    0.025984
   6 C :   -0.037055
   7 H :    0.040340
   8 H :    0.033459
   9 C :   -0.047534
  10 H :    0.027694
  11 H :    0.028571
  12 C :   -0.052653
  13 H :    0.016754
  14 H :    0.023151
  15 H :    0.020653
  16 S :    0.404553
  17 C :   -0.196966
  18 C :   -0.081076
  19 C :   -0.062889
  20 C :   -0.175333
  21 H :    0.036645
  22 C :   -0.026433
  23 H :    0.021683
  24 H :    0.033685
  25 C :   -0.031554
  26 H :    0.026617
  27 H :    0.022114
  28 C :   -0.058466
  29 H :    0.027605
  30 H :    0.006320
  31 H :    0.034145
  32 H :    0.016852
  33 H :    0.029043

  Mayer bond orders larger than 0.100000
B(  0-S ,  1-C ) :   1.1056 B(  0-S ,  4-C ) :   1.0943 B(  1-C ,  2-C ) :   1.6688
B(  1-C , 32-H ) :   0.9659 B(  2-C ,  3-C ) :   1.1827 B(  2-C ,  6-C ) :   1.0368
B(  3-C ,  4-C ) :   1.6299 B(  3-C ,  5-H ) :   0.9977 B(  4-C , 20-C ) :   1.1158
B(  6-C ,  7-H ) :   0.9409 B(  6-C ,  8-H ) :   0.9428 B(  6-C ,  9-C ) :   1.0291
B(  9-C , 10-H ) :   0.9616 B(  9-C , 11-H ) :   0.9685 B(  9-C , 12-C ) :   1.0601
B( 12-C , 13-H ) :   0.9809 B( 12-C , 14-H ) :   0.9790 B( 12-C , 15-H ) :   0.9766
B( 16-S , 17-C ) :   1.1544 B( 16-S , 20-C ) :   1.1274 B( 17-C , 18-C ) :   1.5992
B( 17-C , 20-C ) :   0.1054 B( 17-C , 33-H ) :   0.9737 B( 18-C , 19-C ) :   1.2483
B( 18-C , 21-H ) :   0.9820 B( 19-C , 20-C ) :   1.5934 B( 19-C , 22-C ) :   1.0228
B( 22-C , 23-H ) :   0.9434 B( 22-C , 24-H ) :   0.9400 B( 22-C , 25-C ) :   1.0663
B( 25-C , 26-H ) :   0.9542 B( 25-C , 27-H ) :   0.9586 B( 25-C , 28-C ) :   1.0909
B( 28-C , 29-H ) :   0.9695 B( 28-C , 30-H ) :   0.9760 B( 28-C , 31-H ) :   0.9679

Dispersion correction           -0.014471139
FINAL SINGLE POINT ENERGY     -1339.856421068383

DIPOLE MOMENT
-------------
                                X             Y             Z
Electronic contribution:     -5.30516      28.17489      -8.40452
Nuclear contribution   :      5.40916     -28.97891       8.46341
                        -----------------------------------------
Total Dipole Moment    :      0.10400      -0.80403       0.05888
                        -----------------------------------------
Magnitude (a.u.)       :      0.81286
Magnitude (Debye)      :      2.06613

Rotational constants in cm-1:     0.019343     0.009117     0.006568
Rotational constants in MHz :   579.878250   273.335447   196.909822

                             ****ORCA TERMINATED NORMALLY****
TOTAL RUN TIME: 0 days 0 hours 0 minutes 20 seconds 896 msec
