                         Program Version 4.2.1 -  RELEASE  -
|  1> ! wB97X-D3 SP def2-SVP
|  2> %pal
|  3> nprocs 24
|  4> end
|  5>
|  6> * xyz 0 1
|  7> S 	 -42.2444 	 -2.50184 	 -23.6639
|  8> C 	 -43.6874 	 -3.23431 	 -24.2609
|  9> C 	 -44.4479 	 -3.85231 	 -23.2613
| 10> C 	 -43.8234 	 -3.69853 	 -21.9836
| 11> C 	 -42.6922 	 -2.8878 	 -22.0057
| 12> H 	 -44.2249 	 -4.08536 	 -21.1238
| 13> C 	 -45.7738 	 -4.56932 	 -23.5194
| 14> H 	 -46.3479 	 -3.91687 	 -24.0875
| 15> H 	 -46.3121 	 -4.71739 	 -22.6063
| 16> C 	 -45.64 	 -5.95361 	 -24.1296
| 17> H 	 -46.6807 	 -6.305 	 -24.4169
| 18> H 	 -45.0087 	 -6.05565 	 -24.9998
| 19> C 	 -45.2059 	 -7.02187 	 -23.116
| 20> H 	 -45.8352 	 -6.99223 	 -22.2999
| 21> H 	 -45.0698 	 -7.96797 	 -23.5844
| 22> H 	 -44.1848 	 -6.75929 	 -22.7764
| 23> S 	 -40.1926 	 -3.33085 	 -20.9613
| 24> C 	 -39.8183 	 -2.65922 	 -19.3365
| 25> C 	 -40.8607 	 -1.83764 	 -18.8477
| 26> C 	 -41.9823 	 -1.89412 	 -19.6942
| 27> C 	 -41.8115 	 -2.56332 	 -20.8873
| 28> H 	 -40.8454 	 -1.33918 	 -17.933
| 29> C 	 -43.2259 	 -1.09052 	 -19.3708
| 30> H 	 -43.9895 	 -1.39369 	 -20.0609
| 31> H 	 -43.0778 	 -0.0599982 	 -19.6403
| 32> C 	 -43.6819 	 -1.30056 	 -17.8761
| 33> H 	 -42.9542 	 -0.949299 	 -17.2393
| 34> H 	 -43.9264 	 -2.32097 	 -17.5586
| 35> C 	 -44.9142 	 -0.473618 	 -17.4741
| 36> H 	 -44.9192 	 0.512155 	 -17.8533
| 37> H 	 -45.1288 	 -0.44951 	 -16.4142
| 38> H 	 -45.7043 	 -0.973181 	 -18.0242
| 39> H 	 -44.0861 	 -3.27894 	 -25.2464
| 40> H 	 -38.8696 	 -2.83199 	 -18.7736
| 41> *
| 42>
| 43>                          ****END OF INPUT****

CARTESIAN COORDINATES (ANGSTROEM)
---------------------------------
  S    -42.244400   -2.501840  -23.663900
  C    -43.687400   -3.234310  -24.260900
  C    -44.447900   -3.852310  -23.261300
  C    -43.823400   -3.698530  -21.983600
  C    -42.692200   -2.887800  -22.005700
  H    -44.224900   -4.085360  -21.123800
  C    -45.773800   -4.569320  -23.519400
  H    -46.347900   -3.916870  -24.087500
  H    -46.312100   -4.717390  -22.606300
  C    -45.640000   -5.953610  -24.129600
  H    -46.680700   -6.305000  -24.416900
  H    -45.008700   -6.055650  -24.999800
  C    -45.205900   -7.021870  -23.116000
  H    -45.835200   -6.992230  -22.299900
  H    -45.069800   -7.967970  -23.584400
  H    -44.184800   -6.759290  -22.776400
  S    -40.192600   -3.330850  -20.961300
  C    -39.818300   -2.659220  -19.336500
  C    -40.860700   -1.837640  -18.847700
  C    -41.982300   -1.894120  -19.694200
  C    -41.811500   -2.563320  -20.887300
  H    -40.845400   -1.339180  -17.933000
  C    -43.225900   -1.090520  -19.370800
  H    -43.989500   -1.393690  -20.060900
  H    -43.077800   -0.059998  -19.640300
  C    -43.681900   -1.300560  -17.876100
  H    -42.954200   -0.949299  -17.239300
  H    -43.926400   -2.320970  -17.558600
  C    -44.914200   -0.473618  -17.474100
  H    -44.919200    0.512155  -17.853300
  H    -45.128800   -0.449510  -16.414200
  H    -45.704300   -0.973181  -18.024200
  H    -44.086100   -3.278940  -25.246400
  H    -38.869600   -2.831990  -18.773600

 Total Charge           Charge          ....    0
 Multiplicity           Mult            ....    1
 Number of Electrons    NEL             ....  134
 Basis Dimension        Dim             ....  322

ORBITAL ENERGIES
----------------

  NO   OCC          E(Eh)            E(eV)
   0   2.0000     -88.970392     -2421.0075
   1   2.0000     -88.965984     -2420.8875
   2   2.0000     -10.330384      -281.1041
   3   2.0000     -10.328112      -281.0422
   4   2.0000     -10.326203      -280.9903
   5   2.0000     -10.310618      -280.5662
   6   2.0000     -10.299968      -280.2764
   7   2.0000     -10.299870      -280.2737
   8   2.0000     -10.292186      -280.0646
   9   2.0000     -10.289951      -280.0038
  10   2.0000     -10.289751      -279.9984
  11   2.0000     -10.287835      -279.9462
  12   2.0000     -10.287278      -279.9311
  13   2.0000     -10.283364      -279.8246
  14   2.0000     -10.270223      -279.4670
  15   2.0000     -10.267835      -279.4020
  16   2.0000      -8.084970      -220.0032
  17   2.0000      -8.079323      -219.8496
  18   2.0000      -6.043451      -164.4507
  19   2.0000      -6.039461      -164.3421
  20   2.0000      -6.037897      -164.2995
  21   2.0000      -6.035820      -164.2430
  22   2.0000      -6.034081      -164.1957
  23   2.0000      -6.030033      -164.0855
  24   2.0000      -1.002499       -27.2794
  25   2.0000      -0.978715       -26.6322
  26   2.0000      -0.915362       -24.9083
  27   2.0000      -0.904675       -24.6174
  28   2.0000      -0.866194       -23.5703
  29   2.0000      -0.852979       -23.2107
  30   2.0000      -0.848584       -23.0911
  31   2.0000      -0.814792       -22.1716
  32   2.0000      -0.785256       -21.3679
  33   2.0000      -0.769049       -20.9269
  34   2.0000      -0.708323       -19.2745
  35   2.0000      -0.700686       -19.0666
  36   2.0000      -0.696737       -18.9592
  37   2.0000      -0.664707       -18.0876
  38   2.0000      -0.643001       -17.4969
  39   2.0000      -0.618592       -16.8328
  40   2.0000      -0.592736       -16.1292
  41   2.0000      -0.580020       -15.7831
  42   2.0000      -0.566585       -15.4176
  43   2.0000      -0.558058       -15.1855
  44   2.0000      -0.542856       -14.7719
  45   2.0000      -0.531413       -14.4605
  46   2.0000      -0.516331       -14.0501
  47   2.0000      -0.514085       -13.9890
  48   2.0000      -0.509409       -13.8617
  49   2.0000      -0.495272       -13.4770
  50   2.0000      -0.485479       -13.2106
  51   2.0000      -0.475135       -12.9291
  52   2.0000      -0.469380       -12.7725
  53   2.0000      -0.461429       -12.5561
  54   2.0000      -0.455268       -12.3885
  55   2.0000      -0.452280       -12.3072
  56   2.0000      -0.448458       -12.2032
  57   2.0000      -0.442494       -12.0409
  58   2.0000      -0.440448       -11.9852
  59   2.0000      -0.428173       -11.6512
  60   2.0000      -0.420595       -11.4450
  61   2.0000      -0.415089       -11.2951
  62   2.0000      -0.408145       -11.1062
  63   2.0000      -0.342147        -9.3103
  64   2.0000      -0.331757        -9.0276
  65   2.0000      -0.328936        -8.9508
  66   2.0000      -0.292649        -7.9634
  67   0.0000       0.033486         0.9112
  68   0.0000       0.055321         1.5053
  69   0.0000       0.110597         3.0095
  70   0.0000       0.124887         3.3983
  71   0.0000       0.128233         3.4894

MULLIKEN ATOMIC CHARGES
-----------------------
   0 S :    0.130368
   1 C :   -0.088108
   2 C :   -0.143371
   3 C :    0.100525
   4 C :   -0.187924
   5 H :   -0.027852
   6 C :    0.132325
   7 H :    0.016673
   8 H :    0.005077
   9 C :   -0.094944
  10 H :    0.028820
  11 H :    0.028519
  12 C :   -0.020068
  13 H :    0.012033
  14 H :    0.030533
  15 H :    0.027369
  16 S :    0.097122
  17 C :   -0.111196
  18 C :   -0.002015
  19 C :   -0.028272
  20 C :   -0.151505
  21 H :    0.001000
  22 C :    0.091479
  23 H :    0.011725
  24 H :    0.037322
  25 C :   -0.087548
  26 H :    0.010237
  27 H :    0.037004
  28 C :   -0.028536
  29 H :    0.015363
  30 H :    0.037706
  31 H :    0.017307
  32 H :    0.028691
  33 H :    0.074142
Sum of atomic charges:    0.0000000

LOEWDIN ATOMIC CHARGES
----------------------
   0 S :    0.421458
   1 C :   -0.204758
   2 C :   -0.058889
   3 C :   -0.046206
   4 C :   -0.198636
   5 H :    0.015437
   6 C :   -0.023721
   7 H :    0.024641
   8 H :    0.028563
   9 C :   -0.037686
  10 H :    0.027096
  11 H :    0.019500
  12 C :   -0.055489
  13 H :    0.010430
  14 H :    0.024283
  15 H :    0.027840
  16 S :    0.373161
  17 C :   -0.170004
  18 C :   -0.061936
  19 C :   -0.054333
  20 C :   -0.191693
  21 H :    0.022476
  22 C :   -0.021645
  23 H :    0.025814
  24 H :    0.034595
  25 C :   -0.032775
  26 H :    0.007275
  27 H :    0.029709
  28 C :   -0.061297
  29 H :    0.016480
  30 H :    0.025807
  31 H :    0.023684
  32 H :    0.023832
  33 H :    0.036989

  Mayer bond orders larger than 0.100000
B(  0-S ,  1-C ) :   1.1492 B(  0-S ,  4-C ) :   1.1552 B(  1-C ,  2-C ) :   1.6020
B(  1-C ,  4-C ) :   0.1004 B(  1-C , 32-H ) :   0.9652 B(  2-C ,  3-C ) :   1.2643
B(  2-C ,  6-C ) :   1.0139 B(  3-C ,  4-C ) :   1.5479 B(  3-C ,  5-H ) :   1.0064
B(  4-C , 20-C ) :   1.0225 B(  6-C ,  7-H ) :   0.9351 B(  6-C ,  8-H ) :   0.9380
B(  6-C ,  9-C ) :   1.0697 B(  9-C , 10-H ) :   0.9546 B(  9-C , 11-H ) :   0.9612
B(  9-C , 12-C ) :   1.0805 B( 12-C , 13-H ) :   0.9754 B( 12-C , 14-H ) :   0.9728
B( 12-C , 15-H ) :   0.9745 B( 16-S , 17-C ) :   1.1561 B( 16-S , 20-C ) :   1.1221
B( 17-C , 18-C ) :   1.5949 B( 17-C , 20-C ) :   0.1068 B( 17-C , 33-H ) :   0.9613
B( 18-C , 19-C ) :   1.2404 B( 18-C , 21-H ) :   0.9959 B( 19-C , 20-C ) :   1.6232
B( 19-C , 22-C ) :   1.0439 B( 22-C , 23-H ) :   0.9324 B( 22-C , 24-H ) :   0.9355
B( 22-C , 25-C ) :   1.0477 B( 25-C , 26-H ) :   0.9568 B( 25-C , 27-H ) :   0.9629
B( 25-C , 28-C ) :   1.0857 B( 28-C , 29-H ) :   0.9726 B( 28-C , 30-H ) :   0.9754
B( 28-C , 31-H ) :   0.9766

Dispersion correction           -0.013841372
FINAL SINGLE POINT ENERGY     -1339.865455856692

DIPOLE MOMENT
-------------
                                X             Y             Z
Electronic contribution:     22.90787       4.62920      -9.75893
Nuclear contribution   :    -23.45151      -4.65042      10.08116
                        -----------------------------------------
Total Dipole Moment    :     -0.54365      -0.02122       0.32224
                        -----------------------------------------
Magnitude (a.u.)       :      0.63233
Magnitude (Debye)      :      1.60725

Rotational constants in cm-1:     0.017635     0.008149     0.006698
Rotational constants in MHz :   528.692533   244.298401   200.791021

                             ****ORCA TERMINATED NORMALLY****
TOTAL RUN TIME: 0 days 0 hours 0 minutes 21 seconds 253 msec
