                         Program Version 4.2.1 -  RELEASE  -
|  1> ! wB97X-D3 SP def2-SVP
|  2> %pal
|  3> nprocs 24
|  4> end
|  5>
|  6> * xyz 0 1
|  7> S 	 -43.4814 	 21.495 	 29.5891
|  8> C 	 -42.2957 	 20.2713 	 29.2639
|  9> C 	 -41.0794 	 20.52 	 29.8258
| 10> C 	 -41.0721 	 21.7124 	 30.5765
| 11> C 	 -42.3245 	 22.321 	 30.6661
| 12> H 	 -40.3097 	 22.1963 	 31.1517
| 13> C 	 -39.7882 	 19.7435 	 29.4846
| 14> H 	 -39.098 	 20.5723 	 29.2648
| 15> H 	 -40.0864 	 19.1804 	 28.5097
| 16> C 	 -39.1102 	 18.8368 	 30.5761
| 17> H 	 -38.0959 	 18.8366 	 30.1792
| 18> H 	 -38.9672 	 19.3442 	 31.5191
| 19> C 	 -39.7505 	 17.4659 	 30.836
| 20> H 	 -39.7251 	 16.9817 	 29.8364
| 21> H 	 -39.1788 	 16.8089 	 31.5356
| 22> H 	 -40.8223 	 17.4755 	 31.1145
| 23> S 	 -42.5956 	 23.6009 	 33.0563
| 24> C 	 -42.9335 	 25.3548 	 33.0796
| 25> C 	 -43.2246 	 25.8062 	 31.843
| 26> C 	 -43.1508 	 24.8061 	 30.8846
| 27> C 	 -42.581 	 23.6375 	 31.3172
| 28> H 	 -43.4373 	 26.7907 	 31.6714
| 29> C 	 -43.4763 	 25.0939 	 29.398
| 30> H 	 -44.4201 	 25.6151 	 29.3406
| 31> H 	 -43.6895 	 24.2107 	 28.8405
| 32> C 	 -42.4039 	 25.8467 	 28.6142
| 33> H 	 -41.9215 	 26.5583 	 29.33
| 34> H 	 -42.9657 	 26.4282 	 27.8522
| 35> C 	 -41.3732 	 24.9328 	 27.9855
| 36> H 	 -41.1062 	 24.1511 	 28.663
| 37> H 	 -40.4929 	 25.4048 	 27.6291
| 38> H 	 -41.6995 	 24.4738 	 27.101
| 39> H 	 -42.3832 	 19.4936 	 28.4353
| 40> H 	 -43.0066 	 25.8934 	 33.9795
| 41> *
| 42>
| 43>                          ****END OF INPUT****

CARTESIAN COORDINATES (ANGSTROEM)
---------------------------------
  S    -43.481400   21.495000   29.589100
  C    -42.295700   20.271300   29.263900
  C    -41.079400   20.520000   29.825800
  C    -41.072100   21.712400   30.576500
  C    -42.324500   22.321000   30.666100
  H    -40.309700   22.196300   31.151700
  C    -39.788200   19.743500   29.484600
  H    -39.098000   20.572300   29.264800
  H    -40.086400   19.180400   28.509700
  C    -39.110200   18.836800   30.576100
  H    -38.095900   18.836600   30.179200
  H    -38.967200   19.344200   31.519100
  C    -39.750500   17.465900   30.836000
  H    -39.725100   16.981700   29.836400
  H    -39.178800   16.808900   31.535600
  H    -40.822300   17.475500   31.114500
  S    -42.595600   23.600900   33.056300
  C    -42.933500   25.354800   33.079600
  C    -43.224600   25.806200   31.843000
  C    -43.150800   24.806100   30.884600
  C    -42.581000   23.637500   31.317200
  H    -43.437300   26.790700   31.671400
  C    -43.476300   25.093900   29.398000
  H    -44.420100   25.615100   29.340600
  H    -43.689500   24.210700   28.840500
  C    -42.403900   25.846700   28.614200
  H    -41.921500   26.558300   29.330000
  H    -42.965700   26.428200   27.852200
  C    -41.373200   24.932800   27.985500
  H    -41.106200   24.151100   28.663000
  H    -40.492900   25.404800   27.629100
  H    -41.699500   24.473800   27.101000
  H    -42.383200   19.493600   28.435300
  H    -43.006600   25.893400   33.979500

 Total Charge           Charge          ....    0
 Multiplicity           Mult            ....    1
 Number of Electrons    NEL             ....  134
 Basis Dimension        Dim             ....  322

ORBITAL ENERGIES
----------------

  NO   OCC          E(Eh)            E(eV)
   0   2.0000     -88.968484     -2420.9555
   1   2.0000     -88.961667     -2420.7700
   2   2.0000     -10.332851      -281.1712
   3   2.0000     -10.324433      -280.9421
   4   2.0000     -10.315859      -280.7088
   5   2.0000     -10.313607      -280.6475
   6   2.0000     -10.306591      -280.4566
   7   2.0000     -10.298265      -280.2300
   8   2.0000     -10.297966      -280.2219
   9   2.0000     -10.293519      -280.1009
  10   2.0000     -10.291112      -280.0354
  11   2.0000     -10.285131      -279.8726
  12   2.0000     -10.284825      -279.8643
  13   2.0000     -10.283765      -279.8355
  14   2.0000     -10.281955      -279.7862
  15   2.0000     -10.259558      -279.1768
  16   2.0000      -8.082489      -219.9357
  17   2.0000      -8.076446      -219.7713
  18   2.0000      -6.040948      -164.3825
  19   2.0000      -6.037162      -164.2795
  20   2.0000      -6.034902      -164.2180
  21   2.0000      -6.033274      -164.1737
  22   2.0000      -6.031109      -164.1148
  23   2.0000      -6.027094      -164.0056
  24   2.0000      -1.008476       -27.4420
  25   2.0000      -0.988462       -26.8974
  26   2.0000      -0.906450       -24.6658
  27   2.0000      -0.902605       -24.5611
  28   2.0000      -0.871899       -23.7256
  29   2.0000      -0.850692       -23.1485
  30   2.0000      -0.843896       -22.9636
  31   2.0000      -0.817637       -22.2490
  32   2.0000      -0.782924       -21.3044
  33   2.0000      -0.773073       -21.0364
  34   2.0000      -0.706649       -19.2289
  35   2.0000      -0.696802       -18.9609
  36   2.0000      -0.690106       -18.7787
  37   2.0000      -0.669211       -18.2102
  38   2.0000      -0.638986       -17.3877
  39   2.0000      -0.615180       -16.7399
  40   2.0000      -0.603656       -16.4263
  41   2.0000      -0.567160       -15.4332
  42   2.0000      -0.557035       -15.1577
  43   2.0000      -0.546800       -14.8792
  44   2.0000      -0.534887       -14.5550
  45   2.0000      -0.531495       -14.4627
  46   2.0000      -0.513377       -13.9697
  47   2.0000      -0.511967       -13.9313
  48   2.0000      -0.500519       -13.6198
  49   2.0000      -0.492866       -13.4116
  50   2.0000      -0.486047       -13.2260
  51   2.0000      -0.482330       -13.1249
  52   2.0000      -0.476647       -12.9702
  53   2.0000      -0.466609       -12.6971
  54   2.0000      -0.453683       -12.3454
  55   2.0000      -0.450288       -12.2530
  56   2.0000      -0.440195       -11.9783
  57   2.0000      -0.437282       -11.8991
  58   2.0000      -0.434959       -11.8358
  59   2.0000      -0.428497       -11.6600
  60   2.0000      -0.418218       -11.3803
  61   2.0000      -0.409430       -11.1412
  62   2.0000      -0.407429       -11.0867
  63   2.0000      -0.344223        -9.3668
  64   2.0000      -0.335854        -9.1391
  65   2.0000      -0.326074        -8.8729
  66   2.0000      -0.299216        -8.1421
  67   0.0000       0.030632         0.8335
  68   0.0000       0.068233         1.8567
  69   0.0000       0.107559         2.9268
  70   0.0000       0.111480         3.0335
  71   0.0000       0.130014         3.5378

MULLIKEN ATOMIC CHARGES
-----------------------
   0 S :    0.116117
   1 C :   -0.149155
   2 C :   -0.052778
   3 C :    0.026230
   4 C :   -0.154685
   5 H :    0.010549
   6 C :    0.002669
   7 H :    0.038590
   8 H :    0.036665
   9 C :   -0.040518
  10 H :    0.028401
  11 H :    0.024174
  12 C :   -0.064698
  13 H :    0.023946
  14 H :    0.047989
  15 H :    0.051254
  16 S :    0.092374
  17 C :   -0.068722
  18 C :    0.015623
  19 C :   -0.044186
  20 C :   -0.164249
  21 H :   -0.015950
  22 C :    0.073287
  23 H :    0.016163
  24 H :   -0.001344
  25 C :   -0.068064
  26 H :    0.028250
  27 H :    0.028698
  28 C :    0.003106
  29 H :    0.026899
  30 H :    0.015139
  31 H :    0.010111
  32 H :    0.068804
  33 H :    0.039312
Sum of atomic charges:   -0.0000000

LOEWDIN ATOMIC CHARGES
----------------------
   0 S :    0.404045
   1 C :   -0.214195
   2 C :   -0.077629
   3 C :   -0.056871
   4 C :   -0.186353
   5 H :    0.030277
   6 C :   -0.031283
   7 H :    0.036329
   8 H :    0.038230
   9 C :   -0.045157
  10 H :    0.028137
  11 H :    0.022315
  12 C :   -0.073920
  13 H :    0.026588
  14 H :    0.032271
  15 H :    0.032461
  16 S :    0.394196
  17 C :   -0.153427
  18 C :   -0.058260
  19 C :   -0.057151
  20 C :   -0.200724
  21 H :    0.020885
  22 C :   -0.032498
  23 H :    0.028910
  24 H :    0.014015
  25 C :   -0.038413
  26 H :    0.024865
  27 H :    0.026110
  28 C :   -0.061461
  29 H :    0.025519
  30 H :    0.022154
  31 H :    0.019753
  32 H :    0.041676
  33 H :    0.018605

  Mayer bond orders larger than 0.100000
B(  0-S ,  1-C ) :   1.1428 B(  0-S ,  4-C ) :   1.1410 B(  1-C ,  2-C ) :   1.6279
B(  1-C , 32-H ) :   0.9494 B(  2-C ,  3-C ) :   1.2361 B(  2-C ,  6-C ) :   1.0006
B(  3-C ,  4-C ) :   1.5837 B(  3-C ,  5-H ) :   0.9941 B(  4-C , 20-C ) :   1.0126
B(  6-C ,  7-H ) :   0.9430 B(  6-C ,  8-H ) :   0.9471 B(  6-C ,  9-C ) :   1.0601
B(  9-C , 10-H ) :   0.9555 B(  9-C , 11-H ) :   0.9561 B(  9-C , 12-C ) :   1.0635
B( 12-C , 13-H ) :   0.9751 B( 12-C , 14-H ) :   0.9745 B( 12-C , 15-H ) :   0.9768
B( 16-S , 17-C ) :   1.1491 B( 16-S , 20-C ) :   1.1469 B( 17-C , 18-C ) :   1.6001
B( 17-C , 20-C ) :   0.1018 B( 17-C , 33-H ) :   0.9761 B( 18-C , 19-C ) :   1.2365
B( 18-C , 21-H ) :   1.0122 B( 19-C , 20-C ) :   1.6045 B( 19-C , 22-C ) :   1.0489
B( 22-C , 23-H ) :   0.9320 B( 22-C , 24-H ) :   0.9325 B( 22-C , 25-C ) :   1.0631
B( 25-C , 26-H ) :   0.9596 B( 25-C , 27-H ) :   0.9547 B( 25-C , 28-C ) :   1.0857
B( 28-C , 29-H ) :   0.9736 B( 28-C , 30-H ) :   0.9695 B( 28-C , 31-H ) :   0.9677

Dispersion correction           -0.015178479
FINAL SINGLE POINT ENERGY     -1339.866586185729

DIPOLE MOMENT
-------------
                                X             Y             Z
Electronic contribution:    -14.14508       5.45035      12.49675
Nuclear contribution   :     14.46479      -5.28865     -12.81063
                        -----------------------------------------
Total Dipole Moment    :      0.31971       0.16171      -0.31388
                        -----------------------------------------
Magnitude (a.u.)       :      0.47633
Magnitude (Debye)      :      1.21073

Rotational constants in cm-1:     0.021531     0.008186     0.007027
Rotational constants in MHz :   645.478490   245.420741   210.669658

                             ****ORCA TERMINATED NORMALLY****
TOTAL RUN TIME: 0 days 0 hours 0 minutes 22 seconds 33 msec
