                         Program Version 4.2.1 -  RELEASE  -
|  1> ! wB97X-D3 SP def2-SVP
|  2> %pal
|  3> nprocs 24
|  4> end
|  5>
|  6> * xyz 0 1
|  7> S 	 -102.524 	 62.1643 	 -5.96296
|  8> C 	 -102.604 	 63.4809 	 -4.77703
|  9> C 	 -103.887 	 63.9492 	 -4.68497
| 10> C 	 -104.732 	 63.408 	 -5.66655
| 11> C 	 -104.152 	 62.3784 	 -6.42236
| 12> H 	 -105.814 	 63.5942 	 -5.80978
| 13> C 	 -104.327 	 65.1111 	 -3.69839
| 14> H 	 -105.26 	 65.4731 	 -4.09771
| 15> H 	 -103.527 	 65.9327 	 -3.81099
| 16> C 	 -104.372 	 64.802 	 -2.28035
| 17> H 	 -104.941 	 63.8597 	 -2.18981
| 18> H 	 -103.362 	 64.5138 	 -1.93106
| 19> C 	 -105.015 	 65.9701 	 -1.49832
| 20> H 	 -105.126 	 65.4871 	 -0.488686
| 21> H 	 -104.432 	 66.8688 	 -1.45872
| 22> H 	 -106.038 	 66.1133 	 -1.83304
| 23> S 	 -103.636 	 60.9416 	 -8.76009
| 24> C 	 -104.938 	 60.6001 	 -9.85177
| 25> C 	 -106.172 	 60.7719 	 -9.22237
| 26> C 	 -106.096 	 61.3807 	 -7.90033
| 27> C 	 -104.753 	 61.6752 	 -7.58114
| 28> H 	 -107.03 	 60.5322 	 -9.71344
| 29> C 	 -107.376 	 61.7034 	 -7.31543
| 30> H 	 -107.22 	 61.6633 	 -6.16447
| 31> H 	 -108.1 	 60.948 	 -7.55035
| 32> C 	 -107.849 	 63.0678 	 -7.80059
| 33> H 	 -108.203 	 63.0569 	 -8.90226
| 34> H 	 -107.074 	 63.761 	 -7.66941
| 35> C 	 -109.053 	 63.6244 	 -6.96653
| 36> H 	 -108.81 	 63.8695 	 -5.9513
| 37> H 	 -109.91 	 62.8658 	 -6.83766
| 38> H 	 -109.497 	 64.5032 	 -7.49515
| 39> H 	 -101.766 	 63.8456 	 -4.12967
| 40> H 	 -104.761 	 60.1958 	 -10.8184
| 41> *
| 42>
| 43>                          ****END OF INPUT****

CARTESIAN COORDINATES (ANGSTROEM)
---------------------------------
  S    -102.524000   62.164300   -5.962960
  C    -102.604000   63.480900   -4.777030
  C    -103.887000   63.949200   -4.684970
  C    -104.732000   63.408000   -5.666550
  C    -104.152000   62.378400   -6.422360
  H    -105.814000   63.594200   -5.809780
  C    -104.327000   65.111100   -3.698390
  H    -105.260000   65.473100   -4.097710
  H    -103.527000   65.932700   -3.810990
  C    -104.372000   64.802000   -2.280350
  H    -104.941000   63.859700   -2.189810
  H    -103.362000   64.513800   -1.931060
  C    -105.015000   65.970100   -1.498320
  H    -105.126000   65.487100   -0.488686
  H    -104.432000   66.868800   -1.458720
  H    -106.038000   66.113300   -1.833040
  S    -103.636000   60.941600   -8.760090
  C    -104.938000   60.600100   -9.851770
  C    -106.172000   60.771900   -9.222370
  C    -106.096000   61.380700   -7.900330
  C    -104.753000   61.675200   -7.581140
  H    -107.030000   60.532200   -9.713440
  C    -107.376000   61.703400   -7.315430
  H    -107.220000   61.663300   -6.164470
  H    -108.100000   60.948000   -7.550350
  C    -107.849000   63.067800   -7.800590
  H    -108.203000   63.056900   -8.902260
  H    -107.074000   63.761000   -7.669410
  C    -109.053000   63.624400   -6.966530
  H    -108.810000   63.869500   -5.951300
  H    -109.910000   62.865800   -6.837660
  H    -109.497000   64.503200   -7.495150
  H    -101.766000   63.845600   -4.129670
  H    -104.761000   60.195800  -10.818400

 Total Charge           Charge          ....    0
 Multiplicity           Mult            ....    1
 Number of Electrons    NEL             ....  134
 Basis Dimension        Dim             ....  322

ORBITAL ENERGIES
----------------

  NO   OCC          E(Eh)            E(eV)
   0   2.0000     -88.967475     -2420.9281
   1   2.0000     -88.965087     -2420.8631
   2   2.0000     -10.335705      -281.2488
   3   2.0000     -10.331009      -281.1210
   4   2.0000     -10.317206      -280.7454
   5   2.0000     -10.315756      -280.7060
   6   2.0000     -10.305867      -280.4369
   7   2.0000     -10.300048      -280.2786
   8   2.0000     -10.296565      -280.1838
   9   2.0000     -10.295773      -280.1622
  10   2.0000     -10.293988      -280.1136
  11   2.0000     -10.293762      -280.1075
  12   2.0000     -10.289863      -280.0014
  13   2.0000     -10.288155      -279.9549
  14   2.0000     -10.285241      -279.8756
  15   2.0000     -10.283489      -279.8280
  16   2.0000      -8.082445      -219.9345
  17   2.0000      -8.079795      -219.8624
  18   2.0000      -6.040961      -164.3829
  19   2.0000      -6.038391      -164.3130
  20   2.0000      -6.036830      -164.2705
  21   2.0000      -6.034390      -164.2041
  22   2.0000      -6.033289      -164.1741
  23   2.0000      -6.030404      -164.0956
  24   2.0000      -1.006937       -27.4002
  25   2.0000      -0.984163       -26.7804
  26   2.0000      -0.920260       -25.0415
  27   2.0000      -0.917281       -24.9605
  28   2.0000      -0.867920       -23.6173
  29   2.0000      -0.851775       -23.1780
  30   2.0000      -0.843241       -22.9458
  31   2.0000      -0.810169       -22.0458
  32   2.0000      -0.782889       -21.3035
  33   2.0000      -0.773148       -21.0384
  34   2.0000      -0.706658       -19.2291
  35   2.0000      -0.698241       -19.0001
  36   2.0000      -0.690758       -18.7965
  37   2.0000      -0.671746       -18.2791
  38   2.0000      -0.635098       -17.2819
  39   2.0000      -0.616517       -16.7763
  40   2.0000      -0.598737       -16.2925
  41   2.0000      -0.574488       -15.6326
  42   2.0000      -0.570185       -15.5155
  43   2.0000      -0.563488       -15.3333
  44   2.0000      -0.530988       -14.4489
  45   2.0000      -0.522201       -14.2098
  46   2.0000      -0.520336       -14.1591
  47   2.0000      -0.512093       -13.9348
  48   2.0000      -0.504037       -13.7155
  49   2.0000      -0.498996       -13.5784
  50   2.0000      -0.494161       -13.4468
  51   2.0000      -0.482020       -13.1164
  52   2.0000      -0.475658       -12.9433
  53   2.0000      -0.467001       -12.7078
  54   2.0000      -0.460919       -12.5423
  55   2.0000      -0.451225       -12.2785
  56   2.0000      -0.444126       -12.0853
  57   2.0000      -0.441163       -12.0047
  58   2.0000      -0.433811       -11.8046
  59   2.0000      -0.423604       -11.5268
  60   2.0000      -0.416942       -11.3456
  61   2.0000      -0.414625       -11.2825
  62   2.0000      -0.407758       -11.0957
  63   2.0000      -0.356141        -9.6911
  64   2.0000      -0.336213        -9.1488
  65   2.0000      -0.326012        -8.8712
  66   2.0000      -0.281406        -7.6574
  67   0.0000       0.019713         0.5364
  68   0.0000       0.079084         2.1520
  69   0.0000       0.099067         2.6957
  70   0.0000       0.119630         3.2553
  71   0.0000       0.131660         3.5826

MULLIKEN ATOMIC CHARGES
-----------------------
   0 S :    0.103653
   1 C :   -0.152912
   2 C :   -0.058405
   3 C :   -0.017231
   4 C :   -0.115151
   5 H :    0.003154
   6 C :    0.050775
   7 H :    0.009829
   8 H :    0.036783
   9 C :   -0.085307
  10 H :    0.027070
  11 H :    0.025138
  12 C :   -0.033061
  13 H :    0.039808
  14 H :    0.044483
  15 H :    0.031968
  16 S :    0.095122
  17 C :   -0.074695
  18 C :   -0.002937
  19 C :   -0.033111
  20 C :   -0.135558
  21 H :   -0.019796
  22 C :    0.028538
  23 H :    0.046011
  24 H :    0.025766
  25 C :   -0.067540
  26 H :    0.049876
  27 H :    0.028424
  28 C :   -0.071334
  29 H :    0.027998
  30 H :    0.031702
  31 H :    0.044980
  32 H :    0.065280
  33 H :    0.050678
Sum of atomic charges:   -0.0000000

LOEWDIN ATOMIC CHARGES
----------------------
   0 S :    0.415230
   1 C :   -0.203320
   2 C :   -0.065321
   3 C :   -0.084087
   4 C :   -0.200253
   5 H :    0.031338
   6 C :   -0.030833
   7 H :    0.021464
   8 H :    0.036967
   9 C :   -0.051965
  10 H :    0.026371
  11 H :    0.024236
  12 C :   -0.059794
  13 H :    0.036978
  14 H :    0.024459
  15 H :    0.026228
  16 S :    0.392953
  17 C :   -0.177366
  18 C :   -0.054568
  19 C :   -0.050797
  20 C :   -0.185670
  21 H :    0.011918
  22 C :   -0.043224
  23 H :    0.041440
  24 H :    0.031562
  25 C :   -0.034346
  26 H :    0.038912
  27 H :    0.016126
  28 C :   -0.074081
  29 H :    0.016444
  30 H :    0.029375
  31 H :    0.030835
  32 H :    0.039646
  33 H :    0.023144

  Mayer bond orders larger than 0.100000
B(  0-S ,  1-C ) :   1.1327 B(  0-S ,  4-C ) :   1.1707 B(  1-C ,  2-C ) :   1.5999
B(  1-C , 32-H ) :   0.9637 B(  2-C ,  3-C ) :   1.2814 B(  2-C ,  6-C ) :   0.9936
B(  3-C ,  4-C ) :   1.5369 B(  3-C ,  5-H ) :   0.9813 B(  4-C , 20-C ) :   1.0666
B(  6-C ,  7-H ) :   0.9462 B(  6-C ,  8-H ) :   0.9437 B(  6-C ,  9-C ) :   1.0742
B(  9-C , 10-H ) :   0.9516 B(  9-C , 11-H ) :   0.9487 B(  9-C , 12-C ) :   1.0761
B( 12-C , 13-H ) :   0.9744 B( 12-C , 14-H ) :   0.9759 B( 12-C , 15-H ) :   0.9730
B( 16-S , 17-C ) :   1.1548 B( 16-S , 20-C ) :   1.1323 B( 17-C , 18-C ) :   1.5987
B( 17-C , 33-H ) :   0.9742 B( 18-C , 19-C ) :   1.2189 B( 18-C , 21-H ) :   1.0052
B( 19-C , 20-C ) :   1.5657 B( 19-C , 22-C ) :   1.0778 B( 22-C , 23-H ) :   0.9284
B( 22-C , 24-H ) :   0.9197 B( 22-C , 25-C ) :   1.0658 B( 25-C , 26-H ) :   0.9511
B( 25-C , 27-H ) :   0.9545 B( 25-C , 28-C ) :   1.0758 B( 28-C , 29-H ) :   0.9771
B( 28-C , 30-H ) :   0.9734 B( 28-C , 31-H ) :   0.9751

Dispersion correction           -0.013846558
FINAL SINGLE POINT ENERGY     -1339.864221978344

DIPOLE MOMENT
-------------
                                X             Y             Z
Electronic contribution:     21.62735     -17.49447     -16.82701
Nuclear contribution   :    -22.25247      17.77012      16.99444
                        -----------------------------------------
Total Dipole Moment    :     -0.62512       0.27564       0.16743
                        -----------------------------------------
Magnitude (a.u.)       :      0.70341
Magnitude (Debye)      :      1.78793

Rotational constants in cm-1:     0.018745     0.008565     0.006053
Rotational constants in MHz :   561.961529   256.774928   181.462963

                             ****ORCA TERMINATED NORMALLY****
TOTAL RUN TIME: 0 days 0 hours 0 minutes 21 seconds 373 msec
