                         Program Version 4.2.1 -  RELEASE  -
|  1> ! wB97X-D3 SP def2-SVP
|  2> %pal
|  3> nprocs 24
|  4> end
|  5>
|  6> * xyz 0 1
|  7> S 	 -137.427 	 5.53498 	 1.12676
|  8> C 	 -137.306 	 6.40529 	 -0.393346
|  9> C 	 -136.509 	 7.51525 	 -0.256594
| 10> C 	 -135.856 	 7.6446 	 1.06589
| 11> C 	 -136.338 	 6.68012 	 1.93577
| 12> H 	 -135.136 	 8.38028 	 1.335
| 13> C 	 -136.19 	 8.47363 	 -1.40532
| 14> H 	 -136.218 	 7.94594 	 -2.39304
| 15> H 	 -135.13 	 8.74694 	 -1.31482
| 16> C 	 -136.919 	 9.84115 	 -1.38497
| 17> H 	 -136.724 	 10.2605 	 -2.33868
| 18> H 	 -137.957 	 9.58596 	 -1.29878
| 19> C 	 -136.361 	 10.7941 	 -0.328759
| 20> H 	 -136.304 	 10.3418 	 0.632976
| 21> H 	 -135.385 	 11.2199 	 -0.57378
| 22> H 	 -136.957 	 11.7138 	 -0.261393
| 23> S 	 -136.457 	 7.1246 	 4.65908
| 24> C 	 -135.602 	 5.91409 	 5.6846
| 25> C 	 -134.782 	 5.08175 	 4.97768
| 26> C 	 -134.931 	 5.31899 	 3.58925
| 27> C 	 -135.788 	 6.33969 	 3.22601
| 28> H 	 -134.238 	 4.21086 	 5.38953
| 29> C 	 -134.113 	 4.61114 	 2.54102
| 30> H 	 -134.154 	 5.31978 	 1.64813
| 31> H 	 -134.634 	 3.68485 	 2.2823
| 32> C 	 -132.612 	 4.26836 	 2.79876
| 33> H 	 -132.268 	 3.67992 	 1.8799
| 34> H 	 -132.38 	 3.63123 	 3.64623
| 35> C 	 -131.827 	 5.61482 	 3.04206
| 36> H 	 -130.762 	 5.48283 	 3.12772
| 37> H 	 -132.127 	 6.02771 	 4.02462
| 38> H 	 -132.027 	 6.29906 	 2.20092
| 39> H 	 -137.779 	 6.32615 	 -1.30153
| 40> H 	 -135.547 	 6.0496 	 6.74229
| 41> *
| 42>
| 43>                          ****END OF INPUT****

CARTESIAN COORDINATES (ANGSTROEM)
---------------------------------
  S    -137.427000    5.534980    1.126760
  C    -137.306000    6.405290   -0.393346
  C    -136.509000    7.515250   -0.256594
  C    -135.856000    7.644600    1.065890
  C    -136.338000    6.680120    1.935770
  H    -135.136000    8.380280    1.335000
  C    -136.190000    8.473630   -1.405320
  H    -136.218000    7.945940   -2.393040
  H    -135.130000    8.746940   -1.314820
  C    -136.919000    9.841150   -1.384970
  H    -136.724000   10.260500   -2.338680
  H    -137.957000    9.585960   -1.298780
  C    -136.361000   10.794100   -0.328759
  H    -136.304000   10.341800    0.632976
  H    -135.385000   11.219900   -0.573780
  H    -136.957000   11.713800   -0.261393
  S    -136.457000    7.124600    4.659080
  C    -135.602000    5.914090    5.684600
  C    -134.782000    5.081750    4.977680
  C    -134.931000    5.318990    3.589250
  C    -135.788000    6.339690    3.226010
  H    -134.238000    4.210860    5.389530
  C    -134.113000    4.611140    2.541020
  H    -134.154000    5.319780    1.648130
  H    -134.634000    3.684850    2.282300
  C    -132.612000    4.268360    2.798760
  H    -132.268000    3.679920    1.879900
  H    -132.380000    3.631230    3.646230
  C    -131.827000    5.614820    3.042060
  H    -130.762000    5.482830    3.127720
  H    -132.127000    6.027710    4.024620
  H    -132.027000    6.299060    2.200920
  H    -137.779000    6.326150   -1.301530
  H    -135.547000    6.049600    6.742290

 Total Charge           Charge          ....    0
 Multiplicity           Mult            ....    1
 Number of Electrons    NEL             ....  134
 Basis Dimension        Dim             ....  322

ORBITAL ENERGIES
----------------

  NO   OCC          E(Eh)            E(eV)
   0   2.0000     -88.967945     -2420.9409
   1   2.0000     -88.963281     -2420.8139
   2   2.0000     -10.331345      -281.1302
   3   2.0000     -10.320802      -280.8433
   4   2.0000     -10.320118      -280.8247
   5   2.0000     -10.309612      -280.5388
   6   2.0000     -10.303171      -280.3635
   7   2.0000     -10.301274      -280.3119
   8   2.0000     -10.299015      -280.2505
   9   2.0000     -10.296684      -280.1870
  10   2.0000     -10.295702      -280.1603
  11   2.0000     -10.293777      -280.1079
  12   2.0000     -10.290907      -280.0298
  13   2.0000     -10.283104      -279.8175
  14   2.0000     -10.277932      -279.6767
  15   2.0000     -10.276732      -279.6441
  16   2.0000      -8.081821      -219.9175
  17   2.0000      -8.077331      -219.7953
  18   2.0000      -6.040560      -164.3720
  19   2.0000      -6.036435      -164.2598
  20   2.0000      -6.035859      -164.2441
  21   2.0000      -6.032371      -164.1492
  22   2.0000      -6.032033      -164.1400
  23   2.0000      -6.028010      -164.0305
  24   2.0000      -1.003133       -27.2966
  25   2.0000      -0.979102       -26.6427
  26   2.0000      -0.910063       -24.7641
  27   2.0000      -0.898520       -24.4500
  28   2.0000      -0.873853       -23.7787
  29   2.0000      -0.843373       -22.9494
  30   2.0000      -0.840247       -22.8643
  31   2.0000      -0.819113       -22.2892
  32   2.0000      -0.780655       -21.2427
  33   2.0000      -0.766969       -20.8703
  34   2.0000      -0.708438       -19.2776
  35   2.0000      -0.703649       -19.1473
  36   2.0000      -0.695045       -18.9131
  37   2.0000      -0.658729       -17.9249
  38   2.0000      -0.642574       -17.4853
  39   2.0000      -0.611012       -16.6265
  40   2.0000      -0.593135       -16.1400
  41   2.0000      -0.575821       -15.6689
  42   2.0000      -0.554618       -15.0919
  43   2.0000      -0.547875       -14.9084
  44   2.0000      -0.541282       -14.7290
  45   2.0000      -0.533266       -14.5109
  46   2.0000      -0.519058       -14.1243
  47   2.0000      -0.506780       -13.7902
  48   2.0000      -0.504878       -13.7384
  49   2.0000      -0.494703       -13.4616
  50   2.0000      -0.484559       -13.1855
  51   2.0000      -0.479756       -13.0548
  52   2.0000      -0.470053       -12.7908
  53   2.0000      -0.461794       -12.5661
  54   2.0000      -0.454492       -12.3674
  55   2.0000      -0.448660       -12.2087
  56   2.0000      -0.443257       -12.0616
  57   2.0000      -0.429391       -11.6843
  58   2.0000      -0.426322       -11.6008
  59   2.0000      -0.423357       -11.5201
  60   2.0000      -0.422363       -11.4931
  61   2.0000      -0.419177       -11.4064
  62   2.0000      -0.411463       -11.1965
  63   2.0000      -0.338520        -9.2116
  64   2.0000      -0.333690        -9.0802
  65   2.0000      -0.318224        -8.6593
  66   2.0000      -0.308165        -8.3856
  67   0.0000       0.039148         1.0653
  68   0.0000       0.053083         1.4445
  69   0.0000       0.107941         2.9372
  70   0.0000       0.114608         3.1186
  71   0.0000       0.122064         3.3215

MULLIKEN ATOMIC CHARGES
-----------------------
   0 S :    0.123417
   1 C :   -0.057981
   2 C :   -0.112006
   3 C :    0.052052
   4 C :   -0.154794
   5 H :    0.018973
   6 C :   -0.001404
   7 H :    0.033185
   8 H :    0.017362
   9 C :   -0.007496
  10 H :    0.021122
  11 H :    0.027894
  12 C :   -0.058051
  13 H :    0.031455
  14 H :    0.025626
  15 H :    0.033800
  16 S :    0.091284
  17 C :   -0.084427
  18 C :   -0.024608
  19 C :   -0.049370
  20 C :   -0.185210
  21 H :    0.040767
  22 C :    0.046003
  23 H :    0.046337
  24 H :    0.038583
  25 C :   -0.092202
  26 H :    0.044887
  27 H :    0.029352
  28 C :   -0.063822
  29 H :    0.029792
  30 H :    0.043013
  31 H :    0.036452
  32 H :    0.006525
  33 H :    0.053490
Sum of atomic charges:   -0.0000000

LOEWDIN ATOMIC CHARGES
----------------------
   0 S :    0.399510
   1 C :   -0.186684
   2 C :   -0.059255
   3 C :   -0.048938
   4 C :   -0.188446
   5 H :    0.029329
   6 C :   -0.041277
   7 H :    0.032747
   8 H :    0.028414
   9 C :   -0.031400
  10 H :    0.021668
  11 H :    0.021772
  12 C :   -0.066026
  13 H :    0.019756
  14 H :    0.026628
  15 H :    0.031017
  16 S :    0.376648
  17 C :   -0.154688
  18 C :   -0.074322
  19 C :   -0.056623
  20 C :   -0.209689
  21 H :    0.043407
  22 C :   -0.040538
  23 H :    0.040837
  24 H :    0.032053
  25 C :   -0.044664
  26 H :    0.034381
  27 H :    0.017721
  28 C :   -0.068152
  29 H :    0.020205
  30 H :    0.029924
  31 H :    0.026170
  32 H :    0.016650
  33 H :    0.021866

  Mayer bond orders larger than 0.100000
B(  0-S ,  1-C ) :   1.1148 B(  0-S ,  4-C ) :   1.1350 B(  1-C ,  2-C ) :   1.6656
B(  1-C , 32-H ) :   0.9695 B(  2-C ,  3-C ) :   1.1948 B(  2-C ,  6-C ) :   1.0284
B(  3-C ,  4-C ) :   1.6027 B(  3-C ,  5-H ) :   0.9910 B(  4-C , 20-C ) :   1.0128
B(  6-C ,  7-H ) :   0.9495 B(  6-C ,  8-H ) :   0.9405 B(  6-C ,  9-C ) :   1.0558
B(  9-C , 10-H ) :   0.9530 B(  9-C , 11-H ) :   0.9583 B(  9-C , 12-C ) :   1.0825
B( 12-C , 13-H ) :   0.9758 B( 12-C , 14-H ) :   0.9712 B( 12-C , 15-H ) :   0.9706
B( 16-S , 17-C ) :   1.1570 B( 16-S , 20-C ) :   1.1214 B( 17-C , 18-C ) :   1.6134
B( 17-C , 33-H ) :   0.9641 B( 18-C , 19-C ) :   1.2415 B( 18-C , 21-H ) :   0.9821
B( 19-C , 20-C ) :   1.6254 B( 19-C , 22-C ) :   1.0288 B( 22-C , 23-H ) :   0.9424
B( 22-C , 24-H ) :   0.9221 B( 22-C , 25-C ) :   1.0712 B( 25-C , 26-H ) :   0.9562
B( 25-C , 27-H ) :   0.9551 B( 25-C , 28-C ) :   1.0648 B( 28-C , 29-H ) :   0.9768
B( 28-C , 30-H ) :   0.9732 B( 28-C , 31-H ) :   0.9784

Dispersion correction           -0.015182293
FINAL SINGLE POINT ENERGY     -1339.873949583804

DIPOLE MOMENT
-------------
                                X             Y             Z
Electronic contribution:    -15.83690      -8.21318      12.19096
Nuclear contribution   :     16.34435       8.28008     -12.49561
                        -----------------------------------------
Total Dipole Moment    :      0.50745       0.06690      -0.30465
                        -----------------------------------------
Magnitude (a.u.)       :      0.59564
Magnitude (Debye)      :      1.51401

Rotational constants in cm-1:     0.019892     0.008092     0.007573
Rotational constants in MHz :   596.340290   242.581229   227.030917

                             ****ORCA TERMINATED NORMALLY****
TOTAL RUN TIME: 0 days 0 hours 0 minutes 21 seconds 937 msec
