                         Program Version 4.2.1 -  RELEASE  -
|  1> ! wB97X-D3 SP def2-SVP
|  2> %pal
|  3> nprocs 24
|  4> end
|  5>
|  6> * xyz 0 1
|  7> S 	 -98.6153 	 13.6408 	 -118.508
|  8> C 	 -99.025 	 15.2363 	 -117.866
|  9> C 	 -99.1485 	 16.1977 	 -118.876
| 10> C 	 -99.0036 	 15.5977 	 -120.176
| 11> C 	 -98.8474 	 14.2278 	 -120.159
| 12> H 	 -99.2417 	 16.1061 	 -121.092
| 13> C 	 -99.3393 	 17.6808 	 -118.608
| 14> H 	 -99.9533 	 17.6966 	 -117.804
| 15> H 	 -99.8459 	 18.2664 	 -119.37
| 16> C 	 -98.0396 	 18.3517 	 -118.331
| 17> H 	 -97.4464 	 17.8454 	 -117.509
| 18> H 	 -97.4321 	 18.3802 	 -119.258
| 19> C 	 -98.2733 	 19.849 	 -118.034
| 20> H 	 -97.2748 	 20.3603 	 -118.105
| 21> H 	 -98.9405 	 20.3536 	 -118.746
| 22> H 	 -98.7261 	 19.9834 	 -117.035
| 23> S 	 -99.7461 	 11.8151 	 -121.215
| 24> C 	 -99.2018 	 11.3467 	 -122.833
| 25> C 	 -98.2055 	 12.197 	 -123.239
| 26> C 	 -98.004 	 13.3053 	 -122.452
| 27> C 	 -98.8032 	 13.3091 	 -121.3
| 28> H 	 -97.7074 	 11.9531 	 -124.14
| 29> C 	 -96.9138 	 14.4054 	 -122.668
| 30> H 	 -96.0707 	 13.9211 	 -123.122
| 31> H 	 -96.5728 	 14.915 	 -121.79
| 32> C 	 -97.2991 	 15.6156 	 -123.486
| 33> H 	 -98.3738 	 15.8761 	 -123.286
| 34> H 	 -97.3293 	 15.3359 	 -124.527
| 35> C 	 -96.3707 	 16.7879 	 -123.284
| 36> H 	 -96.3773 	 17.2911 	 -122.322
| 37> H 	 -96.646 	 17.5949 	 -123.874
| 38> H 	 -95.3582 	 16.4179 	 -123.504
| 39> H 	 -99.0787 	 15.5944 	 -116.869
| 40> H 	 -99.7135 	 10.58 	 -123.38
| 41> *
| 42>
| 43>                          ****END OF INPUT****

CARTESIAN COORDINATES (ANGSTROEM)
---------------------------------
  S    -98.615300   13.640800  -118.508000
  C    -99.025000   15.236300  -117.866000
  C    -99.148500   16.197700  -118.876000
  C    -99.003600   15.597700  -120.176000
  C    -98.847400   14.227800  -120.159000
  H    -99.241700   16.106100  -121.092000
  C    -99.339300   17.680800  -118.608000
  H    -99.953300   17.696600  -117.804000
  H    -99.845900   18.266400  -119.370000
  C    -98.039600   18.351700  -118.331000
  H    -97.446400   17.845400  -117.509000
  H    -97.432100   18.380200  -119.258000
  C    -98.273300   19.849000  -118.034000
  H    -97.274800   20.360300  -118.105000
  H    -98.940500   20.353600  -118.746000
  H    -98.726100   19.983400  -117.035000
  S    -99.746100   11.815100  -121.215000
  C    -99.201800   11.346700  -122.833000
  C    -98.205500   12.197000  -123.239000
  C    -98.004000   13.305300  -122.452000
  C    -98.803200   13.309100  -121.300000
  H    -97.707400   11.953100  -124.140000
  C    -96.913800   14.405400  -122.668000
  H    -96.070700   13.921100  -123.122000
  H    -96.572800   14.915000  -121.790000
  C    -97.299100   15.615600  -123.486000
  H    -98.373800   15.876100  -123.286000
  H    -97.329300   15.335900  -124.527000
  C    -96.370700   16.787900  -123.284000
  H    -96.377300   17.291100  -122.322000
  H    -96.646000   17.594900  -123.874000
  H    -95.358200   16.417900  -123.504000
  H    -99.078700   15.594400  -116.869000
  H    -99.713500   10.580000  -123.380000

 Total Charge           Charge          ....    0
 Multiplicity           Mult            ....    1
 Number of Electrons    NEL             ....  134
 Basis Dimension        Dim             ....  322

ORBITAL ENERGIES
----------------

  NO   OCC          E(Eh)            E(eV)
   0   2.0000     -88.968949     -2420.9682
   1   2.0000     -88.964901     -2420.8580
   2   2.0000     -10.331177      -281.1256
   3   2.0000     -10.329311      -281.0748
   4   2.0000     -10.318509      -280.7809
   5   2.0000     -10.312186      -280.6088
   6   2.0000     -10.304653      -280.4039
   7   2.0000     -10.301625      -280.3215
   8   2.0000     -10.291862      -280.0558
   9   2.0000     -10.290682      -280.0237
  10   2.0000     -10.290251      -280.0120
  11   2.0000     -10.285990      -279.8960
  12   2.0000     -10.284444      -279.8540
  13   2.0000     -10.282893      -279.8117
  14   2.0000     -10.282498      -279.8010
  15   2.0000     -10.273406      -279.5536
  16   2.0000      -8.082697      -219.9414
  17   2.0000      -8.079222      -219.8468
  18   2.0000      -6.041395      -164.3947
  19   2.0000      -6.037563      -164.2904
  20   2.0000      -6.037392      -164.2858
  21   2.0000      -6.033763      -164.1870
  22   2.0000      -6.033271      -164.1736
  23   2.0000      -6.030199      -164.0901
  24   2.0000      -1.004193       -27.3255
  25   2.0000      -0.981998       -26.7215
  26   2.0000      -0.920383       -25.0449
  27   2.0000      -0.913015       -24.8444
  28   2.0000      -0.868207       -23.6251
  29   2.0000      -0.853165       -23.2158
  30   2.0000      -0.844003       -22.9665
  31   2.0000      -0.816100       -22.2072
  32   2.0000      -0.785721       -21.3806
  33   2.0000      -0.772905       -21.0318
  34   2.0000      -0.706212       -19.2170
  35   2.0000      -0.696732       -18.9590
  36   2.0000      -0.695000       -18.9119
  37   2.0000      -0.663960       -18.0673
  38   2.0000      -0.641122       -17.4458
  39   2.0000      -0.620242       -16.8776
  40   2.0000      -0.605413       -16.4741
  41   2.0000      -0.579819       -15.7777
  42   2.0000      -0.569340       -15.4925
  43   2.0000      -0.559375       -15.2214
  44   2.0000      -0.534570       -14.5464
  45   2.0000      -0.528502       -14.3813
  46   2.0000      -0.523214       -14.2374
  47   2.0000      -0.512893       -13.9565
  48   2.0000      -0.500908       -13.6304
  49   2.0000      -0.497468       -13.5368
  50   2.0000      -0.495294       -13.4776
  51   2.0000      -0.479154       -13.0384
  52   2.0000      -0.466267       -12.6878
  53   2.0000      -0.461658       -12.5624
  54   2.0000      -0.459632       -12.5072
  55   2.0000      -0.447721       -12.1831
  56   2.0000      -0.443057       -12.0562
  57   2.0000      -0.441645       -12.0178
  58   2.0000      -0.433628       -11.7996
  59   2.0000      -0.428788       -11.6679
  60   2.0000      -0.426352       -11.6016
  61   2.0000      -0.414063       -11.2672
  62   2.0000      -0.406682       -11.0664
  63   2.0000      -0.347783        -9.4637
  64   2.0000      -0.334426        -9.1002
  65   2.0000      -0.330257        -8.9867
  66   2.0000      -0.288301        -7.8451
  67   0.0000       0.025673         0.6986
  68   0.0000       0.064233         1.7479
  69   0.0000       0.110381         3.0036
  70   0.0000       0.120138         3.2691
  71   0.0000       0.129802         3.5321

MULLIKEN ATOMIC CHARGES
-----------------------
   0 S :    0.117846
   1 C :   -0.090969
   2 C :   -0.121731
   3 C :    0.034015
   4 C :   -0.131792
   5 H :    0.003874
   6 C :    0.132056
   7 H :   -0.008448
   8 H :    0.013891
   9 C :   -0.105030
  10 H :    0.044405
  11 H :    0.031721
  12 C :   -0.062577
  13 H :    0.043668
  14 H :    0.029844
  15 H :    0.034851
  16 S :    0.097447
  17 C :   -0.103663
  18 C :   -0.020955
  19 C :    0.008421
  20 C :   -0.179108
  21 H :    0.003832
  22 C :    0.094354
  23 H :    0.016409
  24 H :    0.019112
  25 C :   -0.088903
  26 H :    0.025192
  27 H :    0.016531
  28 C :   -0.018964
  29 H :    0.029183
  30 H :    0.015149
  31 H :    0.033969
  32 H :    0.025196
  33 H :    0.061174
Sum of atomic charges:    0.0000000

LOEWDIN ATOMIC CHARGES
----------------------
   0 S :    0.394591
   1 C :   -0.195697
   2 C :   -0.049514
   3 C :   -0.066175
   4 C :   -0.181863
   5 H :    0.027470
   6 C :   -0.027980
   7 H :    0.016066
   8 H :    0.031413
   9 C :   -0.042542
  10 H :    0.031317
  11 H :    0.026586
  12 C :   -0.071979
  13 H :    0.031974
  14 H :    0.023311
  15 H :    0.024389
  16 S :    0.393522
  17 C :   -0.170729
  18 C :   -0.069306
  19 C :   -0.052038
  20 C :   -0.191048
  21 H :    0.028334
  22 C :   -0.024660
  23 H :    0.026295
  24 H :    0.028637
  25 C :   -0.044432
  26 H :    0.022145
  27 H :    0.018820
  28 C :   -0.062830
  29 H :    0.026536
  30 H :    0.020036
  31 H :    0.030150
  32 H :    0.021303
  33 H :    0.027898

  Mayer bond orders larger than 0.100000
B(  0-S ,  1-C ) :   1.1214 B(  0-S ,  4-C ) :   1.1409 B(  1-C ,  2-C ) :   1.6295
B(  1-C , 32-H ) :   0.9657 B(  2-C ,  3-C ) :   1.2395 B(  2-C ,  6-C ) :   1.0197
B(  3-C ,  4-C ) :   1.5835 B(  3-C ,  5-H ) :   0.9922 B(  4-C , 20-C ) :   1.0472
B(  6-C ,  7-H ) :   0.9281 B(  6-C ,  8-H ) :   0.9390 B(  6-C ,  9-C ) :   1.0707
B(  9-C , 10-H ) :   0.9550 B(  9-C , 11-H ) :   0.9550 B(  9-C , 12-C ) :   1.0763
B( 12-C , 13-H ) :   0.9758 B( 12-C , 14-H ) :   0.9717 B( 12-C , 15-H ) :   0.9757
B( 16-S , 17-C ) :   1.1636 B( 16-S , 20-C ) :   1.1544 B( 17-C , 18-C ) :   1.5598
B( 17-C , 20-C ) :   0.1161 B( 17-C , 33-H ) :   0.9745 B( 18-C , 19-C ) :   1.2834
B( 18-C , 21-H ) :   0.9994 B( 19-C , 20-C ) :   1.5430 B( 19-C , 22-C ) :   1.0363
B( 22-C , 23-H ) :   0.9313 B( 22-C , 24-H ) :   0.9390 B( 22-C , 25-C ) :   1.0547
B( 25-C , 26-H ) :   0.9526 B( 25-C , 27-H ) :   0.9481 B( 25-C , 28-C ) :   1.0925
B( 28-C , 29-H ) :   0.9683 B( 28-C , 30-H ) :   0.9676 B( 28-C , 31-H ) :   0.9715

Dispersion correction           -0.014336600
FINAL SINGLE POINT ENERGY     -1339.869593184593

DIPOLE MOMENT
-------------
                                X             Y             Z
Electronic contribution:    -10.26084     -30.79279       4.80222
Nuclear contribution   :     10.43207      31.38879      -5.16837
                        -----------------------------------------
Total Dipole Moment    :      0.17123       0.59600      -0.36616
                        -----------------------------------------
Magnitude (a.u.)       :      0.72015
Magnitude (Debye)      :      1.83047

Rotational constants in cm-1:     0.019475     0.008802     0.006459
Rotational constants in MHz :   583.851415   263.864486   193.633509

                             ****ORCA TERMINATED NORMALLY****
TOTAL RUN TIME: 0 days 0 hours 0 minutes 21 seconds 909 msec
