                         Program Version 4.2.1 -  RELEASE  -
|  1> ! wB97X-D3 SP def2-SVP
|  2> %pal
|  3> nprocs 24
|  4> end
|  5>
|  6> * xyz 0 1
|  7> S 	 -126.956 	 59.6281 	 -61.1279
|  8> C 	 -128.379 	 60.5618 	 -61.5871
|  9> C 	 -129.15 	 60.723 	 -60.4144
| 10> C 	 -128.797 	 59.8271 	 -59.366
| 11> C 	 -127.498 	 59.2917 	 -59.4831
| 12> H 	 -129.297 	 59.6584 	 -58.4601
| 13> C 	 -130.299 	 61.7415 	 -60.183
| 14> H 	 -131.213 	 61.1895 	 -60.0195
| 15> H 	 -130.488 	 62.3992 	 -61.03
| 16> C 	 -130.141 	 62.6214 	 -58.9494
| 17> H 	 -130.336 	 62.0436 	 -58.0525
| 18> H 	 -129.143 	 62.8901 	 -58.8971
| 19> C 	 -130.994 	 63.8898 	 -58.8952
| 20> H 	 -130.907 	 64.6909 	 -59.6946
| 21> H 	 -132.006 	 63.6233 	 -58.828
| 22> H 	 -130.761 	 64.4697 	 -57.9913
| 23> S 	 -125.78 	 57.1803 	 -58.9119
| 24> C 	 -125.424 	 56.9038 	 -57.1846
| 25> C 	 -125.848 	 57.9506 	 -56.3233
| 26> C 	 -126.773 	 58.7894 	 -57.0911
| 27> C 	 -126.792 	 58.5462 	 -58.483
| 28> H 	 -125.491 	 57.9821 	 -55.2559
| 29> C 	 -127.341 	 59.9662 	 -56.3445
| 30> H 	 -127.593 	 59.6892 	 -55.3448
| 31> H 	 -128.32 	 60.3233 	 -56.7256
| 32> C 	 -126.327 	 61.1228 	 -56.1621
| 33> H 	 -126.035 	 61.528 	 -57.172
| 34> H 	 -125.358 	 60.8529 	 -55.6744
| 35> C 	 -126.979 	 62.2348 	 -55.3687
| 36> H 	 -127.296 	 61.9705 	 -54.3904
| 37> H 	 -127.846 	 62.5074 	 -55.9228
| 38> H 	 -126.448 	 63.1891 	 -55.2308
| 39> H 	 -128.706 	 60.843 	 -62.6344
| 40> H 	 -124.715 	 56.2018 	 -56.729
| 41> *
| 42>
| 43>                          ****END OF INPUT****

CARTESIAN COORDINATES (ANGSTROEM)
---------------------------------
  S    -126.956000   59.628100  -61.127900
  C    -128.379000   60.561800  -61.587100
  C    -129.150000   60.723000  -60.414400
  C    -128.797000   59.827100  -59.366000
  C    -127.498000   59.291700  -59.483100
  H    -129.297000   59.658400  -58.460100
  C    -130.299000   61.741500  -60.183000
  H    -131.213000   61.189500  -60.019500
  H    -130.488000   62.399200  -61.030000
  C    -130.141000   62.621400  -58.949400
  H    -130.336000   62.043600  -58.052500
  H    -129.143000   62.890100  -58.897100
  C    -130.994000   63.889800  -58.895200
  H    -130.907000   64.690900  -59.694600
  H    -132.006000   63.623300  -58.828000
  H    -130.761000   64.469700  -57.991300
  S    -125.780000   57.180300  -58.911900
  C    -125.424000   56.903800  -57.184600
  C    -125.848000   57.950600  -56.323300
  C    -126.773000   58.789400  -57.091100
  C    -126.792000   58.546200  -58.483000
  H    -125.491000   57.982100  -55.255900
  C    -127.341000   59.966200  -56.344500
  H    -127.593000   59.689200  -55.344800
  H    -128.320000   60.323300  -56.725600
  C    -126.327000   61.122800  -56.162100
  H    -126.035000   61.528000  -57.172000
  H    -125.358000   60.852900  -55.674400
  C    -126.979000   62.234800  -55.368700
  H    -127.296000   61.970500  -54.390400
  H    -127.846000   62.507400  -55.922800
  H    -126.448000   63.189100  -55.230800
  H    -128.706000   60.843000  -62.634400
  H    -124.715000   56.201800  -56.729000

 Total Charge           Charge          ....    0
 Multiplicity           Mult            ....    1
 Number of Electrons    NEL             ....  134
 Basis Dimension        Dim             ....  322

ORBITAL ENERGIES
----------------

  NO   OCC          E(Eh)            E(eV)
   0   2.0000     -88.974698     -2421.1246
   1   2.0000     -88.966133     -2420.8916
   2   2.0000     -10.333617      -281.1920
   3   2.0000     -10.333386      -281.1857
   4   2.0000     -10.327214      -281.0178
   5   2.0000     -10.323183      -280.9081
   6   2.0000     -10.314452      -280.6705
   7   2.0000     -10.309761      -280.5429
   8   2.0000     -10.308466      -280.5076
   9   2.0000     -10.292929      -280.0848
  10   2.0000     -10.292402      -280.0705
  11   2.0000     -10.290795      -280.0268
  12   2.0000     -10.290528      -280.0195
  13   2.0000     -10.280321      -279.7418
  14   2.0000     -10.280022      -279.7336
  15   2.0000     -10.270943      -279.4866
  16   2.0000      -8.088353      -220.0953
  17   2.0000      -8.080057      -219.8695
  18   2.0000      -6.046986      -164.5468
  19   2.0000      -6.043153      -164.4426
  20   2.0000      -6.038886      -164.3264
  21   2.0000      -6.038668      -164.3205
  22   2.0000      -6.034555      -164.2086
  23   2.0000      -6.030865      -164.1082
  24   2.0000      -1.002166       -27.2703
  25   2.0000      -0.977364       -26.5954
  26   2.0000      -0.912735       -24.8368
  27   2.0000      -0.909970       -24.7615
  28   2.0000      -0.870080       -23.6761
  29   2.0000      -0.853555       -23.2264
  30   2.0000      -0.843355       -22.9489
  31   2.0000      -0.811291       -22.0764
  32   2.0000      -0.782530       -21.2937
  33   2.0000      -0.769518       -20.9397
  34   2.0000      -0.709889       -19.3171
  35   2.0000      -0.698856       -19.0168
  36   2.0000      -0.692771       -18.8513
  37   2.0000      -0.661870       -18.0104
  38   2.0000      -0.639422       -17.3996
  39   2.0000      -0.620656       -16.8889
  40   2.0000      -0.594221       -16.1696
  41   2.0000      -0.573346       -15.6015
  42   2.0000      -0.565850       -15.3976
  43   2.0000      -0.559167       -15.2157
  44   2.0000      -0.522591       -14.2204
  45   2.0000      -0.521492       -14.1905
  46   2.0000      -0.516355       -14.0507
  47   2.0000      -0.512678       -13.9507
  48   2.0000      -0.509235       -13.8570
  49   2.0000      -0.502892       -13.6844
  50   2.0000      -0.488617       -13.2959
  51   2.0000      -0.483250       -13.1499
  52   2.0000      -0.477744       -13.0001
  53   2.0000      -0.467759       -12.7284
  54   2.0000      -0.452633       -12.3168
  55   2.0000      -0.449061       -12.2196
  56   2.0000      -0.439757       -11.9664
  57   2.0000      -0.435060       -11.8386
  58   2.0000      -0.431025       -11.7288
  59   2.0000      -0.428907       -11.6712
  60   2.0000      -0.425652       -11.5826
  61   2.0000      -0.415994       -11.3198
  62   2.0000      -0.410064       -11.1584
  63   2.0000      -0.350075        -9.5260
  64   2.0000      -0.332389        -9.0448
  65   2.0000      -0.324210        -8.8222
  66   2.0000      -0.282360        -7.6834
  67   0.0000       0.015370         0.4182
  68   0.0000       0.071188         1.9371
  69   0.0000       0.098266         2.6740
  70   0.0000       0.111176         3.0253
  71   0.0000       0.124012         3.3745

MULLIKEN ATOMIC CHARGES
-----------------------
   0 S :    0.098505
   1 C :   -0.143441
   2 C :   -0.101780
   3 C :    0.032113
   4 C :   -0.138992
   5 H :    0.001443
   6 C :    0.084631
   7 H :    0.025594
   8 H :    0.014586
   9 C :   -0.064317
  10 H :    0.024971
  11 H :    0.019699
  12 C :   -0.058805
  13 H :    0.039815
  14 H :    0.020195
  15 H :    0.031550
  16 S :    0.125489
  17 C :   -0.092417
  18 C :   -0.074495
  19 C :   -0.036741
  20 C :   -0.127872
  21 H :    0.060240
  22 C :    0.066407
  23 H :    0.006525
  24 H :    0.008149
  25 C :   -0.086132
  26 H :    0.041019
  27 H :    0.035704
  28 C :   -0.019168
  29 H :    0.014609
  30 H :    0.010830
  31 H :    0.033609
  32 H :    0.086703
  33 H :    0.061775
Sum of atomic charges:    0.0000000

LOEWDIN ATOMIC CHARGES
----------------------
   0 S :    0.392952
   1 C :   -0.216888
   2 C :   -0.057412
   3 C :   -0.060598
   4 C :   -0.185587
   5 H :    0.019276
   6 C :   -0.030320
   7 H :    0.029193
   8 H :    0.026659
   9 C :   -0.037663
  10 H :    0.022968
  11 H :    0.015055
  12 C :   -0.067159
  13 H :    0.031866
  14 H :    0.015938
  15 H :    0.030921
  16 S :    0.401631
  17 C :   -0.180705
  18 C :   -0.068354
  19 C :   -0.043791
  20 C :   -0.206892
  21 H :    0.048962
  22 C :   -0.034948
  23 H :    0.025494
  24 H :    0.027322
  25 C :   -0.037542
  26 H :    0.031342
  27 H :    0.025821
  28 C :   -0.067701
  29 H :    0.016910
  30 H :    0.020840
  31 H :    0.029589
  32 H :    0.050356
  33 H :    0.032462

  Mayer bond orders larger than 0.100000
B(  0-S ,  1-C ) :   1.1347 B(  0-S ,  4-C ) :   1.1437 B(  1-C ,  2-C ) :   1.5782
B(  1-C ,  4-C ) :   0.1090 B(  1-C , 32-H ) :   0.9628 B(  2-C ,  3-C ) :   1.2581
B(  2-C ,  6-C ) :   1.0292 B(  3-C ,  4-C ) :   1.5362 B(  3-C ,  5-H ) :   0.9935
B(  4-C , 20-C ) :   1.1132 B(  6-C ,  7-H ) :   0.9348 B(  6-C ,  8-H ) :   0.9507
B(  6-C ,  9-C ) :   1.0630 B(  9-C , 10-H ) :   0.9459 B(  9-C , 11-H ) :   0.9592
B(  9-C , 12-C ) :   1.0927 B( 12-C , 13-H ) :   0.9743 B( 12-C , 14-H ) :   0.9751
B( 12-C , 15-H ) :   0.9719 B( 16-S , 17-C ) :   1.1483 B( 16-S , 20-C ) :   1.1141
B( 17-C , 18-C ) :   1.6326 B( 17-C , 33-H ) :   0.9607 B( 18-C , 19-C ) :   1.2215
B( 18-C , 21-H ) :   0.9769 B( 19-C , 20-C ) :   1.5713 B( 19-C , 22-C ) :   1.0633
B( 22-C , 23-H ) :   0.9271 B( 22-C , 24-H ) :   0.9334 B( 22-C , 25-C ) :   1.0509
B( 25-C , 26-H ) :   0.9551 B( 25-C , 27-H ) :   0.9568 B( 25-C , 28-C ) :   1.0785
B( 28-C , 29-H ) :   0.9727 B( 28-C , 30-H ) :   0.9713 B( 28-C , 31-H ) :   0.9716

Dispersion correction           -0.014804384
FINAL SINGLE POINT ENERGY     -1339.849962171872

DIPOLE MOMENT
-------------
                                X             Y             Z
Electronic contribution:     14.81000     -25.83737     -16.43595
Nuclear contribution   :    -15.07029      26.27942      17.09334
                        -----------------------------------------
Total Dipole Moment    :     -0.26029       0.44205       0.65739
                        -----------------------------------------
Magnitude (a.u.)       :      0.83386
Magnitude (Debye)      :      2.11950

Rotational constants in cm-1:     0.017464     0.009922     0.006853
Rotational constants in MHz :   523.554388   297.439789   205.453726

                             ****ORCA TERMINATED NORMALLY****
TOTAL RUN TIME: 0 days 0 hours 0 minutes 21 seconds 122 msec
