                         Program Version 4.2.1 -  RELEASE  -
|  1> ! wB97X-D3 SP def2-SVP
|  2> %pal
|  3> nprocs 24
|  4> end
|  5>
|  6> * xyz 0 1
|  7> S 	 -97.2527 	 15.4697 	 -117.796
|  8> C 	 -97.1949 	 15.5201 	 -116.084
|  9> C 	 -97.6891 	 14.3711 	 -115.534
| 10> C 	 -98.0962 	 13.4004 	 -116.458
| 11> C 	 -97.7717 	 13.8244 	 -117.743
| 12> H 	 -98.6706 	 12.5011 	 -116.291
| 13> C 	 -97.953 	 14.1834 	 -114.035
| 14> H 	 -98.9612 	 13.7815 	 -114.004
| 15> H 	 -97.9889 	 15.1174 	 -113.515
| 16> C 	 -96.9656 	 13.1403 	 -113.325
| 17> H 	 -97.4415 	 12.6714 	 -112.496
| 18> H 	 -96.9381 	 12.2575 	 -113.945
| 19> C 	 -95.6423 	 13.7446 	 -112.918
| 20> H 	 -95.0318 	 13.8809 	 -113.776
| 21> H 	 -95.741 	 14.7163 	 -112.526
| 22> H 	 -95.1502 	 13.096 	 -112.148
| 23> S 	 -99.6183 	 14.094 	 -119.809
| 24> C 	 -99.8531 	 12.7734 	 -120.981
| 25> C 	 -98.963 	 11.7678 	 -120.661
| 26> C 	 -98.2069 	 11.965 	 -119.453
| 27> C 	 -98.3976 	 13.2115 	 -118.888
| 28> H 	 -98.9374 	 10.9158 	 -121.412
| 29> C 	 -97.0899 	 11.0043 	 -119.12
| 30> H 	 -96.6955 	 11.2146 	 -118.131
| 31> H 	 -96.3007 	 11.0964 	 -119.847
| 32> C 	 -97.4192 	 9.54508 	 -119.025
| 33> H 	 -97.6111 	 9.20879 	 -120.104
| 34> H 	 -98.2799 	 9.493 	 -118.431
| 35> C 	 -96.2367 	 8.71131 	 -118.499
| 36> H 	 -95.4353 	 8.7052 	 -119.106
| 37> H 	 -96.3767 	 7.64557 	 -118.696
| 38> H 	 -96.0212 	 8.9129 	 -117.46
| 39> H 	 -96.7873 	 16.3489 	 -115.474
| 40> H 	 -100.532 	 12.7685 	 -121.778
| 41> *
| 42>
| 43>                          ****END OF INPUT****

CARTESIAN COORDINATES (ANGSTROEM)
---------------------------------
  S    -97.252700   15.469700  -117.796000
  C    -97.194900   15.520100  -116.084000
  C    -97.689100   14.371100  -115.534000
  C    -98.096200   13.400400  -116.458000
  C    -97.771700   13.824400  -117.743000
  H    -98.670600   12.501100  -116.291000
  C    -97.953000   14.183400  -114.035000
  H    -98.961200   13.781500  -114.004000
  H    -97.988900   15.117400  -113.515000
  C    -96.965600   13.140300  -113.325000
  H    -97.441500   12.671400  -112.496000
  H    -96.938100   12.257500  -113.945000
  C    -95.642300   13.744600  -112.918000
  H    -95.031800   13.880900  -113.776000
  H    -95.741000   14.716300  -112.526000
  H    -95.150200   13.096000  -112.148000
  S    -99.618300   14.094000  -119.809000
  C    -99.853100   12.773400  -120.981000
  C    -98.963000   11.767800  -120.661000
  C    -98.206900   11.965000  -119.453000
  C    -98.397600   13.211500  -118.888000
  H    -98.937400   10.915800  -121.412000
  C    -97.089900   11.004300  -119.120000
  H    -96.695500   11.214600  -118.131000
  H    -96.300700   11.096400  -119.847000
  C    -97.419200    9.545080  -119.025000
  H    -97.611100    9.208790  -120.104000
  H    -98.279900    9.493000  -118.431000
  C    -96.236700    8.711310  -118.499000
  H    -95.435300    8.705200  -119.106000
  H    -96.376700    7.645570  -118.696000
  H    -96.021200    8.912900  -117.460000
  H    -96.787300   16.348900  -115.474000
  H    -100.532000   12.768500  -121.778000

 Total Charge           Charge          ....    0
 Multiplicity           Mult            ....    1
 Number of Electrons    NEL             ....  134
 Basis Dimension        Dim             ....  322

ORBITAL ENERGIES
----------------

  NO   OCC          E(Eh)            E(eV)
   0   2.0000     -88.971034     -2421.0249
   1   2.0000     -88.960699     -2420.7437
   2   2.0000     -10.325882      -280.9815
   3   2.0000     -10.325474      -280.9704
   4   2.0000     -10.314402      -280.6691
   5   2.0000     -10.312766      -280.6246
   6   2.0000     -10.299664      -280.2681
   7   2.0000     -10.297389      -280.2062
   8   2.0000     -10.297245      -280.2023
   9   2.0000     -10.295050      -280.1425
  10   2.0000     -10.292086      -280.0619
  11   2.0000     -10.283808      -279.8366
  12   2.0000     -10.282282      -279.7951
  13   2.0000     -10.279165      -279.7103
  14   2.0000     -10.272881      -279.5393
  15   2.0000     -10.268871      -279.4302
  16   2.0000      -8.086646      -220.0488
  17   2.0000      -8.074799      -219.7265
  18   2.0000      -6.045017      -164.4933
  19   2.0000      -6.041082      -164.3862
  20   2.0000      -6.037446      -164.2872
  21   2.0000      -6.033442      -164.1783
  22   2.0000      -6.029301      -164.0656
  23   2.0000      -6.025532      -163.9631
  24   2.0000      -1.014859       -27.6157
  25   2.0000      -0.983618       -26.7656
  26   2.0000      -0.913049       -24.8453
  27   2.0000      -0.906888       -24.6777
  28   2.0000      -0.872749       -23.7487
  29   2.0000      -0.857460       -23.3327
  30   2.0000      -0.845046       -22.9949
  31   2.0000      -0.814250       -22.1569
  32   2.0000      -0.783845       -21.3295
  33   2.0000      -0.776041       -21.1171
  34   2.0000      -0.713464       -19.4143
  35   2.0000      -0.701124       -19.0786
  36   2.0000      -0.696736       -18.9591
  37   2.0000      -0.655789       -17.8449
  38   2.0000      -0.642609       -17.4863
  39   2.0000      -0.619852       -16.8670
  40   2.0000      -0.597084       -16.2475
  41   2.0000      -0.579672       -15.7737
  42   2.0000      -0.565998       -15.4016
  43   2.0000      -0.548255       -14.9188
  44   2.0000      -0.536705       -14.6045
  45   2.0000      -0.525351       -14.2955
  46   2.0000      -0.521512       -14.1911
  47   2.0000      -0.513333       -13.9685
  48   2.0000      -0.504776       -13.7356
  49   2.0000      -0.500009       -13.6059
  50   2.0000      -0.492791       -13.4095
  51   2.0000      -0.481397       -13.0995
  52   2.0000      -0.476844       -12.9756
  53   2.0000      -0.468936       -12.7604
  54   2.0000      -0.457419       -12.4470
  55   2.0000      -0.454907       -12.3787
  56   2.0000      -0.444195       -12.0872
  57   2.0000      -0.438962       -11.9448
  58   2.0000      -0.426614       -11.6088
  59   2.0000      -0.426398       -11.6029
  60   2.0000      -0.413951       -11.2642
  61   2.0000      -0.410455       -11.1690
  62   2.0000      -0.408524       -11.1165
  63   2.0000      -0.348946        -9.4953
  64   2.0000      -0.332184        -9.0392
  65   2.0000      -0.326056        -8.8724
  66   2.0000      -0.293645        -7.9905
  67   0.0000       0.031982         0.8703
  68   0.0000       0.066210         1.8017
  69   0.0000       0.112426         3.0593
  70   0.0000       0.122835         3.3425
  71   0.0000       0.132097         3.5945

MULLIKEN ATOMIC CHARGES
-----------------------
   0 S :    0.126734
   1 C :   -0.130945
   2 C :   -0.075566
   3 C :    0.026218
   4 C :   -0.156769
   5 H :    0.026958
   6 C :    0.055859
   7 H :    0.025177
   8 H :    0.014217
   9 C :   -0.048120
  10 H :    0.009395
  11 H :    0.010691
  12 C :   -0.013795
  13 H :    0.029237
  14 H :    0.013624
  15 H :    0.043129
  16 S :    0.089394
  17 C :   -0.086561
  18 C :   -0.056347
  19 C :   -0.020894
  20 C :   -0.143697
  21 H :    0.044418
  22 C :    0.073547
  23 H :    0.006220
  24 H :    0.030076
  25 C :   -0.099806
  26 H :    0.028208
  27 H :    0.018058
  28 C :    0.015714
  29 H :   -0.008026
  30 H :    0.015474
  31 H :    0.041071
  32 H :    0.058036
  33 H :    0.039072
Sum of atomic charges:    0.0000000

LOEWDIN ATOMIC CHARGES
----------------------
   0 S :    0.441229
   1 C :   -0.215111
   2 C :   -0.068401
   3 C :   -0.047110
   4 C :   -0.203334
   5 H :    0.036123
   6 C :   -0.022486
   7 H :    0.032490
   8 H :    0.021428
   9 C :   -0.039680
  10 H :    0.017959
  11 H :    0.021158
  12 C :   -0.060940
  13 H :    0.024036
  14 H :    0.018294
  15 H :    0.035179
  16 S :    0.377216
  17 C :   -0.171743
  18 C :   -0.075639
  19 C :   -0.068696
  20 C :   -0.188798
  21 H :    0.041583
  22 C :   -0.032850
  23 H :    0.023844
  24 H :    0.029893
  25 C :   -0.035455
  26 H :    0.026536
  27 H :    0.014934
  28 C :   -0.063297
  29 H :    0.012960
  30 H :    0.035145
  31 H :    0.026696
  32 H :    0.036655
  33 H :    0.020184

  Mayer bond orders larger than 0.100000
B(  0-S ,  1-C ) :   1.1423 B(  0-S ,  4-C ) :   1.1781 B(  1-C ,  2-C ) :   1.5972
B(  1-C , 32-H ) :   0.9644 B(  2-C ,  3-C ) :   1.2689 B(  2-C ,  6-C ) :   1.0185
B(  3-C ,  4-C ) :   1.5263 B(  3-C ,  5-H ) :   0.9946 B(  4-C , 20-C ) :   1.0394
B(  6-C ,  7-H ) :   0.9391 B(  6-C ,  8-H ) :   0.9514 B(  6-C ,  9-C ) :   1.0657
B(  9-C , 10-H ) :   0.9570 B(  9-C , 11-H ) :   0.9547 B(  9-C , 12-C ) :   1.0681
B( 12-C , 13-H ) :   0.9761 B( 12-C , 14-H ) :   0.9746 B( 12-C , 15-H ) :   0.9741
B( 16-S , 17-C ) :   1.1327 B( 16-S , 20-C ) :   1.1330 B( 17-C , 18-C ) :   1.6344
B( 17-C , 33-H ) :   0.9769 B( 18-C , 19-C ) :   1.2121 B( 18-C , 21-H ) :   0.9790
B( 19-C , 20-C ) :   1.6102 B( 19-C , 22-C ) :   1.0558 B( 22-C , 23-H ) :   0.9299
B( 22-C , 24-H ) :   0.9391 B( 22-C , 25-C ) :   1.0596 B( 25-C , 26-H ) :   0.9489
B( 25-C , 27-H ) :   0.9621 B( 25-C , 28-C ) :   1.0973 B( 28-C , 29-H ) :   0.9595
B( 28-C , 30-H ) :   0.9616 B( 28-C , 31-H ) :   0.9742

Dispersion correction           -0.013805864
FINAL SINGLE POINT ENERGY     -1339.856897436370

DIPOLE MOMENT
-------------
                                X             Y             Z
Electronic contribution:    -11.30354      20.58640     -17.31419
Nuclear contribution   :     11.39589     -20.99671      17.65601
                        -----------------------------------------
Total Dipole Moment    :      0.09235      -0.41031       0.34182
                        -----------------------------------------
Magnitude (a.u.)       :      0.54196
Magnitude (Debye)      :      1.37756

Rotational constants in cm-1:     0.017156     0.009002     0.006491
Rotational constants in MHz :   514.320215   269.874842   194.585984

                             ****ORCA TERMINATED NORMALLY****
TOTAL RUN TIME: 0 days 0 hours 0 minutes 20 seconds 210 msec
