                         Program Version 4.2.1 -  RELEASE  -
|  1> ! wB97X-D3 SP def2-SVP
|  2> %pal
|  3> nprocs 24
|  4> end
|  5>
|  6> * xyz 0 1
|  7> S 	 -122.707 	 62.7529 	 -34.5864
|  8> C 	 -123.428 	 64.3953 	 -34.6494
|  9> C 	 -122.893 	 65.1865 	 -35.6527
| 10> C 	 -121.856 	 64.4812 	 -36.3052
| 11> C 	 -121.791 	 63.1215 	 -36.0038
| 12> H 	 -121.224 	 64.8318 	 -37.1227
| 13> C 	 -123.248 	 66.662 	 -36.0706
| 14> H 	 -122.281 	 67.0603 	 -36.1039
| 15> H 	 -123.898 	 67.1087 	 -35.3419
| 16> C 	 -123.785 	 66.8366 	 -37.5027
| 17> H 	 -124.084 	 67.8573 	 -37.7433
| 18> H 	 -122.989 	 66.6101 	 -38.2161
| 19> C 	 -125.014 	 65.9778 	 -37.7742
| 20> H 	 -125.382 	 66.3817 	 -38.7105
| 21> H 	 -124.776 	 64.9682 	 -38.1735
| 22> H 	 -125.794 	 65.9163 	 -37.0286
| 23> S 	 -122.578 	 61.4509 	 -38.084
| 24> C 	 -121.34 	 60.4769 	 -38.8521
| 25> C 	 -120.113 	 60.6867 	 -38.2785
| 26> C 	 -120.15 	 61.511 	 -37.0869
| 27> C 	 -121.38 	 62.1066 	 -36.9683
| 28> H 	 -119.279 	 60.233 	 -38.6539
| 29> C 	 -118.873 	 61.8652 	 -36.3448
| 30> H 	 -118.548 	 60.9952 	 -35.7044
| 31> H 	 -119.09 	 62.5256 	 -35.4822
| 32> C 	 -117.739 	 62.4003 	 -37.1725
| 33> H 	 -118.116 	 63.3408 	 -37.6288
| 34> H 	 -117.595 	 61.7254 	 -38.0271
| 35> C 	 -116.503 	 62.8748 	 -36.4222
| 36> H 	 -116.63 	 63.7819 	 -35.8356
| 37> H 	 -115.798 	 63.0078 	 -37.173
| 38> H 	 -116.174 	 62.1001 	 -35.7194
| 39> H 	 -124.309 	 64.7117 	 -34.0688
| 40> H 	 -121.472 	 59.7763 	 -39.6698
| 41> *
| 42>
| 43>                          ****END OF INPUT****

CARTESIAN COORDINATES (ANGSTROEM)
---------------------------------
  S    -122.707000   62.752900  -34.586400
  C    -123.428000   64.395300  -34.649400
  C    -122.893000   65.186500  -35.652700
  C    -121.856000   64.481200  -36.305200
  C    -121.791000   63.121500  -36.003800
  H    -121.224000   64.831800  -37.122700
  C    -123.248000   66.662000  -36.070600
  H    -122.281000   67.060300  -36.103900
  H    -123.898000   67.108700  -35.341900
  C    -123.785000   66.836600  -37.502700
  H    -124.084000   67.857300  -37.743300
  H    -122.989000   66.610100  -38.216100
  C    -125.014000   65.977800  -37.774200
  H    -125.382000   66.381700  -38.710500
  H    -124.776000   64.968200  -38.173500
  H    -125.794000   65.916300  -37.028600
  S    -122.578000   61.450900  -38.084000
  C    -121.340000   60.476900  -38.852100
  C    -120.113000   60.686700  -38.278500
  C    -120.150000   61.511000  -37.086900
  C    -121.380000   62.106600  -36.968300
  H    -119.279000   60.233000  -38.653900
  C    -118.873000   61.865200  -36.344800
  H    -118.548000   60.995200  -35.704400
  H    -119.090000   62.525600  -35.482200
  C    -117.739000   62.400300  -37.172500
  H    -118.116000   63.340800  -37.628800
  H    -117.595000   61.725400  -38.027100
  C    -116.503000   62.874800  -36.422200
  H    -116.630000   63.781900  -35.835600
  H    -115.798000   63.007800  -37.173000
  H    -116.174000   62.100100  -35.719400
  H    -124.309000   64.711700  -34.068800
  H    -121.472000   59.776300  -39.669800

 Total Charge           Charge          ....    0
 Multiplicity           Mult            ....    1
 Number of Electrons    NEL             ....  134
 Basis Dimension        Dim             ....  322

ORBITAL ENERGIES
----------------

  NO   OCC          E(Eh)            E(eV)
   0   2.0000     -88.965589     -2420.8767
   1   2.0000     -88.965083     -2420.8630
   2   2.0000     -10.323539      -280.9178
   3   2.0000     -10.321882      -280.8727
   4   2.0000     -10.316410      -280.7238
   5   2.0000     -10.315662      -280.7034
   6   2.0000     -10.303812      -280.3810
   7   2.0000     -10.301186      -280.3095
   8   2.0000     -10.292267      -280.0668
   9   2.0000     -10.292235      -280.0660
  10   2.0000     -10.291387      -280.0429
  11   2.0000     -10.287805      -279.9454
  12   2.0000     -10.286300      -279.9044
  13   2.0000     -10.285288      -279.8769
  14   2.0000     -10.274722      -279.5894
  15   2.0000     -10.271708      -279.5074
  16   2.0000      -8.080004      -219.8681
  17   2.0000      -8.079521      -219.8549
  18   2.0000      -6.038419      -164.3137
  19   2.0000      -6.038083      -164.3046
  20   2.0000      -6.034671      -164.2117
  21   2.0000      -6.034167      -164.1980
  22   2.0000      -6.030762      -164.1054
  23   2.0000      -6.030141      -164.0885
  24   2.0000      -1.004089       -27.3227
  25   2.0000      -0.980370       -26.6772
  26   2.0000      -0.911090       -24.7920
  27   2.0000      -0.909940       -24.7607
  28   2.0000      -0.866171       -23.5697
  29   2.0000      -0.851008       -23.1571
  30   2.0000      -0.844572       -22.9820
  31   2.0000      -0.809478       -22.0270
  32   2.0000      -0.787995       -21.4424
  33   2.0000      -0.775865       -21.1124
  34   2.0000      -0.702574       -19.1180
  35   2.0000      -0.698050       -18.9949
  36   2.0000      -0.692682       -18.8488
  37   2.0000      -0.658981       -17.9318
  38   2.0000      -0.636000       -17.3064
  39   2.0000      -0.616665       -16.7803
  40   2.0000      -0.600276       -16.3343
  41   2.0000      -0.562554       -15.3079
  42   2.0000      -0.558214       -15.1898
  43   2.0000      -0.554459       -15.0876
  44   2.0000      -0.542941       -14.7742
  45   2.0000      -0.534299       -14.5390
  46   2.0000      -0.520215       -14.1558
  47   2.0000      -0.515656       -14.0317
  48   2.0000      -0.506982       -13.7957
  49   2.0000      -0.486677       -13.2432
  50   2.0000      -0.484094       -13.1729
  51   2.0000      -0.480306       -13.0698
  52   2.0000      -0.474460       -12.9107
  53   2.0000      -0.463053       -12.6003
  54   2.0000      -0.454766       -12.3748
  55   2.0000      -0.449487       -12.2312
  56   2.0000      -0.444923       -12.1070
  57   2.0000      -0.435851       -11.8601
  58   2.0000      -0.434910       -11.8345
  59   2.0000      -0.427857       -11.6426
  60   2.0000      -0.418131       -11.3779
  61   2.0000      -0.412054       -11.2126
  62   2.0000      -0.400955       -10.9106
  63   2.0000      -0.337103        -9.1730
  64   2.0000      -0.325945        -8.8694
  65   2.0000      -0.316715        -8.6182
  66   2.0000      -0.306921        -8.3517
  67   0.0000       0.037722         1.0265
  68   0.0000       0.055072         1.4986
  69   0.0000       0.114639         3.1195
  70   0.0000       0.120621         3.2823
  71   0.0000       0.127928         3.4811

MULLIKEN ATOMIC CHARGES
-----------------------
   0 S :    0.118194
   1 C :   -0.149002
   2 C :   -0.091430
   3 C :    0.026335
   4 C :   -0.191413
   5 H :    0.017686
   6 C :    0.130819
   7 H :    0.020741
   8 H :    0.023373
   9 C :   -0.086105
  10 H :    0.033609
  11 H :    0.026169
  12 C :   -0.044949
  13 H :    0.014309
  14 H :    0.033164
  15 H :    0.037999
  16 S :    0.122958
  17 C :   -0.087152
  18 C :   -0.007196
  19 C :   -0.009026
  20 C :   -0.173390
  21 H :   -0.017798
  22 C :    0.056431
  23 H :    0.026977
  24 H :    0.017069
  25 C :   -0.106041
  26 H :    0.027458
  27 H :    0.031790
  28 C :   -0.000080
  29 H :    0.039583
  30 H :    0.024273
  31 H :    0.024329
  32 H :    0.054154
  33 H :    0.056165
Sum of atomic charges:   -0.0000000

LOEWDIN ATOMIC CHARGES
----------------------
   0 S :    0.398047
   1 C :   -0.192293
   2 C :   -0.059454
   3 C :   -0.057065
   4 C :   -0.209455
   5 H :    0.030603
   6 C :   -0.016400
   7 H :    0.028439
   8 H :    0.026382
   9 C :   -0.040917
  10 H :    0.026004
  11 H :    0.026125
  12 C :   -0.072877
  13 H :    0.025645
  14 H :    0.031644
  15 H :    0.023017
  16 S :    0.398281
  17 C :   -0.180492
  18 C :   -0.060958
  19 C :   -0.050060
  20 C :   -0.196617
  21 H :    0.012408
  22 C :   -0.045851
  23 H :    0.034631
  24 H :    0.030725
  25 C :   -0.046528
  26 H :    0.029779
  27 H :    0.023196
  28 C :   -0.054643
  29 H :    0.029508
  30 H :    0.022077
  31 H :    0.024463
  32 H :    0.030614
  33 H :    0.032021

  Mayer bond orders larger than 0.100000
B(  0-S ,  1-C ) :   1.1324 B(  0-S ,  4-C ) :   1.1558 B(  1-C ,  2-C ) :   1.6305
B(  1-C , 32-H ) :   0.9605 B(  2-C ,  3-C ) :   1.2386 B(  2-C ,  6-C ) :   0.9989
B(  3-C ,  4-C ) :   1.5885 B(  3-C ,  5-H ) :   0.9856 B(  4-C , 20-C ) :   1.0167
B(  6-C ,  7-H ) :   0.9366 B(  6-C ,  8-H ) :   0.9472 B(  6-C ,  9-C ) :   1.0813
B(  9-C , 10-H ) :   0.9634 B(  9-C , 11-H ) :   0.9494 B(  9-C , 12-C ) :   1.0777
B( 12-C , 13-H ) :   0.9711 B( 12-C , 14-H ) :   0.9687 B( 12-C , 15-H ) :   0.9803
B( 16-S , 17-C ) :   1.1368 B( 16-S , 20-C ) :   1.1291 B( 17-C , 18-C ) :   1.6493
B( 17-C , 33-H ) :   0.9657 B( 18-C , 19-C ) :   1.2010 B( 18-C , 21-H ) :   0.9992
B( 19-C , 20-C ) :   1.6388 B( 19-C , 22-C ) :   1.0544 B( 22-C , 23-H ) :   0.9204
B( 22-C , 24-H ) :   0.9281 B( 22-C , 25-C ) :   1.0640 B( 25-C , 26-H ) :   0.9496
B( 25-C , 27-H ) :   0.9557 B( 25-C , 28-C ) :   1.0803 B( 28-C , 29-H ) :   0.9738
B( 28-C , 30-H ) :   0.9713 B( 28-C , 31-H ) :   0.9745

Dispersion correction           -0.014589410
FINAL SINGLE POINT ENERGY     -1339.857792319139

DIPOLE MOMENT
-------------
                                X             Y             Z
Electronic contribution:    -10.68039     -14.70432       5.24998
Nuclear contribution   :     10.98122      15.08801      -5.60831
                        -----------------------------------------
Total Dipole Moment    :      0.30083       0.38368      -0.35833
                        -----------------------------------------
Magnitude (a.u.)       :      0.60507
Magnitude (Debye)      :      1.53797

Rotational constants in cm-1:     0.018213     0.008444     0.007539
Rotational constants in MHz :   546.021774   253.132706   226.026063

                             ****ORCA TERMINATED NORMALLY****
TOTAL RUN TIME: 0 days 0 hours 0 minutes 20 seconds 349 msec
