                         Program Version 4.2.1 -  RELEASE  -
|  1> ! wB97X-D3 SP def2-SVP
|  2> %pal
|  3> nprocs 24
|  4> end
|  5>
|  6> * xyz 0 1
|  7> S 	 -80.8793 	 -5.16766 	 4.13517
|  8> C 	 -79.5863 	 -4.15538 	 3.50666
|  9> C 	 -78.7272 	 -4.93161 	 2.72726
| 10> C 	 -78.9949 	 -6.32471 	 2.81924
| 11> C 	 -80.0503 	 -6.64888 	 3.64171
| 12> H 	 -78.4025 	 -7.10442 	 2.35003
| 13> C 	 -77.7842 	 -4.36468 	 1.6932
| 14> H 	 -78.3396 	 -3.81097 	 0.901842
| 15> H 	 -77.2582 	 -5.18132 	 1.1868
| 16> C 	 -76.6852 	 -3.39195 	 2.1519
| 17> H 	 -76.5457 	 -2.84117 	 1.21134
| 18> H 	 -77.151 	 -2.75681 	 2.8671
| 19> C 	 -75.5013 	 -4.13451 	 2.71134
| 20> H 	 -75.0101 	 -4.67159 	 1.90696
| 21> H 	 -74.7952 	 -3.4722 	 3.21636
| 22> H 	 -75.9348 	 -4.88494 	 3.36615
| 23> S 	 -82.3143 	 -7.94964 	 3.04136
| 24> C 	 -82.3945 	 -9.642 	 3.365
| 25> C 	 -81.2336 	 -10.0908 	 3.93889
| 26> C 	 -80.2611 	 -9.11639 	 4.2396
| 27> C 	 -80.7177 	 -7.87161 	 3.78258
| 28> H 	 -80.9392 	 -11.1271 	 4.13294
| 29> C 	 -78.8933 	 -9.35067 	 4.96395
| 30> H 	 -79.0619 	 -9.93377 	 5.84631
| 31> H 	 -78.3401 	 -8.46098 	 5.34941
| 32> C 	 -77.8848 	 -10.0223 	 4.01065
| 33> H 	 -77.8212 	 -9.5937 	 2.97197
| 34> H 	 -78.3314 	 -10.945 	 3.78876
| 35> C 	 -76.5116 	 -10.4642 	 4.55866
| 36> H 	 -76.6254 	 -10.9891 	 5.53951
| 37> H 	 -75.9792 	 -9.57658 	 4.8967
| 38> H 	 -75.9645 	 -11.1149 	 3.9255
| 39> H 	 -79.5653 	 -3.06849 	 3.56987
| 40> H 	 -83.2633 	 -10.27 	 3.18863
| 41> *
| 42>
| 43>                          ****END OF INPUT****

CARTESIAN COORDINATES (ANGSTROEM)
---------------------------------
  S    -80.879300   -5.167660    4.135170
  C    -79.586300   -4.155380    3.506660
  C    -78.727200   -4.931610    2.727260
  C    -78.994900   -6.324710    2.819240
  C    -80.050300   -6.648880    3.641710
  H    -78.402500   -7.104420    2.350030
  C    -77.784200   -4.364680    1.693200
  H    -78.339600   -3.810970    0.901842
  H    -77.258200   -5.181320    1.186800
  C    -76.685200   -3.391950    2.151900
  H    -76.545700   -2.841170    1.211340
  H    -77.151000   -2.756810    2.867100
  C    -75.501300   -4.134510    2.711340
  H    -75.010100   -4.671590    1.906960
  H    -74.795200   -3.472200    3.216360
  H    -75.934800   -4.884940    3.366150
  S    -82.314300   -7.949640    3.041360
  C    -82.394500   -9.642000    3.365000
  C    -81.233600  -10.090800    3.938890
  C    -80.261100   -9.116390    4.239600
  C    -80.717700   -7.871610    3.782580
  H    -80.939200  -11.127100    4.132940
  C    -78.893300   -9.350670    4.963950
  H    -79.061900   -9.933770    5.846310
  H    -78.340100   -8.460980    5.349410
  C    -77.884800  -10.022300    4.010650
  H    -77.821200   -9.593700    2.971970
  H    -78.331400  -10.945000    3.788760
  C    -76.511600  -10.464200    4.558660
  H    -76.625400  -10.989100    5.539510
  H    -75.979200   -9.576580    4.896700
  H    -75.964500  -11.114900    3.925500
  H    -79.565300   -3.068490    3.569870
  H    -83.263300  -10.270000    3.188630

 Total Charge           Charge          ....    0
 Multiplicity           Mult            ....    1
 Number of Electrons    NEL             ....  134
 Basis Dimension        Dim             ....  322

ORBITAL ENERGIES
----------------

  NO   OCC          E(Eh)            E(eV)
   0   2.0000     -88.967227     -2420.9213
   1   2.0000     -88.964108     -2420.8364
   2   2.0000     -10.323090      -280.9056
   3   2.0000     -10.321875      -280.8725
   4   2.0000     -10.317066      -280.7416
   5   2.0000     -10.315849      -280.7085
   6   2.0000     -10.306145      -280.4445
   7   2.0000     -10.301538      -280.3191
   8   2.0000     -10.300434      -280.2891
   9   2.0000     -10.293991      -280.1137
  10   2.0000     -10.292967      -280.0859
  11   2.0000     -10.289832      -280.0006
  12   2.0000     -10.285828      -279.8916
  13   2.0000     -10.280633      -279.7502
  14   2.0000     -10.280135      -279.7367
  15   2.0000     -10.275184      -279.6020
  16   2.0000      -8.082296      -219.9304
  17   2.0000      -8.078593      -219.8297
  18   2.0000      -6.040707      -164.3760
  19   2.0000      -6.037108      -164.2781
  20   2.0000      -6.036803      -164.2698
  21   2.0000      -6.033157      -164.1706
  22   2.0000      -6.033061      -164.1679
  23   2.0000      -6.029326      -164.0663
  24   2.0000      -1.010744       -27.5037
  25   2.0000      -0.983643       -26.7663
  26   2.0000      -0.916698       -24.9446
  27   2.0000      -0.907560       -24.6960
  28   2.0000      -0.874183       -23.7877
  29   2.0000      -0.853685       -23.2299
  30   2.0000      -0.845499       -23.0072
  31   2.0000      -0.810837       -22.0640
  32   2.0000      -0.786572       -21.4037
  33   2.0000      -0.771148       -20.9840
  34   2.0000      -0.707108       -19.2414
  35   2.0000      -0.702099       -19.1051
  36   2.0000      -0.697572       -18.9819
  37   2.0000      -0.662388       -18.0245
  38   2.0000      -0.640064       -17.4170
  39   2.0000      -0.613773       -16.7016
  40   2.0000      -0.603700       -16.4275
  41   2.0000      -0.574597       -15.6356
  42   2.0000      -0.558066       -15.1857
  43   2.0000      -0.555378       -15.1126
  44   2.0000      -0.533974       -14.5302
  45   2.0000      -0.531059       -14.4508
  46   2.0000      -0.516682       -14.0596
  47   2.0000      -0.512187       -13.9373
  48   2.0000      -0.508812       -13.8455
  49   2.0000      -0.498280       -13.5589
  50   2.0000      -0.493000       -13.4152
  51   2.0000      -0.479030       -13.0351
  52   2.0000      -0.475693       -12.9443
  53   2.0000      -0.470683       -12.8079
  54   2.0000      -0.458091       -12.4653
  55   2.0000      -0.451449       -12.2845
  56   2.0000      -0.441318       -12.0089
  57   2.0000      -0.437745       -11.9116
  58   2.0000      -0.432359       -11.7651
  59   2.0000      -0.428557       -11.6616
  60   2.0000      -0.418034       -11.3753
  61   2.0000      -0.416450       -11.3322
  62   2.0000      -0.404510       -11.0073
  63   2.0000      -0.344111        -9.3637
  64   2.0000      -0.335272        -9.1232
  65   2.0000      -0.326033        -8.8718
  66   2.0000      -0.290354        -7.9009
  67   0.0000       0.027497         0.7482
  68   0.0000       0.060179         1.6375
  69   0.0000       0.109481         2.9791
  70   0.0000       0.122019         3.3203
  71   0.0000       0.130049         3.5388

MULLIKEN ATOMIC CHARGES
-----------------------
   0 S :    0.095945
   1 C :   -0.119450
   2 C :   -0.076710
   3 C :    0.050634
   4 C :   -0.164780
   5 H :    0.010920
   6 C :    0.000813
   7 H :    0.046346
   8 H :    0.010238
   9 C :   -0.052967
  10 H :    0.026245
  11 H :    0.013658
  12 C :   -0.025346
  13 H :    0.025219
  14 H :    0.042586
  15 H :    0.032268
  16 S :    0.123586
  17 C :   -0.083226
  18 C :   -0.033493
  19 C :   -0.024090
  20 C :   -0.179345
  21 H :    0.016457
  22 C :    0.089782
  23 H :    0.023151
  24 H :    0.037618
  25 C :   -0.109782
  26 H :    0.038772
  27 H :    0.002285
  28 C :   -0.021854
  29 H :    0.020167
  30 H :    0.025229
  31 H :    0.040395
  32 H :    0.057326
  33 H :    0.061404
Sum of atomic charges:    0.0000000

LOEWDIN ATOMIC CHARGES
----------------------
   0 S :    0.397502
   1 C :   -0.192973
   2 C :   -0.071415
   3 C :   -0.054573
   4 C :   -0.194483
   5 H :    0.032122
   6 C :   -0.034679
   7 H :    0.037027
   8 H :    0.024888
   9 C :   -0.039738
  10 H :    0.024938
  11 H :    0.015022
  12 C :   -0.061432
  13 H :    0.024726
  14 H :    0.027451
  15 H :    0.029027
  16 S :    0.418835
  17 C :   -0.197684
  18 C :   -0.073747
  19 C :   -0.049986
  20 C :   -0.198051
  21 H :    0.031273
  22 C :   -0.022701
  23 H :    0.028643
  24 H :    0.035728
  25 C :   -0.052310
  26 H :    0.029709
  27 H :    0.013355
  28 C :   -0.064464
  29 H :    0.029350
  30 H :    0.022650
  31 H :    0.024047
  32 H :    0.028980
  33 H :    0.032961

  Mayer bond orders larger than 0.100000
B(  0-S ,  1-C ) :   1.1437 B(  0-S ,  4-C ) :   1.1431 B(  1-C ,  2-C ) :   1.5800
B(  1-C ,  4-C ) :   0.1037 B(  1-C , 32-H ) :   0.9695 B(  2-C ,  3-C ) :   1.2589
B(  2-C ,  6-C ) :   1.0238 B(  3-C ,  4-C ) :   1.5565 B(  3-C ,  5-H ) :   0.9926
B(  4-C , 20-C ) :   1.0598 B(  6-C ,  7-H ) :   0.9458 B(  6-C ,  8-H ) :   0.9450
B(  6-C ,  9-C ) :   1.0599 B(  9-C , 10-H ) :   0.9576 B(  9-C , 11-H ) :   0.9584
B(  9-C , 12-C ) :   1.0744 B( 12-C , 13-H ) :   0.9716 B( 12-C , 14-H ) :   0.9742
B( 12-C , 15-H ) :   0.9761 B( 16-S , 17-C ) :   1.1489 B( 16-S , 20-C ) :   1.1589
B( 17-C , 18-C ) :   1.5860 B( 17-C , 20-C ) :   0.1047 B( 17-C , 33-H ) :   0.9694
B( 18-C , 19-C ) :   1.2787 B( 18-C , 21-H ) :   0.9790 B( 19-C , 20-C ) :   1.5759
B( 19-C , 22-C ) :   1.0316 B( 22-C , 23-H ) :   0.9354 B( 22-C , 24-H ) :   0.9445
B( 22-C , 25-C ) :   1.0486 B( 25-C , 26-H ) :   0.9535 B( 25-C , 27-H ) :   0.9524
B( 25-C , 28-C ) :   1.0812 B( 28-C , 29-H ) :   0.9693 B( 28-C , 30-H ) :   0.9743
B( 28-C , 31-H ) :   0.9750

Dispersion correction           -0.014051148
FINAL SINGLE POINT ENERGY     -1339.869032877412

DIPOLE MOMENT
-------------
                                X             Y             Z
Electronic contribution:    -29.95332       2.96573       1.85539
Nuclear contribution   :     30.44959      -3.21189      -2.09070
                        -----------------------------------------
Total Dipole Moment    :      0.49627      -0.24616      -0.23532
                        -----------------------------------------
Magnitude (a.u.)       :      0.60187
Magnitude (Debye)      :      1.52983

Rotational constants in cm-1:     0.017184     0.009277     0.006578
Rotational constants in MHz :   515.155505   278.116395   197.204602

                             ****ORCA TERMINATED NORMALLY****
TOTAL RUN TIME: 0 days 0 hours 0 minutes 21 seconds 377 msec
