                         Program Version 4.2.1 -  RELEASE  -
|  1> ! wB97X-D3 SP def2-SVP
|  2> %pal
|  3> nprocs 24
|  4> end
|  5>
|  6> * xyz 0 1
|  7> S 	 -93.0531 	 4.35903 	 -1.43473
|  8> C 	 -91.5133 	 4.82287 	 -0.645198
|  9> C 	 -91.7297 	 5.7316 	 0.395238
| 10> C 	 -93.147 	 6.00873 	 0.579297
| 11> C 	 -93.9525 	 5.40818 	 -0.381691
| 12> H 	 -93.6538 	 6.64891 	 1.32793
| 13> C 	 -90.6598 	 6.40478 	 1.23912
| 14> H 	 -91.1142 	 7.15055 	 1.85116
| 15> H 	 -89.9798 	 6.82783 	 0.482957
| 16> C 	 -89.8277 	 5.31271 	 2.03445
| 17> H 	 -90.582 	 4.92145 	 2.7412
| 18> H 	 -89.5453 	 4.43197 	 1.37067
| 19> C 	 -88.6074 	 5.86904 	 2.84783
| 20> H 	 -88.4595 	 5.18203 	 3.64532
| 21> H 	 -87.7206 	 5.96187 	 2.21039
| 22> H 	 -88.8812 	 6.82687 	 3.33185
| 23> S 	 -96.4817 	 4.39781 	 -0.606271
| 24> C 	 -97.8791 	 5.47589 	 -0.708606
| 25> C 	 -97.5091 	 6.79717 	 -0.764731
| 26> C 	 -96.082 	 6.91307 	 -0.603418
| 27> C 	 -95.3401 	 5.71667 	 -0.55747
| 28> H 	 -98.2793 	 7.54752 	 -0.955075
| 29> C 	 -95.5739 	 8.28958 	 -0.419918
| 30> H 	 -95.717 	 8.78677 	 -1.34736
| 31> H 	 -94.4815 	 8.27005 	 -0.300269
| 32> C 	 -96.1932 	 9.08952 	 0.742054
| 33> H 	 -97.303 	 9.10512 	 0.800561
| 34> H 	 -95.9234 	 10.1563 	 0.789081
| 35> C 	 -95.8174 	 8.45124 	 2.09226
| 36> H 	 -94.7518 	 8.58556 	 2.29789
| 37> H 	 -95.8482 	 7.35697 	 2.10156
| 38> H 	 -96.3719 	 8.71856 	 2.92819
| 39> H 	 -90.6311 	 4.28277 	 -0.804409
| 40> H 	 -98.8771 	 5.29066 	 -0.991173
| 41> *
| 42>
| 43>                          ****END OF INPUT****

CARTESIAN COORDINATES (ANGSTROEM)
---------------------------------
  S    -93.053100    4.359030   -1.434730
  C    -91.513300    4.822870   -0.645198
  C    -91.729700    5.731600    0.395238
  C    -93.147000    6.008730    0.579297
  C    -93.952500    5.408180   -0.381691
  H    -93.653800    6.648910    1.327930
  C    -90.659800    6.404780    1.239120
  H    -91.114200    7.150550    1.851160
  H    -89.979800    6.827830    0.482957
  C    -89.827700    5.312710    2.034450
  H    -90.582000    4.921450    2.741200
  H    -89.545300    4.431970    1.370670
  C    -88.607400    5.869040    2.847830
  H    -88.459500    5.182030    3.645320
  H    -87.720600    5.961870    2.210390
  H    -88.881200    6.826870    3.331850
  S    -96.481700    4.397810   -0.606271
  C    -97.879100    5.475890   -0.708606
  C    -97.509100    6.797170   -0.764731
  C    -96.082000    6.913070   -0.603418
  C    -95.340100    5.716670   -0.557470
  H    -98.279300    7.547520   -0.955075
  C    -95.573900    8.289580   -0.419918
  H    -95.717000    8.786770   -1.347360
  H    -94.481500    8.270050   -0.300269
  C    -96.193200    9.089520    0.742054
  H    -97.303000    9.105120    0.800561
  H    -95.923400   10.156300    0.789081
  C    -95.817400    8.451240    2.092260
  H    -94.751800    8.585560    2.297890
  H    -95.848200    7.356970    2.101560
  H    -96.371900    8.718560    2.928190
  H    -90.631100    4.282770   -0.804409
  H    -98.877100    5.290660   -0.991173

 Total Charge           Charge          ....    0
 Multiplicity           Mult            ....    1
 Number of Electrons    NEL             ....  134
 Basis Dimension        Dim             ....  322

ORBITAL ENERGIES
----------------

  NO   OCC          E(Eh)            E(eV)
   0   2.0000     -88.967767     -2420.9360
   1   2.0000     -88.963931     -2420.8316
   2   2.0000     -10.328876      -281.0630
   3   2.0000     -10.327688      -281.0307
   4   2.0000     -10.315393      -280.6961
   5   2.0000     -10.313897      -280.6554
   6   2.0000     -10.308821      -280.5173
   7   2.0000     -10.305408      -280.4244
   8   2.0000     -10.299071      -280.2520
   9   2.0000     -10.299034      -280.2510
  10   2.0000     -10.296397      -280.1792
  11   2.0000     -10.294354      -280.1236
  12   2.0000     -10.292615      -280.0763
  13   2.0000     -10.285338      -279.8783
  14   2.0000     -10.282825      -279.8099
  15   2.0000     -10.269943      -279.4594
  16   2.0000      -8.082018      -219.9229
  17   2.0000      -8.078456      -219.8260
  18   2.0000      -6.040565      -164.3721
  19   2.0000      -6.037168      -164.2797
  20   2.0000      -6.036589      -164.2639
  21   2.0000      -6.032865      -164.1626
  22   2.0000      -6.032767      -164.1599
  23   2.0000      -6.029137      -164.0612
  24   2.0000      -1.005241       -27.3540
  25   2.0000      -0.979890       -26.6642
  26   2.0000      -0.911247       -24.7963
  27   2.0000      -0.906229       -24.6597
  28   2.0000      -0.870796       -23.6956
  29   2.0000      -0.847419       -23.0594
  30   2.0000      -0.844092       -22.9689
  31   2.0000      -0.817416       -22.2430
  32   2.0000      -0.782197       -21.2847
  33   2.0000      -0.771188       -20.9851
  34   2.0000      -0.712932       -19.3999
  35   2.0000      -0.702698       -19.1214
  36   2.0000      -0.695036       -18.9129
  37   2.0000      -0.658949       -17.9309
  38   2.0000      -0.643203       -17.5024
  39   2.0000      -0.614629       -16.7249
  40   2.0000      -0.591016       -16.0824
  41   2.0000      -0.572248       -15.5717
  42   2.0000      -0.563108       -15.3229
  43   2.0000      -0.559749       -15.2315
  44   2.0000      -0.535605       -14.5746
  45   2.0000      -0.523250       -14.2384
  46   2.0000      -0.519038       -14.1237
  47   2.0000      -0.513141       -13.9633
  48   2.0000      -0.511692       -13.9238
  49   2.0000      -0.501783       -13.6542
  50   2.0000      -0.493174       -13.4199
  51   2.0000      -0.478696       -13.0260
  52   2.0000      -0.471405       -12.8276
  53   2.0000      -0.460100       -12.5200
  54   2.0000      -0.454457       -12.3664
  55   2.0000      -0.446076       -12.1384
  56   2.0000      -0.442232       -12.0337
  57   2.0000      -0.439715       -11.9652
  58   2.0000      -0.436344       -11.8735
  59   2.0000      -0.424423       -11.5491
  60   2.0000      -0.421450       -11.4682
  61   2.0000      -0.416957       -11.3460
  62   2.0000      -0.410830       -11.1792
  63   2.0000      -0.345096        -9.3905
  64   2.0000      -0.329368        -8.9625
  65   2.0000      -0.324678        -8.8349
  66   2.0000      -0.294035        -8.0011
  67   0.0000       0.025349         0.6898
  68   0.0000       0.069851         1.9007
  69   0.0000       0.109474         2.9789
  70   0.0000       0.118766         3.2318
  71   0.0000       0.125107         3.4043

MULLIKEN ATOMIC CHARGES
-----------------------
   0 S :    0.113331
   1 C :   -0.113849
   2 C :   -0.098953
   3 C :    0.020909
   4 C :   -0.144082
   5 H :    0.004715
   6 C :    0.103476
   7 H :    0.020832
   8 H :    0.042179
   9 C :   -0.159169
  10 H :    0.036263
  11 H :    0.046013
  12 C :   -0.017527
  13 H :    0.031169
  14 H :    0.045792
  15 H :    0.031588
  16 S :    0.095907
  17 C :   -0.054634
  18 C :   -0.062483
  19 C :   -0.062316
  20 C :   -0.139997
  21 H :    0.036387
  22 C :    0.089821
  23 H :    0.024981
  24 H :    0.020052
  25 C :   -0.071642
  26 H :    0.031637
  27 H :    0.037447
  28 C :   -0.060044
  29 H :    0.021339
  30 H :    0.037193
  31 H :    0.020166
  32 H :    0.035629
  33 H :    0.037873
Sum of atomic charges:    0.0000000

LOEWDIN ATOMIC CHARGES
----------------------
   0 S :    0.399089
   1 C :   -0.184057
   2 C :   -0.051132
   3 C :   -0.066081
   4 C :   -0.202611
   5 H :    0.034809
   6 C :   -0.028590
   7 H :    0.025075
   8 H :    0.037140
   9 C :   -0.044850
  10 H :    0.025527
  11 H :    0.029492
  12 C :   -0.065641
  13 H :    0.024075
  14 H :    0.027877
  15 H :    0.029051
  16 S :    0.399789
  17 C :   -0.174657
  18 C :   -0.068312
  19 C :   -0.051700
  20 C :   -0.206642
  21 H :    0.039117
  22 C :   -0.035600
  23 H :    0.030344
  24 H :    0.030817
  25 C :   -0.038668
  26 H :    0.025104
  27 H :    0.028375
  28 C :   -0.068226
  29 H :    0.019560
  30 H :    0.026578
  31 H :    0.016470
  32 H :    0.014719
  33 H :    0.023757

  Mayer bond orders larger than 0.100000
B(  0-S ,  1-C ) :   1.1272 B(  0-S ,  4-C ) :   1.1557 B(  1-C ,  2-C ) :   1.6035
B(  1-C ,  4-C ) :   0.1004 B(  1-C , 32-H ) :   0.9764 B(  2-C ,  3-C ) :   1.2292
B(  2-C ,  6-C ) :   1.0149 B(  3-C ,  4-C ) :   1.5668 B(  3-C ,  5-H ) :   0.9855
B(  4-C , 20-C ) :   1.0468 B(  6-C ,  7-H ) :   0.9441 B(  6-C ,  8-H ) :   0.9394
B(  6-C ,  9-C ) :   1.0472 B(  9-C , 10-H ) :   0.9610 B(  9-C , 11-H ) :   0.9613
B(  9-C , 12-C ) :   1.0700 B( 12-C , 13-H ) :   0.9762 B( 12-C , 14-H ) :   0.9773
B( 12-C , 15-H ) :   0.9731 B( 16-S , 17-C ) :   1.1509 B( 16-S , 20-C ) :   1.1212
B( 17-C , 18-C ) :   1.6373 B( 17-C , 33-H ) :   0.9618 B( 18-C , 19-C ) :   1.2213
B( 18-C , 21-H ) :   0.9874 B( 19-C , 20-C ) :   1.5846 B( 19-C , 22-C ) :   1.0587
B( 22-C , 23-H ) :   0.9224 B( 22-C , 24-H ) :   0.9369 B( 22-C , 25-C ) :   1.0612
B( 25-C , 26-H ) :   0.9584 B( 25-C , 27-H ) :   0.9576 B( 25-C , 28-C ) :   1.0646
B( 28-C , 29-H ) :   0.9695 B( 28-C , 30-H ) :   0.9719 B( 28-C , 31-H ) :   0.9710

Dispersion correction           -0.014832267
FINAL SINGLE POINT ENERGY     -1339.868396693240

DIPOLE MOMENT
-------------
                                X             Y             Z
Electronic contribution:    -13.53216     -17.12612     -18.08745
Nuclear contribution   :     13.68246      17.71630      18.43246
                        -----------------------------------------
Total Dipole Moment    :      0.15030       0.59018       0.34501
                        -----------------------------------------
Magnitude (a.u.)       :      0.69996
Magnitude (Debye)      :      1.77915

Rotational constants in cm-1:     0.021208     0.008029     0.006366
Rotational constants in MHz :   635.806189   240.714938   190.858023

                             ****ORCA TERMINATED NORMALLY****
TOTAL RUN TIME: 0 days 0 hours 0 minutes 22 seconds 190 msec
