                         Program Version 4.2.1 -  RELEASE  -
|  1> ! wB97X-D3 SP def2-SVP
|  2> %pal
|  3> nprocs 24
|  4> end
|  5>
|  6> * xyz 0 1
|  7> S 	 -38.7939 	 -1.52909 	 13.5587
|  8> C 	 -39.1386 	 -1.07664 	 15.224
|  9> C 	 -40.5148 	 -0.879215 	 15.4109
| 10> C 	 -41.2532 	 -1.1316 	 14.1883
| 11> C 	 -40.4931 	 -1.33645 	 13.0427
| 12> H 	 -42.2998 	 -0.961303 	 14.0711
| 13> C 	 -41.0992 	 -0.577039 	 16.7045
| 14> H 	 -41.1678 	 -1.54677 	 17.2836
| 15> H 	 -42.1626 	 -0.362884 	 16.5872
| 16> C 	 -40.4492 	 0.624634 	 17.485
| 17> H 	 -40.8373 	 0.766839 	 18.5172
| 18> H 	 -39.331 	 0.427455 	 17.5719
| 19> C 	 -40.5312 	 1.97742 	 16.769
| 20> H 	 -39.7336 	 2.51536 	 17.2264
| 21> H 	 -40.3394 	 2.12563 	 15.72
| 22> H 	 -41.4971 	 2.40132 	 16.929
| 23> S 	 -40.4453 	 -3.02121 	 10.9432
| 24> C 	 -41.427 	 -2.77713 	 9.58309
| 25> C 	 -42.1949 	 -1.61496 	 9.72019
| 26> C 	 -41.9419 	 -0.913204 	 10.9507
| 27> C 	 -41.0147 	 -1.57382 	 11.7278
| 28> H 	 -42.8577 	 -1.26106 	 8.98463
| 29> C 	 -42.5926 	 0.38071 	 11.3611
| 30> H 	 -42.0125 	 0.794435 	 12.1194
| 31> H 	 -43.5162 	 -0.0705056 	 11.7527
| 32> C 	 -42.8833 	 1.30207 	 10.2163
| 33> H 	 -43.8631 	 1.10119 	 9.77843
| 34> H 	 -42.0989 	 1.22481 	 9.48831
| 35> C 	 -43.0967 	 2.71389 	 10.7203
| 36> H 	 -43.3843 	 3.32346 	 9.97263
| 37> H 	 -42.0621 	 3.11081 	 10.9657
| 38> H 	 -43.7177 	 2.82891 	 11.566
| 39> H 	 -38.3799 	 -1.01126 	 15.9878
| 40> H 	 -41.5072 	 -3.46606 	 8.72289
| 41> *
| 42>
| 43>                          ****END OF INPUT****

CARTESIAN COORDINATES (ANGSTROEM)
---------------------------------
  S    -38.793900   -1.529090   13.558700
  C    -39.138600   -1.076640   15.224000
  C    -40.514800   -0.879215   15.410900
  C    -41.253200   -1.131600   14.188300
  C    -40.493100   -1.336450   13.042700
  H    -42.299800   -0.961303   14.071100
  C    -41.099200   -0.577039   16.704500
  H    -41.167800   -1.546770   17.283600
  H    -42.162600   -0.362884   16.587200
  C    -40.449200    0.624634   17.485000
  H    -40.837300    0.766839   18.517200
  H    -39.331000    0.427455   17.571900
  C    -40.531200    1.977420   16.769000
  H    -39.733600    2.515360   17.226400
  H    -40.339400    2.125630   15.720000
  H    -41.497100    2.401320   16.929000
  S    -40.445300   -3.021210   10.943200
  C    -41.427000   -2.777130    9.583090
  C    -42.194900   -1.614960    9.720190
  C    -41.941900   -0.913204   10.950700
  C    -41.014700   -1.573820   11.727800
  H    -42.857700   -1.261060    8.984630
  C    -42.592600    0.380710   11.361100
  H    -42.012500    0.794435   12.119400
  H    -43.516200   -0.070506   11.752700
  C    -42.883300    1.302070   10.216300
  H    -43.863100    1.101190    9.778430
  H    -42.098900    1.224810    9.488310
  C    -43.096700    2.713890   10.720300
  H    -43.384300    3.323460    9.972630
  H    -42.062100    3.110810   10.965700
  H    -43.717700    2.828910   11.566000
  H    -38.379900   -1.011260   15.987800
  H    -41.507200   -3.466060    8.722890

 Total Charge           Charge          ....    0
 Multiplicity           Mult            ....    1
 Number of Electrons    NEL             ....  134
 Basis Dimension        Dim             ....  322

ORBITAL ENERGIES
----------------

  NO   OCC          E(Eh)            E(eV)
   0   2.0000     -88.963962     -2420.8325
   1   2.0000     -88.962073     -2420.7811
   2   2.0000     -10.330053      -281.0950
   3   2.0000     -10.318730      -280.7869
   4   2.0000     -10.317689      -280.7586
   5   2.0000     -10.314956      -280.6842
   6   2.0000     -10.301163      -280.3089
   7   2.0000     -10.300635      -280.2945
   8   2.0000     -10.300049      -280.2786
   9   2.0000     -10.293356      -280.0965
  10   2.0000     -10.293079      -280.0889
  11   2.0000     -10.290848      -280.0282
  12   2.0000     -10.283972      -279.8411
  13   2.0000     -10.282376      -279.7977
  14   2.0000     -10.269492      -279.4471
  15   2.0000     -10.268630      -279.4236
  16   2.0000      -8.078128      -219.8170
  17   2.0000      -8.077832      -219.8090
  18   2.0000      -6.036561      -164.2632
  19   2.0000      -6.036503      -164.2616
  20   2.0000      -6.032365      -164.1490
  21   2.0000      -6.032287      -164.1469
  22   2.0000      -6.029049      -164.0588
  23   2.0000      -6.028571      -164.0458
  24   2.0000      -1.007894       -27.4262
  25   2.0000      -0.980655       -26.6850
  26   2.0000      -0.922911       -25.1137
  27   2.0000      -0.910391       -24.7730
  28   2.0000      -0.869960       -23.6728
  29   2.0000      -0.857865       -23.3437
  30   2.0000      -0.846296       -23.0289
  31   2.0000      -0.813312       -22.1313
  32   2.0000      -0.786112       -21.3912
  33   2.0000      -0.770732       -20.9727
  34   2.0000      -0.710577       -19.3358
  35   2.0000      -0.705744       -19.2043
  36   2.0000      -0.695403       -18.9229
  37   2.0000      -0.658094       -17.9076
  38   2.0000      -0.638789       -17.3823
  39   2.0000      -0.610761       -16.6196
  40   2.0000      -0.596495       -16.2314
  41   2.0000      -0.582521       -15.8512
  42   2.0000      -0.575834       -15.6693
  43   2.0000      -0.549074       -14.9411
  44   2.0000      -0.540813       -14.7163
  45   2.0000      -0.536542       -14.6001
  46   2.0000      -0.522272       -14.2117
  47   2.0000      -0.518141       -14.0993
  48   2.0000      -0.506675       -13.7873
  49   2.0000      -0.504622       -13.7315
  50   2.0000      -0.488838       -13.3020
  51   2.0000      -0.478596       -13.0233
  52   2.0000      -0.475458       -12.9379
  53   2.0000      -0.467227       -12.7139
  54   2.0000      -0.458558       -12.4780
  55   2.0000      -0.451308       -12.2807
  56   2.0000      -0.443815       -12.0768
  57   2.0000      -0.440059       -11.9746
  58   2.0000      -0.425342       -11.5741
  59   2.0000      -0.424112       -11.5407
  60   2.0000      -0.416925       -11.3451
  61   2.0000      -0.414869       -11.2892
  62   2.0000      -0.410905       -11.1813
  63   2.0000      -0.347527        -9.4567
  64   2.0000      -0.327615        -8.9149
  65   2.0000      -0.323629        -8.8064
  66   2.0000      -0.287314        -7.8182
  67   0.0000       0.030469         0.8291
  68   0.0000       0.070784         1.9261
  69   0.0000       0.117118         3.1869
  70   0.0000       0.123373         3.3572
  71   0.0000       0.130735         3.5575

MULLIKEN ATOMIC CHARGES
-----------------------
   0 S :    0.101835
   1 C :   -0.129846
   2 C :   -0.091394
   3 C :    0.040728
   4 C :   -0.156289
   5 H :    0.004695
   6 C :    0.066509
   7 H :    0.054541
   8 H :    0.009654
   9 C :   -0.103627
  10 H :    0.042889
  11 H :    0.030630
  12 C :   -0.037602
  13 H :    0.025405
  14 H :    0.037512
  15 H :    0.025984
  16 S :    0.117937
  17 C :   -0.089499
  18 C :   -0.032084
  19 C :   -0.085158
  20 C :   -0.172385
  21 H :   -0.000884
  22 C :    0.122705
  23 H :    0.016966
  24 H :    0.043479
  25 C :   -0.084106
  26 H :    0.026258
  27 H :    0.037266
  28 C :    0.000195
  29 H :    0.003478
  30 H :    0.024880
  31 H :    0.027822
  32 H :    0.052476
  33 H :    0.069028
Sum of atomic charges:    0.0000000

LOEWDIN ATOMIC CHARGES
----------------------
   0 S :    0.384370
   1 C :   -0.191527
   2 C :   -0.065252
   3 C :   -0.059645
   4 C :   -0.187683
   5 H :    0.024630
   6 C :   -0.047882
   7 H :    0.044574
   8 H :    0.026788
   9 C :   -0.037131
  10 H :    0.031560
  11 H :    0.024329
  12 C :   -0.066792
  13 H :    0.027546
  14 H :    0.027166
  15 H :    0.020280
  16 S :    0.434249
  17 C :   -0.202983
  18 C :   -0.074435
  19 C :   -0.048493
  20 C :   -0.212131
  21 H :    0.021366
  22 C :   -0.025868
  23 H :    0.022039
  24 H :    0.044377
  25 C :   -0.038366
  26 H :    0.026400
  27 H :    0.024596
  28 C :   -0.050726
  29 H :    0.008999
  30 H :    0.031458
  31 H :    0.021383
  32 H :    0.025648
  33 H :    0.037156

  Mayer bond orders larger than 0.100000
B(  0-S ,  1-C ) :   1.1375 B(  0-S ,  4-C ) :   1.1347 B(  1-C ,  2-C ) :   1.5787
B(  1-C , 32-H ) :   0.9723 B(  2-C ,  3-C ) :   1.2458 B(  2-C ,  6-C ) :   1.0393
B(  3-C ,  4-C ) :   1.5628 B(  3-C ,  5-H ) :   0.9885 B(  4-C , 20-C ) :   1.0656
B(  6-C ,  7-H ) :   0.9302 B(  6-C ,  8-H ) :   0.9384 B(  6-C ,  9-C ) :   1.0558
B(  9-C , 10-H ) :   0.9559 B(  9-C , 11-H ) :   0.9661 B(  9-C , 12-C ) :   1.0631
B( 12-C , 13-H ) :   0.9752 B( 12-C , 14-H ) :   0.9762 B( 12-C , 15-H ) :   0.9776
B( 16-S , 17-C ) :   1.1834 B( 16-S , 20-C ) :   1.1418 B( 17-C , 18-C ) :   1.5635
B( 17-C , 33-H ) :   0.9650 B( 18-C , 19-C ) :   1.2566 B( 18-C , 21-H ) :   0.9980
B( 19-C , 20-C ) :   1.5903 B( 19-C , 22-C ) :   1.0233 B( 22-C , 23-H ) :   0.9395
B( 22-C , 24-H ) :   0.9101 B( 22-C , 25-C ) :   1.0787 B( 25-C , 26-H ) :   0.9379
B( 25-C , 27-H ) :   0.9646 B( 25-C , 28-C ) :   1.0999 B( 28-C , 29-H ) :   0.9700
B( 28-C , 30-H ) :   0.9720 B( 28-C , 31-H ) :   0.9715

Dispersion correction           -0.013980330
FINAL SINGLE POINT ENERGY     -1339.865388150222

DIPOLE MOMENT
-------------
                                X             Y             Z
Electronic contribution:     12.81912     -23.80420     -10.26538
Nuclear contribution   :    -13.40453      24.26924      10.42717
                        -----------------------------------------
Total Dipole Moment    :     -0.58542       0.46504       0.16179
                        -----------------------------------------
Magnitude (a.u.)       :      0.76495
Magnitude (Debye)      :      1.94435

Rotational constants in cm-1:     0.018034     0.008938     0.006507
Rotational constants in MHz :   540.633391   267.940771   195.068367

                             ****ORCA TERMINATED NORMALLY****
TOTAL RUN TIME: 0 days 0 hours 0 minutes 21 seconds 571 msec
