                         Program Version 4.2.1 -  RELEASE  -
|  1> ! wB97X-D3 SP def2-SVP
|  2> %pal
|  3> nprocs 24
|  4> end
|  5>
|  6> * xyz 0 1
|  7> S 	 -134.639 	 65.7636 	 -58.4422
|  8> C 	 -134.239 	 63.9936 	 -58.6429
|  9> C 	 -135.251 	 63.2479 	 -58.1293
| 10> C 	 -136.472 	 63.9915 	 -57.9012
| 11> C 	 -136.328 	 65.3796 	 -58.1016
| 12> H 	 -137.467 	 63.5749 	 -57.6723
| 13> C 	 -135.082 	 61.8018 	 -57.9492
| 14> H 	 -134.02 	 61.6061 	 -57.7197
| 15> H 	 -135.048 	 61.4656 	 -58.9773
| 16> C 	 -135.988 	 60.9454 	 -57.0063
| 17> H 	 -137.045 	 61.1496 	 -57.3108
| 18> H 	 -135.831 	 59.9295 	 -57.2465
| 19> C 	 -135.852 	 61.2137 	 -55.4669
| 20> H 	 -134.749 	 61.2662 	 -55.338
| 21> H 	 -136.317 	 62.1852 	 -55.1993
| 22> H 	 -136.308 	 60.4159 	 -54.8219
| 23> S 	 -136.755 	 67.6338 	 -56.5918
| 24> C 	 -138.302 	 68.4091 	 -56.5604
| 25> C 	 -139.105 	 67.8099 	 -57.4788
| 26> C 	 -138.45 	 66.8706 	 -58.2752
| 27> C 	 -137.292 	 66.4288 	 -57.6952
| 28> H 	 -140.119 	 68.2017 	 -57.5174
| 29> C 	 -139.161 	 66.4182 	 -59.5362
| 30> H 	 -139.864 	 65.591 	 -59.2748
| 31> H 	 -138.399 	 65.8963 	 -60.1308
| 32> C 	 -139.686 	 67.5055 	 -60.448
| 33> H 	 -138.875 	 68.2533 	 -60.5403
| 34> H 	 -140.533 	 67.9414 	 -59.9569
| 35> C 	 -140.035 	 67.043 	 -61.8981
| 36> H 	 -140.618 	 66.0774 	 -61.9513
| 37> H 	 -139.128 	 66.8777 	 -62.3514
| 38> H 	 -140.716 	 67.8044 	 -62.3576
| 39> H 	 -133.189 	 63.5933 	 -58.8058
| 40> H 	 -138.552 	 69.312 	 -55.9877
| 41> *
| 42>
| 43>                          ****END OF INPUT****

CARTESIAN COORDINATES (ANGSTROEM)
---------------------------------
  S    -134.639000   65.763600  -58.442200
  C    -134.239000   63.993600  -58.642900
  C    -135.251000   63.247900  -58.129300
  C    -136.472000   63.991500  -57.901200
  C    -136.328000   65.379600  -58.101600
  H    -137.467000   63.574900  -57.672300
  C    -135.082000   61.801800  -57.949200
  H    -134.020000   61.606100  -57.719700
  H    -135.048000   61.465600  -58.977300
  C    -135.988000   60.945400  -57.006300
  H    -137.045000   61.149600  -57.310800
  H    -135.831000   59.929500  -57.246500
  C    -135.852000   61.213700  -55.466900
  H    -134.749000   61.266200  -55.338000
  H    -136.317000   62.185200  -55.199300
  H    -136.308000   60.415900  -54.821900
  S    -136.755000   67.633800  -56.591800
  C    -138.302000   68.409100  -56.560400
  C    -139.105000   67.809900  -57.478800
  C    -138.450000   66.870600  -58.275200
  C    -137.292000   66.428800  -57.695200
  H    -140.119000   68.201700  -57.517400
  C    -139.161000   66.418200  -59.536200
  H    -139.864000   65.591000  -59.274800
  H    -138.399000   65.896300  -60.130800
  C    -139.686000   67.505500  -60.448000
  H    -138.875000   68.253300  -60.540300
  H    -140.533000   67.941400  -59.956900
  C    -140.035000   67.043000  -61.898100
  H    -140.618000   66.077400  -61.951300
  H    -139.128000   66.877700  -62.351400
  H    -140.716000   67.804400  -62.357600
  H    -133.189000   63.593300  -58.805800
  H    -138.552000   69.312000  -55.987700

 Total Charge           Charge          ....    0
 Multiplicity           Mult            ....    1
 Number of Electrons    NEL             ....  134
 Basis Dimension        Dim             ....  322

ORBITAL ENERGIES
----------------

  NO   OCC          E(Eh)            E(eV)
   0   2.0000     -88.963828     -2420.8288
   1   2.0000     -88.959988     -2420.7243
   2   2.0000     -10.336172      -281.2615
   3   2.0000     -10.323424      -280.9147
   4   2.0000     -10.317251      -280.7467
   5   2.0000     -10.312448      -280.6160
   6   2.0000     -10.302114      -280.3348
   7   2.0000     -10.301841      -280.3273
   8   2.0000     -10.297644      -280.2131
   9   2.0000     -10.294040      -280.1151
  10   2.0000     -10.292088      -280.0619
  11   2.0000     -10.288783      -279.9720
  12   2.0000     -10.288621      -279.9676
  13   2.0000     -10.286058      -279.8979
  14   2.0000     -10.284790      -279.8634
  15   2.0000     -10.280833      -279.7557
  16   2.0000      -8.077187      -219.7914
  17   2.0000      -8.075995      -219.7590
  18   2.0000      -6.035899      -164.2452
  19   2.0000      -6.034411      -164.2047
  20   2.0000      -6.032041      -164.1402
  21   2.0000      -6.030452      -164.0969
  22   2.0000      -6.027644      -164.0205
  23   2.0000      -6.026611      -163.9924
  24   2.0000      -1.012987       -27.5648
  25   2.0000      -0.982932       -26.7469
  26   2.0000      -0.911419       -24.8010
  27   2.0000      -0.908579       -24.7237
  28   2.0000      -0.867931       -23.6176
  29   2.0000      -0.849444       -23.1145
  30   2.0000      -0.838628       -22.8202
  31   2.0000      -0.816880       -22.2284
  32   2.0000      -0.780804       -21.2468
  33   2.0000      -0.772166       -21.0117
  34   2.0000      -0.711950       -19.3731
  35   2.0000      -0.698060       -18.9952
  36   2.0000      -0.690849       -18.7990
  37   2.0000      -0.651958       -17.7407
  38   2.0000      -0.634896       -17.2764
  39   2.0000      -0.617351       -16.7990
  40   2.0000      -0.596970       -16.2444
  41   2.0000      -0.572598       -15.5812
  42   2.0000      -0.564746       -15.3675
  43   2.0000      -0.552891       -15.0449
  44   2.0000      -0.535240       -14.5646
  45   2.0000      -0.521890       -14.2013
  46   2.0000      -0.517695       -14.0872
  47   2.0000      -0.506449       -13.7812
  48   2.0000      -0.505051       -13.7431
  49   2.0000      -0.500198       -13.6111
  50   2.0000      -0.491281       -13.3684
  51   2.0000      -0.478955       -13.0330
  52   2.0000      -0.473868       -12.8946
  53   2.0000      -0.464561       -12.6413
  54   2.0000      -0.457710       -12.4549
  55   2.0000      -0.448609       -12.2073
  56   2.0000      -0.441914       -12.0251
  57   2.0000      -0.435149       -11.8410
  58   2.0000      -0.427810       -11.6413
  59   2.0000      -0.422646       -11.5008
  60   2.0000      -0.416520       -11.3341
  61   2.0000      -0.415159       -11.2971
  62   2.0000      -0.413363       -11.2482
  63   2.0000      -0.339779        -9.2458
  64   2.0000      -0.326097        -8.8736
  65   2.0000      -0.323625        -8.8063
  66   2.0000      -0.295876        -8.0512
  67   0.0000       0.029685         0.8078
  68   0.0000       0.063015         1.7147
  69   0.0000       0.102490         2.7889
  70   0.0000       0.125974         3.4279
  71   0.0000       0.137137         3.7317

MULLIKEN ATOMIC CHARGES
-----------------------
   0 S :    0.086208
   1 C :   -0.155278
   2 C :   -0.060628
   3 C :    0.018505
   4 C :   -0.141394
   5 H :    0.027009
   6 C :    0.012660
   7 H :    0.014517
   8 H :    0.040174
   9 C :   -0.038682
  10 H :    0.026592
  11 H :    0.022690
  12 C :   -0.074625
  13 H :    0.037437
  14 H :    0.049780
  15 H :    0.052988
  16 S :    0.095925
  17 C :   -0.102832
  18 C :   -0.033047
  19 C :   -0.060427
  20 C :   -0.141402
  21 H :    0.023224
  22 C :    0.066152
  23 H :    0.042896
  24 H :    0.011485
  25 C :   -0.093096
  26 H :    0.042411
  27 H :    0.024963
  28 C :   -0.040466
  29 H :    0.033848
  30 H :    0.027984
  31 H :    0.047552
  32 H :    0.071212
  33 H :    0.065666
Sum of atomic charges:   -0.0000000

LOEWDIN ATOMIC CHARGES
----------------------
   0 S :    0.364032
   1 C :   -0.192409
   2 C :   -0.062972
   3 C :   -0.064928
   4 C :   -0.181969
   5 H :    0.035464
   6 C :   -0.045830
   7 H :    0.031567
   8 H :    0.043240
   9 C :   -0.038450
  10 H :    0.023557
  11 H :    0.020979
  12 C :   -0.070442
  13 H :    0.028605
  14 H :    0.030669
  15 H :    0.033801
  16 S :    0.418509
  17 C :   -0.190517
  18 C :   -0.077057
  19 C :   -0.061234
  20 C :   -0.209904
  21 H :    0.033712
  22 C :   -0.039743
  23 H :    0.035690
  24 H :    0.028118
  25 C :   -0.039019
  26 H :    0.033047
  27 H :    0.015126
  28 C :   -0.060042
  29 H :    0.029902
  30 H :    0.014446
  31 H :    0.035531
  32 H :    0.042217
  33 H :    0.036302

  Mayer bond orders larger than 0.100000
B(  0-S ,  1-C ) :   1.0992 B(  0-S ,  4-C ) :   1.1517 B(  1-C ,  2-C ) :   1.6382
B(  1-C , 32-H ) :   0.9618 B(  2-C ,  3-C ) :   1.2119 B(  2-C ,  6-C ) :   1.0140
B(  3-C ,  4-C ) :   1.5835 B(  3-C ,  5-H ) :   0.9876 B(  4-C , 20-C ) :   1.0303
B(  6-C ,  7-H ) :   0.9350 B(  6-C ,  8-H ) :   0.9330 B(  6-C ,  9-C ) :   1.0722
B(  9-C , 10-H ) :   0.9524 B(  9-C , 11-H ) :   0.9532 B(  9-C , 12-C ) :   1.0598
B( 12-C , 13-H ) :   0.9779 B( 12-C , 14-H ) :   0.9764 B( 12-C , 15-H ) :   0.9762
B( 16-S , 17-C ) :   1.1609 B( 16-S , 20-C ) :   1.1413 B( 17-C , 18-C ) :   1.6114
B( 17-C , 33-H ) :   0.9663 B( 18-C , 19-C ) :   1.2327 B( 18-C , 21-H ) :   0.9920
B( 19-C , 20-C ) :   1.5922 B( 19-C , 22-C ) :   1.0419 B( 22-C , 23-H ) :   0.9323
B( 22-C , 24-H ) :   0.9315 B( 22-C , 25-C ) :   1.0590 B( 25-C , 26-H ) :   0.9583
B( 25-C , 27-H ) :   0.9540 B( 25-C , 28-C ) :   1.0778 B( 28-C , 29-H ) :   0.9756
B( 28-C , 30-H ) :   0.9775 B( 28-C , 31-H ) :   0.9753

Dispersion correction           -0.013577816
FINAL SINGLE POINT ENERGY     -1339.851619756810

DIPOLE MOMENT
-------------
                                X             Y             Z
Electronic contribution:     12.05308      15.55364       7.44967
Nuclear contribution   :    -12.45409     -15.98357      -7.58862
                        -----------------------------------------
Total Dipole Moment    :     -0.40101      -0.42993      -0.13895
                        -----------------------------------------
Magnitude (a.u.)       :      0.60412
Magnitude (Debye)      :      1.53555

Rotational constants in cm-1:     0.018668     0.007574     0.006852
Rotational constants in MHz :   559.651493   227.061433   205.428745

                             ****ORCA TERMINATED NORMALLY****
TOTAL RUN TIME: 0 days 0 hours 0 minutes 21 seconds 52 msec
