                         Program Version 4.2.1 -  RELEASE  -
|  1> ! wB97X-D3 SP def2-SVP
|  2> %pal
|  3> nprocs 24
|  4> end
|  5>
|  6> * xyz 0 1
|  7> S 	 -100.354 	 4.87135 	 -107.221
|  8> C 	 -99.1144 	 4.36662 	 -108.421
|  9> C 	 -97.94 	 3.87286 	 -107.863
| 10> C 	 -98.0368 	 3.76815 	 -106.426
| 11> C 	 -99.3264 	 4.0933 	 -105.973
| 12> H 	 -97.2241 	 3.3693 	 -105.818
| 13> C 	 -96.645 	 3.68469 	 -108.612
| 14> H 	 -96.8539 	 3.72377 	 -109.706
| 15> H 	 -96.3507 	 2.67914 	 -108.4
| 16> C 	 -95.5381 	 4.6416 	 -108.155
| 17> H 	 -95.9468 	 5.63048 	 -107.868
| 18> H 	 -95.1255 	 4.27163 	 -107.195
| 19> C 	 -94.3484 	 4.71372 	 -109.097
| 20> H 	 -93.9144 	 3.70551 	 -109.255
| 21> H 	 -94.6635 	 5.09555 	 -110.08
| 22> H 	 -93.5886 	 5.34355 	 -108.669
| 23> S 	 -101.528 	 3.51065 	 -104.441
| 24> C 	 -101.362 	 3.113 	 -102.738
| 25> C 	 -100.051 	 3.14718 	 -102.372
| 26> C 	 -99.1299 	 3.54274 	 -103.391
| 27> C 	 -99.7808 	 3.82073 	 -104.606
| 28> H 	 -99.9211 	 2.86549 	 -101.339
| 29> C 	 -97.7034 	 3.68875 	 -103.016
| 30> H 	 -97.7268 	 4.27941 	 -102.084
| 31> H 	 -97.1906 	 4.21966 	 -103.755
| 32> C 	 -96.9853 	 2.37018 	 -102.71
| 33> H 	 -97.2909 	 1.59812 	 -103.35
| 34> H 	 -97.1696 	 2.17407 	 -101.581
| 35> C 	 -95.4512 	 2.3802 	 -102.974
| 36> H 	 -95.1994 	 2.46303 	 -104.008
| 37> H 	 -95.018 	 1.44354 	 -102.613
| 38> H 	 -95.0272 	 3.19276 	 -102.461
| 39> H 	 -99.2325 	 4.52606 	 -109.473
| 40> H 	 -102.075 	 2.92613 	 -102.043
| 41> *
| 42>
| 43>                          ****END OF INPUT****

CARTESIAN COORDINATES (ANGSTROEM)
---------------------------------
  S    -100.354000    4.871350  -107.221000
  C    -99.114400    4.366620  -108.421000
  C    -97.940000    3.872860  -107.863000
  C    -98.036800    3.768150  -106.426000
  C    -99.326400    4.093300  -105.973000
  H    -97.224100    3.369300  -105.818000
  C    -96.645000    3.684690  -108.612000
  H    -96.853900    3.723770  -109.706000
  H    -96.350700    2.679140  -108.400000
  C    -95.538100    4.641600  -108.155000
  H    -95.946800    5.630480  -107.868000
  H    -95.125500    4.271630  -107.195000
  C    -94.348400    4.713720  -109.097000
  H    -93.914400    3.705510  -109.255000
  H    -94.663500    5.095550  -110.080000
  H    -93.588600    5.343550  -108.669000
  S    -101.528000    3.510650  -104.441000
  C    -101.362000    3.113000  -102.738000
  C    -100.051000    3.147180  -102.372000
  C    -99.129900    3.542740  -103.391000
  C    -99.780800    3.820730  -104.606000
  H    -99.921100    2.865490  -101.339000
  C    -97.703400    3.688750  -103.016000
  H    -97.726800    4.279410  -102.084000
  H    -97.190600    4.219660  -103.755000
  C    -96.985300    2.370180  -102.710000
  H    -97.290900    1.598120  -103.350000
  H    -97.169600    2.174070  -101.581000
  C    -95.451200    2.380200  -102.974000
  H    -95.199400    2.463030  -104.008000
  H    -95.018000    1.443540  -102.613000
  H    -95.027200    3.192760  -102.461000
  H    -99.232500    4.526060  -109.473000
  H    -102.075000    2.926130  -102.043000

 Total Charge           Charge          ....    0
 Multiplicity           Mult            ....    1
 Number of Electrons    NEL             ....  134
 Basis Dimension        Dim             ....  322

ORBITAL ENERGIES
----------------

  NO   OCC          E(Eh)            E(eV)
   0   2.0000     -88.972447     -2421.0634
   1   2.0000     -88.961444     -2420.7640
   2   2.0000     -10.339557      -281.3536
   3   2.0000     -10.331928      -281.1461
   4   2.0000     -10.315476      -280.6984
   5   2.0000     -10.306373      -280.4507
   6   2.0000     -10.304270      -280.3934
   7   2.0000     -10.303357      -280.3686
   8   2.0000     -10.299703      -280.2692
   9   2.0000     -10.294541      -280.1287
  10   2.0000     -10.291809      -280.0544
  11   2.0000     -10.290833      -280.0278
  12   2.0000     -10.287767      -279.9444
  13   2.0000     -10.286353      -279.9059
  14   2.0000     -10.282379      -279.7977
  15   2.0000     -10.276048      -279.6255
  16   2.0000      -8.085453      -220.0164
  17   2.0000      -8.075685      -219.7506
  18   2.0000      -6.044164      -164.4701
  19   2.0000      -6.040539      -164.3714
  20   2.0000      -6.035772      -164.2417
  21   2.0000      -6.034338      -164.2027
  22   2.0000      -6.030279      -164.0922
  23   2.0000      -6.026303      -163.9840
  24   2.0000      -0.999301       -27.1924
  25   2.0000      -0.976563       -26.5736
  26   2.0000      -0.914965       -24.8975
  27   2.0000      -0.912249       -24.8236
  28   2.0000      -0.868843       -23.6424
  29   2.0000      -0.853873       -23.2351
  30   2.0000      -0.846265       -23.0280
  31   2.0000      -0.815906       -22.2019
  32   2.0000      -0.783140       -21.3103
  33   2.0000      -0.773534       -21.0489
  34   2.0000      -0.711781       -19.3685
  35   2.0000      -0.698948       -19.0194
  36   2.0000      -0.696032       -18.9400
  37   2.0000      -0.660642       -17.9770
  38   2.0000      -0.634816       -17.2742
  39   2.0000      -0.624326       -16.9888
  40   2.0000      -0.597265       -16.2524
  41   2.0000      -0.575719       -15.6661
  42   2.0000      -0.570639       -15.5279
  43   2.0000      -0.559550       -15.2261
  44   2.0000      -0.531133       -14.4529
  45   2.0000      -0.528247       -14.3743
  46   2.0000      -0.518040       -14.0966
  47   2.0000      -0.513424       -13.9710
  48   2.0000      -0.507015       -13.7966
  49   2.0000      -0.497588       -13.5401
  50   2.0000      -0.489009       -13.3066
  51   2.0000      -0.479908       -13.0590
  52   2.0000      -0.476432       -12.9644
  53   2.0000      -0.467948       -12.7335
  54   2.0000      -0.459707       -12.5093
  55   2.0000      -0.451945       -12.2981
  56   2.0000      -0.443844       -12.0776
  57   2.0000      -0.439316       -11.9544
  58   2.0000      -0.434578       -11.8255
  59   2.0000      -0.429099       -11.6764
  60   2.0000      -0.422757       -11.5038
  61   2.0000      -0.416700       -11.3390
  62   2.0000      -0.412412       -11.2223
  63   2.0000      -0.356286        -9.6950
  64   2.0000      -0.332294        -9.0422
  65   2.0000      -0.326490        -8.8842
  66   2.0000      -0.279904        -7.6166
  67   0.0000       0.017432         0.4743
  68   0.0000       0.079618         2.1665
  69   0.0000       0.094407         2.5689
  70   0.0000       0.112224         3.0538
  71   0.0000       0.124894         3.3985

MULLIKEN ATOMIC CHARGES
-----------------------
   0 S :    0.110588
   1 C :   -0.118022
   2 C :   -0.086043
   3 C :   -0.014156
   4 C :   -0.103509
   5 H :    0.009289
   6 C :    0.087148
   7 H :    0.024217
   8 H :    0.021671
   9 C :   -0.100964
  10 H :    0.042860
  11 H :    0.020986
  12 C :   -0.033566
  13 H :    0.030804
  14 H :    0.033997
  15 H :    0.036636
  16 S :    0.080296
  17 C :   -0.040953
  18 C :   -0.051808
  19 C :   -0.043285
  20 C :   -0.124336
  21 H :    0.013731
  22 C :    0.092199
  23 H :    0.038894
  24 H :   -0.002616
  25 C :   -0.093581
  26 H :    0.029580
  27 H :    0.045410
  28 C :   -0.035235
  29 H :    0.023986
  30 H :    0.036268
  31 H :    0.020397
  32 H :    0.037981
  33 H :    0.011137
Sum of atomic charges:    0.0000000

LOEWDIN ATOMIC CHARGES
----------------------
   0 S :    0.367624
   1 C :   -0.182532
   2 C :   -0.055375
   3 C :   -0.063654
   4 C :   -0.168991
   5 H :    0.030328
   6 C :   -0.031310
   7 H :    0.032305
   8 H :    0.028178
   9 C :   -0.044735
  10 H :    0.028032
  11 H :    0.023942
  12 C :   -0.062173
  13 H :    0.028527
  14 H :    0.024693
  15 H :    0.026273
  16 S :    0.381618
  17 C :   -0.166157
  18 C :   -0.069271
  19 C :   -0.056062
  20 C :   -0.182149
  21 H :    0.032002
  22 C :   -0.033118
  23 H :    0.041199
  24 H :    0.015642
  25 C :   -0.035357
  26 H :    0.017935
  27 H :    0.035093
  28 C :   -0.057645
  29 H :    0.017934
  30 H :    0.029988
  31 H :    0.016038
  32 H :    0.020503
  33 H :    0.010679

  Mayer bond orders larger than 0.100000
B(  0-S ,  1-C ) :   1.1017 B(  0-S ,  4-C ) :   1.1344 B(  1-C ,  2-C ) :   1.6470
B(  1-C , 32-H ) :   0.9658 B(  2-C ,  3-C ) :   1.2166 B(  2-C ,  6-C ) :   1.0349
B(  3-C ,  4-C ) :   1.5712 B(  3-C ,  5-H ) :   0.9869 B(  4-C , 20-C ) :   1.0820
B(  6-C ,  7-H ) :   0.9476 B(  6-C ,  8-H ) :   0.9238 B(  6-C ,  9-C ) :   1.0531
B(  9-C , 10-H ) :   0.9621 B(  9-C , 11-H ) :   0.9445 B(  9-C , 12-C ) :   1.0930
B( 12-C , 13-H ) :   0.9714 B( 12-C , 14-H ) :   0.9764 B( 12-C , 15-H ) :   0.9732
B( 16-S , 17-C ) :   1.1329 B( 16-S , 20-C ) :   1.1226 B( 17-C , 18-C ) :   1.6564
B( 17-C , 33-H ) :   0.9746 B( 18-C , 19-C ) :   1.2063 B( 18-C , 21-H ) :   0.9906
B( 19-C , 20-C ) :   1.5862 B( 19-C , 22-C ) :   1.0580 B( 22-C , 23-H ) :   0.9288
B( 22-C , 24-H ) :   0.9354 B( 22-C , 25-C ) :   1.0491 B( 25-C , 26-H ) :   0.9644
B( 25-C , 27-H ) :   0.9529 B( 25-C , 28-C ) :   1.0905 B( 28-C , 29-H ) :   0.9768
B( 28-C , 30-H ) :   0.9738 B( 28-C , 31-H ) :   0.9735

Dispersion correction           -0.013993503
FINAL SINGLE POINT ENERGY     -1339.869470883473

DIPOLE MOMENT
-------------
                                X             Y             Z
Electronic contribution:    -32.86754       4.19216      -0.12678
Nuclear contribution   :     33.67892      -4.35499       0.31649
                        -----------------------------------------
Total Dipole Moment    :      0.81138      -0.16283       0.18971
                        -----------------------------------------
Magnitude (a.u.)       :      0.84902
Magnitude (Debye)      :      2.15805

Rotational constants in cm-1:     0.017162     0.009377     0.006280
Rotational constants in MHz :   514.498060   281.125099   188.257533

                             ****ORCA TERMINATED NORMALLY****
TOTAL RUN TIME: 0 days 0 hours 0 minutes 21 seconds 671 msec
