                         Program Version 4.2.1 -  RELEASE  -
|  1> ! wB97X-D3 SP def2-SVP
|  2> %pal
|  3> nprocs 24
|  4> end
|  5>
|  6> * xyz 0 1
|  7> S 	 45.9928 	 -18.2031 	 -113.435
|  8> C 	 46.3259 	 -18.0008 	 -111.771
|  9> C 	 45.6946 	 -16.8366 	 -111.34
| 10> C 	 44.9917 	 -16.2032 	 -112.357
| 11> C 	 44.9848 	 -16.8658 	 -113.578
| 12> H 	 44.4333 	 -15.2503 	 -112.223
| 13> C 	 45.7713 	 -16.3411 	 -109.913
| 14> H 	 46.2015 	 -17.142 	 -109.327
| 15> H 	 44.7472 	 -16.1624 	 -109.62
| 16> C 	 46.556 	 -14.9691 	 -109.853
| 17> H 	 47.6549 	 -15.1704 	 -109.974
| 18> H 	 46.3227 	 -14.3115 	 -110.642
| 19> C 	 46.3786 	 -14.2661 	 -108.466
| 20> H 	 46.9475 	 -13.3006 	 -108.293
| 21> H 	 45.3029 	 -14.2375 	 -108.315
| 22> H 	 46.8303 	 -15.0108 	 -107.788
| 23> S 	 45.0793 	 -16.9631 	 -116.235
| 24> C 	 43.6549 	 -16.6275 	 -117.253
| 25> C 	 42.5925 	 -16.2573 	 -116.411
| 26> C 	 42.9221 	 -16.1556 	 -115.028
| 27> C 	 44.2525 	 -16.5676 	 -114.846
| 28> H 	 41.5752 	 -16.1644 	 -116.808
| 29> C 	 41.9211 	 -15.8778 	 -113.966
| 30> H 	 40.9592 	 -15.4969 	 -114.393
| 31> H 	 42.3673 	 -15.1544 	 -113.235
| 32> C 	 41.4291 	 -17.1695 	 -113.219
| 33> H 	 42.3108 	 -17.525 	 -112.739
| 34> H 	 40.9982 	 -18.0113 	 -113.807
| 35> C 	 40.4761 	 -16.8626 	 -112.13
| 36> H 	 40.7385 	 -15.9594 	 -111.579
| 37> H 	 40.2111 	 -17.6564 	 -111.45
| 38> H 	 39.4318 	 -16.6756 	 -112.583
| 39> H 	 46.8749 	 -18.6889 	 -111.137
| 40> H 	 43.5879 	 -16.653 	 -118.321
| 41> *
| 42>
| 43>                          ****END OF INPUT****

CARTESIAN COORDINATES (ANGSTROEM)
---------------------------------
  S     45.992800  -18.203100  -113.435000
  C     46.325900  -18.000800  -111.771000
  C     45.694600  -16.836600  -111.340000
  C     44.991700  -16.203200  -112.357000
  C     44.984800  -16.865800  -113.578000
  H     44.433300  -15.250300  -112.223000
  C     45.771300  -16.341100  -109.913000
  H     46.201500  -17.142000  -109.327000
  H     44.747200  -16.162400  -109.620000
  C     46.556000  -14.969100  -109.853000
  H     47.654900  -15.170400  -109.974000
  H     46.322700  -14.311500  -110.642000
  C     46.378600  -14.266100  -108.466000
  H     46.947500  -13.300600  -108.293000
  H     45.302900  -14.237500  -108.315000
  H     46.830300  -15.010800  -107.788000
  S     45.079300  -16.963100  -116.235000
  C     43.654900  -16.627500  -117.253000
  C     42.592500  -16.257300  -116.411000
  C     42.922100  -16.155600  -115.028000
  C     44.252500  -16.567600  -114.846000
  H     41.575200  -16.164400  -116.808000
  C     41.921100  -15.877800  -113.966000
  H     40.959200  -15.496900  -114.393000
  H     42.367300  -15.154400  -113.235000
  C     41.429100  -17.169500  -113.219000
  H     42.310800  -17.525000  -112.739000
  H     40.998200  -18.011300  -113.807000
  C     40.476100  -16.862600  -112.130000
  H     40.738500  -15.959400  -111.579000
  H     40.211100  -17.656400  -111.450000
  H     39.431800  -16.675600  -112.583000
  H     46.874900  -18.688900  -111.137000
  H     43.587900  -16.653000  -118.321000

 Total Charge           Charge          ....    0
 Multiplicity           Mult            ....    1
 Number of Electrons    NEL             ....  134
 Basis Dimension        Dim             ....  322

ORBITAL ENERGIES
----------------

  NO   OCC          E(Eh)            E(eV)
   0   2.0000     -88.970684     -2421.0154
   1   2.0000     -88.965489     -2420.8740
   2   2.0000     -10.328596      -281.0554
   3   2.0000     -10.327931      -281.0373
   4   2.0000     -10.319305      -280.8026
   5   2.0000     -10.310520      -280.5635
   6   2.0000     -10.303035      -280.3598
   7   2.0000     -10.300633      -280.2945
   8   2.0000     -10.298611      -280.2394
   9   2.0000     -10.296915      -280.1933
  10   2.0000     -10.295423      -280.1527
  11   2.0000     -10.291143      -280.0362
  12   2.0000     -10.289855      -280.0012
  13   2.0000     -10.284848      -279.8649
  14   2.0000     -10.280634      -279.7503
  15   2.0000     -10.276643      -279.6417
  16   2.0000      -8.086190      -220.0364
  17   2.0000      -8.082015      -219.9228
  18   2.0000      -6.044586      -164.4816
  19   2.0000      -6.040458      -164.3692
  20   2.0000      -6.040295      -164.3648
  21   2.0000      -6.037144      -164.2791
  22   2.0000      -6.035968      -164.2470
  23   2.0000      -6.033198      -164.1717
  24   2.0000      -1.020568       -27.7711
  25   2.0000      -0.994203       -27.0536
  26   2.0000      -0.913599       -24.8603
  27   2.0000      -0.909432       -24.7469
  28   2.0000      -0.869147       -23.6507
  29   2.0000      -0.855953       -23.2917
  30   2.0000      -0.847311       -23.0565
  31   2.0000      -0.817374       -22.2419
  32   2.0000      -0.778222       -21.1765
  33   2.0000      -0.767677       -20.8896
  34   2.0000      -0.705506       -19.1978
  35   2.0000      -0.697013       -18.9667
  36   2.0000      -0.688920       -18.7465
  37   2.0000      -0.667020       -18.1505
  38   2.0000      -0.640694       -17.4342
  39   2.0000      -0.625520       -17.0213
  40   2.0000      -0.596931       -16.2433
  41   2.0000      -0.569082       -15.4855
  42   2.0000      -0.568106       -15.4589
  43   2.0000      -0.559746       -15.2315
  44   2.0000      -0.529338       -14.4040
  45   2.0000      -0.525023       -14.2866
  46   2.0000      -0.523586       -14.2475
  47   2.0000      -0.512784       -13.9536
  48   2.0000      -0.503178       -13.6922
  49   2.0000      -0.501858       -13.6562
  50   2.0000      -0.499288       -13.5863
  51   2.0000      -0.481271       -13.0961
  52   2.0000      -0.470184       -12.7943
  53   2.0000      -0.466437       -12.6924
  54   2.0000      -0.458686       -12.4815
  55   2.0000      -0.447858       -12.1868
  56   2.0000      -0.443827       -12.0771
  57   2.0000      -0.437823       -11.9138
  58   2.0000      -0.436305       -11.8725
  59   2.0000      -0.431240       -11.7346
  60   2.0000      -0.425502       -11.5785
  61   2.0000      -0.412879       -11.2350
  62   2.0000      -0.400837       -10.9073
  63   2.0000      -0.352620        -9.5953
  64   2.0000      -0.334149        -9.0927
  65   2.0000      -0.329852        -8.9757
  66   2.0000      -0.286594        -7.7986
  67   0.0000       0.027776         0.7558
  68   0.0000       0.079447         2.1618
  69   0.0000       0.110045         2.9945
  70   0.0000       0.116316         3.1651
  71   0.0000       0.139696         3.8013

MULLIKEN ATOMIC CHARGES
-----------------------
   0 S :    0.118200
   1 C :   -0.126302
   2 C :   -0.109456
   3 C :   -0.008920
   4 C :   -0.132458
   5 H :    0.017803
   6 C :    0.097729
   7 H :    0.019520
   8 H :    0.025777
   9 C :   -0.099921
  10 H :    0.033943
  11 H :    0.028652
  12 C :   -0.059249
  13 H :    0.056245
  14 H :    0.032742
  15 H :    0.029597
  16 S :    0.119627
  17 C :   -0.095171
  18 C :   -0.046318
  19 C :   -0.005132
  20 C :   -0.145347
  21 H :    0.025737
  22 C :    0.022795
  23 H :    0.025439
  24 H :    0.039407
  25 C :   -0.059099
  26 H :    0.028620
  27 H :    0.040102
  28 C :   -0.053428
  29 H :    0.024997
  30 H :    0.033686
  31 H :    0.020224
  32 H :    0.048433
  33 H :    0.051528
Sum of atomic charges:   -0.0000000

LOEWDIN ATOMIC CHARGES
----------------------
   0 S :    0.456509
   1 C :   -0.221639
   2 C :   -0.065819
   3 C :   -0.085258
   4 C :   -0.215668
   5 H :    0.032658
   6 C :   -0.020698
   7 H :    0.028956
   8 H :    0.028335
   9 C :   -0.037574
  10 H :    0.028602
  11 H :    0.013720
  12 C :   -0.073494
  13 H :    0.035087
  14 H :    0.021393
  15 H :    0.026726
  16 S :    0.442564
  17 C :   -0.189529
  18 C :   -0.060967
  19 C :   -0.066259
  20 C :   -0.217783
  21 H :    0.034007
  22 C :   -0.032560
  23 H :    0.034023
  24 H :    0.036522
  25 C :   -0.044193
  26 H :    0.020048
  27 H :    0.032807
  28 C :   -0.072249
  29 H :    0.022023
  30 H :    0.025071
  31 H :    0.026913
  32 H :    0.030836
  33 H :    0.026891

  Mayer bond orders larger than 0.100000
B(  0-S ,  1-C ) :   1.1628 B(  0-S ,  4-C ) :   1.2063 B(  1-C ,  2-C ) :   1.5459
B(  1-C ,  4-C ) :   0.1060 B(  1-C , 32-H ) :   0.9732 B(  2-C ,  3-C ) :   1.3123
B(  2-C ,  6-C ) :   1.0253 B(  3-C ,  4-C ) :   1.5066 B(  3-C ,  5-H ) :   0.9912
B(  4-C , 20-C ) :   1.0106 B(  6-C ,  7-H ) :   0.9398 B(  6-C ,  8-H ) :   0.9397
B(  6-C ,  9-C ) :   1.0462 B(  9-C , 10-H ) :   0.9570 B(  9-C , 11-H ) :   0.9666
B(  9-C , 12-C ) :   1.0638 B( 12-C , 13-H ) :   0.9743 B( 12-C , 14-H ) :   0.9788
B( 12-C , 15-H ) :   0.9761 B( 16-S , 17-C ) :   1.1440 B( 16-S , 20-C ) :   1.1935
B( 17-C , 18-C ) :   1.5808 B( 17-C , 20-C ) :   0.1043 B( 17-C , 33-H ) :   0.9752
B( 18-C , 19-C ) :   1.2865 B( 18-C , 21-H ) :   0.9816 B( 19-C , 20-C ) :   1.5207
B( 19-C , 22-C ) :   1.0627 B( 22-C , 23-H ) :   0.9355 B( 22-C , 24-H ) :   0.9277
B( 22-C , 25-C ) :   1.0557 B( 25-C , 26-H ) :   0.9502 B( 25-C , 27-H ) :   0.9556
B( 25-C , 28-C ) :   1.0970 B( 28-C , 29-H ) :   0.9687 B( 28-C , 30-H ) :   0.9708
B( 28-C , 31-H ) :   0.9704

Dispersion correction           -0.014305006
FINAL SINGLE POINT ENERGY     -1339.876476277978

DIPOLE MOMENT
-------------
                                X             Y             Z
Electronic contribution:     11.85640     -10.37039     -25.06460
Nuclear contribution   :    -12.20416      10.45312      25.45078
                        -----------------------------------------
Total Dipole Moment    :     -0.34777       0.08274       0.38619
                        -----------------------------------------
Magnitude (a.u.)       :      0.52624
Magnitude (Debye)      :      1.33759

Rotational constants in cm-1:     0.018894     0.008672     0.006971
Rotational constants in MHz :   566.427148   259.989420   208.970813

                             ****ORCA TERMINATED NORMALLY****
TOTAL RUN TIME: 0 days 0 hours 0 minutes 21 seconds 910 msec
