                         Program Version 4.2.1 -  RELEASE  -
|  1> ! wB97X-D3 SP def2-SVP
|  2> %pal
|  3> nprocs 24
|  4> end
|  5>
|  6> * xyz 0 1
|  7> S 	 -34.4082 	 -33.3498 	 -92.06
|  8> C 	 -35.6664 	 -32.0508 	 -92.2723
|  9> C 	 -35.4536 	 -30.972 	 -91.3971
| 10> C 	 -34.2137 	 -31.16 	 -90.6686
| 11> C 	 -33.5054 	 -32.329 	 -90.9569
| 12> H 	 -33.7837 	 -30.5008 	 -90.0013
| 13> C 	 -36.3163 	 -29.7495 	 -91.2164
| 14> H 	 -36.125 	 -29.309 	 -90.2414
| 15> H 	 -37.3613 	 -30.0664 	 -91.1769
| 16> C 	 -36.2007 	 -28.5578 	 -92.2179
| 17> H 	 -36.2626 	 -28.9347 	 -93.2849
| 18> H 	 -37.1402 	 -27.9335 	 -92.0125
| 19> C 	 -34.9189 	 -27.7024 	 -92.1103
| 20> H 	 -34.0655 	 -28.381 	 -92.2221
| 21> H 	 -34.7799 	 -26.8769 	 -92.7275
| 22> H 	 -34.9047 	 -27.3789 	 -91.0858
| 23> S 	 -31.5486 	 -34.2244 	 -90.9613
| 24> C 	 -30.1859 	 -33.9799 	 -89.8867
| 25> C 	 -30.0815 	 -32.6539 	 -89.3775
| 26> C 	 -31.2085 	 -31.8759 	 -89.799
| 27> C 	 -32.1472 	 -32.6019 	 -90.5753
| 28> H 	 -29.2108 	 -32.3326 	 -88.8045
| 29> C 	 -31.1838 	 -30.3723 	 -89.4917
| 30> H 	 -30.2584 	 -30.1246 	 -88.8902
| 31> H 	 -32.0676 	 -30.1723 	 -88.8192
| 32> C 	 -31.0735 	 -29.4708 	 -90.7186
| 33> H 	 -31.9972 	 -29.2491 	 -91.2101
| 34> H 	 -30.4354 	 -29.8944 	 -91.4904
| 35> C 	 -30.4176 	 -28.0873 	 -90.4835
| 36> H 	 -29.4531 	 -28.1119 	 -90.0003
| 37> H 	 -31.0558 	 -27.5005 	 -89.7626
| 38> H 	 -30.4388 	 -27.5274 	 -91.3997
| 39> H 	 -36.4369 	 -32.1991 	 -93.0229
| 40> H 	 -29.6153 	 -34.7284 	 -89.4981
| 41> *
| 42>
| 43>                          ****END OF INPUT****

CARTESIAN COORDINATES (ANGSTROEM)
---------------------------------
  S    -34.408200  -33.349800  -92.060000
  C    -35.666400  -32.050800  -92.272300
  C    -35.453600  -30.972000  -91.397100
  C    -34.213700  -31.160000  -90.668600
  C    -33.505400  -32.329000  -90.956900
  H    -33.783700  -30.500800  -90.001300
  C    -36.316300  -29.749500  -91.216400
  H    -36.125000  -29.309000  -90.241400
  H    -37.361300  -30.066400  -91.176900
  C    -36.200700  -28.557800  -92.217900
  H    -36.262600  -28.934700  -93.284900
  H    -37.140200  -27.933500  -92.012500
  C    -34.918900  -27.702400  -92.110300
  H    -34.065500  -28.381000  -92.222100
  H    -34.779900  -26.876900  -92.727500
  H    -34.904700  -27.378900  -91.085800
  S    -31.548600  -34.224400  -90.961300
  C    -30.185900  -33.979900  -89.886700
  C    -30.081500  -32.653900  -89.377500
  C    -31.208500  -31.875900  -89.799000
  C    -32.147200  -32.601900  -90.575300
  H    -29.210800  -32.332600  -88.804500
  C    -31.183800  -30.372300  -89.491700
  H    -30.258400  -30.124600  -88.890200
  H    -32.067600  -30.172300  -88.819200
  C    -31.073500  -29.470800  -90.718600
  H    -31.997200  -29.249100  -91.210100
  H    -30.435400  -29.894400  -91.490400
  C    -30.417600  -28.087300  -90.483500
  H    -29.453100  -28.111900  -90.000300
  H    -31.055800  -27.500500  -89.762600
  H    -30.438800  -27.527400  -91.399700
  H    -36.436900  -32.199100  -93.022900
  H    -29.615300  -34.728400  -89.498100

 Total Charge           Charge          ....    0
 Multiplicity           Mult            ....    1
 Number of Electrons    NEL             ....  134
 Basis Dimension        Dim             ....  322

ORBITAL ENERGIES
----------------

  NO   OCC          E(Eh)            E(eV)
   0   2.0000     -88.971666     -2421.0421
   1   2.0000     -88.966684     -2420.9066
   2   2.0000     -10.333069      -281.1771
   3   2.0000     -10.331692      -281.1396
   4   2.0000     -10.323042      -280.9043
   5   2.0000     -10.316443      -280.7247
   6   2.0000     -10.311371      -280.5867
   7   2.0000     -10.311098      -280.5792
   8   2.0000     -10.305666      -280.4314
   9   2.0000     -10.301994      -280.3315
  10   2.0000     -10.300781      -280.2985
  11   2.0000     -10.297410      -280.2068
  12   2.0000     -10.289652      -279.9957
  13   2.0000     -10.283946      -279.8404
  14   2.0000     -10.279292      -279.7138
  15   2.0000     -10.274563      -279.5851
  16   2.0000      -8.085887      -220.0282
  17   2.0000      -8.080405      -219.8790
  18   2.0000      -6.044354      -164.4752
  19   2.0000      -6.040508      -164.3706
  20   2.0000      -6.039056      -164.3311
  21   2.0000      -6.036713      -164.2673
  22   2.0000      -6.035187      -164.2258
  23   2.0000      -6.030968      -164.1110
  24   2.0000      -1.001537       -27.2532
  25   2.0000      -0.973652       -26.4944
  26   2.0000      -0.910240       -24.7689
  27   2.0000      -0.907038       -24.6818
  28   2.0000      -0.867056       -23.5938
  29   2.0000      -0.854480       -23.2516
  30   2.0000      -0.842699       -22.9310
  31   2.0000      -0.811246       -22.0751
  32   2.0000      -0.785963       -21.3871
  33   2.0000      -0.773046       -21.0356
  34   2.0000      -0.708157       -19.2699
  35   2.0000      -0.700966       -19.0742
  36   2.0000      -0.691489       -18.8164
  37   2.0000      -0.669584       -18.2203
  38   2.0000      -0.641742       -17.4627
  39   2.0000      -0.616097       -16.7649
  40   2.0000      -0.592786       -16.1305
  41   2.0000      -0.572230       -15.5712
  42   2.0000      -0.567457       -15.4413
  43   2.0000      -0.553345       -15.0573
  44   2.0000      -0.538759       -14.6604
  45   2.0000      -0.520729       -14.1697
  46   2.0000      -0.517202       -14.0738
  47   2.0000      -0.513943       -13.9851
  48   2.0000      -0.506140       -13.7728
  49   2.0000      -0.499565       -13.5939
  50   2.0000      -0.493123       -13.4186
  51   2.0000      -0.482970       -13.1423
  52   2.0000      -0.471856       -12.8399
  53   2.0000      -0.465290       -12.6612
  54   2.0000      -0.459334       -12.4991
  55   2.0000      -0.455910       -12.4059
  56   2.0000      -0.443485       -12.0678
  57   2.0000      -0.437838       -11.9142
  58   2.0000      -0.435517       -11.8510
  59   2.0000      -0.421495       -11.4694
  60   2.0000      -0.417968       -11.3735
  61   2.0000      -0.412801       -11.2329
  62   2.0000      -0.411366       -11.1938
  63   2.0000      -0.358188        -9.7468
  64   2.0000      -0.338283        -9.2051
  65   2.0000      -0.328936        -8.9508
  66   2.0000      -0.271741        -7.3945
  67   0.0000       0.007754         0.2110
  68   0.0000       0.074705         2.0328
  69   0.0000       0.081982         2.2308
  70   0.0000       0.110844         3.0162
  71   0.0000       0.129667         3.5284

MULLIKEN ATOMIC CHARGES
-----------------------
   0 S :    0.078551
   1 C :   -0.147404
   2 C :   -0.037027
   3 C :    0.007057
   4 C :   -0.073862
   5 H :   -0.050297
   6 C :    0.059531
   7 H :    0.018188
   8 H :    0.036943
   9 C :   -0.112945
  10 H :    0.037110
  11 H :    0.043030
  12 C :   -0.020431
  13 H :    0.040591
  14 H :    0.032695
  15 H :    0.012398
  16 S :    0.101581
  17 C :   -0.058991
  18 C :   -0.041858
  19 C :   -0.074647
  20 C :   -0.105202
  21 H :    0.032418
  22 C :    0.021478
  23 H :    0.023199
  24 H :    0.059679
  25 C :   -0.040266
  26 H :    0.020142
  27 H :    0.035073
  28 C :   -0.075172
  29 H :    0.033930
  30 H :    0.022237
  31 H :    0.037312
  32 H :    0.056230
  33 H :    0.028728
Sum of atomic charges:   -0.0000000

LOEWDIN ATOMIC CHARGES
----------------------
   0 S :    0.364548
   1 C :   -0.173948
   2 C :   -0.054207
   3 C :   -0.062953
   4 C :   -0.181344
   5 H :    0.011665
   6 C :   -0.035477
   7 H :    0.030132
   8 H :    0.037553
   9 C :   -0.042169
  10 H :    0.025433
  11 H :    0.030588
  12 C :   -0.062950
  13 H :    0.028373
  14 H :    0.019337
  15 H :    0.021071
  16 S :    0.402127
  17 C :   -0.169088
  18 C :   -0.065230
  19 C :   -0.053277
  20 C :   -0.188366
  21 H :    0.036977
  22 C :   -0.038043
  23 H :    0.036393
  24 H :    0.036363
  25 C :   -0.042062
  26 H :    0.019237
  27 H :    0.029822
  28 C :   -0.065405
  29 H :    0.019400
  30 H :    0.024599
  31 H :    0.026506
  32 H :    0.026331
  33 H :    0.008063

  Mayer bond orders larger than 0.100000
B(  0-S ,  1-C ) :   1.1195 B(  0-S ,  4-C ) :   1.1216 B(  1-C ,  2-C ) :   1.5975
B(  1-C , 32-H ) :   0.9746 B(  2-C ,  3-C ) :   1.2273 B(  2-C ,  6-C ) :   1.0272
B(  3-C ,  4-C ) :   1.5701 B(  3-C ,  5-H ) :   0.9972 B(  4-C , 20-C ) :   1.1221
B(  6-C ,  7-H ) :   0.9404 B(  6-C ,  8-H ) :   0.9379 B(  6-C ,  9-C ) :   1.0633
B(  9-C , 10-H ) :   0.9581 B(  9-C , 11-H ) :   0.9562 B(  9-C , 12-C ) :   1.0678
B( 12-C , 13-H ) :   0.9733 B( 12-C , 14-H ) :   0.9733 B( 12-C , 15-H ) :   0.9735
B( 16-S , 17-C ) :   1.1699 B( 16-S , 20-C ) :   1.1196 B( 17-C , 18-C ) :   1.5794
B( 17-C , 33-H ) :   0.9749 B( 18-C , 19-C ) :   1.2799 B( 18-C , 21-H ) :   0.9852
B( 19-C , 20-C ) :   1.5378 B( 19-C , 22-C ) :   1.0399 B( 22-C , 23-H ) :   0.9404
B( 22-C , 24-H ) :   0.9225 B( 22-C , 25-C ) :   1.0534 B( 25-C , 26-H ) :   0.9478
B( 25-C , 27-H ) :   0.9537 B( 25-C , 28-C ) :   1.0942 B( 28-C , 29-H ) :   0.9747
B( 28-C , 30-H ) :   0.9748 B( 28-C , 31-H ) :   0.9747

Dispersion correction           -0.014991799
FINAL SINGLE POINT ENERGY     -1339.863073878917

DIPOLE MOMENT
-------------
                                X             Y             Z
Electronic contribution:      0.93315     -32.82324      -1.77094
Nuclear contribution   :     -0.84362      33.51364       1.99230
                        -----------------------------------------
Total Dipole Moment    :      0.08952       0.69039       0.22136
                        -----------------------------------------
Magnitude (a.u.)       :      0.73052
Magnitude (Debye)      :      1.85683

Rotational constants in cm-1:     0.017286     0.010439     0.006896
Rotational constants in MHz :   518.223469   312.949060   206.724242

                             ****ORCA TERMINATED NORMALLY****
TOTAL RUN TIME: 0 days 0 hours 0 minutes 21 seconds 273 msec
