                         Program Version 4.2.1 -  RELEASE  -
|  1> ! wB97X-D3 SP def2-SVP
|  2> %pal
|  3> nprocs 24
|  4> end
|  5>
|  6> * xyz 0 1
|  7> S 	 -69.1149 	 7.78492 	 -73.3375
|  8> C 	 -69.1922 	 8.80441 	 -74.8087
|  9> C 	 -68.7426 	 10.0559 	 -74.401
| 10> C 	 -68.7804 	 10.2948 	 -72.947
| 11> C 	 -69.1094 	 9.16016 	 -72.2045
| 12> H 	 -68.4262 	 11.2467 	 -72.4596
| 13> C 	 -68.4059 	 11.128 	 -75.3803
| 14> H 	 -68.9781 	 10.9544 	 -76.2932
| 15> H 	 -67.3283 	 11.1037 	 -75.5695
| 16> C 	 -68.5024 	 12.5606 	 -74.9561
| 17> H 	 -67.908 	 12.6595 	 -74.0482
| 18> H 	 -68.074 	 13.1853 	 -75.743
| 19> C 	 -70.0007 	 13.0613 	 -74.8278
| 20> H 	 -70.5083 	 13.0144 	 -75.8198
| 21> H 	 -70.5724 	 12.404 	 -74.1369
| 22> H 	 -70.1277 	 14.0909 	 -74.392
| 23> S 	 -70.6692 	 9.20604 	 -69.9541
| 24> C 	 -69.9477 	 8.77245 	 -68.4179
| 25> C 	 -68.5629 	 8.73008 	 -68.4852
| 26> C 	 -68.2077 	 8.81704 	 -69.84
| 27> C 	 -69.2073 	 9.05012 	 -70.7539
| 28> H 	 -67.9592 	 8.52057 	 -67.5799
| 29> C 	 -66.7157 	 8.54141 	 -70.3072
| 30> H 	 -66.0291 	 9.24192 	 -69.8483
| 31> H 	 -66.684 	 8.77229 	 -71.3587
| 32> C 	 -66.1238 	 7.10579 	 -70.0759
| 33> H 	 -65.3876 	 6.86081 	 -70.8887
| 34> H 	 -66.9633 	 6.47937 	 -70.4232
| 35> C 	 -65.8609 	 6.73855 	 -68.607
| 36> H 	 -65.8343 	 5.63868 	 -68.4377
| 37> H 	 -66.6066 	 7.07593 	 -67.8963
| 38> H 	 -64.9337 	 7.09383 	 -68.1343
| 39> H 	 -69.2686 	 8.42834 	 -75.854
| 40> H 	 -70.4848 	 8.80015 	 -67.4518
| 41> *
| 42>
| 43>                          ****END OF INPUT****

CARTESIAN COORDINATES (ANGSTROEM)
---------------------------------
  S    -69.114900    7.784920  -73.337500
  C    -69.192200    8.804410  -74.808700
  C    -68.742600   10.055900  -74.401000
  C    -68.780400   10.294800  -72.947000
  C    -69.109400    9.160160  -72.204500
  H    -68.426200   11.246700  -72.459600
  C    -68.405900   11.128000  -75.380300
  H    -68.978100   10.954400  -76.293200
  H    -67.328300   11.103700  -75.569500
  C    -68.502400   12.560600  -74.956100
  H    -67.908000   12.659500  -74.048200
  H    -68.074000   13.185300  -75.743000
  C    -70.000700   13.061300  -74.827800
  H    -70.508300   13.014400  -75.819800
  H    -70.572400   12.404000  -74.136900
  H    -70.127700   14.090900  -74.392000
  S    -70.669200    9.206040  -69.954100
  C    -69.947700    8.772450  -68.417900
  C    -68.562900    8.730080  -68.485200
  C    -68.207700    8.817040  -69.840000
  C    -69.207300    9.050120  -70.753900
  H    -67.959200    8.520570  -67.579900
  C    -66.715700    8.541410  -70.307200
  H    -66.029100    9.241920  -69.848300
  H    -66.684000    8.772290  -71.358700
  C    -66.123800    7.105790  -70.075900
  H    -65.387600    6.860810  -70.888700
  H    -66.963300    6.479370  -70.423200
  C    -65.860900    6.738550  -68.607000
  H    -65.834300    5.638680  -68.437700
  H    -66.606600    7.075930  -67.896300
  H    -64.933700    7.093830  -68.134300
  H    -69.268600    8.428340  -75.854000
  H    -70.484800    8.800150  -67.451800

 Total Charge           Charge          ....    0
 Multiplicity           Mult            ....    1
 Number of Electrons    NEL             ....  134
 Basis Dimension        Dim             ....  322

ORBITAL ENERGIES
----------------

  NO   OCC          E(Eh)            E(eV)
   0   2.0000     -88.968603     -2420.9588
   1   2.0000     -88.962602     -2420.7955
   2   2.0000     -10.337223      -281.2901
   3   2.0000     -10.323622      -280.9200
   4   2.0000     -10.320671      -280.8397
   5   2.0000     -10.320542      -280.8362
   6   2.0000     -10.307810      -280.4898
   7   2.0000     -10.306769      -280.4614
   8   2.0000     -10.302953      -280.3576
   9   2.0000     -10.298029      -280.2236
  10   2.0000     -10.291084      -280.0346
  11   2.0000     -10.289129      -279.9814
  12   2.0000     -10.288037      -279.9517
  13   2.0000     -10.286773      -279.9173
  14   2.0000     -10.284281      -279.8495
  15   2.0000     -10.280618      -279.7498
  16   2.0000      -8.084619      -219.9937
  17   2.0000      -8.076146      -219.7631
  18   2.0000      -6.042921      -164.4363
  19   2.0000      -6.038889      -164.3265
  20   2.0000      -6.035552      -164.2357
  21   2.0000      -6.034929      -164.2188
  22   2.0000      -6.030955      -164.1106
  23   2.0000      -6.026516      -163.9898
  24   2.0000      -1.014406       -27.6034
  25   2.0000      -0.982863       -26.7451
  26   2.0000      -0.915406       -24.9095
  27   2.0000      -0.896052       -24.3828
  28   2.0000      -0.873246       -23.7622
  29   2.0000      -0.845317       -23.0022
  30   2.0000      -0.831281       -22.6203
  31   2.0000      -0.817479       -22.2447
  32   2.0000      -0.780545       -21.2397
  33   2.0000      -0.771446       -20.9921
  34   2.0000      -0.710658       -19.3380
  35   2.0000      -0.694336       -18.8938
  36   2.0000      -0.688452       -18.7337
  37   2.0000      -0.664191       -18.0735
  38   2.0000      -0.633253       -17.2317
  39   2.0000      -0.620800       -16.8928
  40   2.0000      -0.591079       -16.0841
  41   2.0000      -0.570952       -15.5364
  42   2.0000      -0.556596       -15.1457
  43   2.0000      -0.543622       -14.7927
  44   2.0000      -0.533863       -14.5271
  45   2.0000      -0.531737       -14.4693
  46   2.0000      -0.517272       -14.0757
  47   2.0000      -0.515648       -14.0315
  48   2.0000      -0.505191       -13.7470
  49   2.0000      -0.500135       -13.6094
  50   2.0000      -0.489222       -13.3124
  51   2.0000      -0.477523       -12.9941
  52   2.0000      -0.472677       -12.8622
  53   2.0000      -0.466840       -12.7034
  54   2.0000      -0.459872       -12.5138
  55   2.0000      -0.440254       -11.9799
  56   2.0000      -0.435976       -11.8635
  57   2.0000      -0.432004       -11.7554
  58   2.0000      -0.430661       -11.7189
  59   2.0000      -0.425045       -11.5661
  60   2.0000      -0.422110       -11.4862
  61   2.0000      -0.405208       -11.0263
  62   2.0000      -0.399637       -10.8747
  63   2.0000      -0.340993        -9.2789
  64   2.0000      -0.326618        -8.8877
  65   2.0000      -0.315817        -8.5938
  66   2.0000      -0.314686        -8.5631
  67   0.0000       0.035995         0.9795
  68   0.0000       0.050306         1.3689
  69   0.0000       0.099640         2.7113
  70   0.0000       0.122950         3.3456
  71   0.0000       0.136013         3.7011

MULLIKEN ATOMIC CHARGES
-----------------------
   0 S :    0.091872
   1 C :   -0.135485
   2 C :   -0.104718
   3 C :    0.032825
   4 C :   -0.167907
   5 H :    0.043738
   6 C :    0.069381
   7 H :    0.023043
   8 H :    0.040694
   9 C :   -0.084194
  10 H :    0.029392
  11 H :    0.034052
  12 C :   -0.094009
  13 H :    0.037572
  14 H :    0.039065
  15 H :    0.044935
  16 S :    0.134640
  17 C :   -0.116668
  18 C :   -0.045224
  19 C :   -0.038468
  20 C :   -0.166260
  21 H :    0.050424
  22 C :    0.068516
  23 H :    0.021664
  24 H :    0.018945
  25 C :   -0.063299
  26 H :    0.044148
  27 H :    0.024287
  28 C :   -0.046506
  29 H :    0.034774
  30 H :    0.007977
  31 H :    0.028447
  32 H :    0.076307
  33 H :    0.066041
Sum of atomic charges:    0.0000000

LOEWDIN ATOMIC CHARGES
----------------------
   0 S :    0.371013
   1 C :   -0.189943
   2 C :   -0.062568
   3 C :   -0.067893
   4 C :   -0.182293
   5 H :    0.042398
   6 C :   -0.040656
   7 H :    0.030681
   8 H :    0.041449
   9 C :   -0.042794
  10 H :    0.021185
  11 H :    0.027971
  12 C :   -0.079805
  13 H :    0.028218
  14 H :    0.025447
  15 H :    0.029421
  16 S :    0.452912
  17 C :   -0.186256
  18 C :   -0.076375
  19 C :   -0.052317
  20 C :   -0.241751
  21 H :    0.042757
  22 C :   -0.030253
  23 H :    0.022977
  24 H :    0.024075
  25 C :   -0.050136
  26 H :    0.035452
  27 H :    0.028336
  28 C :   -0.076138
  29 H :    0.032342
  30 H :    0.022248
  31 H :    0.024111
  32 H :    0.042947
  33 H :    0.033237

  Mayer bond orders larger than 0.100000
B(  0-S ,  1-C ) :   1.1150 B(  0-S ,  4-C ) :   1.1391 B(  1-C ,  2-C ) :   1.6122
B(  1-C , 32-H ) :   0.9690 B(  2-C ,  3-C ) :   1.2161 B(  2-C ,  6-C ) :   1.0389
B(  3-C ,  4-C ) :   1.5931 B(  3-C ,  5-H ) :   0.9766 B(  4-C , 20-C ) :   1.0125
B(  6-C ,  7-H ) :   0.9440 B(  6-C ,  8-H ) :   0.9197 B(  6-C ,  9-C ) :   1.0922
B(  9-C , 10-H ) :   0.9454 B(  9-C , 11-H ) :   0.9543 B(  9-C , 12-C ) :   1.0654
B( 12-C , 13-H ) :   0.9743 B( 12-C , 14-H ) :   0.9781 B( 12-C , 15-H ) :   0.9773
B( 16-S , 17-C ) :   1.1885 B( 16-S , 20-C ) :   1.1616 B( 17-C , 18-C ) :   1.5762
B( 17-C , 20-C ) :   0.1003 B( 17-C , 33-H ) :   0.9604 B( 18-C , 19-C ) :   1.2721
B( 18-C , 21-H ) :   0.9816 B( 19-C , 20-C ) :   1.5915 B( 19-C , 22-C ) :   1.0329
B( 22-C , 23-H ) :   0.9435 B( 22-C , 24-H ) :   0.9306 B( 22-C , 25-C ) :   1.0629
B( 25-C , 26-H ) :   0.9595 B( 25-C , 27-H ) :   0.9526 B( 25-C , 28-C ) :   1.0593
B( 28-C , 29-H ) :   0.9731 B( 28-C , 30-H ) :   0.9714 B( 28-C , 31-H ) :   0.9755

Dispersion correction           -0.014819675
FINAL SINGLE POINT ENERGY     -1339.855638905105

DIPOLE MOMENT
-------------
                                X             Y             Z
Electronic contribution:    -13.80946      -8.18344       3.40318
Nuclear contribution   :     14.26524       8.51018      -3.44280
                        -----------------------------------------
Total Dipole Moment    :      0.45578       0.32674      -0.03962
                        -----------------------------------------
Magnitude (a.u.)       :      0.56219
Magnitude (Debye)      :      1.42897

Rotational constants in cm-1:     0.021212     0.007903     0.007055
Rotational constants in MHz :   635.930279   236.921931   211.513262

                             ****ORCA TERMINATED NORMALLY****
TOTAL RUN TIME: 0 days 0 hours 0 minutes 20 seconds 344 msec
