                         Program Version 4.2.1 -  RELEASE  -
|  1> ! wB97X-D3 SP def2-SVP
|  2> %pal
|  3> nprocs 24
|  4> end
|  5>
|  6> * xyz 0 1
|  7> S 	 -47.2813 	 16.2597 	 -86.7247
|  8> C 	 -47.6206 	 17.7112 	 -85.8722
|  9> C 	 -48.6154 	 18.4373 	 -86.4106
| 10> C 	 -49.1913 	 17.7352 	 -87.5429
| 11> C 	 -48.5272 	 16.574 	 -87.8973
| 12> H 	 -50.0136 	 18.0882 	 -88.1339
| 13> C 	 -49.2203 	 19.7922 	 -85.9268
| 14> H 	 -49.118 	 19.8877 	 -84.8582
| 15> H 	 -50.2871 	 19.9723 	 -86.1584
| 16> C 	 -48.4692 	 21.0216 	 -86.5689
| 17> H 	 -48.5997 	 20.9586 	 -87.6149
| 18> H 	 -48.8943 	 21.919 	 -86.1847
| 19> C 	 -46.9427 	 21.0182 	 -86.3003
| 20> H 	 -46.719 	 20.7376 	 -85.3068
| 21> H 	 -46.4757 	 20.208 	 -86.9142
| 22> H 	 -46.5276 	 22.0482 	 -86.5716
| 23> S 	 -50.6075 	 15.6256 	 -89.4989
| 24> C 	 -50.2241 	 14.4403 	 -90.7353
| 25> C 	 -48.8906 	 14.4435 	 -91.015
| 26> C 	 -48.0765 	 15.0653 	 -89.9654
| 27> C 	 -48.9174 	 15.719 	 -89.0284
| 28> H 	 -48.6008 	 13.914 	 -91.9523
| 29> C 	 -46.5745 	 15.0555 	 -90.0129
| 30> H 	 -46.1958 	 14.773 	 -89.0326
| 31> H 	 -46.3152 	 16.0681 	 -90.1289
| 32> C 	 -45.8233 	 14.233 	 -91.1025
| 33> H 	 -46.2929 	 14.7102 	 -92.0171
| 34> H 	 -46.2233 	 13.2122 	 -90.9954
| 35> C 	 -44.2831 	 14.2476 	 -91.1758
| 36> H 	 -43.8644 	 15.2534 	 -91.0219
| 37> H 	 -43.9239 	 13.8033 	 -92.1069
| 38> H 	 -43.931 	 13.6972 	 -90.3228
| 39> H 	 -47.0509 	 17.9985 	 -84.9607
| 40> H 	 -50.8874 	 13.9819 	 -91.3765
| 41> *
| 42>
| 43>                          ****END OF INPUT****

CARTESIAN COORDINATES (ANGSTROEM)
---------------------------------
  S    -47.281300   16.259700  -86.724700
  C    -47.620600   17.711200  -85.872200
  C    -48.615400   18.437300  -86.410600
  C    -49.191300   17.735200  -87.542900
  C    -48.527200   16.574000  -87.897300
  H    -50.013600   18.088200  -88.133900
  C    -49.220300   19.792200  -85.926800
  H    -49.118000   19.887700  -84.858200
  H    -50.287100   19.972300  -86.158400
  C    -48.469200   21.021600  -86.568900
  H    -48.599700   20.958600  -87.614900
  H    -48.894300   21.919000  -86.184700
  C    -46.942700   21.018200  -86.300300
  H    -46.719000   20.737600  -85.306800
  H    -46.475700   20.208000  -86.914200
  H    -46.527600   22.048200  -86.571600
  S    -50.607500   15.625600  -89.498900
  C    -50.224100   14.440300  -90.735300
  C    -48.890600   14.443500  -91.015000
  C    -48.076500   15.065300  -89.965400
  C    -48.917400   15.719000  -89.028400
  H    -48.600800   13.914000  -91.952300
  C    -46.574500   15.055500  -90.012900
  H    -46.195800   14.773000  -89.032600
  H    -46.315200   16.068100  -90.128900
  C    -45.823300   14.233000  -91.102500
  H    -46.292900   14.710200  -92.017100
  H    -46.223300   13.212200  -90.995400
  C    -44.283100   14.247600  -91.175800
  H    -43.864400   15.253400  -91.021900
  H    -43.923900   13.803300  -92.106900
  H    -43.931000   13.697200  -90.322800
  H    -47.050900   17.998500  -84.960700
  H    -50.887400   13.981900  -91.376500

 Total Charge           Charge          ....    0
 Multiplicity           Mult            ....    1
 Number of Electrons    NEL             ....  134
 Basis Dimension        Dim             ....  322

ORBITAL ENERGIES
----------------

  NO   OCC          E(Eh)            E(eV)
   0   2.0000     -88.967494     -2420.9286
   1   2.0000     -88.967040     -2420.9162
   2   2.0000     -10.331785      -281.1422
   3   2.0000     -10.329699      -281.0854
   4   2.0000     -10.312331      -280.6128
   5   2.0000     -10.312229      -280.6100
   6   2.0000     -10.310048      -280.5507
   7   2.0000     -10.302480      -280.3447
   8   2.0000     -10.298068      -280.2247
   9   2.0000     -10.297561      -280.2109
  10   2.0000     -10.295016      -280.1416
  11   2.0000     -10.291055      -280.0338
  12   2.0000     -10.287897      -279.9479
  13   2.0000     -10.284155      -279.8461
  14   2.0000     -10.280771      -279.7540
  15   2.0000     -10.278503      -279.6923
  16   2.0000      -8.082682      -219.9409
  17   2.0000      -8.081322      -219.9040
  18   2.0000      -6.041284      -164.3917
  19   2.0000      -6.039944      -164.3552
  20   2.0000      -6.037119      -164.2784
  21   2.0000      -6.036147      -164.2519
  22   2.0000      -6.033334      -164.1754
  23   2.0000      -6.031747      -164.1322
  24   2.0000      -1.007778       -27.4230
  25   2.0000      -0.985382       -26.8136
  26   2.0000      -0.907350       -24.6903
  27   2.0000      -0.904555       -24.6142
  28   2.0000      -0.871075       -23.7032
  29   2.0000      -0.850294       -23.1377
  30   2.0000      -0.841942       -22.9104
  31   2.0000      -0.813696       -22.1418
  32   2.0000      -0.783851       -21.3297
  33   2.0000      -0.775707       -21.1081
  34   2.0000      -0.705410       -19.1952
  35   2.0000      -0.703066       -19.1314
  36   2.0000      -0.690944       -18.8015
  37   2.0000      -0.655173       -17.8282
  38   2.0000      -0.635197       -17.2846
  39   2.0000      -0.614612       -16.7244
  40   2.0000      -0.596582       -16.2338
  41   2.0000      -0.572088       -15.5673
  42   2.0000      -0.569929       -15.5086
  43   2.0000      -0.547574       -14.9002
  44   2.0000      -0.537286       -14.6203
  45   2.0000      -0.527740       -14.3605
  46   2.0000      -0.516204       -14.0466
  47   2.0000      -0.511108       -13.9080
  48   2.0000      -0.504972       -13.7410
  49   2.0000      -0.495814       -13.4918
  50   2.0000      -0.488219       -13.2851
  51   2.0000      -0.482252       -13.1227
  52   2.0000      -0.476176       -12.9574
  53   2.0000      -0.465916       -12.6782
  54   2.0000      -0.460652       -12.5350
  55   2.0000      -0.453352       -12.3363
  56   2.0000      -0.445797       -12.1307
  57   2.0000      -0.431067       -11.7299
  58   2.0000      -0.427492       -11.6326
  59   2.0000      -0.426034       -11.5930
  60   2.0000      -0.423836       -11.5332
  61   2.0000      -0.419908       -11.4263
  62   2.0000      -0.406716       -11.0673
  63   2.0000      -0.358161        -9.7461
  64   2.0000      -0.330533        -8.9943
  65   2.0000      -0.326615        -8.8876
  66   2.0000      -0.286131        -7.7860
  67   0.0000       0.026815         0.7297
  68   0.0000       0.077398         2.1061
  69   0.0000       0.105936         2.8827
  70   0.0000       0.119487         3.2514
  71   0.0000       0.136254         3.7077

MULLIKEN ATOMIC CHARGES
-----------------------
   0 S :    0.113489
   1 C :   -0.154551
   2 C :   -0.059778
   3 C :   -0.016711
   4 C :   -0.128896
   5 H :    0.007684
   6 C :    0.051758
   7 H :    0.023637
   8 H :    0.037945
   9 C :   -0.053031
  10 H :    0.023301
  11 H :    0.025762
  12 C :   -0.078477
  13 H :    0.013347
  14 H :    0.050279
  15 H :    0.049665
  16 S :    0.099896
  17 C :   -0.042941
  18 C :   -0.079401
  19 C :   -0.063908
  20 C :   -0.124589
  21 H :    0.041144
  22 C :    0.085986
  23 H :    0.021268
  24 H :    0.026099
  25 C :   -0.137395
  26 H :    0.037028
  27 H :    0.039667
  28 C :   -0.002826
  29 H :    0.031764
  30 H :    0.048059
  31 H :    0.028648
  32 H :    0.061988
  33 H :    0.024091
Sum of atomic charges:    0.0000000

LOEWDIN ATOMIC CHARGES
----------------------
   0 S :    0.423195
   1 C :   -0.210354
   2 C :   -0.064578
   3 C :   -0.068473
   4 C :   -0.194426
   5 H :    0.021876
   6 C :   -0.025320
   7 H :    0.024253
   8 H :    0.035169
   9 C :   -0.031648
  10 H :    0.017850
  11 H :    0.017551
  12 C :   -0.070568
  13 H :    0.010781
  14 H :    0.031787
  15 H :    0.035338
  16 S :    0.401136
  17 C :   -0.172328
  18 C :   -0.075601
  19 C :   -0.047268
  20 C :   -0.194153
  21 H :    0.040238
  22 C :   -0.039951
  23 H :    0.023254
  24 H :    0.029126
  25 C :   -0.046416
  26 H :    0.026578
  27 H :    0.024803
  28 C :   -0.060453
  29 H :    0.029213
  30 H :    0.033219
  31 H :    0.025595
  32 H :    0.036227
  33 H :    0.014348

  Mayer bond orders larger than 0.100000
B(  0-S ,  1-C ) :   1.1386 B(  0-S ,  4-C ) :   1.1436 B(  1-C ,  2-C ) :   1.6397
B(  1-C , 32-H ) :   0.9571 B(  2-C ,  3-C ) :   1.2384 B(  2-C ,  6-C ) :   1.0140
B(  3-C ,  4-C ) :   1.5743 B(  3-C ,  5-H ) :   0.9937 B(  4-C , 20-C ) :   1.0701
B(  6-C ,  7-H ) :   0.9465 B(  6-C ,  8-H ) :   0.9508 B(  6-C ,  9-C ) :   1.0684
B(  9-C , 10-H ) :   0.9587 B(  9-C , 11-H ) :   0.9607 B(  9-C , 12-C ) :   1.0756
B( 12-C , 13-H ) :   0.9781 B( 12-C , 14-H ) :   0.9711 B( 12-C , 15-H ) :   0.9742
B( 16-S , 17-C ) :   1.1365 B( 16-S , 20-C ) :   1.1370 B( 17-C , 18-C ) :   1.6516
B( 17-C , 33-H ) :   0.9689 B( 18-C , 19-C ) :   1.2172 B( 18-C , 21-H ) :   0.9761
B( 19-C , 20-C ) :   1.5735 B( 19-C , 22-C ) :   1.0348 B( 22-C , 23-H ) :   0.9251
B( 22-C , 24-H ) :   0.9164 B( 22-C , 25-C ) :   1.0761 B( 25-C , 26-H ) :   0.9490
B( 25-C , 27-H ) :   0.9578 B( 25-C , 28-C ) :   1.0751 B( 28-C , 29-H ) :   0.9743
B( 28-C , 30-H ) :   0.9730 B( 28-C , 31-H ) :   0.9723

Dispersion correction           -0.013974539
FINAL SINGLE POINT ENERGY     -1339.873458634103

DIPOLE MOMENT
-------------
                                X             Y             Z
Electronic contribution:    -15.64396     -10.95052       3.31302
Nuclear contribution   :     15.87592      11.19402      -3.56131
                        -----------------------------------------
Total Dipole Moment    :      0.23196       0.24351      -0.24829
                        -----------------------------------------
Magnitude (a.u.)       :      0.41803
Magnitude (Debye)      :      1.06254

Rotational constants in cm-1:     0.019303     0.007839     0.006324
Rotational constants in MHz :   578.675323   235.017806   189.581697

                             ****ORCA TERMINATED NORMALLY****
TOTAL RUN TIME: 0 days 0 hours 0 minutes 20 seconds 830 msec
