                         Program Version 4.2.1 -  RELEASE  -
|  1> ! wB97X-D3 SP def2-SVP
|  2> %pal
|  3> nprocs 24
|  4> end
|  5>
|  6> * xyz 0 1
|  7> S 	 -43.0651 	 -8.04096 	 8.08105
|  8> C 	 -41.3091 	 -8.14562 	 7.92085
|  9> C 	 -40.6693 	 -7.04227 	 8.53536
| 10> C 	 -41.638 	 -6.1071 	 8.95763
| 11> C 	 -42.9863 	 -6.45459 	 8.70309
| 12> H 	 -41.3942 	 -5.10034 	 9.40963
| 13> C 	 -39.1458 	 -6.84597 	 8.39916
| 14> H 	 -38.6381 	 -7.71037 	 8.74859
| 15> H 	 -38.7532 	 -6.10479 	 9.08577
| 16> C 	 -38.5067 	 -6.34105 	 7.094
| 17> H 	 -37.4734 	 -6.22219 	 7.18716
| 18> H 	 -38.6303 	 -7.08035 	 6.2881
| 19> C 	 -39.142 	 -5.03889 	 6.54281
| 20> H 	 -38.5462 	 -4.54174 	 5.71903
| 21> H 	 -40.1437 	 -5.18499 	 6.22499
| 22> H 	 -39.2139 	 -4.33172 	 7.41441
| 23> S 	 -45.4686 	 -6.46691 	 9.77056
| 24> C 	 -46.3989 	 -5.00794 	 9.92154
| 25> C 	 -45.7081 	 -3.94273 	 9.39763
| 26> C 	 -44.4065 	 -4.27516 	 8.91787
| 27> C 	 -44.17 	 -5.64547 	 8.97643
| 28> H 	 -46.1501 	 -3.04082 	 9.42199
| 29> C 	 -43.3905 	 -3.21613 	 8.43118
| 30> H 	 -43.8615 	 -2.69237 	 7.60428
| 31> H 	 -42.5676 	 -3.54534 	 7.95851
| 32> C 	 -43.0181 	 -2.28384 	 9.50223
| 33> H 	 -42.2282 	 -2.6407 	 10.1827
| 34> H 	 -43.9114 	 -2.16753 	 10.1113
| 35> C 	 -42.4871 	 -0.943093 	 8.8717
| 36> H 	 -41.5765 	 -1.05679 	 8.29525
| 37> H 	 -42.3808 	 -0.0883042 	 9.58227
| 38> H 	 -43.2509 	 -0.599291 	 8.13113
| 39> H 	 -40.7868 	 -8.85835 	 7.26712
| 40> H 	 -47.4295 	 -4.86452 	 10.3786
| 41> *
| 42>
| 43>                          ****END OF INPUT****

CARTESIAN COORDINATES (ANGSTROEM)
---------------------------------
  S    -43.065100   -8.040960    8.081050
  C    -41.309100   -8.145620    7.920850
  C    -40.669300   -7.042270    8.535360
  C    -41.638000   -6.107100    8.957630
  C    -42.986300   -6.454590    8.703090
  H    -41.394200   -5.100340    9.409630
  C    -39.145800   -6.845970    8.399160
  H    -38.638100   -7.710370    8.748590
  H    -38.753200   -6.104790    9.085770
  C    -38.506700   -6.341050    7.094000
  H    -37.473400   -6.222190    7.187160
  H    -38.630300   -7.080350    6.288100
  C    -39.142000   -5.038890    6.542810
  H    -38.546200   -4.541740    5.719030
  H    -40.143700   -5.184990    6.224990
  H    -39.213900   -4.331720    7.414410
  S    -45.468600   -6.466910    9.770560
  C    -46.398900   -5.007940    9.921540
  C    -45.708100   -3.942730    9.397630
  C    -44.406500   -4.275160    8.917870
  C    -44.170000   -5.645470    8.976430
  H    -46.150100   -3.040820    9.421990
  C    -43.390500   -3.216130    8.431180
  H    -43.861500   -2.692370    7.604280
  H    -42.567600   -3.545340    7.958510
  C    -43.018100   -2.283840    9.502230
  H    -42.228200   -2.640700   10.182700
  H    -43.911400   -2.167530   10.111300
  C    -42.487100   -0.943093    8.871700
  H    -41.576500   -1.056790    8.295250
  H    -42.380800   -0.088304    9.582270
  H    -43.250900   -0.599291    8.131130
  H    -40.786800   -8.858350    7.267120
  H    -47.429500   -4.864520   10.378600

 Total Charge           Charge          ....    0
 Multiplicity           Mult            ....    1
 Number of Electrons    NEL             ....  134
 Basis Dimension        Dim             ....  322

ORBITAL ENERGIES
----------------

  NO   OCC          E(Eh)            E(eV)
   0   2.0000     -88.971849     -2421.0471
   1   2.0000     -88.965765     -2420.8815
   2   2.0000     -10.331171      -281.1255
   3   2.0000     -10.326898      -281.0092
   4   2.0000     -10.320831      -280.8441
   5   2.0000     -10.319604      -280.8107
   6   2.0000     -10.309111      -280.5252
   7   2.0000     -10.306171      -280.4452
   8   2.0000     -10.300762      -280.2980
   9   2.0000     -10.293703      -280.1059
  10   2.0000     -10.287127      -279.9270
  11   2.0000     -10.286519      -279.9104
  12   2.0000     -10.286220      -279.9023
  13   2.0000     -10.285403      -279.8800
  14   2.0000     -10.281917      -279.7852
  15   2.0000     -10.279884      -279.7299
  16   2.0000      -8.086724      -220.0510
  17   2.0000      -8.081165      -219.8997
  18   2.0000      -6.045089      -164.4952
  19   2.0000      -6.041109      -164.3869
  20   2.0000      -6.039683      -164.3481
  21   2.0000      -6.037731      -164.2950
  22   2.0000      -6.035510      -164.2346
  23   2.0000      -6.031935      -164.1373
  24   2.0000      -1.011435       -27.5226
  25   2.0000      -0.986966       -26.8567
  26   2.0000      -0.919414       -25.0185
  27   2.0000      -0.911597       -24.8058
  28   2.0000      -0.870557       -23.6891
  29   2.0000      -0.848424       -23.0868
  30   2.0000      -0.844009       -22.9667
  31   2.0000      -0.811370       -22.0785
  32   2.0000      -0.786781       -21.4094
  33   2.0000      -0.774478       -21.0746
  34   2.0000      -0.707486       -19.2517
  35   2.0000      -0.703056       -19.1311
  36   2.0000      -0.698514       -19.0075
  37   2.0000      -0.665961       -18.1217
  38   2.0000      -0.635187       -17.2843
  39   2.0000      -0.620306       -16.8794
  40   2.0000      -0.602089       -16.3837
  41   2.0000      -0.577170       -15.7056
  42   2.0000      -0.565425       -15.3860
  43   2.0000      -0.551318       -15.0021
  44   2.0000      -0.546064       -14.8592
  45   2.0000      -0.524667       -14.2769
  46   2.0000      -0.517366       -14.0783
  47   2.0000      -0.509368       -13.8606
  48   2.0000      -0.499596       -13.5947
  49   2.0000      -0.499098       -13.5811
  50   2.0000      -0.493538       -13.4299
  51   2.0000      -0.476378       -12.9629
  52   2.0000      -0.470230       -12.7956
  53   2.0000      -0.467122       -12.7110
  54   2.0000      -0.454962       -12.3801
  55   2.0000      -0.452754       -12.3201
  56   2.0000      -0.445691       -12.1279
  57   2.0000      -0.443999       -12.0818
  58   2.0000      -0.442196       -12.0328
  59   2.0000      -0.432616       -11.7721
  60   2.0000      -0.425109       -11.5678
  61   2.0000      -0.409432       -11.1412
  62   2.0000      -0.406659       -11.0657
  63   2.0000      -0.351982        -9.5779
  64   2.0000      -0.337125        -9.1736
  65   2.0000      -0.332051        -9.0356
  66   2.0000      -0.285833        -7.7779
  67   0.0000       0.025409         0.6914
  68   0.0000       0.070081         1.9070
  69   0.0000       0.107757         2.9322
  70   0.0000       0.120037         3.2664
  71   0.0000       0.124788         3.3956

MULLIKEN ATOMIC CHARGES
-----------------------
   0 S :    0.127402
   1 C :   -0.139461
   2 C :   -0.068705
   3 C :    0.001127
   4 C :   -0.159145
   5 H :    0.025804
   6 C :    0.063641
   7 H :    0.023451
   8 H :    0.014414
   9 C :   -0.040652
  10 H :    0.021383
  11 H :    0.019029
  12 C :   -0.083925
  13 H :    0.048362
  14 H :    0.042429
  15 H :    0.020415
  16 S :    0.104284
  17 C :   -0.110068
  18 C :   -0.004118
  19 C :   -0.040645
  20 C :   -0.128544
  21 H :   -0.027472
  22 C :    0.129796
  23 H :    0.017156
  24 H :   -0.023606
  25 C :   -0.068514
  26 H :    0.037211
  27 H :    0.026044
  28 C :   -0.079157
  29 H :    0.035968
  30 H :    0.043598
  31 H :    0.026633
  32 H :    0.065065
  33 H :    0.080800
Sum of atomic charges:    0.0000000

LOEWDIN ATOMIC CHARGES
----------------------
   0 S :    0.430613
   1 C :   -0.198323
   2 C :   -0.061574
   3 C :   -0.072592
   4 C :   -0.212894
   5 H :    0.037776
   6 C :   -0.032692
   7 H :    0.029754
   8 H :    0.030546
   9 C :   -0.034281
  10 H :    0.018405
  11 H :    0.019392
  12 C :   -0.069069
  13 H :    0.033841
  14 H :    0.020600
  15 H :    0.022441
  16 S :    0.417522
  17 C :   -0.198746
  18 C :   -0.062235
  19 C :   -0.048522
  20 C :   -0.202579
  21 H :    0.011854
  22 C :   -0.024625
  23 H :    0.033916
  24 H :    0.010914
  25 C :   -0.038511
  26 H :    0.025791
  27 H :    0.023793
  28 C :   -0.070601
  29 H :    0.023741
  30 H :    0.029057
  31 H :    0.025598
  32 H :    0.033123
  33 H :    0.048565

  Mayer bond orders larger than 0.100000
B(  0-S ,  1-C ) :   1.1585 B(  0-S ,  4-C ) :   1.1804 B(  1-C ,  2-C ) :   1.5524
B(  1-C ,  4-C ) :   0.1149 B(  1-C , 32-H ) :   0.9691 B(  2-C ,  3-C ) :   1.2917
B(  2-C ,  6-C ) :   1.0256 B(  3-C ,  4-C ) :   1.5169 B(  3-C ,  5-H ) :   0.9839
B(  4-C , 20-C ) :   1.0333 B(  6-C ,  7-H ) :   0.9369 B(  6-C ,  8-H ) :   0.9402
B(  6-C ,  9-C ) :   1.0745 B(  9-C , 10-H ) :   0.9549 B(  9-C , 11-H ) :   0.9547
B(  9-C , 12-C ) :   1.0707 B( 12-C , 13-H ) :   0.9740 B( 12-C , 14-H ) :   0.9753
B( 12-C , 15-H ) :   0.9764 B( 16-S , 17-C ) :   1.1533 B( 16-S , 20-C ) :   1.1517
B( 17-C , 18-C ) :   1.6103 B( 17-C , 33-H ) :   0.9580 B( 18-C , 19-C ) :   1.2334
B( 18-C , 21-H ) :   1.0080 B( 19-C , 20-C ) :   1.6008 B( 19-C , 22-C ) :   1.0308
B( 22-C , 23-H ) :   0.9348 B( 22-C , 24-H ) :   0.9265 B( 22-C , 25-C ) :   1.0570
B( 25-C , 26-H ) :   0.9494 B( 25-C , 27-H ) :   0.9606 B( 25-C , 28-C ) :   1.0661
B( 28-C , 29-H ) :   0.9758 B( 28-C , 30-H ) :   0.9759 B( 28-C , 31-H ) :   0.9779

Dispersion correction           -0.014716806
FINAL SINGLE POINT ENERGY     -1339.864011859521

DIPOLE MOMENT
-------------
                                X             Y             Z
Electronic contribution:    -21.40573     -22.65801       6.14694
Nuclear contribution   :     21.80577      23.21786      -6.27744
                        -----------------------------------------
Total Dipole Moment    :      0.40004       0.55985      -0.13050
                        -----------------------------------------
Magnitude (a.u.)       :      0.70035
Magnitude (Debye)      :      1.78016

Rotational constants in cm-1:     0.016945     0.010163     0.006709
Rotational constants in MHz :   508.003414   304.673830   201.126929

                             ****ORCA TERMINATED NORMALLY****
TOTAL RUN TIME: 0 days 0 hours 0 minutes 22 seconds 86 msec
