                         Program Version 4.2.1 -  RELEASE  -
|  1> ! wB97X-D3 SP def2-SVP
|  2> %pal
|  3> nprocs 24
|  4> end
|  5>
|  6> * xyz 0 1
|  7> S 	 -102.094 	 -1.93626 	 -115.304
|  8> C 	 -101.227 	 -3.14018 	 -116.185
|  9> C 	 -100.613 	 -2.63608 	 -117.241
| 10> C 	 -100.543 	 -1.21984 	 -117.153
| 11> C 	 -101.414 	 -0.649579 	 -116.223
| 12> H 	 -99.8818 	 -0.513618 	 -117.694
| 13> C 	 -99.7627 	 -3.38423 	 -118.253
| 14> H 	 -99.0751 	 -4.04736 	 -117.717
| 15> H 	 -99.3258 	 -2.56266 	 -118.736
| 16> C 	 -100.497 	 -4.14239 	 -119.358
| 17> H 	 -101.076 	 -3.44972 	 -119.989
| 18> H 	 -99.6663 	 -4.617 	 -119.976
| 19> C 	 -101.239 	 -5.3062 	 -118.75
| 20> H 	 -100.502 	 -5.97095 	 -118.223
| 21> H 	 -102.065 	 -5.00564 	 -118.045
| 22> H 	 -101.826 	 -5.88663 	 -119.524
| 23> S 	 -100.518 	 1.10326 	 -114.267
| 24> C 	 -101.19 	 2.68861 	 -114.113
| 25> C 	 -101.931 	 2.99701 	 -115.27
| 26> C 	 -102.084 	 1.91474 	 -116.184
| 27> C 	 -101.404 	 0.764953 	 -115.755
| 28> H 	 -102.376 	 3.95269 	 -115.456
| 29> C 	 -102.985 	 1.96934 	 -117.411
| 30> H 	 -102.67 	 1.22748 	 -118.185
| 31> H 	 -102.894 	 2.94051 	 -117.855
| 32> C 	 -104.546 	 1.64937 	 -117.19
| 33> H 	 -104.846 	 2.32405 	 -116.4
| 34> H 	 -104.677 	 0.714208 	 -116.616
| 35> C 	 -105.555 	 1.75596 	 -118.302
| 36> H 	 -105.545 	 2.7101 	 -118.739
| 37> H 	 -106.518 	 1.73484 	 -117.788
| 38> H 	 -105.528 	 1.026 	 -119.195
| 39> H 	 -101.209 	 -4.19312 	 -115.996
| 40> H 	 -100.881 	 3.493 	 -113.326
| 41> *
| 42>
| 43>                          ****END OF INPUT****

CARTESIAN COORDINATES (ANGSTROEM)
---------------------------------
  S    -102.094000   -1.936260  -115.304000
  C    -101.227000   -3.140180  -116.185000
  C    -100.613000   -2.636080  -117.241000
  C    -100.543000   -1.219840  -117.153000
  C    -101.414000   -0.649579  -116.223000
  H    -99.881800   -0.513618  -117.694000
  C    -99.762700   -3.384230  -118.253000
  H    -99.075100   -4.047360  -117.717000
  H    -99.325800   -2.562660  -118.736000
  C    -100.497000   -4.142390  -119.358000
  H    -101.076000   -3.449720  -119.989000
  H    -99.666300   -4.617000  -119.976000
  C    -101.239000   -5.306200  -118.750000
  H    -100.502000   -5.970950  -118.223000
  H    -102.065000   -5.005640  -118.045000
  H    -101.826000   -5.886630  -119.524000
  S    -100.518000    1.103260  -114.267000
  C    -101.190000    2.688610  -114.113000
  C    -101.931000    2.997010  -115.270000
  C    -102.084000    1.914740  -116.184000
  C    -101.404000    0.764953  -115.755000
  H    -102.376000    3.952690  -115.456000
  C    -102.985000    1.969340  -117.411000
  H    -102.670000    1.227480  -118.185000
  H    -102.894000    2.940510  -117.855000
  C    -104.546000    1.649370  -117.190000
  H    -104.846000    2.324050  -116.400000
  H    -104.677000    0.714208  -116.616000
  C    -105.555000    1.755960  -118.302000
  H    -105.545000    2.710100  -118.739000
  H    -106.518000    1.734840  -117.788000
  H    -105.528000    1.026000  -119.195000
  H    -101.209000   -4.193120  -115.996000
  H    -100.881000    3.493000  -113.326000

 Total Charge           Charge          ....    0
 Multiplicity           Mult            ....    1
 Number of Electrons    NEL             ....  134
 Basis Dimension        Dim             ....  322

ORBITAL ENERGIES
----------------

  NO   OCC          E(Eh)            E(eV)
   0   2.0000     -88.966356     -2420.8976
   1   2.0000     -88.963350     -2420.8158
   2   2.0000     -10.329608      -281.0829
   3   2.0000     -10.327467      -281.0247
   4   2.0000     -10.325702      -280.9766
   5   2.0000     -10.306435      -280.4523
   6   2.0000     -10.305325      -280.4221
   7   2.0000     -10.295093      -280.1437
   8   2.0000     -10.294930      -280.1393
   9   2.0000     -10.294741      -280.1342
  10   2.0000     -10.292509      -280.0734
  11   2.0000     -10.290642      -280.0226
  12   2.0000     -10.287174      -279.9282
  13   2.0000     -10.286414      -279.9076
  14   2.0000     -10.285743      -279.8893
  15   2.0000     -10.279629      -279.7229
  16   2.0000      -8.081015      -219.8956
  17   2.0000      -8.079062      -219.8425
  18   2.0000      -6.039467      -164.3422
  19   2.0000      -6.037590      -164.2912
  20   2.0000      -6.035358      -164.2304
  21   2.0000      -6.033316      -164.1749
  22   2.0000      -6.031998      -164.1390
  23   2.0000      -6.029841      -164.0803
  24   2.0000      -1.011476       -27.5237
  25   2.0000      -0.987496       -26.8711
  26   2.0000      -0.917897       -24.9772
  27   2.0000      -0.898238       -24.4423
  28   2.0000      -0.867024       -23.5929
  29   2.0000      -0.853028       -23.2121
  30   2.0000      -0.846635       -23.0381
  31   2.0000      -0.809244       -22.0207
  32   2.0000      -0.783435       -21.3183
  33   2.0000      -0.774644       -21.0791
  34   2.0000      -0.702683       -19.1210
  35   2.0000      -0.692699       -18.8493
  36   2.0000      -0.690138       -18.7796
  37   2.0000      -0.658681       -17.9236
  38   2.0000      -0.642195       -17.4750
  39   2.0000      -0.614146       -16.7118
  40   2.0000      -0.592143       -16.1130
  41   2.0000      -0.573889       -15.6163
  42   2.0000      -0.553924       -15.0730
  43   2.0000      -0.549739       -14.9592
  44   2.0000      -0.538778       -14.6609
  45   2.0000      -0.520520       -14.1641
  46   2.0000      -0.515601       -14.0302
  47   2.0000      -0.507469       -13.8089
  48   2.0000      -0.506871       -13.7927
  49   2.0000      -0.500524       -13.6199
  50   2.0000      -0.485267       -13.2048
  51   2.0000      -0.480547       -13.0763
  52   2.0000      -0.477158       -12.9841
  53   2.0000      -0.463701       -12.6179
  54   2.0000      -0.458567       -12.4782
  55   2.0000      -0.451997       -12.2995
  56   2.0000      -0.447553       -12.1785
  57   2.0000      -0.434556       -11.8249
  58   2.0000      -0.427128       -11.6227
  59   2.0000      -0.424336       -11.5468
  60   2.0000      -0.418412       -11.3856
  61   2.0000      -0.408700       -11.1213
  62   2.0000      -0.405131       -11.0242
  63   2.0000      -0.336138        -9.1468
  64   2.0000      -0.328262        -8.9325
  65   2.0000      -0.323836        -8.8120
  66   2.0000      -0.307579        -8.3697
  67   0.0000       0.036856         1.0029
  68   0.0000       0.059049         1.6068
  69   0.0000       0.114855         3.1254
  70   0.0000       0.123895         3.3713
  71   0.0000       0.132495         3.6054

MULLIKEN ATOMIC CHARGES
-----------------------
   0 S :    0.118998
   1 C :   -0.115812
   2 C :   -0.087189
   3 C :    0.000516
   4 C :   -0.156370
   5 H :    0.030692
   6 C :    0.095063
   7 H :    0.038096
   8 H :    0.001903
   9 C :   -0.060536
  10 H :    0.038056
  11 H :    0.041844
  12 C :   -0.104118
  13 H :    0.037287
  14 H :    0.046412
  15 H :    0.041567
  16 S :    0.125071
  17 C :   -0.126499
  18 C :   -0.036682
  19 C :   -0.022459
  20 C :   -0.195673
  21 H :    0.009428
  22 C :    0.076655
  23 H :    0.033244
  24 H :    0.014613
  25 C :   -0.085421
  26 H :    0.009836
  27 H :    0.026640
  28 C :   -0.026182
  29 H :    0.011601
  30 H :    0.033747
  31 H :    0.049619
  32 H :    0.038267
  33 H :    0.097784
Sum of atomic charges:   -0.0000000

LOEWDIN ATOMIC CHARGES
----------------------
   0 S :    0.427269
   1 C :   -0.189259
   2 C :   -0.078031
   3 C :   -0.059035
   4 C :   -0.220640
   5 H :    0.036414
   6 C :   -0.024598
   7 H :    0.032791
   8 H :    0.023939
   9 C :   -0.042728
  10 H :    0.026885
  11 H :    0.034493
  12 C :   -0.082174
  13 H :    0.028920
  14 H :    0.027962
  15 H :    0.030302
  16 S :    0.420723
  17 C :   -0.212303
  18 C :   -0.075940
  19 C :   -0.054849
  20 C :   -0.200823
  21 H :    0.025977
  22 C :   -0.032101
  23 H :    0.033990
  24 H :    0.024323
  25 C :   -0.047937
  26 H :    0.021478
  27 H :    0.027179
  28 C :   -0.070052
  29 H :    0.016278
  30 H :    0.035602
  31 H :    0.034473
  32 H :    0.026435
  33 H :    0.055037

  Mayer bond orders larger than 0.100000
B(  0-S ,  1-C ) :   1.1508 B(  0-S ,  4-C ) :   1.1566 B(  1-C ,  2-C ) :   1.6239
B(  1-C , 32-H ) :   0.9642 B(  2-C ,  3-C ) :   1.2455 B(  2-C ,  6-C ) :   0.9988
B(  3-C ,  4-C ) :   1.5960 B(  3-C ,  5-H ) :   0.9812 B(  4-C , 20-C ) :   0.9987
B(  6-C ,  7-H ) :   0.9463 B(  6-C ,  8-H ) :   0.9311 B(  6-C ,  9-C ) :   1.0813
B(  9-C , 10-H ) :   0.9528 B(  9-C , 11-H ) :   0.9527 B(  9-C , 12-C ) :   1.0771
B( 12-C , 13-H ) :   0.9718 B( 12-C , 14-H ) :   0.9686 B( 12-C , 15-H ) :   0.9710
B( 16-S , 17-C ) :   1.1745 B( 16-S , 20-C ) :   1.1648 B( 17-C , 18-C ) :   1.5660
B( 17-C , 20-C ) :   0.1061 B( 17-C , 33-H ) :   0.9533 B( 18-C , 19-C ) :   1.2789
B( 18-C , 21-H ) :   0.9900 B( 19-C , 20-C ) :   1.5701 B( 19-C , 22-C ) :   1.0571
B( 22-C , 23-H ) :   0.9358 B( 22-C , 24-H ) :   0.9315 B( 22-C , 25-C ) :   1.0493
B( 25-C , 26-H ) :   0.9509 B( 25-C , 27-H ) :   0.9548 B( 25-C , 28-C ) :   1.0870
B( 28-C , 29-H ) :   0.9697 B( 28-C , 30-H ) :   0.9675 B( 28-C , 31-H ) :   0.9745

Dispersion correction           -0.013907212
FINAL SINGLE POINT ENERGY     -1339.861983071094

DIPOLE MOMENT
-------------
                                X             Y             Z
Electronic contribution:      9.46579       6.82917      21.45937
Nuclear contribution   :     -9.43076      -6.77653     -21.88092
                        -----------------------------------------
Total Dipole Moment    :      0.03503       0.05263      -0.42155
                        -----------------------------------------
Magnitude (a.u.)       :      0.42626
Magnitude (Debye)      :      1.08348

Rotational constants in cm-1:     0.019256     0.008056     0.006487
Rotational constants in MHz :   577.279268   241.509744   194.478401

                             ****ORCA TERMINATED NORMALLY****
TOTAL RUN TIME: 0 days 0 hours 0 minutes 21 seconds 5 msec
