                         Program Version 4.2.1 -  RELEASE  -
|  1> ! wB97X-D3 SP def2-SVP
|  2> %pal
|  3> nprocs 24
|  4> end
|  5>
|  6> * xyz 0 1
|  7> S 	 -143.508 	 30.121 	 -12.5032
|  8> C 	 -143.605 	 29.4226 	 -14.1134
|  9> C 	 -144.909 	 29.4307 	 -14.6393
| 10> C 	 -145.834 	 30.0924 	 -13.8199
| 11> C 	 -145.178 	 30.6065 	 -12.6779
| 12> H 	 -146.933 	 30.1308 	 -13.9552
| 13> C 	 -145.356 	 28.7825 	 -15.9521
| 14> H 	 -144.571 	 28.258 	 -16.523
| 15> H 	 -145.798 	 29.5748 	 -16.5959
| 16> C 	 -146.442 	 27.7227 	 -15.7642
| 17> H 	 -146.141 	 26.9789 	 -15.0983
| 18> H 	 -147.319 	 28.1922 	 -15.2632
| 19> C 	 -146.929 	 27.1642 	 -17.1131
| 20> H 	 -147.869 	 26.8136 	 -16.9355
| 21> H 	 -147.193 	 27.9513 	 -17.8186
| 22> H 	 -146.221 	 26.5115 	 -17.6434
| 23> S 	 -145.702 	 30.8847 	 -9.91553
| 24> C 	 -146.836 	 32.0865 	 -9.38412
| 25> C 	 -147.557 	 32.646 	 -10.4277
| 26> C 	 -147.016 	 32.1899 	 -11.6707
| 27> C 	 -145.904 	 31.3679 	 -11.5943
| 28> H 	 -148.296 	 33.3638 	 -10.1566
| 29> C 	 -147.593 	 32.7521 	 -12.9562
| 30> H 	 -148.264 	 33.4788 	 -12.5511
| 31> H 	 -148.163 	 31.995 	 -13.4417
| 32> C 	 -146.648 	 33.4238 	 -13.9172
| 33> H 	 -147.141 	 33.4072 	 -14.8929
| 34> H 	 -145.916 	 32.7342 	 -14.2535
| 35> C 	 -146.031 	 34.7563 	 -13.4861
| 36> H 	 -145.128 	 35.0038 	 -14.1117
| 37> H 	 -145.638 	 34.6865 	 -12.5058
| 38> H 	 -146.749 	 35.532 	 -13.6174
| 39> H 	 -142.718 	 29.0204 	 -14.6568
| 40> H 	 -146.919 	 32.4566 	 -8.43027
| 41> *
| 42>
| 43>                          ****END OF INPUT****

CARTESIAN COORDINATES (ANGSTROEM)
---------------------------------
  S    -143.508000   30.121000  -12.503200
  C    -143.605000   29.422600  -14.113400
  C    -144.909000   29.430700  -14.639300
  C    -145.834000   30.092400  -13.819900
  C    -145.178000   30.606500  -12.677900
  H    -146.933000   30.130800  -13.955200
  C    -145.356000   28.782500  -15.952100
  H    -144.571000   28.258000  -16.523000
  H    -145.798000   29.574800  -16.595900
  C    -146.442000   27.722700  -15.764200
  H    -146.141000   26.978900  -15.098300
  H    -147.319000   28.192200  -15.263200
  C    -146.929000   27.164200  -17.113100
  H    -147.869000   26.813600  -16.935500
  H    -147.193000   27.951300  -17.818600
  H    -146.221000   26.511500  -17.643400
  S    -145.702000   30.884700   -9.915530
  C    -146.836000   32.086500   -9.384120
  C    -147.557000   32.646000  -10.427700
  C    -147.016000   32.189900  -11.670700
  C    -145.904000   31.367900  -11.594300
  H    -148.296000   33.363800  -10.156600
  C    -147.593000   32.752100  -12.956200
  H    -148.264000   33.478800  -12.551100
  H    -148.163000   31.995000  -13.441700
  C    -146.648000   33.423800  -13.917200
  H    -147.141000   33.407200  -14.892900
  H    -145.916000   32.734200  -14.253500
  C    -146.031000   34.756300  -13.486100
  H    -145.128000   35.003800  -14.111700
  H    -145.638000   34.686500  -12.505800
  H    -146.749000   35.532000  -13.617400
  H    -142.718000   29.020400  -14.656800
  H    -146.919000   32.456600   -8.430270

 Total Charge           Charge          ....    0
 Multiplicity           Mult            ....    1
 Number of Electrons    NEL             ....  134
 Basis Dimension        Dim             ....  322

ORBITAL ENERGIES
----------------

  NO   OCC          E(Eh)            E(eV)
   0   2.0000     -88.975789     -2421.1543
   1   2.0000     -88.962325     -2420.7879
   2   2.0000     -10.337655      -281.3019
   3   2.0000     -10.325764      -280.9783
   4   2.0000     -10.319672      -280.8126
   5   2.0000     -10.308612      -280.5116
   6   2.0000     -10.304490      -280.3994
   7   2.0000     -10.299939      -280.2756
   8   2.0000     -10.299266      -280.2573
   9   2.0000     -10.295689      -280.1599
  10   2.0000     -10.291906      -280.0570
  11   2.0000     -10.284587      -279.8578
  12   2.0000     -10.279690      -279.7246
  13   2.0000     -10.273810      -279.5646
  14   2.0000     -10.271662      -279.5061
  15   2.0000     -10.270544      -279.4757
  16   2.0000      -8.089922      -220.1380
  17   2.0000      -8.077325      -219.7952
  18   2.0000      -6.048270      -164.5818
  19   2.0000      -6.044673      -164.4839
  20   2.0000      -6.040749      -164.3771
  21   2.0000      -6.035863      -164.2442
  22   2.0000      -6.031823      -164.1343
  23   2.0000      -6.028035      -164.0312
  24   2.0000      -1.004267       -27.3275
  25   2.0000      -0.984426       -26.7876
  26   2.0000      -0.914065       -24.8730
  27   2.0000      -0.909187       -24.7402
  28   2.0000      -0.864224       -23.5167
  29   2.0000      -0.854670       -23.2567
  30   2.0000      -0.845104       -22.9964
  31   2.0000      -0.811768       -22.0893
  32   2.0000      -0.784357       -21.3434
  33   2.0000      -0.773950       -21.0602
  34   2.0000      -0.712387       -19.3850
  35   2.0000      -0.702253       -19.1093
  36   2.0000      -0.687331       -18.7032
  37   2.0000      -0.664062       -18.0700
  38   2.0000      -0.637362       -17.3435
  39   2.0000      -0.625529       -17.0215
  40   2.0000      -0.584919       -15.9164
  41   2.0000      -0.570464       -15.5231
  42   2.0000      -0.568991       -15.4830
  43   2.0000      -0.556868       -15.1531
  44   2.0000      -0.540908       -14.7189
  45   2.0000      -0.526442       -14.3252
  46   2.0000      -0.512657       -13.9501
  47   2.0000      -0.510048       -13.8791
  48   2.0000      -0.503796       -13.7090
  49   2.0000      -0.493703       -13.4343
  50   2.0000      -0.483718       -13.1626
  51   2.0000      -0.479855       -13.0575
  52   2.0000      -0.473535       -12.8855
  53   2.0000      -0.471013       -12.8169
  54   2.0000      -0.461468       -12.5572
  55   2.0000      -0.460220       -12.5232
  56   2.0000      -0.440687       -11.9917
  57   2.0000      -0.437706       -11.9106
  58   2.0000      -0.431670       -11.7463
  59   2.0000      -0.426301       -11.6002
  60   2.0000      -0.423107       -11.5133
  61   2.0000      -0.419220       -11.4076
  62   2.0000      -0.396713       -10.7951
  63   2.0000      -0.345163        -9.3924
  64   2.0000      -0.337049        -9.1716
  65   2.0000      -0.328112        -8.9284
  66   2.0000      -0.285629        -7.7724
  67   0.0000       0.020992         0.5712
  68   0.0000       0.074654         2.0314
  69   0.0000       0.101504         2.7621
  70   0.0000       0.117189         3.1889
  71   0.0000       0.133957         3.6452

MULLIKEN ATOMIC CHARGES
-----------------------
   0 S :    0.128687
   1 C :   -0.142488
   2 C :   -0.050460
   3 C :   -0.013458
   4 C :   -0.154857
   5 H :    0.036458
   6 C :    0.058763
   7 H :    0.022279
   8 H :    0.033846
   9 C :   -0.103579
  10 H :    0.025054
  11 H :    0.021744
  12 C :    0.007325
  13 H :    0.007761
  14 H :    0.010124
  15 H :    0.044965
  16 S :    0.092507
  17 C :   -0.063763
  18 C :   -0.029890
  19 C :   -0.098406
  20 C :   -0.102784
  21 H :    0.017273
  22 C :    0.100583
  23 H :   -0.002225
  24 H :    0.020808
  25 C :   -0.051050
  26 H :    0.001197
  27 H :    0.014893
  28 C :   -0.012568
  29 H :    0.033194
  30 H :    0.033949
  31 H :    0.028638
  32 H :    0.061317
  33 H :    0.024162
Sum of atomic charges:   -0.0000000

LOEWDIN ATOMIC CHARGES
----------------------
   0 S :    0.416678
   1 C :   -0.209322
   2 C :   -0.062090
   3 C :   -0.063553
   4 C :   -0.186344
   5 H :    0.039992
   6 C :   -0.033046
   7 H :    0.029067
   8 H :    0.033408
   9 C :   -0.034620
  10 H :    0.017341
  11 H :    0.023291
  12 C :   -0.060308
  13 H :    0.016840
  14 H :    0.026984
  15 H :    0.029237
  16 S :    0.398600
  17 C :   -0.171171
  18 C :   -0.069433
  19 C :   -0.060980
  20 C :   -0.200040
  21 H :    0.032656
  22 C :   -0.028169
  23 H :    0.025066
  24 H :    0.024887
  25 C :   -0.051774
  26 H :    0.026406
  27 H :    0.020308
  28 C :   -0.056194
  29 H :    0.035506
  30 H :    0.023667
  31 H :    0.020335
  32 H :    0.035211
  33 H :    0.011563

  Mayer bond orders larger than 0.100000
B(  0-S ,  1-C ) :   1.1327 B(  0-S ,  4-C ) :   1.1824 B(  1-C ,  2-C ) :   1.5949
B(  1-C ,  4-C ) :   0.1039 B(  1-C , 32-H ) :   0.9626 B(  2-C ,  3-C ) :   1.2604
B(  2-C ,  6-C ) :   1.0220 B(  3-C ,  4-C ) :   1.5299 B(  3-C ,  5-H ) :   0.9841
B(  4-C , 20-C ) :   1.0271 B(  6-C ,  7-H ) :   0.9488 B(  6-C ,  8-H ) :   0.9380
B(  6-C ,  9-C ) :   1.0629 B(  9-C , 10-H ) :   0.9565 B(  9-C , 11-H ) :   0.9534
B(  9-C , 12-C ) :   1.0856 B( 12-C , 13-H ) :   0.9681 B( 12-C , 14-H ) :   0.9662
B( 12-C , 15-H ) :   0.9754 B( 16-S , 17-C ) :   1.1681 B( 16-S , 20-C ) :   1.1272
B( 17-C , 18-C ) :   1.6095 B( 17-C , 33-H ) :   0.9713 B( 18-C , 19-C ) :   1.2336
B( 18-C , 21-H ) :   0.9979 B( 19-C , 20-C ) :   1.6038 B( 19-C , 22-C ) :   1.0271
B( 22-C , 23-H ) :   0.9343 B( 22-C , 24-H ) :   0.9212 B( 22-C , 25-C ) :   1.0931
B( 25-C , 26-H ) :   0.9404 B( 25-C , 27-H ) :   0.9422 B( 25-C , 28-C ) :   1.0678
B( 28-C , 29-H ) :   0.9729 B( 28-C , 30-H ) :   0.9766 B( 28-C , 31-H ) :   0.9770

Dispersion correction           -0.014827442
FINAL SINGLE POINT ENERGY     -1339.858394035327

DIPOLE MOMENT
-------------
                                X             Y             Z
Electronic contribution:     12.01946      -1.76550      24.15750
Nuclear contribution   :    -12.42232       1.76395     -24.65002
                        -----------------------------------------
Total Dipole Moment    :     -0.40286      -0.00155      -0.49252
                        -----------------------------------------
Magnitude (a.u.)       :      0.63630
Magnitude (Debye)      :      1.61734

Rotational constants in cm-1:     0.019080     0.008452     0.007433
Rotational constants in MHz :   571.993278   253.397202   222.837240

                             ****ORCA TERMINATED NORMALLY****
TOTAL RUN TIME: 0 days 0 hours 0 minutes 22 seconds 349 msec
