                         Program Version 4.2.1 -  RELEASE  -
|  1> ! wB97X-D3 SP def2-SVP
|  2> %pal
|  3> nprocs 24
|  4> end
|  5>
|  6> * xyz 0 1
|  7> S 	 -53.1434 	 17.9121 	 23.6897
|  8> C 	 -54.1732 	 18.2569 	 25.1229
|  9> C 	 -55.514 	 18.2507 	 24.8289
| 10> C 	 -55.691 	 18.0623 	 23.4641
| 11> C 	 -54.5447 	 17.6452 	 22.7282
| 12> H 	 -56.6315 	 18.301 	 23.0153
| 13> C 	 -56.5286 	 18.6316 	 25.782
| 14> H 	 -57.4011 	 18.8578 	 25.1833
| 15> H 	 -56.1692 	 19.477 	 26.2927
| 16> C 	 -56.8972 	 17.6321 	 26.8618
| 17> H 	 -57.3419 	 16.747 	 26.413
| 18> H 	 -56.05 	 17.2503 	 27.4409
| 19> C 	 -57.8097 	 18.1034 	 27.9686
| 20> H 	 -57.5009 	 17.6015 	 28.8703
| 21> H 	 -57.6827 	 19.2075 	 28.0761
| 22> H 	 -58.8871 	 17.946 	 27.8034
| 23> S 	 -53.757 	 18.3552 	 20.1079
| 24> C 	 -54.0726 	 17.1636 	 18.8454
| 25> C 	 -54.8752 	 16.146 	 19.3481
| 26> C 	 -55.0119 	 16.1608 	 20.7498
| 27> C 	 -54.474 	 17.296 	 21.305
| 28> H 	 -55.2087 	 15.3959 	 18.7269
| 29> C 	 -55.6635 	 15.0243 	 21.5467
| 30> H 	 -56.5827 	 14.8261 	 20.9044
| 31> H 	 -55.9951 	 15.276 	 22.5713
| 32> C 	 -54.7804 	 13.8184 	 21.7027
| 33> H 	 -54.3324 	 13.5058 	 20.7347
| 34> H 	 -55.5176 	 12.9765 	 21.9119
| 35> C 	 -53.6674 	 14.1066 	 22.7441
| 36> H 	 -53.1897 	 13.1434 	 23.0609
| 37> H 	 -53.937 	 14.6148 	 23.6677
| 38> H 	 -52.8448 	 14.7133 	 22.2939
| 39> H 	 -53.921 	 18.2841 	 26.1314
| 40> H 	 -53.8529 	 17.3562 	 17.7801
| 41> *
| 42>
| 43>                          ****END OF INPUT****

CARTESIAN COORDINATES (ANGSTROEM)
---------------------------------
  S    -53.143400   17.912100   23.689700
  C    -54.173200   18.256900   25.122900
  C    -55.514000   18.250700   24.828900
  C    -55.691000   18.062300   23.464100
  C    -54.544700   17.645200   22.728200
  H    -56.631500   18.301000   23.015300
  C    -56.528600   18.631600   25.782000
  H    -57.401100   18.857800   25.183300
  H    -56.169200   19.477000   26.292700
  C    -56.897200   17.632100   26.861800
  H    -57.341900   16.747000   26.413000
  H    -56.050000   17.250300   27.440900
  C    -57.809700   18.103400   27.968600
  H    -57.500900   17.601500   28.870300
  H    -57.682700   19.207500   28.076100
  H    -58.887100   17.946000   27.803400
  S    -53.757000   18.355200   20.107900
  C    -54.072600   17.163600   18.845400
  C    -54.875200   16.146000   19.348100
  C    -55.011900   16.160800   20.749800
  C    -54.474000   17.296000   21.305000
  H    -55.208700   15.395900   18.726900
  C    -55.663500   15.024300   21.546700
  H    -56.582700   14.826100   20.904400
  H    -55.995100   15.276000   22.571300
  C    -54.780400   13.818400   21.702700
  H    -54.332400   13.505800   20.734700
  H    -55.517600   12.976500   21.911900
  C    -53.667400   14.106600   22.744100
  H    -53.189700   13.143400   23.060900
  H    -53.937000   14.614800   23.667700
  H    -52.844800   14.713300   22.293900
  H    -53.921000   18.284100   26.131400
  H    -53.852900   17.356200   17.780100

 Total Charge           Charge          ....    0
 Multiplicity           Mult            ....    1
 Number of Electrons    NEL             ....  134
 Basis Dimension        Dim             ....  322

ORBITAL ENERGIES
----------------

  NO   OCC          E(Eh)            E(eV)
   0   2.0000     -88.970795     -2421.0184
   1   2.0000     -88.965367     -2420.8707
   2   2.0000     -10.329722      -281.0860
   3   2.0000     -10.321970      -280.8751
   4   2.0000     -10.321674      -280.8670
   5   2.0000     -10.306701      -280.4596
   6   2.0000     -10.297799      -280.2174
   7   2.0000     -10.292625      -280.0766
   8   2.0000     -10.290704      -280.0243
   9   2.0000     -10.290336      -280.0143
  10   2.0000     -10.289123      -279.9813
  11   2.0000     -10.288864      -279.9742
  12   2.0000     -10.284348      -279.8513
  13   2.0000     -10.284062      -279.8436
  14   2.0000     -10.279753      -279.7263
  15   2.0000     -10.277989      -279.6783
  16   2.0000      -8.084598      -219.9931
  17   2.0000      -8.079882      -219.8648
  18   2.0000      -6.043066      -164.4402
  19   2.0000      -6.039171      -164.3342
  20   2.0000      -6.038403      -164.3133
  21   2.0000      -6.035526      -164.2350
  22   2.0000      -6.034422      -164.2050
  23   2.0000      -6.030645      -164.1022
  24   2.0000      -1.006303       -27.3829
  25   2.0000      -0.986370       -26.8405
  26   2.0000      -0.924657       -25.1612
  27   2.0000      -0.906837       -24.6763
  28   2.0000      -0.872939       -23.7539
  29   2.0000      -0.849004       -23.1026
  30   2.0000      -0.843743       -22.9594
  31   2.0000      -0.810592       -22.0573
  32   2.0000      -0.786333       -21.3972
  33   2.0000      -0.771766       -21.0008
  34   2.0000      -0.706602       -19.2276
  35   2.0000      -0.701100       -19.0779
  36   2.0000      -0.690073       -18.7779
  37   2.0000      -0.661818       -18.0090
  38   2.0000      -0.635958       -17.3053
  39   2.0000      -0.622759       -16.9461
  40   2.0000      -0.598964       -16.2986
  41   2.0000      -0.579276       -15.7629
  42   2.0000      -0.568223       -15.4621
  43   2.0000      -0.548653       -14.9296
  44   2.0000      -0.536211       -14.5911
  45   2.0000      -0.528091       -14.3701
  46   2.0000      -0.517591       -14.0844
  47   2.0000      -0.515825       -14.0363
  48   2.0000      -0.503381       -13.6977
  49   2.0000      -0.493136       -13.4189
  50   2.0000      -0.491926       -13.3860
  51   2.0000      -0.474492       -12.9116
  52   2.0000      -0.466634       -12.6978
  53   2.0000      -0.463890       -12.6231
  54   2.0000      -0.459938       -12.5156
  55   2.0000      -0.448370       -12.2008
  56   2.0000      -0.442538       -12.0421
  57   2.0000      -0.438748       -11.9389
  58   2.0000      -0.430948       -11.7267
  59   2.0000      -0.426303       -11.6003
  60   2.0000      -0.421953       -11.4819
  61   2.0000      -0.416681       -11.3385
  62   2.0000      -0.404851       -11.0166
  63   2.0000      -0.335657        -9.1337
  64   2.0000      -0.333023        -9.0620
  65   2.0000      -0.326555        -8.8860
  66   2.0000      -0.295210        -8.0331
  67   0.0000       0.031043         0.8447
  68   0.0000       0.058775         1.5993
  69   0.0000       0.109941         2.9916
  70   0.0000       0.117611         3.2004
  71   0.0000       0.130844         3.5605

MULLIKEN ATOMIC CHARGES
-----------------------
   0 S :    0.124818
   1 C :   -0.087564
   2 C :   -0.103693
   3 C :    0.050231
   4 C :   -0.193478
   5 H :    0.000663
   6 C :    0.125642
   7 H :    0.013829
   8 H :    0.016491
   9 C :   -0.094691
  10 H :    0.023141
  11 H :    0.022179
  12 C :   -0.046436
  13 H :    0.032765
  14 H :    0.025403
  15 H :    0.039581
  16 S :    0.111965
  17 C :   -0.111805
  18 C :   -0.002821
  19 C :   -0.025747
  20 C :   -0.161564
  21 H :   -0.011341
  22 C :    0.046813
  23 H :    0.033948
  24 H :    0.036215
  25 C :   -0.065770
  26 H :    0.027132
  27 H :    0.037582
  28 C :   -0.068681
  29 H :    0.035141
  30 H :    0.037834
  31 H :    0.046555
  32 H :    0.013192
  33 H :    0.072471
Sum of atomic charges:   -0.0000000

LOEWDIN ATOMIC CHARGES
----------------------
   0 S :    0.417670
   1 C :   -0.177465
   2 C :   -0.067143
   3 C :   -0.055473
   4 C :   -0.204205
   5 H :    0.024627
   6 C :   -0.028030
   7 H :    0.033531
   8 H :    0.029554
   9 C :   -0.043875
  10 H :    0.023839
  11 H :    0.024617
  12 C :   -0.066420
  13 H :    0.026568
  14 H :    0.027211
  15 H :    0.025833
  16 S :    0.396607
  17 C :   -0.180487
  18 C :   -0.061109
  19 C :   -0.054689
  20 C :   -0.210630
  21 H :    0.017773
  22 C :   -0.035694
  23 H :    0.035876
  24 H :    0.032172
  25 C :   -0.047731
  26 H :    0.024499
  27 H :    0.030598
  28 C :   -0.072838
  29 H :    0.029848
  30 H :    0.023442
  31 H :    0.032917
  32 H :    0.012970
  33 H :    0.035638

  Mayer bond orders larger than 0.100000
B(  0-S ,  1-C ) :   1.1406 B(  0-S ,  4-C ) :   1.1746 B(  1-C ,  2-C ) :   1.5875
B(  1-C ,  4-C ) :   0.1147 B(  1-C , 32-H ) :   0.9656 B(  2-C ,  3-C ) :   1.2922
B(  2-C ,  6-C ) :   1.0310 B(  3-C ,  4-C ) :   1.5219 B(  3-C ,  5-H ) :   0.9917
B(  4-C , 20-C ) :   1.0227 B(  6-C ,  7-H ) :   0.9299 B(  6-C ,  8-H ) :   0.9234
B(  6-C ,  9-C ) :   1.0759 B(  9-C , 10-H ) :   0.9501 B(  9-C , 11-H ) :   0.9642
B(  9-C , 12-C ) :   1.0754 B( 12-C , 13-H ) :   0.9794 B( 12-C , 14-H ) :   0.9729
B( 12-C , 15-H ) :   0.9759 B( 16-S , 17-C ) :   1.1524 B( 16-S , 20-C ) :   1.1443
B( 17-C , 18-C ) :   1.5950 B( 17-C , 33-H ) :   0.9650 B( 18-C , 19-C ) :   1.2554
B( 18-C , 21-H ) :   0.9975 B( 19-C , 20-C ) :   1.5991 B( 19-C , 22-C ) :   1.0285
B( 22-C , 23-H ) :   0.9327 B( 22-C , 24-H ) :   0.9344 B( 22-C , 25-C ) :   1.0775
B( 25-C , 26-H ) :   0.9551 B( 25-C , 27-H ) :   0.9560 B( 25-C , 28-C ) :   1.0552
B( 28-C , 29-H ) :   0.9740 B( 28-C , 30-H ) :   0.9774 B( 28-C , 31-H ) :   0.9732

Dispersion correction           -0.015183715
FINAL SINGLE POINT ENERGY     -1339.865449094390

DIPOLE MOMENT
-------------
                                X             Y             Z
Electronic contribution:     14.60564      12.48102     -18.48603
Nuclear contribution   :    -15.13465     -12.73359      18.69455
                        -----------------------------------------
Total Dipole Moment    :     -0.52902      -0.25257       0.20852
                        -----------------------------------------
Magnitude (a.u.)       :      0.62220
Magnitude (Debye)      :      1.58150

Rotational constants in cm-1:     0.022461     0.007849     0.007016
Rotational constants in MHz :   673.376503   235.309662   210.325622

                             ****ORCA TERMINATED NORMALLY****
TOTAL RUN TIME: 0 days 0 hours 0 minutes 22 seconds 249 msec
