                         Program Version 4.2.1 -  RELEASE  -
|  1> ! wB97X-D3 SP def2-SVP
|  2> %pal
|  3> nprocs 24
|  4> end
|  5>
|  6> * xyz 0 1
|  7> S 	 34.897 	 0.854855 	 -113.551
|  8> C 	 34.5302 	 1.85745 	 -114.913
|  9> C 	 33.248 	 1.66786 	 -115.365
| 10> C 	 32.651 	 0.581718 	 -114.738
| 11> C 	 33.4171 	 -0.0642775 	 -113.812
| 12> H 	 31.6419 	 0.214185 	 -114.901
| 13> C 	 32.4149 	 2.48998 	 -116.385
| 14> H 	 31.834 	 1.76856 	 -117.005
| 15> H 	 32.9296 	 3.23532 	 -116.916
| 16> C 	 31.2126 	 3.20064 	 -115.705
| 17> H 	 30.5574 	 2.38222 	 -115.347
| 18> H 	 31.4999 	 3.82861 	 -114.865
| 19> C 	 30.3307 	 3.90305 	 -116.749
| 20> H 	 29.5444 	 4.40733 	 -116.208
| 21> H 	 30.7576 	 4.66866 	 -117.428
| 22> H 	 29.7406 	 3.31708 	 -117.368
| 23> S 	 32.9708 	 -2.78342 	 -113.815
| 24> C 	 32.0572 	 -3.44831 	 -112.441
| 25> C 	 32.2716 	 -2.68312 	 -111.347
| 26> C 	 32.7878 	 -1.38536 	 -111.673
| 27> C 	 33.0502 	 -1.23846 	 -113.064
| 28> H 	 32.0725 	 -3.0393 	 -110.343
| 29> C 	 32.7803 	 -0.277942 	 -110.617
| 30> H 	 33.6205 	 0.325122 	 -110.694
| 31> H 	 32.9059 	 -0.794329 	 -109.618
| 32> C 	 31.4149 	 0.478789 	 -110.561
| 33> H 	 31.2506 	 0.958437 	 -111.553
| 34> H 	 31.5905 	 1.25279 	 -109.849
| 35> C 	 30.1513 	 -0.228161 	 -110.151
| 36> H 	 30.345 	 -0.372954 	 -109.11
| 37> H 	 30.1235 	 -1.21291 	 -110.617
| 38> H 	 29.2335 	 0.36854 	 -110.273
| 39> H 	 35.0285 	 2.73471 	 -115.267
| 40> H 	 31.706 	 -4.46975 	 -112.319
| 41> *
| 42>
| 43>                          ****END OF INPUT****

CARTESIAN COORDINATES (ANGSTROEM)
---------------------------------
  S     34.897000    0.854855  -113.551000
  C     34.530200    1.857450  -114.913000
  C     33.248000    1.667860  -115.365000
  C     32.651000    0.581718  -114.738000
  C     33.417100   -0.064278  -113.812000
  H     31.641900    0.214185  -114.901000
  C     32.414900    2.489980  -116.385000
  H     31.834000    1.768560  -117.005000
  H     32.929600    3.235320  -116.916000
  C     31.212600    3.200640  -115.705000
  H     30.557400    2.382220  -115.347000
  H     31.499900    3.828610  -114.865000
  C     30.330700    3.903050  -116.749000
  H     29.544400    4.407330  -116.208000
  H     30.757600    4.668660  -117.428000
  H     29.740600    3.317080  -117.368000
  S     32.970800   -2.783420  -113.815000
  C     32.057200   -3.448310  -112.441000
  C     32.271600   -2.683120  -111.347000
  C     32.787800   -1.385360  -111.673000
  C     33.050200   -1.238460  -113.064000
  H     32.072500   -3.039300  -110.343000
  C     32.780300   -0.277942  -110.617000
  H     33.620500    0.325122  -110.694000
  H     32.905900   -0.794329  -109.618000
  C     31.414900    0.478789  -110.561000
  H     31.250600    0.958437  -111.553000
  H     31.590500    1.252790  -109.849000
  C     30.151300   -0.228161  -110.151000
  H     30.345000   -0.372954  -109.110000
  H     30.123500   -1.212910  -110.617000
  H     29.233500    0.368540  -110.273000
  H     35.028500    2.734710  -115.267000
  H     31.706000   -4.469750  -112.319000

 Total Charge           Charge          ....    0
 Multiplicity           Mult            ....    1
 Number of Electrons    NEL             ....  134
 Basis Dimension        Dim             ....  322

ORBITAL ENERGIES
----------------

  NO   OCC          E(Eh)            E(eV)
   0   2.0000     -88.968261     -2420.9495
   1   2.0000     -88.964974     -2420.8600
   2   2.0000     -10.325002      -280.9576
   3   2.0000     -10.324782      -280.9516
   4   2.0000     -10.314787      -280.6796
   5   2.0000     -10.310229      -280.5556
   6   2.0000     -10.303703      -280.3780
   7   2.0000     -10.297056      -280.1972
   8   2.0000     -10.295036      -280.1422
   9   2.0000     -10.292151      -280.0637
  10   2.0000     -10.292052      -280.0610
  11   2.0000     -10.291666      -280.0505
  12   2.0000     -10.287661      -279.9415
  13   2.0000     -10.280581      -279.7488
  14   2.0000     -10.274540      -279.5844
  15   2.0000     -10.271814      -279.5103
  16   2.0000      -8.082771      -219.9434
  17   2.0000      -8.079731      -219.8607
  18   2.0000      -6.041225      -164.3901
  19   2.0000      -6.038326      -164.3112
  20   2.0000      -6.037451      -164.2874
  21   2.0000      -6.034425      -164.2051
  22   2.0000      -6.033465      -164.1789
  23   2.0000      -6.030185      -164.0897
  24   2.0000      -1.010630       -27.5006
  25   2.0000      -0.988651       -26.9026
  26   2.0000      -0.911831       -24.8122
  27   2.0000      -0.906059       -24.6551
  28   2.0000      -0.875150       -23.8140
  29   2.0000      -0.852235       -23.1905
  30   2.0000      -0.844795       -22.9880
  31   2.0000      -0.818483       -22.2721
  32   2.0000      -0.786615       -21.4049
  33   2.0000      -0.772437       -21.0191
  34   2.0000      -0.711028       -19.3481
  35   2.0000      -0.697808       -18.9883
  36   2.0000      -0.684904       -18.6372
  37   2.0000      -0.660814       -17.9817
  38   2.0000      -0.639905       -17.4127
  39   2.0000      -0.624917       -17.0049
  40   2.0000      -0.592640       -16.1266
  41   2.0000      -0.574564       -15.6347
  42   2.0000      -0.567163       -15.4333
  43   2.0000      -0.553139       -15.0517
  44   2.0000      -0.549494       -14.9525
  45   2.0000      -0.519125       -14.1261
  46   2.0000      -0.513689       -13.9782
  47   2.0000      -0.510109       -13.8808
  48   2.0000      -0.503187       -13.6924
  49   2.0000      -0.498756       -13.5718
  50   2.0000      -0.481904       -13.1133
  51   2.0000      -0.480800       -13.0832
  52   2.0000      -0.475458       -12.9379
  53   2.0000      -0.470603       -12.8058
  54   2.0000      -0.460895       -12.5416
  55   2.0000      -0.458186       -12.4679
  56   2.0000      -0.447058       -12.1651
  57   2.0000      -0.436013       -11.8645
  58   2.0000      -0.431931       -11.7534
  59   2.0000      -0.425951       -11.5907
  60   2.0000      -0.420339       -11.4380
  61   2.0000      -0.413176       -11.2431
  62   2.0000      -0.406083       -11.0501
  63   2.0000      -0.337416        -9.1815
  64   2.0000      -0.334637        -9.1059
  65   2.0000      -0.323916        -8.8142
  66   2.0000      -0.297309        -8.0902
  67   0.0000       0.030200         0.8218
  68   0.0000       0.061931         1.6852
  69   0.0000       0.098702         2.6858
  70   0.0000       0.115340         3.1386
  71   0.0000       0.130829         3.5600

MULLIKEN ATOMIC CHARGES
-----------------------
   0 S :    0.122662
   1 C :   -0.101922
   2 C :   -0.061922
   3 C :    0.020757
   4 C :   -0.167202
   5 H :    0.011390
   6 C :    0.095652
   7 H :    0.031506
   8 H :    0.011719
   9 C :   -0.106929
  10 H :    0.031913
  11 H :    0.042146
  12 C :   -0.027716
  13 H :    0.019732
  14 H :    0.032463
  15 H :    0.009752
  16 S :    0.120610
  17 C :   -0.094790
  18 C :   -0.039046
  19 C :   -0.049578
  20 C :   -0.179705
  21 H :    0.023331
  22 C :    0.102265
  23 H :    0.005053
  24 H :    0.015725
  25 C :   -0.074913
  26 H :    0.030762
  27 H :    0.020023
  28 C :   -0.033048
  29 H :    0.012270
  30 H :    0.039030
  31 H :    0.048646
  32 H :    0.032269
  33 H :    0.057098
Sum of atomic charges:    0.0000000

LOEWDIN ATOMIC CHARGES
----------------------
   0 S :    0.412083
   1 C :   -0.200638
   2 C :   -0.066878
   3 C :   -0.055008
   4 C :   -0.196517
   5 H :    0.032050
   6 C :   -0.021568
   7 H :    0.038840
   8 H :    0.017985
   9 C :   -0.035581
  10 H :    0.027841
  11 H :    0.023116
  12 C :   -0.071063
  13 H :    0.029453
  14 H :    0.026722
  15 H :    0.016101
  16 S :    0.411502
  17 C :   -0.181930
  18 C :   -0.070388
  19 C :   -0.054688
  20 C :   -0.214098
  21 H :    0.032070
  22 C :   -0.025466
  23 H :    0.015679
  24 H :    0.033362
  25 C :   -0.037869
  26 H :    0.023638
  27 H :    0.017937
  28 C :   -0.065144
  29 H :    0.020926
  30 H :    0.025943
  31 H :    0.034005
  32 H :    0.026333
  33 H :    0.031251

  Mayer bond orders larger than 0.100000
B(  0-S ,  1-C ) :   1.1453 B(  0-S ,  4-C ) :   1.1336 B(  1-C ,  2-C ) :   1.6232
B(  1-C , 32-H ) :   0.9616 B(  2-C ,  3-C ) :   1.2399 B(  2-C ,  6-C ) :   1.0264
B(  3-C ,  4-C ) :   1.5872 B(  3-C ,  5-H ) :   0.9927 B(  4-C , 20-C ) :   1.0611
B(  6-C ,  7-H ) :   0.9424 B(  6-C ,  8-H ) :   0.9505 B(  6-C ,  9-C ) :   1.0510
B(  9-C , 10-H ) :   0.9537 B(  9-C , 11-H ) :   0.9609 B(  9-C , 12-C ) :   1.0811
B( 12-C , 13-H ) :   0.9685 B( 12-C , 14-H ) :   0.9754 B( 12-C , 15-H ) :   0.9714
B( 16-S , 17-C ) :   1.1427 B( 16-S , 20-C ) :   1.1574 B( 17-C , 18-C ) :   1.6147
B( 17-C , 20-C ) :   0.1004 B( 17-C , 33-H ) :   0.9636 B( 18-C , 19-C ) :   1.2519
B( 18-C , 21-H ) :   0.9836 B( 19-C , 20-C ) :   1.5516 B( 19-C , 22-C ) :   1.0499
B( 22-C , 23-H ) :   0.9275 B( 22-C , 24-H ) :   0.9340 B( 22-C , 25-C ) :   1.0650
B( 25-C , 26-H ) :   0.9561 B( 25-C , 27-H ) :   0.9596 B( 25-C , 28-C ) :   1.0725
B( 28-C , 29-H ) :   0.9746 B( 28-C , 30-H ) :   0.9708 B( 28-C , 31-H ) :   0.9713

Dispersion correction           -0.014776580
FINAL SINGLE POINT ENERGY     -1339.854112586996

DIPOLE MOMENT
-------------
                                X             Y             Z
Electronic contribution:     19.79938     -16.97257      -2.28217
Nuclear contribution   :    -20.30270      17.32949       2.49430
                        -----------------------------------------
Total Dipole Moment    :     -0.50332       0.35692       0.21213
                        -----------------------------------------
Magnitude (a.u.)       :      0.65247
Magnitude (Debye)      :      1.65846

Rotational constants in cm-1:     0.018462     0.008327     0.007486
Rotational constants in MHz :   553.485344   249.633591   224.413592

                             ****ORCA TERMINATED NORMALLY****
TOTAL RUN TIME: 0 days 0 hours 0 minutes 23 seconds 77 msec
