                         Program Version 4.2.1 -  RELEASE  -
|  1> ! wB97X-D3 SP def2-SVP
|  2> %pal
|  3> nprocs 24
|  4> end
|  5>
|  6> * xyz 0 1
|  7> S 	 -115.112 	 62.8153 	 -78.6061
|  8> C 	 -116.422 	 63.9935 	 -78.474
|  9> C 	 -116.888 	 64.2371 	 -77.1746
| 10> C 	 -116.25 	 63.3453 	 -76.2543
| 11> C 	 -115.237 	 62.5646 	 -76.8364
| 12> H 	 -116.495 	 63.2465 	 -75.2439
| 13> C 	 -118.058 	 65.1957 	 -76.7463
| 14> H 	 -117.968 	 65.9601 	 -77.5037
| 15> H 	 -117.815 	 65.682 	 -75.7801
| 16> C 	 -119.452 	 64.5972 	 -76.8078
| 17> H 	 -120.291 	 65.3216 	 -76.824
| 18> H 	 -119.557 	 64.1456 	 -77.7796
| 19> C 	 -119.677 	 63.5428 	 -75.6947
| 20> H 	 -118.809 	 62.8619 	 -75.6695
| 21> H 	 -119.67 	 63.885 	 -74.6255
| 22> H 	 -120.642 	 63.0136 	 -75.7898
| 23> S 	 -112.577 	 61.8195 	 -76.3687
| 24> C 	 -112.328 	 60.5858 	 -75.1318
| 25> C 	 -113.522 	 60.1008 	 -74.6716
| 26> C 	 -114.697 	 60.708 	 -75.1981
| 27> C 	 -114.369 	 61.7091 	 -76.0839
| 28> H 	 -113.566 	 59.2816 	 -74.0143
| 29> C 	 -116.05 	 60.2857 	 -74.6617
| 30> H 	 -116.521 	 61.0958 	 -74.1422
| 31> H 	 -115.781 	 59.6779 	 -73.7943
| 32> C 	 -116.965 	 59.6474 	 -75.7711
| 33> H 	 -116.353 	 58.8844 	 -76.2259
| 34> H 	 -117.103 	 60.2823 	 -76.6355
| 35> C 	 -118.19 	 59.1183 	 -75.0897
| 36> H 	 -118.813 	 58.4519 	 -75.6906
| 37> H 	 -118.804 	 59.8286 	 -74.6418
| 38> H 	 -117.89 	 58.4894 	 -74.3284
| 39> H 	 -116.924 	 64.5939 	 -79.2086
| 40> H 	 -111.369 	 60.2227 	 -74.7683
| 41> *
| 42>
| 43>                          ****END OF INPUT****

CARTESIAN COORDINATES (ANGSTROEM)
---------------------------------
  S    -115.112000   62.815300  -78.606100
  C    -116.422000   63.993500  -78.474000
  C    -116.888000   64.237100  -77.174600
  C    -116.250000   63.345300  -76.254300
  C    -115.237000   62.564600  -76.836400
  H    -116.495000   63.246500  -75.243900
  C    -118.058000   65.195700  -76.746300
  H    -117.968000   65.960100  -77.503700
  H    -117.815000   65.682000  -75.780100
  C    -119.452000   64.597200  -76.807800
  H    -120.291000   65.321600  -76.824000
  H    -119.557000   64.145600  -77.779600
  C    -119.677000   63.542800  -75.694700
  H    -118.809000   62.861900  -75.669500
  H    -119.670000   63.885000  -74.625500
  H    -120.642000   63.013600  -75.789800
  S    -112.577000   61.819500  -76.368700
  C    -112.328000   60.585800  -75.131800
  C    -113.522000   60.100800  -74.671600
  C    -114.697000   60.708000  -75.198100
  C    -114.369000   61.709100  -76.083900
  H    -113.566000   59.281600  -74.014300
  C    -116.050000   60.285700  -74.661700
  H    -116.521000   61.095800  -74.142200
  H    -115.781000   59.677900  -73.794300
  C    -116.965000   59.647400  -75.771100
  H    -116.353000   58.884400  -76.225900
  H    -117.103000   60.282300  -76.635500
  C    -118.190000   59.118300  -75.089700
  H    -118.813000   58.451900  -75.690600
  H    -118.804000   59.828600  -74.641800
  H    -117.890000   58.489400  -74.328400
  H    -116.924000   64.593900  -79.208600
  H    -111.369000   60.222700  -74.768300

 Total Charge           Charge          ....    0
 Multiplicity           Mult            ....    1
 Number of Electrons    NEL             ....  134
 Basis Dimension        Dim             ....  322

ORBITAL ENERGIES
----------------

  NO   OCC          E(Eh)            E(eV)
   0   2.0000     -88.976650     -2421.1777
   1   2.0000     -88.965252     -2420.8676
   2   2.0000     -10.330991      -281.1206
   3   2.0000     -10.326486      -280.9980
   4   2.0000     -10.317074      -280.7419
   5   2.0000     -10.316191      -280.7178
   6   2.0000     -10.305314      -280.4218
   7   2.0000     -10.299859      -280.2734
   8   2.0000     -10.298723      -280.2425
   9   2.0000     -10.293272      -280.0942
  10   2.0000     -10.292024      -280.0602
  11   2.0000     -10.291744      -280.0526
  12   2.0000     -10.286210      -279.9020
  13   2.0000     -10.284013      -279.8422
  14   2.0000     -10.283988      -279.8415
  15   2.0000     -10.264186      -279.3027
  16   2.0000      -8.089642      -220.1303
  17   2.0000      -8.078863      -219.8370
  18   2.0000      -6.048266      -164.5817
  19   2.0000      -6.044511      -164.4795
  20   2.0000      -6.040268      -164.3641
  21   2.0000      -6.037507      -164.2889
  22   2.0000      -6.033672      -164.1846
  23   2.0000      -6.029412      -164.0686
  24   2.0000      -0.999571       -27.1997
  25   2.0000      -0.976054       -26.5598
  26   2.0000      -0.910132       -24.7659
  27   2.0000      -0.909264       -24.7423
  28   2.0000      -0.867518       -23.6064
  29   2.0000      -0.855519       -23.2799
  30   2.0000      -0.844540       -22.9811
  31   2.0000      -0.809699       -22.0330
  32   2.0000      -0.784943       -21.3594
  33   2.0000      -0.771744       -21.0002
  34   2.0000      -0.719027       -19.5657
  35   2.0000      -0.705066       -19.1858
  36   2.0000      -0.699218       -19.0267
  37   2.0000      -0.664572       -18.0839
  38   2.0000      -0.635782       -17.3005
  39   2.0000      -0.614990       -16.7347
  40   2.0000      -0.595700       -16.2098
  41   2.0000      -0.567479       -15.4419
  42   2.0000      -0.559726       -15.2309
  43   2.0000      -0.553405       -15.0589
  44   2.0000      -0.535789       -14.5796
  45   2.0000      -0.527527       -14.3547
  46   2.0000      -0.517808       -14.0903
  47   2.0000      -0.509105       -13.8535
  48   2.0000      -0.503161       -13.6917
  49   2.0000      -0.492872       -13.4117
  50   2.0000      -0.489194       -13.3116
  51   2.0000      -0.477168       -12.9844
  52   2.0000      -0.470006       -12.7895
  53   2.0000      -0.465265       -12.6605
  54   2.0000      -0.461382       -12.5548
  55   2.0000      -0.453934       -12.3522
  56   2.0000      -0.444519       -12.0960
  57   2.0000      -0.442015       -12.0278
  58   2.0000      -0.436773       -11.8852
  59   2.0000      -0.431641       -11.7455
  60   2.0000      -0.421356       -11.4657
  61   2.0000      -0.414323       -11.2743
  62   2.0000      -0.408804       -11.1241
  63   2.0000      -0.346362        -9.4250
  64   2.0000      -0.335925        -9.1410
  65   2.0000      -0.331874        -9.0307
  66   2.0000      -0.284656        -7.7459
  67   0.0000       0.025096         0.6829
  68   0.0000       0.063003         1.7144
  69   0.0000       0.104674         2.8483
  70   0.0000       0.119156         3.2424
  71   0.0000       0.123940         3.3726

MULLIKEN ATOMIC CHARGES
-----------------------
   0 S :    0.131960
   1 C :   -0.091337
   2 C :   -0.125601
   3 C :    0.046842
   4 C :   -0.161046
   5 H :   -0.013091
   6 C :    0.060420
   7 H :    0.017638
   8 H :    0.040753
   9 C :   -0.019155
  10 H :    0.034563
  11 H :    0.018469
  12 C :   -0.087153
  13 H :    0.030381
  14 H :    0.027070
  15 H :    0.042759
  16 S :    0.095800
  17 C :   -0.081735
  18 C :   -0.017505
  19 C :   -0.038723
  20 C :   -0.168359
  21 H :   -0.004054
  22 C :    0.066048
  23 H :    0.017905
  24 H :    0.007960
  25 C :   -0.054799
  26 H :    0.020005
  27 H :    0.045235
  28 C :    0.039501
  29 H :    0.024514
  30 H :    0.013694
  31 H :   -0.002923
  32 H :    0.028052
  33 H :    0.055911
Sum of atomic charges:   -0.0000000

LOEWDIN ATOMIC CHARGES
----------------------
   0 S :    0.392564
   1 C :   -0.197231
   2 C :   -0.057130
   3 C :   -0.051146
   4 C :   -0.182809
   5 H :    0.018516
   6 C :   -0.028200
   7 H :    0.028843
   8 H :    0.034328
   9 C :   -0.040743
  10 H :    0.027581
  11 H :    0.024979
  12 C :   -0.078000
  13 H :    0.026068
  14 H :    0.026969
  15 H :    0.028872
  16 S :    0.366257
  17 C :   -0.177745
  18 C :   -0.068576
  19 C :   -0.054537
  20 C :   -0.177087
  21 H :    0.020991
  22 C :   -0.026090
  23 H :    0.024106
  24 H :    0.031406
  25 C :   -0.030293
  26 H :    0.026204
  27 H :    0.027791
  28 C :   -0.056827
  29 H :    0.028105
  30 H :    0.017920
  31 H :    0.018078
  32 H :    0.024515
  33 H :    0.032318

  Mayer bond orders larger than 0.100000
B(  0-S ,  1-C ) :   1.1267 B(  0-S ,  4-C ) :   1.1210 B(  1-C ,  2-C ) :   1.6411
B(  1-C , 32-H ) :   0.9559 B(  2-C ,  3-C ) :   1.2353 B(  2-C ,  6-C ) :   1.0135
B(  3-C ,  4-C ) :   1.5670 B(  3-C ,  5-H ) :   0.9954 B(  4-C , 20-C ) :   1.0924
B(  6-C ,  7-H ) :   0.9320 B(  6-C ,  8-H ) :   0.9490 B(  6-C ,  9-C ) :   1.0694
B(  9-C , 10-H ) :   0.9557 B(  9-C , 11-H ) :   0.9487 B(  9-C , 12-C ) :   1.0690
B( 12-C , 13-H ) :   0.9726 B( 12-C , 14-H ) :   0.9749 B( 12-C , 15-H ) :   0.9743
B( 16-S , 17-C ) :   1.1324 B( 16-S , 20-C ) :   1.1118 B( 17-C , 18-C ) :   1.6307
B( 17-C , 33-H ) :   0.9647 B( 18-C , 19-C ) :   1.2387 B( 18-C , 21-H ) :   0.9886
B( 19-C , 20-C ) :   1.6078 B( 19-C , 22-C ) :   1.0292 B( 22-C , 23-H ) :   0.9328
B( 22-C , 24-H ) :   0.9337 B( 22-C , 25-C ) :   1.0337 B( 25-C , 26-H ) :   0.9526
B( 25-C , 27-H ) :   0.9590 B( 25-C , 28-C ) :   1.0836 B( 28-C , 29-H ) :   0.9691
B( 28-C , 30-H ) :   0.9715 B( 28-C , 31-H ) :   0.9641

Dispersion correction           -0.015612521
FINAL SINGLE POINT ENERGY     -1339.867280990132

DIPOLE MOMENT
-------------
                                X             Y             Z
Electronic contribution:     28.45724       3.50702     -11.20821
Nuclear contribution   :    -29.05389      -3.63878      11.61956
                        -----------------------------------------
Total Dipole Moment    :     -0.59665      -0.13175       0.41135
                        -----------------------------------------
Magnitude (a.u.)       :      0.73658
Magnitude (Debye)      :      1.87224

Rotational constants in cm-1:     0.017901     0.010101     0.007377
Rotational constants in MHz :   536.664719   302.808433   221.161432

                             ****ORCA TERMINATED NORMALLY****
TOTAL RUN TIME: 0 days 0 hours 0 minutes 21 seconds 647 msec
