                         Program Version 4.2.1 -  RELEASE  -
|  1> ! wB97X-D3 SP def2-SVP
|  2> %pal
|  3> nprocs 24
|  4> end
|  5>
|  6> * xyz 0 1
|  7> S 	 -130.624 	 63.9116 	 -57.4551
|  8> C 	 -130.101 	 65.5842 	 -57.6125
|  9> C 	 -130.19 	 66.1005 	 -58.8398
| 10> C 	 -130.551 	 65.0673 	 -59.7863
| 11> C 	 -130.763 	 63.8235 	 -59.2239
| 12> H 	 -130.622 	 65.2425 	 -60.8655
| 13> C 	 -129.93 	 67.5428 	 -59.2778
| 14> H 	 -129.18 	 67.858 	 -58.6059
| 15> H 	 -130.831 	 68.0289 	 -58.9856
| 16> C 	 -129.394 	 67.7677 	 -60.7051
| 17> H 	 -130.115 	 67.3278 	 -61.4326
| 18> H 	 -129.504 	 68.8158 	 -61.0341
| 19> C 	 -127.961 	 67.2701 	 -60.8893
| 20> H 	 -127.657 	 67.5353 	 -61.893
| 21> H 	 -127.381 	 67.7592 	 -60.0794
| 22> H 	 -127.969 	 66.1767 	 -60.8626
| 23> S 	 -132.531 	 61.5973 	 -59.2635
| 24> C 	 -132.104 	 60.3573 	 -60.4369
| 25> C 	 -131.171 	 60.7438 	 -61.3421
| 26> C 	 -130.625 	 62.0267 	 -61.0902
| 27> C 	 -131.095 	 62.5529 	 -59.8777
| 28> H 	 -130.806 	 60.0922 	 -62.1915
| 29> C 	 -129.427 	 62.6422 	 -61.8318
| 30> H 	 -129.403 	 63.6612 	 -61.6218
| 31> H 	 -129.5 	 62.5749 	 -62.9391
| 32> C 	 -128.152 	 61.9529 	 -61.3579
| 33> H 	 -128.117 	 60.9963 	 -61.7991
| 34> H 	 -128.165 	 61.7492 	 -60.2867
| 35> C 	 -126.821 	 62.575 	 -61.7767
| 36> H 	 -126.535 	 62.4638 	 -62.8463
| 37> H 	 -126.031 	 62.0366 	 -61.1637
| 38> H 	 -126.62 	 63.6368 	 -61.4913
| 39> H 	 -129.656 	 66.1603 	 -56.8183
| 40> H 	 -132.671 	 59.4804 	 -60.6026
| 41> *
| 42>
| 43>                          ****END OF INPUT****

CARTESIAN COORDINATES (ANGSTROEM)
---------------------------------
  S    -130.624000   63.911600  -57.455100
  C    -130.101000   65.584200  -57.612500
  C    -130.190000   66.100500  -58.839800
  C    -130.551000   65.067300  -59.786300
  C    -130.763000   63.823500  -59.223900
  H    -130.622000   65.242500  -60.865500
  C    -129.930000   67.542800  -59.277800
  H    -129.180000   67.858000  -58.605900
  H    -130.831000   68.028900  -58.985600
  C    -129.394000   67.767700  -60.705100
  H    -130.115000   67.327800  -61.432600
  H    -129.504000   68.815800  -61.034100
  C    -127.961000   67.270100  -60.889300
  H    -127.657000   67.535300  -61.893000
  H    -127.381000   67.759200  -60.079400
  H    -127.969000   66.176700  -60.862600
  S    -132.531000   61.597300  -59.263500
  C    -132.104000   60.357300  -60.436900
  C    -131.171000   60.743800  -61.342100
  C    -130.625000   62.026700  -61.090200
  C    -131.095000   62.552900  -59.877700
  H    -130.806000   60.092200  -62.191500
  C    -129.427000   62.642200  -61.831800
  H    -129.403000   63.661200  -61.621800
  H    -129.500000   62.574900  -62.939100
  C    -128.152000   61.952900  -61.357900
  H    -128.117000   60.996300  -61.799100
  H    -128.165000   61.749200  -60.286700
  C    -126.821000   62.575000  -61.776700
  H    -126.535000   62.463800  -62.846300
  H    -126.031000   62.036600  -61.163700
  H    -126.620000   63.636800  -61.491300
  H    -129.656000   66.160300  -56.818300
  H    -132.671000   59.480400  -60.602600

 Total Charge           Charge          ....    0
 Multiplicity           Mult            ....    1
 Number of Electrons    NEL             ....  134
 Basis Dimension        Dim             ....  322

ORBITAL ENERGIES
----------------

  NO   OCC          E(Eh)            E(eV)
   0   2.0000     -88.966403     -2420.8989
   1   2.0000     -88.964399     -2420.8444
   2   2.0000     -10.332010      -281.1483
   3   2.0000     -10.331010      -281.1211
   4   2.0000     -10.312617      -280.6206
   5   2.0000     -10.306666      -280.4586
   6   2.0000     -10.304833      -280.4088
   7   2.0000     -10.296896      -280.1928
   8   2.0000     -10.295256      -280.1481
   9   2.0000     -10.294796      -280.1356
  10   2.0000     -10.294454      -280.1263
  11   2.0000     -10.290823      -280.0275
  12   2.0000     -10.289101      -279.9807
  13   2.0000     -10.284809      -279.8639
  14   2.0000     -10.284654      -279.8597
  15   2.0000     -10.279913      -279.7307
  16   2.0000      -8.079884      -219.8648
  17   2.0000      -8.078768      -219.8345
  18   2.0000      -6.038447      -164.3145
  19   2.0000      -6.037421      -164.2866
  20   2.0000      -6.034890      -164.2177
  21   2.0000      -6.033540      -164.1810
  22   2.0000      -6.030339      -164.0939
  23   2.0000      -6.029197      -164.0628
  24   2.0000      -1.000859       -27.2348
  25   2.0000      -0.980787       -26.6886
  26   2.0000      -0.914464       -24.8838
  27   2.0000      -0.908713       -24.7273
  28   2.0000      -0.869447       -23.6589
  29   2.0000      -0.848907       -23.0999
  30   2.0000      -0.841179       -22.8897
  31   2.0000      -0.813911       -22.1476
  32   2.0000      -0.787129       -21.4189
  33   2.0000      -0.773226       -21.0405
  34   2.0000      -0.711316       -19.3559
  35   2.0000      -0.698348       -19.0030
  36   2.0000      -0.694948       -18.9105
  37   2.0000      -0.654164       -17.8007
  38   2.0000      -0.635968       -17.3056
  39   2.0000      -0.622321       -16.9342
  40   2.0000      -0.597167       -16.2497
  41   2.0000      -0.570779       -15.5317
  42   2.0000      -0.563816       -15.3422
  43   2.0000      -0.556837       -15.1523
  44   2.0000      -0.537230       -14.6188
  45   2.0000      -0.521796       -14.1988
  46   2.0000      -0.514776       -14.0078
  47   2.0000      -0.505256       -13.7487
  48   2.0000      -0.499577       -13.5942
  49   2.0000      -0.493738       -13.4353
  50   2.0000      -0.491429       -13.3725
  51   2.0000      -0.485944       -13.2232
  52   2.0000      -0.469688       -12.7808
  53   2.0000      -0.465520       -12.6675
  54   2.0000      -0.450119       -12.2483
  55   2.0000      -0.448205       -12.1963
  56   2.0000      -0.445606       -12.1256
  57   2.0000      -0.441907       -12.0249
  58   2.0000      -0.435347       -11.8464
  59   2.0000      -0.428862       -11.6699
  60   2.0000      -0.423220       -11.5164
  61   2.0000      -0.418307       -11.3827
  62   2.0000      -0.409557       -11.1446
  63   2.0000      -0.349786        -9.5182
  64   2.0000      -0.333237        -9.0678
  65   2.0000      -0.330406        -8.9908
  66   2.0000      -0.286535        -7.7970
  67   0.0000       0.025839         0.7031
  68   0.0000       0.068728         1.8702
  69   0.0000       0.101680         2.7669
  70   0.0000       0.120886         3.2895
  71   0.0000       0.130093         3.5400

MULLIKEN ATOMIC CHARGES
-----------------------
   0 S :    0.104639
   1 C :   -0.130342
   2 C :   -0.114500
   3 C :    0.009281
   4 C :   -0.153643
   5 H :    0.024609
   6 C :    0.133815
   7 H :    0.001635
   8 H :    0.043065
   9 C :   -0.118308
  10 H :    0.025952
  11 H :    0.030095
  12 C :   -0.031923
  13 H :    0.034620
  14 H :    0.045889
  15 H :    0.047004
  16 S :    0.092281
  17 C :   -0.059767
  18 C :   -0.055649
  19 C :   -0.057237
  20 C :   -0.145562
  21 H :    0.039755
  22 C :    0.127925
  23 H :   -0.021958
  24 H :    0.027725
  25 C :   -0.053992
  26 H :    0.012139
  27 H :    0.039930
  28 C :   -0.086234
  29 H :    0.039718
  30 H :    0.035197
  31 H :    0.037658
  32 H :    0.034297
  33 H :    0.041885
Sum of atomic charges:    0.0000000

LOEWDIN ATOMIC CHARGES
----------------------
   0 S :    0.383296
   1 C :   -0.192145
   2 C :   -0.063679
   3 C :   -0.064928
   4 C :   -0.183191
   5 H :    0.029956
   6 C :   -0.024073
   7 H :    0.023871
   8 H :    0.035817
   9 C :   -0.050497
  10 H :    0.022322
  11 H :    0.028055
  12 C :   -0.058821
  13 H :    0.027303
  14 H :    0.033084
  15 H :    0.027257
  16 S :    0.363549
  17 C :   -0.173509
  18 C :   -0.077323
  19 C :   -0.048156
  20 C :   -0.172827
  21 H :    0.043224
  22 C :   -0.024443
  23 H :    0.013978
  24 H :    0.034464
  25 C :   -0.039452
  26 H :    0.020778
  27 H :    0.031082
  28 C :   -0.078345
  29 H :    0.025981
  30 H :    0.035559
  31 H :    0.024503
  32 H :    0.025213
  33 H :    0.022095

  Mayer bond orders larger than 0.100000
B(  0-S ,  1-C ) :   1.1149 B(  0-S ,  4-C ) :   1.1302 B(  1-C ,  2-C ) :   1.6869
B(  1-C , 32-H ) :   0.9601 B(  2-C ,  3-C ) :   1.2119 B(  2-C ,  6-C ) :   0.9800
B(  3-C ,  4-C ) :   1.6039 B(  3-C ,  5-H ) :   0.9790 B(  4-C , 20-C ) :   1.0468
B(  6-C ,  7-H ) :   0.9378 B(  6-C ,  8-H ) :   0.9325 B(  6-C ,  9-C ) :   1.0744
B(  9-C , 10-H ) :   0.9478 B(  9-C , 11-H ) :   0.9528 B(  9-C , 12-C ) :   1.0688
B( 12-C , 13-H ) :   0.9719 B( 12-C , 14-H ) :   0.9734 B( 12-C , 15-H ) :   0.9746
B( 16-S , 17-C ) :   1.1301 B( 16-S , 20-C ) :   1.1217 B( 17-C , 18-C ) :   1.6430
B( 17-C , 20-C ) :   0.1010 B( 17-C , 33-H ) :   0.9663 B( 18-C , 19-C ) :   1.2302
B( 18-C , 21-H ) :   0.9776 B( 19-C , 20-C ) :   1.6100 B( 19-C , 22-C ) :   1.0571
B( 22-C , 23-H ) :   0.9251 B( 22-C , 24-H ) :   0.9299 B( 22-C , 25-C ) :   1.0617
B( 25-C , 26-H ) :   0.9479 B( 25-C , 27-H ) :   0.9583 B( 25-C , 28-C ) :   1.0840
B( 28-C , 29-H ) :   0.9744 B( 28-C , 30-H ) :   0.9712 B( 28-C , 31-H ) :   0.9749

Dispersion correction           -0.015111155
FINAL SINGLE POINT ENERGY     -1339.874750841442

DIPOLE MOMENT
-------------
                                X             Y             Z
Electronic contribution:    -21.82038     -13.39996      16.81464
Nuclear contribution   :     22.24925      13.78643     -17.40587
                        -----------------------------------------
Total Dipole Moment    :      0.42887       0.38647      -0.59123
                        -----------------------------------------
Magnitude (a.u.)       :      0.82634
Magnitude (Debye)      :      2.10038

Rotational constants in cm-1:     0.017428     0.010107     0.007428
Rotational constants in MHz :   522.488431   303.009289   222.684574

                             ****ORCA TERMINATED NORMALLY****
TOTAL RUN TIME: 0 days 0 hours 0 minutes 22 seconds 771 msec
