                         Program Version 4.2.1 -  RELEASE  -
|  1> ! wB97X-D3 SP def2-SVP
|  2> %pal
|  3> nprocs 24
|  4> end
|  5>
|  6> * xyz 0 1
|  7> S 	 -118.343 	 57.4805 	 -41.1764
|  8> C 	 -117.36 	 56.1678 	 -41.8367
|  9> C 	 -116.26 	 55.8438 	 -41.0604
| 10> C 	 -116.29 	 56.5723 	 -39.8362
| 11> C 	 -117.403 	 57.4565 	 -39.7355
| 12> H 	 -115.513 	 56.4522 	 -39.0313
| 13> C 	 -115.189 	 54.9333 	 -41.5448
| 14> H 	 -114.318 	 55.5745 	 -41.771
| 15> H 	 -115.468 	 54.4973 	 -42.5377
| 16> C 	 -114.962 	 53.8058 	 -40.5364
| 17> H 	 -114.092 	 53.2411 	 -40.7332
| 18> H 	 -114.881 	 54.3705 	 -39.5624
| 19> C 	 -116.153 	 52.8824 	 -40.4354
| 20> H 	 -116.269 	 52.5727 	 -41.4494
| 21> H 	 -115.986 	 52.035 	 -39.8483
| 22> H 	 -117.065 	 53.3797 	 -39.9964
| 23> S 	 -117.972 	 60.0763 	 -39.0178
| 24> C 	 -118.17 	 60.4717 	 -37.2334
| 25> C 	 -117.77 	 59.3601 	 -36.4493
| 26> C 	 -117.403 	 58.2612 	 -37.2767
| 27> C 	 -117.644 	 58.4022 	 -38.6415
| 28> H 	 -117.721 	 59.3865 	 -35.3098
| 29> C 	 -116.672 	 57.0738 	 -36.5064
| 30> H 	 -116.928 	 56.1961 	 -37.0748
| 31> H 	 -117.086 	 56.9446 	 -35.4809
| 32> C 	 -115.095 	 57.2191 	 -36.4495
| 33> H 	 -114.745 	 58.0531 	 -35.8398
| 34> H 	 -114.677 	 57.4638 	 -37.5116
| 35> C 	 -114.483 	 55.8824 	 -35.8385
| 36> H 	 -113.383 	 55.8451 	 -35.982
| 37> H 	 -114.796 	 54.8607 	 -36.2237
| 38> H 	 -114.697 	 55.9069 	 -34.7714
| 39> H 	 -117.311 	 55.8018 	 -42.8652
| 40> H 	 -118.561 	 61.3632 	 -36.8734
| 41> *
| 42>
| 43>                          ****END OF INPUT****

CARTESIAN COORDINATES (ANGSTROEM)
---------------------------------
  S    -118.343000   57.480500  -41.176400
  C    -117.360000   56.167800  -41.836700
  C    -116.260000   55.843800  -41.060400
  C    -116.290000   56.572300  -39.836200
  C    -117.403000   57.456500  -39.735500
  H    -115.513000   56.452200  -39.031300
  C    -115.189000   54.933300  -41.544800
  H    -114.318000   55.574500  -41.771000
  H    -115.468000   54.497300  -42.537700
  C    -114.962000   53.805800  -40.536400
  H    -114.092000   53.241100  -40.733200
  H    -114.881000   54.370500  -39.562400
  C    -116.153000   52.882400  -40.435400
  H    -116.269000   52.572700  -41.449400
  H    -115.986000   52.035000  -39.848300
  H    -117.065000   53.379700  -39.996400
  S    -117.972000   60.076300  -39.017800
  C    -118.170000   60.471700  -37.233400
  C    -117.770000   59.360100  -36.449300
  C    -117.403000   58.261200  -37.276700
  C    -117.644000   58.402200  -38.641500
  H    -117.721000   59.386500  -35.309800
  C    -116.672000   57.073800  -36.506400
  H    -116.928000   56.196100  -37.074800
  H    -117.086000   56.944600  -35.480900
  C    -115.095000   57.219100  -36.449500
  H    -114.745000   58.053100  -35.839800
  H    -114.677000   57.463800  -37.511600
  C    -114.483000   55.882400  -35.838500
  H    -113.383000   55.845100  -35.982000
  H    -114.796000   54.860700  -36.223700
  H    -114.697000   55.906900  -34.771400
  H    -117.311000   55.801800  -42.865200
  H    -118.561000   61.363200  -36.873400

 Total Charge           Charge          ....    0
 Multiplicity           Mult            ....    1
 Number of Electrons    NEL             ....  134
 Basis Dimension        Dim             ....  322

ORBITAL ENERGIES
----------------

  NO   OCC          E(Eh)            E(eV)
   0   2.0000     -88.973370     -2421.0885
   1   2.0000     -88.968105     -2420.9452
   2   2.0000     -10.335207      -281.2353
   3   2.0000     -10.331218      -281.1267
   4   2.0000     -10.323919      -280.9281
   5   2.0000     -10.311557      -280.5917
   6   2.0000     -10.306968      -280.4669
   7   2.0000     -10.306129      -280.4440
   8   2.0000     -10.305832      -280.4359
   9   2.0000     -10.302546      -280.3465
  10   2.0000     -10.301400      -280.3154
  11   2.0000     -10.299029      -280.2508
  12   2.0000     -10.296905      -280.1930
  13   2.0000     -10.291516      -280.0464
  14   2.0000     -10.285871      -279.8928
  15   2.0000     -10.270468      -279.4736
  16   2.0000      -8.087790      -220.0799
  17   2.0000      -8.081515      -219.9092
  18   2.0000      -6.046243      -164.5266
  19   2.0000      -6.042406      -164.4222
  20   2.0000      -6.040203      -164.3623
  21   2.0000      -6.038564      -164.3177
  22   2.0000      -6.036363      -164.2578
  23   2.0000      -6.032003      -164.1391
  24   2.0000      -1.004066       -27.3220
  25   2.0000      -0.977683       -26.6041
  26   2.0000      -0.922223       -25.0950
  27   2.0000      -0.892521       -24.2867
  28   2.0000      -0.867687       -23.6110
  29   2.0000      -0.847064       -23.0498
  30   2.0000      -0.840435       -22.8694
  31   2.0000      -0.809282       -22.0217
  32   2.0000      -0.782175       -21.2841
  33   2.0000      -0.768047       -20.8996
  34   2.0000      -0.710432       -19.3318
  35   2.0000      -0.697038       -18.9674
  36   2.0000      -0.690584       -18.7917
  37   2.0000      -0.662341       -18.0232
  38   2.0000      -0.633595       -17.2410
  39   2.0000      -0.620241       -16.8776
  40   2.0000      -0.587534       -15.9876
  41   2.0000      -0.570543       -15.5253
  42   2.0000      -0.560292       -15.2463
  43   2.0000      -0.557157       -15.1610
  44   2.0000      -0.546305       -14.8657
  45   2.0000      -0.515160       -14.0182
  46   2.0000      -0.511875       -13.9288
  47   2.0000      -0.506940       -13.7945
  48   2.0000      -0.501397       -13.6437
  49   2.0000      -0.492964       -13.4142
  50   2.0000      -0.488083       -13.2814
  51   2.0000      -0.478810       -13.0291
  52   2.0000      -0.465996       -12.6804
  53   2.0000      -0.463687       -12.6176
  54   2.0000      -0.462397       -12.5825
  55   2.0000      -0.452386       -12.3101
  56   2.0000      -0.446513       -12.1502
  57   2.0000      -0.437867       -11.9150
  58   2.0000      -0.437407       -11.9025
  59   2.0000      -0.426103       -11.5949
  60   2.0000      -0.424002       -11.5377
  61   2.0000      -0.411174       -11.1886
  62   2.0000      -0.407614       -11.0917
  63   2.0000      -0.348296        -9.4776
  64   2.0000      -0.334769        -9.1095
  65   2.0000      -0.329095        -8.9551
  66   2.0000      -0.285321        -7.7640
  67   0.0000       0.018088         0.4922
  68   0.0000       0.071550         1.9470
  69   0.0000       0.096471         2.6251
  70   0.0000       0.119870         3.2618
  71   0.0000       0.122215         3.3256

MULLIKEN ATOMIC CHARGES
-----------------------
   0 S :    0.125173
   1 C :   -0.106001
   2 C :   -0.129410
   3 C :    0.001919
   4 C :   -0.147352
   5 H :    0.023245
   6 C :    0.061272
   7 H :    0.051177
   8 H :    0.015622
   9 C :   -0.075033
  10 H :    0.023859
  11 H :    0.026522
  12 C :   -0.022924
  13 H :    0.014724
  14 H :    0.021514
  15 H :    0.055559
  16 S :    0.087385
  17 C :   -0.086965
  18 C :   -0.032990
  19 C :   -0.061463
  20 C :   -0.114272
  21 H :    0.053906
  22 C :    0.044262
  23 H :    0.026047
  24 H :    0.033073
  25 C :   -0.098285
  26 H :    0.036350
  27 H :    0.051721
  28 C :   -0.085739
  29 H :    0.041928
  30 H :    0.043959
  31 H :    0.038761
  32 H :    0.044882
  33 H :    0.037576
Sum of atomic charges:   -0.0000000

LOEWDIN ATOMIC CHARGES
----------------------
   0 S :    0.422291
   1 C :   -0.205209
   2 C :   -0.062448
   3 C :   -0.069374
   4 C :   -0.200399
   5 H :    0.035540
   6 C :   -0.032886
   7 H :    0.039471
   8 H :    0.027966
   9 C :   -0.038799
  10 H :    0.017559
  11 H :    0.025628
  12 C :   -0.058024
  13 H :    0.020624
  14 H :    0.017570
  15 H :    0.037647
  16 S :    0.373300
  17 C :   -0.152749
  18 C :   -0.069556
  19 C :   -0.061915
  20 C :   -0.201364
  21 H :    0.047780
  22 C :   -0.028752
  23 H :    0.023635
  24 H :    0.031292
  25 C :   -0.042997
  26 H :    0.025757
  27 H :    0.030610
  28 C :   -0.079521
  29 H :    0.028895
  30 H :    0.030544
  31 H :    0.025536
  32 H :    0.029726
  33 H :    0.012624

  Mayer bond orders larger than 0.100000
B(  0-S ,  1-C ) :   1.1298 B(  0-S ,  4-C ) :   1.1723 B(  1-C ,  2-C ) :   1.6156
B(  1-C , 32-H ) :   0.9547 B(  2-C ,  3-C ) :   1.2708 B(  2-C ,  6-C ) :   1.0216
B(  3-C ,  4-C ) :   1.5209 B(  3-C ,  5-H ) :   0.9712 B(  4-C , 20-C ) :   1.0532
B(  6-C ,  7-H ) :   0.9358 B(  6-C ,  8-H ) :   0.9402 B(  6-C ,  9-C ) :   1.0609
B(  9-C , 10-H ) :   0.9565 B(  9-C , 11-H ) :   0.9565 B(  9-C , 12-C ) :   1.0737
B( 12-C , 13-H ) :   0.9744 B( 12-C , 14-H ) :   0.9731 B( 12-C , 15-H ) :   0.9700
B( 16-S , 17-C ) :   1.1364 B( 16-S , 20-C ) :   1.1314 B( 17-C , 18-C ) :   1.5919
B( 17-C , 20-C ) :   0.1088 B( 17-C , 33-H ) :   0.9791 B( 18-C , 19-C ) :   1.2563
B( 18-C , 21-H ) :   0.9761 B( 19-C , 20-C ) :   1.5981 B( 19-C , 22-C ) :   1.0321
B( 22-C , 23-H ) :   0.9388 B( 22-C , 24-H ) :   0.9463 B( 22-C , 25-C ) :   1.0406
B( 25-C , 26-H ) :   0.9539 B( 25-C , 27-H ) :   0.9559 B( 25-C , 28-C ) :   1.0544
B( 28-C , 29-H ) :   0.9768 B( 28-C , 30-H ) :   0.9782 B( 28-C , 31-H ) :   0.9770

Dispersion correction           -0.015073469
FINAL SINGLE POINT ENERGY     -1339.858555330244

DIPOLE MOMENT
-------------
                                X             Y             Z
Electronic contribution:    -18.25963      23.63175     -10.29065
Nuclear contribution   :     18.87403     -24.00352      10.63058
                        -----------------------------------------
Total Dipole Moment    :      0.61440      -0.37176       0.33993
                        -----------------------------------------
Magnitude (a.u.)       :      0.79451
Magnitude (Debye)      :      2.01949

Rotational constants in cm-1:     0.017593     0.010291     0.006957
Rotational constants in MHz :   527.418952   308.514145   208.551242

                             ****ORCA TERMINATED NORMALLY****
TOTAL RUN TIME: 0 days 0 hours 0 minutes 22 seconds 527 msec
