                         Program Version 4.2.1 -  RELEASE  -
|  1> ! wB97X-D3 SP def2-SVP
|  2> %pal
|  3> nprocs 24
|  4> end
|  5>
|  6> * xyz 0 1
|  7> S 	 -103.063 	 60.2251 	 -98.4597
|  8> C 	 -104.377 	 60.349 	 -99.6256
|  9> C 	 -103.929 	 60.8525 	 -100.847
| 10> C 	 -102.514 	 61.0779 	 -100.791
| 11> C 	 -101.857 	 60.694 	 -99.6769
| 12> H 	 -101.825 	 61.2983 	 -101.623
| 13> C 	 -104.727 	 61.5155 	 -101.965
| 14> H 	 -104.013 	 61.447 	 -102.818
| 15> H 	 -104.919 	 62.4938 	 -101.698
| 16> C 	 -106.067 	 60.863 	 -102.339
| 17> H 	 -105.955 	 59.8355 	 -102.49
| 18> H 	 -106.823 	 60.9605 	 -101.583
| 19> C 	 -106.598 	 61.4166 	 -103.622
| 20> H 	 -106.584 	 62.4895 	 -103.652
| 21> H 	 -106.019 	 61.0334 	 -104.465
| 22> H 	 -107.612 	 61.1374 	 -103.892
| 23> S 	 -99.9646 	 62.3165 	 -98.7297
| 24> C 	 -98.3001 	 61.7744 	 -98.6324
| 25> C 	 -98.1508 	 60.549 	 -99.1924
| 26> C 	 -99.4038 	 59.8952 	 -99.5679
| 27> C 	 -100.487 	 60.7666 	 -99.3908
| 28> H 	 -97.1872 	 60.0566 	 -99.2467
| 29> C 	 -99.507 	 58.5487 	 -100.301
| 30> H 	 -98.5511 	 58.1373 	 -100.083
| 31> H 	 -99.3681 	 58.7954 	 -101.388
| 32> C 	 -100.481 	 57.564 	 -99.7792
| 33> H 	 -101.513 	 57.9011 	 -99.9017
| 34> H 	 -100.37 	 57.4783 	 -98.6853
| 35> C 	 -100.315 	 56.2982 	 -100.527
| 36> H 	 -99.3549 	 55.8617 	 -100.317
| 37> H 	 -100.502 	 56.4891 	 -101.611
| 38> H 	 -100.988 	 55.4915 	 -100.117
| 39> H 	 -105.446 	 60.404 	 -99.4103
| 40> H 	 -97.4508 	 62.3216 	 -98.2669
| 41> *
| 42>
| 43>                          ****END OF INPUT****

CARTESIAN COORDINATES (ANGSTROEM)
---------------------------------
  S    -103.063000   60.225100  -98.459700
  C    -104.377000   60.349000  -99.625600
  C    -103.929000   60.852500  -100.847000
  C    -102.514000   61.077900  -100.791000
  C    -101.857000   60.694000  -99.676900
  H    -101.825000   61.298300  -101.623000
  C    -104.727000   61.515500  -101.965000
  H    -104.013000   61.447000  -102.818000
  H    -104.919000   62.493800  -101.698000
  C    -106.067000   60.863000  -102.339000
  H    -105.955000   59.835500  -102.490000
  H    -106.823000   60.960500  -101.583000
  C    -106.598000   61.416600  -103.622000
  H    -106.584000   62.489500  -103.652000
  H    -106.019000   61.033400  -104.465000
  H    -107.612000   61.137400  -103.892000
  S    -99.964600   62.316500  -98.729700
  C    -98.300100   61.774400  -98.632400
  C    -98.150800   60.549000  -99.192400
  C    -99.403800   59.895200  -99.567900
  C    -100.487000   60.766600  -99.390800
  H    -97.187200   60.056600  -99.246700
  C    -99.507000   58.548700  -100.301000
  H    -98.551100   58.137300  -100.083000
  H    -99.368100   58.795400  -101.388000
  C    -100.481000   57.564000  -99.779200
  H    -101.513000   57.901100  -99.901700
  H    -100.370000   57.478300  -98.685300
  C    -100.315000   56.298200  -100.527000
  H    -99.354900   55.861700  -100.317000
  H    -100.502000   56.489100  -101.611000
  H    -100.988000   55.491500  -100.117000
  H    -105.446000   60.404000  -99.410300
  H    -97.450800   62.321600  -98.266900

 Total Charge           Charge          ....    0
 Multiplicity           Mult            ....    1
 Number of Electrons    NEL             ....  134
 Basis Dimension        Dim             ....  322

ORBITAL ENERGIES
----------------

  NO   OCC          E(Eh)            E(eV)
   0   2.0000     -88.963024     -2420.8070
   1   2.0000     -88.962659     -2420.7970
   2   2.0000     -10.321563      -280.8640
   3   2.0000     -10.321105      -280.8515
   4   2.0000     -10.315928      -280.7107
   5   2.0000     -10.314991      -280.6852
   6   2.0000     -10.307856      -280.4910
   7   2.0000     -10.301212      -280.3102
   8   2.0000     -10.293804      -280.1086
   9   2.0000     -10.291702      -280.0515
  10   2.0000     -10.289729      -279.9978
  11   2.0000     -10.288946      -279.9764
  12   2.0000     -10.278203      -279.6841
  13   2.0000     -10.277450      -279.6636
  14   2.0000     -10.276265      -279.6314
  15   2.0000     -10.272738      -279.5354
  16   2.0000      -8.077328      -219.7953
  17   2.0000      -8.077011      -219.7866
  18   2.0000      -6.035931      -164.2460
  19   2.0000      -6.035681      -164.2392
  20   2.0000      -6.031825      -164.1343
  21   2.0000      -6.031579      -164.1276
  22   2.0000      -6.027991      -164.0300
  23   2.0000      -6.027657      -164.0209
  24   2.0000      -1.006100       -27.3774
  25   2.0000      -0.979848       -26.6630
  26   2.0000      -0.919442       -25.0193
  27   2.0000      -0.917048       -24.9541
  28   2.0000      -0.877230       -23.8706
  29   2.0000      -0.849544       -23.1173
  30   2.0000      -0.848927       -23.1005
  31   2.0000      -0.815304       -22.1856
  32   2.0000      -0.781874       -21.2759
  33   2.0000      -0.768046       -20.8996
  34   2.0000      -0.713584       -19.4176
  35   2.0000      -0.707016       -19.2389
  36   2.0000      -0.690818       -18.7981
  37   2.0000      -0.659245       -17.9390
  38   2.0000      -0.642189       -17.4749
  39   2.0000      -0.611617       -16.6429
  40   2.0000      -0.593351       -16.1459
  41   2.0000      -0.576082       -15.6760
  42   2.0000      -0.572586       -15.5809
  43   2.0000      -0.565123       -15.3778
  44   2.0000      -0.529287       -14.4026
  45   2.0000      -0.526507       -14.3270
  46   2.0000      -0.515964       -14.0401
  47   2.0000      -0.514823       -14.0090
  48   2.0000      -0.505635       -13.7590
  49   2.0000      -0.501984       -13.6597
  50   2.0000      -0.495269       -13.4770
  51   2.0000      -0.480851       -13.0846
  52   2.0000      -0.468091       -12.7374
  53   2.0000      -0.460439       -12.5292
  54   2.0000      -0.455812       -12.4033
  55   2.0000      -0.447474       -12.1764
  56   2.0000      -0.441886       -12.0243
  57   2.0000      -0.436365       -11.8741
  58   2.0000      -0.432837       -11.7781
  59   2.0000      -0.426207       -11.5977
  60   2.0000      -0.419028       -11.4023
  61   2.0000      -0.415212       -11.2985
  62   2.0000      -0.407091       -11.0775
  63   2.0000      -0.336230        -9.1493
  64   2.0000      -0.328561        -8.9406
  65   2.0000      -0.315996        -8.5987
  66   2.0000      -0.313111        -8.5202
  67   0.0000       0.044442         1.2093
  68   0.0000       0.049970         1.3597
  69   0.0000       0.111605         3.0369
  70   0.0000       0.119363         3.2480
  71   0.0000       0.129757         3.5309

MULLIKEN ATOMIC CHARGES
-----------------------
   0 S :    0.105527
   1 C :   -0.111387
   2 C :   -0.089189
   3 C :    0.038323
   4 C :   -0.188066
   5 H :    0.021212
   6 C :    0.054509
   7 H :    0.033087
   8 H :    0.034277
   9 C :   -0.040260
  10 H :    0.014196
  11 H :    0.021863
  12 C :   -0.039613
  13 H :    0.020502
  14 H :    0.025040
  15 H :    0.023017
  16 S :    0.112512
  17 C :   -0.069820
  18 C :   -0.040275
  19 C :   -0.048334
  20 C :   -0.191582
  21 H :    0.018469
  22 C :    0.083922
  23 H :   -0.014253
  24 H :    0.049847
  25 C :   -0.064937
  26 H :    0.043401
  27 H :    0.033141
  28 C :   -0.039717
  29 H :    0.018379
  30 H :    0.044399
  31 H :    0.034751
  32 H :    0.055319
  33 H :    0.051742
Sum of atomic charges:   -0.0000000

LOEWDIN ATOMIC CHARGES
----------------------
   0 S :    0.389815
   1 C :   -0.197050
   2 C :   -0.067596
   3 C :   -0.064224
   4 C :   -0.198630
   5 H :    0.036272
   6 C :   -0.017908
   7 H :    0.037293
   8 H :    0.025947
   9 C :   -0.038982
  10 H :    0.019381
  11 H :    0.020273
  12 C :   -0.061913
  13 H :    0.019752
  14 H :    0.025655
  15 H :    0.024886
  16 S :    0.402535
  17 C :   -0.180644
  18 C :   -0.076289
  19 C :   -0.043800
  20 C :   -0.204678
  21 H :    0.030387
  22 C :   -0.037290
  23 H :    0.023620
  24 H :    0.043373
  25 C :   -0.048531
  26 H :    0.024560
  27 H :    0.032218
  28 C :   -0.065286
  29 H :    0.018761
  30 H :    0.033451
  31 H :    0.031767
  32 H :    0.031928
  33 H :    0.030947

  Mayer bond orders larger than 0.100000
B(  0-S ,  1-C ) :   1.1385 B(  0-S ,  4-C ) :   1.1075 B(  1-C ,  2-C ) :   1.6245
B(  1-C , 32-H ) :   0.9628 B(  2-C ,  3-C ) :   1.2232 B(  2-C ,  6-C ) :   1.0100
B(  3-C ,  4-C ) :   1.6473 B(  3-C ,  5-H ) :   0.9777 B(  4-C , 20-C ) :   1.0484
B(  6-C ,  7-H ) :   0.9477 B(  6-C ,  8-H ) :   0.9383 B(  6-C ,  9-C ) :   1.0692
B(  9-C , 10-H ) :   0.9570 B(  9-C , 11-H ) :   0.9481 B(  9-C , 12-C ) :   1.0975
B( 12-C , 13-H ) :   0.9732 B( 12-C , 14-H ) :   0.9748 B( 12-C , 15-H ) :   0.9707
B( 16-S , 17-C ) :   1.1401 B( 16-S , 20-C ) :   1.1409 B( 17-C , 18-C ) :   1.6412
B( 17-C , 33-H ) :   0.9650 B( 18-C , 19-C ) :   1.2290 B( 18-C , 21-H ) :   0.9840
B( 19-C , 20-C ) :   1.5998 B( 19-C , 22-C ) :   1.0287 B( 22-C , 23-H ) :   0.9194
B( 22-C , 24-H ) :   0.9303 B( 22-C , 25-C ) :   1.0595 B( 25-C , 26-H ) :   0.9488
B( 25-C , 27-H ) :   0.9481 B( 25-C , 28-C ) :   1.0986 B( 28-C , 29-H ) :   0.9719
B( 28-C , 30-H ) :   0.9695 B( 28-C , 31-H ) :   0.9691

Dispersion correction           -0.014111481
FINAL SINGLE POINT ENERGY     -1339.865203466210

DIPOLE MOMENT
-------------
                                X             Y             Z
Electronic contribution:     10.61378      12.73025      19.08752
Nuclear contribution   :    -10.54380     -12.83985     -19.58115
                        -----------------------------------------
Total Dipole Moment    :      0.06997      -0.10960      -0.49363
                        -----------------------------------------
Magnitude (a.u.)       :      0.51047
Magnitude (Debye)      :      1.29751

Rotational constants in cm-1:     0.019597     0.007815     0.006617
Rotational constants in MHz :   587.499799   234.293421   198.382458

                             ****ORCA TERMINATED NORMALLY****
TOTAL RUN TIME: 0 days 0 hours 0 minutes 20 seconds 249 msec
