                         Program Version 4.2.1 -  RELEASE  -
|  1> ! wB97X-D3 SP def2-SVP
|  2> %pal
|  3> nprocs 24
|  4> end
|  5>
|  6> * xyz 0 1
|  7> S 	 -75.7251 	 10.3538 	 -110.182
|  8> C 	 -76.9817 	 10.7138 	 -109.106
|  9> C 	 -76.8184 	 10.1403 	 -107.881
| 10> C 	 -75.6792 	 9.294 	 -107.819
| 11> C 	 -74.9589 	 9.3272 	 -108.982
| 12> H 	 -75.411 	 8.6552 	 -106.993
| 13> C 	 -77.866 	 10.2631 	 -106.757
| 14> H 	 -78.1799 	 9.25576 	 -106.643
| 15> H 	 -78.7481 	 10.8828 	 -107.003
| 16> C 	 -77.2658 	 10.7227 	 -105.413
| 17> H 	 -77.9854 	 10.9322 	 -104.684
| 18> H 	 -76.6223 	 9.88637 	 -105.055
| 19> C 	 -76.2737 	 11.9303 	 -105.588
| 20> H 	 -76.6421 	 12.8544 	 -105.87
| 21> H 	 -75.7739 	 12.0788 	 -104.628
| 22> H 	 -75.546 	 11.6983 	 -106.314
| 23> S 	 -73.5934 	 7.4869 	 -110.56
| 24> C 	 -71.9314 	 7.24708 	 -110.324
| 25> C 	 -71.3592 	 8.12313 	 -109.465
| 26> C 	 -72.4057 	 8.94968 	 -108.861
| 27> C 	 -73.7093 	 8.64247 	 -109.269
| 28> H 	 -70.2422 	 8.24222 	 -109.368
| 29> C 	 -72.1373 	 10.2587 	 -108.105
| 30> H 	 -71.116 	 10.2268 	 -107.674
| 31> H 	 -72.8557 	 10.3258 	 -107.285
| 32> C 	 -72.1844 	 11.4765 	 -109.024
| 33> H 	 -72.2987 	 12.3184 	 -108.373
| 34> H 	 -73.0621 	 11.4478 	 -109.617
| 35> C 	 -70.9838 	 11.6762 	 -109.907
| 36> H 	 -70.0798 	 11.8411 	 -109.364
| 37> H 	 -71.1066 	 12.5049 	 -110.544
| 38> H 	 -70.8495 	 10.8007 	 -110.514
| 39> H 	 -77.8299 	 11.4263 	 -109.342
| 40> H 	 -71.4067 	 6.51857 	 -110.911
| 41> *
| 42>
| 43>                          ****END OF INPUT****

CARTESIAN COORDINATES (ANGSTROEM)
---------------------------------
  S    -75.725100   10.353800  -110.182000
  C    -76.981700   10.713800  -109.106000
  C    -76.818400   10.140300  -107.881000
  C    -75.679200    9.294000  -107.819000
  C    -74.958900    9.327200  -108.982000
  H    -75.411000    8.655200  -106.993000
  C    -77.866000   10.263100  -106.757000
  H    -78.179900    9.255760  -106.643000
  H    -78.748100   10.882800  -107.003000
  C    -77.265800   10.722700  -105.413000
  H    -77.985400   10.932200  -104.684000
  H    -76.622300    9.886370  -105.055000
  C    -76.273700   11.930300  -105.588000
  H    -76.642100   12.854400  -105.870000
  H    -75.773900   12.078800  -104.628000
  H    -75.546000   11.698300  -106.314000
  S    -73.593400    7.486900  -110.560000
  C    -71.931400    7.247080  -110.324000
  C    -71.359200    8.123130  -109.465000
  C    -72.405700    8.949680  -108.861000
  C    -73.709300    8.642470  -109.269000
  H    -70.242200    8.242220  -109.368000
  C    -72.137300   10.258700  -108.105000
  H    -71.116000   10.226800  -107.674000
  H    -72.855700   10.325800  -107.285000
  C    -72.184400   11.476500  -109.024000
  H    -72.298700   12.318400  -108.373000
  H    -73.062100   11.447800  -109.617000
  C    -70.983800   11.676200  -109.907000
  H    -70.079800   11.841100  -109.364000
  H    -71.106600   12.504900  -110.544000
  H    -70.849500   10.800700  -110.514000
  H    -77.829900   11.426300  -109.342000
  H    -71.406700    6.518570  -110.911000

 Total Charge           Charge          ....    0
 Multiplicity           Mult            ....    1
 Number of Electrons    NEL             ....  134
 Basis Dimension        Dim             ....  322

ORBITAL ENERGIES
----------------

  NO   OCC          E(Eh)            E(eV)
   0   2.0000     -88.967050     -2420.9165
   1   2.0000     -88.961416     -2420.7632
   2   2.0000     -10.328610      -281.0558
   3   2.0000     -10.320996      -280.8486
   4   2.0000     -10.312216      -280.6097
   5   2.0000     -10.311508      -280.5904
   6   2.0000     -10.305434      -280.4251
   7   2.0000     -10.299206      -280.2556
   8   2.0000     -10.298466      -280.2355
   9   2.0000     -10.294921      -280.1390
  10   2.0000     -10.291434      -280.0441
  11   2.0000     -10.287402      -279.9344
  12   2.0000     -10.287059      -279.9251
  13   2.0000     -10.270114      -279.4640
  14   2.0000     -10.264682      -279.3162
  15   2.0000     -10.262037      -279.2442
  16   2.0000      -8.082531      -219.9368
  17   2.0000      -8.077772      -219.8073
  18   2.0000      -6.040892      -164.3810
  19   2.0000      -6.036933      -164.2733
  20   2.0000      -6.036101      -164.2506
  21   2.0000      -6.033391      -164.1769
  22   2.0000      -6.032040      -164.1402
  23   2.0000      -6.028645      -164.0478
  24   2.0000      -1.014188       -27.5975
  25   2.0000      -0.993397       -27.0317
  26   2.0000      -0.910703       -24.7815
  27   2.0000      -0.908177       -24.7128
  28   2.0000      -0.872651       -23.7460
  29   2.0000      -0.849150       -23.1065
  30   2.0000      -0.844004       -22.9665
  31   2.0000      -0.818217       -22.2648
  32   2.0000      -0.786224       -21.3943
  33   2.0000      -0.773219       -21.0404
  34   2.0000      -0.710885       -19.3442
  35   2.0000      -0.695648       -18.9295
  36   2.0000      -0.688437       -18.7333
  37   2.0000      -0.657566       -17.8933
  38   2.0000      -0.642933       -17.4951
  39   2.0000      -0.623212       -16.9585
  40   2.0000      -0.593970       -16.1628
  41   2.0000      -0.566235       -15.4080
  42   2.0000      -0.553632       -15.0651
  43   2.0000      -0.551370       -15.0035
  44   2.0000      -0.546682       -14.8760
  45   2.0000      -0.545304       -14.8385
  46   2.0000      -0.515487       -14.0271
  47   2.0000      -0.509846       -13.8736
  48   2.0000      -0.500046       -13.6070
  49   2.0000      -0.492882       -13.4120
  50   2.0000      -0.486528       -13.2391
  51   2.0000      -0.482342       -13.1252
  52   2.0000      -0.474456       -12.9106
  53   2.0000      -0.470613       -12.8060
  54   2.0000      -0.463179       -12.6038
  55   2.0000      -0.453145       -12.3307
  56   2.0000      -0.446370       -12.1464
  57   2.0000      -0.433737       -11.8026
  58   2.0000      -0.433606       -11.7990
  59   2.0000      -0.425069       -11.5667
  60   2.0000      -0.420628       -11.4459
  61   2.0000      -0.416633       -11.3372
  62   2.0000      -0.408115       -11.1054
  63   2.0000      -0.344559        -9.3759
  64   2.0000      -0.330258        -8.9868
  65   2.0000      -0.327131        -8.9017
  66   2.0000      -0.300453        -8.1757
  67   0.0000       0.040684         1.1071
  68   0.0000       0.064026         1.7422
  69   0.0000       0.118264         3.2181
  70   0.0000       0.126677         3.4470
  71   0.0000       0.129441         3.5223

MULLIKEN ATOMIC CHARGES
-----------------------
   0 S :    0.126587
   1 C :   -0.143091
   2 C :   -0.119648
   3 C :    0.048360
   4 C :   -0.167336
   5 H :    0.015892
   6 C :    0.104581
   7 H :    0.028844
   8 H :    0.026041
   9 C :   -0.088495
  10 H :    0.026581
  11 H :    0.029163
  12 C :   -0.022194
  13 H :    0.011981
  14 H :    0.025468
  15 H :    0.030277
  16 S :    0.111715
  17 C :   -0.085337
  18 C :   -0.038664
  19 C :   -0.074631
  20 C :   -0.169733
  21 H :    0.046563
  22 C :    0.070333
  23 H :    0.014178
  24 H :    0.027806
  25 C :   -0.028881
  26 H :    0.015614
  27 H :    0.007478
  28 C :   -0.008501
  29 H :    0.013766
  30 H :    0.021400
  31 H :    0.024228
  32 H :    0.067367
  33 H :    0.052288
Sum of atomic charges:    0.0000000

LOEWDIN ATOMIC CHARGES
----------------------
   0 S :    0.429164
   1 C :   -0.223575
   2 C :   -0.069154
   3 C :   -0.055267
   4 C :   -0.189380
   5 H :    0.034922
   6 C :   -0.025955
   7 H :    0.028996
   8 H :    0.030252
   9 C :   -0.033279
  10 H :    0.016164
  11 H :    0.026798
  12 C :   -0.057951
  13 H :    0.012395
  14 H :    0.026981
  15 H :    0.020485
  16 S :    0.429814
  17 C :   -0.191438
  18 C :   -0.086905
  19 C :   -0.047607
  20 C :   -0.222166
  21 H :    0.045434
  22 C :   -0.030582
  23 H :    0.027273
  24 H :    0.030201
  25 C :   -0.034003
  26 H :    0.021093
  27 H :    0.010425
  28 C :   -0.055363
  29 H :    0.018936
  30 H :    0.022637
  31 H :    0.023457
  32 H :    0.041773
  33 H :    0.025424

  Mayer bond orders larger than 0.100000
B(  0-S ,  1-C ) :   1.1455 B(  0-S ,  4-C ) :   1.1619 B(  1-C ,  2-C ) :   1.6301
B(  1-C , 32-H ) :   0.9559 B(  2-C ,  3-C ) :   1.2230 B(  2-C ,  6-C ) :   1.0073
B(  3-C ,  4-C ) :   1.5968 B(  3-C ,  5-H ) :   0.9992 B(  4-C , 20-C ) :   1.0237
B(  6-C ,  7-H ) :   0.9419 B(  6-C ,  8-H ) :   0.9491 B(  6-C ,  9-C ) :   1.0672
B(  9-C , 10-H ) :   0.9627 B(  9-C , 11-H ) :   0.9546 B(  9-C , 12-C ) :   1.0765
B( 12-C , 13-H ) :   0.9779 B( 12-C , 14-H ) :   0.9755 B( 12-C , 15-H ) :   0.9674
B( 16-S , 17-C ) :   1.1897 B( 16-S , 20-C ) :   1.1415 B( 17-C , 18-C ) :   1.5857
B( 17-C , 33-H ) :   0.9672 B( 18-C , 19-C ) :   1.2525 B( 18-C , 21-H ) :   0.9840
B( 19-C , 20-C ) :   1.5828 B( 19-C , 22-C ) :   1.0542 B( 22-C , 23-H ) :   0.9354
B( 22-C , 24-H ) :   0.9278 B( 22-C , 25-C ) :   1.0690 B( 25-C , 26-H ) :   0.9499
B( 25-C , 27-H ) :   0.9510 B( 25-C , 28-C ) :   1.0893 B( 28-C , 29-H ) :   0.9719
B( 28-C , 30-H ) :   0.9691 B( 28-C , 31-H ) :   0.9729

Dispersion correction           -0.016157950
FINAL SINGLE POINT ENERGY     -1339.887447723526

DIPOLE MOMENT
-------------
                                X             Y             Z
Electronic contribution:     -3.23245     -15.80714     -16.97478
Nuclear contribution   :      3.28634      16.06671      17.31082
                        -----------------------------------------
Total Dipole Moment    :      0.05390       0.25957       0.33604
                        -----------------------------------------
Magnitude (a.u.)       :      0.42802
Magnitude (Debye)      :      1.08794

Rotational constants in cm-1:     0.021524     0.009080     0.007962
Rotational constants in MHz :   645.264101   272.201628   238.685401

                             ****ORCA TERMINATED NORMALLY****
TOTAL RUN TIME: 0 days 0 hours 0 minutes 23 seconds 67 msec
