                         Program Version 4.2.1 -  RELEASE  -
|  1> ! wB97X-D3 SP def2-SVP
|  2> %pal
|  3> nprocs 24
|  4> end
|  5>
|  6> * xyz 0 1
|  7> S 	 -78.8934 	 -16.6737 	 -57.9309
|  8> C 	 -79.3464 	 -15.8484 	 -56.4735
|  9> C 	 -79.4985 	 -14.4677 	 -56.7059
| 10> C 	 -79.2912 	 -14.0638 	 -58.0743
| 11> C 	 -78.7942 	 -15.113 	 -58.8058
| 12> H 	 -79.4989 	 -13.0734 	 -58.4973
| 13> C 	 -79.9616 	 -13.5254 	 -55.6147
| 14> H 	 -80.3904 	 -14.0881 	 -54.9247
| 15> H 	 -80.7499 	 -12.9412 	 -55.9981
| 16> C 	 -78.8876 	 -12.7573 	 -54.8643
| 17> H 	 -78.1086 	 -13.4809 	 -54.6065
| 18> H 	 -78.4452 	 -12.0365 	 -55.5353
| 19> C 	 -79.3061 	 -12.0107 	 -53.6007
| 20> H 	 -79.5786 	 -12.6041 	 -52.7418
| 21> H 	 -78.3631 	 -11.4585 	 -53.4108
| 22> H 	 -80.053 	 -11.2889 	 -53.7766
| 23> S 	 -77.2006 	 -14.7061 	 -61.0597
| 24> C 	 -77.8995 	 -15.1367 	 -62.5776
| 25> C 	 -79.1771 	 -15.5738 	 -62.475
| 26> C 	 -79.7437 	 -15.5226 	 -61.1632
| 27> C 	 -78.7225 	 -15.1729 	 -60.2246
| 28> H 	 -79.7139 	 -15.8751 	 -63.352
| 29> C 	 -81.2003 	 -16.0226 	 -60.8173
| 30> H 	 -81.3613 	 -15.9892 	 -59.747
| 31> H 	 -81.1456 	 -17.0555 	 -61.1012
| 32> C 	 -82.4842 	 -15.4486 	 -61.58
| 33> H 	 -83.3793 	 -15.7287 	 -61.0573
| 34> H 	 -82.5842 	 -15.7363 	 -62.6247
| 35> C 	 -82.5447 	 -13.9021 	 -61.5524
| 36> H 	 -81.843 	 -13.4448 	 -62.2478
| 37> H 	 -82.2672 	 -13.5226 	 -60.5672
| 38> H 	 -83.5143 	 -13.5049 	 -61.8149
| 39> H 	 -79.5928 	 -16.4485 	 -55.6029
| 40> H 	 -77.3178 	 -15.238 	 -63.4644
| 41> *
| 42>
| 43>                          ****END OF INPUT****

CARTESIAN COORDINATES (ANGSTROEM)
---------------------------------
  S    -78.893400  -16.673700  -57.930900
  C    -79.346400  -15.848400  -56.473500
  C    -79.498500  -14.467700  -56.705900
  C    -79.291200  -14.063800  -58.074300
  C    -78.794200  -15.113000  -58.805800
  H    -79.498900  -13.073400  -58.497300
  C    -79.961600  -13.525400  -55.614700
  H    -80.390400  -14.088100  -54.924700
  H    -80.749900  -12.941200  -55.998100
  C    -78.887600  -12.757300  -54.864300
  H    -78.108600  -13.480900  -54.606500
  H    -78.445200  -12.036500  -55.535300
  C    -79.306100  -12.010700  -53.600700
  H    -79.578600  -12.604100  -52.741800
  H    -78.363100  -11.458500  -53.410800
  H    -80.053000  -11.288900  -53.776600
  S    -77.200600  -14.706100  -61.059700
  C    -77.899500  -15.136700  -62.577600
  C    -79.177100  -15.573800  -62.475000
  C    -79.743700  -15.522600  -61.163200
  C    -78.722500  -15.172900  -60.224600
  H    -79.713900  -15.875100  -63.352000
  C    -81.200300  -16.022600  -60.817300
  H    -81.361300  -15.989200  -59.747000
  H    -81.145600  -17.055500  -61.101200
  C    -82.484200  -15.448600  -61.580000
  H    -83.379300  -15.728700  -61.057300
  H    -82.584200  -15.736300  -62.624700
  C    -82.544700  -13.902100  -61.552400
  H    -81.843000  -13.444800  -62.247800
  H    -82.267200  -13.522600  -60.567200
  H    -83.514300  -13.504900  -61.814900
  H    -79.592800  -16.448500  -55.602900
  H    -77.317800  -15.238000  -63.464400

 Total Charge           Charge          ....    0
 Multiplicity           Mult            ....    1
 Number of Electrons    NEL             ....  134
 Basis Dimension        Dim             ....  322

ORBITAL ENERGIES
----------------

  NO   OCC          E(Eh)            E(eV)
   0   2.0000     -88.964519     -2420.8476
   1   2.0000     -88.962588     -2420.7951
   2   2.0000     -10.324819      -280.9526
   3   2.0000     -10.323900      -280.9276
   4   2.0000     -10.317062      -280.7415
   5   2.0000     -10.311409      -280.5877
   6   2.0000     -10.308405      -280.5060
   7   2.0000     -10.304167      -280.3906
   8   2.0000     -10.299797      -280.2717
   9   2.0000     -10.298165      -280.2273
  10   2.0000     -10.290814      -280.0273
  11   2.0000     -10.286986      -279.9231
  12   2.0000     -10.281159      -279.7646
  13   2.0000     -10.274380      -279.5801
  14   2.0000     -10.271207      -279.4938
  15   2.0000     -10.270614      -279.4776
  16   2.0000      -8.078893      -219.8378
  17   2.0000      -8.077160      -219.7907
  18   2.0000      -6.037299      -164.2833
  19   2.0000      -6.035579      -164.2364
  20   2.0000      -6.033500      -164.1799
  21   2.0000      -6.031729      -164.1317
  22   2.0000      -6.029724      -164.0771
  23   2.0000      -6.028014      -164.0306
  24   2.0000      -1.000864       -27.2349
  25   2.0000      -0.978073       -26.6147
  26   2.0000      -0.914214       -24.8770
  27   2.0000      -0.895410       -24.3654
  28   2.0000      -0.870392       -23.6846
  29   2.0000      -0.850986       -23.1565
  30   2.0000      -0.845004       -22.9937
  31   2.0000      -0.815145       -22.1812
  32   2.0000      -0.785266       -21.3682
  33   2.0000      -0.767133       -20.8747
  34   2.0000      -0.707138       -19.2422
  35   2.0000      -0.699026       -19.0215
  36   2.0000      -0.691186       -18.8081
  37   2.0000      -0.652968       -17.7682
  38   2.0000      -0.646994       -17.6056
  39   2.0000      -0.619027       -16.8446
  40   2.0000      -0.593273       -16.1438
  41   2.0000      -0.571707       -15.5569
  42   2.0000      -0.555925       -15.1275
  43   2.0000      -0.550184       -14.9713
  44   2.0000      -0.538688       -14.6585
  45   2.0000      -0.528770       -14.3886
  46   2.0000      -0.516849       -14.0642
  47   2.0000      -0.515481       -14.0270
  48   2.0000      -0.508240       -13.8299
  49   2.0000      -0.496416       -13.5082
  50   2.0000      -0.485377       -13.2078
  51   2.0000      -0.474147       -12.9022
  52   2.0000      -0.469403       -12.7731
  53   2.0000      -0.461852       -12.5676
  54   2.0000      -0.460227       -12.5234
  55   2.0000      -0.447416       -12.1748
  56   2.0000      -0.442036       -12.0284
  57   2.0000      -0.430985       -11.7277
  58   2.0000      -0.429693       -11.6925
  59   2.0000      -0.428211       -11.6522
  60   2.0000      -0.426290       -11.5999
  61   2.0000      -0.416856       -11.3432
  62   2.0000      -0.414568       -11.2810
  63   2.0000      -0.339471        -9.2375
  64   2.0000      -0.330220        -8.9857
  65   2.0000      -0.312230        -8.4962
  66   2.0000      -0.304887        -8.2964
  67   0.0000       0.041283         1.1234
  68   0.0000       0.051577         1.4035
  69   0.0000       0.105552         2.8722
  70   0.0000       0.118448         3.2231
  71   0.0000       0.131533         3.5792

MULLIKEN ATOMIC CHARGES
-----------------------
   0 S :    0.100735
   1 C :   -0.128706
   2 C :   -0.129406
   3 C :    0.051876
   4 C :   -0.161199
   5 H :    0.033766
   6 C :    0.182548
   7 H :   -0.043400
   8 H :    0.004345
   9 C :   -0.087311
  10 H :    0.027186
  11 H :    0.020361
  12 C :   -0.028050
  13 H :    0.035814
  14 H :    0.036586
  15 H :    0.021020
  16 S :    0.106855
  17 C :   -0.075876
  18 C :   -0.028090
  19 C :   -0.010072
  20 C :   -0.211554
  21 H :    0.009668
  22 C :    0.069627
  23 H :    0.035808
  24 H :    0.038097
  25 C :   -0.062114
  26 H :    0.031478
  27 H :    0.031472
  28 C :   -0.062535
  29 H :    0.031925
  30 H :    0.022779
  31 H :    0.026884
  32 H :    0.060029
  33 H :    0.049453
Sum of atomic charges:   -0.0000000

LOEWDIN ATOMIC CHARGES
----------------------
   0 S :    0.400137
   1 C :   -0.200727
   2 C :   -0.055606
   3 C :   -0.046604
   4 C :   -0.192556
   5 H :    0.042021
   6 C :   -0.027965
   7 H :    0.008745
   8 H :    0.024346
   9 C :   -0.035425
  10 H :    0.027366
  11 H :    0.020328
  12 C :   -0.061042
  13 H :    0.022733
  14 H :    0.037619
  15 H :    0.017239
  16 S :    0.395075
  17 C :   -0.187847
  18 C :   -0.075276
  19 C :   -0.043049
  20 C :   -0.201878
  21 H :    0.028017
  22 C :   -0.025617
  23 H :    0.029675
  24 H :    0.034474
  25 C :   -0.034881
  26 H :    0.026363
  27 H :    0.022350
  28 C :   -0.068053
  29 H :    0.023434
  30 H :    0.022093
  31 H :    0.021226
  32 H :    0.028307
  33 H :    0.024976

  Mayer bond orders larger than 0.100000
B(  0-S ,  1-C ) :   1.1490 B(  0-S ,  4-C ) :   1.1443 B(  1-C ,  2-C ) :   1.5909
B(  1-C , 32-H ) :   0.9709 B(  2-C ,  3-C ) :   1.2314 B(  2-C ,  6-C ) :   1.0357
B(  3-C ,  4-C ) :   1.5889 B(  3-C ,  5-H ) :   0.9945 B(  4-C , 20-C ) :   1.0224
B(  6-C ,  7-H ) :   0.9148 B(  6-C ,  8-H ) :   0.9279 B(  6-C ,  9-C ) :   1.0630
B(  9-C , 10-H ) :   0.9527 B(  9-C , 11-H ) :   0.9580 B(  9-C , 12-C ) :   1.0855
B( 12-C , 13-H ) :   0.9754 B( 12-C , 14-H ) :   0.9743 B( 12-C , 15-H ) :   0.9745
B( 16-S , 17-C ) :   1.1516 B( 16-S , 20-C ) :   1.1409 B( 17-C , 18-C ) :   1.6284
B( 17-C , 33-H ) :   0.9665 B( 18-C , 19-C ) :   1.2320 B( 18-C , 21-H ) :   0.9899
B( 19-C , 20-C ) :   1.5832 B( 19-C , 22-C ) :   1.0235 B( 22-C , 23-H ) :   0.9388
B( 22-C , 24-H ) :   0.9411 B( 22-C , 25-C ) :   1.0666 B( 25-C , 26-H ) :   0.9595
B( 25-C , 27-H ) :   0.9590 B( 25-C , 28-C ) :   1.0755 B( 28-C , 29-H ) :   0.9746
B( 28-C , 30-H ) :   0.9774 B( 28-C , 31-H ) :   0.9767

Dispersion correction           -0.014421968
FINAL SINGLE POINT ENERGY     -1339.864797616167

DIPOLE MOMENT
-------------
                                X             Y             Z
Electronic contribution:     17.32709     -12.85800     -10.36953
Nuclear contribution   :    -17.94802      12.97514      10.48927
                        -----------------------------------------
Total Dipole Moment    :     -0.62094       0.11715       0.11974
                        -----------------------------------------
Magnitude (a.u.)       :      0.64314
Magnitude (Debye)      :      1.63472

Rotational constants in cm-1:     0.019835     0.007499     0.006713
Rotational constants in MHz :   594.631701   224.807850   201.239915

                             ****ORCA TERMINATED NORMALLY****
TOTAL RUN TIME: 0 days 0 hours 0 minutes 20 seconds 219 msec
