                         Program Version 4.2.1 -  RELEASE  -
|  1> ! wB97X-D3 SP def2-SVP
|  2> %pal
|  3> nprocs 24
|  4> end
|  5>
|  6> * xyz 0 1
|  7> S 	 -110.086 	 62.266 	 -73.0988
|  8> C 	 -109.445 	 60.6592 	 -73.3391
|  9> C 	 -110.027 	 59.6741 	 -72.535
| 10> C 	 -111.193 	 60.2047 	 -71.845
| 11> C 	 -111.278 	 61.5942 	 -71.9614
| 12> H 	 -111.917 	 59.5948 	 -71.303
| 13> C 	 -109.558 	 58.2119 	 -72.4912
| 14> H 	 -108.695 	 58.0692 	 -73.211
| 15> H 	 -110.377 	 57.5493 	 -72.8895
| 16> C 	 -109.002 	 57.6555 	 -71.1618
| 17> H 	 -108.64 	 56.6562 	 -71.2803
| 18> H 	 -108.174 	 58.2247 	 -70.8903
| 19> C 	 -110.021 	 57.7257 	 -69.9839
| 20> H 	 -110.022 	 58.7837 	 -69.7436
| 21> H 	 -110.984 	 57.3115 	 -70.2872
| 22> H 	 -109.719 	 57.1686 	 -69.0751
| 23> S 	 -111.645 	 63.733 	 -70.2971
| 24> C 	 -113.372 	 64.0329 	 -69.6752
| 25> C 	 -114.249 	 63.2064 	 -70.3549
| 26> C 	 -113.647 	 62.2576 	 -71.223
| 27> C 	 -112.27 	 62.3762 	 -71.2725
| 28> H 	 -115.31 	 63.3689 	 -70.1378
| 29> C 	 -114.479 	 61.203 	 -71.9357
| 30> H 	 -114.62 	 60.3992 	 -71.2077
| 31> H 	 -113.865 	 60.8044 	 -72.8555
| 32> C 	 -115.917 	 61.4352 	 -72.3062
| 33> H 	 -116.511 	 61.3394 	 -71.383
| 34> H 	 -116.188 	 60.5976 	 -72.9615
| 35> C 	 -116.34 	 62.657 	 -73.1531
| 36> H 	 -116.068 	 63.6118 	 -72.6219
| 37> H 	 -117.354 	 62.8251 	 -73.3321
| 38> H 	 -115.765 	 62.6223 	 -74.069
| 39> H 	 -108.58 	 60.5116 	 -74.0715
| 40> H 	 -113.611 	 64.7305 	 -68.9414
| 41> *
| 42>
| 43>                          ****END OF INPUT****

CARTESIAN COORDINATES (ANGSTROEM)
---------------------------------
  S    -110.086000   62.266000  -73.098800
  C    -109.445000   60.659200  -73.339100
  C    -110.027000   59.674100  -72.535000
  C    -111.193000   60.204700  -71.845000
  C    -111.278000   61.594200  -71.961400
  H    -111.917000   59.594800  -71.303000
  C    -109.558000   58.211900  -72.491200
  H    -108.695000   58.069200  -73.211000
  H    -110.377000   57.549300  -72.889500
  C    -109.002000   57.655500  -71.161800
  H    -108.640000   56.656200  -71.280300
  H    -108.174000   58.224700  -70.890300
  C    -110.021000   57.725700  -69.983900
  H    -110.022000   58.783700  -69.743600
  H    -110.984000   57.311500  -70.287200
  H    -109.719000   57.168600  -69.075100
  S    -111.645000   63.733000  -70.297100
  C    -113.372000   64.032900  -69.675200
  C    -114.249000   63.206400  -70.354900
  C    -113.647000   62.257600  -71.223000
  C    -112.270000   62.376200  -71.272500
  H    -115.310000   63.368900  -70.137800
  C    -114.479000   61.203000  -71.935700
  H    -114.620000   60.399200  -71.207700
  H    -113.865000   60.804400  -72.855500
  C    -115.917000   61.435200  -72.306200
  H    -116.511000   61.339400  -71.383000
  H    -116.188000   60.597600  -72.961500
  C    -116.340000   62.657000  -73.153100
  H    -116.068000   63.611800  -72.621900
  H    -117.354000   62.825100  -73.332100
  H    -115.765000   62.622300  -74.069000
  H    -108.580000   60.511600  -74.071500
  H    -113.611000   64.730500  -68.941400

 Total Charge           Charge          ....    0
 Multiplicity           Mult            ....    1
 Number of Electrons    NEL             ....  134
 Basis Dimension        Dim             ....  322

ORBITAL ENERGIES
----------------

  NO   OCC          E(Eh)            E(eV)
   0   2.0000     -88.970653     -2421.0146
   1   2.0000     -88.962304     -2420.7874
   2   2.0000     -10.330789      -281.1151
   3   2.0000     -10.326663      -281.0028
   4   2.0000     -10.322836      -280.8987
   5   2.0000     -10.321209      -280.8544
   6   2.0000     -10.309325      -280.5310
   7   2.0000     -10.304157      -280.3904
   8   2.0000     -10.303506      -280.3726
   9   2.0000     -10.301292      -280.3124
  10   2.0000     -10.299735      -280.2700
  11   2.0000     -10.297560      -280.2109
  12   2.0000     -10.289352      -279.9875
  13   2.0000     -10.280835      -279.7557
  14   2.0000     -10.277293      -279.6594
  15   2.0000     -10.273440      -279.5545
  16   2.0000      -8.084873      -220.0006
  17   2.0000      -8.075255      -219.7389
  18   2.0000      -6.043356      -164.4481
  19   2.0000      -6.039589      -164.3456
  20   2.0000      -6.035560      -164.2359
  21   2.0000      -6.033923      -164.1914
  22   2.0000      -6.030194      -164.0899
  23   2.0000      -6.025773      -163.9696
  24   2.0000      -0.999015       -27.1846
  25   2.0000      -0.973564       -26.4920
  26   2.0000      -0.908594       -24.7241
  27   2.0000      -0.905080       -24.6285
  28   2.0000      -0.868731       -23.6394
  29   2.0000      -0.847505       -23.0618
  30   2.0000      -0.840179       -22.8624
  31   2.0000      -0.812335       -22.1048
  32   2.0000      -0.785090       -21.3634
  33   2.0000      -0.771650       -20.9977
  34   2.0000      -0.705341       -19.1933
  35   2.0000      -0.697974       -18.9929
  36   2.0000      -0.691228       -18.8093
  37   2.0000      -0.658869       -17.9287
  38   2.0000      -0.637459       -17.3461
  39   2.0000      -0.612472       -16.6662
  40   2.0000      -0.590418       -16.0661
  41   2.0000      -0.569823       -15.5057
  42   2.0000      -0.566057       -15.4032
  43   2.0000      -0.543640       -14.7932
  44   2.0000      -0.539101       -14.6697
  45   2.0000      -0.528374       -14.3778
  46   2.0000      -0.523931       -14.2569
  47   2.0000      -0.509070       -13.8525
  48   2.0000      -0.499616       -13.5952
  49   2.0000      -0.493332       -13.4243
  50   2.0000      -0.492353       -13.3976
  51   2.0000      -0.478379       -13.0174
  52   2.0000      -0.476898       -12.9770
  53   2.0000      -0.460238       -12.5237
  54   2.0000      -0.453340       -12.3360
  55   2.0000      -0.448276       -12.1982
  56   2.0000      -0.435245       -11.8436
  57   2.0000      -0.433757       -11.8031
  58   2.0000      -0.430882       -11.7249
  59   2.0000      -0.423022       -11.5110
  60   2.0000      -0.421240       -11.4625
  61   2.0000      -0.416194       -11.3252
  62   2.0000      -0.407120       -11.0783
  63   2.0000      -0.347210        -9.4481
  64   2.0000      -0.331686        -9.0256
  65   2.0000      -0.327135        -8.9018
  66   2.0000      -0.287905        -7.8343
  67   0.0000       0.029829         0.8117
  68   0.0000       0.060753         1.6532
  69   0.0000       0.102469         2.7883
  70   0.0000       0.112357         3.0574
  71   0.0000       0.125932         3.4268

MULLIKEN ATOMIC CHARGES
-----------------------
   0 S :    0.122604
   1 C :   -0.154175
   2 C :   -0.072570
   3 C :    0.016196
   4 C :   -0.154301
   5 H :    0.028071
   6 C :    0.010825
   7 H :    0.028530
   8 H :    0.046449
   9 C :   -0.028872
  10 H :    0.023629
  11 H :    0.014154
  12 C :   -0.083087
  13 H :    0.051640
  14 H :    0.030668
  15 H :    0.038076
  16 S :    0.073923
  17 C :   -0.078773
  18 C :   -0.044136
  19 C :    0.005021
  20 C :   -0.165378
  21 H :    0.031770
  22 C :    0.026388
  23 H :    0.044516
  24 H :    0.056368
  25 C :   -0.094281
  26 H :    0.027827
  27 H :    0.034787
  28 C :   -0.029613
  29 H :    0.022987
  30 H :    0.025471
  31 H :    0.032781
  32 H :    0.076418
  33 H :    0.036087
Sum of atomic charges:   -0.0000000

LOEWDIN ATOMIC CHARGES
----------------------
   0 S :    0.396935
   1 C :   -0.205432
   2 C :   -0.066513
   3 C :   -0.051818
   4 C :   -0.191769
   5 H :    0.035430
   6 C :   -0.037207
   7 H :    0.036585
   8 H :    0.034908
   9 C :   -0.033038
  10 H :    0.020444
  11 H :    0.016826
  12 C :   -0.069354
  13 H :    0.029166
  14 H :    0.019740
  15 H :    0.028716
  16 S :    0.340175
  17 C :   -0.139561
  18 C :   -0.067005
  19 C :   -0.062995
  20 C :   -0.181346
  21 H :    0.036893
  22 C :   -0.041876
  23 H :    0.040438
  24 H :    0.043822
  25 C :   -0.049815
  26 H :    0.022162
  27 H :    0.033508
  28 C :   -0.067813
  29 H :    0.027737
  30 H :    0.018529
  31 H :    0.027304
  32 H :    0.040410
  33 H :    0.015817

  Mayer bond orders larger than 0.100000
B(  0-S ,  1-C ) :   1.1385 B(  0-S ,  4-C ) :   1.1368 B(  1-C ,  2-C ) :   1.6286
B(  1-C , 32-H ) :   0.9542 B(  2-C ,  3-C ) :   1.2208 B(  2-C ,  6-C ) :   1.0179
B(  3-C ,  4-C ) :   1.5696 B(  3-C ,  5-H ) :   0.9897 B(  4-C , 20-C ) :   1.0615
B(  6-C ,  7-H ) :   0.9429 B(  6-C ,  8-H ) :   0.9442 B(  6-C ,  9-C ) :   1.0721
B(  9-C , 10-H ) :   0.9558 B(  9-C , 11-H ) :   0.9549 B(  9-C , 12-C ) :   1.0759
B( 12-C , 13-H ) :   0.9732 B( 12-C , 14-H ) :   0.9768 B( 12-C , 15-H ) :   0.9733
B( 16-S , 17-C ) :   1.1146 B( 16-S , 20-C ) :   1.1191 B( 17-C , 18-C ) :   1.6478
B( 17-C , 20-C ) :   0.1051 B( 17-C , 33-H ) :   0.9773 B( 18-C , 19-C ) :   1.1988
B( 18-C , 21-H ) :   0.9807 B( 19-C , 20-C ) :   1.6247 B( 19-C , 22-C ) :   1.0366
B( 22-C , 23-H ) :   0.9280 B( 22-C , 24-H ) :   0.9317 B( 22-C , 25-C ) :   1.0833
B( 25-C , 26-H ) :   0.9481 B( 25-C , 27-H ) :   0.9506 B( 25-C , 28-C ) :   1.0804
B( 28-C , 29-H ) :   0.9714 B( 28-C , 30-H ) :   0.9751 B( 28-C , 31-H ) :   0.9736

Dispersion correction           -0.014515911
FINAL SINGLE POINT ENERGY     -1339.867707362091

DIPOLE MOMENT
-------------
                                X             Y             Z
Electronic contribution:     11.38789      19.28758       0.18230
Nuclear contribution   :    -11.74842     -19.87802      -0.16787
                        -----------------------------------------
Total Dipole Moment    :     -0.36052      -0.59043       0.01443
                        -----------------------------------------
Magnitude (a.u.)       :      0.69195
Magnitude (Debye)      :      1.75880

Rotational constants in cm-1:     0.018704     0.008083     0.007358
Rotational constants in MHz :   560.737647   242.335571   220.589051

                             ****ORCA TERMINATED NORMALLY****
TOTAL RUN TIME: 0 days 0 hours 0 minutes 21 seconds 592 msec
