                         Program Version 4.2.1 -  RELEASE  -
|  1> ! wB97X-D3 SP def2-SVP
|  2> %pal
|  3> nprocs 24
|  4> end
|  5>
|  6> * xyz 0 1
|  7> S 	 -96.3937 	 49.115 	 -98.7827
|  8> C 	 -95.4923 	 50.1014 	 -97.6822
|  9> C 	 -96.3809 	 50.7522 	 -96.8352
| 10> C 	 -97.746 	 50.6773 	 -97.31
| 11> C 	 -97.9236 	 49.9432 	 -98.4396
| 12> H 	 -98.5329 	 51.2312 	 -96.8475
| 13> C 	 -96.0178 	 51.6724 	 -95.6662
| 14> H 	 -95.2548 	 51.2753 	 -95.1164
| 15> H 	 -96.8673 	 51.7973 	 -95.0321
| 16> C 	 -95.6681 	 53.0526 	 -96.2833
| 17> H 	 -94.7951 	 52.9582 	 -96.9364
| 18> H 	 -96.5145 	 53.4665 	 -96.8203
| 19> C 	 -95.3676 	 54.1941 	 -95.2818
| 20> H 	 -94.8975 	 53.8036 	 -94.3066
| 21> H 	 -94.6335 	 54.8583 	 -95.6881
| 22> H 	 -96.2257 	 54.7429 	 -95.0113
| 23> S 	 -99.1841 	 48.3512 	 -100.186
| 24> C 	 -100.836 	 48.7441 	 -100.639
| 25> C 	 -101.176 	 50.0322 	 -100.321
| 26> C 	 -100.245 	 50.6614 	 -99.4423
| 27> C 	 -99.1263 	 49.8283 	 -99.2527
| 28> H 	 -102.129 	 50.4082 	 -100.657
| 29> C 	 -100.525 	 52.0628 	 -98.8764
| 30> H 	 -99.9935 	 52.1177 	 -97.8564
| 31> H 	 -101.503 	 52.2609 	 -98.847
| 32> C 	 -99.7112 	 53.1243 	 -99.6781
| 33> H 	 -100.068 	 53.1114 	 -100.704
| 34> H 	 -98.6515 	 52.9162 	 -99.774
| 35> C 	 -99.8667 	 54.55 	 -99.1718
| 36> H 	 -99.8471 	 55.3792 	 -99.9146
| 37> H 	 -99.109 	 54.6658 	 -98.4866
| 38> H 	 -100.846 	 54.5618 	 -98.6377
| 39> H 	 -94.4296 	 50.2445 	 -97.6477
| 40> H 	 -101.512 	 48.1262 	 -101.136
| 41> *
| 42>
| 43>                          ****END OF INPUT****

CARTESIAN COORDINATES (ANGSTROEM)
---------------------------------
  S    -96.393700   49.115000  -98.782700
  C    -95.492300   50.101400  -97.682200
  C    -96.380900   50.752200  -96.835200
  C    -97.746000   50.677300  -97.310000
  C    -97.923600   49.943200  -98.439600
  H    -98.532900   51.231200  -96.847500
  C    -96.017800   51.672400  -95.666200
  H    -95.254800   51.275300  -95.116400
  H    -96.867300   51.797300  -95.032100
  C    -95.668100   53.052600  -96.283300
  H    -94.795100   52.958200  -96.936400
  H    -96.514500   53.466500  -96.820300
  C    -95.367600   54.194100  -95.281800
  H    -94.897500   53.803600  -94.306600
  H    -94.633500   54.858300  -95.688100
  H    -96.225700   54.742900  -95.011300
  S    -99.184100   48.351200  -100.186000
  C    -100.836000   48.744100  -100.639000
  C    -101.176000   50.032200  -100.321000
  C    -100.245000   50.661400  -99.442300
  C    -99.126300   49.828300  -99.252700
  H    -102.129000   50.408200  -100.657000
  C    -100.525000   52.062800  -98.876400
  H    -99.993500   52.117700  -97.856400
  H    -101.503000   52.260900  -98.847000
  C    -99.711200   53.124300  -99.678100
  H    -100.068000   53.111400  -100.704000
  H    -98.651500   52.916200  -99.774000
  C    -99.866700   54.550000  -99.171800
  H    -99.847100   55.379200  -99.914600
  H    -99.109000   54.665800  -98.486600
  H    -100.846000   54.561800  -98.637700
  H    -94.429600   50.244500  -97.647700
  H    -101.512000   48.126200  -101.136000

 Total Charge           Charge          ....    0
 Multiplicity           Mult            ....    1
 Number of Electrons    NEL             ....  134
 Basis Dimension        Dim             ....  322

ORBITAL ENERGIES
----------------

  NO   OCC          E(Eh)            E(eV)
   0   2.0000     -88.967582     -2420.9310
   1   2.0000     -88.961967     -2420.7782
   2   2.0000     -10.331129      -281.1243
   3   2.0000     -10.329247      -281.0731
   4   2.0000     -10.312328      -280.6127
   5   2.0000     -10.312168      -280.6083
   6   2.0000     -10.309880      -280.5461
   7   2.0000     -10.301715      -280.3239
   8   2.0000     -10.298464      -280.2355
   9   2.0000     -10.293336      -280.0959
  10   2.0000     -10.288529      -279.9651
  11   2.0000     -10.288493      -279.9641
  12   2.0000     -10.286658      -279.9142
  13   2.0000     -10.281864      -279.7837
  14   2.0000     -10.277323      -279.6602
  15   2.0000     -10.274722      -279.5894
  16   2.0000      -8.082452      -219.9347
  17   2.0000      -8.076856      -219.7824
  18   2.0000      -6.040943      -164.3824
  19   2.0000      -6.037131      -164.2787
  20   2.0000      -6.035636      -164.2380
  21   2.0000      -6.033042      -164.1674
  22   2.0000      -6.031457      -164.1243
  23   2.0000      -6.027208      -164.0087
  24   2.0000      -1.008135       -27.4327
  25   2.0000      -0.984794       -26.7976
  26   2.0000      -0.912561       -24.8321
  27   2.0000      -0.910040       -24.7634
  28   2.0000      -0.871637       -23.7184
  29   2.0000      -0.855555       -23.2808
  30   2.0000      -0.843495       -22.9527
  31   2.0000      -0.818485       -22.2721
  32   2.0000      -0.784225       -21.3399
  33   2.0000      -0.772979       -21.0338
  34   2.0000      -0.706921       -19.2363
  35   2.0000      -0.700027       -19.0487
  36   2.0000      -0.694415       -18.8960
  37   2.0000      -0.669002       -18.2045
  38   2.0000      -0.639988       -17.4150
  39   2.0000      -0.626589       -17.0503
  40   2.0000      -0.597892       -16.2695
  41   2.0000      -0.576195       -15.6791
  42   2.0000      -0.572015       -15.5653
  43   2.0000      -0.560493       -15.2518
  44   2.0000      -0.528752       -14.3881
  45   2.0000      -0.522340       -14.2136
  46   2.0000      -0.520454       -14.1623
  47   2.0000      -0.515230       -14.0201
  48   2.0000      -0.509675       -13.8689
  49   2.0000      -0.505688       -13.7605
  50   2.0000      -0.500085       -13.6080
  51   2.0000      -0.484025       -13.1710
  52   2.0000      -0.476845       -12.9756
  53   2.0000      -0.469164       -12.7666
  54   2.0000      -0.456437       -12.4203
  55   2.0000      -0.452745       -12.3198
  56   2.0000      -0.442248       -12.0342
  57   2.0000      -0.435200       -11.8424
  58   2.0000      -0.432699       -11.7743
  59   2.0000      -0.428259       -11.6535
  60   2.0000      -0.422169       -11.4878
  61   2.0000      -0.414876       -11.2893
  62   2.0000      -0.408668       -11.1204
  63   2.0000      -0.360915        -9.8210
  64   2.0000      -0.336387        -9.1536
  65   2.0000      -0.321733        -8.7548
  66   2.0000      -0.278016        -7.5652
  67   0.0000       0.020080         0.5464
  68   0.0000       0.072015         1.9596
  69   0.0000       0.095715         2.6045
  70   0.0000       0.113776         3.0960
  71   0.0000       0.125417         3.4128

MULLIKEN ATOMIC CHARGES
-----------------------
   0 S :    0.095210
   1 C :   -0.118688
   2 C :   -0.102998
   3 C :   -0.022382
   4 C :   -0.073161
   5 H :   -0.002202
   6 C :    0.137052
   7 H :    0.005773
   8 H :    0.014482
   9 C :   -0.102594
  10 H :    0.030244
  11 H :    0.030766
  12 C :   -0.042418
  13 H :    0.027519
  14 H :    0.030096
  15 H :    0.028054
  16 S :    0.101372
  17 C :   -0.058623
  18 C :   -0.033327
  19 C :   -0.054059
  20 C :   -0.140074
  21 H :    0.012115
  22 C :    0.118868
  23 H :    0.026785
  24 H :   -0.005293
  25 C :   -0.100077
  26 H :    0.017257
  27 H :    0.039780
  28 C :   -0.022633
  29 H :    0.045715
  30 H :    0.016325
  31 H :    0.025600
  32 H :    0.047029
  33 H :    0.028487
Sum of atomic charges:   -0.0000000

LOEWDIN ATOMIC CHARGES
----------------------
   0 S :    0.385898
   1 C :   -0.202467
   2 C :   -0.051143
   3 C :   -0.072632
   4 C :   -0.179587
   5 H :    0.022207
   6 C :   -0.016963
   7 H :    0.016407
   8 H :    0.027634
   9 C :   -0.036056
  10 H :    0.023532
  11 H :    0.025604
  12 C :   -0.069231
  13 H :    0.029170
  14 H :    0.024155
  15 H :    0.016400
  16 S :    0.402870
  17 C :   -0.170230
  18 C :   -0.065320
  19 C :   -0.049414
  20 C :   -0.186706
  21 H :    0.030914
  22 C :   -0.013118
  23 H :    0.039493
  24 H :    0.009554
  25 C :   -0.040671
  26 H :    0.019103
  27 H :    0.026147
  28 C :   -0.063909
  29 H :    0.032607
  30 H :    0.012107
  31 H :    0.028181
  32 H :    0.028862
  33 H :    0.016602

  Mayer bond orders larger than 0.100000
B(  0-S ,  1-C ) :   1.1271 B(  0-S ,  4-C ) :   1.1228 B(  1-C ,  2-C ) :   1.6145
B(  1-C , 32-H ) :   0.9736 B(  2-C ,  3-C ) :   1.2249 B(  2-C ,  6-C ) :   1.0390
B(  3-C ,  4-C ) :   1.5859 B(  3-C ,  5-H ) :   1.0001 B(  4-C , 20-C ) :   1.0798
B(  6-C ,  7-H ) :   0.9324 B(  6-C ,  8-H ) :   0.9387 B(  6-C ,  9-C ) :   1.0686
B(  9-C , 10-H ) :   0.9637 B(  9-C , 11-H ) :   0.9615 B(  9-C , 12-C ) :   1.0697
B( 12-C , 13-H ) :   0.9751 B( 12-C , 14-H ) :   0.9759 B( 12-C , 15-H ) :   0.9805
B( 16-S , 17-C ) :   1.1433 B( 16-S , 20-C ) :   1.1366 B( 17-C , 18-C ) :   1.6317
B( 17-C , 20-C ) :   0.1015 B( 17-C , 33-H ) :   0.9740 B( 18-C , 19-C ) :   1.2292
B( 18-C , 21-H ) :   0.9892 B( 19-C , 20-C ) :   1.5838 B( 19-C , 22-C ) :   1.0440
B( 22-C , 23-H ) :   0.9367 B( 22-C , 24-H ) :   0.9254 B( 22-C , 25-C ) :   1.0626
B( 25-C , 26-H ) :   0.9548 B( 25-C , 27-H ) :   0.9643 B( 25-C , 28-C ) :   1.0666
B( 28-C , 29-H ) :   0.9752 B( 28-C , 30-H ) :   0.9787 B( 28-C , 31-H ) :   0.9727

Dispersion correction           -0.014342934
FINAL SINGLE POINT ENERGY     -1339.849906710828

DIPOLE MOMENT
-------------
                                X             Y             Z
Electronic contribution:     -1.04396     -30.86962     -12.57782
Nuclear contribution   :      0.79800      31.59174      12.79351
                        -----------------------------------------
Total Dipole Moment    :     -0.24595       0.72213       0.21569
                        -----------------------------------------
Magnitude (a.u.)       :      0.79277
Magnitude (Debye)      :      2.01506

Rotational constants in cm-1:     0.018231     0.009546     0.006664
Rotational constants in MHz :   546.542586   286.172635   199.793781

                             ****ORCA TERMINATED NORMALLY****
TOTAL RUN TIME: 0 days 0 hours 0 minutes 22 seconds 210 msec
