                         Program Version 4.2.1 -  RELEASE  -
|  1> ! wB97X-D3 SP def2-SVP
|  2> %pal
|  3> nprocs 24
|  4> end
|  5>
|  6> * xyz 0 1
|  7> S 	 -99.9618 	 6.67729 	 3.23317
|  8> C 	 -99.4207 	 5.69589 	 1.96739
|  9> C 	 -98.2127 	 5.09814 	 2.26934
| 10> C 	 -97.7159 	 5.4586 	 3.58874
| 11> C 	 -98.5711 	 6.32712 	 4.24255
| 12> H 	 -96.8198 	 5.11466 	 4.08006
| 13> C 	 -97.5964 	 4.08788 	 1.33351
| 14> H 	 -98.4669 	 3.53358 	 1.02674
| 15> H 	 -96.9754 	 3.37179 	 1.84395
| 16> C 	 -96.8266 	 4.65663 	 0.112791
| 17> H 	 -97.1911 	 5.59379 	 -0.2237
| 18> H 	 -95.7697 	 4.88893 	 0.339728
| 19> C 	 -96.7729 	 3.62442 	 -1.0318
| 20> H 	 -96.1871 	 2.71402 	 -0.811497
| 21> H 	 -97.7913 	 3.31277 	 -1.45145
| 22> H 	 -96.1482 	 4.03392 	 -1.88493
| 23> S 	 -100.131 	 6.92495 	 6.48665
| 24> C 	 -99.3634 	 7.68012 	 7.85821
| 25> C 	 -98.028 	 7.75297 	 7.69934
| 26> C 	 -97.5842 	 7.28223 	 6.4332
| 27> C 	 -98.5797 	 6.76136 	 5.64713
| 28> H 	 -97.4322 	 8.1943 	 8.51119
| 29> C 	 -96.1267 	 7.36525 	 6.14928
| 30> H 	 -95.7022 	 8.2481 	 6.48676
| 31> H 	 -96.0591 	 7.45392 	 5.03933
| 32> C 	 -95.3291 	 6.22304 	 6.74821
| 33> H 	 -95.7297 	 5.36092 	 6.36809
| 34> H 	 -95.588 	 6.2928 	 7.81942
| 35> C 	 -93.878 	 6.49995 	 6.42697
| 36> H 	 -93.7086 	 6.73496 	 5.3936
| 37> H 	 -93.276 	 5.58474 	 6.3957
| 38> H 	 -93.4012 	 7.2685 	 7.05785
| 39> H 	 -99.9312 	 5.44356 	 1.01634
| 40> H 	 -99.8885 	 8.02096 	 8.70717
| 41> *
| 42>
| 43>                          ****END OF INPUT****

CARTESIAN COORDINATES (ANGSTROEM)
---------------------------------
  S    -99.961800    6.677290    3.233170
  C    -99.420700    5.695890    1.967390
  C    -98.212700    5.098140    2.269340
  C    -97.715900    5.458600    3.588740
  C    -98.571100    6.327120    4.242550
  H    -96.819800    5.114660    4.080060
  C    -97.596400    4.087880    1.333510
  H    -98.466900    3.533580    1.026740
  H    -96.975400    3.371790    1.843950
  C    -96.826600    4.656630    0.112791
  H    -97.191100    5.593790   -0.223700
  H    -95.769700    4.888930    0.339728
  C    -96.772900    3.624420   -1.031800
  H    -96.187100    2.714020   -0.811497
  H    -97.791300    3.312770   -1.451450
  H    -96.148200    4.033920   -1.884930
  S    -100.131000    6.924950    6.486650
  C    -99.363400    7.680120    7.858210
  C    -98.028000    7.752970    7.699340
  C    -97.584200    7.282230    6.433200
  C    -98.579700    6.761360    5.647130
  H    -97.432200    8.194300    8.511190
  C    -96.126700    7.365250    6.149280
  H    -95.702200    8.248100    6.486760
  H    -96.059100    7.453920    5.039330
  C    -95.329100    6.223040    6.748210
  H    -95.729700    5.360920    6.368090
  H    -95.588000    6.292800    7.819420
  C    -93.878000    6.499950    6.426970
  H    -93.708600    6.734960    5.393600
  H    -93.276000    5.584740    6.395700
  H    -93.401200    7.268500    7.057850
  H    -99.931200    5.443560    1.016340
  H    -99.888500    8.020960    8.707170

 Total Charge           Charge          ....    0
 Multiplicity           Mult            ....    1
 Number of Electrons    NEL             ....  134
 Basis Dimension        Dim             ....  322

ORBITAL ENERGIES
----------------

  NO   OCC          E(Eh)            E(eV)
   0   2.0000     -88.966116     -2420.8911
   1   2.0000     -88.962316     -2420.7877
   2   2.0000     -10.330801      -281.1154
   3   2.0000     -10.327406      -281.0230
   4   2.0000     -10.310904      -280.5740
   5   2.0000     -10.310527      -280.5637
   6   2.0000     -10.300634      -280.2945
   7   2.0000     -10.297525      -280.2099
   8   2.0000     -10.296072      -280.1704
   9   2.0000     -10.289656      -279.9958
  10   2.0000     -10.289090      -279.9804
  11   2.0000     -10.288953      -279.9767
  12   2.0000     -10.288360      -279.9605
  13   2.0000     -10.280629      -279.7501
  14   2.0000     -10.278733      -279.6986
  15   2.0000     -10.278396      -279.6894
  16   2.0000      -8.081653      -219.9130
  17   2.0000      -8.077154      -219.7905
  18   2.0000      -6.040110      -164.3597
  19   2.0000      -6.035956      -164.2467
  20   2.0000      -6.035747      -164.2410
  21   2.0000      -6.032493      -164.1525
  22   2.0000      -6.031692      -164.1307
  23   2.0000      -6.027760      -164.0237
  24   2.0000      -1.010046       -27.4847
  25   2.0000      -0.989422       -26.9235
  26   2.0000      -0.921180       -25.0666
  27   2.0000      -0.909558       -24.7503
  28   2.0000      -0.871248       -23.7079
  29   2.0000      -0.853967       -23.2376
  30   2.0000      -0.845886       -23.0177
  31   2.0000      -0.819903       -22.3107
  32   2.0000      -0.780215       -21.2307
  33   2.0000      -0.768182       -20.9033
  34   2.0000      -0.712197       -19.3799
  35   2.0000      -0.704251       -19.1636
  36   2.0000      -0.698453       -19.0059
  37   2.0000      -0.666312       -18.1313
  38   2.0000      -0.640861       -17.4387
  39   2.0000      -0.617873       -16.8132
  40   2.0000      -0.600479       -16.3399
  41   2.0000      -0.577899       -15.7254
  42   2.0000      -0.574679       -15.6378
  43   2.0000      -0.552871       -15.0444
  44   2.0000      -0.523950       -14.2574
  45   2.0000      -0.519842       -14.1456
  46   2.0000      -0.516734       -14.0611
  47   2.0000      -0.513772       -13.9805
  48   2.0000      -0.507744       -13.8164
  49   2.0000      -0.502912       -13.6849
  50   2.0000      -0.495043       -13.4708
  51   2.0000      -0.482078       -13.1180
  52   2.0000      -0.475683       -12.9440
  53   2.0000      -0.466817       -12.7027
  54   2.0000      -0.460183       -12.5222
  55   2.0000      -0.454884       -12.3780
  56   2.0000      -0.446832       -12.1589
  57   2.0000      -0.437667       -11.9095
  58   2.0000      -0.430025       -11.7016
  59   2.0000      -0.424957       -11.5637
  60   2.0000      -0.419389       -11.4121
  61   2.0000      -0.415863       -11.3162
  62   2.0000      -0.411128       -11.1874
  63   2.0000      -0.357688        -9.7332
  64   2.0000      -0.330515        -8.9938
  65   2.0000      -0.328081        -8.9275
  66   2.0000      -0.289711        -7.8834
  67   0.0000       0.029467         0.8018
  68   0.0000       0.079934         2.1751
  69   0.0000       0.114375         3.1123
  70   0.0000       0.123704         3.3662
  71   0.0000       0.134917         3.6713

MULLIKEN ATOMIC CHARGES
-----------------------
   0 S :    0.119812
   1 C :   -0.119534
   2 C :   -0.113908
   3 C :    0.035561
   4 C :   -0.146054
   5 H :    0.002875
   6 C :    0.074954
   7 H :    0.022776
   8 H :    0.017147
   9 C :   -0.029383
  10 H :    0.020843
  11 H :    0.027457
  12 C :   -0.109558
  13 H :    0.035523
  14 H :    0.045572
  15 H :    0.036158
  16 S :    0.089279
  17 C :   -0.072248
  18 C :   -0.028607
  19 C :   -0.055927
  20 C :   -0.126863
  21 H :    0.026147
  22 C :    0.044218
  23 H :   -0.005250
  24 H :    0.025264
  25 C :   -0.007339
  26 H :    0.000727
  27 H :    0.027418
  28 C :   -0.018303
  29 H :    0.013938
  30 H :    0.022018
  31 H :    0.045586
  32 H :    0.059644
  33 H :    0.040056
Sum of atomic charges:    0.0000000

LOEWDIN ATOMIC CHARGES
----------------------
   0 S :    0.430783
   1 C :   -0.224961
   2 C :   -0.064885
   3 C :   -0.062743
   4 C :   -0.188238
   5 H :    0.029187
   6 C :   -0.031491
   7 H :    0.031380
   8 H :    0.028244
   9 C :   -0.037775
  10 H :    0.018169
  11 H :    0.029281
  12 C :   -0.080305
  13 H :    0.025264
  14 H :    0.028576
  15 H :    0.030947
  16 S :    0.389028
  17 C :   -0.171244
  18 C :   -0.075901
  19 C :   -0.056978
  20 C :   -0.193187
  21 H :    0.037031
  22 C :   -0.030983
  23 H :    0.017350
  24 H :    0.030171
  25 C :   -0.026240
  26 H :    0.009755
  27 H :    0.030781
  28 C :   -0.068488
  29 H :    0.024696
  30 H :    0.028431
  31 H :    0.032270
  32 H :    0.039667
  33 H :    0.022407

  Mayer bond orders larger than 0.100000
B(  0-S ,  1-C ) :   1.1492 B(  0-S ,  4-C ) :   1.1572 B(  1-C ,  2-C ) :   1.6039
B(  1-C , 32-H ) :   0.9616 B(  2-C ,  3-C ) :   1.2477 B(  2-C ,  6-C ) :   1.0187
B(  3-C ,  4-C ) :   1.5549 B(  3-C ,  5-H ) :   0.9990 B(  4-C , 20-C ) :   1.0474
B(  6-C ,  7-H ) :   0.9508 B(  6-C ,  8-H ) :   0.9407 B(  6-C ,  9-C ) :   1.0469
B(  9-C , 10-H ) :   0.9630 B(  9-C , 11-H ) :   0.9514 B(  9-C , 12-C ) :   1.0766
B( 12-C , 13-H ) :   0.9752 B( 12-C , 14-H ) :   0.9764 B( 12-C , 15-H ) :   0.9733
B( 16-S , 17-C ) :   1.1476 B( 16-S , 20-C ) :   1.1161 B( 17-C , 18-C ) :   1.6278
B( 17-C , 33-H ) :   0.9704 B( 18-C , 19-C ) :   1.2239 B( 18-C , 21-H ) :   0.9886
B( 19-C , 20-C ) :   1.6140 B( 19-C , 22-C ) :   1.0570 B( 22-C , 23-H ) :   0.9314
B( 22-C , 24-H ) :   0.9234 B( 22-C , 25-C ) :   1.0574 B( 25-C , 26-H ) :   0.9518
B( 25-C , 27-H ) :   0.9530 B( 25-C , 28-C ) :   1.0839 B( 28-C , 29-H ) :   0.9666
B( 28-C , 30-H ) :   0.9692 B( 28-C , 31-H ) :   0.9732

Dispersion correction           -0.013667520
FINAL SINGLE POINT ENERGY     -1339.879842101722

DIPOLE MOMENT
-------------
                                X             Y             Z
Electronic contribution:    -26.16551       9.71369      11.97822
Nuclear contribution   :     26.79808      -9.86148     -12.00721
                        -----------------------------------------
Total Dipole Moment    :      0.63258      -0.14778      -0.02899
                        -----------------------------------------
Magnitude (a.u.)       :      0.65026
Magnitude (Debye)      :      1.65283

Rotational constants in cm-1:     0.019396     0.008090     0.005922
Rotational constants in MHz :   581.468551   242.538135   177.543895

                             ****ORCA TERMINATED NORMALLY****
TOTAL RUN TIME: 0 days 0 hours 0 minutes 21 seconds 262 msec
