                         Program Version 4.2.1 -  RELEASE  -
|  1> ! wB97X-D3 SP def2-SVP
|  2> %pal
|  3> nprocs 24
|  4> end
|  5>
|  6> * xyz 0 1
|  7> S 	 -110.14 	 56.0985 	 -92.2169
|  8> C 	 -110.81 	 57.1647 	 -90.944
|  9> C 	 -109.999 	 56.9649 	 -89.8001
| 10> C 	 -108.888 	 56.0648 	 -89.98
| 11> C 	 -108.668 	 55.7306 	 -91.3127
| 12> H 	 -108.208 	 55.7158 	 -89.1555
| 13> C 	 -110.336 	 57.7252 	 -88.5077
| 14> H 	 -110.84 	 58.56 	 -88.8268
| 15> H 	 -109.426 	 58.1034 	 -88.1287
| 16> C 	 -111.088 	 56.8861 	 -87.4644
| 17> H 	 -111.832 	 57.4836 	 -86.9288
| 18> H 	 -111.569 	 55.9898 	 -87.9738
| 19> C 	 -110.14 	 56.2952 	 -86.3799
| 20> H 	 -109.358 	 55.6891 	 -86.8327
| 21> H 	 -109.585 	 57.125 	 -85.8734
| 22> H 	 -110.6 	 55.6927 	 -85.6214
| 23> S 	 -108.062 	 53.2474 	 -92.2225
| 24> C 	 -106.391 	 52.8943 	 -92.6114
| 25> C 	 -105.54 	 53.9323 	 -92.2455
| 26> C 	 -106.286 	 55.0503 	 -91.8183
| 27> C 	 -107.637 	 54.8726 	 -91.8291
| 28> H 	 -104.499 	 54.0117 	 -92.3257
| 29> C 	 -105.622 	 56.4063 	 -91.4046
| 30> H 	 -104.911 	 56.2017 	 -90.5956
| 31> H 	 -106.316 	 57.086 	 -91.0018
| 32> C 	 -104.917 	 57.1413 	 -92.5808
| 33> H 	 -105.592 	 57.1672 	 -93.4496
| 34> H 	 -103.98 	 56.6163 	 -92.8724
| 35> C 	 -104.543 	 58.5463 	 -92.1496
| 36> H 	 -105.308 	 59.0518 	 -91.595
| 37> H 	 -104.43 	 59.0222 	 -93.1118
| 38> H 	 -103.593 	 58.6676 	 -91.5788
| 39> H 	 -111.629 	 57.8054 	 -90.9376
| 40> H 	 -106.105 	 51.8885 	 -92.9132
| 41> *
| 42>
| 43>                          ****END OF INPUT****

CARTESIAN COORDINATES (ANGSTROEM)
---------------------------------
  S    -110.140000   56.098500  -92.216900
  C    -110.810000   57.164700  -90.944000
  C    -109.999000   56.964900  -89.800100
  C    -108.888000   56.064800  -89.980000
  C    -108.668000   55.730600  -91.312700
  H    -108.208000   55.715800  -89.155500
  C    -110.336000   57.725200  -88.507700
  H    -110.840000   58.560000  -88.826800
  H    -109.426000   58.103400  -88.128700
  C    -111.088000   56.886100  -87.464400
  H    -111.832000   57.483600  -86.928800
  H    -111.569000   55.989800  -87.973800
  C    -110.140000   56.295200  -86.379900
  H    -109.358000   55.689100  -86.832700
  H    -109.585000   57.125000  -85.873400
  H    -110.600000   55.692700  -85.621400
  S    -108.062000   53.247400  -92.222500
  C    -106.391000   52.894300  -92.611400
  C    -105.540000   53.932300  -92.245500
  C    -106.286000   55.050300  -91.818300
  C    -107.637000   54.872600  -91.829100
  H    -104.499000   54.011700  -92.325700
  C    -105.622000   56.406300  -91.404600
  H    -104.911000   56.201700  -90.595600
  H    -106.316000   57.086000  -91.001800
  C    -104.917000   57.141300  -92.580800
  H    -105.592000   57.167200  -93.449600
  H    -103.980000   56.616300  -92.872400
  C    -104.543000   58.546300  -92.149600
  H    -105.308000   59.051800  -91.595000
  H    -104.430000   59.022200  -93.111800
  H    -103.593000   58.667600  -91.578800
  H    -111.629000   57.805400  -90.937600
  H    -106.105000   51.888500  -92.913200

 Total Charge           Charge          ....    0
 Multiplicity           Mult            ....    1
 Number of Electrons    NEL             ....  134
 Basis Dimension        Dim             ....  322

ORBITAL ENERGIES
----------------

  NO   OCC          E(Eh)            E(eV)
   0   2.0000     -88.965418     -2420.8721
   1   2.0000     -88.964494     -2420.8470
   2   2.0000     -10.330929      -281.1189
   3   2.0000     -10.321694      -280.8676
   4   2.0000     -10.317867      -280.7634
   5   2.0000     -10.316117      -280.7158
   6   2.0000     -10.305075      -280.4154
   7   2.0000     -10.301375      -280.3147
   8   2.0000     -10.298292      -280.2308
   9   2.0000     -10.292899      -280.0840
  10   2.0000     -10.292858      -280.0829
  11   2.0000     -10.287517      -279.9376
  12   2.0000     -10.287330      -279.9325
  13   2.0000     -10.282550      -279.8024
  14   2.0000     -10.279126      -279.7092
  15   2.0000     -10.273510      -279.5564
  16   2.0000      -8.080831      -219.8906
  17   2.0000      -8.078139      -219.8173
  18   2.0000      -6.039196      -164.3349
  19   2.0000      -6.036799      -164.2697
  20   2.0000      -6.035317      -164.2293
  21   2.0000      -6.032802      -164.1609
  22   2.0000      -6.031618      -164.1287
  23   2.0000      -6.028784      -164.0515
  24   2.0000      -1.009339       -27.4655
  25   2.0000      -0.979841       -26.6628
  26   2.0000      -0.909432       -24.7469
  27   2.0000      -0.905677       -24.6447
  28   2.0000      -0.869382       -23.6571
  29   2.0000      -0.853216       -23.2172
  30   2.0000      -0.837660       -22.7939
  31   2.0000      -0.815009       -22.1775
  32   2.0000      -0.781660       -21.2701
  33   2.0000      -0.769527       -20.9399
  34   2.0000      -0.703703       -19.1487
  35   2.0000      -0.699389       -19.0313
  36   2.0000      -0.694935       -18.9101
  37   2.0000      -0.669195       -18.2097
  38   2.0000      -0.639331       -17.3971
  39   2.0000      -0.614042       -16.7089
  40   2.0000      -0.600922       -16.3519
  41   2.0000      -0.569814       -15.5054
  42   2.0000      -0.563749       -15.3404
  43   2.0000      -0.551335       -15.0026
  44   2.0000      -0.539525       -14.6812
  45   2.0000      -0.525386       -14.2965
  46   2.0000      -0.518930       -14.1208
  47   2.0000      -0.509056       -13.8521
  48   2.0000      -0.507265       -13.8034
  49   2.0000      -0.501768       -13.6538
  50   2.0000      -0.486522       -13.2389
  51   2.0000      -0.479090       -13.0367
  52   2.0000      -0.471026       -12.8173
  53   2.0000      -0.467631       -12.7249
  54   2.0000      -0.456730       -12.4283
  55   2.0000      -0.452272       -12.3070
  56   2.0000      -0.445161       -12.1134
  57   2.0000      -0.435310       -11.8454
  58   2.0000      -0.428079       -11.6486
  59   2.0000      -0.426696       -11.6110
  60   2.0000      -0.420344       -11.4381
  61   2.0000      -0.413221       -11.2443
  62   2.0000      -0.407551       -11.0900
  63   2.0000      -0.341978        -9.3057
  64   2.0000      -0.330099        -8.9824
  65   2.0000      -0.323816        -8.8115
  66   2.0000      -0.298271        -8.1164
  67   0.0000       0.030694         0.8352
  68   0.0000       0.058583         1.5941
  69   0.0000       0.111923         3.0456
  70   0.0000       0.123955         3.3730
  71   0.0000       0.127548         3.4708

MULLIKEN ATOMIC CHARGES
-----------------------
   0 S :    0.096366
   1 C :   -0.072262
   2 C :   -0.164208
   3 C :    0.044278
   4 C :   -0.178392
   5 H :    0.041191
   6 C :    0.140580
   7 H :   -0.009542
   8 H :    0.008835
   9 C :   -0.075331
  10 H :    0.036523
  11 H :    0.052968
  12 C :   -0.072385
  13 H :    0.023341
  14 H :    0.028995
  15 H :    0.036699
  16 S :    0.115650
  17 C :   -0.092324
  18 C :    0.012623
  19 C :   -0.057516
  20 C :   -0.151399
  21 H :   -0.003515
  22 C :    0.088010
  23 H :    0.025929
  24 H :    0.008535
  25 C :   -0.102918
  26 H :    0.043047
  27 H :    0.032865
  28 C :   -0.039272
  29 H :    0.026229
  30 H :    0.029751
  31 H :    0.039433
  32 H :    0.025143
  33 H :    0.062073
Sum of atomic charges:    0.0000000

LOEWDIN ATOMIC CHARGES
----------------------
   0 S :    0.383965
   1 C :   -0.183040
   2 C :   -0.054356
   3 C :   -0.068320
   4 C :   -0.189120
   5 H :    0.040840
   6 C :   -0.022455
   7 H :    0.019312
   8 H :    0.023817
   9 C :   -0.039829
  10 H :    0.024718
  11 H :    0.035197
  12 C :   -0.069102
  13 H :    0.020133
  14 H :    0.025870
  15 H :    0.022374
  16 S :    0.419731
  17 C :   -0.175652
  18 C :   -0.060906
  19 C :   -0.052701
  20 C :   -0.219043
  21 H :    0.024612
  22 C :   -0.025607
  23 H :    0.030351
  24 H :    0.018427
  25 C :   -0.039454
  26 H :    0.028425
  27 H :    0.025475
  28 C :   -0.067890
  29 H :    0.020110
  30 H :    0.029129
  31 H :    0.029539
  32 H :    0.018326
  33 H :    0.027124

  Mayer bond orders larger than 0.100000
B(  0-S ,  1-C ) :   1.1223 B(  0-S ,  4-C ) :   1.1478 B(  1-C ,  2-C ) :   1.5970
B(  1-C ,  4-C ) :   0.1116 B(  1-C , 32-H ) :   0.9796 B(  2-C ,  3-C ) :   1.2416
B(  2-C ,  6-C ) :   1.0314 B(  3-C ,  4-C ) :   1.5588 B(  3-C ,  5-H ) :   0.9815
B(  4-C , 20-C ) :   1.0279 B(  6-C ,  7-H ) :   0.9340 B(  6-C ,  8-H ) :   0.9425
B(  6-C ,  9-C ) :   1.0332 B(  9-C , 10-H ) :   0.9599 B(  9-C , 11-H ) :   0.9623
B(  9-C , 12-C ) :   1.0737 B( 12-C , 13-H ) :   0.9772 B( 12-C , 14-H ) :   0.9757
B( 12-C , 15-H ) :   0.9754 B( 16-S , 17-C ) :   1.1692 B( 16-S , 20-C ) :   1.1481
B( 17-C , 18-C ) :   1.5613 B( 17-C , 33-H ) :   0.9701 B( 18-C , 19-C ) :   1.2709
B( 18-C , 21-H ) :   1.0011 B( 19-C , 20-C ) :   1.6187 B( 19-C , 22-C ) :   1.0353
B( 22-C , 23-H ) :   0.9339 B( 22-C , 24-H ) :   0.9375 B( 22-C , 25-C ) :   1.0640
B( 25-C , 26-H ) :   0.9616 B( 25-C , 27-H ) :   0.9505 B( 25-C , 28-C ) :   1.0833
B( 28-C , 29-H ) :   0.9748 B( 28-C , 30-H ) :   0.9747 B( 28-C , 31-H ) :   0.9745

Dispersion correction           -0.014024183
FINAL SINGLE POINT ENERGY     -1339.866974922583

DIPOLE MOMENT
-------------
                                X             Y             Z
Electronic contribution:     -8.94102     -16.23191     -16.70725
Nuclear contribution   :      9.30520      16.52305      17.22248
                        -----------------------------------------
Total Dipole Moment    :      0.36418       0.29114       0.51523
                        -----------------------------------------
Magnitude (a.u.)       :      0.69488
Magnitude (Debye)      :      1.76624

Rotational constants in cm-1:     0.017135     0.008361     0.007204
Rotational constants in MHz :   513.682565   250.656121   215.974463

                             ****ORCA TERMINATED NORMALLY****
TOTAL RUN TIME: 0 days 0 hours 0 minutes 20 seconds 185 msec
