                         Program Version 4.2.1 -  RELEASE  -
|  1> ! wB97X-D3 SP def2-SVP
|  2> %pal
|  3> nprocs 24
|  4> end
|  5>
|  6> * xyz 0 1
|  7> S 	 -89.7549 	 -3.77764 	 -121.327
|  8> C 	 -89.6242 	 -5.4715 	 -121.299
|  9> C 	 -90.5987 	 -6.06475 	 -120.52
| 10> C 	 -91.4768 	 -5.12291 	 -119.892
| 11> C 	 -91.1072 	 -3.8348 	 -120.153
| 12> H 	 -92.1868 	 -5.35215 	 -119.106
| 13> C 	 -90.6539 	 -7.52004 	 -120.239
| 14> H 	 -91.6919 	 -7.77119 	 -120.283
| 15> H 	 -90.3053 	 -7.51182 	 -119.253
| 16> C 	 -89.7942 	 -8.48953 	 -121.099
| 17> H 	 -89.9882 	 -8.43643 	 -122.15
| 18> H 	 -88.7239 	 -8.19597 	 -121.01
| 19> C 	 -89.8944 	 -9.98384 	 -120.723
| 20> H 	 -90.9057 	 -10.4813 	 -120.885
| 21> H 	 -89.0816 	 -10.5737 	 -121.178
| 22> H 	 -89.7455 	 -10.131 	 -119.635
| 23> S 	 -90.8221 	 -2.36015 	 -117.895
| 24> C 	 -91.8001 	 -0.994541 	 -117.586
| 25> C 	 -92.5598 	 -0.655571 	 -118.686
| 26> C 	 -92.4361 	 -1.60138 	 -119.722
| 27> C 	 -91.5995 	 -2.67019 	 -119.431
| 28> H 	 -93.0307 	 0.269422 	 -118.759
| 29> C 	 -93.2451 	 -1.43113 	 -120.993
| 30> H 	 -92.628 	 -1.38452 	 -121.882
| 31> H 	 -93.6574 	 -0.461013 	 -120.904
| 32> C 	 -94.4103 	 -2.50319 	 -121.19
| 33> H 	 -94.8511 	 -2.8977 	 -120.273
| 34> H 	 -93.8877 	 -3.33201 	 -121.644
| 35> C 	 -95.3729 	 -1.96578 	 -122.253
| 36> H 	 -96.2435 	 -2.51002 	 -122.378
| 37> H 	 -94.8319 	 -1.92674 	 -123.244
| 38> H 	 -95.7183 	 -0.986325 	 -122.003
| 39> H 	 -88.8346 	 -6.02584 	 -121.778
| 40> H 	 -91.675 	 -0.394905 	 -116.72
| 41> *
| 42>
| 43>                          ****END OF INPUT****

CARTESIAN COORDINATES (ANGSTROEM)
---------------------------------
  S    -89.754900   -3.777640  -121.327000
  C    -89.624200   -5.471500  -121.299000
  C    -90.598700   -6.064750  -120.520000
  C    -91.476800   -5.122910  -119.892000
  C    -91.107200   -3.834800  -120.153000
  H    -92.186800   -5.352150  -119.106000
  C    -90.653900   -7.520040  -120.239000
  H    -91.691900   -7.771190  -120.283000
  H    -90.305300   -7.511820  -119.253000
  C    -89.794200   -8.489530  -121.099000
  H    -89.988200   -8.436430  -122.150000
  H    -88.723900   -8.195970  -121.010000
  C    -89.894400   -9.983840  -120.723000
  H    -90.905700  -10.481300  -120.885000
  H    -89.081600  -10.573700  -121.178000
  H    -89.745500  -10.131000  -119.635000
  S    -90.822100   -2.360150  -117.895000
  C    -91.800100   -0.994541  -117.586000
  C    -92.559800   -0.655571  -118.686000
  C    -92.436100   -1.601380  -119.722000
  C    -91.599500   -2.670190  -119.431000
  H    -93.030700    0.269422  -118.759000
  C    -93.245100   -1.431130  -120.993000
  H    -92.628000   -1.384520  -121.882000
  H    -93.657400   -0.461013  -120.904000
  C    -94.410300   -2.503190  -121.190000
  H    -94.851100   -2.897700  -120.273000
  H    -93.887700   -3.332010  -121.644000
  C    -95.372900   -1.965780  -122.253000
  H    -96.243500   -2.510020  -122.378000
  H    -94.831900   -1.926740  -123.244000
  H    -95.718300   -0.986325  -122.003000
  H    -88.834600   -6.025840  -121.778000
  H    -91.675000   -0.394905  -116.720000

 Total Charge           Charge          ....    0
 Multiplicity           Mult            ....    1
 Number of Electrons    NEL             ....  134
 Basis Dimension        Dim             ....  322

ORBITAL ENERGIES
----------------

  NO   OCC          E(Eh)            E(eV)
   0   2.0000     -88.962646     -2420.7967
   1   2.0000     -88.961508     -2420.7657
   2   2.0000     -10.327730      -281.0318
   3   2.0000     -10.319499      -280.8078
   4   2.0000     -10.310689      -280.5681
   5   2.0000     -10.305733      -280.4333
   6   2.0000     -10.298149      -280.2269
   7   2.0000     -10.295908      -280.1659
   8   2.0000     -10.293242      -280.0933
   9   2.0000     -10.293004      -280.0869
  10   2.0000     -10.287884      -279.9475
  11   2.0000     -10.285072      -279.8710
  12   2.0000     -10.284941      -279.8675
  13   2.0000     -10.284717      -279.8614
  14   2.0000     -10.283252      -279.8215
  15   2.0000     -10.270507      -279.4747
  16   2.0000      -8.077732      -219.8063
  17   2.0000      -8.077212      -219.7921
  18   2.0000      -6.036183      -164.2529
  19   2.0000      -6.035486      -164.2339
  20   2.0000      -6.032209      -164.1447
  21   2.0000      -6.031489      -164.1252
  22   2.0000      -6.028525      -164.0445
  23   2.0000      -6.028257      -164.0372
  24   2.0000      -1.008445       -27.4412
  25   2.0000      -0.988529       -26.8992
  26   2.0000      -0.911309       -24.7980
  27   2.0000      -0.902201       -24.5501
  28   2.0000      -0.870426       -23.6855
  29   2.0000      -0.853489       -23.2246
  30   2.0000      -0.850773       -23.1507
  31   2.0000      -0.815590       -22.1933
  32   2.0000      -0.779083       -21.1999
  33   2.0000      -0.765213       -20.8225
  34   2.0000      -0.714612       -19.4456
  35   2.0000      -0.704978       -19.1834
  36   2.0000      -0.689739       -18.7688
  37   2.0000      -0.665715       -18.1150
  38   2.0000      -0.643903       -17.5215
  39   2.0000      -0.610751       -16.6194
  40   2.0000      -0.596453       -16.2303
  41   2.0000      -0.574807       -15.6413
  42   2.0000      -0.567408       -15.4400
  43   2.0000      -0.556877       -15.1534
  44   2.0000      -0.523664       -14.2496
  45   2.0000      -0.522635       -14.2216
  46   2.0000      -0.517559       -14.0835
  47   2.0000      -0.513561       -13.9747
  48   2.0000      -0.505645       -13.7593
  49   2.0000      -0.502123       -13.6635
  50   2.0000      -0.492812       -13.4101
  51   2.0000      -0.481129       -13.0922
  52   2.0000      -0.469480       -12.7752
  53   2.0000      -0.463447       -12.6110
  54   2.0000      -0.457275       -12.4431
  55   2.0000      -0.449571       -12.2334
  56   2.0000      -0.449139       -12.2217
  57   2.0000      -0.435770       -11.8579
  58   2.0000      -0.433562       -11.7978
  59   2.0000      -0.423708       -11.5297
  60   2.0000      -0.421107       -11.4589
  61   2.0000      -0.418308       -11.3827
  62   2.0000      -0.413750       -11.2587
  63   2.0000      -0.338254        -9.2044
  64   2.0000      -0.328685        -8.9440
  65   2.0000      -0.317186        -8.6311
  66   2.0000      -0.304944        -8.2980
  67   0.0000       0.046778         1.2729
  68   0.0000       0.053857         1.4655
  69   0.0000       0.115755         3.1499
  70   0.0000       0.126770         3.4496
  71   0.0000       0.132396         3.6027

MULLIKEN ATOMIC CHARGES
-----------------------
   0 S :    0.121683
   1 C :   -0.125691
   2 C :   -0.119678
   3 C :    0.039524
   4 C :   -0.153539
   5 H :    0.021856
   6 C :    0.115767
   7 H :    0.027084
   8 H :    0.028977
   9 C :   -0.095302
  10 H :    0.031805
  11 H :    0.033026
  12 C :   -0.071907
  13 H :    0.044529
  14 H :    0.041215
  15 H :    0.023875
  16 S :    0.117060
  17 C :   -0.077584
  18 C :   -0.017296
  19 C :   -0.035775
  20 C :   -0.194054
  21 H :   -0.001988
  22 C :    0.089569
  23 H :    0.027786
  24 H :   -0.008873
  25 C :   -0.070537
  26 H :    0.037577
  27 H :    0.034231
  28 C :   -0.021856
  29 H :    0.016424
  30 H :    0.035647
  31 H :    0.016216
  32 H :    0.044138
  33 H :    0.046088
Sum of atomic charges:   -0.0000000

LOEWDIN ATOMIC CHARGES
----------------------
   0 S :    0.403357
   1 C :   -0.217454
   2 C :   -0.064339
   3 C :   -0.053712
   4 C :   -0.188173
   5 H :    0.036633
   6 C :   -0.027605
   7 H :    0.030703
   8 H :    0.033394
   9 C :   -0.043302
  10 H :    0.021660
  11 H :    0.027498
  12 C :   -0.075488
  13 H :    0.031493
  14 H :    0.030214
  15 H :    0.024156
  16 S :    0.432814
  17 C :   -0.186647
  18 C :   -0.070981
  19 C :   -0.052454
  20 C :   -0.210766
  21 H :    0.022684
  22 C :   -0.022567
  23 H :    0.030643
  24 H :    0.017584
  25 C :   -0.033277
  26 H :    0.023999
  27 H :    0.025673
  28 C :   -0.060538
  29 H :    0.014451
  30 H :    0.034995
  31 H :    0.017670
  32 H :    0.025738
  33 H :    0.021942

  Mayer bond orders larger than 0.100000
B(  0-S ,  1-C ) :   1.1339 B(  0-S ,  4-C ) :   1.1389 B(  1-C ,  2-C ) :   1.6290
B(  1-C , 32-H ) :   0.9609 B(  2-C ,  3-C ) :   1.2328 B(  2-C ,  6-C ) :   1.0059
B(  3-C ,  4-C ) :   1.5957 B(  3-C ,  5-H ) :   0.9945 B(  4-C , 20-C ) :   1.0342
B(  6-C ,  7-H ) :   0.9385 B(  6-C ,  8-H ) :   0.9246 B(  6-C ,  9-C ) :   1.0819
B(  9-C , 10-H ) :   0.9585 B(  9-C , 11-H ) :   0.9445 B(  9-C , 12-C ) :   1.0853
B( 12-C , 13-H ) :   0.9751 B( 12-C , 14-H ) :   0.9736 B( 12-C , 15-H ) :   0.9739
B( 16-S , 17-C ) :   1.1942 B( 16-S , 20-C ) :   1.1541 B( 17-C , 18-C ) :   1.5595
B( 17-C , 20-C ) :   0.1034 B( 17-C , 33-H ) :   0.9700 B( 18-C , 19-C ) :   1.2859
B( 18-C , 21-H ) :   0.9995 B( 19-C , 20-C ) :   1.5629 B( 19-C , 22-C ) :   1.0469
B( 22-C , 23-H ) :   0.9290 B( 22-C , 24-H ) :   0.9383 B( 22-C , 25-C ) :   1.0441
B( 25-C , 26-H ) :   0.9656 B( 25-C , 27-H ) :   0.9549 B( 25-C , 28-C ) :   1.0799
B( 28-C , 29-H ) :   0.9738 B( 28-C , 30-H ) :   0.9731 B( 28-C , 31-H ) :   0.9780

Dispersion correction           -0.013856245
FINAL SINGLE POINT ENERGY     -1339.877842660476

DIPOLE MOMENT
-------------
                                X             Y             Z
Electronic contribution:     11.78320      15.98827      10.06051
Nuclear contribution   :    -11.96997     -16.21904     -10.03237
                        -----------------------------------------
Total Dipole Moment    :     -0.18677      -0.23077       0.02814
                        -----------------------------------------
Magnitude (a.u.)       :      0.29821
Magnitude (Debye)      :      0.75799

Rotational constants in cm-1:     0.020592     0.007284     0.006240
Rotational constants in MHz :   617.339770   218.366061   187.056958

                             ****ORCA TERMINATED NORMALLY****
TOTAL RUN TIME: 0 days 0 hours 0 minutes 21 seconds 68 msec
