                         Program Version 4.2.1 -  RELEASE  -
|  1> ! wB97X-D3 SP def2-SVP
|  2> %pal
|  3> nprocs 24
|  4> end
|  5>
|  6> * xyz 0 1
|  7> S 	 -57.94 	 3.08501 	 -33.1103
|  8> C 	 -58.5817 	 2.86071 	 -34.7402
|  9> C 	 -57.7388 	 3.47212 	 -35.7037
| 10> C 	 -56.5219 	 3.90697 	 -35.035
| 11> C 	 -56.5499 	 3.90951 	 -33.6659
| 12> H 	 -55.5784 	 4.27311 	 -35.4735
| 13> C 	 -57.9698 	 3.62749 	 -37.2315
| 14> H 	 -59.0053 	 3.30356 	 -37.3192
| 15> H 	 -57.4011 	 2.85796 	 -37.7846
| 16> C 	 -57.8823 	 5.03812 	 -37.8001
| 17> H 	 -58.7908 	 5.48383 	 -37.4676
| 18> H 	 -57.0025 	 5.63341 	 -37.5251
| 19> C 	 -57.8017 	 4.97428 	 -39.3327
| 20> H 	 -57.6455 	 5.95495 	 -39.6599
| 21> H 	 -56.8514 	 4.44932 	 -39.5172
| 22> H 	 -58.7028 	 4.49585 	 -39.765
| 23> S 	 -54.1969 	 3.32913 	 -32.4527
| 24> C 	 -53.3604 	 4.57755 	 -31.6125
| 25> C 	 -54.1178 	 5.7131 	 -31.5445
| 26> C 	 -55.3113 	 5.73756 	 -32.2614
| 27> C 	 -55.512 	 4.44161 	 -32.8209
| 28> H 	 -53.7984 	 6.4934 	 -30.9145
| 29> C 	 -56.2226 	 6.87926 	 -32.361
| 30> H 	 -56.0882 	 7.37931 	 -31.3782
| 31> H 	 -57.295 	 6.63555 	 -32.4613
| 32> C 	 -55.7866 	 7.93409 	 -33.4852
| 33> H 	 -55.4886 	 7.31108 	 -34.3292
| 34> H 	 -54.8358 	 8.41358 	 -33.3023
| 35> C 	 -56.9039 	 9.01494 	 -33.7499
| 36> H 	 -56.8968 	 9.5444 	 -32.7782
| 37> H 	 -57.8861 	 8.54376 	 -33.9054
| 38> H 	 -56.6684 	 9.57558 	 -34.6366
| 39> H 	 -59.5009 	 2.32225 	 -35.0692
| 40> H 	 -52.521 	 4.35156 	 -30.927
| 41> *
| 42>
| 43>                          ****END OF INPUT****

CARTESIAN COORDINATES (ANGSTROEM)
---------------------------------
  S    -57.940000    3.085010  -33.110300
  C    -58.581700    2.860710  -34.740200
  C    -57.738800    3.472120  -35.703700
  C    -56.521900    3.906970  -35.035000
  C    -56.549900    3.909510  -33.665900
  H    -55.578400    4.273110  -35.473500
  C    -57.969800    3.627490  -37.231500
  H    -59.005300    3.303560  -37.319200
  H    -57.401100    2.857960  -37.784600
  C    -57.882300    5.038120  -37.800100
  H    -58.790800    5.483830  -37.467600
  H    -57.002500    5.633410  -37.525100
  C    -57.801700    4.974280  -39.332700
  H    -57.645500    5.954950  -39.659900
  H    -56.851400    4.449320  -39.517200
  H    -58.702800    4.495850  -39.765000
  S    -54.196900    3.329130  -32.452700
  C    -53.360400    4.577550  -31.612500
  C    -54.117800    5.713100  -31.544500
  C    -55.311300    5.737560  -32.261400
  C    -55.512000    4.441610  -32.820900
  H    -53.798400    6.493400  -30.914500
  C    -56.222600    6.879260  -32.361000
  H    -56.088200    7.379310  -31.378200
  H    -57.295000    6.635550  -32.461300
  C    -55.786600    7.934090  -33.485200
  H    -55.488600    7.311080  -34.329200
  H    -54.835800    8.413580  -33.302300
  C    -56.903900    9.014940  -33.749900
  H    -56.896800    9.544400  -32.778200
  H    -57.886100    8.543760  -33.905400
  H    -56.668400    9.575580  -34.636600
  H    -59.500900    2.322250  -35.069200
  H    -52.521000    4.351560  -30.927000

 Total Charge           Charge          ....    0
 Multiplicity           Mult            ....    1
 Number of Electrons    NEL             ....  134
 Basis Dimension        Dim             ....  322

ORBITAL ENERGIES
----------------

  NO   OCC          E(Eh)            E(eV)
   0   2.0000     -88.965843     -2420.8837
   1   2.0000     -88.964957     -2420.8596
   2   2.0000     -10.324797      -280.9520
   3   2.0000     -10.320888      -280.8456
   4   2.0000     -10.317900      -280.7643
   5   2.0000     -10.312697      -280.6228
   6   2.0000     -10.308099      -280.4976
   7   2.0000     -10.302492      -280.3451
   8   2.0000     -10.296079      -280.1705
   9   2.0000     -10.295969      -280.1676
  10   2.0000     -10.290534      -280.0197
  11   2.0000     -10.288881      -279.9747
  12   2.0000     -10.284800      -279.8636
  13   2.0000     -10.284422      -279.8533
  14   2.0000     -10.283524      -279.8289
  15   2.0000     -10.277267      -279.6587
  16   2.0000      -8.080607      -219.8845
  17   2.0000      -8.080026      -219.8687
  18   2.0000      -6.039142      -164.3334
  19   2.0000      -6.038312      -164.3108
  20   2.0000      -6.035002      -164.2207
  21   2.0000      -6.034416      -164.2048
  22   2.0000      -6.031432      -164.1236
  23   2.0000      -6.031077      -164.1140
  24   2.0000      -1.007633       -27.4191
  25   2.0000      -0.983539       -26.7635
  26   2.0000      -0.913415       -24.8553
  27   2.0000      -0.905127       -24.6298
  28   2.0000      -0.869809       -23.6687
  29   2.0000      -0.851264       -23.1641
  30   2.0000      -0.843943       -22.9649
  31   2.0000      -0.809645       -22.0316
  32   2.0000      -0.782712       -21.2987
  33   2.0000      -0.768046       -20.8996
  34   2.0000      -0.706542       -19.2260
  35   2.0000      -0.698894       -19.0179
  36   2.0000      -0.688875       -18.7453
  37   2.0000      -0.660096       -17.9621
  38   2.0000      -0.639368       -17.3981
  39   2.0000      -0.613257       -16.6876
  40   2.0000      -0.598564       -16.2878
  41   2.0000      -0.572425       -15.5765
  42   2.0000      -0.565731       -15.3943
  43   2.0000      -0.554175       -15.0799
  44   2.0000      -0.528965       -14.3939
  45   2.0000      -0.525664       -14.3040
  46   2.0000      -0.518264       -14.1027
  47   2.0000      -0.513352       -13.9690
  48   2.0000      -0.502487       -13.6734
  49   2.0000      -0.492897       -13.4124
  50   2.0000      -0.492515       -13.4020
  51   2.0000      -0.476102       -12.9554
  52   2.0000      -0.468047       -12.7362
  53   2.0000      -0.462753       -12.5922
  54   2.0000      -0.453709       -12.3461
  55   2.0000      -0.443687       -12.0733
  56   2.0000      -0.443340       -12.0639
  57   2.0000      -0.440186       -11.9781
  58   2.0000      -0.434705       -11.8289
  59   2.0000      -0.430405       -11.7119
  60   2.0000      -0.426079       -11.5942
  61   2.0000      -0.415279       -11.3003
  62   2.0000      -0.412618       -11.2279
  63   2.0000      -0.335214        -9.1216
  64   2.0000      -0.324659        -8.8344
  65   2.0000      -0.316181        -8.6037
  66   2.0000      -0.308179        -8.3860
  67   0.0000       0.045427         1.2361
  68   0.0000       0.053912         1.4670
  69   0.0000       0.116083         3.1588
  70   0.0000       0.120056         3.2669
  71   0.0000       0.128981         3.5097

MULLIKEN ATOMIC CHARGES
-----------------------
   0 S :    0.126222
   1 C :   -0.136527
   2 C :   -0.105129
   3 C :    0.034627
   4 C :   -0.175086
   5 H :    0.018770
   6 C :    0.067529
   7 H :    0.006093
   8 H :    0.041971
   9 C :   -0.081052
  10 H :    0.027562
  11 H :    0.039121
  12 C :   -0.030416
  13 H :    0.020704
  14 H :    0.031279
  15 H :    0.043031
  16 S :    0.122523
  17 C :   -0.094650
  18 C :   -0.040242
  19 C :    0.026153
  20 C :   -0.229736
  21 H :   -0.003704
  22 C :    0.056196
  23 H :    0.024852
  24 H :    0.041007
  25 C :   -0.096314
  26 H :    0.021952
  27 H :    0.022614
  28 C :   -0.035203
  29 H :    0.042426
  30 H :    0.038288
  31 H :    0.043701
  32 H :    0.060937
  33 H :    0.070503
Sum of atomic charges:    0.0000000

LOEWDIN ATOMIC CHARGES
----------------------
   0 S :    0.419242
   1 C :   -0.210384
   2 C :   -0.060302
   3 C :   -0.064107
   4 C :   -0.229943
   5 H :    0.032297
   6 C :   -0.034316
   7 H :    0.029289
   8 H :    0.032371
   9 C :   -0.037406
  10 H :    0.021816
  11 H :    0.026291
  12 C :   -0.056858
  13 H :    0.017349
  14 H :    0.028864
  15 H :    0.028389
  16 S :    0.423658
  17 C :   -0.203446
  18 C :   -0.070894
  19 C :   -0.051277
  20 C :   -0.199414
  21 H :    0.023273
  22 C :   -0.033328
  23 H :    0.035078
  24 H :    0.036357
  25 C :   -0.038707
  26 H :    0.018446
  27 H :    0.020335
  28 C :   -0.063348
  29 H :    0.032902
  30 H :    0.027089
  31 H :    0.026262
  32 H :    0.037892
  33 H :    0.036532

  Mayer bond orders larger than 0.100000
B(  0-S ,  1-C ) :   1.1445 B(  0-S ,  4-C ) :   1.1455 B(  1-C ,  2-C ) :   1.6116
B(  1-C , 32-H ) :   0.9601 B(  2-C ,  3-C ) :   1.2248 B(  2-C ,  6-C ) :   1.0165
B(  3-C ,  4-C ) :   1.6098 B(  3-C ,  5-H ) :   0.9826 B(  4-C , 20-C ) :   1.0183
B(  6-C ,  7-H ) :   0.9351 B(  6-C ,  8-H ) :   0.9457 B(  6-C ,  9-C ) :   1.0535
B(  9-C , 10-H ) :   0.9557 B(  9-C , 11-H ) :   0.9633 B(  9-C , 12-C ) :   1.0810
B( 12-C , 13-H ) :   0.9743 B( 12-C , 14-H ) :   0.9767 B( 12-C , 15-H ) :   0.9750
B( 16-S , 17-C ) :   1.1627 B( 16-S , 20-C ) :   1.1831 B( 17-C , 18-C ) :   1.5913
B( 17-C , 20-C ) :   0.1114 B( 17-C , 33-H ) :   0.9591 B( 18-C , 19-C ) :   1.2711
B( 18-C , 21-H ) :   0.9903 B( 19-C , 20-C ) :   1.5325 B( 19-C , 22-C ) :   1.0626
B( 22-C , 23-H ) :   0.9242 B( 22-C , 24-H ) :   0.9381 B( 22-C , 25-C ) :   1.0358
B( 25-C , 26-H ) :   0.9601 B( 25-C , 27-H ) :   0.9578 B( 25-C , 28-C ) :   1.0645
B( 28-C , 29-H ) :   0.9760 B( 28-C , 30-H ) :   0.9787 B( 28-C , 31-H ) :   0.9757

Dispersion correction           -0.013973826
FINAL SINGLE POINT ENERGY     -1339.866621667440

DIPOLE MOMENT
-------------
                                X             Y             Z
Electronic contribution:      6.75691     -20.49233      20.01975
Nuclear contribution   :     -6.79611      20.96190     -20.34303
                        -----------------------------------------
Total Dipole Moment    :     -0.03919       0.46958      -0.32328
                        -----------------------------------------
Magnitude (a.u.)       :      0.57145
Magnitude (Debye)      :      1.45250

Rotational constants in cm-1:     0.016314     0.008960     0.007109
Rotational constants in MHz :   489.084449   268.618160   213.127709

                             ****ORCA TERMINATED NORMALLY****
TOTAL RUN TIME: 0 days 0 hours 0 minutes 20 seconds 334 msec
