                         Program Version 4.2.1 -  RELEASE  -
|  1> ! wB97X-D3 SP def2-SVP
|  2> %pal
|  3> nprocs 24
|  4> end
|  5>
|  6> * xyz 0 1
|  7> S 	 -119.577 	 61.321 	 -36.5089
|  8> C 	 -119.176 	 59.6552 	 -36.3909
|  9> C 	 -118.765 	 59.3308 	 -35.1198
| 10> C 	 -119.126 	 60.3651 	 -34.1903
| 11> C 	 -119.835 	 61.3824 	 -34.7934
| 12> H 	 -118.858 	 60.3242 	 -33.0886
| 13> C 	 -118.237 	 57.9658 	 -34.659
| 14> H 	 -119.132 	 57.2941 	 -34.3871
| 15> H 	 -117.615 	 58.0084 	 -33.7084
| 16> C 	 -117.31 	 57.324 	 -35.6931
| 17> H 	 -117.822 	 57.1764 	 -36.6589
| 18> H 	 -116.485 	 58.0764 	 -35.9289
| 19> C 	 -116.737 	 55.9295 	 -35.2751
| 20> H 	 -117.611 	 55.3175 	 -34.9388
| 21> H 	 -116.171 	 55.4608 	 -36.128
| 22> H 	 -116.054 	 56.1072 	 -34.4227
| 23> S 	 -119.739 	 64.1118 	 -34.168
| 24> C 	 -120.706 	 64.7284 	 -32.8171
| 25> C 	 -121.526 	 63.697 	 -32.3788
| 26> C 	 -121.372 	 62.3711 	 -32.9777
| 27> C 	 -120.415 	 62.4354 	 -34.0018
| 28> H 	 -122.272 	 63.9791 	 -31.6129
| 29> C 	 -122.059 	 61.208 	 -32.409
| 30> H 	 -122.221 	 60.4481 	 -33.2653
| 31> H 	 -123.062 	 61.4774 	 -32.098
| 32> C 	 -121.295 	 60.5659 	 -31.2639
| 33> H 	 -121.027 	 61.4283 	 -30.6932
| 34> H 	 -120.354 	 60.1621 	 -31.5614
| 35> C 	 -122.161 	 59.6315 	 -30.4054
| 36> H 	 -121.73 	 58.9497 	 -29.6767
| 37> H 	 -122.822 	 58.9448 	 -31.1072
| 38> H 	 -122.81 	 60.1506 	 -29.7493
| 39> H 	 -119.241 	 58.9625 	 -37.1791
| 40> H 	 -120.783 	 65.7378 	 -32.5539
| 41> *
| 42>
| 43>                          ****END OF INPUT****

CARTESIAN COORDINATES (ANGSTROEM)
---------------------------------
  S    -119.577000   61.321000  -36.508900
  C    -119.176000   59.655200  -36.390900
  C    -118.765000   59.330800  -35.119800
  C    -119.126000   60.365100  -34.190300
  C    -119.835000   61.382400  -34.793400
  H    -118.858000   60.324200  -33.088600
  C    -118.237000   57.965800  -34.659000
  H    -119.132000   57.294100  -34.387100
  H    -117.615000   58.008400  -33.708400
  C    -117.310000   57.324000  -35.693100
  H    -117.822000   57.176400  -36.658900
  H    -116.485000   58.076400  -35.928900
  C    -116.737000   55.929500  -35.275100
  H    -117.611000   55.317500  -34.938800
  H    -116.171000   55.460800  -36.128000
  H    -116.054000   56.107200  -34.422700
  S    -119.739000   64.111800  -34.168000
  C    -120.706000   64.728400  -32.817100
  C    -121.526000   63.697000  -32.378800
  C    -121.372000   62.371100  -32.977700
  C    -120.415000   62.435400  -34.001800
  H    -122.272000   63.979100  -31.612900
  C    -122.059000   61.208000  -32.409000
  H    -122.221000   60.448100  -33.265300
  H    -123.062000   61.477400  -32.098000
  C    -121.295000   60.565900  -31.263900
  H    -121.027000   61.428300  -30.693200
  H    -120.354000   60.162100  -31.561400
  C    -122.161000   59.631500  -30.405400
  H    -121.730000   58.949700  -29.676700
  H    -122.822000   58.944800  -31.107200
  H    -122.810000   60.150600  -29.749300
  H    -119.241000   58.962500  -37.179100
  H    -120.783000   65.737800  -32.553900

 Total Charge           Charge          ....    0
 Multiplicity           Mult            ....    1
 Number of Electrons    NEL             ....  134
 Basis Dimension        Dim             ....  322

ORBITAL ENERGIES
----------------

  NO   OCC          E(Eh)            E(eV)
   0   2.0000     -88.967305     -2420.9235
   1   2.0000     -88.961105     -2420.7547
   2   2.0000     -10.332843      -281.1710
   3   2.0000     -10.326688      -281.0035
   4   2.0000     -10.317255      -280.7468
   5   2.0000     -10.310009      -280.5496
   6   2.0000     -10.307742      -280.4879
   7   2.0000     -10.306943      -280.4662
   8   2.0000     -10.302736      -280.3517
   9   2.0000     -10.300142      -280.2811
  10   2.0000     -10.298512      -280.2368
  11   2.0000     -10.294218      -280.1199
  12   2.0000     -10.293870      -280.1104
  13   2.0000     -10.290769      -280.0261
  14   2.0000     -10.285318      -279.8777
  15   2.0000     -10.283831      -279.8373
  16   2.0000      -8.083070      -219.9515
  17   2.0000      -8.074788      -219.7262
  18   2.0000      -6.041628      -164.4011
  19   2.0000      -6.037817      -164.2973
  20   2.0000      -6.033521      -164.1805
  21   2.0000      -6.033323      -164.1751
  22   2.0000      -6.029431      -164.0692
  23   2.0000      -6.025394      -163.9593
  24   2.0000      -1.010655       -27.5013
  25   2.0000      -0.979259       -26.6470
  26   2.0000      -0.914806       -24.8931
  27   2.0000      -0.907941       -24.7063
  28   2.0000      -0.870770       -23.6948
  29   2.0000      -0.849557       -23.1176
  30   2.0000      -0.844771       -22.9874
  31   2.0000      -0.808930       -22.0121
  32   2.0000      -0.779249       -21.2044
  33   2.0000      -0.770158       -20.9571
  34   2.0000      -0.713814       -19.4239
  35   2.0000      -0.703334       -19.1387
  36   2.0000      -0.688523       -18.7357
  37   2.0000      -0.660136       -17.9632
  38   2.0000      -0.640573       -17.4309
  39   2.0000      -0.613111       -16.6836
  40   2.0000      -0.597178       -16.2500
  41   2.0000      -0.570313       -15.5190
  42   2.0000      -0.564497       -15.3608
  43   2.0000      -0.557551       -15.1717
  44   2.0000      -0.532788       -14.4979
  45   2.0000      -0.525319       -14.2947
  46   2.0000      -0.520437       -14.1618
  47   2.0000      -0.507857       -13.8195
  48   2.0000      -0.507362       -13.8060
  49   2.0000      -0.502712       -13.6795
  50   2.0000      -0.492607       -13.4045
  51   2.0000      -0.480304       -13.0697
  52   2.0000      -0.468316       -12.7435
  53   2.0000      -0.458591       -12.4789
  54   2.0000      -0.455184       -12.3862
  55   2.0000      -0.450741       -12.2653
  56   2.0000      -0.442653       -12.0452
  57   2.0000      -0.435042       -11.8381
  58   2.0000      -0.433157       -11.7868
  59   2.0000      -0.425407       -11.5759
  60   2.0000      -0.419961       -11.4277
  61   2.0000      -0.413438       -11.2502
  62   2.0000      -0.411072       -11.1858
  63   2.0000      -0.342148        -9.3103
  64   2.0000      -0.328242        -8.9319
  65   2.0000      -0.325622        -8.8606
  66   2.0000      -0.293362        -7.9828
  67   0.0000       0.025107         0.6832
  68   0.0000       0.056706         1.5431
  69   0.0000       0.105497         2.8707
  70   0.0000       0.119738         3.2582
  71   0.0000       0.127538         3.4705

MULLIKEN ATOMIC CHARGES
-----------------------
   0 S :    0.131081
   1 C :   -0.113266
   2 C :   -0.051050
   3 C :   -0.008114
   4 C :   -0.151524
   5 H :    0.054284
   6 C :    0.014683
   7 H :    0.057515
   8 H :    0.035527
   9 C :   -0.138872
  10 H :    0.029281
  11 H :    0.045607
  12 C :   -0.059604
  13 H :    0.041531
  14 H :    0.054283
  15 H :    0.038221
  16 S :    0.076132
  17 C :   -0.073945
  18 C :   -0.056186
  19 C :   -0.034104
  20 C :   -0.157088
  21 H :    0.028879
  22 C :    0.049133
  23 H :    0.042103
  24 H :    0.020337
  25 C :   -0.009812
  26 H :    0.012862
  27 H :    0.008564
  28 C :   -0.054877
  29 H :    0.029558
  30 H :    0.039048
  31 H :    0.020692
  32 H :    0.033937
  33 H :    0.045182
Sum of atomic charges:    0.0000000

LOEWDIN ATOMIC CHARGES
----------------------
   0 S :    0.420615
   1 C :   -0.190211
   2 C :   -0.065078
   3 C :   -0.055386
   4 C :   -0.205671
   5 H :    0.043103
   6 C :   -0.044318
   7 H :    0.041124
   8 H :    0.035539
   9 C :   -0.056036
  10 H :    0.018233
  11 H :    0.031885
  12 C :   -0.072565
  13 H :    0.030013
  14 H :    0.034768
  15 H :    0.025575
  16 S :    0.358250
  17 C :   -0.173178
  18 C :   -0.072966
  19 C :   -0.055725
  20 C :   -0.169761
  21 H :    0.032748
  22 C :   -0.035459
  23 H :    0.040259
  24 H :    0.031008
  25 C :   -0.035561
  26 H :    0.023694
  27 H :    0.016789
  28 C :   -0.073292
  29 H :    0.026335
  30 H :    0.035730
  31 H :    0.019478
  32 H :    0.018543
  33 H :    0.021520

  Mayer bond orders larger than 0.100000
B(  0-S ,  1-C ) :   1.1415 B(  0-S ,  4-C ) :   1.1360 B(  1-C ,  2-C ) :   1.6032
B(  1-C , 32-H ) :   0.9794 B(  2-C ,  3-C ) :   1.2345 B(  2-C ,  6-C ) :   1.0176
B(  3-C ,  4-C ) :   1.5566 B(  3-C ,  5-H ) :   0.9809 B(  4-C , 20-C ) :   1.0662
B(  6-C ,  7-H ) :   0.9355 B(  6-C ,  8-H ) :   0.9491 B(  6-C ,  9-C ) :   1.0538
B(  9-C , 10-H ) :   0.9530 B(  9-C , 11-H ) :   0.9597 B(  9-C , 12-C ) :   1.0732
B( 12-C , 13-H ) :   0.9730 B( 12-C , 14-H ) :   0.9743 B( 12-C , 15-H ) :   0.9760
B( 16-S , 17-C ) :   1.1285 B( 16-S , 20-C ) :   1.1245 B( 17-C , 18-C ) :   1.6413
B( 17-C , 33-H ) :   0.9750 B( 18-C , 19-C ) :   1.2005 B( 18-C , 21-H ) :   0.9792
B( 19-C , 20-C ) :   1.6076 B( 19-C , 22-C ) :   1.0777 B( 22-C , 23-H ) :   0.9142
B( 22-C , 24-H ) :   0.9315 B( 22-C , 25-C ) :   1.0558 B( 25-C , 26-H ) :   0.9536
B( 25-C , 27-H ) :   0.9483 B( 25-C , 28-C ) :   1.0685 B( 28-C , 29-H ) :   0.9753
B( 28-C , 30-H ) :   0.9742 B( 28-C , 31-H ) :   0.9750

Dispersion correction           -0.014159586
FINAL SINGLE POINT ENERGY     -1339.856584363139

DIPOLE MOMENT
-------------
                                X             Y             Z
Electronic contribution:     -0.97615      27.07262     -13.96171
Nuclear contribution   :      0.89406     -27.62271      14.44520
                        -----------------------------------------
Total Dipole Moment    :     -0.08209      -0.55009       0.48349
                        -----------------------------------------
Magnitude (a.u.)       :      0.73695
Magnitude (Debye)      :      1.87317

Rotational constants in cm-1:     0.018785     0.008232     0.006206
Rotational constants in MHz :   563.153914   246.778169   186.050983

                             ****ORCA TERMINATED NORMALLY****
TOTAL RUN TIME: 0 days 0 hours 0 minutes 21 seconds 339 msec
