                         Program Version 4.2.1 -  RELEASE  -
|  1> ! wB97X-D3 SP def2-SVP
|  2> %pal
|  3> nprocs 24
|  4> end
|  5>
|  6> * xyz 0 1
|  7> S 	 27.9789 	 -2.09837 	 -107.506
|  8> C 	 29.1355 	 -1.67387 	 -108.847
|  9> C 	 28.4561 	 -0.908064 	 -109.79
| 10> C 	 27.0464 	 -1.12436 	 -109.603
| 11> C 	 26.553 	 -1.77754 	 -108.494
| 12> H 	 26.3301 	 -0.697657 	 -110.238
| 13> C 	 29.0382 	 -0.0988863 	 -110.892
| 14> H 	 30.1187 	 -0.0300675 	 -110.729
| 15> H 	 28.8165 	 0.93391 	 -110.713
| 16> C 	 28.7867 	 -0.566025 	 -112.372
| 17> H 	 27.6812 	 -0.691635 	 -112.519
| 18> H 	 29.0662 	 0.247799 	 -113.093
| 19> C 	 29.3229 	 -1.94209 	 -112.813
| 20> H 	 30.3558 	 -2.00734 	 -112.932
| 21> H 	 28.9016 	 -2.71437 	 -112.214
| 22> H 	 28.8498 	 -2.12422 	 -113.8
| 23> S 	 24.787 	 -1.14831 	 -106.44
| 24> C 	 23.179 	 -1.69814 	 -106.458
| 25> C 	 22.9413 	 -2.3391 	 -107.643
| 26> C 	 24.0638 	 -2.48863 	 -108.548
| 27> C 	 25.2083 	 -1.97354 	 -107.938
| 28> H 	 21.9035 	 -2.62142 	 -107.895
| 29> C 	 23.9179 	 -2.95861 	 -109.974
| 30> H 	 23.3935 	 -3.89895 	 -110.014
| 31> H 	 24.8611 	 -3.18262 	 -110.517
| 32> C 	 23.0707 	 -1.95255 	 -110.844
| 33> H 	 23.5517 	 -0.992151 	 -111.075
| 34> H 	 22.1056 	 -1.85839 	 -110.413
| 35> C 	 22.8814 	 -2.54805 	 -112.279
| 36> H 	 23.8265 	 -2.88918 	 -112.718
| 37> H 	 22.5716 	 -1.75797 	 -112.967
| 38> H 	 22.1205 	 -3.3182 	 -112.278
| 39> H 	 30.1935 	 -1.86751 	 -108.932
| 40> H 	 22.421 	 -1.40703 	 -105.875
| 41> *
| 42>
| 43>                          ****END OF INPUT****

CARTESIAN COORDINATES (ANGSTROEM)
---------------------------------
  S     27.978900   -2.098370  -107.506000
  C     29.135500   -1.673870  -108.847000
  C     28.456100   -0.908064  -109.790000
  C     27.046400   -1.124360  -109.603000
  C     26.553000   -1.777540  -108.494000
  H     26.330100   -0.697657  -110.238000
  C     29.038200   -0.098886  -110.892000
  H     30.118700   -0.030067  -110.729000
  H     28.816500    0.933910  -110.713000
  C     28.786700   -0.566025  -112.372000
  H     27.681200   -0.691635  -112.519000
  H     29.066200    0.247799  -113.093000
  C     29.322900   -1.942090  -112.813000
  H     30.355800   -2.007340  -112.932000
  H     28.901600   -2.714370  -112.214000
  H     28.849800   -2.124220  -113.800000
  S     24.787000   -1.148310  -106.440000
  C     23.179000   -1.698140  -106.458000
  C     22.941300   -2.339100  -107.643000
  C     24.063800   -2.488630  -108.548000
  C     25.208300   -1.973540  -107.938000
  H     21.903500   -2.621420  -107.895000
  C     23.917900   -2.958610  -109.974000
  H     23.393500   -3.898950  -110.014000
  H     24.861100   -3.182620  -110.517000
  C     23.070700   -1.952550  -110.844000
  H     23.551700   -0.992151  -111.075000
  H     22.105600   -1.858390  -110.413000
  C     22.881400   -2.548050  -112.279000
  H     23.826500   -2.889180  -112.718000
  H     22.571600   -1.757970  -112.967000
  H     22.120500   -3.318200  -112.278000
  H     30.193500   -1.867510  -108.932000
  H     22.421000   -1.407030  -105.875000

 Total Charge           Charge          ....    0
 Multiplicity           Mult            ....    1
 Number of Electrons    NEL             ....  134
 Basis Dimension        Dim             ....  322

ORBITAL ENERGIES
----------------

  NO   OCC          E(Eh)            E(eV)
   0   2.0000     -88.965929     -2420.8860
   1   2.0000     -88.959791     -2420.7190
   2   2.0000     -10.332062      -281.1497
   3   2.0000     -10.331686      -281.1395
   4   2.0000     -10.321103      -280.8515
   5   2.0000     -10.308407      -280.5060
   6   2.0000     -10.306783      -280.4618
   7   2.0000     -10.304760      -280.4068
   8   2.0000     -10.299694      -280.2689
   9   2.0000     -10.297554      -280.2107
  10   2.0000     -10.295752      -280.1617
  11   2.0000     -10.295332      -280.1502
  12   2.0000     -10.291507      -280.0461
  13   2.0000     -10.290466      -280.0178
  14   2.0000     -10.280275      -279.7405
  15   2.0000     -10.274995      -279.5968
  16   2.0000      -8.081321      -219.9039
  17   2.0000      -8.073510      -219.6914
  18   2.0000      -6.039841      -164.3524
  19   2.0000      -6.035743      -164.2409
  20   2.0000      -6.032325      -164.1479
  21   2.0000      -6.031992      -164.1388
  22   2.0000      -6.028266      -164.0375
  23   2.0000      -6.023853      -163.9174
  24   2.0000      -1.006716       -27.3941
  25   2.0000      -0.982736       -26.7416
  26   2.0000      -0.909747       -24.7555
  27   2.0000      -0.908163       -24.7124
  28   2.0000      -0.870221       -23.6799
  29   2.0000      -0.851135       -23.1606
  30   2.0000      -0.839230       -22.8366
  31   2.0000      -0.816264       -22.2117
  32   2.0000      -0.787609       -21.4319
  33   2.0000      -0.776748       -21.1364
  34   2.0000      -0.711281       -19.3549
  35   2.0000      -0.701505       -19.0889
  36   2.0000      -0.697487       -18.9796
  37   2.0000      -0.657556       -17.8930
  38   2.0000      -0.644814       -17.5463
  39   2.0000      -0.619118       -16.8471
  40   2.0000      -0.603985       -16.4353
  41   2.0000      -0.573842       -15.6150
  42   2.0000      -0.571092       -15.5402
  43   2.0000      -0.546421       -14.8689
  44   2.0000      -0.542890       -14.7728
  45   2.0000      -0.523657       -14.2494
  46   2.0000      -0.521126       -14.1806
  47   2.0000      -0.514862       -14.0101
  48   2.0000      -0.510656       -13.8957
  49   2.0000      -0.503235       -13.6937
  50   2.0000      -0.491523       -13.3750
  51   2.0000      -0.477054       -12.9813
  52   2.0000      -0.469613       -12.7788
  53   2.0000      -0.467276       -12.7152
  54   2.0000      -0.460508       -12.5311
  55   2.0000      -0.447325       -12.1723
  56   2.0000      -0.440762       -11.9937
  57   2.0000      -0.435441       -11.8489
  58   2.0000      -0.433857       -11.8059
  59   2.0000      -0.432207       -11.7610
  60   2.0000      -0.418620       -11.3912
  61   2.0000      -0.414646       -11.2831
  62   2.0000      -0.411474       -11.1968
  63   2.0000      -0.347495        -9.4558
  64   2.0000      -0.328160        -8.9297
  65   2.0000      -0.323101        -8.7920
  66   2.0000      -0.294358        -8.0099
  67   0.0000       0.031444         0.8556
  68   0.0000       0.060034         1.6336
  69   0.0000       0.106141         2.8882
  70   0.0000       0.116531         3.1710
  71   0.0000       0.124075         3.3763

MULLIKEN ATOMIC CHARGES
-----------------------
   0 S :    0.078471
   1 C :   -0.114446
   2 C :   -0.097272
   3 C :    0.041235
   4 C :   -0.143853
   5 H :   -0.022040
   6 C :    0.101009
   7 H :    0.007778
   8 H :    0.033569
   9 C :   -0.120728
  10 H :    0.030702
  11 H :    0.040459
  12 C :   -0.015939
  13 H :    0.027869
  14 H :    0.034398
  15 H :    0.027650
  16 S :    0.114818
  17 C :   -0.023209
  18 C :   -0.069562
  19 C :    0.002158
  20 C :   -0.145831
  21 H :    0.023625
  22 C :    0.052977
  23 H :    0.021534
  24 H :    0.031877
  25 C :   -0.079098
  26 H :    0.041513
  27 H :    0.027898
  28 C :   -0.061602
  29 H :    0.028771
  30 H :    0.030928
  31 H :    0.032998
  32 H :    0.048725
  33 H :    0.012616
Sum of atomic charges:    0.0000000

LOEWDIN ATOMIC CHARGES
----------------------
   0 S :    0.365078
   1 C :   -0.167663
   2 C :   -0.062597
   3 C :   -0.060728
   4 C :   -0.186175
   5 H :    0.015527
   6 C :   -0.040397
   7 H :    0.031618
   8 H :    0.037444
   9 C :   -0.044838
  10 H :    0.026160
  11 H :    0.029335
  12 C :   -0.058344
  13 H :    0.014030
  14 H :    0.025268
  15 H :    0.034507
  16 S :    0.426235
  17 C :   -0.185145
  18 C :   -0.070584
  19 C :   -0.051804
  20 C :   -0.198635
  21 H :    0.030479
  22 C :   -0.032679
  23 H :    0.030661
  24 H :    0.034216
  25 C :   -0.028634
  26 H :    0.026539
  27 H :    0.018501
  28 C :   -0.066463
  29 H :    0.023738
  30 H :    0.025933
  31 H :    0.020690
  32 H :    0.029126
  33 H :    0.009602

  Mayer bond orders larger than 0.100000
B(  0-S ,  1-C ) :   1.1324 B(  0-S ,  4-C ) :   1.1200 B(  1-C ,  2-C ) :   1.6005
B(  1-C ,  4-C ) :   0.1040 B(  1-C , 32-H ) :   0.9692 B(  2-C ,  3-C ) :   1.2188
B(  2-C ,  6-C ) :   1.0423 B(  3-C ,  4-C ) :   1.5982 B(  3-C ,  5-H ) :   1.0024
B(  4-C , 20-C ) :   1.0251 B(  6-C ,  7-H ) :   0.9327 B(  6-C ,  8-H ) :   0.9288
B(  6-C ,  9-C ) :   1.0521 B(  9-C , 10-H ) :   0.9622 B(  9-C , 11-H ) :   0.9565
B(  9-C , 12-C ) :   1.0758 B( 12-C , 13-H ) :   0.9787 B( 12-C , 14-H ) :   0.9731
B( 12-C , 15-H ) :   0.9709 B( 16-S , 17-C ) :   1.1544 B( 16-S , 20-C ) :   1.1541
B( 17-C , 18-C ) :   1.6140 B( 17-C , 33-H ) :   0.9803 B( 18-C , 19-C ) :   1.2350
B( 18-C , 21-H ) :   0.9814 B( 19-C , 20-C ) :   1.5899 B( 19-C , 22-C ) :   1.0598
B( 22-C , 23-H ) :   0.9316 B( 22-C , 24-H ) :   0.9371 B( 22-C , 25-C ) :   1.0594
B( 25-C , 26-H ) :   0.9612 B( 25-C , 27-H ) :   0.9569 B( 25-C , 28-C ) :   1.0794
B( 28-C , 29-H ) :   0.9742 B( 28-C , 30-H ) :   0.9770 B( 28-C , 31-H ) :   0.9778

Dispersion correction           -0.014098473
FINAL SINGLE POINT ENERGY     -1339.855324451771

DIPOLE MOMENT
-------------
                                X             Y             Z
Electronic contribution:      1.87503       0.66093      31.64784
Nuclear contribution   :     -2.16135      -0.37453     -32.51869
                        -----------------------------------------
Total Dipole Moment    :     -0.28633       0.28640      -0.87085
                        -----------------------------------------
Magnitude (a.u.)       :      0.96041
Magnitude (Debye)      :      2.44116

Rotational constants in cm-1:     0.016875     0.009507     0.006585
Rotational constants in MHz :   505.884854   285.011699   197.423069

                             ****ORCA TERMINATED NORMALLY****
TOTAL RUN TIME: 0 days 0 hours 0 minutes 21 seconds 495 msec
