                         Program Version 4.2.1 -  RELEASE  -
|  1> ! wB97X-D3 SP def2-SVP
|  2> %pal
|  3> nprocs 24
|  4> end
|  5>
|  6> * xyz 0 1
|  7> S 	 -42.142 	 5.58274 	 1.52425
|  8> C 	 -42.5231 	 4.57506 	 0.131335
|  9> C 	 -41.6217 	 3.55518 	 -0.013501
| 10> C 	 -40.4555 	 3.71456 	 0.85371
| 11> C 	 -40.5748 	 4.77722 	 1.78999
| 12> H 	 -39.5373 	 3.10607 	 0.916017
| 13> C 	 -41.7861 	 2.41174 	 -0.948973
| 14> H 	 -40.7606 	 2.14456 	 -1.26354
| 15> H 	 -42.2774 	 2.66191 	 -1.858
| 16> C 	 -42.4029 	 1.14761 	 -0.358203
| 17> H 	 -41.8332 	 0.742287 	 0.535932
| 18> H 	 -43.4757 	 1.26424 	 -0.0441895
| 19> C 	 -42.4289 	 0.0573384 	 -1.391
| 20> H 	 -41.6805 	 0.220111 	 -2.22014
| 21> H 	 -42.3306 	 -0.928295 	 -1.05251
| 22> H 	 -43.4289 	 0.0498896 	 -1.8604
| 23> S 	 -37.9179 	 5.26984 	 2.25069
| 24> C 	 -37.482 	 6.02134 	 3.77819
| 25> C 	 -38.5329 	 6.3602 	 4.56428
| 26> C 	 -39.7769 	 5.92411 	 4.03534
| 27> C 	 -39.6326 	 5.313 	 2.76301
| 28> H 	 -38.6632 	 6.86103 	 5.50009
| 29> C 	 -41.1216 	 6.24517 	 4.69633
| 30> H 	 -41.9583 	 5.54207 	 4.3323
| 31> H 	 -41.4429 	 7.21859 	 4.29781
| 32> C 	 -41.2806 	 6.26774 	 6.14842
| 33> H 	 -42.3386 	 6.34777 	 6.2355
| 34> H 	 -40.6862 	 7.13247 	 6.65397
| 35> C 	 -40.8229 	 5.0323 	 6.89409
| 36> H 	 -41.3181 	 4.21523 	 6.37261
| 37> H 	 -41.1098 	 5.05556 	 7.91879
| 38> H 	 -39.7445 	 4.7279 	 6.78295
| 39> H 	 -43.3908 	 4.75309 	 -0.414666
| 40> H 	 -36.4246 	 6.24574 	 4.09195
| 41> *
| 42>
| 43>                          ****END OF INPUT****

CARTESIAN COORDINATES (ANGSTROEM)
---------------------------------
  S    -42.142000    5.582740    1.524250
  C    -42.523100    4.575060    0.131335
  C    -41.621700    3.555180   -0.013501
  C    -40.455500    3.714560    0.853710
  C    -40.574800    4.777220    1.789990
  H    -39.537300    3.106070    0.916017
  C    -41.786100    2.411740   -0.948973
  H    -40.760600    2.144560   -1.263540
  H    -42.277400    2.661910   -1.858000
  C    -42.402900    1.147610   -0.358203
  H    -41.833200    0.742287    0.535932
  H    -43.475700    1.264240   -0.044189
  C    -42.428900    0.057338   -1.391000
  H    -41.680500    0.220111   -2.220140
  H    -42.330600   -0.928295   -1.052510
  H    -43.428900    0.049890   -1.860400
  S    -37.917900    5.269840    2.250690
  C    -37.482000    6.021340    3.778190
  C    -38.532900    6.360200    4.564280
  C    -39.776900    5.924110    4.035340
  C    -39.632600    5.313000    2.763010
  H    -38.663200    6.861030    5.500090
  C    -41.121600    6.245170    4.696330
  H    -41.958300    5.542070    4.332300
  H    -41.442900    7.218590    4.297810
  C    -41.280600    6.267740    6.148420
  H    -42.338600    6.347770    6.235500
  H    -40.686200    7.132470    6.653970
  C    -40.822900    5.032300    6.894090
  H    -41.318100    4.215230    6.372610
  H    -41.109800    5.055560    7.918790
  H    -39.744500    4.727900    6.782950
  H    -43.390800    4.753090   -0.414666
  H    -36.424600    6.245740    4.091950

 Total Charge           Charge          ....    0
 Multiplicity           Mult            ....    1
 Number of Electrons    NEL             ....  134
 Basis Dimension        Dim             ....  322

ORBITAL ENERGIES
----------------

  NO   OCC          E(Eh)            E(eV)
   0   2.0000     -88.970512     -2421.0107
   1   2.0000     -88.962560     -2420.7943
   2   2.0000     -10.336708      -281.2761
   3   2.0000     -10.332781      -281.1693
   4   2.0000     -10.323188      -280.9082
   5   2.0000     -10.310032      -280.5502
   6   2.0000     -10.305652      -280.4310
   7   2.0000     -10.304140      -280.3899
   8   2.0000     -10.303256      -280.3658
   9   2.0000     -10.295992      -280.1682
  10   2.0000     -10.291836      -280.0551
  11   2.0000     -10.290756      -280.0257
  12   2.0000     -10.290345      -280.0145
  13   2.0000     -10.288059      -279.9523
  14   2.0000     -10.274082      -279.5720
  15   2.0000     -10.273855      -279.5658
  16   2.0000      -8.084305      -219.9851
  17   2.0000      -8.076493      -219.7725
  18   2.0000      -6.042893      -164.4355
  19   2.0000      -6.039099      -164.3322
  20   2.0000      -6.035102      -164.2235
  21   2.0000      -6.034897      -164.2179
  22   2.0000      -6.031049      -164.1132
  23   2.0000      -6.027278      -164.0106
  24   2.0000      -0.999840       -27.2070
  25   2.0000      -0.979192       -26.6452
  26   2.0000      -0.920881       -25.0585
  27   2.0000      -0.915818       -24.9207
  28   2.0000      -0.871428       -23.7128
  29   2.0000      -0.853149       -23.2154
  30   2.0000      -0.842375       -22.9222
  31   2.0000      -0.812640       -22.1131
  32   2.0000      -0.787126       -21.4188
  33   2.0000      -0.771676       -20.9984
  34   2.0000      -0.706253       -19.2181
  35   2.0000      -0.695973       -18.9384
  36   2.0000      -0.685156       -18.6440
  37   2.0000      -0.667423       -18.1615
  38   2.0000      -0.643097       -17.4996
  39   2.0000      -0.611833       -16.6488
  40   2.0000      -0.600815       -16.3490
  41   2.0000      -0.569430       -15.4950
  42   2.0000      -0.562315       -15.3014
  43   2.0000      -0.559575       -15.2268
  44   2.0000      -0.548803       -14.9337
  45   2.0000      -0.521455       -14.1895
  46   2.0000      -0.518445       -14.1076
  47   2.0000      -0.511001       -13.9051
  48   2.0000      -0.507450       -13.8084
  49   2.0000      -0.500607       -13.6222
  50   2.0000      -0.493030       -13.4160
  51   2.0000      -0.477250       -12.9866
  52   2.0000      -0.464129       -12.6296
  53   2.0000      -0.461435       -12.5563
  54   2.0000      -0.457709       -12.4549
  55   2.0000      -0.451708       -12.2916
  56   2.0000      -0.445573       -12.1247
  57   2.0000      -0.440723       -11.9927
  58   2.0000      -0.435795       -11.8586
  59   2.0000      -0.420562       -11.4441
  60   2.0000      -0.416459       -11.3324
  61   2.0000      -0.410445       -11.1688
  62   2.0000      -0.402613       -10.9557
  63   2.0000      -0.354464        -9.6455
  64   2.0000      -0.335045        -9.1170
  65   2.0000      -0.326054        -8.8724
  66   2.0000      -0.282892        -7.6979
  67   0.0000       0.020960         0.5703
  68   0.0000       0.075998         2.0680
  69   0.0000       0.100636         2.7384
  70   0.0000       0.114670         3.1203
  71   0.0000       0.128520         3.4972

MULLIKEN ATOMIC CHARGES
-----------------------
   0 S :    0.078487
   1 C :   -0.098301
   2 C :   -0.055318
   3 C :    0.004273
   4 C :   -0.152443
   5 H :    0.026610
   6 C :    0.065284
   7 H :    0.021188
   8 H :    0.017992
   9 C :   -0.086118
  10 H :    0.040673
  11 H :    0.037444
  12 C :   -0.046260
  13 H :    0.031794
  14 H :    0.022066
  15 H :    0.027497
  16 S :    0.107578
  17 C :   -0.088424
  18 C :    0.015361
  19 C :   -0.064739
  20 C :   -0.141651
  21 H :    0.001737
  22 C :    0.012509
  23 H :    0.038800
  24 H :    0.049896
  25 C :   -0.083354
  26 H :    0.031009
  27 H :    0.036392
  28 C :   -0.049010
  29 H :    0.015950
  30 H :    0.037785
  31 H :    0.044024
  32 H :    0.027505
  33 H :    0.073766
Sum of atomic charges:   -0.0000000

LOEWDIN ATOMIC CHARGES
----------------------
   0 S :    0.389420
   1 C :   -0.178573
   2 C :   -0.059460
   3 C :   -0.073087
   4 C :   -0.180741
   5 H :    0.032822
   6 C :   -0.033162
   7 H :    0.034429
   8 H :    0.027004
   9 C :   -0.045809
  10 H :    0.030857
  11 H :    0.029593
  12 C :   -0.071065
  13 H :    0.028325
  14 H :    0.017610
  15 H :    0.028245
  16 S :    0.395692
  17 C :   -0.185109
  18 C :   -0.070969
  19 C :   -0.055294
  20 C :   -0.187413
  21 H :    0.031925
  22 C :   -0.049302
  23 H :    0.034509
  24 H :    0.038972
  25 C :   -0.051467
  26 H :    0.030962
  27 H :    0.025757
  28 C :   -0.070262
  29 H :    0.024457
  30 H :    0.022825
  31 H :    0.032724
  32 H :    0.015290
  33 H :    0.040295

  Mayer bond orders larger than 0.100000
B(  0-S ,  1-C ) :   1.1289 B(  0-S ,  4-C ) :   1.1385 B(  1-C ,  2-C ) :   1.6125
B(  1-C , 32-H ) :   0.9830 B(  2-C ,  3-C ) :   1.2158 B(  2-C ,  6-C ) :   1.0370
B(  3-C ,  4-C ) :   1.5692 B(  3-C ,  5-H ) :   0.9844 B(  4-C , 20-C ) :   1.0712
B(  6-C ,  7-H ) :   0.9306 B(  6-C ,  8-H ) :   0.9424 B(  6-C ,  9-C ) :   1.0679
B(  9-C , 10-H ) :   0.9586 B(  9-C , 11-H ) :   0.9591 B(  9-C , 12-C ) :   1.0680
B( 12-C , 13-H ) :   0.9738 B( 12-C , 14-H ) :   0.9751 B( 12-C , 15-H ) :   0.9759
B( 16-S , 17-C ) :   1.1440 B( 16-S , 20-C ) :   1.1320 B( 17-C , 18-C ) :   1.5909
B( 17-C , 33-H ) :   0.9566 B( 18-C , 19-C ) :   1.2713 B( 18-C , 21-H ) :   0.9841
B( 19-C , 20-C ) :   1.5702 B( 19-C , 22-C ) :   1.0249 B( 22-C , 23-H ) :   0.9289
B( 22-C , 24-H ) :   0.9300 B( 22-C , 25-C ) :   1.0962 B( 25-C , 26-H ) :   0.9471
B( 25-C , 27-H ) :   0.9427 B( 25-C , 28-C ) :   1.0882 B( 28-C , 29-H ) :   0.9688
B( 28-C , 30-H ) :   0.9739 B( 28-C , 31-H ) :   0.9692

Dispersion correction           -0.013759233
FINAL SINGLE POINT ENERGY     -1339.867398255700

DIPOLE MOMENT
-------------
                                X             Y             Z
Electronic contribution:     10.70190      14.40551      -4.16278
Nuclear contribution   :    -10.93883     -14.62826       4.26961
                        -----------------------------------------
Total Dipole Moment    :     -0.23693      -0.22274       0.10682
                        -----------------------------------------
Magnitude (a.u.)       :      0.34229
Magnitude (Debye)      :      0.87002

Rotational constants in cm-1:     0.022173     0.007026     0.006285
Rotational constants in MHz :   664.734206   210.636820   188.421749

                             ****ORCA TERMINATED NORMALLY****
TOTAL RUN TIME: 0 days 0 hours 0 minutes 20 seconds 929 msec
