                         Program Version 4.2.1 -  RELEASE  -
|  1> ! wB97X-D3 SP def2-SVP
|  2> %pal
|  3> nprocs 24
|  4> end
|  5>
|  6> * xyz 0 1
|  7> S 	 35.9417 	 -7.17842 	 -115.743
|  8> C 	 37.0301 	 -8.53716 	 -115.634
|  9> C 	 37.8335 	 -8.40106 	 -114.5
| 10> C 	 37.6394 	 -7.16909 	 -113.744
| 11> C 	 36.5755 	 -6.53789 	 -114.246
| 12> H 	 38.1386 	 -6.84872 	 -112.894
| 13> C 	 38.9917 	 -9.29124 	 -114.121
| 14> H 	 39.3611 	 -9.00186 	 -113.116
| 15> H 	 39.7113 	 -8.96155 	 -114.79
| 16> C 	 38.7699 	 -10.7957 	 -114.04
| 17> H 	 38.0709 	 -10.9305 	 -113.248
| 18> H 	 38.2054 	 -11.1657 	 -114.888
| 19> C 	 39.9247 	 -11.6638 	 -113.748
| 20> H 	 39.5704 	 -12.7639 	 -113.858
| 21> H 	 40.7978 	 -11.4767 	 -114.351
| 22> H 	 40.3632 	 -11.4241 	 -112.784
| 23> S 	 36.275 	 -3.85532 	 -114.301
| 24> C 	 35.2645 	 -3.01854 	 -113.167
| 25> C 	 34.5973 	 -3.94173 	 -112.397
| 26> C 	 34.9157 	 -5.28888 	 -112.639
| 27> C 	 35.8199 	 -5.40017 	 -113.707
| 28> H 	 33.971 	 -3.6712 	 -111.498
| 29> C 	 34.3855 	 -6.41904 	 -111.844
| 30> H 	 33.9206 	 -6.07393 	 -110.985
| 31> H 	 35.2844 	 -6.95341 	 -111.561
| 32> C 	 33.4025 	 -7.45753 	 -112.53
| 33> H 	 33.2634 	 -8.34601 	 -111.873
| 34> H 	 34.0147 	 -7.70548 	 -113.374
| 35> C 	 32.0505 	 -7.0502 	 -112.988
| 36> H 	 31.2572 	 -7.25977 	 -112.238
| 37> H 	 31.7703 	 -7.66929 	 -113.86
| 38> H 	 32.0655 	 -6.01086 	 -113.217
| 39> H 	 37.048 	 -9.45951 	 -116.139
| 40> H 	 35.2439 	 -1.94526 	 -113.007
| 41> *
| 42>
| 43>                          ****END OF INPUT****

CARTESIAN COORDINATES (ANGSTROEM)
---------------------------------
  S     35.941700   -7.178420  -115.743000
  C     37.030100   -8.537160  -115.634000
  C     37.833500   -8.401060  -114.500000
  C     37.639400   -7.169090  -113.744000
  C     36.575500   -6.537890  -114.246000
  H     38.138600   -6.848720  -112.894000
  C     38.991700   -9.291240  -114.121000
  H     39.361100   -9.001860  -113.116000
  H     39.711300   -8.961550  -114.790000
  C     38.769900  -10.795700  -114.040000
  H     38.070900  -10.930500  -113.248000
  H     38.205400  -11.165700  -114.888000
  C     39.924700  -11.663800  -113.748000
  H     39.570400  -12.763900  -113.858000
  H     40.797800  -11.476700  -114.351000
  H     40.363200  -11.424100  -112.784000
  S     36.275000   -3.855320  -114.301000
  C     35.264500   -3.018540  -113.167000
  C     34.597300   -3.941730  -112.397000
  C     34.915700   -5.288880  -112.639000
  C     35.819900   -5.400170  -113.707000
  H     33.971000   -3.671200  -111.498000
  C     34.385500   -6.419040  -111.844000
  H     33.920600   -6.073930  -110.985000
  H     35.284400   -6.953410  -111.561000
  C     33.402500   -7.457530  -112.530000
  H     33.263400   -8.346010  -111.873000
  H     34.014700   -7.705480  -113.374000
  C     32.050500   -7.050200  -112.988000
  H     31.257200   -7.259770  -112.238000
  H     31.770300   -7.669290  -113.860000
  H     32.065500   -6.010860  -113.217000
  H     37.048000   -9.459510  -116.139000
  H     35.243900   -1.945260  -113.007000

 Total Charge           Charge          ....    0
 Multiplicity           Mult            ....    1
 Number of Electrons    NEL             ....  134
 Basis Dimension        Dim             ....  322

ORBITAL ENERGIES
----------------

  NO   OCC          E(Eh)            E(eV)
   0   2.0000     -88.966565     -2420.9033
   1   2.0000     -88.965142     -2420.8646
   2   2.0000     -10.326440      -280.9967
   3   2.0000     -10.320922      -280.8466
   4   2.0000     -10.314903      -280.6828
   5   2.0000     -10.309044      -280.5233
   6   2.0000     -10.303645      -280.3764
   7   2.0000     -10.298958      -280.2489
   8   2.0000     -10.292883      -280.0836
   9   2.0000     -10.291045      -280.0336
  10   2.0000     -10.285949      -279.8949
  11   2.0000     -10.281870      -279.7839
  12   2.0000     -10.281350      -279.7698
  13   2.0000     -10.279739      -279.7259
  14   2.0000     -10.278056      -279.6801
  15   2.0000     -10.269017      -279.4342
  16   2.0000      -8.081072      -219.8971
  17   2.0000      -8.080628      -219.8851
  18   2.0000      -6.039685      -164.3482
  19   2.0000      -6.038962      -164.3285
  20   2.0000      -6.035560      -164.2359
  21   2.0000      -6.034797      -164.2152
  22   2.0000      -6.031770      -164.1328
  23   2.0000      -6.031756      -164.1324
  24   2.0000      -1.012874       -27.5617
  25   2.0000      -0.988574       -26.9005
  26   2.0000      -0.918665       -24.9981
  27   2.0000      -0.907816       -24.7029
  28   2.0000      -0.871328       -23.7100
  29   2.0000      -0.857544       -23.3349
  30   2.0000      -0.853765       -23.2321
  31   2.0000      -0.820336       -22.3225
  32   2.0000      -0.785168       -21.3655
  33   2.0000      -0.770909       -20.9775
  34   2.0000      -0.711221       -19.3533
  35   2.0000      -0.702492       -19.1158
  36   2.0000      -0.684083       -18.6149
  37   2.0000      -0.661867       -18.0103
  38   2.0000      -0.649454       -17.6725
  39   2.0000      -0.617105       -16.7923
  40   2.0000      -0.592481       -16.1222
  41   2.0000      -0.576427       -15.6854
  42   2.0000      -0.560949       -15.2642
  43   2.0000      -0.554806       -15.0970
  44   2.0000      -0.549133       -14.9427
  45   2.0000      -0.532598       -14.4927
  46   2.0000      -0.516102       -14.0438
  47   2.0000      -0.515048       -14.0152
  48   2.0000      -0.508731       -13.8433
  49   2.0000      -0.502050       -13.6615
  50   2.0000      -0.486070       -13.2266
  51   2.0000      -0.483740       -13.1632
  52   2.0000      -0.481494       -13.1021
  53   2.0000      -0.469825       -12.7846
  54   2.0000      -0.460838       -12.5400
  55   2.0000      -0.454860       -12.3774
  56   2.0000      -0.446594       -12.1524
  57   2.0000      -0.432467       -11.7680
  58   2.0000      -0.427425       -11.6308
  59   2.0000      -0.423149       -11.5145
  60   2.0000      -0.415381       -11.3031
  61   2.0000      -0.412342       -11.2204
  62   2.0000      -0.401358       -10.9215
  63   2.0000      -0.341821        -9.3014
  64   2.0000      -0.331166        -9.0115
  65   2.0000      -0.319657        -8.6983
  66   2.0000      -0.305072        -8.3014
  67   0.0000       0.048532         1.3206
  68   0.0000       0.051055         1.3893
  69   0.0000       0.114959         3.1282
  70   0.0000       0.125210         3.4071
  71   0.0000       0.129893         3.5346

MULLIKEN ATOMIC CHARGES
-----------------------
   0 S :    0.119673
   1 C :   -0.081356
   2 C :   -0.139544
   3 C :    0.093719
   4 C :   -0.167460
   5 H :   -0.008586
   6 C :    0.077722
   7 H :    0.012095
   8 H :    0.029015
   9 C :   -0.059634
  10 H :    0.018318
  11 H :    0.016054
  12 C :   -0.039879
  13 H :    0.055989
  14 H :    0.018894
  15 H :    0.018877
  16 S :    0.125480
  17 C :   -0.096459
  18 C :   -0.055884
  19 C :   -0.037621
  20 C :   -0.199992
  21 H :    0.033328
  22 C :    0.132120
  23 H :   -0.012355
  24 H :    0.023958
  25 C :   -0.085081
  26 H :    0.031701
  27 H :    0.020768
  28 C :   -0.028147
  29 H :    0.028333
  30 H :    0.038220
  31 H :    0.026991
  32 H :    0.029715
  33 H :    0.061026
Sum of atomic charges:   -0.0000000

LOEWDIN ATOMIC CHARGES
----------------------
   0 S :    0.413294
   1 C :   -0.207702
   2 C :   -0.047129
   3 C :   -0.049231
   4 C :   -0.186869
   5 H :    0.026271
   6 C :   -0.031011
   7 H :    0.029554
   8 H :    0.025861
   9 C :   -0.048137
  10 H :    0.025374
  11 H :    0.018991
  12 C :   -0.068567
  13 H :    0.044503
  14 H :    0.020755
  15 H :    0.023483
  16 S :    0.438964
  17 C :   -0.198650
  18 C :   -0.081723
  19 C :   -0.060340
  20 C :   -0.224691
  21 H :    0.039291
  22 C :   -0.026260
  23 H :    0.014176
  24 H :    0.037952
  25 C :   -0.040623
  26 H :    0.028057
  27 H :    0.016290
  28 C :   -0.067857
  29 H :    0.026269
  30 H :    0.034474
  31 H :    0.021643
  32 H :    0.020753
  33 H :    0.032835

  Mayer bond orders larger than 0.100000
B(  0-S ,  1-C ) :   1.1081 B(  0-S ,  4-C ) :   1.1602 B(  1-C ,  2-C ) :   1.6539
B(  1-C , 32-H ) :   0.9715 B(  2-C ,  3-C ) :   1.1796 B(  2-C ,  6-C ) :   1.0123
B(  3-C ,  4-C ) :   1.6391 B(  3-C ,  5-H ) :   1.0091 B(  4-C , 20-C ) :   0.9567
B(  6-C ,  7-H ) :   0.9425 B(  6-C ,  8-H ) :   0.9357 B(  6-C ,  9-C ) :   1.0576
B(  9-C , 10-H ) :   0.9499 B(  9-C , 11-H ) :   0.9555 B(  9-C , 12-C ) :   1.0956
B( 12-C , 13-H ) :   0.9701 B( 12-C , 14-H ) :   0.9725 B( 12-C , 15-H ) :   0.9681
B( 16-S , 17-C ) :   1.1705 B( 16-S , 20-C ) :   1.1916 B( 17-C , 18-C ) :   1.5647
B( 17-C , 20-C ) :   0.1098 B( 17-C , 33-H ) :   0.9702 B( 18-C , 19-C ) :   1.2957
B( 18-C , 21-H ) :   0.9747 B( 19-C , 20-C ) :   1.5447 B( 19-C , 22-C ) :   1.0533
B( 22-C , 23-H ) :   0.9231 B( 22-C , 24-H ) :   0.9195 B( 22-C , 25-C ) :   1.0695
B( 25-C , 26-H ) :   0.9561 B( 25-C , 27-H ) :   0.9584 B( 25-C , 28-C ) :   1.0824
B( 28-C , 29-H ) :   0.9750 B( 28-C , 30-H ) :   0.9711 B( 28-C , 31-H ) :   0.9752

Dispersion correction           -0.014550897
FINAL SINGLE POINT ENERGY     -1339.860887130068

DIPOLE MOMENT
-------------
                                X             Y             Z
Electronic contribution:     -0.24873      22.58954     -10.98732
Nuclear contribution   :      0.47520     -22.93826      11.52271
                        -----------------------------------------
Total Dipole Moment    :      0.22646      -0.34873       0.53538
                        -----------------------------------------
Magnitude (a.u.)       :      0.67789
Magnitude (Debye)      :      1.72306

Rotational constants in cm-1:     0.021619     0.007723     0.006813
Rotational constants in MHz :   648.130461   231.522568   204.243346

                             ****ORCA TERMINATED NORMALLY****
TOTAL RUN TIME: 0 days 0 hours 0 minutes 20 seconds 567 msec
