                         Program Version 4.2.1 -  RELEASE  -
|  1> ! wB97X-D3 SP def2-SVP
|  2> %pal
|  3> nprocs 24
|  4> end
|  5>
|  6> * xyz 0 1
|  7> S 	 -147.362 	 11.6633 	 -5.83037
|  8> C 	 -147.603 	 10.825 	 -4.33011
|  9> C 	 -148.587 	 9.82372 	 -4.4923
| 10> C 	 -149.112 	 9.76231 	 -5.82876
| 11> C 	 -148.734 	 10.8925 	 -6.52533
| 12> H 	 -149.894 	 9.0469 	 -6.12576
| 13> C 	 -149.036 	 8.84727 	 -3.41754
| 14> H 	 -150.207 	 8.81631 	 -3.40725
| 15> H 	 -148.591 	 9.25235 	 -2.4903
| 16> C 	 -148.438 	 7.46622 	 -3.39584
| 17> H 	 -148.849 	 6.9882 	 -2.47747
| 18> H 	 -148.772 	 6.9238 	 -4.19141
| 19> C 	 -146.891 	 7.49973 	 -3.46158
| 20> H 	 -146.517 	 6.56322 	 -3.41753
| 21> H 	 -146.582 	 7.82605 	 -4.46358
| 22> H 	 -146.274 	 8.00018 	 -2.70956
| 23> S 	 -148.533 	 10.9041 	 -9.31854
| 24> C 	 -149.66 	 11.8706 	 -10.2914
| 25> C 	 -150.549 	 12.5087 	 -9.41223
| 26> C 	 -150.303 	 12.2435 	 -7.98146
| 27> C 	 -149.252 	 11.3549 	 -7.77555
| 28> H 	 -151.312 	 13.1418 	 -9.77503
| 29> C 	 -151.116 	 12.9164 	 -6.96388
| 30> H 	 -151.468 	 12.1821 	 -6.2857
| 31> H 	 -152.041 	 13.3029 	 -7.44894
| 32> C 	 -150.482 	 13.9313 	 -6.19751
| 33> H 	 -149.869 	 14.4229 	 -6.92011
| 34> H 	 -149.86 	 13.4778 	 -5.41957
| 35> C 	 -151.381 	 14.9722 	 -5.48546
| 36> H 	 -151.742 	 14.4392 	 -4.55006
| 37> H 	 -152.262 	 15.3308 	 -5.99019
| 38> H 	 -150.853 	 15.8356 	 -5.20773
| 39> H 	 -147.023 	 10.871 	 -3.43994
| 40> H 	 -149.769 	 12.0164 	 -11.3187
| 41> *
| 42>
| 43>                          ****END OF INPUT****

CARTESIAN COORDINATES (ANGSTROEM)
---------------------------------
  S    -147.362000   11.663300   -5.830370
  C    -147.603000   10.825000   -4.330110
  C    -148.587000    9.823720   -4.492300
  C    -149.112000    9.762310   -5.828760
  C    -148.734000   10.892500   -6.525330
  H    -149.894000    9.046900   -6.125760
  C    -149.036000    8.847270   -3.417540
  H    -150.207000    8.816310   -3.407250
  H    -148.591000    9.252350   -2.490300
  C    -148.438000    7.466220   -3.395840
  H    -148.849000    6.988200   -2.477470
  H    -148.772000    6.923800   -4.191410
  C    -146.891000    7.499730   -3.461580
  H    -146.517000    6.563220   -3.417530
  H    -146.582000    7.826050   -4.463580
  H    -146.274000    8.000180   -2.709560
  S    -148.533000   10.904100   -9.318540
  C    -149.660000   11.870600  -10.291400
  C    -150.549000   12.508700   -9.412230
  C    -150.303000   12.243500   -7.981460
  C    -149.252000   11.354900   -7.775550
  H    -151.312000   13.141800   -9.775030
  C    -151.116000   12.916400   -6.963880
  H    -151.468000   12.182100   -6.285700
  H    -152.041000   13.302900   -7.448940
  C    -150.482000   13.931300   -6.197510
  H    -149.869000   14.422900   -6.920110
  H    -149.860000   13.477800   -5.419570
  C    -151.381000   14.972200   -5.485460
  H    -151.742000   14.439200   -4.550060
  H    -152.262000   15.330800   -5.990190
  H    -150.853000   15.835600   -5.207730
  H    -147.023000   10.871000   -3.439940
  H    -149.769000   12.016400  -11.318700

 Total Charge           Charge          ....    0
 Multiplicity           Mult            ....    1
 Number of Electrons    NEL             ....  134
 Basis Dimension        Dim             ....  322

ORBITAL ENERGIES
----------------

  NO   OCC          E(Eh)            E(eV)
   0   2.0000     -88.969521     -2420.9838
   1   2.0000     -88.965212     -2420.8665
   2   2.0000     -10.326932      -281.0101
   3   2.0000     -10.323021      -280.9037
   4   2.0000     -10.318633      -280.7843
   5   2.0000     -10.313644      -280.6485
   6   2.0000     -10.302649      -280.3493
   7   2.0000     -10.301337      -280.3136
   8   2.0000     -10.298638      -280.2402
   9   2.0000     -10.297588      -280.2116
  10   2.0000     -10.294085      -280.1163
  11   2.0000     -10.284133      -279.8455
  12   2.0000     -10.273441      -279.5545
  13   2.0000     -10.272979      -279.5420
  14   2.0000     -10.270153      -279.4651
  15   2.0000     -10.269436      -279.4455
  16   2.0000      -8.084540      -219.9915
  17   2.0000      -8.078983      -219.8403
  18   2.0000      -6.042963      -164.4374
  19   2.0000      -6.039019      -164.3301
  20   2.0000      -6.037746      -164.2954
  21   2.0000      -6.035332      -164.2297
  22   2.0000      -6.033422      -164.1778
  23   2.0000      -6.029721      -164.0770
  24   2.0000      -1.009147       -27.4603
  25   2.0000      -0.979940       -26.6655
  26   2.0000      -0.922727       -25.1087
  27   2.0000      -0.916115       -24.9288
  28   2.0000      -0.869545       -23.6615
  29   2.0000      -0.849829       -23.1250
  30   2.0000      -0.843498       -22.9528
  31   2.0000      -0.813836       -22.1456
  32   2.0000      -0.787013       -21.4157
  33   2.0000      -0.775218       -21.0948
  34   2.0000      -0.715405       -19.4672
  35   2.0000      -0.699712       -19.0401
  36   2.0000      -0.689585       -18.7646
  37   2.0000      -0.664248       -18.0751
  38   2.0000      -0.638462       -17.3734
  39   2.0000      -0.621948       -16.9241
  40   2.0000      -0.600281       -16.3345
  41   2.0000      -0.572303       -15.5732
  42   2.0000      -0.567726       -15.4486
  43   2.0000      -0.554709       -15.0944
  44   2.0000      -0.545158       -14.8345
  45   2.0000      -0.526030       -14.3140
  46   2.0000      -0.519205       -14.1283
  47   2.0000      -0.516155       -14.0453
  48   2.0000      -0.508361       -13.8332
  49   2.0000      -0.499239       -13.5850
  50   2.0000      -0.487269       -13.2593
  51   2.0000      -0.481324       -13.0975
  52   2.0000      -0.468525       -12.7492
  53   2.0000      -0.462185       -12.5767
  54   2.0000      -0.457476       -12.4486
  55   2.0000      -0.450890       -12.2693
  56   2.0000      -0.445224       -12.1152
  57   2.0000      -0.439566       -11.9612
  58   2.0000      -0.432238       -11.7618
  59   2.0000      -0.423607       -11.5269
  60   2.0000      -0.415744       -11.3130
  61   2.0000      -0.409246       -11.1362
  62   2.0000      -0.403788       -10.9876
  63   2.0000      -0.335099        -9.1185
  64   2.0000      -0.326439        -8.8829
  65   2.0000      -0.317150        -8.6301
  66   2.0000      -0.310102        -8.4383
  67   0.0000       0.041138         1.1194
  68   0.0000       0.048260         1.3132
  69   0.0000       0.112620         3.0645
  70   0.0000       0.124289         3.3821
  71   0.0000       0.125525         3.4157

MULLIKEN ATOMIC CHARGES
-----------------------
   0 S :    0.139621
   1 C :   -0.091011
   2 C :   -0.140618
   3 C :    0.066289
   4 C :   -0.203153
   5 H :    0.030387
   6 C :    0.024875
   7 H :    0.053021
   8 H :    0.013091
   9 C :   -0.017759
  10 H :    0.036985
  11 H :    0.004219
  12 C :   -0.033375
  13 H :   -0.000964
  14 H :    0.039139
  15 H :    0.027321
  16 S :    0.111700
  17 C :   -0.063077
  18 C :   -0.033497
  19 C :   -0.054768
  20 C :   -0.161736
  21 H :    0.005399
  22 C :    0.144397
  23 H :    0.003905
  24 H :    0.007378
  25 C :   -0.075655
  26 H :    0.013631
  27 H :    0.039740
  28 C :   -0.034812
  29 H :    0.030247
  30 H :    0.020946
  31 H :    0.026600
  32 H :    0.034268
  33 H :    0.037265
Sum of atomic charges:   -0.0000000

LOEWDIN ATOMIC CHARGES
----------------------
   0 S :    0.439788
   1 C :   -0.206187
   2 C :   -0.063882
   3 C :   -0.053682
   4 C :   -0.205455
   5 H :    0.039036
   6 C :   -0.043140
   7 H :    0.041372
   8 H :    0.030864
   9 C :   -0.030075
  10 H :    0.031227
  11 H :    0.009203
  12 C :   -0.063283
  13 H :    0.012171
  14 H :    0.033412
  15 H :    0.026174
  16 S :    0.394432
  17 C :   -0.174681
  18 C :   -0.063238
  19 C :   -0.044077
  20 C :   -0.211226
  21 H :    0.021364
  22 C :   -0.041296
  23 H :    0.027659
  24 H :    0.032358
  25 C :   -0.042739
  26 H :    0.018542
  27 H :    0.027758
  28 C :   -0.060144
  29 H :    0.032271
  30 H :    0.019190
  31 H :    0.020429
  32 H :    0.022358
  33 H :    0.023497

  Mayer bond orders larger than 0.100000
B(  0-S ,  1-C ) :   1.1394 B(  0-S ,  4-C ) :   1.1733 B(  1-C ,  2-C ) :   1.5916
B(  1-C ,  4-C ) :   0.1018 B(  1-C , 32-H ) :   0.9689 B(  2-C ,  3-C ) :   1.2463
B(  2-C ,  6-C ) :   1.0314 B(  3-C ,  4-C ) :   1.5659 B(  3-C ,  5-H ) :   0.9881
B(  4-C , 20-C ) :   1.0287 B(  6-C ,  7-H ) :   0.9427 B(  6-C ,  8-H ) :   0.9379
B(  6-C ,  9-C ) :   1.0694 B(  9-C , 10-H ) :   0.9571 B(  9-C , 11-H ) :   0.9499
B(  9-C , 12-C ) :   1.0761 B( 12-C , 13-H ) :   0.9679 B( 12-C , 14-H ) :   0.9671
B( 12-C , 15-H ) :   0.9766 B( 16-S , 17-C ) :   1.1432 B( 16-S , 20-C ) :   1.1285
B( 17-C , 18-C ) :   1.6172 B( 17-C , 33-H ) :   0.9738 B( 18-C , 19-C ) :   1.2373
B( 18-C , 21-H ) :   0.9891 B( 19-C , 20-C ) :   1.5970 B( 19-C , 22-C ) :   1.0676
B( 22-C , 23-H ) :   0.8984 B( 22-C , 24-H ) :   0.9205 B( 22-C , 25-C ) :   1.0764
B( 25-C , 26-H ) :   0.9549 B( 25-C , 27-H ) :   0.9472 B( 25-C , 28-C ) :   1.0885
B( 28-C , 29-H ) :   0.9756 B( 28-C , 30-H ) :   0.9758 B( 28-C , 31-H ) :   0.9756

Dispersion correction           -0.015144948
FINAL SINGLE POINT ENERGY     -1339.845432130252

DIPOLE MOMENT
-------------
                                X             Y             Z
Electronic contribution:      8.70607       1.43948     -18.56407
Nuclear contribution   :     -9.04836      -1.59617      18.89371
                        -----------------------------------------
Total Dipole Moment    :     -0.34229      -0.15669       0.32964
                        -----------------------------------------
Magnitude (a.u.)       :      0.50038
Magnitude (Debye)      :      1.27185

Rotational constants in cm-1:     0.020186     0.008595     0.007042
Rotational constants in MHz :   605.164379   257.660967   211.128448

                             ****ORCA TERMINATED NORMALLY****
TOTAL RUN TIME: 0 days 0 hours 0 minutes 20 seconds 702 msec
