                         Program Version 4.2.1 -  RELEASE  -
|  1> ! wB97X-D3 SP def2-SVP
|  2> %pal
|  3> nprocs 24
|  4> end
|  5>
|  6> * xyz 0 1
|  7> S 	 -122.527 	 65.3974 	 -43.6199
|  8> C 	 -123.309 	 66.8044 	 -42.8914
|  9> C 	 -122.419 	 67.7897 	 -42.5361
| 10> C 	 -121.103 	 67.2362 	 -42.5219
| 11> C 	 -120.996 	 65.9449 	 -43.0912
| 12> H 	 -120.202 	 67.7512 	 -42.257
| 13> C 	 -122.767 	 69.179 	 -41.9744
| 14> H 	 -123.223 	 68.946 	 -40.972
| 15> H 	 -123.603 	 69.594 	 -42.5177
| 16> C 	 -121.632 	 70.2557 	 -41.9451
| 17> H 	 -120.781 	 69.8061 	 -41.4486
| 18> H 	 -121.258 	 70.4275 	 -42.9566
| 19> C 	 -121.991 	 71.5157 	 -41.2174
| 20> H 	 -121.165 	 72.2337 	 -41.181
| 21> H 	 -122.877 	 72.093 	 -41.6463
| 22> H 	 -122.27 	 71.2802 	 -40.195
| 23> S 	 -119.895 	 63.4509 	 -43.0124
| 24> C 	 -118.378 	 63.0778 	 -43.7357
| 25> C 	 -117.864 	 64.2556 	 -44.3517
| 26> C 	 -118.649 	 65.4297 	 -44.0812
| 27> C 	 -119.837 	 65.0884 	 -43.4336
| 28> H 	 -116.855 	 64.2025 	 -44.7228
| 29> C 	 -118.018 	 66.8148 	 -44.2567
| 30> H 	 -118.807 	 67.5135 	 -44.0382
| 31> H 	 -117.747 	 66.8942 	 -45.3121
| 32> C 	 -116.843 	 67.2686 	 -43.3096
| 33> H 	 -116.523 	 68.2817 	 -43.6146
| 34> H 	 -115.996 	 66.6035 	 -43.5003
| 35> C 	 -117.241 	 67.4355 	 -41.8111
| 36> H 	 -116.328 	 67.6535 	 -41.246
| 37> H 	 -117.718 	 66.5127 	 -41.3679
| 38> H 	 -117.841 	 68.2612 	 -41.5466
| 39> H 	 -124.358 	 66.9086 	 -42.6886
| 40> H 	 -117.97 	 62.0492 	 -43.8648
| 41> *
| 42>
| 43>                          ****END OF INPUT****

CARTESIAN COORDINATES (ANGSTROEM)
---------------------------------
  S    -122.527000   65.397400  -43.619900
  C    -123.309000   66.804400  -42.891400
  C    -122.419000   67.789700  -42.536100
  C    -121.103000   67.236200  -42.521900
  C    -120.996000   65.944900  -43.091200
  H    -120.202000   67.751200  -42.257000
  C    -122.767000   69.179000  -41.974400
  H    -123.223000   68.946000  -40.972000
  H    -123.603000   69.594000  -42.517700
  C    -121.632000   70.255700  -41.945100
  H    -120.781000   69.806100  -41.448600
  H    -121.258000   70.427500  -42.956600
  C    -121.991000   71.515700  -41.217400
  H    -121.165000   72.233700  -41.181000
  H    -122.877000   72.093000  -41.646300
  H    -122.270000   71.280200  -40.195000
  S    -119.895000   63.450900  -43.012400
  C    -118.378000   63.077800  -43.735700
  C    -117.864000   64.255600  -44.351700
  C    -118.649000   65.429700  -44.081200
  C    -119.837000   65.088400  -43.433600
  H    -116.855000   64.202500  -44.722800
  C    -118.018000   66.814800  -44.256700
  H    -118.807000   67.513500  -44.038200
  H    -117.747000   66.894200  -45.312100
  C    -116.843000   67.268600  -43.309600
  H    -116.523000   68.281700  -43.614600
  H    -115.996000   66.603500  -43.500300
  C    -117.241000   67.435500  -41.811100
  H    -116.328000   67.653500  -41.246000
  H    -117.718000   66.512700  -41.367900
  H    -117.841000   68.261200  -41.546600
  H    -124.358000   66.908600  -42.688600
  H    -117.970000   62.049200  -43.864800

 Total Charge           Charge          ....    0
 Multiplicity           Mult            ....    1
 Number of Electrons    NEL             ....  134
 Basis Dimension        Dim             ....  322

ORBITAL ENERGIES
----------------

  NO   OCC          E(Eh)            E(eV)
   0   2.0000     -88.968282     -2420.9500
   1   2.0000     -88.965260     -2420.8678
   2   2.0000     -10.328940      -281.0647
   3   2.0000     -10.325213      -280.9633
   4   2.0000     -10.321734      -280.8687
   5   2.0000     -10.308535      -280.5095
   6   2.0000     -10.304174      -280.3908
   7   2.0000     -10.302760      -280.3523
   8   2.0000     -10.300438      -280.2892
   9   2.0000     -10.297064      -280.1973
  10   2.0000     -10.295873      -280.1650
  11   2.0000     -10.293058      -280.0883
  12   2.0000     -10.291888      -280.0565
  13   2.0000     -10.291866      -280.0559
  14   2.0000     -10.285677      -279.8875
  15   2.0000     -10.281180      -279.7651
  16   2.0000      -8.084213      -219.9826
  17   2.0000      -8.080354      -219.8776
  18   2.0000      -6.042496      -164.4247
  19   2.0000      -6.038813      -164.3245
  20   2.0000      -6.038307      -164.3107
  21   2.0000      -6.035372      -164.2308
  22   2.0000      -6.034758      -164.2141
  23   2.0000      -6.031189      -164.1170
  24   2.0000      -1.010681       -27.5020
  25   2.0000      -0.985711       -26.8226
  26   2.0000      -0.911055       -24.7911
  27   2.0000      -0.901765       -24.5383
  28   2.0000      -0.870032       -23.6748
  29   2.0000      -0.848570       -23.0908
  30   2.0000      -0.842519       -22.9261
  31   2.0000      -0.810336       -22.0504
  32   2.0000      -0.784364       -21.3436
  33   2.0000      -0.774513       -21.0756
  34   2.0000      -0.712426       -19.3861
  35   2.0000      -0.700893       -19.0723
  36   2.0000      -0.686307       -18.6754
  37   2.0000      -0.659111       -17.9353
  38   2.0000      -0.638453       -17.3732
  39   2.0000      -0.620247       -16.8778
  40   2.0000      -0.589877       -16.0514
  41   2.0000      -0.565667       -15.3926
  42   2.0000      -0.564909       -15.3719
  43   2.0000      -0.548899       -14.9363
  44   2.0000      -0.541572       -14.7369
  45   2.0000      -0.523819       -14.2538
  46   2.0000      -0.516682       -14.0596
  47   2.0000      -0.507335       -13.8053
  48   2.0000      -0.504228       -13.7208
  49   2.0000      -0.496401       -13.5078
  50   2.0000      -0.490602       -13.3499
  51   2.0000      -0.480615       -13.0782
  52   2.0000      -0.474172       -12.9029
  53   2.0000      -0.465558       -12.6685
  54   2.0000      -0.457617       -12.4524
  55   2.0000      -0.453766       -12.3476
  56   2.0000      -0.442929       -12.0527
  57   2.0000      -0.440166       -11.9775
  58   2.0000      -0.436473       -11.8770
  59   2.0000      -0.429361       -11.6835
  60   2.0000      -0.420105       -11.4316
  61   2.0000      -0.418115       -11.3775
  62   2.0000      -0.412934       -11.2365
  63   2.0000      -0.337511        -9.1841
  64   2.0000      -0.332939        -9.0597
  65   2.0000      -0.325455        -8.8561
  66   2.0000      -0.291596        -7.9347
  67   0.0000       0.029838         0.8119
  68   0.0000       0.072293         1.9672
  69   0.0000       0.108339         2.9480
  70   0.0000       0.118545         3.2258
  71   0.0000       0.129579         3.5260

MULLIKEN ATOMIC CHARGES
-----------------------
   0 S :    0.121384
   1 C :   -0.126866
   2 C :   -0.069686
   3 C :    0.031454
   4 C :   -0.142776
   5 H :   -0.023894
   6 C :    0.036579
   7 H :    0.046742
   8 H :    0.025010
   9 C :   -0.071269
  10 H :    0.030780
  11 H :    0.034759
  12 C :   -0.050376
  13 H :    0.037968
  14 H :    0.037872
  15 H :    0.028030
  16 S :    0.134657
  17 C :   -0.129166
  18 C :   -0.042495
  19 C :   -0.035406
  20 C :   -0.177913
  21 H :    0.022401
  22 C :    0.069216
  23 H :    0.007244
  24 H :    0.034854
  25 C :   -0.052658
  26 H :    0.032143
  27 H :    0.032457
  28 C :   -0.076512
  29 H :    0.031599
  30 H :    0.057110
  31 H :    0.030511
  32 H :    0.035456
  33 H :    0.080792
Sum of atomic charges:   -0.0000000

LOEWDIN ATOMIC CHARGES
----------------------
   0 S :    0.423077
   1 C :   -0.197117
   2 C :   -0.059162
   3 C :   -0.071700
   4 C :   -0.200170
   5 H :    0.018690
   6 C :   -0.033461
   7 H :    0.041162
   8 H :    0.028122
   9 C :   -0.043136
  10 H :    0.022508
  11 H :    0.027248
  12 C :   -0.067993
  13 H :    0.028820
  14 H :    0.031417
  15 H :    0.024883
  16 S :    0.454833
  17 C :   -0.211104
  18 C :   -0.070634
  19 C :   -0.059513
  20 C :   -0.231662
  21 H :    0.027747
  22 C :   -0.032557
  23 H :    0.023800
  24 H :    0.033766
  25 C :   -0.031789
  26 H :    0.029490
  27 H :    0.021748
  28 C :   -0.074104
  29 H :    0.031472
  30 H :    0.035379
  31 H :    0.016657
  32 H :    0.023199
  33 H :    0.040085

  Mayer bond orders larger than 0.100000
B(  0-S ,  1-C ) :   1.1429 B(  0-S ,  4-C ) :   1.1803 B(  1-C ,  2-C ) :   1.6043
B(  1-C ,  4-C ) :   0.1044 B(  1-C , 32-H ) :   0.9725 B(  2-C ,  3-C ) :   1.2513
B(  2-C ,  6-C ) :   1.0076 B(  3-C ,  4-C ) :   1.5602 B(  3-C ,  5-H ) :   0.9899
B(  4-C , 20-C ) :   1.0059 B(  6-C ,  7-H ) :   0.9415 B(  6-C ,  8-H ) :   0.9422
B(  6-C ,  9-C ) :   1.0612 B(  9-C , 10-H ) :   0.9462 B(  9-C , 11-H ) :   0.9570
B(  9-C , 12-C ) :   1.0934 B( 12-C , 13-H ) :   0.9720 B( 12-C , 14-H ) :   0.9733
B( 12-C , 15-H ) :   0.9720 B( 16-S , 17-C ) :   1.1797 B( 16-S , 20-C ) :   1.1872
B( 17-C , 18-C ) :   1.5636 B( 17-C , 20-C ) :   0.1061 B( 17-C , 33-H ) :   0.9639
B( 18-C , 19-C ) :   1.2727 B( 18-C , 21-H ) :   0.9877 B( 19-C , 20-C ) :   1.5376
B( 19-C , 22-C ) :   1.0517 B( 22-C , 23-H ) :   0.9317 B( 22-C , 24-H ) :   0.9321
B( 22-C , 25-C ) :   1.0631 B( 25-C , 26-H ) :   0.9532 B( 25-C , 27-H ) :   0.9602
B( 25-C , 28-C ) :   1.0718 B( 28-C , 29-H ) :   0.9689 B( 28-C , 30-H ) :   0.9767
B( 28-C , 31-H ) :   0.9691

Dispersion correction           -0.014823289
FINAL SINGLE POINT ENERGY     -1339.877144989716

DIPOLE MOMENT
-------------
                                X             Y             Z
Electronic contribution:     -9.65595     -28.87166      -8.29597
Nuclear contribution   :     10.03146      29.46124       8.46793
                        -----------------------------------------
Total Dipole Moment    :      0.37551       0.58958       0.17196
                        -----------------------------------------
Magnitude (a.u.)       :      0.71985
Magnitude (Debye)      :      1.82971

Rotational constants in cm-1:     0.019012     0.009208     0.006648
Rotational constants in MHz :   569.967855   276.041448   199.295729

                             ****ORCA TERMINATED NORMALLY****
TOTAL RUN TIME: 0 days 0 hours 0 minutes 22 seconds 26 msec
