                         Program Version 4.2.1 -  RELEASE  -
|  1> ! wB97X-D3 SP def2-SVP
|  2> %pal
|  3> nprocs 24
|  4> end
|  5>
|  6> * xyz 0 1
|  7> S 	 -124.901 	 52.2935 	 -36.4742
|  8> C 	 -124.421 	 51.3981 	 -37.8474
|  9> C 	 -123.942 	 50.1246 	 -37.5143
| 10> C 	 -123.886 	 49.9773 	 -36.0374
| 11> C 	 -124.378 	 51.0464 	 -35.3595
| 12> H 	 -123.485 	 49.0838 	 -35.6119
| 13> C 	 -123.589 	 49.016 	 -38.4807
| 14> H 	 -123.466 	 49.5025 	 -39.4866
| 15> H 	 -124.474 	 48.3612 	 -38.4932
| 16> C 	 -122.486 	 48.0427 	 -38.052
| 17> H 	 -122.714 	 47.6092 	 -37.0574
| 18> H 	 -122.51 	 47.2687 	 -38.7854
| 19> C 	 -121.058 	 48.4954 	 -38.0563
| 20> H 	 -120.341 	 47.6662 	 -37.9691
| 21> H 	 -120.951 	 49.0558 	 -38.9959
| 22> H 	 -120.878 	 49.2383 	 -37.2679
| 23> S 	 -126.303 	 50.9538 	 -33.3713
| 24> C 	 -125.854 	 51.2734 	 -31.6985
| 25> C 	 -124.491 	 50.9992 	 -31.5651
| 26> C 	 -123.785 	 51.0054 	 -32.8474
| 27> C 	 -124.621 	 51.1208 	 -33.974
| 28> H 	 -123.986 	 50.9582 	 -30.5751
| 29> C 	 -122.228 	 50.8225 	 -32.8795
| 30> H 	 -121.768 	 51.6787 	 -32.4148
| 31> H 	 -121.943 	 50.9227 	 -33.9387
| 32> C 	 -121.662 	 49.5404 	 -32.2878
| 33> H 	 -121.901 	 49.4217 	 -31.2479
| 34> H 	 -120.616 	 49.6834 	 -32.1904
| 35> C 	 -122.125 	 48.3172 	 -33.0915
| 36> H 	 -121.724 	 47.4973 	 -32.5075
| 37> H 	 -121.775 	 48.3673 	 -34.1065
| 38> H 	 -123.207 	 48.166 	 -33.1146
| 39> H 	 -124.647 	 51.5958 	 -38.8645
| 40> H 	 -126.584 	 51.5567 	 -30.9783
| 41> *
| 42>
| 43>                          ****END OF INPUT****

CARTESIAN COORDINATES (ANGSTROEM)
---------------------------------
  S    -124.901000   52.293500  -36.474200
  C    -124.421000   51.398100  -37.847400
  C    -123.942000   50.124600  -37.514300
  C    -123.886000   49.977300  -36.037400
  C    -124.378000   51.046400  -35.359500
  H    -123.485000   49.083800  -35.611900
  C    -123.589000   49.016000  -38.480700
  H    -123.466000   49.502500  -39.486600
  H    -124.474000   48.361200  -38.493200
  C    -122.486000   48.042700  -38.052000
  H    -122.714000   47.609200  -37.057400
  H    -122.510000   47.268700  -38.785400
  C    -121.058000   48.495400  -38.056300
  H    -120.341000   47.666200  -37.969100
  H    -120.951000   49.055800  -38.995900
  H    -120.878000   49.238300  -37.267900
  S    -126.303000   50.953800  -33.371300
  C    -125.854000   51.273400  -31.698500
  C    -124.491000   50.999200  -31.565100
  C    -123.785000   51.005400  -32.847400
  C    -124.621000   51.120800  -33.974000
  H    -123.986000   50.958200  -30.575100
  C    -122.228000   50.822500  -32.879500
  H    -121.768000   51.678700  -32.414800
  H    -121.943000   50.922700  -33.938700
  C    -121.662000   49.540400  -32.287800
  H    -121.901000   49.421700  -31.247900
  H    -120.616000   49.683400  -32.190400
  C    -122.125000   48.317200  -33.091500
  H    -121.724000   47.497300  -32.507500
  H    -121.775000   48.367300  -34.106500
  H    -123.207000   48.166000  -33.114600
  H    -124.647000   51.595800  -38.864500
  H    -126.584000   51.556700  -30.978300

 Total Charge           Charge          ....    0
 Multiplicity           Mult            ....    1
 Number of Electrons    NEL             ....  134
 Basis Dimension        Dim             ....  322

ORBITAL ENERGIES
----------------

  NO   OCC          E(Eh)            E(eV)
   0   2.0000     -88.965154     -2420.8649
   1   2.0000     -88.956705     -2420.6350
   2   2.0000     -10.326076      -280.9868
   3   2.0000     -10.324406      -280.9414
   4   2.0000     -10.320654      -280.8393
   5   2.0000     -10.310468      -280.5621
   6   2.0000     -10.310142      -280.5532
   7   2.0000     -10.303980      -280.3855
   8   2.0000     -10.301735      -280.3244
   9   2.0000     -10.300666      -280.2954
  10   2.0000     -10.295993      -280.1682
  11   2.0000     -10.289157      -279.9822
  12   2.0000     -10.287241      -279.9300
  13   2.0000     -10.282452      -279.7997
  14   2.0000     -10.277517      -279.6655
  15   2.0000     -10.276314      -279.6327
  16   2.0000      -8.080535      -219.8825
  17   2.0000      -8.071188      -219.6282
  18   2.0000      -6.039096      -164.3322
  19   2.0000      -6.034895      -164.2179
  20   2.0000      -6.031233      -164.1182
  21   2.0000      -6.029856      -164.0807
  22   2.0000      -6.025911      -163.9734
  23   2.0000      -6.021601      -163.8561
  24   2.0000      -1.004589       -27.3362
  25   2.0000      -0.976486       -26.5715
  26   2.0000      -0.916796       -24.9473
  27   2.0000      -0.907433       -24.6925
  28   2.0000      -0.876178       -23.8420
  29   2.0000      -0.848511       -23.0892
  30   2.0000      -0.837831       -22.7985
  31   2.0000      -0.813832       -22.1455
  32   2.0000      -0.782675       -21.2977
  33   2.0000      -0.774478       -21.0746
  34   2.0000      -0.714740       -19.4491
  35   2.0000      -0.700695       -19.0669
  36   2.0000      -0.691112       -18.8061
  37   2.0000      -0.653327       -17.7779
  38   2.0000      -0.638701       -17.3799
  39   2.0000      -0.624792       -17.0015
  40   2.0000      -0.594755       -16.1841
  41   2.0000      -0.565732       -15.3944
  42   2.0000      -0.556124       -15.1329
  43   2.0000      -0.553393       -15.0586
  44   2.0000      -0.546769       -14.8783
  45   2.0000      -0.538404       -14.6507
  46   2.0000      -0.526514       -14.3272
  47   2.0000      -0.518588       -14.1115
  48   2.0000      -0.508450       -13.8356
  49   2.0000      -0.499683       -13.5971
  50   2.0000      -0.492911       -13.4128
  51   2.0000      -0.480726       -13.0812
  52   2.0000      -0.465779       -12.6745
  53   2.0000      -0.461949       -12.5703
  54   2.0000      -0.456240       -12.4149
  55   2.0000      -0.449390       -12.2285
  56   2.0000      -0.441903       -12.0248
  57   2.0000      -0.439536       -11.9604
  58   2.0000      -0.428758       -11.6671
  59   2.0000      -0.424581       -11.5534
  60   2.0000      -0.423077       -11.5125
  61   2.0000      -0.413705       -11.2575
  62   2.0000      -0.406067       -11.0497
  63   2.0000      -0.339514        -9.2386
  64   2.0000      -0.321157        -8.7391
  65   2.0000      -0.318189        -8.6584
  66   2.0000      -0.301609        -8.2072
  67   0.0000       0.026982         0.7342
  68   0.0000       0.065375         1.7790
  69   0.0000       0.101787         2.7698
  70   0.0000       0.118968         3.2373
  71   0.0000       0.125088         3.4038

MULLIKEN ATOMIC CHARGES
-----------------------
   0 S :    0.128175
   1 C :   -0.088393
   2 C :   -0.139693
   3 C :    0.065938
   4 C :   -0.167372
   5 H :   -0.023306
   6 C :    0.059341
   7 H :    0.032029
   8 H :    0.048994
   9 C :   -0.094136
  10 H :    0.033559
  11 H :    0.021706
  12 C :   -0.037997
  13 H :    0.045593
  14 H :    0.023326
  15 H :    0.031390
  16 S :    0.080826
  17 C :   -0.097124
  18 C :   -0.028117
  19 C :   -0.057867
  20 C :   -0.138339
  21 H :    0.038021
  22 C :    0.061762
  23 H :    0.024406
  24 H :    0.022584
  25 C :   -0.046982
  26 H :    0.013030
  27 H :    0.018925
  28 C :   -0.040607
  29 H :    0.029837
  30 H :    0.034828
  31 H :    0.050804
  32 H :    0.033008
  33 H :    0.061849
Sum of atomic charges:   -0.0000000

LOEWDIN ATOMIC CHARGES
----------------------
   0 S :    0.427842
   1 C :   -0.209949
   2 C :   -0.063245
   3 C :   -0.046302
   4 C :   -0.207474
   5 H :    0.022654
   6 C :   -0.036444
   7 H :    0.035618
   8 H :    0.043610
   9 C :   -0.046686
  10 H :    0.024571
  11 H :    0.024079
  12 C :   -0.067153
  13 H :    0.030061
  14 H :    0.026994
  15 H :    0.023413
  16 S :    0.371975
  17 C :   -0.167576
  18 C :   -0.076684
  19 C :   -0.048368
  20 C :   -0.194470
  21 H :    0.035909
  22 C :   -0.031660
  23 H :    0.027076
  24 H :    0.029858
  25 C :   -0.038610
  26 H :    0.019982
  27 H :    0.023818
  28 C :   -0.059659
  29 H :    0.028415
  30 H :    0.020273
  31 H :    0.029979
  32 H :    0.022906
  33 H :    0.025245

  Mayer bond orders larger than 0.100000
B(  0-S ,  1-C ) :   1.1474 B(  0-S ,  4-C ) :   1.1363 B(  1-C ,  2-C ) :   1.6230
B(  1-C , 32-H ) :   0.9654 B(  2-C ,  3-C ) :   1.2278 B(  2-C ,  6-C ) :   1.0229
B(  3-C ,  4-C ) :   1.5817 B(  3-C ,  5-H ) :   0.9954 B(  4-C , 20-C ) :   1.0631
B(  6-C ,  7-H ) :   0.9409 B(  6-C ,  8-H ) :   0.9282 B(  6-C ,  9-C ) :   1.0863
B(  9-C , 10-H ) :   0.9459 B(  9-C , 11-H ) :   0.9500 B(  9-C , 12-C ) :   1.0821
B( 12-C , 13-H ) :   0.9738 B( 12-C , 14-H ) :   0.9704 B( 12-C , 15-H ) :   0.9732
B( 16-S , 17-C ) :   1.1551 B( 16-S , 20-C ) :   1.1208 B( 17-C , 18-C ) :   1.5871
B( 17-C , 20-C ) :   0.1066 B( 17-C , 33-H ) :   0.9788 B( 18-C , 19-C ) :   1.2257
B( 18-C , 21-H ) :   0.9843 B( 19-C , 20-C ) :   1.5943 B( 19-C , 22-C ) :   1.0322
B( 22-C , 23-H ) :   0.9353 B( 22-C , 24-H ) :   0.9385 B( 22-C , 25-C ) :   1.0840
B( 25-C , 26-H ) :   0.9506 B( 25-C , 27-H ) :   0.9497 B( 25-C , 28-C ) :   1.0709
B( 28-C , 29-H ) :   0.9693 B( 28-C , 30-H ) :   0.9715 B( 28-C , 31-H ) :   0.9725

Dispersion correction           -0.015586674
FINAL SINGLE POINT ENERGY     -1339.868843256042

DIPOLE MOMENT
-------------
                                X             Y             Z
Electronic contribution:    -22.27013      18.26146       3.74437
Nuclear contribution   :     22.75002     -18.80682      -3.72498
                        -----------------------------------------
Total Dipole Moment    :      0.47989      -0.54536       0.01939
                        -----------------------------------------
Magnitude (a.u.)       :      0.72670
Magnitude (Debye)      :      1.84712

Rotational constants in cm-1:     0.018223     0.010089     0.007343
Rotational constants in MHz :   546.298396   302.464841   220.123076

                             ****ORCA TERMINATED NORMALLY****
TOTAL RUN TIME: 0 days 0 hours 0 minutes 21 seconds 638 msec
