                         Program Version 4.2.1 -  RELEASE  -
|  1> ! wB97X-D3 SP def2-SVP
|  2> %pal
|  3> nprocs 24
|  4> end
|  5>
|  6> * xyz 0 1
|  7> S 	 -102.785 	 58.8333 	 -11.6512
|  8> C 	 -103.72 	 60.3178 	 -11.2775
|  9> C 	 -103.611 	 61.184 	 -12.331
| 10> C 	 -103.082 	 60.5532 	 -13.5505
| 11> C 	 -102.627 	 59.2961 	 -13.3495
| 12> H 	 -103.101 	 60.9481 	 -14.5487
| 13> C 	 -104.381 	 62.5142 	 -12.3562
| 14> H 	 -104.439 	 62.9759 	 -11.3768
| 15> H 	 -105.476 	 62.2285 	 -12.4983
| 16> C 	 -104.062 	 63.4747 	 -13.4948
| 17> H 	 -103.217 	 64.1015 	 -13.3076
| 18> H 	 -103.908 	 62.9814 	 -14.384
| 19> C 	 -105.24 	 64.4583 	 -13.6406
| 20> H 	 -106.187 	 63.947 	 -13.7887
| 21> H 	 -105.305 	 65.1583 	 -12.8047
| 22> H 	 -105.076 	 65.1673 	 -14.4444
| 23> S 	 -103.331 	 56.8527 	 -14.4404
| 24> C 	 -102.263 	 56.0789 	 -15.5639
| 25> C 	 -101.418 	 57.0085 	 -16.1308
| 26> C 	 -101.305 	 58.1716 	 -15.285
| 27> C 	 -102.275 	 58.2647 	 -14.3241
| 28> H 	 -100.791 	 56.8682 	 -16.9438
| 29> C 	 -100.25 	 59.2022 	 -15.5069
| 30> H 	 -100.464 	 60.0891 	 -14.8659
| 31> H 	 -100.311 	 59.4119 	 -16.6271
| 32> C 	 -98.7915 	 58.8035 	 -15.1446
| 33> H 	 -98.1483 	 59.6659 	 -15.3769
| 34> H 	 -98.5461 	 57.9329 	 -15.73
| 35> C 	 -98.6339 	 58.7132 	 -13.6076
| 36> H 	 -99.3229 	 57.9902 	 -13.2263
| 37> H 	 -98.8366 	 59.6434 	 -13.172
| 38> H 	 -97.5708 	 58.4265 	 -13.3577
| 39> H 	 -104.165 	 60.4101 	 -10.3005
| 40> H 	 -102.467 	 55.1828 	 -16.0955
| 41> *
| 42>
| 43>                          ****END OF INPUT****

CARTESIAN COORDINATES (ANGSTROEM)
---------------------------------
  S    -102.785000   58.833300  -11.651200
  C    -103.720000   60.317800  -11.277500
  C    -103.611000   61.184000  -12.331000
  C    -103.082000   60.553200  -13.550500
  C    -102.627000   59.296100  -13.349500
  H    -103.101000   60.948100  -14.548700
  C    -104.381000   62.514200  -12.356200
  H    -104.439000   62.975900  -11.376800
  H    -105.476000   62.228500  -12.498300
  C    -104.062000   63.474700  -13.494800
  H    -103.217000   64.101500  -13.307600
  H    -103.908000   62.981400  -14.384000
  C    -105.240000   64.458300  -13.640600
  H    -106.187000   63.947000  -13.788700
  H    -105.305000   65.158300  -12.804700
  H    -105.076000   65.167300  -14.444400
  S    -103.331000   56.852700  -14.440400
  C    -102.263000   56.078900  -15.563900
  C    -101.418000   57.008500  -16.130800
  C    -101.305000   58.171600  -15.285000
  C    -102.275000   58.264700  -14.324100
  H    -100.791000   56.868200  -16.943800
  C    -100.250000   59.202200  -15.506900
  H    -100.464000   60.089100  -14.865900
  H    -100.311000   59.411900  -16.627100
  C    -98.791500   58.803500  -15.144600
  H    -98.148300   59.665900  -15.376900
  H    -98.546100   57.932900  -15.730000
  C    -98.633900   58.713200  -13.607600
  H    -99.322900   57.990200  -13.226300
  H    -98.836600   59.643400  -13.172000
  H    -97.570800   58.426500  -13.357700
  H    -104.165000   60.410100  -10.300500
  H    -102.467000   55.182800  -16.095500

 Total Charge           Charge          ....    0
 Multiplicity           Mult            ....    1
 Number of Electrons    NEL             ....  134
 Basis Dimension        Dim             ....  322

ORBITAL ENERGIES
----------------

  NO   OCC          E(Eh)            E(eV)
   0   2.0000     -88.962215     -2420.7849
   1   2.0000     -88.957737     -2420.6631
   2   2.0000     -10.328901      -281.0637
   3   2.0000     -10.323547      -280.9180
   4   2.0000     -10.316412      -280.7238
   5   2.0000     -10.315160      -280.6898
   6   2.0000     -10.308317      -280.5036
   7   2.0000     -10.298957      -280.2489
   8   2.0000     -10.297736      -280.2156
   9   2.0000     -10.296470      -280.1812
  10   2.0000     -10.293366      -280.0967
  11   2.0000     -10.290564      -280.0205
  12   2.0000     -10.284488      -279.8551
  13   2.0000     -10.280585      -279.7489
  14   2.0000     -10.277282      -279.6591
  15   2.0000     -10.269690      -279.4525
  16   2.0000      -8.077145      -219.7903
  17   2.0000      -8.072196      -219.6556
  18   2.0000      -6.035717      -164.2402
  19   2.0000      -6.031728      -164.1317
  20   2.0000      -6.030810      -164.1067
  21   2.0000      -6.027695      -164.0219
  22   2.0000      -6.026810      -163.9978
  23   2.0000      -6.022775      -163.8880
  24   2.0000      -1.006492       -27.3880
  25   2.0000      -0.982529       -26.7360
  26   2.0000      -0.913185       -24.8490
  27   2.0000      -0.907316       -24.6893
  28   2.0000      -0.873020       -23.7561
  29   2.0000      -0.847563       -23.0634
  30   2.0000      -0.839568       -22.8458
  31   2.0000      -0.820081       -22.3155
  32   2.0000      -0.777320       -21.1520
  33   2.0000      -0.768209       -20.9040
  34   2.0000      -0.715264       -19.4633
  35   2.0000      -0.696194       -18.9444
  36   2.0000      -0.692682       -18.8488
  37   2.0000      -0.663154       -18.0453
  38   2.0000      -0.650337       -17.6966
  39   2.0000      -0.620462       -16.8836
  40   2.0000      -0.593962       -16.1625
  41   2.0000      -0.572669       -15.5831
  42   2.0000      -0.568092       -15.4586
  43   2.0000      -0.550329       -14.9752
  44   2.0000      -0.546150       -14.8615
  45   2.0000      -0.526192       -14.3184
  46   2.0000      -0.515851       -14.0370
  47   2.0000      -0.513178       -13.9643
  48   2.0000      -0.500297       -13.6138
  49   2.0000      -0.495223       -13.4757
  50   2.0000      -0.488368       -13.2892
  51   2.0000      -0.480448       -13.0737
  52   2.0000      -0.469579       -12.7779
  53   2.0000      -0.466281       -12.6881
  54   2.0000      -0.457973       -12.4621
  55   2.0000      -0.454363       -12.3639
  56   2.0000      -0.439962       -11.9720
  57   2.0000      -0.437646       -11.9089
  58   2.0000      -0.434239       -11.8162
  59   2.0000      -0.426846       -11.6151
  60   2.0000      -0.423747       -11.5307
  61   2.0000      -0.409506       -11.1432
  62   2.0000      -0.406526       -11.0621
  63   2.0000      -0.342335        -9.3154
  64   2.0000      -0.327900        -8.9226
  65   2.0000      -0.319165        -8.6849
  66   2.0000      -0.303171        -8.2497
  67   0.0000       0.030485         0.8295
  68   0.0000       0.066063         1.7977
  69   0.0000       0.106831         2.9070
  70   0.0000       0.109155         2.9703
  71   0.0000       0.130388         3.5480

MULLIKEN ATOMIC CHARGES
-----------------------
   0 S :    0.086049
   1 C :   -0.145586
   2 C :   -0.020086
   3 C :    0.039761
   4 C :   -0.167538
   5 H :    0.017485
   6 C :   -0.001721
   7 H :    0.023971
   8 H :    0.043624
   9 C :   -0.009146
  10 H :    0.028131
  11 H :    0.013143
  12 C :   -0.070477
  13 H :    0.035695
  14 H :    0.025895
  15 H :    0.022758
  16 S :    0.109432
  17 C :   -0.058841
  18 C :   -0.007595
  19 C :   -0.050666
  20 C :   -0.151057
  21 H :   -0.004730
  22 C :    0.007238
  23 H :    0.024383
  24 H :    0.042185
  25 C :   -0.057923
  26 H :    0.033598
  27 H :    0.027172
  28 C :   -0.040274
  29 H :    0.034823
  30 H :    0.020331
  31 H :    0.040923
  32 H :    0.057175
  33 H :    0.051868
Sum of atomic charges:    0.0000000

LOEWDIN ATOMIC CHARGES
----------------------
   0 S :    0.367037
   1 C :   -0.172370
   2 C :   -0.060816
   3 C :   -0.058893
   4 C :   -0.184478
   5 H :    0.031694
   6 C :   -0.037029
   7 H :    0.028941
   8 H :    0.042163
   9 C :   -0.031249
  10 H :    0.025556
  11 H :    0.012273
  12 C :   -0.062614
  13 H :    0.022358
  14 H :    0.024930
  15 H :    0.023865
  16 S :    0.405418
  17 C :   -0.177292
  18 C :   -0.058431
  19 C :   -0.058815
  20 C :   -0.202457
  21 H :    0.017547
  22 C :   -0.041091
  23 H :    0.030604
  24 H :    0.039235
  25 C :   -0.036931
  26 H :    0.027767
  27 H :    0.017009
  28 C :   -0.057775
  29 H :    0.021051
  30 H :    0.017779
  31 H :    0.032486
  32 H :    0.027844
  33 H :    0.024685

  Mayer bond orders larger than 0.100000
B(  0-S ,  1-C ) :   1.1186 B(  0-S ,  4-C ) :   1.1332 B(  1-C ,  2-C ) :   1.6335
B(  1-C , 32-H ) :   0.9809 B(  2-C ,  3-C ) :   1.1706 B(  2-C ,  6-C ) :   1.0187
B(  3-C ,  4-C ) :   1.6470 B(  3-C ,  5-H ) :   0.9898 B(  4-C , 20-C ) :   1.0159
B(  6-C ,  7-H ) :   0.9458 B(  6-C ,  8-H ) :   0.9483 B(  6-C ,  9-C ) :   1.0631
B(  9-C , 10-H ) :   0.9506 B(  9-C , 11-H ) :   0.9507 B(  9-C , 12-C ) :   1.0935
B( 12-C , 13-H ) :   0.9770 B( 12-C , 14-H ) :   0.9750 B( 12-C , 15-H ) :   0.9720
B( 16-S , 17-C ) :   1.1595 B( 16-S , 20-C ) :   1.1307 B( 17-C , 18-C ) :   1.6092
B( 17-C , 33-H ) :   0.9653 B( 18-C , 19-C ) :   1.2312 B( 18-C , 21-H ) :   0.9927
B( 19-C , 20-C ) :   1.6164 B( 19-C , 22-C ) :   1.0522 B( 22-C , 23-H ) :   0.9334
B( 22-C , 24-H ) :   0.9310 B( 22-C , 25-C ) :   1.0763 B( 25-C , 26-H ) :   0.9564
B( 25-C , 27-H ) :   0.9586 B( 25-C , 28-C ) :   1.0655 B( 28-C , 29-H ) :   0.9805
B( 28-C , 30-H ) :   0.9734 B( 28-C , 31-H ) :   0.9744

Dispersion correction           -0.014274980
FINAL SINGLE POINT ENERGY     -1339.866388773303

DIPOLE MOMENT
-------------
                                X             Y             Z
Electronic contribution:     -6.42773     -21.86599       4.86463
Nuclear contribution   :      6.41505      22.42907      -5.25871
                        -----------------------------------------
Total Dipole Moment    :     -0.01268       0.56308      -0.39408
                        -----------------------------------------
Magnitude (a.u.)       :      0.68740
Magnitude (Debye)      :      1.74723

Rotational constants in cm-1:     0.019560     0.007858     0.007242
Rotational constants in MHz :   586.395921   235.571597   217.102666

                             ****ORCA TERMINATED NORMALLY****
TOTAL RUN TIME: 0 days 0 hours 0 minutes 20 seconds 424 msec
