                         Program Version 4.2.1 -  RELEASE  -
|  1> ! wB97X-D3 SP def2-SVP
|  2> %pal
|  3> nprocs 24
|  4> end
|  5>
|  6> * xyz 0 1
|  7> S 	 -45.6806 	 -4.36729 	 19.1053
|  8> C 	 -47.3191 	 -4.32535 	 18.3677
|  9> C 	 -47.6963 	 -3.06626 	 17.9345
| 10> C 	 -46.6256 	 -2.16129 	 18.1457
| 11> C 	 -45.426 	 -2.74024 	 18.6092
| 12> H 	 -46.5769 	 -1.18148 	 17.6899
| 13> C 	 -48.9343 	 -2.67527 	 17.3412
| 14> H 	 -48.8556 	 -1.6082 	 17.1513
| 15> H 	 -49.569 	 -2.85753 	 18.1578
| 16> C 	 -49.4707 	 -3.43411 	 16.1638
| 17> H 	 -48.7788 	 -3.32389 	 15.3497
| 18> H 	 -49.2099 	 -4.45752 	 16.4737
| 19> C 	 -50.825 	 -3.12678 	 15.6429
| 20> H 	 -50.998 	 -3.43626 	 14.5501
| 21> H 	 -51.5596 	 -3.67726 	 16.1916
| 22> H 	 -51.0131 	 -2.04722 	 15.7622
| 23> S 	 -42.8105 	 -2.80613 	 18.3871
| 24> C 	 -41.7865 	 -1.54899 	 18.9142
| 25> C 	 -42.5567 	 -0.555814 	 19.4642
| 26> C 	 -43.9792 	 -0.782906 	 19.3782
| 27> C 	 -44.2542 	 -1.98872 	 18.8024
| 28> H 	 -42.1174 	 0.252513 	 19.9775
| 29> C 	 -45.0484 	 0.0518681 	 19.9783
| 30> H 	 -45.4853 	 -0.438561 	 20.894
| 31> H 	 -45.8918 	 0.333541 	 19.3933
| 32> C 	 -44.5674 	 1.42953 	 20.5895
| 33> H 	 -43.7412 	 1.2324 	 21.2355
| 34> H 	 -45.3217 	 1.80164 	 21.3148
| 35> C 	 -44.2353 	 2.46208 	 19.5649
| 36> H 	 -43.7742 	 3.34986 	 20.0058
| 37> H 	 -45.0311 	 2.83658 	 18.965
| 38> H 	 -43.3937 	 2.20245 	 18.8666
| 39> H 	 -47.872 	 -5.24297 	 18.0753
| 40> H 	 -40.689 	 -1.55156 	 18.9091
| 41> *
| 42>
| 43>                          ****END OF INPUT****

CARTESIAN COORDINATES (ANGSTROEM)
---------------------------------
  S    -45.680600   -4.367290   19.105300
  C    -47.319100   -4.325350   18.367700
  C    -47.696300   -3.066260   17.934500
  C    -46.625600   -2.161290   18.145700
  C    -45.426000   -2.740240   18.609200
  H    -46.576900   -1.181480   17.689900
  C    -48.934300   -2.675270   17.341200
  H    -48.855600   -1.608200   17.151300
  H    -49.569000   -2.857530   18.157800
  C    -49.470700   -3.434110   16.163800
  H    -48.778800   -3.323890   15.349700
  H    -49.209900   -4.457520   16.473700
  C    -50.825000   -3.126780   15.642900
  H    -50.998000   -3.436260   14.550100
  H    -51.559600   -3.677260   16.191600
  H    -51.013100   -2.047220   15.762200
  S    -42.810500   -2.806130   18.387100
  C    -41.786500   -1.548990   18.914200
  C    -42.556700   -0.555814   19.464200
  C    -43.979200   -0.782906   19.378200
  C    -44.254200   -1.988720   18.802400
  H    -42.117400    0.252513   19.977500
  C    -45.048400    0.051868   19.978300
  H    -45.485300   -0.438561   20.894000
  H    -45.891800    0.333541   19.393300
  C    -44.567400    1.429530   20.589500
  H    -43.741200    1.232400   21.235500
  H    -45.321700    1.801640   21.314800
  C    -44.235300    2.462080   19.564900
  H    -43.774200    3.349860   20.005800
  H    -45.031100    2.836580   18.965000
  H    -43.393700    2.202450   18.866600
  H    -47.872000   -5.242970   18.075300
  H    -40.689000   -1.551560   18.909100

 Total Charge           Charge          ....    0
 Multiplicity           Mult            ....    1
 Number of Electrons    NEL             ....  134
 Basis Dimension        Dim             ....  322

ORBITAL ENERGIES
----------------

  NO   OCC          E(Eh)            E(eV)
   0   2.0000     -88.969601     -2420.9859
   1   2.0000     -88.960295     -2420.7327
   2   2.0000     -10.323839      -280.9259
   3   2.0000     -10.314527      -280.6726
   4   2.0000     -10.314440      -280.6702
   5   2.0000     -10.312902      -280.6283
   6   2.0000     -10.300677      -280.2957
   7   2.0000     -10.296658      -280.1863
   8   2.0000     -10.290852      -280.0283
   9   2.0000     -10.289844      -280.0009
  10   2.0000     -10.288289      -279.9586
  11   2.0000     -10.285011      -279.8694
  12   2.0000     -10.284980      -279.8685
  13   2.0000     -10.281758      -279.7809
  14   2.0000     -10.280501      -279.7467
  15   2.0000     -10.273594      -279.5587
  16   2.0000      -8.083721      -219.9692
  17   2.0000      -8.076931      -219.7845
  18   2.0000      -6.042233      -164.4175
  19   2.0000      -6.038399      -164.3132
  20   2.0000      -6.035314      -164.2293
  21   2.0000      -6.034428      -164.2051
  22   2.0000      -6.031007      -164.1120
  23   2.0000      -6.027855      -164.0263
  24   2.0000      -1.017632       -27.6912
  25   2.0000      -0.988437       -26.8967
  26   2.0000      -0.931184       -25.3388
  27   2.0000      -0.910204       -24.7679
  28   2.0000      -0.878446       -23.9037
  29   2.0000      -0.858950       -23.3732
  30   2.0000      -0.847338       -23.0572
  31   2.0000      -0.813063       -22.1246
  32   2.0000      -0.788269       -21.4499
  33   2.0000      -0.775870       -21.1125
  34   2.0000      -0.715383       -19.4666
  35   2.0000      -0.708462       -19.2782
  36   2.0000      -0.697345       -18.9757
  37   2.0000      -0.660767       -17.9804
  38   2.0000      -0.632659       -17.2155
  39   2.0000      -0.621342       -16.9076
  40   2.0000      -0.606429       -16.5018
  41   2.0000      -0.581617       -15.8266
  42   2.0000      -0.562660       -15.3108
  43   2.0000      -0.551671       -15.0117
  44   2.0000      -0.532884       -14.5005
  45   2.0000      -0.528240       -14.3742
  46   2.0000      -0.522788       -14.2258
  47   2.0000      -0.518890       -14.1197
  48   2.0000      -0.508561       -13.8387
  49   2.0000      -0.502283       -13.6678
  50   2.0000      -0.498100       -13.5540
  51   2.0000      -0.486980       -13.2514
  52   2.0000      -0.477279       -12.9874
  53   2.0000      -0.470767       -12.8102
  54   2.0000      -0.460557       -12.5324
  55   2.0000      -0.452910       -12.3243
  56   2.0000      -0.443598       -12.0709
  57   2.0000      -0.440112       -11.9761
  58   2.0000      -0.432582       -11.7711
  59   2.0000      -0.424724       -11.5573
  60   2.0000      -0.417104       -11.3500
  61   2.0000      -0.408794       -11.1238
  62   2.0000      -0.403376       -10.9764
  63   2.0000      -0.347349        -9.4518
  64   2.0000      -0.331212        -9.0127
  65   2.0000      -0.327283        -8.9058
  66   2.0000      -0.285464        -7.7679
  67   0.0000       0.023713         0.6453
  68   0.0000       0.077483         2.1084
  69   0.0000       0.110248         3.0000
  70   0.0000       0.125943         3.4271
  71   0.0000       0.131784         3.5860

MULLIKEN ATOMIC CHARGES
-----------------------
   0 S :    0.125115
   1 C :   -0.169863
   2 C :   -0.081187
   3 C :   -0.020129
   4 C :   -0.124930
   5 H :    0.019290
   6 C :    0.124497
   7 H :    0.010153
   8 H :    0.028038
   9 C :   -0.070928
  10 H :    0.015530
  11 H :    0.005121
  12 C :   -0.031094
  13 H :    0.049086
  14 H :    0.027143
  15 H :    0.037934
  16 S :    0.106987
  17 C :   -0.078524
  18 C :   -0.039186
  19 C :    0.000281
  20 C :   -0.173254
  21 H :    0.001038
  22 C :    0.040119
  23 H :    0.047165
  24 H :    0.025154
  25 C :   -0.077406
  26 H :    0.014335
  27 H :    0.028463
  28 C :   -0.044960
  29 H :    0.021170
  30 H :    0.025764
  31 H :    0.030649
  32 H :    0.064517
  33 H :    0.063913
Sum of atomic charges:   -0.0000000

LOEWDIN ATOMIC CHARGES
----------------------
   0 S :    0.406393
   1 C :   -0.206350
   2 C :   -0.053693
   3 C :   -0.066171
   4 C :   -0.204170
   5 H :    0.028753
   6 C :   -0.033594
   7 H :    0.028178
   8 H :    0.037843
   9 C :   -0.048097
  10 H :    0.023348
  11 H :    0.023715
  12 C :   -0.065066
  13 H :    0.040542
  14 H :    0.022267
  15 H :    0.031534
  16 S :    0.440678
  17 C :   -0.202260
  18 C :   -0.068445
  19 C :   -0.058119
  20 C :   -0.209112
  21 H :    0.021842
  22 C :   -0.031989
  23 H :    0.045493
  24 H :    0.024237
  25 C :   -0.044149
  26 H :    0.016902
  27 H :    0.029596
  28 C :   -0.076520
  29 H :    0.027607
  30 H :    0.020192
  31 H :    0.030944
  32 H :    0.030060
  33 H :    0.037610

  Mayer bond orders larger than 0.100000
B(  0-S ,  1-C ) :   1.1190 B(  0-S ,  4-C ) :   1.1612 B(  1-C ,  2-C ) :   1.5889
B(  1-C ,  4-C ) :   0.1020 B(  1-C , 32-H ) :   0.9571 B(  2-C ,  3-C ) :   1.2695
B(  2-C ,  6-C ) :   1.0215 B(  3-C ,  4-C ) :   1.5334 B(  3-C ,  5-H ) :   0.9873
B(  4-C , 20-C ) :   1.0875 B(  6-C ,  7-H ) :   0.9271 B(  6-C ,  8-H ) :   0.9122
B(  6-C ,  9-C ) :   1.0679 B(  9-C , 10-H ) :   0.9509 B(  9-C , 11-H ) :   0.9519
B(  9-C , 12-C ) :   1.0771 B( 12-C , 13-H ) :   0.9733 B( 12-C , 14-H ) :   0.9733
B( 12-C , 15-H ) :   0.9713 B( 16-S , 17-C ) :   1.1668 B( 16-S , 20-C ) :   1.1533
B( 17-C , 18-C ) :   1.5809 B( 17-C , 33-H ) :   0.9659 B( 18-C , 19-C ) :   1.2537
B( 18-C , 21-H ) :   0.9938 B( 19-C , 20-C ) :   1.5675 B( 19-C , 22-C ) :   1.0484
B( 22-C , 23-H ) :   0.9242 B( 22-C , 24-H ) :   0.9381 B( 22-C , 25-C ) :   1.0860
B( 25-C , 26-H ) :   0.9466 B( 25-C , 27-H ) :   0.9528 B( 25-C , 28-C ) :   1.0873
B( 28-C , 29-H ) :   0.9682 B( 28-C , 30-H ) :   0.9734 B( 28-C , 31-H ) :   0.9706

Dispersion correction           -0.013691840
FINAL SINGLE POINT ENERGY     -1339.858309558949

DIPOLE MOMENT
-------------
                                X             Y             Z
Electronic contribution:     18.68262     -17.81811       4.47796
Nuclear contribution   :    -19.03049      18.28940      -4.50556
                        -----------------------------------------
Total Dipole Moment    :     -0.34788       0.47129      -0.02760
                        -----------------------------------------
Magnitude (a.u.)       :      0.58642
Magnitude (Debye)      :      1.49057

Rotational constants in cm-1:     0.020703     0.007615     0.006104
Rotational constants in MHz :   620.667278   228.299600   182.995500

                             ****ORCA TERMINATED NORMALLY****
TOTAL RUN TIME: 0 days 0 hours 0 minutes 20 seconds 217 msec
