                         Program Version 4.2.1 -  RELEASE  -
|  1> ! wB97X-D3 SP def2-SVP
|  2> %pal
|  3> nprocs 24
|  4> end
|  5>
|  6> * xyz 0 1
|  7> S 	 -30.843 	 11.3969 	 4.3516
|  8> C 	 -32.4742 	 11.4556 	 3.71207
|  9> C 	 -33.0301 	 12.7378 	 3.9907
| 10> C 	 -32.1511 	 13.5579 	 4.8134
| 11> C 	 -30.9262 	 12.96 	 5.08801
| 12> H 	 -32.2768 	 14.6157 	 5.09764
| 13> C 	 -34.4691 	 13.1814 	 3.81018
| 14> H 	 -35.1163 	 12.2251 	 3.85373
| 15> H 	 -34.5035 	 13.4789 	 2.78329
| 16> C 	 -34.9587 	 14.2529 	 4.7855
| 17> H 	 -34.4218 	 15.1345 	 4.72725
| 18> H 	 -35.9444 	 14.6558 	 4.48695
| 19> C 	 -35.071 	 13.7196 	 6.21618
| 20> H 	 -35.5326 	 12.7246 	 6.15968
| 21> H 	 -34.0602 	 13.5178 	 6.73124
| 22> H 	 -35.6849 	 14.4247 	 6.81569
| 23> S 	 -28.3387 	 13.9719 	 5.28046
| 24> C 	 -27.9866 	 14.9673 	 6.74407
| 25> C 	 -28.8974 	 14.6375 	 7.72382
| 26> C 	 -29.9558 	 13.8011 	 7.33046
| 27> C 	 -29.8745 	 13.4693 	 5.98371
| 28> H 	 -28.7668 	 15.0291 	 8.71181
| 29> C 	 -31.1732 	 13.3416 	 8.18048
| 30> H 	 -31.609 	 12.5796 	 7.56885
| 31> H 	 -31.8139 	 14.1558 	 8.24774
| 32> C 	 -30.9338 	 12.7321 	 9.52156
| 33> H 	 -30.46 	 13.3686 	 10.2048
| 34> H 	 -30.2396 	 11.9131 	 9.396
| 35> C 	 -32.262 	 12.2051 	 10.0976
| 36> H 	 -32.6295 	 11.578 	 9.21376
| 37> H 	 -33.0596 	 12.9236 	 10.3173
| 38> H 	 -32.1845 	 11.6463 	 11.0239
| 39> H 	 -32.8837 	 10.5965 	 3.1262
| 40> H 	 -27.1652 	 15.6872 	 6.94648
| 41> *
| 42>
| 43>                          ****END OF INPUT****

CARTESIAN COORDINATES (ANGSTROEM)
---------------------------------
  S    -30.843000   11.396900    4.351600
  C    -32.474200   11.455600    3.712070
  C    -33.030100   12.737800    3.990700
  C    -32.151100   13.557900    4.813400
  C    -30.926200   12.960000    5.088010
  H    -32.276800   14.615700    5.097640
  C    -34.469100   13.181400    3.810180
  H    -35.116300   12.225100    3.853730
  H    -34.503500   13.478900    2.783290
  C    -34.958700   14.252900    4.785500
  H    -34.421800   15.134500    4.727250
  H    -35.944400   14.655800    4.486950
  C    -35.071000   13.719600    6.216180
  H    -35.532600   12.724600    6.159680
  H    -34.060200   13.517800    6.731240
  H    -35.684900   14.424700    6.815690
  S    -28.338700   13.971900    5.280460
  C    -27.986600   14.967300    6.744070
  C    -28.897400   14.637500    7.723820
  C    -29.955800   13.801100    7.330460
  C    -29.874500   13.469300    5.983710
  H    -28.766800   15.029100    8.711810
  C    -31.173200   13.341600    8.180480
  H    -31.609000   12.579600    7.568850
  H    -31.813900   14.155800    8.247740
  C    -30.933800   12.732100    9.521560
  H    -30.460000   13.368600   10.204800
  H    -30.239600   11.913100    9.396000
  C    -32.262000   12.205100   10.097600
  H    -32.629500   11.578000    9.213760
  H    -33.059600   12.923600   10.317300
  H    -32.184500   11.646300   11.023900
  H    -32.883700   10.596500    3.126200
  H    -27.165200   15.687200    6.946480

 Total Charge           Charge          ....    0
 Multiplicity           Mult            ....    1
 Number of Electrons    NEL             ....  134
 Basis Dimension        Dim             ....  322

ORBITAL ENERGIES
----------------

  NO   OCC          E(Eh)            E(eV)
   0   2.0000     -88.965410     -2420.8719
   1   2.0000     -88.964305     -2420.8418
   2   2.0000     -10.328435      -281.0510
   3   2.0000     -10.326614      -281.0015
   4   2.0000     -10.324260      -280.9374
   5   2.0000     -10.323432      -280.9149
   6   2.0000     -10.310201      -280.5548
   7   2.0000     -10.303082      -280.3611
   8   2.0000     -10.297673      -280.2139
   9   2.0000     -10.296966      -280.1947
  10   2.0000     -10.291595      -280.0485
  11   2.0000     -10.285658      -279.8870
  12   2.0000     -10.285026      -279.8698
  13   2.0000     -10.282732      -279.8074
  14   2.0000     -10.282588      -279.8034
  15   2.0000     -10.279095      -279.7084
  16   2.0000      -8.079292      -219.8487
  17   2.0000      -8.079153      -219.8449
  18   2.0000      -6.037738      -164.2952
  19   2.0000      -6.037700      -164.2942
  20   2.0000      -6.033896      -164.1907
  21   2.0000      -6.033591      -164.1824
  22   2.0000      -6.030318      -164.0933
  23   2.0000      -6.029774      -164.0785
  24   2.0000      -1.002339       -27.2750
  25   2.0000      -0.979576       -26.6556
  26   2.0000      -0.914264       -24.8784
  27   2.0000      -0.913154       -24.8482
  28   2.0000      -0.866623       -23.5820
  29   2.0000      -0.847130       -23.0516
  30   2.0000      -0.840250       -22.8644
  31   2.0000      -0.813885       -22.1469
  32   2.0000      -0.779069       -21.1996
  33   2.0000      -0.767638       -20.8885
  34   2.0000      -0.710128       -19.3236
  35   2.0000      -0.705130       -19.1876
  36   2.0000      -0.692498       -18.8438
  37   2.0000      -0.653810       -17.7911
  38   2.0000      -0.640476       -17.4282
  39   2.0000      -0.618506       -16.8304
  40   2.0000      -0.594478       -16.1766
  41   2.0000      -0.577933       -15.7263
  42   2.0000      -0.565371       -15.3845
  43   2.0000      -0.555597       -15.1186
  44   2.0000      -0.528821       -14.3900
  45   2.0000      -0.525880       -14.3099
  46   2.0000      -0.516771       -14.0621
  47   2.0000      -0.512540       -13.9469
  48   2.0000      -0.503295       -13.6954
  49   2.0000      -0.497756       -13.5446
  50   2.0000      -0.489989       -13.3333
  51   2.0000      -0.477003       -12.9799
  52   2.0000      -0.463162       -12.6033
  53   2.0000      -0.459829       -12.5126
  54   2.0000      -0.456718       -12.4279
  55   2.0000      -0.446800       -12.1580
  56   2.0000      -0.442280       -12.0350
  57   2.0000      -0.438251       -11.9254
  58   2.0000      -0.434922       -11.8348
  59   2.0000      -0.430964       -11.7271
  60   2.0000      -0.423713       -11.5298
  61   2.0000      -0.415026       -11.2934
  62   2.0000      -0.408550       -11.1172
  63   2.0000      -0.340619        -9.2687
  64   2.0000      -0.326938        -8.8964
  65   2.0000      -0.323997        -8.8164
  66   2.0000      -0.297961        -8.1079
  67   0.0000       0.035415         0.9637
  68   0.0000       0.054072         1.4714
  69   0.0000       0.109732         2.9860
  70   0.0000       0.118504         3.2246
  71   0.0000       0.135086         3.6759

MULLIKEN ATOMIC CHARGES
-----------------------
   0 S :    0.107961
   1 C :   -0.158624
   2 C :   -0.093603
   3 C :    0.007151
   4 C :   -0.165268
   5 H :    0.036266
   6 C :    0.047534
   7 H :    0.042310
   8 H :    0.034604
   9 C :   -0.039586
  10 H :    0.008894
  11 H :    0.023082
  12 C :   -0.081530
  13 H :    0.031159
  14 H :    0.051791
  15 H :    0.043305
  16 S :    0.103799
  17 C :   -0.106402
  18 C :   -0.037681
  19 C :   -0.016612
  20 C :   -0.178287
  21 H :    0.010049
  22 C :    0.090106
  23 H :    0.034134
  24 H :    0.024765
  25 C :   -0.037241
  26 H :    0.011935
  27 H :    0.026647
  28 C :   -0.073646
  29 H :    0.035591
  30 H :    0.031955
  31 H :    0.038281
  32 H :    0.076971
  33 H :    0.070191
Sum of atomic charges:    0.0000000

LOEWDIN ATOMIC CHARGES
----------------------
   0 S :    0.414783
   1 C :   -0.213510
   2 C :   -0.060630
   3 C :   -0.068928
   4 C :   -0.208430
   5 H :    0.039970
   6 C :   -0.036834
   7 H :    0.040548
   8 H :    0.031437
   9 C :   -0.044203
  10 H :    0.012721
  11 H :    0.031577
  12 C :   -0.071300
  13 H :    0.026485
  14 H :    0.033974
  15 H :    0.028784
  16 S :    0.380173
  17 C :   -0.174380
  18 C :   -0.073494
  19 C :   -0.050127
  20 C :   -0.199462
  21 H :    0.028077
  22 C :   -0.019530
  23 H :    0.030190
  24 H :    0.021703
  25 C :   -0.036016
  26 H :    0.011363
  27 H :    0.027878
  28 C :   -0.068625
  29 H :    0.035357
  30 H :    0.024342
  31 H :    0.024909
  32 H :    0.039631
  33 H :    0.041565

  Mayer bond orders larger than 0.100000
B(  0-S ,  1-C ) :   1.1525 B(  0-S ,  4-C ) :   1.1704 B(  1-C ,  2-C ) :   1.5740
B(  1-C ,  4-C ) :   0.1027 B(  1-C , 32-H ) :   0.9696 B(  2-C ,  3-C ) :   1.2575
B(  2-C ,  6-C ) :   0.9998 B(  3-C ,  4-C ) :   1.5705 B(  3-C ,  5-H ) :   0.9830
B(  4-C , 20-C ) :   0.9965 B(  6-C ,  7-H ) :   0.9522 B(  6-C ,  8-H ) :   0.9249
B(  6-C ,  9-C ) :   1.0961 B(  9-C , 10-H ) :   0.9404 B(  9-C , 11-H ) :   0.9469
B(  9-C , 12-C ) :   1.0713 B( 12-C , 13-H ) :   0.9733 B( 12-C , 14-H ) :   0.9673
B( 12-C , 15-H ) :   0.9736 B( 16-S , 17-C ) :   1.1374 B( 16-S , 20-C ) :   1.1377
B( 17-C , 18-C ) :   1.6179 B( 17-C , 20-C ) :   0.1044 B( 17-C , 33-H ) :   0.9634
B( 18-C , 19-C ) :   1.2417 B( 18-C , 21-H ) :   0.9921 B( 19-C , 20-C ) :   1.6018
B( 19-C , 22-C ) :   1.0194 B( 22-C , 23-H ) :   0.9281 B( 22-C , 24-H ) :   0.9307
B( 22-C , 25-C ) :   1.0776 B( 25-C , 26-H ) :   0.9499 B( 25-C , 27-H ) :   0.9524
B( 25-C , 28-C ) :   1.0764 B( 28-C , 29-H ) :   0.9754 B( 28-C , 30-H ) :   0.9759
B( 28-C , 31-H ) :   0.9745

Dispersion correction           -0.015397366
FINAL SINGLE POINT ENERGY     -1339.864442199487

DIPOLE MOMENT
-------------
                                X             Y             Z
Electronic contribution:     23.79501      -2.44664     -16.70975
Nuclear contribution   :    -24.36943       2.77125      17.09978
                        -----------------------------------------
Total Dipole Moment    :     -0.57442       0.32461       0.39003
                        -----------------------------------------
Magnitude (a.u.)       :      0.76645
Magnitude (Debye)      :      1.94817

Rotational constants in cm-1:     0.015799     0.010430     0.007843
Rotational constants in MHz :   473.647936   312.694752   235.114911

                             ****ORCA TERMINATED NORMALLY****
TOTAL RUN TIME: 0 days 0 hours 0 minutes 22 seconds 685 msec
