                         Program Version 4.2.1 -  RELEASE  -
|  1> ! wB97X-D3 SP def2-SVP
|  2> %pal
|  3> nprocs 24
|  4> end
|  5>
|  6> * xyz 0 1
|  7> S 	 -134.022 	 8.96019 	 -2.80125
|  8> C 	 -134.387 	 8.79873 	 -1.10063
|  9> C 	 -135.698 	 9.14926 	 -0.83654
| 10> C 	 -136.318 	 9.79317 	 -1.9416
| 11> C 	 -135.528 	 9.80797 	 -3.06901
| 12> H 	 -137.309 	 10.2281 	 -1.96163
| 13> C 	 -136.292 	 9.31168 	 0.527817
| 14> H 	 -137.311 	 9.85357 	 0.452572
| 15> H 	 -135.654 	 9.91453 	 1.19225
| 16> C 	 -136.514 	 7.92749 	 1.23857
| 17> H 	 -137.05 	 8.17024 	 2.16759
| 18> H 	 -137.206 	 7.36138 	 0.64197
| 19> C 	 -135.22 	 7.07053 	 1.53885
| 20> H 	 -134.598 	 6.65462 	 0.718689
| 21> H 	 -134.547 	 7.58772 	 2.16895
| 22> H 	 -135.528 	 6.08161 	 2.01903
| 23> S 	 -136.565 	 9.57855 	 -5.80486
| 24> C 	 -136.527 	 11.0718 	 -6.69834
| 25> C 	 -135.721 	 12.0364 	 -6.06477
| 26> C 	 -135.342 	 11.7238 	 -4.70402
| 27> C 	 -135.822 	 10.462 	 -4.378
| 28> H 	 -135.362 	 12.8747 	 -6.56243
| 29> C 	 -134.599 	 12.6692 	 -3.85045
| 30> H 	 -133.839 	 13.3516 	 -4.25759
| 31> H 	 -134.062 	 11.9465 	 -3.201
| 32> C 	 -135.561 	 13.5951 	 -3.08327
| 33> H 	 -136.066 	 12.9771 	 -2.3346
| 34> H 	 -136.328 	 14.0518 	 -3.72809
| 35> C 	 -134.826 	 14.8105 	 -2.38174
| 36> H 	 -135.475 	 15.2653 	 -1.64638
| 37> H 	 -134.385 	 15.5 	 -3.12298
| 38> H 	 -134.026 	 14.4511 	 -1.81864
| 39> H 	 -133.638 	 8.49085 	 -0.309948
| 40> H 	 -136.926 	 11.0668 	 -7.71831
| 41> *
| 42>
| 43>                          ****END OF INPUT****

CARTESIAN COORDINATES (ANGSTROEM)
---------------------------------
  S    -134.022000    8.960190   -2.801250
  C    -134.387000    8.798730   -1.100630
  C    -135.698000    9.149260   -0.836540
  C    -136.318000    9.793170   -1.941600
  C    -135.528000    9.807970   -3.069010
  H    -137.309000   10.228100   -1.961630
  C    -136.292000    9.311680    0.527817
  H    -137.311000    9.853570    0.452572
  H    -135.654000    9.914530    1.192250
  C    -136.514000    7.927490    1.238570
  H    -137.050000    8.170240    2.167590
  H    -137.206000    7.361380    0.641970
  C    -135.220000    7.070530    1.538850
  H    -134.598000    6.654620    0.718689
  H    -134.547000    7.587720    2.168950
  H    -135.528000    6.081610    2.019030
  S    -136.565000    9.578550   -5.804860
  C    -136.527000   11.071800   -6.698340
  C    -135.721000   12.036400   -6.064770
  C    -135.342000   11.723800   -4.704020
  C    -135.822000   10.462000   -4.378000
  H    -135.362000   12.874700   -6.562430
  C    -134.599000   12.669200   -3.850450
  H    -133.839000   13.351600   -4.257590
  H    -134.062000   11.946500   -3.201000
  C    -135.561000   13.595100   -3.083270
  H    -136.066000   12.977100   -2.334600
  H    -136.328000   14.051800   -3.728090
  C    -134.826000   14.810500   -2.381740
  H    -135.475000   15.265300   -1.646380
  H    -134.385000   15.500000   -3.122980
  H    -134.026000   14.451100   -1.818640
  H    -133.638000    8.490850   -0.309948
  H    -136.926000   11.066800   -7.718310

 Total Charge           Charge          ....    0
 Multiplicity           Mult            ....    1
 Number of Electrons    NEL             ....  134
 Basis Dimension        Dim             ....  322

ORBITAL ENERGIES
----------------

  NO   OCC          E(Eh)            E(eV)
   0   2.0000     -88.966729     -2420.9078
   1   2.0000     -88.966061     -2420.8896
   2   2.0000     -10.329460      -281.0789
   3   2.0000     -10.326262      -280.9919
   4   2.0000     -10.322189      -280.8810
   5   2.0000     -10.317984      -280.7666
   6   2.0000     -10.304396      -280.3969
   7   2.0000     -10.299534      -280.2646
   8   2.0000     -10.296941      -280.1940
   9   2.0000     -10.292398      -280.0704
  10   2.0000     -10.292179      -280.0644
  11   2.0000     -10.291357      -280.0421
  12   2.0000     -10.291115      -280.0355
  13   2.0000     -10.287928      -279.9488
  14   2.0000     -10.285961      -279.8952
  15   2.0000     -10.274661      -279.5877
  16   2.0000      -8.081240      -219.9017
  17   2.0000      -8.079776      -219.8619
  18   2.0000      -6.039666      -164.3477
  19   2.0000      -6.038302      -164.3106
  20   2.0000      -6.035737      -164.2407
  21   2.0000      -6.034715      -164.2129
  22   2.0000      -6.032133      -164.1427
  23   2.0000      -6.030294      -164.0927
  24   2.0000      -1.001729       -27.2584
  25   2.0000      -0.978638       -26.6301
  26   2.0000      -0.908664       -24.7260
  27   2.0000      -0.903741       -24.5920
  28   2.0000      -0.858057       -23.3489
  29   2.0000      -0.846495       -23.0343
  30   2.0000      -0.845418       -23.0050
  31   2.0000      -0.804899       -21.9024
  32   2.0000      -0.783761       -21.3272
  33   2.0000      -0.772061       -21.0088
  34   2.0000      -0.701976       -19.1017
  35   2.0000      -0.699579       -19.0365
  36   2.0000      -0.689121       -18.7519
  37   2.0000      -0.659424       -17.9438
  38   2.0000      -0.640269       -17.4226
  39   2.0000      -0.614348       -16.7173
  40   2.0000      -0.598514       -16.2864
  41   2.0000      -0.569346       -15.4927
  42   2.0000      -0.560933       -15.2638
  43   2.0000      -0.542700       -14.7676
  44   2.0000      -0.527303       -14.3486
  45   2.0000      -0.519524       -14.1370
  46   2.0000      -0.515437       -14.0258
  47   2.0000      -0.514755       -14.0072
  48   2.0000      -0.509272       -13.8580
  49   2.0000      -0.492435       -13.3998
  50   2.0000      -0.487590       -13.2680
  51   2.0000      -0.470518       -12.8035
  52   2.0000      -0.469272       -12.7695
  53   2.0000      -0.460416       -12.5285
  54   2.0000      -0.455101       -12.3839
  55   2.0000      -0.450250       -12.2519
  56   2.0000      -0.445018       -12.1096
  57   2.0000      -0.437986       -11.9182
  58   2.0000      -0.435332       -11.8460
  59   2.0000      -0.428179       -11.6513
  60   2.0000      -0.421906       -11.4806
  61   2.0000      -0.411905       -11.2085
  62   2.0000      -0.409682       -11.1480
  63   2.0000      -0.334106        -9.0915
  64   2.0000      -0.326764        -8.8917
  65   2.0000      -0.315140        -8.5754
  66   2.0000      -0.309200        -8.4138
  67   0.0000       0.039647         1.0788
  68   0.0000       0.049306         1.3417
  69   0.0000       0.099671         2.7122
  70   0.0000       0.119063         3.2399
  71   0.0000       0.121753         3.3131

MULLIKEN ATOMIC CHARGES
-----------------------
   0 S :    0.124317
   1 C :   -0.155512
   2 C :   -0.036579
   3 C :    0.045725
   4 C :   -0.211475
   5 H :    0.016444
   6 C :   -0.012598
   7 H :    0.040380
   8 H :    0.042553
   9 C :   -0.048430
  10 H :    0.032802
  11 H :    0.026714
  12 C :   -0.090365
  13 H :    0.044440
  14 H :    0.025742
  15 H :    0.042026
  16 S :    0.104696
  17 C :   -0.105330
  18 C :    0.006692
  19 C :   -0.019071
  20 C :   -0.179647
  21 H :   -0.006477
  22 C :    0.078342
  23 H :    0.027430
  24 H :    0.033705
  25 C :   -0.097739
  26 H :    0.028269
  27 H :    0.038826
  28 C :   -0.026636
  29 H :    0.035137
  30 H :    0.038363
  31 H :    0.010667
  32 H :    0.075954
  33 H :    0.070636
Sum of atomic charges:   -0.0000000

LOEWDIN ATOMIC CHARGES
----------------------
   0 S :    0.410442
   1 C :   -0.202268
   2 C :   -0.074525
   3 C :   -0.056383
   4 C :   -0.197077
   5 H :    0.034378
   6 C :   -0.037473
   7 H :    0.039188
   8 H :    0.030501
   9 C :   -0.034438
  10 H :    0.026081
  11 H :    0.020729
  12 C :   -0.079092
  13 H :    0.029011
  14 H :    0.014735
  15 H :    0.037617
  16 S :    0.373373
  17 C :   -0.183730
  18 C :   -0.061577
  19 C :   -0.039707
  20 C :   -0.189424
  21 H :    0.017571
  22 C :   -0.040259
  23 H :    0.033411
  24 H :    0.035127
  25 C :   -0.032929
  26 H :    0.023462
  27 H :    0.025442
  28 C :   -0.064703
  29 H :    0.027772
  30 H :    0.027499
  31 H :    0.014913
  32 H :    0.041359
  33 H :    0.030974

  Mayer bond orders larger than 0.100000
B(  0-S ,  1-C ) :   1.1454 B(  0-S ,  4-C ) :   1.1478 B(  1-C ,  2-C ) :   1.6007
B(  1-C , 32-H ) :   0.9523 B(  2-C ,  3-C ) :   1.2405 B(  2-C ,  6-C ) :   1.0188
B(  3-C ,  4-C ) :   1.6005 B(  3-C ,  5-H ) :   0.9919 B(  4-C , 20-C ) :   1.0189
B(  6-C ,  7-H ) :   0.9483 B(  6-C ,  8-H ) :   0.9496 B(  6-C ,  9-C ) :   1.0630
B(  9-C , 10-H ) :   0.9580 B(  9-C , 11-H ) :   0.9590 B(  9-C , 12-C ) :   1.0671
B( 12-C , 13-H ) :   0.9697 B( 12-C , 14-H ) :   0.9782 B( 12-C , 15-H ) :   0.9717
B( 16-S , 17-C ) :   1.1572 B( 16-S , 20-C ) :   1.1230 B( 17-C , 18-C ) :   1.5950
B( 17-C , 33-H ) :   0.9671 B( 18-C , 19-C ) :   1.2290 B( 18-C , 21-H ) :   0.9988
B( 19-C , 20-C ) :   1.6081 B( 19-C , 22-C ) :   1.0441 B( 22-C , 23-H ) :   0.9478
B( 22-C , 24-H ) :   0.9067 B( 22-C , 25-C ) :   1.0535 B( 25-C , 26-H ) :   0.9515
B( 25-C , 27-H ) :   0.9640 B( 25-C , 28-C ) :   1.0817 B( 28-C , 29-H ) :   0.9746
B( 28-C , 30-H ) :   0.9752 B( 28-C , 31-H ) :   0.9726

Dispersion correction           -0.014726653
FINAL SINGLE POINT ENERGY     -1339.865793704771

DIPOLE MOMENT
-------------
                                X             Y             Z
Electronic contribution:      0.11986      -9.94112     -22.70474
Nuclear contribution   :     -0.07788      10.32621      23.12136
                        -----------------------------------------
Total Dipole Moment    :      0.04198       0.38510       0.41662
                        -----------------------------------------
Magnitude (a.u.)       :      0.56888
Magnitude (Debye)      :      1.44599

Rotational constants in cm-1:     0.019885     0.008156     0.006661
Rotational constants in MHz :   596.127114   244.512199   199.701935

                             ****ORCA TERMINATED NORMALLY****
TOTAL RUN TIME: 0 days 0 hours 0 minutes 21 seconds 552 msec
