                         Program Version 4.2.1 -  RELEASE  -
|  1> ! wB97X-D3 SP def2-SVP
|  2> %pal
|  3> nprocs 24
|  4> end
|  5>
|  6> * xyz 0 1
|  7> S 	 -85.5393 	 -30.5596 	 -60.2461
|  8> C 	 -86.8184 	 -29.3827 	 -60.5295
|  9> C 	 -88.0239 	 -29.7862 	 -59.9916
| 10> C 	 -87.8724 	 -30.9712 	 -59.2869
| 11> C 	 -86.5564 	 -31.5664 	 -59.3187
| 12> H 	 -88.6612 	 -31.4132 	 -58.6611
| 13> C 	 -89.2755 	 -28.998 	 -60.1682
| 14> H 	 -89.3722 	 -28.0189 	 -59.6721
| 15> H 	 -89.9825 	 -29.516 	 -59.5877
| 16> C 	 -89.7315 	 -28.8692 	 -61.6028
| 17> H 	 -90.5516 	 -28.1847 	 -61.7164
| 18> H 	 -88.9135 	 -28.4584 	 -62.1769
| 19> C 	 -90.1077 	 -30.2027 	 -62.1948
| 20> H 	 -89.9547 	 -30.1427 	 -63.2564
| 21> H 	 -89.4412 	 -31.0514 	 -61.9554
| 22> H 	 -91.0589 	 -30.5368 	 -61.9451
| 23> S 	 -87.221 	 -34.1071 	 -58.8145
| 24> C 	 -86.3608 	 -35.1104 	 -57.8333
| 25> C 	 -85.2185 	 -34.5334 	 -57.3211
| 26> C 	 -85.0536 	 -33.1707 	 -57.8709
| 27> C 	 -86.1216 	 -32.7878 	 -58.6135
| 28> H 	 -84.4997 	 -35.2011 	 -56.8004
| 29> C 	 -83.7195 	 -32.4375 	 -57.6319
| 30> H 	 -83.4823 	 -31.8926 	 -58.5704
| 31> H 	 -82.9977 	 -33.254 	 -57.482
| 32> C 	 -83.7753 	 -31.4479 	 -56.382
| 33> H 	 -82.7085 	 -31.1807 	 -56.1876
| 34> H 	 -84.2208 	 -31.9668 	 -55.5625
| 35> C 	 -84.7234 	 -30.2044 	 -56.6529
| 36> H 	 -84.7109 	 -29.7808 	 -57.6162
| 37> H 	 -84.6779 	 -29.5056 	 -55.7711
| 38> H 	 -85.7324 	 -30.6008 	 -56.6766
| 39> H 	 -86.7378 	 -28.5031 	 -61.1477
| 40> H 	 -86.655 	 -36.1023 	 -57.6657
| 41> *
| 42>
| 43>                          ****END OF INPUT****

CARTESIAN COORDINATES (ANGSTROEM)
---------------------------------
  S    -85.539300  -30.559600  -60.246100
  C    -86.818400  -29.382700  -60.529500
  C    -88.023900  -29.786200  -59.991600
  C    -87.872400  -30.971200  -59.286900
  C    -86.556400  -31.566400  -59.318700
  H    -88.661200  -31.413200  -58.661100
  C    -89.275500  -28.998000  -60.168200
  H    -89.372200  -28.018900  -59.672100
  H    -89.982500  -29.516000  -59.587700
  C    -89.731500  -28.869200  -61.602800
  H    -90.551600  -28.184700  -61.716400
  H    -88.913500  -28.458400  -62.176900
  C    -90.107700  -30.202700  -62.194800
  H    -89.954700  -30.142700  -63.256400
  H    -89.441200  -31.051400  -61.955400
  H    -91.058900  -30.536800  -61.945100
  S    -87.221000  -34.107100  -58.814500
  C    -86.360800  -35.110400  -57.833300
  C    -85.218500  -34.533400  -57.321100
  C    -85.053600  -33.170700  -57.870900
  C    -86.121600  -32.787800  -58.613500
  H    -84.499700  -35.201100  -56.800400
  C    -83.719500  -32.437500  -57.631900
  H    -83.482300  -31.892600  -58.570400
  H    -82.997700  -33.254000  -57.482000
  C    -83.775300  -31.447900  -56.382000
  H    -82.708500  -31.180700  -56.187600
  H    -84.220800  -31.966800  -55.562500
  C    -84.723400  -30.204400  -56.652900
  H    -84.710900  -29.780800  -57.616200
  H    -84.677900  -29.505600  -55.771100
  H    -85.732400  -30.600800  -56.676600
  H    -86.737800  -28.503100  -61.147700
  H    -86.655000  -36.102300  -57.665700

 Total Charge           Charge          ....    0
 Multiplicity           Mult            ....    1
 Number of Electrons    NEL             ....  134
 Basis Dimension        Dim             ....  322

ORBITAL ENERGIES
----------------

  NO   OCC          E(Eh)            E(eV)
   0   2.0000     -88.973663     -2421.0965
   1   2.0000     -88.960327     -2420.7336
   2   2.0000     -10.336110      -281.2598
   3   2.0000     -10.324107      -280.9332
   4   2.0000     -10.312440      -280.6157
   5   2.0000     -10.306716      -280.4600
   6   2.0000     -10.306139      -280.4443
   7   2.0000     -10.297682      -280.2142
   8   2.0000     -10.297086      -280.1980
   9   2.0000     -10.296896      -280.1928
  10   2.0000     -10.296844      -280.1914
  11   2.0000     -10.290395      -280.0159
  12   2.0000     -10.284835      -279.8646
  13   2.0000     -10.281328      -279.7692
  14   2.0000     -10.269819      -279.4560
  15   2.0000     -10.264317      -279.3063
  16   2.0000      -8.087846      -220.0815
  17   2.0000      -8.077970      -219.8127
  18   2.0000      -6.046155      -164.5242
  19   2.0000      -6.042168      -164.4157
  20   2.0000      -6.039131      -164.3331
  21   2.0000      -6.036307      -164.2563
  22   2.0000      -6.031890      -164.1361
  23   2.0000      -6.028899      -164.0547
  24   2.0000      -1.016107       -27.6497
  25   2.0000      -0.994240       -27.0546
  26   2.0000      -0.922965       -25.1152
  27   2.0000      -0.898336       -24.4450
  28   2.0000      -0.869789       -23.6682
  29   2.0000      -0.851991       -23.1839
  30   2.0000      -0.841714       -22.9042
  31   2.0000      -0.808905       -22.0114
  32   2.0000      -0.787818       -21.4376
  33   2.0000      -0.774699       -21.0806
  34   2.0000      -0.712024       -19.3752
  35   2.0000      -0.703086       -19.1319
  36   2.0000      -0.692467       -18.8430
  37   2.0000      -0.665956       -18.1216
  38   2.0000      -0.636558       -17.3216
  39   2.0000      -0.614156       -16.7120
  40   2.0000      -0.594025       -16.1642
  41   2.0000      -0.582963       -15.8632
  42   2.0000      -0.551739       -15.0136
  43   2.0000      -0.546533       -14.8719
  44   2.0000      -0.539271       -14.6743
  45   2.0000      -0.534835       -14.5536
  46   2.0000      -0.520112       -14.1530
  47   2.0000      -0.516929       -14.0663
  48   2.0000      -0.500787       -13.6271
  49   2.0000      -0.496569       -13.5123
  50   2.0000      -0.494350       -13.4519
  51   2.0000      -0.481136       -13.0924
  52   2.0000      -0.470453       -12.8017
  53   2.0000      -0.464370       -12.6361
  54   2.0000      -0.455399       -12.3920
  55   2.0000      -0.444152       -12.0860
  56   2.0000      -0.440080       -11.9752
  57   2.0000      -0.434838       -11.8325
  58   2.0000      -0.432370       -11.7654
  59   2.0000      -0.426925       -11.6172
  60   2.0000      -0.421056       -11.4575
  61   2.0000      -0.414786       -11.2869
  62   2.0000      -0.410335       -11.1658
  63   2.0000      -0.350570        -9.5395
  64   2.0000      -0.337608        -9.1868
  65   2.0000      -0.326284        -8.8786
  66   2.0000      -0.290713        -7.9107
  67   0.0000       0.029405         0.8002
  68   0.0000       0.077653         2.1131
  69   0.0000       0.113718         3.0944
  70   0.0000       0.120110         3.2684
  71   0.0000       0.121110         3.2956

MULLIKEN ATOMIC CHARGES
-----------------------
   0 S :    0.120254
   1 C :   -0.133724
   2 C :   -0.082799
   3 C :    0.009616
   4 C :   -0.154120
   5 H :    0.018051
   6 C :    0.108952
   7 H :    0.036093
   8 H :   -0.012958
   9 C :   -0.048681
  10 H :    0.023946
  11 H :    0.017324
  12 C :   -0.033119
  13 H :    0.021029
  14 H :    0.034167
  15 H :    0.017665
  16 S :    0.118542
  17 C :   -0.066191
  18 C :   -0.061283
  19 C :   -0.080141
  20 C :   -0.144001
  21 H :    0.037070
  22 C :    0.041600
  23 H :    0.036212
  24 H :    0.029102
  25 C :   -0.052375
  26 H :    0.043041
  27 H :    0.027650
  28 C :   -0.052325
  29 H :    0.021435
  30 H :    0.046945
  31 H :    0.029540
  32 H :    0.045338
  33 H :    0.038143
Sum of atomic charges:    0.0000000

LOEWDIN ATOMIC CHARGES
----------------------
   0 S :    0.445258
   1 C :   -0.194016
   2 C :   -0.065282
   3 C :   -0.072554
   4 C :   -0.214257
   5 H :    0.029997
   6 C :   -0.033425
   7 H :    0.037545
   8 H :    0.021522
   9 C :   -0.033391
  10 H :    0.024085
  11 H :    0.020413
  12 C :   -0.062326
  13 H :    0.026231
  14 H :    0.032142
  15 H :    0.014677
  16 S :    0.460568
  17 C :   -0.204733
  18 C :   -0.084738
  19 C :   -0.057978
  20 C :   -0.212908
  21 H :    0.038565
  22 C :   -0.031969
  23 H :    0.026418
  24 H :    0.031566
  25 C :   -0.029476
  26 H :    0.024948
  27 H :    0.020986
  28 C :   -0.072239
  29 H :    0.008708
  30 H :    0.033349
  31 H :    0.028178
  32 H :    0.025024
  33 H :    0.019114

  Mayer bond orders larger than 0.100000
B(  0-S ,  1-C ) :   1.1585 B(  0-S ,  4-C ) :   1.1910 B(  1-C ,  2-C ) :   1.5493
B(  1-C ,  4-C ) :   0.1101 B(  1-C , 32-H ) :   0.9687 B(  2-C ,  3-C ) :   1.3234
B(  2-C ,  6-C ) :   1.0133 B(  3-C ,  4-C ) :   1.4879 B(  3-C ,  5-H ) :   0.9820
B(  4-C , 20-C ) :   1.0187 B(  6-C ,  7-H ) :   0.9343 B(  6-C ,  8-H ) :   0.9289
B(  6-C ,  9-C ) :   1.0777 B(  9-C , 10-H ) :   0.9511 B(  9-C , 11-H ) :   0.9605
B(  9-C , 12-C ) :   1.0761 B( 12-C , 13-H ) :   0.9710 B( 12-C , 14-H ) :   0.9740
B( 12-C , 15-H ) :   0.9763 B( 16-S , 17-C ) :   1.1947 B( 16-S , 20-C ) :   1.1491
B( 17-C , 18-C ) :   1.6030 B( 17-C , 33-H ) :   0.9722 B( 18-C , 19-C ) :   1.2232
B( 18-C , 21-H ) :   0.9833 B( 19-C , 20-C ) :   1.6240 B( 19-C , 22-C ) :   1.0195
B( 22-C , 23-H ) :   0.9473 B( 22-C , 24-H ) :   0.9378 B( 22-C , 25-C ) :   1.0589
B( 25-C , 26-H ) :   0.9626 B( 25-C , 27-H ) :   0.9590 B( 25-C , 28-C ) :   1.0614
B( 28-C , 29-H ) :   0.9757 B( 28-C , 30-H ) :   0.9744 B( 28-C , 31-H ) :   0.9688

Dispersion correction           -0.015819844
FINAL SINGLE POINT ENERGY     -1339.871052014313

DIPOLE MOMENT
-------------
                                X             Y             Z
Electronic contribution:      4.86229     -12.53324      -1.38614
Nuclear contribution   :     -5.02497      12.57853       1.43718
                        -----------------------------------------
Total Dipole Moment    :     -0.16268       0.04529       0.05104
                        -----------------------------------------
Magnitude (a.u.)       :      0.17641
Magnitude (Debye)      :      0.44840

Rotational constants in cm-1:     0.022902     0.008890     0.007156
Rotational constants in MHz :   686.590167   266.509911   214.527356

                             ****ORCA TERMINATED NORMALLY****
TOTAL RUN TIME: 0 days 0 hours 0 minutes 22 seconds 280 msec
