                         Program Version 4.2.1 -  RELEASE  -
|  1> ! wB97X-D3 SP def2-SVP
|  2> %pal
|  3> nprocs 24
|  4> end
|  5>
|  6> * xyz 0 1
|  7> S 	 -135.47 	 13.4372 	 -5.70052
|  8> C 	 -133.911 	 14.1451 	 -5.4049
|  9> C 	 -133.24 	 13.3563 	 -4.47495
| 10> C 	 -133.895 	 12.0836 	 -4.23758
| 11> C 	 -134.941 	 11.9264 	 -5.14497
| 12> H 	 -133.601 	 11.3708 	 -3.51712
| 13> C 	 -131.865 	 13.7407 	 -3.97838
| 14> H 	 -132.054 	 13.9053 	 -2.93107
| 15> H 	 -131.63 	 14.7183 	 -4.49111
| 16> C 	 -130.734 	 12.7203 	 -4.25663
| 17> H 	 -129.805 	 13.2051 	 -3.95758
| 18> H 	 -130.671 	 11.8655 	 -3.58052
| 19> C 	 -130.821 	 12.2616 	 -5.74469
| 20> H 	 -131.731 	 11.6228 	 -5.99011
| 21> H 	 -130.812 	 13.1409 	 -6.36832
| 22> H 	 -129.976 	 11.7193 	 -6.0509
| 23> S 	 -137.428 	 10.9298 	 -4.5647
| 24> C 	 -137.848 	 9.37524 	 -5.20227
| 25> C 	 -136.7 	 8.64663 	 -5.52732
| 26> C 	 -135.485 	 9.46366 	 -5.57664
| 27> C 	 -135.78 	 10.7127 	 -5.09422
| 28> H 	 -136.862 	 7.66911 	 -5.91276
| 29> C 	 -134.087 	 8.95097 	 -5.92918
| 30> H 	 -134.064 	 7.87203 	 -5.84358
| 31> H 	 -133.279 	 9.5013 	 -5.36735
| 32> C 	 -133.73 	 9.17061 	 -7.42613
| 33> H 	 -133.691 	 10.2635 	 -7.67522
| 34> H 	 -134.619 	 8.81506 	 -7.97337
| 35> C 	 -132.499 	 8.38374 	 -7.91646
| 36> H 	 -131.611 	 8.56783 	 -7.31749
| 37> H 	 -132.33 	 8.65685 	 -8.96727
| 38> H 	 -132.56 	 7.38322 	 -7.94827
| 39> H 	 -133.551 	 15.1364 	 -5.61178
| 40> H 	 -138.841 	 8.90194 	 -5.20648
| 41> *
| 42>
| 43>                          ****END OF INPUT****

CARTESIAN COORDINATES (ANGSTROEM)
---------------------------------
  S    -135.470000   13.437200   -5.700520
  C    -133.911000   14.145100   -5.404900
  C    -133.240000   13.356300   -4.474950
  C    -133.895000   12.083600   -4.237580
  C    -134.941000   11.926400   -5.144970
  H    -133.601000   11.370800   -3.517120
  C    -131.865000   13.740700   -3.978380
  H    -132.054000   13.905300   -2.931070
  H    -131.630000   14.718300   -4.491110
  C    -130.734000   12.720300   -4.256630
  H    -129.805000   13.205100   -3.957580
  H    -130.671000   11.865500   -3.580520
  C    -130.821000   12.261600   -5.744690
  H    -131.731000   11.622800   -5.990110
  H    -130.812000   13.140900   -6.368320
  H    -129.976000   11.719300   -6.050900
  S    -137.428000   10.929800   -4.564700
  C    -137.848000    9.375240   -5.202270
  C    -136.700000    8.646630   -5.527320
  C    -135.485000    9.463660   -5.576640
  C    -135.780000   10.712700   -5.094220
  H    -136.862000    7.669110   -5.912760
  C    -134.087000    8.950970   -5.929180
  H    -134.064000    7.872030   -5.843580
  H    -133.279000    9.501300   -5.367350
  C    -133.730000    9.170610   -7.426130
  H    -133.691000   10.263500   -7.675220
  H    -134.619000    8.815060   -7.973370
  C    -132.499000    8.383740   -7.916460
  H    -131.611000    8.567830   -7.317490
  H    -132.330000    8.656850   -8.967270
  H    -132.560000    7.383220   -7.948270
  H    -133.551000   15.136400   -5.611780
  H    -138.841000    8.901940   -5.206480

 Total Charge           Charge          ....    0
 Multiplicity           Mult            ....    1
 Number of Electrons    NEL             ....  134
 Basis Dimension        Dim             ....  322

ORBITAL ENERGIES
----------------

  NO   OCC          E(Eh)            E(eV)
   0   2.0000     -88.964873     -2420.8573
   1   2.0000     -88.964644     -2420.8510
   2   2.0000     -10.325243      -280.9641
   3   2.0000     -10.321508      -280.8625
   4   2.0000     -10.316988      -280.7395
   5   2.0000     -10.308661      -280.5129
   6   2.0000     -10.306185      -280.4456
   7   2.0000     -10.298754      -280.2434
   8   2.0000     -10.297078      -280.1977
   9   2.0000     -10.294999      -280.1412
  10   2.0000     -10.294555      -280.1291
  11   2.0000     -10.292820      -280.0819
  12   2.0000     -10.291032      -280.0332
  13   2.0000     -10.287503      -279.9372
  14   2.0000     -10.275933      -279.6224
  15   2.0000     -10.269699      -279.4527
  16   2.0000      -8.080468      -219.8807
  17   2.0000      -8.080082      -219.8702
  18   2.0000      -6.038967      -164.3286
  19   2.0000      -6.038572      -164.3179
  20   2.0000      -6.035107      -164.2236
  21   2.0000      -6.034595      -164.2097
  22   2.0000      -6.030867      -164.1082
  23   2.0000      -6.030777      -164.1058
  24   2.0000      -1.011857       -27.5340
  25   2.0000      -0.985824       -26.8256
  26   2.0000      -0.910311       -24.7708
  27   2.0000      -0.904978       -24.6257
  28   2.0000      -0.865157       -23.5421
  29   2.0000      -0.850068       -23.1315
  30   2.0000      -0.840638       -22.8749
  31   2.0000      -0.813226       -22.1290
  32   2.0000      -0.784556       -21.3489
  33   2.0000      -0.773349       -21.0439
  34   2.0000      -0.710566       -19.3355
  35   2.0000      -0.697890       -18.9906
  36   2.0000      -0.688462       -18.7340
  37   2.0000      -0.659435       -17.9441
  38   2.0000      -0.637756       -17.3542
  39   2.0000      -0.615571       -16.7505
  40   2.0000      -0.591436       -16.0938
  41   2.0000      -0.567039       -15.4299
  42   2.0000      -0.561438       -15.2775
  43   2.0000      -0.557187       -15.1618
  44   2.0000      -0.539699       -14.6860
  45   2.0000      -0.518708       -14.1147
  46   2.0000      -0.516858       -14.0644
  47   2.0000      -0.509022       -13.8512
  48   2.0000      -0.500608       -13.6222
  49   2.0000      -0.497986       -13.5509
  50   2.0000      -0.491591       -13.3769
  51   2.0000      -0.478889       -13.0312
  52   2.0000      -0.470449       -12.8016
  53   2.0000      -0.462900       -12.5962
  54   2.0000      -0.459374       -12.5002
  55   2.0000      -0.453429       -12.3384
  56   2.0000      -0.447932       -12.1888
  57   2.0000      -0.437376       -11.9016
  58   2.0000      -0.430340       -11.7101
  59   2.0000      -0.426448       -11.6042
  60   2.0000      -0.418668       -11.3925
  61   2.0000      -0.413819       -11.2606
  62   2.0000      -0.411922       -11.2090
  63   2.0000      -0.337041        -9.1714
  64   2.0000      -0.329668        -8.9707
  65   2.0000      -0.319154        -8.6846
  66   2.0000      -0.296406        -8.0656
  67   0.0000       0.030161         0.8207
  68   0.0000       0.063342         1.7236
  69   0.0000       0.103482         2.8159
  70   0.0000       0.117453         3.1961
  71   0.0000       0.130290         3.5454

MULLIKEN ATOMIC CHARGES
-----------------------
   0 S :    0.122952
   1 C :   -0.098507
   2 C :   -0.138373
   3 C :    0.026696
   4 C :   -0.124495
   5 H :    0.014522
   6 C :    0.068175
   7 H :    0.036208
   8 H :    0.024949
   9 C :   -0.064316
  10 H :    0.025952
  11 H :    0.022463
  12 C :   -0.042401
  13 H :    0.062846
  14 H :    0.021123
  15 H :    0.019755
  16 S :    0.116145
  17 C :   -0.111983
  18 C :   -0.027811
  19 C :   -0.031663
  20 C :   -0.188253
  21 H :    0.011233
  22 C :    0.088149
  23 H :    0.017616
  24 H :    0.036218
  25 C :   -0.128952
  26 H :    0.048154
  27 H :    0.023305
  28 C :    0.009358
  29 H :    0.022785
  30 H :    0.033602
  31 H :    0.001294
  32 H :    0.038109
  33 H :    0.065144
Sum of atomic charges:    0.0000000

LOEWDIN ATOMIC CHARGES
----------------------
   0 S :    0.430710
   1 C :   -0.209241
   2 C :   -0.059833
   3 C :   -0.052471
   4 C :   -0.209428
   5 H :    0.025242
   6 C :   -0.034031
   7 H :    0.032550
   8 H :    0.034343
   9 C :   -0.044719
  10 H :    0.026533
  11 H :    0.021505
  12 C :   -0.064169
  13 H :    0.038257
  14 H :    0.023718
  15 H :    0.016273
  16 S :    0.406999
  17 C :   -0.196481
  18 C :   -0.068542
  19 C :   -0.053615
  20 C :   -0.197768
  21 H :    0.024146
  22 C :   -0.030553
  23 H :    0.030654
  24 H :    0.034484
  25 C :   -0.043774
  26 H :    0.028386
  27 H :    0.023146
  28 C :   -0.060802
  29 H :    0.025205
  30 H :    0.034720
  31 H :    0.007430
  32 H :    0.026001
  33 H :    0.035126

  Mayer bond orders larger than 0.100000
B(  0-S ,  1-C ) :   1.1298 B(  0-S ,  4-C ) :   1.1727 B(  1-C ,  2-C ) :   1.6024
B(  1-C , 32-H ) :   0.9680 B(  2-C ,  3-C ) :   1.2307 B(  2-C ,  6-C ) :   1.0274
B(  3-C ,  4-C ) :   1.5283 B(  3-C ,  5-H ) :   1.0085 B(  4-C , 20-C ) :   1.0207
B(  6-C ,  7-H ) :   0.9305 B(  6-C ,  8-H ) :   0.9443 B(  6-C ,  9-C ) :   1.0689
B(  9-C , 10-H ) :   0.9556 B(  9-C , 11-H ) :   0.9527 B(  9-C , 12-C ) :   1.0709
B( 12-C , 13-H ) :   0.9651 B( 12-C , 14-H ) :   0.9756 B( 12-C , 15-H ) :   0.9737
B( 16-S , 17-C ) :   1.1427 B( 16-S , 20-C ) :   1.1474 B( 17-C , 18-C ) :   1.6423
B( 17-C , 33-H ) :   0.9631 B( 18-C , 19-C ) :   1.2100 B( 18-C , 21-H ) :   0.9865
B( 19-C , 20-C ) :   1.6423 B( 19-C , 22-C ) :   1.0456 B( 22-C , 23-H ) :   0.9332
B( 22-C , 24-H ) :   0.9345 B( 22-C , 25-C ) :   1.0575 B( 25-C , 26-H ) :   0.9569
B( 25-C , 27-H ) :   0.9546 B( 25-C , 28-C ) :   1.0797 B( 28-C , 29-H ) :   0.9718
B( 28-C , 30-H ) :   0.9711 B( 28-C , 31-H ) :   0.9712

Dispersion correction           -0.015854204
FINAL SINGLE POINT ENERGY     -1339.851888955116

DIPOLE MOMENT
-------------
                                X             Y             Z
Electronic contribution:    -27.45073       8.85461       7.51257
Nuclear contribution   :     28.00066      -9.13255      -7.45121
                        -----------------------------------------
Total Dipole Moment    :      0.54994      -0.27794       0.06135
                        -----------------------------------------
Magnitude (a.u.)       :      0.61923
Magnitude (Debye)      :      1.57396

Rotational constants in cm-1:     0.017252     0.010847     0.007589
Rotational constants in MHz :   517.214449   325.189371   227.499865

                             ****ORCA TERMINATED NORMALLY****
TOTAL RUN TIME: 0 days 0 hours 0 minutes 23 seconds 5 msec
