                         Program Version 4.2.1 -  RELEASE  -
|  1> ! wB97X-D3 SP def2-SVP
|  2> %pal
|  3> nprocs 24
|  4> end
|  5>
|  6> * xyz 0 1
|  7> S 	 31.2368 	 -35.574 	 -135.091
|  8> C 	 32.7377 	 -34.6662 	 -134.978
|  9> C 	 33.1047 	 -34.4893 	 -133.623
| 10> C 	 32.1468 	 -35.1165 	 -132.794
| 11> C 	 31.0383 	 -35.6585 	 -133.38
| 12> H 	 32.3415 	 -35.333 	 -131.77
| 13> C 	 34.3132 	 -33.8902 	 -133.04
| 14> H 	 34.2613 	 -32.8228 	 -132.871
| 15> H 	 35.1684 	 -33.9204 	 -133.808
| 16> C 	 34.7939 	 -34.482 	 -131.652
| 17> H 	 35.6788 	 -33.8937 	 -131.33
| 18> H 	 34.0623 	 -34.3249 	 -130.789
| 19> C 	 35.3471 	 -35.935 	 -131.642
| 20> H 	 35.6984 	 -36.2611 	 -130.596
| 21> H 	 34.6122 	 -36.667 	 -131.951
| 22> H 	 36.2493 	 -36.0208 	 -132.283
| 23> S 	 30.4604 	 -38.2086 	 -132.821
| 24> C 	 29.1879 	 -38.6201 	 -131.774
| 25> C 	 28.5968 	 -37.5214 	 -131.219
| 26> C 	 29.1001 	 -36.2771 	 -131.74
| 27> C 	 30.0678 	 -36.496 	 -132.706
| 28> H 	 27.7992 	 -37.619 	 -130.528
| 29> C 	 28.6285 	 -34.863 	 -131.259
| 30> H 	 27.5234 	 -34.8854 	 -131.082
| 31> H 	 28.9905 	 -34.1141 	 -132.077
| 32> C 	 29.2025 	 -34.4541 	 -129.909
| 33> H 	 30.3535 	 -34.4855 	 -129.879
| 34> H 	 28.9458 	 -35.1833 	 -129.19
| 35> C 	 28.77 	 -33.0616 	 -129.399
| 36> H 	 27.6295 	 -32.9544 	 -129.489
| 37> H 	 29.2236 	 -32.3551 	 -130.028
| 38> H 	 29.0589 	 -32.8324 	 -128.388
| 39> H 	 33.2347 	 -34.2698 	 -135.873
| 40> H 	 28.9605 	 -39.6111 	 -131.414
| 41> *
| 42>
| 43>                          ****END OF INPUT****

CARTESIAN COORDINATES (ANGSTROEM)
---------------------------------
  S     31.236800  -35.574000  -135.091000
  C     32.737700  -34.666200  -134.978000
  C     33.104700  -34.489300  -133.623000
  C     32.146800  -35.116500  -132.794000
  C     31.038300  -35.658500  -133.380000
  H     32.341500  -35.333000  -131.770000
  C     34.313200  -33.890200  -133.040000
  H     34.261300  -32.822800  -132.871000
  H     35.168400  -33.920400  -133.808000
  C     34.793900  -34.482000  -131.652000
  H     35.678800  -33.893700  -131.330000
  H     34.062300  -34.324900  -130.789000
  C     35.347100  -35.935000  -131.642000
  H     35.698400  -36.261100  -130.596000
  H     34.612200  -36.667000  -131.951000
  H     36.249300  -36.020800  -132.283000
  S     30.460400  -38.208600  -132.821000
  C     29.187900  -38.620100  -131.774000
  C     28.596800  -37.521400  -131.219000
  C     29.100100  -36.277100  -131.740000
  C     30.067800  -36.496000  -132.706000
  H     27.799200  -37.619000  -130.528000
  C     28.628500  -34.863000  -131.259000
  H     27.523400  -34.885400  -131.082000
  H     28.990500  -34.114100  -132.077000
  C     29.202500  -34.454100  -129.909000
  H     30.353500  -34.485500  -129.879000
  H     28.945800  -35.183300  -129.190000
  C     28.770000  -33.061600  -129.399000
  H     27.629500  -32.954400  -129.489000
  H     29.223600  -32.355100  -130.028000
  H     29.058900  -32.832400  -128.388000
  H     33.234700  -34.269800  -135.873000
  H     28.960500  -39.611100  -131.414000

 Total Charge           Charge          ....    0
 Multiplicity           Mult            ....    1
 Number of Electrons    NEL             ....  134
 Basis Dimension        Dim             ....  322

ORBITAL ENERGIES
----------------

  NO   OCC          E(Eh)            E(eV)
   0   2.0000     -88.965960     -2420.8869
   1   2.0000     -88.962459     -2420.7916
   2   2.0000     -10.323893      -280.9274
   3   2.0000     -10.322417      -280.8872
   4   2.0000     -10.321364      -280.8586
   5   2.0000     -10.311478      -280.5896
   6   2.0000     -10.308500      -280.5085
   7   2.0000     -10.306354      -280.4502
   8   2.0000     -10.302491      -280.3450
   9   2.0000     -10.302075      -280.3337
  10   2.0000     -10.301981      -280.3311
  11   2.0000     -10.289494      -279.9914
  12   2.0000     -10.287341      -279.9328
  13   2.0000     -10.285424      -279.8806
  14   2.0000     -10.284676      -279.8603
  15   2.0000     -10.278862      -279.7021
  16   2.0000      -8.080916      -219.8929
  17   2.0000      -8.078300      -219.8217
  18   2.0000      -6.039310      -164.3380
  19   2.0000      -6.036740      -164.2680
  20   2.0000      -6.035263      -164.2279
  21   2.0000      -6.032653      -164.1568
  22   2.0000      -6.031902      -164.1364
  23   2.0000      -6.029049      -164.0588
  24   2.0000      -1.011503       -27.5244
  25   2.0000      -0.987899       -26.8821
  26   2.0000      -0.908869       -24.7316
  27   2.0000      -0.905221       -24.6323
  28   2.0000      -0.869926       -23.6719
  29   2.0000      -0.849094       -23.1050
  30   2.0000      -0.843588       -22.9552
  31   2.0000      -0.813713       -22.1423
  32   2.0000      -0.782953       -21.3052
  33   2.0000      -0.772349       -21.0167
  34   2.0000      -0.706038       -19.2123
  35   2.0000      -0.693604       -18.8739
  36   2.0000      -0.688914       -18.7463
  37   2.0000      -0.660259       -17.9666
  38   2.0000      -0.641423       -17.4540
  39   2.0000      -0.628312       -17.0972
  40   2.0000      -0.594558       -16.1788
  41   2.0000      -0.568677       -15.4745
  42   2.0000      -0.560872       -15.2621
  43   2.0000      -0.544697       -14.8220
  44   2.0000      -0.529786       -14.4162
  45   2.0000      -0.522573       -14.2199
  46   2.0000      -0.520484       -14.1631
  47   2.0000      -0.513667       -13.9776
  48   2.0000      -0.506316       -13.7776
  49   2.0000      -0.498461       -13.5638
  50   2.0000      -0.488759       -13.2998
  51   2.0000      -0.474409       -12.9093
  52   2.0000      -0.471445       -12.8287
  53   2.0000      -0.462021       -12.5722
  54   2.0000      -0.461190       -12.5496
  55   2.0000      -0.453037       -12.3278
  56   2.0000      -0.439548       -11.9607
  57   2.0000      -0.435956       -11.8630
  58   2.0000      -0.431726       -11.7479
  59   2.0000      -0.422374       -11.4934
  60   2.0000      -0.418628       -11.3915
  61   2.0000      -0.416683       -11.3385
  62   2.0000      -0.414060       -11.2671
  63   2.0000      -0.339351        -9.2342
  64   2.0000      -0.328012        -8.9257
  65   2.0000      -0.324191        -8.8217
  66   2.0000      -0.304904        -8.2969
  67   0.0000       0.038787         1.0554
  68   0.0000       0.059817         1.6277
  69   0.0000       0.118779         3.2321
  70   0.0000       0.123349         3.3565
  71   0.0000       0.129518         3.5244

MULLIKEN ATOMIC CHARGES
-----------------------
   0 S :    0.113530
   1 C :   -0.142470
   2 C :   -0.049224
   3 C :    0.034344
   4 C :   -0.166169
   5 H :    0.008661
   6 C :    0.058051
   7 H :    0.043837
   8 H :    0.031415
   9 C :   -0.138545
  10 H :    0.033058
  11 H :    0.050100
  12 C :   -0.071465
  13 H :    0.041296
  14 H :    0.042031
  15 H :    0.036518
  16 S :    0.113033
  17 C :   -0.067625
  18 C :   -0.036468
  19 C :   -0.013117
  20 C :   -0.180455
  21 H :    0.003075
  22 C :    0.044626
  23 H :    0.034874
  24 H :    0.056880
  25 C :   -0.101620
  26 H :    0.030706
  27 H :    0.013611
  28 C :   -0.024737
  29 H :    0.032506
  30 H :    0.023259
  31 H :    0.034431
  32 H :    0.060256
  33 H :    0.051796
Sum of atomic charges:   -0.0000000

LOEWDIN ATOMIC CHARGES
----------------------
   0 S :    0.422145
   1 C :   -0.194540
   2 C :   -0.069184
   3 C :   -0.058228
   4 C :   -0.221425
   5 H :    0.024821
   6 C :   -0.040094
   7 H :    0.036505
   8 H :    0.040302
   9 C :   -0.052670
  10 H :    0.029944
  11 H :    0.030390
  12 C :   -0.075380
  13 H :    0.034734
  14 H :    0.020913
  15 H :    0.027499
  16 S :    0.424670
  17 C :   -0.195127
  18 C :   -0.073522
  19 C :   -0.048497
  20 C :   -0.199031
  21 H :    0.024157
  22 C :   -0.033287
  23 H :    0.035709
  24 H :    0.044980
  25 C :   -0.050110
  26 H :    0.028052
  27 H :    0.013273
  28 C :   -0.061999
  29 H :    0.031103
  30 H :    0.017914
  31 H :    0.024917
  32 H :    0.031402
  33 H :    0.029666

  Mayer bond orders larger than 0.100000
B(  0-S ,  1-C ) :   1.1665 B(  0-S ,  4-C ) :   1.1616 B(  1-C ,  2-C ) :   1.5490
B(  1-C ,  4-C ) :   0.1017 B(  1-C , 32-H ) :   0.9705 B(  2-C ,  3-C ) :   1.2856
B(  2-C ,  6-C ) :   1.0288 B(  3-C ,  4-C ) :   1.5592 B(  3-C ,  5-H ) :   0.9858
B(  4-C , 20-C ) :   1.0026 B(  6-C ,  7-H ) :   0.9264 B(  6-C ,  8-H ) :   0.9409
B(  6-C ,  9-C ) :   1.0733 B(  9-C , 10-H ) :   0.9531 B(  9-C , 11-H ) :   0.9493
B(  9-C , 12-C ) :   1.0694 B( 12-C , 13-H ) :   0.9740 B( 12-C , 14-H ) :   0.9773
B( 12-C , 15-H ) :   0.9745 B( 16-S , 17-C ) :   1.1644 B( 16-S , 20-C ) :   1.1515
B( 17-C , 18-C ) :   1.6153 B( 17-C , 33-H ) :   0.9655 B( 18-C , 19-C ) :   1.2311
B( 18-C , 21-H ) :   0.9972 B( 19-C , 20-C ) :   1.6263 B( 19-C , 22-C ) :   1.0357
B( 22-C , 23-H ) :   0.9327 B( 22-C , 24-H ) :   0.9368 B( 22-C , 25-C ) :   1.0656
B( 25-C , 26-H ) :   0.9499 B( 25-C , 27-H ) :   0.9547 B( 25-C , 28-C ) :   1.0809
B( 28-C , 29-H ) :   0.9725 B( 28-C , 30-H ) :   0.9764 B( 28-C , 31-H ) :   0.9739

Dispersion correction           -0.014474996
FINAL SINGLE POINT ENERGY     -1339.877933265213

DIPOLE MOMENT
-------------
                                X             Y             Z
Electronic contribution:     -8.18671     -14.59903     -19.87828
Nuclear contribution   :      8.47508      14.85329      20.45648
                        -----------------------------------------
Total Dipole Moment    :      0.28837       0.25426       0.57820
                        -----------------------------------------
Magnitude (a.u.)       :      0.69435
Magnitude (Debye)      :      1.76489

Rotational constants in cm-1:     0.015451     0.009755     0.008089
Rotational constants in MHz :   463.197778   292.442593   242.515172

                             ****ORCA TERMINATED NORMALLY****
TOTAL RUN TIME: 0 days 0 hours 0 minutes 21 seconds 938 msec
