                         Program Version 4.2.1 -  RELEASE  -
|  1> ! wB97X-D3 SP def2-SVP
|  2> %pal
|  3> nprocs 24
|  4> end
|  5>
|  6> * xyz 0 1
|  7> S 	 -45.1171 	 15.5319 	 19.5392
|  8> C 	 -44.851 	 14.4918 	 18.1876
|  9> C 	 -44.4784 	 13.2457 	 18.5224
| 10> C 	 -44.3973 	 13.1049 	 19.9522
| 11> C 	 -44.5989 	 14.2697 	 20.6387
| 12> H 	 -44.1248 	 12.2951 	 20.4019
| 13> C 	 -44.2011 	 12.1869 	 17.5074
| 14> H 	 -44.3701 	 12.6546 	 16.5207
| 15> H 	 -44.7334 	 11.2691 	 17.7009
| 16> C 	 -42.7292 	 11.6928 	 17.5205
| 17> H 	 -42.5297 	 11.1093 	 18.4579
| 18> H 	 -42.7365 	 10.9499 	 16.6942
| 19> C 	 -41.7922 	 12.8166 	 17.3354
| 20> H 	 -41.4002 	 13.2693 	 18.2182
| 21> H 	 -40.9033 	 12.5082 	 16.8187
| 22> H 	 -42.0763 	 13.596 	 16.6688
| 23> S 	 -46.2704 	 15.1202 	 22.7353
| 24> C 	 -45.628 	 15.177 	 24.3138
| 25> C 	 -44.3161 	 14.7924 	 24.3827
| 26> C 	 -43.7955 	 14.3249 	 23.1046
| 27> C 	 -44.6968 	 14.4689 	 22.0826
| 28> H 	 -43.9077 	 14.9097 	 25.3297
| 29> C 	 -42.3124 	 13.8652 	 22.9935
| 30> H 	 -41.7799 	 14.6631 	 23.48
| 31> H 	 -41.9673 	 14.0249 	 21.9508
| 32> C 	 -41.8917 	 12.5772 	 23.7594
| 33> H 	 -42.328 	 12.5254 	 24.7204
| 34> H 	 -40.7876 	 12.59 	 23.9814
| 35> C 	 -42.2595 	 11.3114 	 23.0881
| 36> H 	 -41.8386 	 10.3687 	 23.5775
| 37> H 	 -41.9265 	 11.2642 	 22.0287
| 38> H 	 -43.3864 	 11.1305 	 23.2322
| 39> H 	 -44.9175 	 14.7082 	 17.1323
| 40> H 	 -46.1524 	 15.5809 	 25.2097
| 41> *
| 42>
| 43>                          ****END OF INPUT****

CARTESIAN COORDINATES (ANGSTROEM)
---------------------------------
  S    -45.117100   15.531900   19.539200
  C    -44.851000   14.491800   18.187600
  C    -44.478400   13.245700   18.522400
  C    -44.397300   13.104900   19.952200
  C    -44.598900   14.269700   20.638700
  H    -44.124800   12.295100   20.401900
  C    -44.201100   12.186900   17.507400
  H    -44.370100   12.654600   16.520700
  H    -44.733400   11.269100   17.700900
  C    -42.729200   11.692800   17.520500
  H    -42.529700   11.109300   18.457900
  H    -42.736500   10.949900   16.694200
  C    -41.792200   12.816600   17.335400
  H    -41.400200   13.269300   18.218200
  H    -40.903300   12.508200   16.818700
  H    -42.076300   13.596000   16.668800
  S    -46.270400   15.120200   22.735300
  C    -45.628000   15.177000   24.313800
  C    -44.316100   14.792400   24.382700
  C    -43.795500   14.324900   23.104600
  C    -44.696800   14.468900   22.082600
  H    -43.907700   14.909700   25.329700
  C    -42.312400   13.865200   22.993500
  H    -41.779900   14.663100   23.480000
  H    -41.967300   14.024900   21.950800
  C    -41.891700   12.577200   23.759400
  H    -42.328000   12.525400   24.720400
  H    -40.787600   12.590000   23.981400
  C    -42.259500   11.311400   23.088100
  H    -41.838600   10.368700   23.577500
  H    -41.926500   11.264200   22.028700
  H    -43.386400   11.130500   23.232200
  H    -44.917500   14.708200   17.132300
  H    -46.152400   15.580900   25.209700

 Total Charge           Charge          ....    0
 Multiplicity           Mult            ....    1
 Number of Electrons    NEL             ....  134
 Basis Dimension        Dim             ....  322

ORBITAL ENERGIES
----------------

  NO   OCC          E(Eh)            E(eV)
   0   2.0000     -88.963098     -2420.8090
   1   2.0000     -88.961689     -2420.7706
   2   2.0000     -10.329365      -281.0763
   3   2.0000     -10.326822      -281.0071
   4   2.0000     -10.314874      -280.6820
   5   2.0000     -10.310351      -280.5589
   6   2.0000     -10.303805      -280.3808
   7   2.0000     -10.296754      -280.1889
   8   2.0000     -10.290140      -280.0090
   9   2.0000     -10.289892      -280.0022
  10   2.0000     -10.289855      -280.0012
  11   2.0000     -10.288789      -279.9722
  12   2.0000     -10.287743      -279.9437
  13   2.0000     -10.285728      -279.8889
  14   2.0000     -10.280593      -279.7492
  15   2.0000     -10.264599      -279.3139
  16   2.0000      -8.078382      -219.8239
  17   2.0000      -8.076460      -219.7717
  18   2.0000      -6.036985      -164.2747
  19   2.0000      -6.035056      -164.2222
  20   2.0000      -6.032876      -164.1629
  21   2.0000      -6.031036      -164.1128
  22   2.0000      -6.028931      -164.0556
  23   2.0000      -6.027031      -164.0039
  24   2.0000      -1.007255       -27.4088
  25   2.0000      -0.984923       -26.8011
  26   2.0000      -0.918662       -24.9981
  27   2.0000      -0.907704       -24.6999
  28   2.0000      -0.872404       -23.7393
  29   2.0000      -0.852528       -23.1985
  30   2.0000      -0.845814       -23.0158
  31   2.0000      -0.819816       -22.3083
  32   2.0000      -0.787305       -21.4236
  33   2.0000      -0.777041       -21.1443
  34   2.0000      -0.713274       -19.4092
  35   2.0000      -0.693371       -18.8676
  36   2.0000      -0.689701       -18.7677
  37   2.0000      -0.655921       -17.8485
  38   2.0000      -0.644373       -17.5343
  39   2.0000      -0.626558       -17.0495
  40   2.0000      -0.593791       -16.1579
  41   2.0000      -0.574179       -15.6242
  42   2.0000      -0.561170       -15.2702
  43   2.0000      -0.548430       -14.9235
  44   2.0000      -0.546384       -14.8679
  45   2.0000      -0.538233       -14.6461
  46   2.0000      -0.520882       -14.1739
  47   2.0000      -0.514557       -14.0018
  48   2.0000      -0.499941       -13.6041
  49   2.0000      -0.497105       -13.5269
  50   2.0000      -0.490025       -13.3343
  51   2.0000      -0.480695       -13.0804
  52   2.0000      -0.468297       -12.7430
  53   2.0000      -0.464531       -12.6405
  54   2.0000      -0.458554       -12.4779
  55   2.0000      -0.454321       -12.3627
  56   2.0000      -0.439821       -11.9681
  57   2.0000      -0.433888       -11.8067
  58   2.0000      -0.432468       -11.7681
  59   2.0000      -0.426557       -11.6072
  60   2.0000      -0.422332       -11.4922
  61   2.0000      -0.411136       -11.1876
  62   2.0000      -0.407510       -11.0889
  63   2.0000      -0.347397        -9.4531
  64   2.0000      -0.330744        -9.0000
  65   2.0000      -0.324627        -8.8336
  66   2.0000      -0.297927        -8.1070
  67   0.0000       0.038810         1.0561
  68   0.0000       0.069355         1.8872
  69   0.0000       0.119627         3.2552
  70   0.0000       0.122696         3.3387
  71   0.0000       0.126707         3.4479

MULLIKEN ATOMIC CHARGES
-----------------------
   0 S :    0.110252
   1 C :   -0.107893
   2 C :   -0.089305
   3 C :    0.130722
   4 C :   -0.158334
   5 H :   -0.090404
   6 C :    0.082996
   7 H :    0.018727
   8 H :    0.030547
   9 C :   -0.107833
  10 H :    0.038856
  11 H :    0.034469
  12 C :    0.003555
  13 H :    0.030251
  14 H :    0.011131
  15 H :    0.009520
  16 S :    0.098524
  17 C :   -0.104947
  18 C :   -0.023931
  19 C :   -0.017131
  20 C :   -0.159372
  21 H :   -0.006533
  22 C :    0.071606
  23 H :    0.019614
  24 H :    0.035565
  25 C :   -0.042873
  26 H :    0.018737
  27 H :    0.034750
  28 C :   -0.099683
  29 H :    0.036850
  30 H :    0.041127
  31 H :    0.049257
  32 H :    0.030650
  33 H :    0.070536
Sum of atomic charges:    0.0000000

LOEWDIN ATOMIC CHARGES
----------------------
   0 S :    0.407655
   1 C :   -0.199856
   2 C :   -0.065397
   3 C :   -0.030572
   4 C :   -0.186463
   5 H :   -0.003496
   6 C :   -0.026172
   7 H :    0.030019
   8 H :    0.031345
   9 C :   -0.044056
  10 H :    0.027887
  11 H :    0.027162
  12 C :   -0.071329
  13 H :    0.027895
  14 H :    0.027029
  15 H :    0.022574
  16 S :    0.383694
  17 C :   -0.196084
  18 C :   -0.075752
  19 C :   -0.048026
  20 C :   -0.179781
  21 H :    0.021408
  22 C :   -0.031123
  23 H :    0.033258
  24 H :    0.035383
  25 C :   -0.045984
  26 H :    0.022446
  27 H :    0.031051
  28 C :   -0.082275
  29 H :    0.031400
  30 H :    0.024014
  31 H :    0.035199
  32 H :    0.026983
  33 H :    0.039964

  Mayer bond orders larger than 0.100000
B(  0-S ,  1-C ) :   1.1262 B(  0-S ,  4-C ) :   1.1380 B(  1-C ,  2-C ) :   1.6510
B(  1-C , 32-H ) :   0.9559 B(  2-C ,  3-C ) :   1.2081 B(  2-C ,  6-C ) :   1.0389
B(  3-C ,  4-C ) :   1.5891 B(  3-C ,  5-H ) :   1.0252 B(  4-C , 20-C ) :   1.0332
B(  6-C ,  7-H ) :   0.9411 B(  6-C ,  8-H ) :   0.9350 B(  6-C ,  9-C ) :   1.0720
B(  9-C , 10-H ) :   0.9536 B(  9-C , 11-H ) :   0.9607 B(  9-C , 12-C ) :   1.0765
B( 12-C , 13-H ) :   0.9676 B( 12-C , 14-H ) :   0.9647 B( 12-C , 15-H ) :   0.9731
B( 16-S , 17-C ) :   1.1510 B( 16-S , 20-C ) :   1.1114 B( 17-C , 18-C ) :   1.6593
B( 17-C , 33-H ) :   0.9564 B( 18-C , 19-C ) :   1.1787 B( 18-C , 21-H ) :   1.0019
B( 19-C , 20-C ) :   1.6496 B( 19-C , 22-C ) :   1.0306 B( 22-C , 23-H ) :   0.9302
B( 22-C , 24-H ) :   0.9427 B( 22-C , 25-C ) :   1.0589 B( 25-C , 26-H ) :   0.9527
B( 25-C , 27-H ) :   0.9529 B( 25-C , 28-C ) :   1.0885 B( 28-C , 29-H ) :   0.9684
B( 28-C , 30-H ) :   0.9720 B( 28-C , 31-H ) :   0.9719

Dispersion correction           -0.014989368
FINAL SINGLE POINT ENERGY     -1339.861605419133

DIPOLE MOMENT
-------------
                                X             Y             Z
Electronic contribution:    -21.07613      18.84746       5.30815
Nuclear contribution   :     21.65119     -19.25297      -5.22077
                        -----------------------------------------
Total Dipole Moment    :      0.57505      -0.40551       0.08738
                        -----------------------------------------
Magnitude (a.u.)       :      0.70905
Magnitude (Debye)      :      1.80227

Rotational constants in cm-1:     0.018658     0.009781     0.007054
Rotational constants in MHz :   559.361380   293.228674   211.475768

                             ****ORCA TERMINATED NORMALLY****
TOTAL RUN TIME: 0 days 0 hours 0 minutes 22 seconds 322 msec
