                         Program Version 4.2.1 -  RELEASE  -
|  1> ! wB97X-D3 SP def2-SVP
|  2> %pal
|  3> nprocs 24
|  4> end
|  5>
|  6> * xyz 0 1
|  7> S 	 -47.2569 	 -48.4426 	 -75.9383
|  8> C 	 -48.8051 	 -48.2971 	 -75.2111
|  9> C 	 -49.7694 	 -48.9435 	 -75.9837
| 10> C 	 -49.2071 	 -49.4088 	 -77.238
| 11> C 	 -47.8836 	 -49.144 	 -77.396
| 12> H 	 -49.695 	 -49.9523 	 -78.043
| 13> C 	 -51.2988 	 -49.1452 	 -75.7211
| 14> H 	 -51.4422 	 -48.3699 	 -75.0126
| 15> H 	 -51.265 	 -50.0886 	 -75.1949
| 16> C 	 -52.1155 	 -49.0061 	 -76.9417
| 17> H 	 -51.8451 	 -48.1819 	 -77.4949
| 18> H 	 -52.0062 	 -49.8863 	 -77.5327
| 19> C 	 -53.6135 	 -48.8242 	 -76.6598
| 20> H 	 -54.1627 	 -49.7419 	 -76.4815
| 21> H 	 -53.7111 	 -48.0853 	 -75.8405
| 22> H 	 -54.1897 	 -48.3903 	 -77.5337
| 23> S 	 -45.7331 	 -50.8317 	 -78.1016
| 24> C 	 -45.4299 	 -51.0351 	 -79.836
| 25> C 	 -46.1968 	 -50.1731 	 -80.5928
| 26> C 	 -47.1292 	 -49.4267 	 -79.8269
| 27> C 	 -46.9718 	 -49.6262 	 -78.4497
| 28> H 	 -46.1088 	 -50.1064 	 -81.6909
| 29> C 	 -48.1351 	 -48.4755 	 -80.5217
| 30> H 	 -47.4531 	 -48.0201 	 -81.3526
| 31> H 	 -48.2198 	 -47.6241 	 -79.8587
| 32> C 	 -49.5288 	 -48.9992 	 -81.0149
| 33> H 	 -50.1363 	 -48.1853 	 -81.4533
| 34> H 	 -50.1002 	 -49.491 	 -80.2347
| 35> C 	 -49.4523 	 -50.083 	 -82.0671
| 36> H 	 -49.0741 	 -50.9813 	 -81.515
| 37> H 	 -48.8875 	 -49.8422 	 -82.941
| 38> H 	 -50.4609 	 -50.3135 	 -82.3347
| 39> H 	 -49.0297 	 -47.9529 	 -74.2282
| 40> H 	 -44.7803 	 -51.7561 	 -80.269
| 41> *
| 42>
| 43>                          ****END OF INPUT****

CARTESIAN COORDINATES (ANGSTROEM)
---------------------------------
  S    -47.256900  -48.442600  -75.938300
  C    -48.805100  -48.297100  -75.211100
  C    -49.769400  -48.943500  -75.983700
  C    -49.207100  -49.408800  -77.238000
  C    -47.883600  -49.144000  -77.396000
  H    -49.695000  -49.952300  -78.043000
  C    -51.298800  -49.145200  -75.721100
  H    -51.442200  -48.369900  -75.012600
  H    -51.265000  -50.088600  -75.194900
  C    -52.115500  -49.006100  -76.941700
  H    -51.845100  -48.181900  -77.494900
  H    -52.006200  -49.886300  -77.532700
  C    -53.613500  -48.824200  -76.659800
  H    -54.162700  -49.741900  -76.481500
  H    -53.711100  -48.085300  -75.840500
  H    -54.189700  -48.390300  -77.533700
  S    -45.733100  -50.831700  -78.101600
  C    -45.429900  -51.035100  -79.836000
  C    -46.196800  -50.173100  -80.592800
  C    -47.129200  -49.426700  -79.826900
  C    -46.971800  -49.626200  -78.449700
  H    -46.108800  -50.106400  -81.690900
  C    -48.135100  -48.475500  -80.521700
  H    -47.453100  -48.020100  -81.352600
  H    -48.219800  -47.624100  -79.858700
  C    -49.528800  -48.999200  -81.014900
  H    -50.136300  -48.185300  -81.453300
  H    -50.100200  -49.491000  -80.234700
  C    -49.452300  -50.083000  -82.067100
  H    -49.074100  -50.981300  -81.515000
  H    -48.887500  -49.842200  -82.941000
  H    -50.460900  -50.313500  -82.334700
  H    -49.029700  -47.952900  -74.228200
  H    -44.780300  -51.756100  -80.269000

 Total Charge           Charge          ....    0
 Multiplicity           Mult            ....    1
 Number of Electrons    NEL             ....  134
 Basis Dimension        Dim             ....  322

ORBITAL ENERGIES
----------------

  NO   OCC          E(Eh)            E(eV)
   0   2.0000     -88.969194     -2420.9748
   1   2.0000     -88.961662     -2420.7699
   2   2.0000     -10.328592      -281.0553
   3   2.0000     -10.323955      -280.9291
   4   2.0000     -10.317925      -280.7650
   5   2.0000     -10.310742      -280.5696
   6   2.0000     -10.304046      -280.3873
   7   2.0000     -10.303148      -280.3629
   8   2.0000     -10.301575      -280.3201
   9   2.0000     -10.294664      -280.1321
  10   2.0000     -10.292164      -280.0640
  11   2.0000     -10.289605      -279.9944
  12   2.0000     -10.289112      -279.9810
  13   2.0000     -10.283381      -279.8250
  14   2.0000     -10.278275      -279.6861
  15   2.0000     -10.273508      -279.5564
  16   2.0000      -8.083178      -219.9544
  17   2.0000      -8.077332      -219.7954
  18   2.0000      -6.041694      -164.4029
  19   2.0000      -6.037862      -164.2986
  20   2.0000      -6.035824      -164.2431
  21   2.0000      -6.033882      -164.1903
  22   2.0000      -6.031662      -164.1299
  23   2.0000      -6.028100      -164.0329
  24   2.0000      -1.006032       -27.3755
  25   2.0000      -0.983037       -26.7498
  26   2.0000      -0.920513       -25.0484
  27   2.0000      -0.903977       -24.5985
  28   2.0000      -0.869406       -23.6577
  29   2.0000      -0.853120       -23.2146
  30   2.0000      -0.844385       -22.9769
  31   2.0000      -0.816080       -22.2067
  32   2.0000      -0.782180       -21.2842
  33   2.0000      -0.771014       -20.9803
  34   2.0000      -0.713635       -19.4190
  35   2.0000      -0.699768       -19.0417
  36   2.0000      -0.687218       -18.7002
  37   2.0000      -0.656962       -17.8769
  38   2.0000      -0.644378       -17.5344
  39   2.0000      -0.614799       -16.7295
  40   2.0000      -0.589717       -16.0470
  41   2.0000      -0.583863       -15.8877
  42   2.0000      -0.563371       -15.3301
  43   2.0000      -0.555042       -15.1035
  44   2.0000      -0.549419       -14.9504
  45   2.0000      -0.529212       -14.4006
  46   2.0000      -0.518583       -14.1113
  47   2.0000      -0.507396       -13.8070
  48   2.0000      -0.503434       -13.6991
  49   2.0000      -0.500000       -13.6057
  50   2.0000      -0.492412       -13.3992
  51   2.0000      -0.473937       -12.8965
  52   2.0000      -0.468269       -12.7422
  53   2.0000      -0.464611       -12.6427
  54   2.0000      -0.463344       -12.6082
  55   2.0000      -0.444755       -12.1024
  56   2.0000      -0.440661       -11.9910
  57   2.0000      -0.439856       -11.9691
  58   2.0000      -0.434641       -11.8272
  59   2.0000      -0.430888       -11.7251
  60   2.0000      -0.418463       -11.3870
  61   2.0000      -0.415421       -11.3042
  62   2.0000      -0.409082       -11.1317
  63   2.0000      -0.347314        -9.4509
  64   2.0000      -0.331678        -9.0254
  65   2.0000      -0.324644        -8.8340
  66   2.0000      -0.295864        -8.0509
  67   0.0000       0.036064         0.9814
  68   0.0000       0.065515         1.7827
  69   0.0000       0.115271         3.1367
  70   0.0000       0.125176         3.4062
  71   0.0000       0.131874         3.5885

MULLIKEN ATOMIC CHARGES
-----------------------
   0 S :    0.104325
   1 C :   -0.100255
   2 C :   -0.159714
   3 C :    0.029042
   4 C :   -0.165668
   5 H :    0.003895
   6 C :    0.125516
   7 H :    0.002500
   8 H :    0.047193
   9 C :   -0.039536
  10 H :    0.021370
  11 H :    0.028453
  12 C :   -0.066895
  13 H :    0.034813
  14 H :    0.031754
  15 H :    0.034142
  16 S :    0.116918
  17 C :   -0.088773
  18 C :   -0.027742
  19 C :   -0.071540
  20 C :   -0.137306
  21 H :    0.029104
  22 C :    0.040246
  23 H :    0.036905
  24 H :    0.033085
  25 C :   -0.047057
  26 H :    0.037269
  27 H :    0.021787
  28 C :   -0.048066
  29 H :    0.039540
  30 H :    0.030018
  31 H :    0.022234
  32 H :    0.035033
  33 H :    0.047411
Sum of atomic charges:   -0.0000000

LOEWDIN ATOMIC CHARGES
----------------------
   0 S :    0.419550
   1 C :   -0.213657
   2 C :   -0.056467
   3 C :   -0.067696
   4 C :   -0.198951
   5 H :    0.028348
   6 C :   -0.023202
   7 H :    0.023651
   8 H :    0.038157
   9 C :   -0.037815
  10 H :    0.021688
  11 H :    0.024127
  12 C :   -0.066364
  13 H :    0.022589
  14 H :    0.025766
  15 H :    0.031477
  16 S :    0.397368
  17 C :   -0.174134
  18 C :   -0.072952
  19 C :   -0.061704
  20 C :   -0.201485
  21 H :    0.036506
  22 C :   -0.038596
  23 H :    0.042725
  24 H :    0.030480
  25 C :   -0.038262
  26 H :    0.028415
  27 H :    0.023149
  28 C :   -0.062864
  29 H :    0.031773
  30 H :    0.017152
  31 H :    0.022397
  32 H :    0.024353
  33 H :    0.024481

  Mayer bond orders larger than 0.100000
B(  0-S ,  1-C ) :   1.1444 B(  0-S ,  4-C ) :   1.1502 B(  1-C ,  2-C ) :   1.6247
B(  1-C , 32-H ) :   0.9706 B(  2-C ,  3-C ) :   1.2309 B(  2-C ,  6-C ) :   0.9816
B(  3-C ,  4-C ) :   1.5993 B(  3-C ,  5-H ) :   0.9884 B(  4-C , 20-C ) :   1.0099
B(  6-C ,  7-H ) :   0.9373 B(  6-C ,  8-H ) :   0.9299 B(  6-C ,  9-C ) :   1.0934
B(  9-C , 10-H ) :   0.9564 B(  9-C , 11-H ) :   0.9401 B(  9-C , 12-C ) :   1.0861
B( 12-C , 13-H ) :   0.9767 B( 12-C , 14-H ) :   0.9753 B( 12-C , 15-H ) :   0.9754
B( 16-S , 17-C ) :   1.1485 B( 16-S , 20-C ) :   1.1419 B( 17-C , 18-C ) :   1.6067
B( 17-C , 33-H ) :   0.9708 B( 18-C , 19-C ) :   1.2567 B( 18-C , 21-H ) :   0.9823
B( 19-C , 20-C ) :   1.6017 B( 19-C , 22-C ) :   1.0156 B( 22-C , 23-H ) :   0.9459
B( 22-C , 24-H ) :   0.9355 B( 22-C , 25-C ) :   1.0562 B( 25-C , 26-H ) :   0.9556
B( 25-C , 27-H ) :   0.9552 B( 25-C , 28-C ) :   1.0837 B( 28-C , 29-H ) :   0.9737
B( 28-C , 30-H ) :   0.9769 B( 28-C , 31-H ) :   0.9716

Dispersion correction           -0.014809645
FINAL SINGLE POINT ENERGY     -1339.870549906771

DIPOLE MOMENT
-------------
                                X             Y             Z
Electronic contribution:     28.54516      -2.26985      12.55406
Nuclear contribution   :    -29.21614       2.16012     -12.93912
                        -----------------------------------------
Total Dipole Moment    :     -0.67098      -0.10974      -0.38506
                        -----------------------------------------
Magnitude (a.u.)       :      0.78136
Magnitude (Debye)      :      1.98607

Rotational constants in cm-1:     0.017289     0.009704     0.006835
Rotational constants in MHz :   518.309662   290.922550   204.913639

                             ****ORCA TERMINATED NORMALLY****
TOTAL RUN TIME: 0 days 0 hours 0 minutes 22 seconds 130 msec
