                         Program Version 4.2.1 -  RELEASE  -
|  1> ! wB97X-D3 SP def2-SVP
|  2> %pal
|  3> nprocs 24
|  4> end
|  5>
|  6> * xyz 0 1
|  7> S 	 27.2123 	 -8.911 	 -113.986
|  8> C 	 28.0184 	 -9.82137 	 -112.801
|  9> C 	 27.1624 	 -10.2608 	 -111.784
| 10> C 	 25.871 	 -9.72582 	 -111.899
| 11> C 	 25.7296 	 -8.89791 	 -113.033
| 12> H 	 24.9475 	 -9.9472 	 -111.37
| 13> C 	 27.5885 	 -11.1459 	 -110.597
| 14> H 	 28.3064 	 -11.8716 	 -110.923
| 15> H 	 26.7147 	 -11.6512 	 -110.244
| 16> C 	 28.2812 	 -10.2263 	 -109.553
| 17> H 	 29.0234 	 -9.54848 	 -109.989
| 18> H 	 27.5492 	 -9.42495 	 -109.381
| 19> C 	 28.7748 	 -10.8839 	 -108.192
| 20> H 	 29.7513 	 -11.3617 	 -108.344
| 21> H 	 28.8513 	 -10.2479 	 -107.297
| 22> H 	 28.0354 	 -11.6062 	 -107.907
| 23> S 	 24.2411 	 -8.41473 	 -115.169
| 24> C 	 22.7663 	 -7.36854 	 -115.021
| 25> C 	 22.5777 	 -6.96808 	 -113.758
| 26> C 	 23.5506 	 -7.46142 	 -112.851
| 27> C 	 24.4745 	 -8.29845 	 -113.464
| 28> H 	 21.7623 	 -6.26325 	 -113.562
| 29> C 	 23.5005 	 -7.1035 	 -111.397
| 30> H 	 23.9074 	 -6.09525 	 -111.262
| 31> H 	 24.1502 	 -7.74074 	 -110.843
| 32> C 	 22.1441 	 -7.06498 	 -110.714
| 33> H 	 21.6045 	 -7.98742 	 -110.776
| 34> H 	 21.4973 	 -6.41896 	 -111.283
| 35> C 	 22.1492 	 -6.72154 	 -109.24
| 36> H 	 21.1695 	 -6.28115 	 -108.963
| 37> H 	 22.7684 	 -5.87885 	 -108.985
| 38> H 	 22.3862 	 -7.53987 	 -108.627
| 39> H 	 29.1185 	 -10.0009 	 -112.788
| 40> H 	 22.0946 	 -7.07664 	 -115.751
| 41> *
| 42>
| 43>                          ****END OF INPUT****

CARTESIAN COORDINATES (ANGSTROEM)
---------------------------------
  S     27.212300   -8.911000  -113.986000
  C     28.018400   -9.821370  -112.801000
  C     27.162400  -10.260800  -111.784000
  C     25.871000   -9.725820  -111.899000
  C     25.729600   -8.897910  -113.033000
  H     24.947500   -9.947200  -111.370000
  C     27.588500  -11.145900  -110.597000
  H     28.306400  -11.871600  -110.923000
  H     26.714700  -11.651200  -110.244000
  C     28.281200  -10.226300  -109.553000
  H     29.023400   -9.548480  -109.989000
  H     27.549200   -9.424950  -109.381000
  C     28.774800  -10.883900  -108.192000
  H     29.751300  -11.361700  -108.344000
  H     28.851300  -10.247900  -107.297000
  H     28.035400  -11.606200  -107.907000
  S     24.241100   -8.414730  -115.169000
  C     22.766300   -7.368540  -115.021000
  C     22.577700   -6.968080  -113.758000
  C     23.550600   -7.461420  -112.851000
  C     24.474500   -8.298450  -113.464000
  H     21.762300   -6.263250  -113.562000
  C     23.500500   -7.103500  -111.397000
  H     23.907400   -6.095250  -111.262000
  H     24.150200   -7.740740  -110.843000
  C     22.144100   -7.064980  -110.714000
  H     21.604500   -7.987420  -110.776000
  H     21.497300   -6.418960  -111.283000
  C     22.149200   -6.721540  -109.240000
  H     21.169500   -6.281150  -108.963000
  H     22.768400   -5.878850  -108.985000
  H     22.386200   -7.539870  -108.627000
  H     29.118500  -10.000900  -112.788000
  H     22.094600   -7.076640  -115.751000

 Total Charge           Charge          ....    0
 Multiplicity           Mult            ....    1
 Number of Electrons    NEL             ....  134
 Basis Dimension        Dim             ....  322

ORBITAL ENERGIES
----------------

  NO   OCC          E(Eh)            E(eV)
   0   2.0000     -88.972355     -2421.0609
   1   2.0000     -88.964048     -2420.8348
   2   2.0000     -10.330323      -281.1024
   3   2.0000     -10.325457      -280.9700
   4   2.0000     -10.314694      -280.6771
   5   2.0000     -10.310077      -280.5515
   6   2.0000     -10.302412      -280.3429
   7   2.0000     -10.301248      -280.3112
   8   2.0000     -10.294482      -280.1271
   9   2.0000     -10.292703      -280.0787
  10   2.0000     -10.290192      -280.0104
  11   2.0000     -10.289935      -280.0034
  12   2.0000     -10.284993      -279.8689
  13   2.0000     -10.282384      -279.7979
  14   2.0000     -10.280000      -279.7330
  15   2.0000     -10.274253      -279.5766
  16   2.0000      -8.087244      -220.0651
  17   2.0000      -8.078524      -219.8278
  18   2.0000      -6.045596      -164.5090
  19   2.0000      -6.041662      -164.4020
  20   2.0000      -6.038227      -164.3085
  21   2.0000      -6.037172      -164.2798
  22   2.0000      -6.033159      -164.1706
  23   2.0000      -6.029047      -164.0587
  24   2.0000      -1.010250       -27.4903
  25   2.0000      -0.986788       -26.8519
  26   2.0000      -0.913909       -24.8687
  27   2.0000      -0.905296       -24.6344
  28   2.0000      -0.873693       -23.7744
  29   2.0000      -0.854479       -23.2516
  30   2.0000      -0.845455       -23.0060
  31   2.0000      -0.817028       -22.2325
  32   2.0000      -0.781643       -21.2696
  33   2.0000      -0.771762       -21.0007
  34   2.0000      -0.707949       -19.2643
  35   2.0000      -0.705274       -19.1915
  36   2.0000      -0.702460       -19.1149
  37   2.0000      -0.662295       -18.0220
  38   2.0000      -0.642316       -17.4783
  39   2.0000      -0.618259       -16.8237
  40   2.0000      -0.600242       -16.3334
  41   2.0000      -0.571495       -15.5512
  42   2.0000      -0.566764       -15.4224
  43   2.0000      -0.551651       -15.0112
  44   2.0000      -0.527838       -14.3632
  45   2.0000      -0.519147       -14.1267
  46   2.0000      -0.514754       -14.0072
  47   2.0000      -0.514413       -13.9979
  48   2.0000      -0.506471       -13.7818
  49   2.0000      -0.499437       -13.5904
  50   2.0000      -0.492593       -13.4041
  51   2.0000      -0.483822       -13.1655
  52   2.0000      -0.476148       -12.9566
  53   2.0000      -0.473433       -12.8828
  54   2.0000      -0.459543       -12.5048
  55   2.0000      -0.453264       -12.3340
  56   2.0000      -0.442601       -12.0438
  57   2.0000      -0.438634       -11.9358
  58   2.0000      -0.428818       -11.6687
  59   2.0000      -0.427607       -11.6358
  60   2.0000      -0.423457       -11.5229
  61   2.0000      -0.415952       -11.3186
  62   2.0000      -0.410644       -11.1742
  63   2.0000      -0.356908        -9.7120
  64   2.0000      -0.336839        -9.1659
  65   2.0000      -0.328518        -8.9394
  66   2.0000      -0.282783        -7.6949
  67   0.0000       0.026690         0.7263
  68   0.0000       0.070280         1.9124
  69   0.0000       0.103960         2.8289
  70   0.0000       0.126895         3.4530
  71   0.0000       0.134054         3.6478

MULLIKEN ATOMIC CHARGES
-----------------------
   0 S :    0.139613
   1 C :   -0.137907
   2 C :   -0.111826
   3 C :    0.012994
   4 C :   -0.158278
   5 H :    0.027233
   6 C :    0.126518
   7 H :    0.020249
   8 H :    0.020632
   9 C :   -0.104210
  10 H :    0.023044
  11 H :    0.014440
  12 C :   -0.029637
  13 H :    0.040330
  14 H :    0.038837
  15 H :    0.023423
  16 S :    0.082260
  17 C :   -0.051204
  18 C :   -0.049270
  19 C :   -0.027679
  20 C :   -0.156742
  21 H :    0.030056
  22 C :    0.117518
  23 H :    0.028429
  24 H :   -0.004415
  25 C :   -0.084572
  26 H :    0.017535
  27 H :    0.012564
  28 C :   -0.020399
  29 H :    0.026305
  30 H :    0.015104
  31 H :    0.033542
  32 H :    0.066239
  33 H :    0.019275
Sum of atomic charges:   -0.0000000

LOEWDIN ATOMIC CHARGES
----------------------
   0 S :    0.433854
   1 C :   -0.224921
   2 C :   -0.061562
   3 C :   -0.066248
   4 C :   -0.196256
   5 H :    0.035384
   6 C :   -0.018926
   7 H :    0.024854
   8 H :    0.026919
   9 C :   -0.050492
  10 H :    0.024638
  11 H :    0.024281
  12 C :   -0.070479
  13 H :    0.027207
  14 H :    0.030459
  15 H :    0.022084
  16 S :    0.383909
  17 C :   -0.154469
  18 C :   -0.067887
  19 C :   -0.059093
  20 C :   -0.196949
  21 H :    0.038364
  22 C :   -0.030195
  23 H :    0.036861
  24 H :    0.020936
  25 C :   -0.042103
  26 H :    0.022393
  27 H :    0.016916
  28 C :   -0.059743
  29 H :    0.034388
  30 H :    0.021568
  31 H :    0.019953
  32 H :    0.038297
  33 H :    0.016059

  Mayer bond orders larger than 0.100000
B(  0-S ,  1-C ) :   1.1645 B(  0-S ,  4-C ) :   1.1684 B(  1-C ,  2-C ) :   1.5622
B(  1-C ,  4-C ) :   0.1064 B(  1-C , 32-H ) :   0.9614 B(  2-C ,  3-C ) :   1.2880
B(  2-C ,  6-C ) :   1.0255 B(  3-C ,  4-C ) :   1.5243 B(  3-C ,  5-H ) :   0.9899
B(  4-C , 20-C ) :   1.0583 B(  6-C ,  7-H ) :   0.9401 B(  6-C ,  8-H ) :   0.9396
B(  6-C ,  9-C ) :   1.0527 B(  9-C , 10-H ) :   0.9599 B(  9-C , 11-H ) :   0.9541
B(  9-C , 12-C ) :   1.0550 B( 12-C , 13-H ) :   0.9783 B( 12-C , 14-H ) :   0.9780
B( 12-C , 15-H ) :   0.9765 B( 16-S , 17-C ) :   1.1165 B( 16-S , 20-C ) :   1.1290
B( 17-C , 18-C ) :   1.6713 B( 17-C , 33-H ) :   0.9692 B( 18-C , 19-C ) :   1.2132
B( 18-C , 21-H ) :   0.9823 B( 19-C , 20-C ) :   1.6075 B( 19-C , 22-C ) :   1.0526
B( 22-C , 23-H ) :   0.9138 B( 22-C , 24-H ) :   0.9339 B( 22-C , 25-C ) :   1.0652
B( 25-C , 26-H ) :   0.9533 B( 25-C , 27-H ) :   0.9485 B( 25-C , 28-C ) :   1.0928
B( 28-C , 29-H ) :   0.9699 B( 28-C , 30-H ) :   0.9716 B( 28-C , 31-H ) :   0.9772

Dispersion correction           -0.013456335
FINAL SINGLE POINT ENERGY     -1339.871390219751

DIPOLE MOMENT
-------------
                                X             Y             Z
Electronic contribution:      1.89489       0.43881     -31.78362
Nuclear contribution   :     -2.09649      -0.34021      32.38809
                        -----------------------------------------
Total Dipole Moment    :     -0.20160       0.09860       0.60447
                        -----------------------------------------
Magnitude (a.u.)       :      0.64479
Magnitude (Debye)      :      1.63892

Rotational constants in cm-1:     0.016874     0.008720     0.005998
Rotational constants in MHz :   505.881055   261.432723   179.811269

                             ****ORCA TERMINATED NORMALLY****
TOTAL RUN TIME: 0 days 0 hours 0 minutes 21 seconds 49 msec
