                         Program Version 4.2.1 -  RELEASE  -
|  1> ! wB97X-D3 SP def2-SVP
|  2> %pal
|  3> nprocs 24
|  4> end
|  5>
|  6> * xyz 0 1
|  7> S 	 -44.0453 	 19.1676 	 -95.2688
|  8> C 	 -42.7864 	 19.9537 	 -94.3501
|  9> C 	 -42.1065 	 19.1095 	 -93.4705
| 10> C 	 -42.7139 	 17.8593 	 -93.4158
| 11> C 	 -43.8034 	 17.7614 	 -94.2847
| 12> H 	 -42.456 	 17.0462 	 -92.8083
| 13> C 	 -40.8439 	 19.5045 	 -92.6905
| 14> H 	 -40.9202 	 19.5723 	 -91.6657
| 15> H 	 -40.6363 	 20.5631 	 -92.9663
| 16> C 	 -39.6554 	 18.6238 	 -93.1005
| 17> H 	 -39.5929 	 18.5579 	 -94.2012
| 18> H 	 -38.7619 	 19.1393 	 -92.8403
| 19> C 	 -39.5279 	 17.2691 	 -92.3779
| 20> H 	 -39.6434 	 17.4221 	 -91.3305
| 21> H 	 -40.2852 	 16.5702 	 -92.6823
| 22> H 	 -38.6363 	 16.8216 	 -92.5107
| 23> S 	 -46.4165 	 16.8748 	 -94.6498
| 24> C 	 -46.802 	 15.1947 	 -94.3318
| 25> C 	 -45.6231 	 14.5145 	 -94.1923
| 26> C 	 -44.3913 	 15.2659 	 -94.2753
| 27> C 	 -44.651 	 16.6195 	 -94.4607
| 28> H 	 -45.7167 	 13.5022 	 -93.9774
| 29> C 	 -43.1134 	 14.5845 	 -94.1395
| 30> H 	 -42.7932 	 14.6625 	 -93.0824
| 31> H 	 -42.4054 	 15.3021 	 -94.5904
| 32> C 	 -42.8863 	 13.1925 	 -94.791
| 33> H 	 -43.5012 	 12.5342 	 -94.2441
| 34> H 	 -41.9325 	 12.8198 	 -94.5643
| 35> C 	 -43.1896 	 13.1847 	 -96.2627
| 36> H 	 -42.6573 	 13.9714 	 -96.699
| 37> H 	 -44.2607 	 13.3743 	 -96.3557
| 38> H 	 -42.8481 	 12.2309 	 -96.6877
| 39> H 	 -42.464 	 20.9691 	 -94.4822
| 40> H 	 -47.7592 	 14.7051 	 -94.3377
| 41> *
| 42>
| 43>                          ****END OF INPUT****

CARTESIAN COORDINATES (ANGSTROEM)
---------------------------------
  S    -44.045300   19.167600  -95.268800
  C    -42.786400   19.953700  -94.350100
  C    -42.106500   19.109500  -93.470500
  C    -42.713900   17.859300  -93.415800
  C    -43.803400   17.761400  -94.284700
  H    -42.456000   17.046200  -92.808300
  C    -40.843900   19.504500  -92.690500
  H    -40.920200   19.572300  -91.665700
  H    -40.636300   20.563100  -92.966300
  C    -39.655400   18.623800  -93.100500
  H    -39.592900   18.557900  -94.201200
  H    -38.761900   19.139300  -92.840300
  C    -39.527900   17.269100  -92.377900
  H    -39.643400   17.422100  -91.330500
  H    -40.285200   16.570200  -92.682300
  H    -38.636300   16.821600  -92.510700
  S    -46.416500   16.874800  -94.649800
  C    -46.802000   15.194700  -94.331800
  C    -45.623100   14.514500  -94.192300
  C    -44.391300   15.265900  -94.275300
  C    -44.651000   16.619500  -94.460700
  H    -45.716700   13.502200  -93.977400
  C    -43.113400   14.584500  -94.139500
  H    -42.793200   14.662500  -93.082400
  H    -42.405400   15.302100  -94.590400
  C    -42.886300   13.192500  -94.791000
  H    -43.501200   12.534200  -94.244100
  H    -41.932500   12.819800  -94.564300
  C    -43.189600   13.184700  -96.262700
  H    -42.657300   13.971400  -96.699000
  H    -44.260700   13.374300  -96.355700
  H    -42.848100   12.230900  -96.687700
  H    -42.464000   20.969100  -94.482200
  H    -47.759200   14.705100  -94.337700

 Total Charge           Charge          ....    0
 Multiplicity           Mult            ....    1
 Number of Electrons    NEL             ....  134
 Basis Dimension        Dim             ....  322

ORBITAL ENERGIES
----------------

  NO   OCC          E(Eh)            E(eV)
   0   2.0000     -88.970940     -2421.0224
   1   2.0000     -88.959966     -2420.7237
   2   2.0000     -10.326405      -280.9958
   3   2.0000     -10.325771      -280.9785
   4   2.0000     -10.315569      -280.7009
   5   2.0000     -10.311053      -280.5780
   6   2.0000     -10.301137      -280.3082
   7   2.0000     -10.299923      -280.2752
   8   2.0000     -10.291759      -280.0530
   9   2.0000     -10.289706      -279.9971
  10   2.0000     -10.288983      -279.9775
  11   2.0000     -10.285649      -279.8867
  12   2.0000     -10.284953      -279.8678
  13   2.0000     -10.278723      -279.6983
  14   2.0000     -10.270195      -279.4662
  15   2.0000     -10.268286      -279.4143
  16   2.0000      -8.085809      -220.0260
  17   2.0000      -8.074275      -219.7122
  18   2.0000      -6.044092      -164.4681
  19   2.0000      -6.040455      -164.3691
  20   2.0000      -6.036652      -164.2657
  21   2.0000      -6.033015      -164.1667
  22   2.0000      -6.028820      -164.0525
  23   2.0000      -6.024819      -163.9437
  24   2.0000      -1.008446       -27.4412
  25   2.0000      -0.982850       -26.7447
  26   2.0000      -0.916528       -24.9400
  27   2.0000      -0.913548       -24.8589
  28   2.0000      -0.872607       -23.7448
  29   2.0000      -0.857853       -23.3434
  30   2.0000      -0.845572       -23.0092
  31   2.0000      -0.818437       -22.2708
  32   2.0000      -0.790280       -21.5046
  33   2.0000      -0.774191       -21.0668
  34   2.0000      -0.715690       -19.4749
  35   2.0000      -0.705277       -19.1916
  36   2.0000      -0.700256       -19.0549
  37   2.0000      -0.659784       -17.9536
  38   2.0000      -0.642707       -17.4889
  39   2.0000      -0.627150       -17.0656
  40   2.0000      -0.597326       -16.2541
  41   2.0000      -0.575735       -15.6665
  42   2.0000      -0.559358       -15.2209
  43   2.0000      -0.549283       -14.9467
  44   2.0000      -0.546476       -14.8704
  45   2.0000      -0.539531       -14.6814
  46   2.0000      -0.522625       -14.2214
  47   2.0000      -0.512799       -13.9540
  48   2.0000      -0.504996       -13.7416
  49   2.0000      -0.498616       -13.5680
  50   2.0000      -0.493152       -13.4194
  51   2.0000      -0.489119       -13.3096
  52   2.0000      -0.469485       -12.7753
  53   2.0000      -0.464688       -12.6448
  54   2.0000      -0.464308       -12.6345
  55   2.0000      -0.454383       -12.3644
  56   2.0000      -0.445564       -12.1244
  57   2.0000      -0.440304       -11.9813
  58   2.0000      -0.436753       -11.8846
  59   2.0000      -0.432634       -11.7726
  60   2.0000      -0.418136       -11.3780
  61   2.0000      -0.415159       -11.2970
  62   2.0000      -0.410814       -11.1788
  63   2.0000      -0.351741        -9.5714
  64   2.0000      -0.338674        -9.2158
  65   2.0000      -0.323716        -8.8087
  66   2.0000      -0.282000        -7.6736
  67   0.0000       0.021678         0.5899
  68   0.0000       0.078660         2.1404
  69   0.0000       0.104437         2.8419
  70   0.0000       0.127794         3.4775
  71   0.0000       0.134710         3.6656

MULLIKEN ATOMIC CHARGES
-----------------------
   0 S :    0.129013
   1 C :   -0.110845
   2 C :   -0.077821
   3 C :    0.025353
   4 C :   -0.148559
   5 H :   -0.019274
   6 C :    0.109652
   7 H :    0.014666
   8 H :    0.011412
   9 C :   -0.086994
  10 H :    0.034546
  11 H :    0.016586
  12 C :    0.015641
  13 H :    0.015541
  14 H :    0.018096
  15 H :    0.008652
  16 S :    0.082464
  17 C :   -0.076821
  18 C :   -0.033896
  19 C :   -0.053534
  20 C :   -0.123740
  21 H :   -0.008456
  22 C :    0.001733
  23 H :    0.048473
  24 H :    0.024914
  25 C :   -0.007441
  26 H :    0.006399
  27 H :    0.006442
  28 C :   -0.008414
  29 H :    0.019221
  30 H :    0.041404
  31 H :    0.037793
  32 H :    0.033065
  33 H :    0.054728
Sum of atomic charges:    0.0000000

LOEWDIN ATOMIC CHARGES
----------------------
   0 S :    0.422786
   1 C :   -0.199476
   2 C :   -0.055312
   3 C :   -0.056195
   4 C :   -0.191247
   5 H :    0.021043
   6 C :   -0.020770
   7 H :    0.018122
   8 H :    0.034857
   9 C :   -0.035483
  10 H :    0.028465
  11 H :    0.020647
  12 C :   -0.051325
  13 H :    0.023836
  14 H :    0.020227
  15 H :    0.012829
  16 S :    0.374996
  17 C :   -0.178713
  18 C :   -0.069603
  19 C :   -0.058687
  20 C :   -0.187383
  21 H :    0.017215
  22 C :   -0.045019
  23 H :    0.036539
  24 H :    0.031976
  25 C :   -0.030207
  26 H :    0.014119
  27 H :    0.018908
  28 C :   -0.052332
  29 H :    0.019387
  30 H :    0.031199
  31 H :    0.030396
  32 H :    0.020699
  33 H :    0.033506

  Mayer bond orders larger than 0.100000
B(  0-S ,  1-C ) :   1.1433 B(  0-S ,  4-C ) :   1.1628 B(  1-C ,  2-C ) :   1.6046
B(  1-C ,  4-C ) :   0.1006 B(  1-C , 32-H ) :   0.9635 B(  2-C ,  3-C ) :   1.2592
B(  2-C ,  6-C ) :   1.0240 B(  3-C ,  4-C ) :   1.5365 B(  3-C ,  5-H ) :   1.0030
B(  4-C , 20-C ) :   1.0718 B(  6-C ,  7-H ) :   0.9404 B(  6-C ,  8-H ) :   0.9324
B(  6-C ,  9-C ) :   1.0733 B(  9-C , 10-H ) :   0.9564 B(  9-C , 11-H ) :   0.9541
B(  9-C , 12-C ) :   1.0773 B( 12-C , 13-H ) :   0.9713 B( 12-C , 14-H ) :   0.9720
B( 12-C , 15-H ) :   0.9679 B( 16-S , 17-C ) :   1.1361 B( 16-S , 20-C ) :   1.1152
B( 17-C , 18-C ) :   1.6314 B( 17-C , 33-H ) :   0.9679 B( 18-C , 19-C ) :   1.2108
B( 18-C , 21-H ) :   0.9965 B( 19-C , 20-C ) :   1.5844 B( 19-C , 22-C ) :   1.0557
B( 22-C , 23-H ) :   0.9169 B( 22-C , 24-H ) :   0.9279 B( 22-C , 25-C ) :   1.0653
B( 25-C , 26-H ) :   0.9450 B( 25-C , 27-H ) :   0.9472 B( 25-C , 28-C ) :   1.0816
B( 28-C , 29-H ) :   0.9749 B( 28-C , 30-H ) :   0.9697 B( 28-C , 31-H ) :   0.9722

Dispersion correction           -0.014924174
FINAL SINGLE POINT ENERGY     -1339.867383542913

DIPOLE MOMENT
-------------
                                X             Y             Z
Electronic contribution:    -23.71255      13.86385      -5.68777
Nuclear contribution   :     24.38037     -14.26325       6.02306
                        -----------------------------------------
Total Dipole Moment    :      0.66783      -0.39940       0.33530
                        -----------------------------------------
Magnitude (a.u.)       :      0.84731
Magnitude (Debye)      :      2.15369

Rotational constants in cm-1:     0.018024     0.009793     0.007090
Rotational constants in MHz :   540.334746   293.596570   212.553689

                             ****ORCA TERMINATED NORMALLY****
TOTAL RUN TIME: 0 days 0 hours 0 minutes 22 seconds 486 msec
