                         Program Version 4.2.1 -  RELEASE  -
|  1> ! wB97X-D3 SP def2-SVP
|  2> %pal
|  3> nprocs 24
|  4> end
|  5>
|  6> * xyz 0 1
|  7> S 	 -109.229 	 18.5511 	 -119.808
|  8> C 	 -109.401 	 19.9841 	 -118.762
|  9> C 	 -108.269 	 20.1306 	 -117.973
| 10> C 	 -107.249 	 19.1813 	 -118.303
| 11> C 	 -107.639 	 18.1112 	 -119.106
| 12> H 	 -106.332 	 18.9657 	 -117.815
| 13> C 	 -108.24 	 21.0985 	 -116.84
| 14> H 	 -109.259 	 21.3833 	 -116.584
| 15> H 	 -107.721 	 22.0182 	 -117.168
| 16> C 	 -107.471 	 20.6287 	 -115.554
| 17> H 	 -106.454 	 20.5154 	 -115.917
| 18> H 	 -107.497 	 21.3898 	 -114.805
| 19> C 	 -107.98 	 19.2947 	 -114.897
| 20> H 	 -108.015 	 18.5176 	 -115.62
| 21> H 	 -107.264 	 19.0655 	 -114.098
| 22> H 	 -108.944 	 19.4709 	 -114.46
| 23> S 	 -106.501 	 16.8707 	 -121.176
| 24> C 	 -105.388 	 15.529 	 -120.898
| 25> C 	 -105.265 	 15.1763 	 -119.61
| 26> C 	 -106.083 	 15.9851 	 -118.75
| 27> C 	 -106.824 	 16.9446 	 -119.523
| 28> H 	 -104.573 	 14.4036 	 -119.199
| 29> C 	 -106.165 	 15.7959 	 -117.201
| 30> H 	 -105.853 	 16.7946 	 -116.799
| 31> H 	 -105.357 	 15.115 	 -116.838
| 32> C 	 -107.538 	 15.3959 	 -116.689
| 33> H 	 -107.847 	 14.5763 	 -117.332
| 34> H 	 -108.272 	 16.2093 	 -116.93
| 35> C 	 -107.395 	 14.9598 	 -115.228
| 36> H 	 -106.839 	 14.0816 	 -115.319
| 37> H 	 -108.376 	 14.7467 	 -114.707
| 38> H 	 -106.778 	 15.7318 	 -114.742
| 39> H 	 -110.32 	 20.515 	 -118.569
| 40> H 	 -104.765 	 15.1623 	 -121.702
| 41> *
| 42>
| 43>                          ****END OF INPUT****

CARTESIAN COORDINATES (ANGSTROEM)
---------------------------------
  S    -109.229000   18.551100  -119.808000
  C    -109.401000   19.984100  -118.762000
  C    -108.269000   20.130600  -117.973000
  C    -107.249000   19.181300  -118.303000
  C    -107.639000   18.111200  -119.106000
  H    -106.332000   18.965700  -117.815000
  C    -108.240000   21.098500  -116.840000
  H    -109.259000   21.383300  -116.584000
  H    -107.721000   22.018200  -117.168000
  C    -107.471000   20.628700  -115.554000
  H    -106.454000   20.515400  -115.917000
  H    -107.497000   21.389800  -114.805000
  C    -107.980000   19.294700  -114.897000
  H    -108.015000   18.517600  -115.620000
  H    -107.264000   19.065500  -114.098000
  H    -108.944000   19.470900  -114.460000
  S    -106.501000   16.870700  -121.176000
  C    -105.388000   15.529000  -120.898000
  C    -105.265000   15.176300  -119.610000
  C    -106.083000   15.985100  -118.750000
  C    -106.824000   16.944600  -119.523000
  H    -104.573000   14.403600  -119.199000
  C    -106.165000   15.795900  -117.201000
  H    -105.853000   16.794600  -116.799000
  H    -105.357000   15.115000  -116.838000
  C    -107.538000   15.395900  -116.689000
  H    -107.847000   14.576300  -117.332000
  H    -108.272000   16.209300  -116.930000
  C    -107.395000   14.959800  -115.228000
  H    -106.839000   14.081600  -115.319000
  H    -108.376000   14.746700  -114.707000
  H    -106.778000   15.731800  -114.742000
  H    -110.320000   20.515000  -118.569000
  H    -104.765000   15.162300  -121.702000

 Total Charge           Charge          ....    0
 Multiplicity           Mult            ....    1
 Number of Electrons    NEL             ....  134
 Basis Dimension        Dim             ....  322

ORBITAL ENERGIES
----------------

  NO   OCC          E(Eh)            E(eV)
   0   2.0000     -88.969413     -2420.9808
   1   2.0000     -88.963731     -2420.8262
   2   2.0000     -10.336615      -281.2736
   3   2.0000     -10.330392      -281.1042
   4   2.0000     -10.315364      -280.6953
   5   2.0000     -10.315313      -280.6939
   6   2.0000     -10.312572      -280.6194
   7   2.0000     -10.303347      -280.3683
   8   2.0000     -10.301398      -280.3153
   9   2.0000     -10.298430      -280.2345
  10   2.0000     -10.293437      -280.0987
  11   2.0000     -10.293167      -280.0913
  12   2.0000     -10.288147      -279.9547
  13   2.0000     -10.284755      -279.8624
  14   2.0000     -10.279616      -279.7226
  15   2.0000     -10.275287      -279.6048
  16   2.0000      -8.085162      -220.0084
  17   2.0000      -8.077229      -219.7926
  18   2.0000      -6.043459      -164.4509
  19   2.0000      -6.039547      -164.3444
  20   2.0000      -6.036035      -164.2489
  21   2.0000      -6.035851      -164.2439
  22   2.0000      -6.031846      -164.1349
  23   2.0000      -6.027994      -164.0301
  24   2.0000      -1.007575       -27.4175
  25   2.0000      -0.981511       -26.7083
  26   2.0000      -0.911704       -24.8087
  27   2.0000      -0.906982       -24.6802
  28   2.0000      -0.872211       -23.7341
  29   2.0000      -0.850049       -23.1310
  30   2.0000      -0.839009       -22.8306
  31   2.0000      -0.818836       -22.2816
  32   2.0000      -0.781202       -21.2576
  33   2.0000      -0.767453       -20.8835
  34   2.0000      -0.710004       -19.3202
  35   2.0000      -0.696058       -18.9407
  36   2.0000      -0.687956       -18.7202
  37   2.0000      -0.660744       -17.9798
  38   2.0000      -0.641307       -17.4509
  39   2.0000      -0.618112       -16.8197
  40   2.0000      -0.598022       -16.2730
  41   2.0000      -0.566607       -15.4182
  42   2.0000      -0.563723       -15.3397
  43   2.0000      -0.547352       -14.8942
  44   2.0000      -0.541406       -14.7324
  45   2.0000      -0.526304       -14.3214
  46   2.0000      -0.518065       -14.0973
  47   2.0000      -0.512568       -13.9477
  48   2.0000      -0.500647       -13.6233
  49   2.0000      -0.496836       -13.5196
  50   2.0000      -0.490865       -13.3571
  51   2.0000      -0.482897       -13.1403
  52   2.0000      -0.476332       -12.9617
  53   2.0000      -0.461320       -12.5532
  54   2.0000      -0.459152       -12.4942
  55   2.0000      -0.453634       -12.3440
  56   2.0000      -0.443692       -12.0735
  57   2.0000      -0.439782       -11.9671
  58   2.0000      -0.430101       -11.7036
  59   2.0000      -0.427756       -11.6398
  60   2.0000      -0.420984       -11.4556
  61   2.0000      -0.412699       -11.2301
  62   2.0000      -0.411473       -11.1968
  63   2.0000      -0.352756        -9.5990
  64   2.0000      -0.330480        -8.9928
  65   2.0000      -0.324453        -8.8288
  66   2.0000      -0.293637        -7.9903
  67   0.0000       0.030351         0.8259
  68   0.0000       0.061481         1.6730
  69   0.0000       0.109268         2.9733
  70   0.0000       0.118305         3.2192
  71   0.0000       0.128064         3.4848

MULLIKEN ATOMIC CHARGES
-----------------------
   0 S :    0.084495
   1 C :   -0.115129
   2 C :   -0.096709
   3 C :    0.071314
   4 C :   -0.187959
   5 H :   -0.002368
   6 C :    0.076807
   7 H :    0.013517
   8 H :    0.045329
   9 C :   -0.103401
  10 H :    0.029559
  11 H :    0.026387
  12 C :   -0.028512
  13 H :    0.031739
  14 H :    0.036739
  15 H :    0.029206
  16 S :    0.127184
  17 C :   -0.092799
  18 C :   -0.024948
  19 C :   -0.065319
  20 C :   -0.160276
  21 H :    0.035854
  22 C :    0.034062
  23 H :    0.027158
  24 H :    0.019126
  25 C :   -0.091130
  26 H :    0.030001
  27 H :    0.055063
  28 C :   -0.018394
  29 H :    0.018761
  30 H :    0.052748
  31 H :    0.033594
  32 H :    0.052477
  33 H :    0.055826
Sum of atomic charges:    0.0000000

LOEWDIN ATOMIC CHARGES
----------------------
   0 S :    0.365258
   1 C :   -0.187743
   2 C :   -0.063234
   3 C :   -0.066375
   4 C :   -0.179983
   5 H :    0.023099
   6 C :   -0.032279
   7 H :    0.025463
   8 H :    0.039207
   9 C :   -0.034818
  10 H :    0.019931
  11 H :    0.020276
  12 C :   -0.056718
  13 H :    0.018188
  14 H :    0.029436
  15 H :    0.023168
  16 S :    0.441095
  17 C :   -0.181242
  18 C :   -0.074923
  19 C :   -0.052318
  20 C :   -0.225386
  21 H :    0.043206
  22 C :   -0.036725
  23 H :    0.029902
  24 H :    0.029709
  25 C :   -0.046537
  26 H :    0.023553
  27 H :    0.029297
  28 C :   -0.060607
  29 H :    0.018157
  30 H :    0.035484
  31 H :    0.027635
  32 H :    0.029594
  33 H :    0.027230

  Mayer bond orders larger than 0.100000
B(  0-S ,  1-C ) :   1.1262 B(  0-S ,  4-C ) :   1.1356 B(  1-C ,  2-C ) :   1.6239
B(  1-C ,  4-C ) :   0.1026 B(  1-C , 32-H ) :   0.9661 B(  2-C ,  3-C ) :   1.2086
B(  2-C ,  6-C ) :   1.0281 B(  3-C ,  4-C ) :   1.6078 B(  3-C ,  5-H ) :   0.9830
B(  4-C , 20-C ) :   1.0143 B(  6-C ,  7-H ) :   0.9438 B(  6-C ,  8-H ) :   0.9318
B(  6-C ,  9-C ) :   1.0718 B(  9-C , 10-H ) :   0.9541 B(  9-C , 11-H ) :   0.9580
B(  9-C , 12-C ) :   1.0749 B( 12-C , 13-H ) :   0.9758 B( 12-C , 14-H ) :   0.9743
B( 12-C , 15-H ) :   0.9745 B( 16-S , 17-C ) :   1.1540 B( 16-S , 20-C ) :   1.1862
B( 17-C , 18-C ) :   1.6027 B( 17-C , 33-H ) :   0.9675 B( 18-C , 19-C ) :   1.2732
B( 18-C , 21-H ) :   0.9831 B( 19-C , 20-C ) :   1.5573 B( 19-C , 22-C ) :   1.0265
B( 22-C , 23-H ) :   0.9234 B( 22-C , 24-H ) :   0.9426 B( 22-C , 25-C ) :   1.0558
B( 25-C , 26-H ) :   0.9583 B( 25-C , 27-H ) :   0.9477 B( 25-C , 28-C ) :   1.0647
B( 28-C , 29-H ) :   0.9745 B( 28-C , 30-H ) :   0.9732 B( 28-C , 31-H ) :   0.9723

Dispersion correction           -0.015908075
FINAL SINGLE POINT ENERGY     -1339.875726921641

DIPOLE MOMENT
-------------
                                X             Y             Z
Electronic contribution:     -1.88385       0.28247     -30.15585
Nuclear contribution   :      2.23667      -0.32866      30.83629
                        -----------------------------------------
Total Dipole Moment    :      0.35282      -0.04619       0.68044
                        -----------------------------------------
Magnitude (a.u.)       :      0.76786
Magnitude (Debye)      :      1.95175

Rotational constants in cm-1:     0.016894     0.010808     0.007677
Rotational constants in MHz :   506.478818   324.019852   230.148992

                             ****ORCA TERMINATED NORMALLY****
TOTAL RUN TIME: 0 days 0 hours 0 minutes 23 seconds 110 msec
