                         Program Version 4.2.1 -  RELEASE  -
|  1> ! wB97X-D3 SP def2-SVP
|  2> %pal
|  3> nprocs 24
|  4> end
|  5>
|  6> * xyz 0 1
|  7> S 	 -83.9804 	 -3.74975 	 8.13646
|  8> C 	 -84.4898 	 -3.92299 	 6.51207
|  9> C 	 -83.653 	 -4.79032 	 5.76899
| 10> C 	 -82.5558 	 -5.16716 	 6.53631
| 11> C 	 -82.4929 	 -4.52279 	 7.82813
| 12> H 	 -81.6992 	 -5.69203 	 6.187
| 13> C 	 -83.8807 	 -5.19625 	 4.38031
| 14> H 	 -85.0004 	 -5.37399 	 4.21909
| 15> H 	 -83.3392 	 -6.1165 	 4.1296
| 16> C 	 -83.4104 	 -4.09814 	 3.32126
| 17> H 	 -83.6407 	 -4.44103 	 2.31117
| 18> H 	 -84.1037 	 -3.2364 	 3.57656
| 19> C 	 -81.8998 	 -3.64349 	 3.49291
| 20> H 	 -81.6003 	 -2.8057 	 2.84175
| 21> H 	 -81.7875 	 -3.22066 	 4.46377
| 22> H 	 -81.187 	 -4.47344 	 3.30842
| 23> S 	 -81.6751 	 -4.70627 	 10.5046
| 24> C 	 -79.9681 	 -5.03538 	 10.83
| 25> C 	 -79.2294 	 -5.0224 	 9.63218
| 26> C 	 -79.9739 	 -4.70176 	 8.48969
| 27> C 	 -81.3543 	 -4.54467 	 8.79849
| 28> H 	 -78.1986 	 -5.08156 	 9.59911
| 29> C 	 -79.2245 	 -4.3942 	 7.22319
| 30> H 	 -78.6092 	 -3.47519 	 7.30954
| 31> H 	 -80.0711 	 -4.10589 	 6.61908
| 32> C 	 -78.4869 	 -5.55839 	 6.52847
| 33> H 	 -79.1501 	 -6.42799 	 6.48458
| 34> H 	 -77.7159 	 -5.82235 	 7.25032
| 35> C 	 -78.0246 	 -5.18466 	 5.07855
| 36> H 	 -77.1747 	 -4.47306 	 5.15104
| 37> H 	 -78.7807 	 -4.75092 	 4.43233
| 38> H 	 -77.5802 	 -6.03793 	 4.65768
| 39> H 	 -85.3946 	 -3.62531 	 6.03985
| 40> H 	 -79.5531 	 -5.28755 	 11.7431
| 41> *
| 42>
| 43>                          ****END OF INPUT****

CARTESIAN COORDINATES (ANGSTROEM)
---------------------------------
  S    -83.980400   -3.749750    8.136460
  C    -84.489800   -3.922990    6.512070
  C    -83.653000   -4.790320    5.768990
  C    -82.555800   -5.167160    6.536310
  C    -82.492900   -4.522790    7.828130
  H    -81.699200   -5.692030    6.187000
  C    -83.880700   -5.196250    4.380310
  H    -85.000400   -5.373990    4.219090
  H    -83.339200   -6.116500    4.129600
  C    -83.410400   -4.098140    3.321260
  H    -83.640700   -4.441030    2.311170
  H    -84.103700   -3.236400    3.576560
  C    -81.899800   -3.643490    3.492910
  H    -81.600300   -2.805700    2.841750
  H    -81.787500   -3.220660    4.463770
  H    -81.187000   -4.473440    3.308420
  S    -81.675100   -4.706270   10.504600
  C    -79.968100   -5.035380   10.830000
  C    -79.229400   -5.022400    9.632180
  C    -79.973900   -4.701760    8.489690
  C    -81.354300   -4.544670    8.798490
  H    -78.198600   -5.081560    9.599110
  C    -79.224500   -4.394200    7.223190
  H    -78.609200   -3.475190    7.309540
  H    -80.071100   -4.105890    6.619080
  C    -78.486900   -5.558390    6.528470
  H    -79.150100   -6.427990    6.484580
  H    -77.715900   -5.822350    7.250320
  C    -78.024600   -5.184660    5.078550
  H    -77.174700   -4.473060    5.151040
  H    -78.780700   -4.750920    4.432330
  H    -77.580200   -6.037930    4.657680
  H    -85.394600   -3.625310    6.039850
  H    -79.553100   -5.287550   11.743100

 Total Charge           Charge          ....    0
 Multiplicity           Mult            ....    1
 Number of Electrons    NEL             ....  134
 Basis Dimension        Dim             ....  322

ORBITAL ENERGIES
----------------

  NO   OCC          E(Eh)            E(eV)
   0   2.0000     -88.973466     -2421.0911
   1   2.0000     -88.972222     -2421.0572
   2   2.0000     -10.334748      -281.2228
   3   2.0000     -10.333423      -281.1867
   4   2.0000     -10.317723      -280.7595
   5   2.0000     -10.309085      -280.5245
   6   2.0000     -10.300239      -280.2838
   7   2.0000     -10.300095      -280.2798
   8   2.0000     -10.299157      -280.2543
   9   2.0000     -10.297167      -280.2001
  10   2.0000     -10.292701      -280.0786
  11   2.0000     -10.292361      -280.0694
  12   2.0000     -10.287972      -279.9500
  13   2.0000     -10.287206      -279.9291
  14   2.0000     -10.282835      -279.8102
  15   2.0000     -10.281798      -279.7819
  16   2.0000      -8.088882      -220.1097
  17   2.0000      -8.086468      -220.0440
  18   2.0000      -6.047185      -164.5523
  19   2.0000      -6.044926      -164.4908
  20   2.0000      -6.043153      -164.4426
  21   2.0000      -6.041025      -164.3847
  22   2.0000      -6.040010      -164.3570
  23   2.0000      -6.037347      -164.2846
  24   2.0000      -1.008276       -27.4366
  25   2.0000      -0.986146       -26.8344
  26   2.0000      -0.911087       -24.7919
  27   2.0000      -0.907184       -24.6857
  28   2.0000      -0.860554       -23.4169
  29   2.0000      -0.853273       -23.2187
  30   2.0000      -0.845939       -23.0192
  31   2.0000      -0.810652       -22.0590
  32   2.0000      -0.784253       -21.3406
  33   2.0000      -0.772207       -21.0128
  34   2.0000      -0.707948       -19.2643
  35   2.0000      -0.703689       -19.1483
  36   2.0000      -0.699039       -19.0218
  37   2.0000      -0.666193       -18.1280
  38   2.0000      -0.637289       -17.3415
  39   2.0000      -0.614407       -16.7189
  40   2.0000      -0.595736       -16.2108
  41   2.0000      -0.577125       -15.7044
  42   2.0000      -0.564387       -15.3577
  43   2.0000      -0.545631       -14.8474
  44   2.0000      -0.538855       -14.6630
  45   2.0000      -0.529049       -14.3962
  46   2.0000      -0.511851       -13.9282
  47   2.0000      -0.508671       -13.8417
  48   2.0000      -0.503869       -13.7110
  49   2.0000      -0.496459       -13.5093
  50   2.0000      -0.494041       -13.4435
  51   2.0000      -0.481868       -13.1123
  52   2.0000      -0.471060       -12.8182
  53   2.0000      -0.470209       -12.7950
  54   2.0000      -0.462475       -12.5846
  55   2.0000      -0.451325       -12.2812
  56   2.0000      -0.442627       -12.0445
  57   2.0000      -0.437970       -11.9178
  58   2.0000      -0.436165       -11.8686
  59   2.0000      -0.431664       -11.7462
  60   2.0000      -0.424801       -11.5594
  61   2.0000      -0.415666       -11.3109
  62   2.0000      -0.412096       -11.2137
  63   2.0000      -0.348556        -9.4847
  64   2.0000      -0.336349        -9.1525
  65   2.0000      -0.331168        -9.0115
  66   2.0000      -0.277926        -7.5628
  67   0.0000       0.017596         0.4788
  68   0.0000       0.071924         1.9571
  69   0.0000       0.100936         2.7466
  70   0.0000       0.116304         3.1648
  71   0.0000       0.129427         3.5219

MULLIKEN ATOMIC CHARGES
-----------------------
   0 S :    0.141179
   1 C :   -0.086567
   2 C :   -0.106618
   3 C :    0.050910
   4 C :   -0.184382
   5 H :   -0.012364
   6 C :    0.026528
   7 H :    0.045466
   8 H :    0.029886
   9 C :   -0.084258
  10 H :    0.038296
  11 H :    0.032710
  12 C :   -0.079136
  13 H :    0.038054
  14 H :    0.050436
  15 H :    0.044580
  16 S :    0.110688
  17 C :   -0.063629
  18 C :    0.001581
  19 C :   -0.070568
  20 C :   -0.116503
  21 H :   -0.008102
  22 C :    0.046019
  23 H :    0.046775
  24 H :    0.001622
  25 C :   -0.083114
  26 H :    0.031233
  27 H :    0.026772
  28 C :   -0.021715
  29 H :    0.028304
  30 H :    0.041955
  31 H :    0.026311
  32 H :    0.026022
  33 H :    0.031631
Sum of atomic charges:    0.0000000

LOEWDIN ATOMIC CHARGES
----------------------
   0 S :    0.457156
   1 C :   -0.216550
   2 C :   -0.068491
   3 C :   -0.060363
   4 C :   -0.210856
   5 H :    0.022143
   6 C :   -0.038469
   7 H :    0.040672
   8 H :    0.029642
   9 C :   -0.034692
  10 H :    0.020264
  11 H :    0.027202
  12 C :   -0.072830
  13 H :    0.030810
  14 H :    0.024428
  15 H :    0.025645
  16 S :    0.410406
  17 C :   -0.169566
  18 C :   -0.055450
  19 C :   -0.060079
  20 C :   -0.201897
  21 H :    0.017636
  22 C :   -0.040526
  23 H :    0.037102
  24 H :    0.024460
  25 C :   -0.036140
  26 H :    0.023062
  27 H :    0.022221
  28 C :   -0.060074
  29 H :    0.030082
  30 H :    0.027441
  31 H :    0.020955
  32 H :    0.020542
  33 H :    0.014114

  Mayer bond orders larger than 0.100000
B(  0-S ,  1-C ) :   1.1716 B(  0-S ,  4-C ) :   1.2001 B(  1-C ,  2-C ) :   1.5306
B(  1-C ,  4-C ) :   0.1127 B(  1-C , 32-H ) :   0.9666 B(  2-C ,  3-C ) :   1.3263
B(  2-C ,  6-C ) :   1.0387 B(  3-C ,  4-C ) :   1.4725 B(  3-C ,  5-H ) :   0.9939
B(  4-C , 20-C ) :   1.0336 B(  6-C ,  7-H ) :   0.9403 B(  6-C ,  8-H ) :   0.9441
B(  6-C ,  9-C ) :   1.0518 B(  9-C , 10-H ) :   0.9626 B(  9-C , 11-H ) :   0.9584
B(  9-C , 12-C ) :   1.0671 B( 12-C , 13-H ) :   0.9729 B( 12-C , 14-H ) :   0.9715
B( 12-C , 15-H ) :   0.9739 B( 16-S , 17-C ) :   1.1574 B( 16-S , 20-C ) :   1.1572
B( 17-C , 18-C ) :   1.5652 B( 17-C , 20-C ) :   0.1072 B( 17-C , 33-H ) :   0.9786
B( 18-C , 19-C ) :   1.2936 B( 18-C , 21-H ) :   0.9936 B( 19-C , 20-C ) :   1.5438
B( 19-C , 22-C ) :   1.0319 B( 22-C , 23-H ) :   0.9391 B( 22-C , 24-H ) :   0.9297
B( 22-C , 25-C ) :   1.0479 B( 25-C , 26-H ) :   0.9558 B( 25-C , 27-H ) :   0.9568
B( 25-C , 28-C ) :   1.0769 B( 28-C , 29-H ) :   0.9721 B( 28-C , 30-H ) :   0.9754
B( 28-C , 31-H ) :   0.9745

Dispersion correction           -0.015618524
FINAL SINGLE POINT ENERGY     -1339.867059403746

DIPOLE MOMENT
-------------
                                X             Y             Z
Electronic contribution:    -14.29247       1.83925      29.05591
Nuclear contribution   :     14.70209      -1.94252     -29.59386
                        -----------------------------------------
Total Dipole Moment    :      0.40963      -0.10326      -0.53795
                        -----------------------------------------
Magnitude (a.u.)       :      0.68400
Magnitude (Debye)      :      1.73858

Rotational constants in cm-1:     0.016811     0.010851     0.006944
Rotational constants in MHz :   503.992307   325.307587   208.183553

                             ****ORCA TERMINATED NORMALLY****
TOTAL RUN TIME: 0 days 0 hours 0 minutes 22 seconds 921 msec
