                         Program Version 4.2.1 -  RELEASE  -
|  1> ! wB97X-D3 SP def2-SVP
|  2> %pal
|  3> nprocs 24
|  4> end
|  5>
|  6> * xyz 0 1
|  7> S 	 38.1708 	 -26.5914 	 -113.046
|  8> C 	 39.1804 	 -26.4084 	 -111.723
|  9> C 	 39.3894 	 -25.0698 	 -111.338
| 10> C 	 38.7467 	 -24.1546 	 -112.233
| 11> C 	 37.8909 	 -24.8395 	 -113.165
| 12> H 	 38.7534 	 -23.0412 	 -112.195
| 13> C 	 40.2347 	 -24.5404 	 -110.226
| 14> H 	 41.2907 	 -24.7687 	 -110.43
| 15> H 	 39.9989 	 -25.2352 	 -109.403
| 16> C 	 39.9095 	 -23.1797 	 -109.661
| 17> H 	 40.6455 	 -22.9642 	 -108.897
| 18> H 	 39.9659 	 -22.4595 	 -110.371
| 19> C 	 38.4121 	 -23.0172 	 -109.194
| 20> H 	 37.7305 	 -23.0873 	 -110.05
| 21> H 	 38.1209 	 -23.764 	 -108.528
| 22> H 	 38.3292 	 -21.978 	 -108.734
| 23> S 	 37.1435 	 -25.0341 	 -115.84
| 24> C 	 35.9992 	 -23.8258 	 -116.433
| 25> C 	 35.5857 	 -22.9572 	 -115.438
| 26> C 	 36.1365 	 -23.1686 	 -114.159
| 27> C 	 37.0515 	 -24.2522 	 -114.201
| 28> H 	 35.0178 	 -22.0721 	 -115.653
| 29> C 	 36.026 	 -22.1966 	 -113.034
| 30> H 	 36.1099 	 -22.7057 	 -112.028
| 31> H 	 34.9556 	 -21.8878 	 -112.953
| 32> C 	 36.868 	 -20.8592 	 -113.16
| 33> H 	 37.8362 	 -20.9573 	 -113.563
| 34> H 	 37.0972 	 -20.5141 	 -112.149
| 35> C 	 36.1487 	 -19.6882 	 -113.827
| 36> H 	 36.652 	 -18.6933 	 -113.774
| 37> H 	 35.2257 	 -19.3432 	 -113.342
| 38> H 	 35.8859 	 -20.0501 	 -114.889
| 39> H 	 39.7939 	 -27.2762 	 -111.504
| 40> H 	 35.7614 	 -23.7666 	 -117.538
| 41> *
| 42>
| 43>                          ****END OF INPUT****

CARTESIAN COORDINATES (ANGSTROEM)
---------------------------------
  S     38.170800  -26.591400  -113.046000
  C     39.180400  -26.408400  -111.723000
  C     39.389400  -25.069800  -111.338000
  C     38.746700  -24.154600  -112.233000
  C     37.890900  -24.839500  -113.165000
  H     38.753400  -23.041200  -112.195000
  C     40.234700  -24.540400  -110.226000
  H     41.290700  -24.768700  -110.430000
  H     39.998900  -25.235200  -109.403000
  C     39.909500  -23.179700  -109.661000
  H     40.645500  -22.964200  -108.897000
  H     39.965900  -22.459500  -110.371000
  C     38.412100  -23.017200  -109.194000
  H     37.730500  -23.087300  -110.050000
  H     38.120900  -23.764000  -108.528000
  H     38.329200  -21.978000  -108.734000
  S     37.143500  -25.034100  -115.840000
  C     35.999200  -23.825800  -116.433000
  C     35.585700  -22.957200  -115.438000
  C     36.136500  -23.168600  -114.159000
  C     37.051500  -24.252200  -114.201000
  H     35.017800  -22.072100  -115.653000
  C     36.026000  -22.196600  -113.034000
  H     36.109900  -22.705700  -112.028000
  H     34.955600  -21.887800  -112.953000
  C     36.868000  -20.859200  -113.160000
  H     37.836200  -20.957300  -113.563000
  H     37.097200  -20.514100  -112.149000
  C     36.148700  -19.688200  -113.827000
  H     36.652000  -18.693300  -113.774000
  H     35.225700  -19.343200  -113.342000
  H     35.885900  -20.050100  -114.889000
  H     39.793900  -27.276200  -111.504000
  H     35.761400  -23.766600  -117.538000

 Total Charge           Charge          ....    0
 Multiplicity           Mult            ....    1
 Number of Electrons    NEL             ....  134
 Basis Dimension        Dim             ....  322

ORBITAL ENERGIES
----------------

  NO   OCC          E(Eh)            E(eV)
   0   2.0000     -88.967752     -2420.9356
   1   2.0000     -88.967005     -2420.9153
   2   2.0000     -10.333336      -281.1844
   3   2.0000     -10.332250      -281.1548
   4   2.0000     -10.324770      -280.9513
   5   2.0000     -10.309138      -280.5259
   6   2.0000     -10.305740      -280.4335
   7   2.0000     -10.304358      -280.3958
   8   2.0000     -10.303293      -280.3668
   9   2.0000     -10.301872      -280.3282
  10   2.0000     -10.293385      -280.0973
  11   2.0000     -10.292094      -280.0621
  12   2.0000     -10.290470      -280.0179
  13   2.0000     -10.289054      -279.9794
  14   2.0000     -10.281322      -279.7690
  15   2.0000     -10.280467      -279.7457
  16   2.0000      -8.082503      -219.9361
  17   2.0000      -8.081284      -219.9029
  18   2.0000      -6.040731      -164.3767
  19   2.0000      -6.039773      -164.3506
  20   2.0000      -6.036800      -164.2697
  21   2.0000      -6.036063      -164.2496
  22   2.0000      -6.033631      -164.1834
  23   2.0000      -6.032037      -164.1401
  24   2.0000      -1.000471       -27.2242
  25   2.0000      -0.979782       -26.6612
  26   2.0000      -0.916339       -24.9349
  27   2.0000      -0.905699       -24.6453
  28   2.0000      -0.865077       -23.5399
  29   2.0000      -0.853738       -23.2314
  30   2.0000      -0.844925       -22.9916
  31   2.0000      -0.809051       -22.0154
  32   2.0000      -0.784432       -21.3455
  33   2.0000      -0.766305       -20.8522
  34   2.0000      -0.713527       -19.4161
  35   2.0000      -0.706557       -19.2264
  36   2.0000      -0.688730       -18.7413
  37   2.0000      -0.660237       -17.9660
  38   2.0000      -0.639303       -17.3963
  39   2.0000      -0.622974       -16.9520
  40   2.0000      -0.598816       -16.2946
  41   2.0000      -0.562712       -15.3122
  42   2.0000      -0.553013       -15.0483
  43   2.0000      -0.550433       -14.9780
  44   2.0000      -0.536092       -14.5878
  45   2.0000      -0.531202       -14.4547
  46   2.0000      -0.520936       -14.1754
  47   2.0000      -0.510160       -13.8822
  48   2.0000      -0.499678       -13.5969
  49   2.0000      -0.494576       -13.4581
  50   2.0000      -0.491312       -13.3693
  51   2.0000      -0.479053       -13.0357
  52   2.0000      -0.477341       -12.9891
  53   2.0000      -0.462017       -12.5721
  54   2.0000      -0.459003       -12.4901
  55   2.0000      -0.447000       -12.1635
  56   2.0000      -0.443848       -12.0777
  57   2.0000      -0.435253       -11.8438
  58   2.0000      -0.434757       -11.8303
  59   2.0000      -0.428628       -11.6636
  60   2.0000      -0.422552       -11.4982
  61   2.0000      -0.416742       -11.3401
  62   2.0000      -0.412122       -11.2144
  63   2.0000      -0.347230        -9.4486
  64   2.0000      -0.335118        -9.1190
  65   2.0000      -0.326218        -8.8768
  66   2.0000      -0.279081        -7.5942
  67   0.0000       0.018530         0.5042
  68   0.0000       0.068088         1.8528
  69   0.0000       0.100846         2.7442
  70   0.0000       0.118700         3.2300
  71   0.0000       0.124211         3.3799

MULLIKEN ATOMIC CHARGES
-----------------------
   0 S :    0.119844
   1 C :   -0.129127
   2 C :   -0.108312
   3 C :    0.001358
   4 C :   -0.164073
   5 H :    0.029101
   6 C :    0.064544
   7 H :    0.045387
   8 H :    0.024153
   9 C :   -0.027967
  10 H :    0.031843
  11 H :    0.002628
  12 C :   -0.069449
  13 H :    0.034759
  14 H :    0.024469
  15 H :    0.045717
  16 S :    0.094893
  17 C :   -0.113899
  18 C :   -0.028133
  19 C :    0.000609
  20 C :   -0.165022
  21 H :    0.013118
  22 C :    0.003982
  23 H :    0.051529
  24 H :    0.028347
  25 C :   -0.028827
  26 H :    0.034159
  27 H :    0.018807
  28 C :   -0.089968
  29 H :    0.042105
  30 H :    0.027546
  31 H :    0.043818
  32 H :    0.058973
  33 H :    0.083089
Sum of atomic charges:    0.0000000

LOEWDIN ATOMIC CHARGES
----------------------
   0 S :    0.435501
   1 C :   -0.230846
   2 C :   -0.065396
   3 C :   -0.063237
   4 C :   -0.196353
   5 H :    0.037080
   6 C :   -0.042615
   7 H :    0.036949
   8 H :    0.036741
   9 C :   -0.032095
  10 H :    0.029736
  11 H :    0.005516
  12 C :   -0.057785
  13 H :    0.024573
  14 H :    0.013849
  15 H :    0.036031
  16 S :    0.371695
  17 C :   -0.185527
  18 C :   -0.072830
  19 C :   -0.057801
  20 C :   -0.173286
  21 H :    0.027469
  22 C :   -0.041757
  23 H :    0.041641
  24 H :    0.038107
  25 C :   -0.040384
  26 H :    0.020333
  27 H :    0.025990
  28 C :   -0.080211
  29 H :    0.034093
  30 H :    0.023821
  31 H :    0.031450
  32 H :    0.027599
  33 H :    0.041953

  Mayer bond orders larger than 0.100000
B(  0-S ,  1-C ) :   1.1795 B(  0-S ,  4-C ) :   1.1727 B(  1-C ,  2-C ) :   1.5460
B(  1-C ,  4-C ) :   0.1048 B(  1-C , 32-H ) :   0.9681 B(  2-C ,  3-C ) :   1.2985
B(  2-C ,  6-C ) :   1.0048 B(  3-C ,  4-C ) :   1.5037 B(  3-C ,  5-H ) :   0.9773
B(  4-C , 20-C ) :   1.0848 B(  6-C ,  7-H ) :   0.9328 B(  6-C ,  8-H ) :   0.9380
B(  6-C ,  9-C ) :   1.0851 B(  9-C , 10-H ) :   0.9520 B(  9-C , 11-H ) :   0.9474
B(  9-C , 12-C ) :   1.0707 B( 12-C , 13-H ) :   0.9708 B( 12-C , 14-H ) :   0.9766
B( 12-C , 15-H ) :   0.9738 B( 16-S , 17-C ) :   1.1449 B( 16-S , 20-C ) :   1.1387
B( 17-C , 18-C ) :   1.5987 B( 17-C , 20-C ) :   0.1052 B( 17-C , 33-H ) :   0.9600
B( 18-C , 19-C ) :   1.2479 B( 18-C , 21-H ) :   0.9863 B( 19-C , 20-C ) :   1.5584
B( 19-C , 22-C ) :   1.0705 B( 22-C , 23-H ) :   0.9345 B( 22-C , 24-H ) :   0.9281
B( 22-C , 25-C ) :   1.0306 B( 25-C , 26-H ) :   0.9586 B( 25-C , 27-H ) :   0.9521
B( 25-C , 28-C ) :   1.0842 B( 28-C , 29-H ) :   0.9698 B( 28-C , 30-H ) :   0.9720
B( 28-C , 31-H ) :   0.9728

Dispersion correction           -0.015469719
FINAL SINGLE POINT ENERGY     -1339.858412081059

DIPOLE MOMENT
-------------
                                X             Y             Z
Electronic contribution:     -0.68260     -24.82273     -18.23025
Nuclear contribution   :      0.86195      25.46668      18.57194
                        -----------------------------------------
Total Dipole Moment    :      0.17935       0.64395       0.34168
                        -----------------------------------------
Magnitude (a.u.)       :      0.75072
Magnitude (Debye)      :      1.90818

Rotational constants in cm-1:     0.016880     0.010830     0.006980
Rotational constants in MHz :   506.038408   324.662333   209.270110

                             ****ORCA TERMINATED NORMALLY****
TOTAL RUN TIME: 0 days 0 hours 0 minutes 21 seconds 508 msec
