                         Program Version 4.2.1 -  RELEASE  -
|  1> ! wB97X-D3 SP def2-SVP
|  2> %pal
|  3> nprocs 24
|  4> end
|  5>
|  6> * xyz 0 1
|  7> S 	 -67.419 	 16.9048 	 -103.664
|  8> C 	 -68.8785 	 17.1029 	 -104.624
|  9> C 	 -68.7764 	 16.554 	 -105.866
| 10> C 	 -67.4664 	 16.1534 	 -106.135
| 11> C 	 -66.6046 	 16.3356 	 -105.129
| 12> H 	 -67.1445 	 15.6979 	 -107.074
| 13> C 	 -69.8828 	 16.4613 	 -106.883
| 14> H 	 -70.3658 	 17.4103 	 -106.853
| 15> H 	 -70.6788 	 15.8446 	 -106.391
| 16> C 	 -69.4974 	 15.8999 	 -108.225
| 17> H 	 -68.6942 	 16.5061 	 -108.643
| 18> H 	 -69.0681 	 14.8928 	 -108.072
| 19> C 	 -70.5231 	 15.8501 	 -109.363
| 20> H 	 -70.0724 	 15.5984 	 -110.333
| 21> H 	 -71.3025 	 15.169 	 -109.068
| 22> H 	 -70.9806 	 16.8047 	 -109.662
| 23> S 	 -64.6612 	 14.4481 	 -105.73
| 24> C 	 -63.005 	 14.778 	 -105.544
| 25> C 	 -62.7847 	 16.0104 	 -104.921
| 26> C 	 -64.0625 	 16.776 	 -104.702
| 27> C 	 -65.1778 	 16.0556 	 -105.138
| 28> H 	 -61.7214 	 16.3025 	 -104.664
| 29> C 	 -64.1617 	 18.1314 	 -104.051
| 30> H 	 -63.149 	 18.3592 	 -103.712
| 31> H 	 -64.8338 	 18.169 	 -103.185
| 32> C 	 -64.5199 	 19.4308 	 -104.909
| 33> H 	 -64.1231 	 19.3326 	 -105.958
| 34> H 	 -64.0098 	 20.2279 	 -104.478
| 35> C 	 -66.0294 	 19.6377 	 -105.044
| 36> H 	 -66.1473 	 20.644 	 -105.425
| 37> H 	 -66.5937 	 19.4791 	 -104.139
| 38> H 	 -66.4383 	 18.9929 	 -105.838
| 39> H 	 -69.7381 	 17.5242 	 -104.168
| 40> H 	 -62.1167 	 14.1386 	 -105.667
| 41> *
| 42>
| 43>                          ****END OF INPUT****

CARTESIAN COORDINATES (ANGSTROEM)
---------------------------------
  S    -67.419000   16.904800  -103.664000
  C    -68.878500   17.102900  -104.624000
  C    -68.776400   16.554000  -105.866000
  C    -67.466400   16.153400  -106.135000
  C    -66.604600   16.335600  -105.129000
  H    -67.144500   15.697900  -107.074000
  C    -69.882800   16.461300  -106.883000
  H    -70.365800   17.410300  -106.853000
  H    -70.678800   15.844600  -106.391000
  C    -69.497400   15.899900  -108.225000
  H    -68.694200   16.506100  -108.643000
  H    -69.068100   14.892800  -108.072000
  C    -70.523100   15.850100  -109.363000
  H    -70.072400   15.598400  -110.333000
  H    -71.302500   15.169000  -109.068000
  H    -70.980600   16.804700  -109.662000
  S    -64.661200   14.448100  -105.730000
  C    -63.005000   14.778000  -105.544000
  C    -62.784700   16.010400  -104.921000
  C    -64.062500   16.776000  -104.702000
  C    -65.177800   16.055600  -105.138000
  H    -61.721400   16.302500  -104.664000
  C    -64.161700   18.131400  -104.051000
  H    -63.149000   18.359200  -103.712000
  H    -64.833800   18.169000  -103.185000
  C    -64.519900   19.430800  -104.909000
  H    -64.123100   19.332600  -105.958000
  H    -64.009800   20.227900  -104.478000
  C    -66.029400   19.637700  -105.044000
  H    -66.147300   20.644000  -105.425000
  H    -66.593700   19.479100  -104.139000
  H    -66.438300   18.992900  -105.838000
  H    -69.738100   17.524200  -104.168000
  H    -62.116700   14.138600  -105.667000

 Total Charge           Charge          ....    0
 Multiplicity           Mult            ....    1
 Number of Electrons    NEL             ....  134
 Basis Dimension        Dim             ....  322

ORBITAL ENERGIES
----------------

  NO   OCC          E(Eh)            E(eV)
   0   2.0000     -88.965449     -2420.8730
   1   2.0000     -88.964213     -2420.8393
   2   2.0000     -10.326942      -281.0104
   3   2.0000     -10.325640      -280.9749
   4   2.0000     -10.317260      -280.7469
   5   2.0000     -10.311607      -280.5931
   6   2.0000     -10.309187      -280.5272
   7   2.0000     -10.304848      -280.4092
   8   2.0000     -10.297288      -280.2035
   9   2.0000     -10.292826      -280.0820
  10   2.0000     -10.291223      -280.0384
  11   2.0000     -10.289191      -279.9831
  12   2.0000     -10.286477      -279.9093
  13   2.0000     -10.281805      -279.7821
  14   2.0000     -10.281063      -279.7619
  15   2.0000     -10.263140      -279.2742
  16   2.0000      -8.079452      -219.8531
  17   2.0000      -8.078980      -219.8402
  18   2.0000      -6.037994      -164.3022
  19   2.0000      -6.037570      -164.2906
  20   2.0000      -6.034264      -164.2007
  21   2.0000      -6.033388      -164.1768
  22   2.0000      -6.030032      -164.0855
  23   2.0000      -6.029743      -164.0777
  24   2.0000      -1.008719       -27.4486
  25   2.0000      -0.981863       -26.7179
  26   2.0000      -0.916855       -24.9489
  27   2.0000      -0.898187       -24.4409
  28   2.0000      -0.870595       -23.6901
  29   2.0000      -0.851903       -23.1815
  30   2.0000      -0.842621       -22.9289
  31   2.0000      -0.815624       -22.1943
  32   2.0000      -0.785146       -21.3649
  33   2.0000      -0.769000       -20.9256
  34   2.0000      -0.716157       -19.4876
  35   2.0000      -0.697043       -18.9675
  36   2.0000      -0.682757       -18.5788
  37   2.0000      -0.660628       -17.9766
  38   2.0000      -0.634285       -17.2598
  39   2.0000      -0.625827       -17.0296
  40   2.0000      -0.587809       -15.9951
  41   2.0000      -0.574379       -15.6297
  42   2.0000      -0.562436       -15.3047
  43   2.0000      -0.542910       -14.7733
  44   2.0000      -0.532050       -14.4778
  45   2.0000      -0.531227       -14.4554
  46   2.0000      -0.518277       -14.1030
  47   2.0000      -0.513695       -13.9783
  48   2.0000      -0.501350       -13.6424
  49   2.0000      -0.494172       -13.4471
  50   2.0000      -0.487345       -13.2613
  51   2.0000      -0.478880       -13.0310
  52   2.0000      -0.475578       -12.9411
  53   2.0000      -0.467315       -12.7163
  54   2.0000      -0.460235       -12.5236
  55   2.0000      -0.456217       -12.4143
  56   2.0000      -0.437697       -11.9103
  57   2.0000      -0.434302       -11.8179
  58   2.0000      -0.428038       -11.6475
  59   2.0000      -0.424779       -11.5588
  60   2.0000      -0.415749       -11.3131
  61   2.0000      -0.413467       -11.2510
  62   2.0000      -0.406174       -11.0525
  63   2.0000      -0.345820        -9.4103
  64   2.0000      -0.331984        -9.0337
  65   2.0000      -0.323096        -8.7919
  66   2.0000      -0.291610        -7.9351
  67   0.0000       0.028264         0.7691
  68   0.0000       0.074715         2.0331
  69   0.0000       0.103570         2.8183
  70   0.0000       0.119261         3.2453
  71   0.0000       0.125343         3.4107

MULLIKEN ATOMIC CHARGES
-----------------------
   0 S :    0.101495
   1 C :   -0.142678
   2 C :   -0.061760
   3 C :   -0.012377
   4 C :   -0.127373
   5 H :    0.013972
   6 C :    0.112203
   7 H :    0.018018
   8 H :    0.030866
   9 C :   -0.116453
  10 H :    0.034179
  11 H :    0.042935
  12 C :   -0.016396
  13 H :    0.032500
  14 H :    0.032133
  15 H :    0.026080
  16 S :    0.110648
  17 C :   -0.088433
  18 C :   -0.076089
  19 C :   -0.029347
  20 C :   -0.151110
  21 H :    0.043566
  22 C :    0.030500
  23 H :    0.010932
  24 H :    0.039061
  25 C :   -0.058101
  26 H :    0.031595
  27 H :    0.017928
  28 C :   -0.041227
  29 H :    0.020461
  30 H :    0.031125
  31 H :    0.044069
  32 H :    0.029821
  33 H :    0.067258
Sum of atomic charges:    0.0000000

LOEWDIN ATOMIC CHARGES
----------------------
   0 S :    0.407712
   1 C :   -0.182757
   2 C :   -0.059225
   3 C :   -0.068831
   4 C :   -0.181379
   5 H :    0.033937
   6 C :   -0.035023
   7 H :    0.030747
   8 H :    0.039854
   9 C :   -0.049193
  10 H :    0.026069
  11 H :    0.031279
  12 C :   -0.064115
  13 H :    0.031682
  14 H :    0.022241
  15 H :    0.026647
  16 S :    0.410462
  17 C :   -0.214034
  18 C :   -0.082343
  19 C :   -0.052826
  20 C :   -0.189095
  21 H :    0.040461
  22 C :   -0.041682
  23 H :    0.029873
  24 H :    0.027011
  25 C :   -0.029472
  26 H :    0.030909
  27 H :    0.011959
  28 C :   -0.072417
  29 H :    0.022502
  30 H :    0.009640
  31 H :    0.030664
  32 H :    0.017129
  33 H :    0.041618

  Mayer bond orders larger than 0.100000
B(  0-S ,  1-C ) :   1.1324 B(  0-S ,  4-C ) :   1.1402 B(  1-C ,  2-C ) :   1.6146
B(  1-C , 32-H ) :   0.9800 B(  2-C ,  3-C ) :   1.2473 B(  2-C ,  6-C ) :   0.9944
B(  3-C ,  4-C ) :   1.5702 B(  3-C ,  5-H ) :   0.9938 B(  4-C , 20-C ) :   1.0462
B(  6-C ,  7-H ) :   0.9299 B(  6-C ,  8-H ) :   0.9217 B(  6-C ,  9-C ) :   1.0908
B(  9-C , 10-H ) :   0.9480 B(  9-C , 11-H ) :   0.9428 B(  9-C , 12-C ) :   1.0868
B( 12-C , 13-H ) :   0.9713 B( 12-C , 14-H ) :   0.9749 B( 12-C , 15-H ) :   0.9725
B( 16-S , 17-C ) :   1.1584 B( 16-S , 20-C ) :   1.1235 B( 17-C , 18-C ) :   1.6350
B( 17-C , 33-H ) :   0.9585 B( 18-C , 19-C ) :   1.2175 B( 18-C , 21-H ) :   0.9756
B( 19-C , 20-C ) :   1.5876 B( 19-C , 22-C ) :   1.0564 B( 22-C , 23-H ) :   0.9285
B( 22-C , 24-H ) :   0.9421 B( 22-C , 25-C ) :   1.0585 B( 25-C , 26-H ) :   0.9558
B( 25-C , 27-H ) :   0.9632 B( 25-C , 28-C ) :   1.0816 B( 28-C , 29-H ) :   0.9681
B( 28-C , 30-H ) :   0.9714 B( 28-C , 31-H ) :   0.9724

Dispersion correction           -0.015370953
FINAL SINGLE POINT ENERGY     -1339.875228246161

DIPOLE MOMENT
-------------
                                X             Y             Z
Electronic contribution:     10.41062     -12.25657      12.85288
Nuclear contribution   :    -10.56895      12.49248     -13.12744
                        -----------------------------------------
Total Dipole Moment    :     -0.15833       0.23591      -0.27457
                        -----------------------------------------
Magnitude (a.u.)       :      0.39511
Magnitude (Debye)      :      1.00428

Rotational constants in cm-1:     0.019267     0.009096     0.007452
Rotational constants in MHz :   577.601613   272.695054   223.416272

                             ****ORCA TERMINATED NORMALLY****
TOTAL RUN TIME: 0 days 0 hours 0 minutes 22 seconds 506 msec
