                         Program Version 4.2.1 -  RELEASE  -
|  1> ! wB97X-D3 SP def2-SVP
|  2> %pal
|  3> nprocs 24
|  4> end
|  5>
|  6> * xyz 0 1
|  7> S 	 -78.5349 	 -4.61705 	 3.79313
|  8> C 	 -77.1752 	 -3.77434 	 3.23139
|  9> C 	 -76.361 	 -4.5236 	 2.38846
| 10> C 	 -76.9602 	 -5.80405 	 2.16523
| 11> C 	 -78.0768 	 -6.01814 	 2.90593
| 12> H 	 -76.5311 	 -6.65289 	 1.64064
| 13> C 	 -75.0792 	 -4.1574 	 1.75527
| 14> H 	 -75.4162 	 -3.13077 	 1.40443
| 15> H 	 -74.8407 	 -4.84595 	 0.92959
| 16> C 	 -73.8337 	 -4.13919 	 2.67887
| 17> H 	 -73.0614 	 -3.67559 	 2.11597
| 18> H 	 -73.9963 	 -3.55005 	 3.57318
| 19> C 	 -73.3803 	 -5.5986 	 3.1828
| 20> H 	 -74.1251 	 -5.9899 	 3.8442
| 21> H 	 -73.3349 	 -6.28057 	 2.25475
| 22> H 	 -72.455 	 -5.60677 	 3.71676
| 23> S 	 -80.5295 	 -7.25509 	 2.79522
| 24> C 	 -80.671 	 -8.88057 	 3.24353
| 25> C 	 -79.4376 	 -9.33765 	 3.64412
| 26> C 	 -78.3511 	 -8.44488 	 3.50064
| 27> C 	 -78.8243 	 -7.24617 	 3.09423
| 28> H 	 -79.3364 	 -10.3272 	 4.07753
| 29> C 	 -76.9572 	 -8.7495 	 4.01685
| 30> H 	 -77.028 	 -8.8889 	 5.11352
| 31> H 	 -76.4568 	 -7.75413 	 3.73451
| 32> C 	 -76.2268 	 -9.88987 	 3.29789
| 33> H 	 -76.1618 	 -9.58382 	 2.23088
| 34> H 	 -76.813 	 -10.8188 	 3.43526
| 35> C 	 -74.7651 	 -10.2014 	 3.73381
| 36> H 	 -74.4653 	 -11.0239 	 3.06397
| 37> H 	 -74.6202 	 -10.4621 	 4.81546
| 38> H 	 -74.038 	 -9.4117 	 3.55831
| 39> H 	 -76.8168 	 -2.76626 	 3.52322
| 40> H 	 -81.4712 	 -9.57545 	 3.4422
| 41> *
| 42>
| 43>                          ****END OF INPUT****

CARTESIAN COORDINATES (ANGSTROEM)
---------------------------------
  S    -78.534900   -4.617050    3.793130
  C    -77.175200   -3.774340    3.231390
  C    -76.361000   -4.523600    2.388460
  C    -76.960200   -5.804050    2.165230
  C    -78.076800   -6.018140    2.905930
  H    -76.531100   -6.652890    1.640640
  C    -75.079200   -4.157400    1.755270
  H    -75.416200   -3.130770    1.404430
  H    -74.840700   -4.845950    0.929590
  C    -73.833700   -4.139190    2.678870
  H    -73.061400   -3.675590    2.115970
  H    -73.996300   -3.550050    3.573180
  C    -73.380300   -5.598600    3.182800
  H    -74.125100   -5.989900    3.844200
  H    -73.334900   -6.280570    2.254750
  H    -72.455000   -5.606770    3.716760
  S    -80.529500   -7.255090    2.795220
  C    -80.671000   -8.880570    3.243530
  C    -79.437600   -9.337650    3.644120
  C    -78.351100   -8.444880    3.500640
  C    -78.824300   -7.246170    3.094230
  H    -79.336400  -10.327200    4.077530
  C    -76.957200   -8.749500    4.016850
  H    -77.028000   -8.888900    5.113520
  H    -76.456800   -7.754130    3.734510
  C    -76.226800   -9.889870    3.297890
  H    -76.161800   -9.583820    2.230880
  H    -76.813000  -10.818800    3.435260
  C    -74.765100  -10.201400    3.733810
  H    -74.465300  -11.023900    3.063970
  H    -74.620200  -10.462100    4.815460
  H    -74.038000   -9.411700    3.558310
  H    -76.816800   -2.766260    3.523220
  H    -81.471200   -9.575450    3.442200

 Total Charge           Charge          ....    0
 Multiplicity           Mult            ....    1
 Number of Electrons    NEL             ....  134
 Basis Dimension        Dim             ....  322

ORBITAL ENERGIES
----------------

  NO   OCC          E(Eh)            E(eV)
   0   2.0000     -88.967467     -2420.9278
   1   2.0000     -88.966433     -2420.8997
   2   2.0000     -10.319785      -280.8156
   3   2.0000     -10.318003      -280.7671
   4   2.0000     -10.310444      -280.5614
   5   2.0000     -10.308358      -280.5047
   6   2.0000     -10.298019      -280.2233
   7   2.0000     -10.297360      -280.2054
   8   2.0000     -10.295533      -280.1557
   9   2.0000     -10.294131      -280.1175
  10   2.0000     -10.293049      -280.0881
  11   2.0000     -10.291438      -280.0443
  12   2.0000     -10.288535      -279.9653
  13   2.0000     -10.286472      -279.9091
  14   2.0000     -10.283913      -279.8395
  15   2.0000     -10.283770      -279.8356
  16   2.0000      -8.083541      -219.9643
  17   2.0000      -8.082242      -219.9290
  18   2.0000      -6.041939      -164.4095
  19   2.0000      -6.040708      -164.3760
  20   2.0000      -6.037787      -164.2965
  21   2.0000      -6.036595      -164.2641
  22   2.0000      -6.034408      -164.2046
  23   2.0000      -6.032972      -164.1655
  24   2.0000      -1.019926       -27.7536
  25   2.0000      -0.996407       -27.1136
  26   2.0000      -0.912714       -24.8362
  27   2.0000      -0.907084       -24.6830
  28   2.0000      -0.870847       -23.6970
  29   2.0000      -0.853121       -23.2146
  30   2.0000      -0.847370       -23.0581
  31   2.0000      -0.815627       -22.1943
  32   2.0000      -0.783533       -21.3210
  33   2.0000      -0.773110       -21.0374
  34   2.0000      -0.710306       -19.3284
  35   2.0000      -0.701895       -19.0995
  36   2.0000      -0.693519       -18.8716
  37   2.0000      -0.660336       -17.9687
  38   2.0000      -0.638968       -17.3872
  39   2.0000      -0.612861       -16.6768
  40   2.0000      -0.588293       -16.0083
  41   2.0000      -0.578989       -15.7551
  42   2.0000      -0.566461       -15.4142
  43   2.0000      -0.551040       -14.9945
  44   2.0000      -0.541108       -14.7243
  45   2.0000      -0.526531       -14.3276
  46   2.0000      -0.514682       -14.0052
  47   2.0000      -0.509711       -13.8699
  48   2.0000      -0.505635       -13.7590
  49   2.0000      -0.493417       -13.4265
  50   2.0000      -0.489752       -13.3268
  51   2.0000      -0.481327       -13.0976
  52   2.0000      -0.473872       -12.8947
  53   2.0000      -0.467460       -12.7202
  54   2.0000      -0.459446       -12.5022
  55   2.0000      -0.450176       -12.2499
  56   2.0000      -0.443968       -12.0810
  57   2.0000      -0.441095       -12.0028
  58   2.0000      -0.432003       -11.7554
  59   2.0000      -0.428062       -11.6482
  60   2.0000      -0.421380       -11.4663
  61   2.0000      -0.417477       -11.3601
  62   2.0000      -0.411296       -11.1919
  63   2.0000      -0.344780        -9.3819
  64   2.0000      -0.333635        -9.0787
  65   2.0000      -0.328407        -8.9364
  66   2.0000      -0.295635        -8.0447
  67   0.0000       0.040359         1.0982
  68   0.0000       0.073069         1.9883
  69   0.0000       0.118566         3.2263
  70   0.0000       0.121524         3.3068
  71   0.0000       0.129251         3.5171

MULLIKEN ATOMIC CHARGES
-----------------------
   0 S :    0.141456
   1 C :   -0.114909
   2 C :   -0.117913
   3 C :    0.036903
   4 C :   -0.185640
   5 H :    0.007982
   6 C :    0.031765
   7 H :    0.049460
   8 H :    0.030689
   9 C :   -0.040717
  10 H :    0.030140
  11 H :    0.025116
  12 C :   -0.085701
  13 H :    0.046717
  14 H :    0.034956
  15 H :    0.041329
  16 S :    0.132615
  17 C :   -0.058494
  18 C :   -0.075437
  19 C :   -0.010343
  20 C :   -0.181949
  21 H :    0.008568
  22 C :    0.049176
  23 H :    0.046509
  24 H :    0.038133
  25 C :   -0.101281
  26 H :    0.035929
  27 H :    0.039021
  28 C :   -0.054295
  29 H :    0.039460
  30 H :    0.039065
  31 H :    0.028112
  32 H :    0.045296
  33 H :    0.048282
Sum of atomic charges:   -0.0000000

LOEWDIN ATOMIC CHARGES
----------------------
   0 S :    0.446467
   1 C :   -0.228048
   2 C :   -0.068157
   3 C :   -0.067607
   4 C :   -0.204543
   5 H :    0.030834
   6 C :   -0.039047
   7 H :    0.047416
   8 H :    0.033284
   9 C :   -0.030579
  10 H :    0.019209
  11 H :    0.021141
  12 C :   -0.065985
  13 H :    0.022430
  14 H :    0.029801
  15 H :    0.023821
  16 S :    0.438741
  17 C :   -0.214003
  18 C :   -0.073002
  19 C :   -0.064912
  20 C :   -0.209318
  21 H :    0.024780
  22 C :   -0.039309
  23 H :    0.035373
  24 H :    0.039749
  25 C :   -0.044452
  26 H :    0.030566
  27 H :    0.025514
  28 C :   -0.072980
  29 H :    0.031602
  30 H :    0.028629
  31 H :    0.021904
  32 H :    0.033259
  33 H :    0.037421

  Mayer bond orders larger than 0.100000
B(  0-S ,  1-C ) :   1.1493 B(  0-S ,  4-C ) :   1.1730 B(  1-C ,  2-C ) :   1.6097
B(  1-C , 32-H ) :   0.9586 B(  2-C ,  3-C ) :   1.2422 B(  2-C ,  6-C ) :   1.0070
B(  3-C ,  4-C ) :   1.5816 B(  3-C ,  5-H ) :   0.9945 B(  4-C , 20-C ) :   0.9975
B(  6-C ,  7-H ) :   0.9369 B(  6-C ,  8-H ) :   0.9453 B(  6-C ,  9-C ) :   1.0699
B(  9-C , 10-H ) :   0.9590 B(  9-C , 11-H ) :   0.9584 B(  9-C , 12-C ) :   1.0584
B( 12-C , 13-H ) :   0.9782 B( 12-C , 14-H ) :   0.9775 B( 12-C , 15-H ) :   0.9760
B( 16-S , 17-C ) :   1.1464 B( 16-S , 20-C ) :   1.1586 B( 17-C , 18-C ) :   1.6200
B( 17-C , 33-H ) :   0.9645 B( 18-C , 19-C ) :   1.2437 B( 18-C , 21-H ) :   0.9832
B( 19-C , 20-C ) :   1.6037 B( 19-C , 22-C ) :   1.0286 B( 22-C , 23-H ) :   0.9368
B( 22-C , 24-H ) :   0.9274 B( 22-C , 25-C ) :   1.0611 B( 25-C , 26-H ) :   0.9520
B( 25-C , 27-H ) :   0.9582 B( 25-C , 28-C ) :   1.0840 B( 28-C , 29-H ) :   0.9747
B( 28-C , 30-H ) :   0.9736 B( 28-C , 31-H ) :   0.9750

Dispersion correction           -0.015158993
FINAL SINGLE POINT ENERGY     -1339.878440599709

DIPOLE MOMENT
-------------
                                X             Y             Z
Electronic contribution:    -30.66119       9.20308      -0.05054
Nuclear contribution   :     31.31274      -9.42467       0.19185
                        -----------------------------------------
Total Dipole Moment    :      0.65155      -0.22159       0.14131
                        -----------------------------------------
Magnitude (a.u.)       :      0.70256
Magnitude (Debye)      :      1.78575

Rotational constants in cm-1:     0.016972     0.010634     0.006996
Rotational constants in MHz :   508.815490   318.797960   209.720486

                             ****ORCA TERMINATED NORMALLY****
TOTAL RUN TIME: 0 days 0 hours 0 minutes 21 seconds 391 msec
