                         Program Version 4.2.1 -  RELEASE  -
|  1> ! wB97X-D3 SP def2-SVP
|  2> %pal
|  3> nprocs 24
|  4> end
|  5>
|  6> * xyz 0 1
|  7> S 	 -51.7461 	 13.5959 	 -99.4413
|  8> C 	 -52.9858 	 12.4076 	 -99.2475
|  9> C 	 -52.5079 	 11.196 	 -98.894
| 10> C 	 -51.0987 	 11.199 	 -98.8684
| 11> C 	 -50.5824 	 12.3705 	 -99.4377
| 12> H 	 -50.517 	 10.2853 	 -98.747
| 13> C 	 -53.3314 	 9.93383 	 -98.874
| 14> H 	 -54.323 	 10.3078 	 -98.5308
| 15> H 	 -52.9861 	 9.18921 	 -98.1142
| 16> C 	 -53.4782 	 9.33515 	 -100.251
| 17> H 	 -52.4544 	 9.09887 	 -100.586
| 18> H 	 -54.0132 	 8.36532 	 -100.147
| 19> C 	 -54.3054 	 10.0735 	 -101.276
| 20> H 	 -55.2641 	 10.3935 	 -100.806
| 21> H 	 -53.6868 	 10.9023 	 -101.712
| 22> H 	 -54.53 	 9.3932 	 -102.037
| 23> S 	 -48.9661 	 13.1972 	 -101.549
| 24> C 	 -47.3199 	 13.621 	 -101.234
| 25> C 	 -46.9346 	 13.2298 	 -99.9845
| 26> C 	 -47.9712 	 12.7732 	 -99.1599
| 27> C 	 -49.1641 	 12.7016 	 -99.8599
| 28> H 	 -45.9168 	 13.3935 	 -99.7385
| 29> C 	 -47.7474 	 12.3909 	 -97.6473
| 30> H 	 -46.761 	 12.6047 	 -97.4987
| 31> H 	 -47.6281 	 11.3446 	 -97.6481
| 32> C 	 -48.6002 	 12.9631 	 -96.5516
| 33> H 	 -49.6253 	 12.6388 	 -96.6618
| 34> H 	 -48.7117 	 14.0035 	 -96.7923
| 35> C 	 -48.0297 	 12.7721 	 -95.1194
| 36> H 	 -48.2806 	 11.7869 	 -94.6949
| 37> H 	 -48.5737 	 13.5101 	 -94.5017
| 38> H 	 -46.9818 	 12.968 	 -94.9247
| 39> H 	 -54.0474 	 12.507 	 -99.4429
| 40> H 	 -46.6712 	 14.0117 	 -102.002
| 41> *
| 42>
| 43>                          ****END OF INPUT****

CARTESIAN COORDINATES (ANGSTROEM)
---------------------------------
  S    -51.746100   13.595900  -99.441300
  C    -52.985800   12.407600  -99.247500
  C    -52.507900   11.196000  -98.894000
  C    -51.098700   11.199000  -98.868400
  C    -50.582400   12.370500  -99.437700
  H    -50.517000   10.285300  -98.747000
  C    -53.331400    9.933830  -98.874000
  H    -54.323000   10.307800  -98.530800
  H    -52.986100    9.189210  -98.114200
  C    -53.478200    9.335150  -100.251000
  H    -52.454400    9.098870  -100.586000
  H    -54.013200    8.365320  -100.147000
  C    -54.305400   10.073500  -101.276000
  H    -55.264100   10.393500  -100.806000
  H    -53.686800   10.902300  -101.712000
  H    -54.530000    9.393200  -102.037000
  S    -48.966100   13.197200  -101.549000
  C    -47.319900   13.621000  -101.234000
  C    -46.934600   13.229800  -99.984500
  C    -47.971200   12.773200  -99.159900
  C    -49.164100   12.701600  -99.859900
  H    -45.916800   13.393500  -99.738500
  C    -47.747400   12.390900  -97.647300
  H    -46.761000   12.604700  -97.498700
  H    -47.628100   11.344600  -97.648100
  C    -48.600200   12.963100  -96.551600
  H    -49.625300   12.638800  -96.661800
  H    -48.711700   14.003500  -96.792300
  C    -48.029700   12.772100  -95.119400
  H    -48.280600   11.786900  -94.694900
  H    -48.573700   13.510100  -94.501700
  H    -46.981800   12.968000  -94.924700
  H    -54.047400   12.507000  -99.442900
  H    -46.671200   14.011700  -102.002000

 Total Charge           Charge          ....    0
 Multiplicity           Mult            ....    1
 Number of Electrons    NEL             ....  134
 Basis Dimension        Dim             ....  322

ORBITAL ENERGIES
----------------

  NO   OCC          E(Eh)            E(eV)
   0   2.0000     -88.964517     -2420.8476
   1   2.0000     -88.963434     -2420.8181
   2   2.0000     -10.328330      -281.0481
   3   2.0000     -10.326934      -281.0102
   4   2.0000     -10.312546      -280.6187
   5   2.0000     -10.303995      -280.3860
   6   2.0000     -10.301052      -280.3059
   7   2.0000     -10.293495      -280.1002
   8   2.0000     -10.290473      -280.0180
   9   2.0000     -10.289095      -279.9805
  10   2.0000     -10.286372      -279.9064
  11   2.0000     -10.284728      -279.8617
  12   2.0000     -10.281244      -279.7669
  13   2.0000     -10.280551      -279.7480
  14   2.0000     -10.279588      -279.7218
  15   2.0000     -10.277120      -279.6547
  16   2.0000      -8.080689      -219.8867
  17   2.0000      -8.078446      -219.8257
  18   2.0000      -6.039019      -164.3301
  19   2.0000      -6.036769      -164.2688
  20   2.0000      -6.035065      -164.2225
  21   2.0000      -6.032945      -164.1648
  22   2.0000      -6.031487      -164.1251
  23   2.0000      -6.029362      -164.0673
  24   2.0000      -1.012401       -27.5488
  25   2.0000      -0.991314       -26.9750
  26   2.0000      -0.918099       -24.9827
  27   2.0000      -0.906629       -24.6706
  28   2.0000      -0.864776       -23.5317
  29   2.0000      -0.849431       -23.1142
  30   2.0000      -0.846804       -23.0427
  31   2.0000      -0.812088       -22.0980
  32   2.0000      -0.788211       -21.4483
  33   2.0000      -0.778506       -21.1842
  34   2.0000      -0.713451       -19.4140
  35   2.0000      -0.697139       -18.9701
  36   2.0000      -0.684396       -18.6234
  37   2.0000      -0.659214       -17.9381
  38   2.0000      -0.633298       -17.2329
  39   2.0000      -0.620379       -16.8814
  40   2.0000      -0.595418       -16.2021
  41   2.0000      -0.574709       -15.6386
  42   2.0000      -0.558044       -15.1851
  43   2.0000      -0.549153       -14.9432
  44   2.0000      -0.547517       -14.8987
  45   2.0000      -0.524168       -14.2633
  46   2.0000      -0.516041       -14.0422
  47   2.0000      -0.512700       -13.9513
  48   2.0000      -0.494845       -13.4654
  49   2.0000      -0.493458       -13.4277
  50   2.0000      -0.487620       -13.2688
  51   2.0000      -0.480882       -13.0855
  52   2.0000      -0.474725       -12.9179
  53   2.0000      -0.466859       -12.7039
  54   2.0000      -0.463323       -12.6076
  55   2.0000      -0.449864       -12.2414
  56   2.0000      -0.444534       -12.0964
  57   2.0000      -0.437426       -11.9030
  58   2.0000      -0.434557       -11.8249
  59   2.0000      -0.425211       -11.5706
  60   2.0000      -0.418419       -11.3858
  61   2.0000      -0.411824       -11.2063
  62   2.0000      -0.408251       -11.1091
  63   2.0000      -0.338137        -9.2012
  64   2.0000      -0.330713        -8.9992
  65   2.0000      -0.327337        -8.9073
  66   2.0000      -0.298318        -8.1176
  67   0.0000       0.032607         0.8873
  68   0.0000       0.070330         1.9138
  69   0.0000       0.116142         3.1604
  70   0.0000       0.118836         3.2337
  71   0.0000       0.141678         3.8553

MULLIKEN ATOMIC CHARGES
-----------------------
   0 S :    0.139321
   1 C :   -0.117551
   2 C :   -0.101345
   3 C :    0.046436
   4 C :   -0.185182
   5 H :    0.013275
   6 C :    0.049068
   7 H :    0.015097
   8 H :    0.039196
   9 C :   -0.080969
  10 H :    0.026918
  11 H :    0.028163
  12 C :   -0.034959
  13 H :    0.029751
  14 H :    0.056190
  15 H :    0.025093
  16 S :    0.108653
  17 C :   -0.095807
  18 C :   -0.029438
  19 C :   -0.034503
  20 C :   -0.198186
  21 H :    0.002980
  22 C :    0.180419
  23 H :   -0.041768
  24 H :    0.009372
  25 C :   -0.042865
  26 H :    0.035264
  27 H :    0.019857
  28 C :   -0.058136
  29 H :    0.037831
  30 H :    0.033601
  31 H :    0.034912
  32 H :    0.033939
  33 H :    0.055375
Sum of atomic charges:    0.0000000

LOEWDIN ATOMIC CHARGES
----------------------
   0 S :    0.440483
   1 C :   -0.209408
   2 C :   -0.070945
   3 C :   -0.067009
   4 C :   -0.208249
   5 H :    0.030323
   6 C :   -0.035640
   7 H :    0.028180
   8 H :    0.036794
   9 C :   -0.045990
  10 H :    0.025001
  11 H :    0.026484
  12 C :   -0.063118
  13 H :    0.028122
  14 H :    0.034581
  15 H :    0.020687
  16 S :    0.406062
  17 C :   -0.185067
  18 C :   -0.074577
  19 C :   -0.049005
  20 C :   -0.200916
  21 H :    0.026436
  22 C :   -0.023196
  23 H :    0.015782
  24 H :    0.027501
  25 C :   -0.038841
  26 H :    0.028043
  27 H :    0.025040
  28 C :   -0.065860
  29 H :    0.027511
  30 H :    0.032760
  31 H :    0.024194
  32 H :    0.025835
  33 H :    0.028003

  Mayer bond orders larger than 0.100000
B(  0-S ,  1-C ) :   1.1297 B(  0-S ,  4-C ) :   1.1950 B(  1-C ,  2-C ) :   1.6338
B(  1-C , 32-H ) :   0.9589 B(  2-C ,  3-C ) :   1.2550 B(  2-C ,  6-C ) :   1.0276
B(  3-C ,  4-C ) :   1.5600 B(  3-C ,  5-H ) :   0.9951 B(  4-C , 20-C ) :   0.9923
B(  6-C ,  7-H ) :   0.9354 B(  6-C ,  8-H ) :   0.9406 B(  6-C ,  9-C ) :   1.0735
B(  9-C , 10-H ) :   0.9499 B(  9-C , 11-H ) :   0.9542 B(  9-C , 12-C ) :   1.0881
B( 12-C , 13-H ) :   0.9698 B( 12-C , 14-H ) :   0.9692 B( 12-C , 15-H ) :   0.9710
B( 16-S , 17-C ) :   1.1640 B( 16-S , 20-C ) :   1.1572 B( 17-C , 18-C ) :   1.6037
B( 17-C , 33-H ) :   0.9666 B( 18-C , 19-C ) :   1.2528 B( 18-C , 21-H ) :   0.9935
B( 19-C , 20-C ) :   1.5948 B( 19-C , 22-C ) :   1.0103 B( 22-C , 23-H ) :   0.9102
B( 22-C , 24-H ) :   0.9170 B( 22-C , 25-C ) :   1.0584 B( 25-C , 26-H ) :   0.9478
B( 25-C , 27-H ) :   0.9576 B( 25-C , 28-C ) :   1.0775 B( 28-C , 29-H ) :   0.9771
B( 28-C , 30-H ) :   0.9753 B( 28-C , 31-H ) :   0.9770

Dispersion correction           -0.014912363
FINAL SINGLE POINT ENERGY     -1339.863305126719

DIPOLE MOMENT
-------------
                                X             Y             Z
Electronic contribution:      4.86203      12.96104     -13.12494
Nuclear contribution   :     -4.72075     -13.35651      13.31024
                        -----------------------------------------
Total Dipole Moment    :      0.14128      -0.39547       0.18530
                        -----------------------------------------
Magnitude (a.u.)       :      0.45902
Magnitude (Debye)      :      1.16674

Rotational constants in cm-1:     0.018745     0.009027     0.007142
Rotational constants in MHz :   561.974665   270.635538   214.109404

                             ****ORCA TERMINATED NORMALLY****
TOTAL RUN TIME: 0 days 0 hours 0 minutes 21 seconds 936 msec
