                         Program Version 4.2.1 -  RELEASE  -
|  1> ! wB97X-D3 SP def2-SVP
|  2> %pal
|  3> nprocs 24
|  4> end
|  5>
|  6> * xyz 0 1
|  7> S 	 -70.3111 	 0.240232 	 -68.7828
|  8> C 	 -70.9479 	 1.36838 	 -69.9826
|  9> C 	 -71.0799 	 0.708141 	 -71.2582
| 10> C 	 -70.7058 	 -0.666947 	 -71.2168
| 11> C 	 -70.3535 	 -1.07332 	 -69.9749
| 12> H 	 -70.5184 	 -1.37463 	 -72.0266
| 13> C 	 -71.1988 	 1.38299 	 -72.6208
| 14> H 	 -72.2611 	 1.45397 	 -72.8691
| 15> H 	 -70.9504 	 0.618871 	 -73.3899
| 16> C 	 -70.4182 	 2.70231 	 -72.9584
| 17> H 	 -70.6655 	 3.54863 	 -72.3966
| 18> H 	 -69.3601 	 2.53286 	 -72.9315
| 19> C 	 -70.7427 	 3.20073 	 -74.3422
| 20> H 	 -70.122 	 4.14257 	 -74.6148
| 21> H 	 -70.4476 	 2.42252 	 -75.0088
| 22> H 	 -71.76 	 3.36621 	 -74.5522
| 23> S 	 -71.1237 	 -3.20782 	 -68.4161
| 24> C 	 -70.145 	 -4.58483 	 -68.2617
| 25> C 	 -69.0886 	 -4.54375 	 -69.1392
| 26> C 	 -69.0026 	 -3.31791 	 -69.8466
| 27> C 	 -69.9922 	 -2.3832 	 -69.4873
| 28> H 	 -68.406 	 -5.33409 	 -69.2435
| 29> C 	 -67.9169 	 -3.14038 	 -70.8839
| 30> H 	 -68.1138 	 -2.13062 	 -71.2562
| 31> H 	 -68.1659 	 -3.87401 	 -71.6175
| 32> C 	 -66.449 	 -3.28659 	 -70.3296
| 33> H 	 -66.1948 	 -4.26758 	 -70.0299
| 34> H 	 -66.2562 	 -2.51963 	 -69.5625
| 35> C 	 -65.4613 	 -3.22208 	 -71.3966
| 36> H 	 -64.4539 	 -3.28262 	 -71.1355
| 37> H 	 -65.607 	 -2.23806 	 -71.9896
| 38> H 	 -65.5959 	 -4.10779 	 -72.0292
| 39> H 	 -70.908 	 2.43732 	 -70.0026
| 40> H 	 -70.3249 	 -5.51432 	 -67.7976
| 41> *
| 42>
| 43>                          ****END OF INPUT****

CARTESIAN COORDINATES (ANGSTROEM)
---------------------------------
  S    -70.311100    0.240232  -68.782800
  C    -70.947900    1.368380  -69.982600
  C    -71.079900    0.708141  -71.258200
  C    -70.705800   -0.666947  -71.216800
  C    -70.353500   -1.073320  -69.974900
  H    -70.518400   -1.374630  -72.026600
  C    -71.198800    1.382990  -72.620800
  H    -72.261100    1.453970  -72.869100
  H    -70.950400    0.618871  -73.389900
  C    -70.418200    2.702310  -72.958400
  H    -70.665500    3.548630  -72.396600
  H    -69.360100    2.532860  -72.931500
  C    -70.742700    3.200730  -74.342200
  H    -70.122000    4.142570  -74.614800
  H    -70.447600    2.422520  -75.008800
  H    -71.760000    3.366210  -74.552200
  S    -71.123700   -3.207820  -68.416100
  C    -70.145000   -4.584830  -68.261700
  C    -69.088600   -4.543750  -69.139200
  C    -69.002600   -3.317910  -69.846600
  C    -69.992200   -2.383200  -69.487300
  H    -68.406000   -5.334090  -69.243500
  C    -67.916900   -3.140380  -70.883900
  H    -68.113800   -2.130620  -71.256200
  H    -68.165900   -3.874010  -71.617500
  C    -66.449000   -3.286590  -70.329600
  H    -66.194800   -4.267580  -70.029900
  H    -66.256200   -2.519630  -69.562500
  C    -65.461300   -3.222080  -71.396600
  H    -64.453900   -3.282620  -71.135500
  H    -65.607000   -2.238060  -71.989600
  H    -65.595900   -4.107790  -72.029200
  H    -70.908000    2.437320  -70.002600
  H    -70.324900   -5.514320  -67.797600

 Total Charge           Charge          ....    0
 Multiplicity           Mult            ....    1
 Number of Electrons    NEL             ....  134
 Basis Dimension        Dim             ....  322

ORBITAL ENERGIES
----------------

  NO   OCC          E(Eh)            E(eV)
   0   2.0000     -88.969179     -2420.9744
   1   2.0000     -88.963053     -2420.8078
   2   2.0000     -10.327632      -281.0291
   3   2.0000     -10.323637      -280.9204
   4   2.0000     -10.318934      -280.7925
   5   2.0000     -10.308788      -280.5164
   6   2.0000     -10.308294      -280.5029
   7   2.0000     -10.300101      -280.2800
   8   2.0000     -10.298546      -280.2377
   9   2.0000     -10.295002      -280.1412
  10   2.0000     -10.291643      -280.0498
  11   2.0000     -10.284696      -279.8608
  12   2.0000     -10.282490      -279.8008
  13   2.0000     -10.282413      -279.7987
  14   2.0000     -10.276940      -279.6498
  15   2.0000     -10.273960      -279.5687
  16   2.0000      -8.082937      -219.9479
  17   2.0000      -8.078442      -219.8256
  18   2.0000      -6.041524      -164.3982
  19   2.0000      -6.037534      -164.2897
  20   2.0000      -6.036882      -164.2719
  21   2.0000      -6.033709      -164.1856
  22   2.0000      -6.032760      -164.1597
  23   2.0000      -6.029308      -164.0658
  24   2.0000      -1.006952       -27.4006
  25   2.0000      -0.982479       -26.7346
  26   2.0000      -0.917056       -24.9544
  27   2.0000      -0.911282       -24.7972
  28   2.0000      -0.871607       -23.7176
  29   2.0000      -0.861459       -23.4415
  30   2.0000      -0.853716       -23.2308
  31   2.0000      -0.816675       -22.2229
  32   2.0000      -0.781095       -21.2547
  33   2.0000      -0.765523       -20.8309
  34   2.0000      -0.711370       -19.3574
  35   2.0000      -0.701475       -19.0881
  36   2.0000      -0.695516       -18.9259
  37   2.0000      -0.659530       -17.9467
  38   2.0000      -0.644542       -17.5389
  39   2.0000      -0.614477       -16.7208
  40   2.0000      -0.592495       -16.1226
  41   2.0000      -0.580666       -15.8007
  42   2.0000      -0.575290       -15.6544
  43   2.0000      -0.567364       -15.4388
  44   2.0000      -0.529081       -14.3970
  45   2.0000      -0.527734       -14.3604
  46   2.0000      -0.521477       -14.1901
  47   2.0000      -0.517928       -14.0935
  48   2.0000      -0.505466       -13.7544
  49   2.0000      -0.502058       -13.6617
  50   2.0000      -0.493714       -13.4346
  51   2.0000      -0.479835       -13.0570
  52   2.0000      -0.471735       -12.8366
  53   2.0000      -0.464376       -12.6363
  54   2.0000      -0.453410       -12.3379
  55   2.0000      -0.446101       -12.1390
  56   2.0000      -0.443089       -12.0571
  57   2.0000      -0.436405       -11.8752
  58   2.0000      -0.429209       -11.6794
  59   2.0000      -0.428500       -11.6601
  60   2.0000      -0.420653       -11.4466
  61   2.0000      -0.419476       -11.4145
  62   2.0000      -0.411652       -11.2016
  63   2.0000      -0.344225        -9.3669
  64   2.0000      -0.327074        -8.9001
  65   2.0000      -0.324846        -8.8395
  66   2.0000      -0.296146        -8.0586
  67   0.0000       0.034618         0.9420
  68   0.0000       0.057771         1.5720
  69   0.0000       0.103912         2.8276
  70   0.0000       0.119150         3.2422
  71   0.0000       0.135548         3.6884

MULLIKEN ATOMIC CHARGES
-----------------------
   0 S :    0.120952
   1 C :   -0.088429
   2 C :   -0.096338
   3 C :    0.048846
   4 C :   -0.201540
   5 H :    0.024243
   6 C :    0.019972
   7 H :    0.031837
   8 H :    0.015987
   9 C :   -0.015540
  10 H :    0.021915
  11 H :    0.034632
  12 C :   -0.075652
  13 H :    0.047932
  14 H :    0.013593
  15 H :    0.023733
  16 S :    0.121631
  17 C :   -0.046857
  18 C :   -0.043164
  19 C :   -0.042029
  20 C :   -0.164704
  21 H :   -0.005850
  22 C :    0.084734
  23 H :    0.019710
  24 H :    0.028122
  25 C :   -0.044943
  26 H :    0.013777
  27 H :    0.043685
  28 C :   -0.046908
  29 H :    0.021590
  30 H :    0.029206
  31 H :    0.019661
  32 H :    0.047125
  33 H :    0.039074
Sum of atomic charges:   -0.0000000

LOEWDIN ATOMIC CHARGES
----------------------
   0 S :    0.404314
   1 C :   -0.199446
   2 C :   -0.056922
   3 C :   -0.062545
   4 C :   -0.188869
   5 H :    0.039012
   6 C :   -0.040942
   7 H :    0.034227
   8 H :    0.033591
   9 C :   -0.034508
  10 H :    0.016559
  11 H :    0.026793
  12 C :   -0.062770
  13 H :    0.038462
  14 H :    0.016916
  15 H :    0.015938
  16 S :    0.430894
  17 C :   -0.194703
  18 C :   -0.071865
  19 C :   -0.051877
  20 C :   -0.217351
  21 H :    0.020281
  22 C :   -0.024465
  23 H :    0.030054
  24 H :    0.030664
  25 C :   -0.039286
  26 H :    0.021373
  27 H :    0.030970
  28 C :   -0.064121
  29 H :    0.016060
  30 H :    0.027339
  31 H :    0.024603
  32 H :    0.025209
  33 H :    0.026408

  Mayer bond orders larger than 0.100000
B(  0-S ,  1-C ) :   1.1397 B(  0-S ,  4-C ) :   1.1533 B(  1-C ,  2-C ) :   1.6057
B(  1-C ,  4-C ) :   0.1084 B(  1-C , 32-H ) :   0.9665 B(  2-C ,  3-C ) :   1.2320
B(  2-C ,  6-C ) :   1.0202 B(  3-C ,  4-C ) :   1.6116 B(  3-C ,  5-H ) :   0.9861
B(  4-C , 20-C ) :   1.0084 B(  6-C ,  7-H ) :   0.9295 B(  6-C ,  8-H ) :   0.9476
B(  6-C ,  9-C ) :   1.0544 B(  9-C , 10-H ) :   0.9548 B(  9-C , 11-H ) :   0.9576
B(  9-C , 12-C ) :   1.0796 B( 12-C , 13-H ) :   0.9728 B( 12-C , 14-H ) :   0.9753
B( 12-C , 15-H ) :   0.9769 B( 16-S , 17-C ) :   1.1773 B( 16-S , 20-C ) :   1.1454
B( 17-C , 18-C ) :   1.5818 B( 17-C , 33-H ) :   0.9668 B( 18-C , 19-C ) :   1.2706
B( 18-C , 21-H ) :   0.9981 B( 19-C , 20-C ) :   1.5663 B( 19-C , 22-C ) :   1.0391
B( 22-C , 23-H ) :   0.9285 B( 22-C , 24-H ) :   0.9315 B( 22-C , 25-C ) :   1.0741
B( 25-C , 26-H ) :   0.9516 B( 25-C , 27-H ) :   0.9552 B( 25-C , 28-C ) :   1.0872
B( 28-C , 29-H ) :   0.9729 B( 28-C , 30-H ) :   0.9683 B( 28-C , 31-H ) :   0.9747

Dispersion correction           -0.013362375
FINAL SINGLE POINT ENERGY     -1339.843799164630

DIPOLE MOMENT
-------------
                                X             Y             Z
Electronic contribution:    -14.73884      -7.92951      24.22758
Nuclear contribution   :     15.19972       7.79542     -24.92179
                        -----------------------------------------
Total Dipole Moment    :      0.46089      -0.13409      -0.69421
                        -----------------------------------------
Magnitude (a.u.)       :      0.84399
Magnitude (Debye)      :      2.14525

Rotational constants in cm-1:     0.018382     0.007697     0.006068
Rotational constants in MHz :   551.071123   230.764989   181.900068

                             ****ORCA TERMINATED NORMALLY****
TOTAL RUN TIME: 0 days 0 hours 0 minutes 20 seconds 917 msec
