                         Program Version 4.2.1 -  RELEASE  -
|  1> ! wB97X-D3 SP def2-SVP
|  2> %pal
|  3> nprocs 24
|  4> end
|  5>
|  6> * xyz 0 1
|  7> S 	 -54.0576 	 -1.61454 	 -33.4044
|  8> C 	 -53.9248 	 -0.0116246 	 -34.0432
|  9> C 	 -54.0204 	 0.90868 	 -32.9938
| 10> C 	 -53.8892 	 0.30376 	 -31.7068
| 11> C 	 -53.9519 	 -1.09795 	 -31.7335
| 12> H 	 -53.9254 	 0.861312 	 -30.8017
| 13> C 	 -54.1031 	 2.38386 	 -33.1126
| 14> H 	 -54.7338 	 2.73301 	 -32.2194
| 15> H 	 -54.6263 	 2.56188 	 -33.9673
| 16> C 	 -52.714 	 3.08684 	 -33.1732
| 17> H 	 -52.1025 	 2.89275 	 -32.2234
| 18> H 	 -52.1216 	 2.75913 	 -34.0108
| 19> C 	 -52.9586 	 4.61492 	 -33.1843
| 20> H 	 -53.3439 	 4.98404 	 -32.2457
| 21> H 	 -52.12 	 5.204 	 -33.3846
| 22> H 	 -53.6181 	 4.7875 	 -34.0127
| 23> S 	 -55.3597 	 -3.23749 	 -30.5969
| 24> C 	 -54.5979 	 -4.0095 	 -29.2072
| 25> C 	 -53.6553 	 -3.22783 	 -28.5973
| 26> C 	 -53.3722 	 -2.04453 	 -29.347
| 27> C 	 -54.0173 	 -2.04433 	 -30.5817
| 28> H 	 -53.1509 	 -3.57889 	 -27.6649
| 29> C 	 -52.2907 	 -1.05579 	 -28.9788
| 30> H 	 -51.954 	 -0.545216 	 -29.9018
| 31> H 	 -51.4452 	 -1.66192 	 -28.6343
| 32> C 	 -52.6748 	 0.00608612 	 -27.8882
| 33> H 	 -52.7992 	 -0.518188 	 -27.0059
| 34> H 	 -53.6009 	 0.472697 	 -28.1521
| 35> C 	 -51.7961 	 1.31897 	 -27.8006
| 36> H 	 -52.2424 	 2.06639 	 -27.2366
| 37> H 	 -51.4902 	 1.76294 	 -28.7505
| 38> H 	 -50.8896 	 1.078 	 -27.2541
| 39> H 	 -53.878 	 0.356135 	 -35.0875
| 40> H 	 -55.1333 	 -4.84417 	 -28.6858
| 41> *
| 42>
| 43>                          ****END OF INPUT****

CARTESIAN COORDINATES (ANGSTROEM)
---------------------------------
  S    -54.057600   -1.614540  -33.404400
  C    -53.924800   -0.011625  -34.043200
  C    -54.020400    0.908680  -32.993800
  C    -53.889200    0.303760  -31.706800
  C    -53.951900   -1.097950  -31.733500
  H    -53.925400    0.861312  -30.801700
  C    -54.103100    2.383860  -33.112600
  H    -54.733800    2.733010  -32.219400
  H    -54.626300    2.561880  -33.967300
  C    -52.714000    3.086840  -33.173200
  H    -52.102500    2.892750  -32.223400
  H    -52.121600    2.759130  -34.010800
  C    -52.958600    4.614920  -33.184300
  H    -53.343900    4.984040  -32.245700
  H    -52.120000    5.204000  -33.384600
  H    -53.618100    4.787500  -34.012700
  S    -55.359700   -3.237490  -30.596900
  C    -54.597900   -4.009500  -29.207200
  C    -53.655300   -3.227830  -28.597300
  C    -53.372200   -2.044530  -29.347000
  C    -54.017300   -2.044330  -30.581700
  H    -53.150900   -3.578890  -27.664900
  C    -52.290700   -1.055790  -28.978800
  H    -51.954000   -0.545216  -29.901800
  H    -51.445200   -1.661920  -28.634300
  C    -52.674800    0.006086  -27.888200
  H    -52.799200   -0.518188  -27.005900
  H    -53.600900    0.472697  -28.152100
  C    -51.796100    1.318970  -27.800600
  H    -52.242400    2.066390  -27.236600
  H    -51.490200    1.762940  -28.750500
  H    -50.889600    1.078000  -27.254100
  H    -53.878000    0.356135  -35.087500
  H    -55.133300   -4.844170  -28.685800

 Total Charge           Charge          ....    0
 Multiplicity           Mult            ....    1
 Number of Electrons    NEL             ....  134
 Basis Dimension        Dim             ....  322

ORBITAL ENERGIES
----------------

  NO   OCC          E(Eh)            E(eV)
   0   2.0000     -88.968679     -2420.9608
   1   2.0000     -88.964002     -2420.8336
   2   2.0000     -10.334482      -281.2156
   3   2.0000     -10.333491      -281.1886
   4   2.0000     -10.318850      -280.7902
   5   2.0000     -10.316320      -280.7213
   6   2.0000     -10.305803      -280.4352
   7   2.0000     -10.298724      -280.2425
   8   2.0000     -10.296892      -280.1927
   9   2.0000     -10.295096      -280.1438
  10   2.0000     -10.293325      -280.0956
  11   2.0000     -10.292234      -280.0659
  12   2.0000     -10.290106      -280.0080
  13   2.0000     -10.285628      -279.8862
  14   2.0000     -10.277393      -279.6621
  15   2.0000     -10.271450      -279.5004
  16   2.0000      -8.083110      -219.9526
  17   2.0000      -8.078202      -219.8191
  18   2.0000      -6.041728      -164.4038
  19   2.0000      -6.037500      -164.2887
  20   2.0000      -6.036655      -164.2657
  21   2.0000      -6.033911      -164.1911
  22   2.0000      -6.033122      -164.1696
  23   2.0000      -6.028703      -164.0493
  24   2.0000      -1.002776       -27.2869
  25   2.0000      -0.983311       -26.7573
  26   2.0000      -0.913281       -24.8516
  27   2.0000      -0.901844       -24.5404
  28   2.0000      -0.864740       -23.5308
  29   2.0000      -0.852011       -23.1844
  30   2.0000      -0.847446       -23.0602
  31   2.0000      -0.813861       -22.1463
  32   2.0000      -0.783051       -21.3079
  33   2.0000      -0.769921       -20.9506
  34   2.0000      -0.709832       -19.3155
  35   2.0000      -0.704277       -19.1643
  36   2.0000      -0.694216       -18.8906
  37   2.0000      -0.657559       -17.8931
  38   2.0000      -0.636044       -17.3076
  39   2.0000      -0.622096       -16.9281
  40   2.0000      -0.590464       -16.0673
  41   2.0000      -0.569787       -15.5047
  42   2.0000      -0.567778       -15.4500
  43   2.0000      -0.559407       -15.2222
  44   2.0000      -0.528818       -14.3899
  45   2.0000      -0.521023       -14.1777
  46   2.0000      -0.518420       -14.1069
  47   2.0000      -0.507774       -13.8172
  48   2.0000      -0.504516       -13.7286
  49   2.0000      -0.497761       -13.5448
  50   2.0000      -0.492564       -13.4033
  51   2.0000      -0.483551       -13.1581
  52   2.0000      -0.469371       -12.7722
  53   2.0000      -0.466656       -12.6983
  54   2.0000      -0.459682       -12.5086
  55   2.0000      -0.452075       -12.3016
  56   2.0000      -0.445764       -12.1299
  57   2.0000      -0.437509       -11.9052
  58   2.0000      -0.436081       -11.8664
  59   2.0000      -0.430138       -11.7046
  60   2.0000      -0.422853       -11.5064
  61   2.0000      -0.418883       -11.3984
  62   2.0000      -0.409534       -11.1440
  63   2.0000      -0.348773        -9.4906
  64   2.0000      -0.330649        -8.9974
  65   2.0000      -0.326845        -8.8939
  66   2.0000      -0.287736        -7.8297
  67   0.0000       0.024596         0.6693
  68   0.0000       0.068340         1.8596
  69   0.0000       0.102825         2.7980
  70   0.0000       0.117201         3.1892
  71   0.0000       0.123298         3.3551

MULLIKEN ATOMIC CHARGES
-----------------------
   0 S :    0.124779
   1 C :   -0.115305
   2 C :   -0.125083
   3 C :    0.041701
   4 C :   -0.146280
   5 H :   -0.004243
   6 C :    0.071424
   7 H :    0.040943
   8 H :   -0.003878
   9 C :   -0.090742
  10 H :    0.036906
  11 H :    0.031763
  12 C :   -0.002251
  13 H :    0.029387
  14 H :    0.016327
  15 H :    0.017308
  16 S :    0.090361
  17 C :   -0.100102
  18 C :   -0.047489
  19 C :   -0.020996
  20 C :   -0.144722
  21 H :    0.038928
  22 C :    0.034245
  23 H :    0.028376
  24 H :    0.030893
  25 C :   -0.043640
  26 H :    0.015257
  27 H :    0.022428
  28 C :   -0.035107
  29 H :    0.021672
  30 H :    0.032963
  31 H :    0.023802
  32 H :    0.057554
  33 H :    0.072820
Sum of atomic charges:    0.0000000

LOEWDIN ATOMIC CHARGES
----------------------
   0 S :    0.424775
   1 C :   -0.218850
   2 C :   -0.065008
   3 C :   -0.062055
   4 C :   -0.196624
   5 H :    0.023991
   6 C :   -0.030467
   7 H :    0.043491
   8 H :    0.014504
   9 C :   -0.032836
  10 H :    0.029501
  11 H :    0.022043
  12 C :   -0.060206
  13 H :    0.024722
  14 H :    0.016754
  15 H :    0.021530
  16 S :    0.372875
  17 C :   -0.185274
  18 C :   -0.075796
  19 C :   -0.055556
  20 C :   -0.175543
  21 H :    0.042157
  22 C :   -0.032250
  23 H :    0.032085
  24 H :    0.030791
  25 C :   -0.027933
  26 H :    0.013957
  27 H :    0.020689
  28 C :   -0.059070
  29 H :    0.017403
  30 H :    0.027024
  31 H :    0.023282
  32 H :    0.039787
  33 H :    0.036107

  Mayer bond orders larger than 0.100000
B(  0-S ,  1-C ) :   1.1438 B(  0-S ,  4-C ) :   1.1674 B(  1-C ,  2-C ) :   1.5784
B(  1-C ,  4-C ) :   0.1024 B(  1-C , 32-H ) :   0.9643 B(  2-C ,  3-C ) :   1.2751
B(  2-C ,  6-C ) :   1.0382 B(  3-C ,  4-C ) :   1.5244 B(  3-C ,  5-H ) :   0.9961
B(  4-C , 20-C ) :   1.0356 B(  6-C ,  7-H ) :   0.9428 B(  6-C ,  8-H ) :   0.9275
B(  6-C ,  9-C ) :   1.0584 B(  9-C , 10-H ) :   0.9599 B(  9-C , 11-H ) :   0.9574
B(  9-C , 12-C ) :   1.0761 B( 12-C , 13-H ) :   0.9767 B( 12-C , 14-H ) :   0.9732
B( 12-C , 15-H ) :   0.9732 B( 16-S , 17-C ) :   1.1364 B( 16-S , 20-C ) :   1.1338
B( 17-C , 18-C ) :   1.6413 B( 17-C , 33-H ) :   0.9574 B( 18-C , 19-C ) :   1.2118
B( 18-C , 21-H ) :   0.9840 B( 19-C , 20-C ) :   1.6142 B( 19-C , 22-C ) :   1.0483
B( 22-C , 23-H ) :   0.9371 B( 22-C , 24-H ) :   0.9409 B( 22-C , 25-C ) :   1.0467
B( 25-C , 26-H ) :   0.9599 B( 25-C , 27-H ) :   0.9628 B( 25-C , 28-C ) :   1.0723
B( 28-C , 29-H ) :   0.9785 B( 28-C , 30-H ) :   0.9753 B( 28-C , 31-H ) :   0.9767

Dispersion correction           -0.014069442
FINAL SINGLE POINT ENERGY     -1339.861151724290

DIPOLE MOMENT
-------------
                                X             Y             Z
Electronic contribution:    -12.79219     -29.22821      -8.57420
Nuclear contribution   :     12.99561      29.89796       8.92150
                        -----------------------------------------
Total Dipole Moment    :      0.20342       0.66975       0.34729
                        -----------------------------------------
Magnitude (a.u.)       :      0.78139
Magnitude (Debye)      :      1.98612

Rotational constants in cm-1:     0.017647     0.009046     0.006319
Rotational constants in MHz :   529.044671   271.197880   189.432532

                             ****ORCA TERMINATED NORMALLY****
TOTAL RUN TIME: 0 days 0 hours 0 minutes 21 seconds 409 msec
