                         Program Version 4.2.1 -  RELEASE  -
|  1> ! wB97X-D3 SP def2-SVP
|  2> %pal
|  3> nprocs 24
|  4> end
|  5>
|  6> * xyz 0 1
|  7> S 	 -33.9281 	 -4.58538 	 5.70408
|  8> C 	 -34.4553 	 -4.22278 	 7.28126
|  9> C 	 -35.7763 	 -4.55717 	 7.39593
| 10> C 	 -36.3813 	 -5.17413 	 6.24133
| 11> C 	 -35.5199 	 -5.21682 	 5.18781
| 12> H 	 -37.3325 	 -5.5676 	 6.17043
| 13> C 	 -36.6075 	 -4.17699 	 8.60959
| 14> H 	 -35.9688 	 -4.066 	 9.43432
| 15> H 	 -37.2056 	 -5.04999 	 8.8751
| 16> C 	 -37.502 	 -2.89137 	 8.49267
| 17> H 	 -36.9251 	 -2.01922 	 8.22501
| 18> H 	 -38.3016 	 -3.06718 	 7.80059
| 19> C 	 -38.1171 	 -2.46725 	 9.88314
| 20> H 	 -38.8903 	 -3.16431 	 10.1918
| 21> H 	 -37.401 	 -2.35528 	 10.6736
| 22> H 	 -38.5899 	 -1.514 	 9.76843
| 23> S 	 -34.4508 	 -6.49207 	 3.03557
| 24> C 	 -35.3431 	 -6.64625 	 1.61251
| 25> C 	 -36.6459 	 -6.29057 	 1.77239
| 26> C 	 -36.9068 	 -5.6908 	 3.04044
| 27> C 	 -35.7861 	 -5.76402 	 3.83456
| 28> H 	 -37.4804 	 -6.41179 	 1.03875
| 29> C 	 -38.2786 	 -5.18592 	 3.35864
| 30> H 	 -38.1637 	 -4.36999 	 3.99761
| 31> H 	 -38.6286 	 -5.88205 	 4.14758
| 32> C 	 -39.1644 	 -4.70669 	 2.19883
| 33> H 	 -39.6181 	 -5.50271 	 1.57814
| 34> H 	 -38.4874 	 -4.21222 	 1.51352
| 35> C 	 -40.2431 	 -3.7437 	 2.57619
| 36> H 	 -39.9183 	 -2.87389 	 3.13848
| 37> H 	 -41.0836 	 -4.14675 	 3.08039
| 38> H 	 -40.6883 	 -3.41485 	 1.59604
| 39> H 	 -33.9235 	 -3.86349 	 8.12521
| 40> H 	 -34.9616 	 -6.83368 	 0.652918
| 41> *
| 42>
| 43>                          ****END OF INPUT****

CARTESIAN COORDINATES (ANGSTROEM)
---------------------------------
  S    -33.928100   -4.585380    5.704080
  C    -34.455300   -4.222780    7.281260
  C    -35.776300   -4.557170    7.395930
  C    -36.381300   -5.174130    6.241330
  C    -35.519900   -5.216820    5.187810
  H    -37.332500   -5.567600    6.170430
  C    -36.607500   -4.176990    8.609590
  H    -35.968800   -4.066000    9.434320
  H    -37.205600   -5.049990    8.875100
  C    -37.502000   -2.891370    8.492670
  H    -36.925100   -2.019220    8.225010
  H    -38.301600   -3.067180    7.800590
  C    -38.117100   -2.467250    9.883140
  H    -38.890300   -3.164310   10.191800
  H    -37.401000   -2.355280   10.673600
  H    -38.589900   -1.514000    9.768430
  S    -34.450800   -6.492070    3.035570
  C    -35.343100   -6.646250    1.612510
  C    -36.645900   -6.290570    1.772390
  C    -36.906800   -5.690800    3.040440
  C    -35.786100   -5.764020    3.834560
  H    -37.480400   -6.411790    1.038750
  C    -38.278600   -5.185920    3.358640
  H    -38.163700   -4.369990    3.997610
  H    -38.628600   -5.882050    4.147580
  C    -39.164400   -4.706690    2.198830
  H    -39.618100   -5.502710    1.578140
  H    -38.487400   -4.212220    1.513520
  C    -40.243100   -3.743700    2.576190
  H    -39.918300   -2.873890    3.138480
  H    -41.083600   -4.146750    3.080390
  H    -40.688300   -3.414850    1.596040
  H    -33.923500   -3.863490    8.125210
  H    -34.961600   -6.833680    0.652918

 Total Charge           Charge          ....    0
 Multiplicity           Mult            ....    1
 Number of Electrons    NEL             ....  134
 Basis Dimension        Dim             ....  322

ORBITAL ENERGIES
----------------

  NO   OCC          E(Eh)            E(eV)
   0   2.0000     -88.964408     -2420.8446
   1   2.0000     -88.962677     -2420.7975
   2   2.0000     -10.330691      -281.1124
   3   2.0000     -10.321423      -280.8602
   4   2.0000     -10.306174      -280.4452
   5   2.0000     -10.305613      -280.4300
   6   2.0000     -10.298742      -280.2430
   7   2.0000     -10.295211      -280.1469
   8   2.0000     -10.292891      -280.0838
   9   2.0000     -10.289622      -279.9949
  10   2.0000     -10.289612      -279.9946
  11   2.0000     -10.288391      -279.9613
  12   2.0000     -10.286557      -279.9114
  13   2.0000     -10.285516      -279.8831
  14   2.0000     -10.279308      -279.7142
  15   2.0000     -10.275503      -279.6106
  16   2.0000      -8.081028      -219.8959
  17   2.0000      -8.077587      -219.8023
  18   2.0000      -6.039423      -164.3411
  19   2.0000      -6.036174      -164.2526
  20   2.0000      -6.035267      -164.2280
  21   2.0000      -6.032043      -164.1402
  22   2.0000      -6.031797      -164.1335
  23   2.0000      -6.028262      -164.0373
  24   2.0000      -1.014797       -27.6140
  25   2.0000      -0.991748       -26.9868
  26   2.0000      -0.919553       -25.0223
  27   2.0000      -0.902233       -24.5510
  28   2.0000      -0.872691       -23.7471
  29   2.0000      -0.860868       -23.4254
  30   2.0000      -0.846044       -23.0220
  31   2.0000      -0.820534       -22.3279
  32   2.0000      -0.787200       -21.4208
  33   2.0000      -0.769674       -20.9439
  34   2.0000      -0.715486       -19.4694
  35   2.0000      -0.704642       -19.1743
  36   2.0000      -0.698371       -19.0036
  37   2.0000      -0.658042       -17.9062
  38   2.0000      -0.644899       -17.5486
  39   2.0000      -0.623905       -16.9773
  40   2.0000      -0.604665       -16.4538
  41   2.0000      -0.571480       -15.5508
  42   2.0000      -0.567467       -15.4416
  43   2.0000      -0.558738       -15.2040
  44   2.0000      -0.533959       -14.5298
  45   2.0000      -0.520444       -14.1620
  46   2.0000      -0.517145       -14.0722
  47   2.0000      -0.514294       -13.9947
  48   2.0000      -0.509544       -13.8654
  49   2.0000      -0.506206       -13.7746
  50   2.0000      -0.491023       -13.3614
  51   2.0000      -0.482739       -13.1360
  52   2.0000      -0.479190       -13.0394
  53   2.0000      -0.469962       -12.7883
  54   2.0000      -0.461051       -12.5458
  55   2.0000      -0.457350       -12.4451
  56   2.0000      -0.442126       -12.0309
  57   2.0000      -0.436462       -11.8767
  58   2.0000      -0.433133       -11.7861
  59   2.0000      -0.428568       -11.6619
  60   2.0000      -0.425926       -11.5900
  61   2.0000      -0.422362       -11.4931
  62   2.0000      -0.408092       -11.1047
  63   2.0000      -0.355893        -9.6843
  64   2.0000      -0.330374        -8.9899
  65   2.0000      -0.324698        -8.8355
  66   2.0000      -0.288908        -7.8616
  67   0.0000       0.030327         0.8252
  68   0.0000       0.088029         2.3954
  69   0.0000       0.112665         3.0658
  70   0.0000       0.129059         3.5119
  71   0.0000       0.134813         3.6685

MULLIKEN ATOMIC CHARGES
-----------------------
   0 S :    0.102397
   1 C :   -0.085572
   2 C :   -0.106462
   3 C :    0.033849
   4 C :   -0.107661
   5 H :   -0.025736
   6 C :    0.084670
   7 H :   -0.010609
   8 H :    0.019400
   9 C :   -0.053193
  10 H :    0.031588
  11 H :    0.027280
  12 C :   -0.054905
  13 H :    0.029335
  14 H :    0.028005
  15 H :    0.027836
  16 S :    0.124737
  17 C :   -0.056886
  18 C :   -0.057486
  19 C :   -0.089036
  20 C :   -0.164015
  21 H :    0.029626
  22 C :    0.116387
  23 H :   -0.008218
  24 H :    0.041729
  25 C :   -0.078920
  26 H :    0.037218
  27 H :    0.034179
  28 C :   -0.033405
  29 H :    0.036936
  30 H :    0.025328
  31 H :    0.030502
  32 H :    0.033430
  33 H :    0.037675
Sum of atomic charges:    0.0000000

LOEWDIN ATOMIC CHARGES
----------------------
   0 S :    0.399066
   1 C :   -0.208565
   2 C :   -0.063376
   3 C :   -0.061142
   4 C :   -0.170916
   5 H :    0.017939
   6 C :   -0.031664
   7 H :    0.017030
   8 H :    0.029179
   9 C :   -0.027352
  10 H :    0.024369
  11 H :    0.019851
  12 C :   -0.062416
  13 H :    0.022472
  14 H :    0.020264
  15 H :    0.023722
  16 S :    0.445902
  17 C :   -0.198774
  18 C :   -0.077265
  19 C :   -0.053410
  20 C :   -0.212819
  21 H :    0.037409
  22 C :   -0.040884
  23 H :    0.025590
  24 H :    0.040745
  25 C :   -0.042482
  26 H :    0.027506
  27 H :    0.029951
  28 C :   -0.062013
  29 H :    0.025303
  30 H :    0.019466
  31 H :    0.036130
  32 H :    0.029120
  33 H :    0.022065

  Mayer bond orders larger than 0.100000
B(  0-S ,  1-C ) :   1.1257 B(  0-S ,  4-C ) :   1.1387 B(  1-C ,  2-C ) :   1.6283
B(  1-C , 32-H ) :   0.9707 B(  2-C ,  3-C ) :   1.2156 B(  2-C ,  6-C ) :   1.0411
B(  3-C ,  4-C ) :   1.5771 B(  3-C ,  5-H ) :   1.0126 B(  4-C , 20-C ) :   1.0427
B(  6-C ,  7-H ) :   0.9378 B(  6-C ,  8-H ) :   0.9367 B(  6-C ,  9-C ) :   1.0574
B(  9-C , 10-H ) :   0.9604 B(  9-C , 11-H ) :   0.9579 B(  9-C , 12-C ) :   1.0793
B( 12-C , 13-H ) :   0.9783 B( 12-C , 14-H ) :   0.9775 B( 12-C , 15-H ) :   0.9762
B( 16-S , 17-C ) :   1.1731 B( 16-S , 20-C ) :   1.1473 B( 17-C , 18-C ) :   1.5783
B( 17-C , 33-H ) :   0.9696 B( 18-C , 19-C ) :   1.2808 B( 18-C , 21-H ) :   0.9772
B( 19-C , 20-C ) :   1.5880 B( 19-C , 22-C ) :   1.0435 B( 22-C , 23-H ) :   0.9102
B( 22-C , 24-H ) :   0.9134 B( 22-C , 25-C ) :   1.0506 B( 25-C , 26-H ) :   0.9432
B( 25-C , 27-H ) :   0.9546 B( 25-C , 28-C ) :   1.1045 B( 28-C , 29-H ) :   0.9715
B( 28-C , 30-H ) :   0.9734 B( 28-C , 31-H ) :   0.9691

Dispersion correction           -0.013355979
FINAL SINGLE POINT ENERGY     -1339.872841045536

DIPOLE MOMENT
-------------
                                X             Y             Z
Electronic contribution:     27.83936     -13.12393     -10.18678
Nuclear contribution   :    -28.59314      13.36947      10.26433
                        -----------------------------------------
Total Dipole Moment    :     -0.75379       0.24554       0.07755
                        -----------------------------------------
Magnitude (a.u.)       :      0.79655
Magnitude (Debye)      :      2.02468

Rotational constants in cm-1:     0.016817     0.008829     0.006035
Rotational constants in MHz :   504.149700   264.701550   180.928875

                             ****ORCA TERMINATED NORMALLY****
TOTAL RUN TIME: 0 days 0 hours 0 minutes 21 seconds 174 msec
