                         Program Version 4.2.1 -  RELEASE  -
|  1> ! wB97X-D3 SP def2-SVP
|  2> %pal
|  3> nprocs 24
|  4> end
|  5>
|  6> * xyz 0 1
|  7> S 	 -31.5885 	 -27.5178 	 -97.4364
|  8> C 	 -33.2106 	 -26.9044 	 -97.463
|  9> C 	 -33.7684 	 -27.0444 	 -96.2401
| 10> C 	 -32.915 	 -27.6782 	 -95.2672
| 11> C 	 -31.6492 	 -27.9506 	 -95.73
| 12> H 	 -33.1366 	 -27.8197 	 -94.2034
| 13> C 	 -35.2275 	 -26.6339 	 -95.8697
| 14> H 	 -35.502 	 -25.6682 	 -96.3611
| 15> H 	 -35.1998 	 -26.4329 	 -94.8079
| 16> C 	 -36.3725 	 -27.6352 	 -96.1617
| 17> H 	 -36.5205 	 -28.4107 	 -95.3676
| 18> H 	 -37.2316 	 -26.9458 	 -96.0436
| 19> C 	 -36.279 	 -28.3618 	 -97.5239
| 20> H 	 -36.969 	 -29.2163 	 -97.666
| 21> H 	 -36.3312 	 -27.7023 	 -98.3888
| 22> H 	 -35.3168 	 -28.8981 	 -97.6214
| 23> S 	 -30.1062 	 -30.036 	 -94.7196
| 24> C 	 -28.7977 	 -29.6608 	 -93.6091
| 25> C 	 -28.5859 	 -28.316 	 -93.4618
| 26> C 	 -29.4825 	 -27.546 	 -94.2017
| 27> C 	 -30.3914 	 -28.2888 	 -95.0162
| 28> H 	 -27.812 	 -27.9906 	 -92.8809
| 29> C 	 -29.5855 	 -26.0516 	 -93.9089
| 30> H 	 -29.6401 	 -25.4452 	 -94.818
| 31> H 	 -28.7674 	 -25.6953 	 -93.3084
| 32> C 	 -30.6866 	 -25.6499 	 -92.8829
| 33> H 	 -30.5162 	 -26.1233 	 -91.9516
| 34> H 	 -31.6595 	 -26.0183 	 -93.225
| 35> C 	 -31.0073 	 -24.2172 	 -92.6422
| 36> H 	 -31.7818 	 -24.046 	 -91.8989
| 37> H 	 -31.1625 	 -23.7823 	 -93.6187
| 38> H 	 -30.0684 	 -23.7826 	 -92.204
| 39> H 	 -33.5613 	 -26.424 	 -98.371
| 40> H 	 -28.3157 	 -30.4126 	 -93.0151
| 41> *
| 42>
| 43>                          ****END OF INPUT****

CARTESIAN COORDINATES (ANGSTROEM)
---------------------------------
  S    -31.588500  -27.517800  -97.436400
  C    -33.210600  -26.904400  -97.463000
  C    -33.768400  -27.044400  -96.240100
  C    -32.915000  -27.678200  -95.267200
  C    -31.649200  -27.950600  -95.730000
  H    -33.136600  -27.819700  -94.203400
  C    -35.227500  -26.633900  -95.869700
  H    -35.502000  -25.668200  -96.361100
  H    -35.199800  -26.432900  -94.807900
  C    -36.372500  -27.635200  -96.161700
  H    -36.520500  -28.410700  -95.367600
  H    -37.231600  -26.945800  -96.043600
  C    -36.279000  -28.361800  -97.523900
  H    -36.969000  -29.216300  -97.666000
  H    -36.331200  -27.702300  -98.388800
  H    -35.316800  -28.898100  -97.621400
  S    -30.106200  -30.036000  -94.719600
  C    -28.797700  -29.660800  -93.609100
  C    -28.585900  -28.316000  -93.461800
  C    -29.482500  -27.546000  -94.201700
  C    -30.391400  -28.288800  -95.016200
  H    -27.812000  -27.990600  -92.880900
  C    -29.585500  -26.051600  -93.908900
  H    -29.640100  -25.445200  -94.818000
  H    -28.767400  -25.695300  -93.308400
  C    -30.686600  -25.649900  -92.882900
  H    -30.516200  -26.123300  -91.951600
  H    -31.659500  -26.018300  -93.225000
  C    -31.007300  -24.217200  -92.642200
  H    -31.781800  -24.046000  -91.898900
  H    -31.162500  -23.782300  -93.618700
  H    -30.068400  -23.782600  -92.204000
  H    -33.561300  -26.424000  -98.371000
  H    -28.315700  -30.412600  -93.015100

 Total Charge           Charge          ....    0
 Multiplicity           Mult            ....    1
 Number of Electrons    NEL             ....  134
 Basis Dimension        Dim             ....  322

ORBITAL ENERGIES
----------------

  NO   OCC          E(Eh)            E(eV)
   0   2.0000     -88.967040     -2420.9162
   1   2.0000     -88.959028     -2420.6982
   2   2.0000     -10.335259      -281.2367
   3   2.0000     -10.331948      -281.1466
   4   2.0000     -10.318370      -280.7771
   5   2.0000     -10.313520      -280.6451
   6   2.0000     -10.310846      -280.5724
   7   2.0000     -10.301815      -280.3266
   8   2.0000     -10.298377      -280.2331
   9   2.0000     -10.297095      -280.1982
  10   2.0000     -10.294395      -280.1247
  11   2.0000     -10.291873      -280.0561
  12   2.0000     -10.286598      -279.9126
  13   2.0000     -10.279136      -279.7095
  14   2.0000     -10.276218      -279.6301
  15   2.0000     -10.275304      -279.6052
  16   2.0000      -8.081004      -219.8953
  17   2.0000      -8.074436      -219.7166
  18   2.0000      -6.039337      -164.3387
  19   2.0000      -6.035572      -164.2363
  20   2.0000      -6.032875      -164.1629
  21   2.0000      -6.032029      -164.1399
  22   2.0000      -6.028711      -164.0496
  23   2.0000      -6.025351      -163.9581
  24   2.0000      -1.003424       -27.3046
  25   2.0000      -0.985012       -26.8035
  26   2.0000      -0.909827       -24.7576
  27   2.0000      -0.902782       -24.5659
  28   2.0000      -0.868572       -23.6350
  29   2.0000      -0.854584       -23.2544
  30   2.0000      -0.840926       -22.8827
  31   2.0000      -0.816113       -22.2076
  32   2.0000      -0.784203       -21.3392
  33   2.0000      -0.773146       -21.0384
  34   2.0000      -0.704047       -19.1581
  35   2.0000      -0.693235       -18.8639
  36   2.0000      -0.685175       -18.6446
  37   2.0000      -0.665806       -18.1175
  38   2.0000      -0.647845       -17.6288
  39   2.0000      -0.617221       -16.7954
  40   2.0000      -0.599581       -16.3154
  41   2.0000      -0.574931       -15.6447
  42   2.0000      -0.564435       -15.3591
  43   2.0000      -0.549678       -14.9575
  44   2.0000      -0.534082       -14.5331
  45   2.0000      -0.529737       -14.4149
  46   2.0000      -0.520156       -14.1542
  47   2.0000      -0.515015       -14.0143
  48   2.0000      -0.505524       -13.7560
  49   2.0000      -0.497360       -13.5339
  50   2.0000      -0.487522       -13.2662
  51   2.0000      -0.479105       -13.0371
  52   2.0000      -0.473055       -12.8725
  53   2.0000      -0.463633       -12.6161
  54   2.0000      -0.461687       -12.5632
  55   2.0000      -0.446617       -12.1531
  56   2.0000      -0.442151       -12.0315
  57   2.0000      -0.435660       -11.8549
  58   2.0000      -0.431643       -11.7456
  59   2.0000      -0.426698       -11.6111
  60   2.0000      -0.415853       -11.3159
  61   2.0000      -0.405716       -11.0401
  62   2.0000      -0.396436       -10.7876
  63   2.0000      -0.339917        -9.2496
  64   2.0000      -0.330331        -8.9888
  65   2.0000      -0.320260        -8.7147
  66   2.0000      -0.311903        -8.4873
  67   0.0000       0.038717         1.0535
  68   0.0000       0.050275         1.3681
  69   0.0000       0.114662         3.1201
  70   0.0000       0.121231         3.2989
  71   0.0000       0.129122         3.5136

MULLIKEN ATOMIC CHARGES
-----------------------
   0 S :    0.092287
   1 C :   -0.132009
   2 C :   -0.098470
   3 C :    0.063138
   4 C :   -0.170015
   5 H :    0.026157
   6 C :    0.057769
   7 H :    0.034210
   8 H :    0.019438
   9 C :   -0.069241
  10 H :    0.035616
  11 H :    0.033933
  12 C :   -0.069729
  13 H :    0.036391
  14 H :    0.028288
  15 H :    0.045778
  16 S :    0.101976
  17 C :   -0.084653
  18 C :   -0.004659
  19 C :    0.011101
  20 C :   -0.175897
  21 H :   -0.012448
  22 C :    0.082141
  23 H :    0.034106
  24 H :    0.005501
  25 C :   -0.081723
  26 H :    0.010198
  27 H :    0.007539
  28 C :   -0.030667
  29 H :    0.043372
  30 H :    0.032864
  31 H :    0.015794
  32 H :    0.057388
  33 H :    0.054527
Sum of atomic charges:    0.0000000

LOEWDIN ATOMIC CHARGES
----------------------
   0 S :    0.403276
   1 C :   -0.191314
   2 C :   -0.074512
   3 C :   -0.058569
   4 C :   -0.200319
   5 H :    0.035317
   6 C :   -0.031657
   7 H :    0.033315
   8 H :    0.028661
   9 C :   -0.045103
  10 H :    0.027396
  11 H :    0.028207
  12 C :   -0.076850
  13 H :    0.029974
  14 H :    0.021195
  15 H :    0.032282
  16 S :    0.397239
  17 C :   -0.167350
  18 C :   -0.066222
  19 C :   -0.040102
  20 C :   -0.198969
  21 H :    0.020709
  22 C :   -0.027030
  23 H :    0.031953
  24 H :    0.027223
  25 C :   -0.043889
  26 H :    0.014618
  27 H :    0.016920
  28 C :   -0.060418
  29 H :    0.030174
  30 H :    0.025176
  31 H :    0.021680
  32 H :    0.030874
  33 H :    0.026115

  Mayer bond orders larger than 0.100000
B(  0-S ,  1-C ) :   1.1480 B(  0-S ,  4-C ) :   1.1600 B(  1-C ,  2-C ) :   1.6014
B(  1-C , 32-H ) :   0.9783 B(  2-C ,  3-C ) :   1.2344 B(  2-C ,  6-C ) :   1.0139
B(  3-C ,  4-C ) :   1.5962 B(  3-C ,  5-H ) :   0.9897 B(  4-C , 20-C ) :   0.9889
B(  6-C ,  7-H ) :   0.9508 B(  6-C ,  8-H ) :   0.9394 B(  6-C ,  9-C ) :   1.0612
B(  9-C , 10-H ) :   0.9576 B(  9-C , 11-H ) :   0.9583 B(  9-C , 12-C ) :   1.0776
B( 12-C , 13-H ) :   0.9755 B( 12-C , 14-H ) :   0.9770 B( 12-C , 15-H ) :   0.9664
B( 16-S , 17-C ) :   1.1800 B( 16-S , 20-C ) :   1.1453 B( 17-C , 18-C ) :   1.5797
B( 17-C , 20-C ) :   0.1078 B( 17-C , 33-H ) :   0.9656 B( 18-C , 19-C ) :   1.2682
B( 18-C , 21-H ) :   1.0094 B( 19-C , 20-C ) :   1.5660 B( 19-C , 22-C ) :   1.0580
B( 22-C , 23-H ) :   0.9338 B( 22-C , 24-H ) :   0.9368 B( 22-C , 25-C ) :   1.0471
B( 25-C , 26-H ) :   0.9552 B( 25-C , 27-H ) :   0.9505 B( 25-C , 28-C ) :   1.0923
B( 28-C , 29-H ) :   0.9705 B( 28-C , 30-H ) :   0.9730 B( 28-C , 31-H ) :   0.9728

Dispersion correction           -0.014894458
FINAL SINGLE POINT ENERGY     -1339.869161633170

DIPOLE MOMENT
-------------
                                X             Y             Z
Electronic contribution:     16.55293     -15.10017      -7.87207
Nuclear contribution   :    -16.81096      15.45312       8.38839
                        -----------------------------------------
Total Dipole Moment    :     -0.25802       0.35295       0.51632
                        -----------------------------------------
Magnitude (a.u.)       :      0.67656
Magnitude (Debye)      :      1.71969

Rotational constants in cm-1:     0.019166     0.008523     0.007024
Rotational constants in MHz :   574.581681   255.524930   210.568314

                             ****ORCA TERMINATED NORMALLY****
TOTAL RUN TIME: 0 days 0 hours 0 minutes 21 seconds 646 msec
