                         Program Version 4.2.1 -  RELEASE  -
|  1> ! wB97X-D3 SP def2-SVP
|  2> %pal
|  3> nprocs 24
|  4> end
|  5>
|  6> * xyz 0 1
|  7> S 	 -56.8786 	 -3.15624 	 -19.2637
|  8> C 	 -57.116 	 -2.48659 	 -17.6772
|  9> C 	 -57.5226 	 -3.44688 	 -16.8001
| 10> C 	 -57.7797 	 -4.66785 	 -17.4539
| 11> C 	 -57.4466 	 -4.68219 	 -18.7979
| 12> H 	 -58.1527 	 -5.59588 	 -17.0156
| 13> C 	 -57.7891 	 -3.083 	 -15.2856
| 14> H 	 -57.4904 	 -1.99806 	 -15.1355
| 15> H 	 -57.1566 	 -3.7391 	 -14.6758
| 16> C 	 -59.225 	 -3.28876 	 -14.8962
| 17> H 	 -59.9133 	 -2.88144 	 -15.7645
| 18> H 	 -59.38 	 -4.34518 	 -14.8511
| 19> C 	 -59.4417 	 -2.57354 	 -13.5744
| 20> H 	 -60.3864 	 -2.74656 	 -13.1685
| 21> H 	 -58.7676 	 -3.09604 	 -12.9686
| 22> H 	 -59.2334 	 -1.48782 	 -13.7169
| 23> S 	 -56.2633 	 -6.71282 	 -20.2561
| 24> C 	 -57.312 	 -7.92422 	 -20.919
| 25> C 	 -58.5319 	 -7.37945 	 -21.1235
| 26> C 	 -58.7924 	 -6.18956 	 -20.3159
| 27> C 	 -57.6537 	 -5.72044 	 -19.7731
| 28> H 	 -59.2956 	 -7.9704 	 -21.5738
| 29> C 	 -60.2327 	 -5.60178 	 -20.1271
| 30> H 	 -60.9175 	 -5.858 	 -20.9564
| 31> H 	 -60.3462 	 -4.43975 	 -20.0996
| 32> C 	 -60.9079 	 -6.15785 	 -18.8668
| 33> H 	 -61.9138 	 -5.74634 	 -18.6468
| 34> H 	 -60.2847 	 -5.89432 	 -17.9944
| 35> C 	 -60.944 	 -7.71354 	 -18.9457
| 36> H 	 -61.3449 	 -8.1121 	 -17.9339
| 37> H 	 -59.9609 	 -8.18962 	 -19.0947
| 38> H 	 -61.6709 	 -8.00028 	 -19.683
| 39> H 	 -56.7047 	 -1.53469 	 -17.3863
| 40> H 	 -56.9758 	 -8.81032 	 -21.3914
| 41> *
| 42>
| 43>                          ****END OF INPUT****

CARTESIAN COORDINATES (ANGSTROEM)
---------------------------------
  S    -56.878600   -3.156240  -19.263700
  C    -57.116000   -2.486590  -17.677200
  C    -57.522600   -3.446880  -16.800100
  C    -57.779700   -4.667850  -17.453900
  C    -57.446600   -4.682190  -18.797900
  H    -58.152700   -5.595880  -17.015600
  C    -57.789100   -3.083000  -15.285600
  H    -57.490400   -1.998060  -15.135500
  H    -57.156600   -3.739100  -14.675800
  C    -59.225000   -3.288760  -14.896200
  H    -59.913300   -2.881440  -15.764500
  H    -59.380000   -4.345180  -14.851100
  C    -59.441700   -2.573540  -13.574400
  H    -60.386400   -2.746560  -13.168500
  H    -58.767600   -3.096040  -12.968600
  H    -59.233400   -1.487820  -13.716900
  S    -56.263300   -6.712820  -20.256100
  C    -57.312000   -7.924220  -20.919000
  C    -58.531900   -7.379450  -21.123500
  C    -58.792400   -6.189560  -20.315900
  C    -57.653700   -5.720440  -19.773100
  H    -59.295600   -7.970400  -21.573800
  C    -60.232700   -5.601780  -20.127100
  H    -60.917500   -5.858000  -20.956400
  H    -60.346200   -4.439750  -20.099600
  C    -60.907900   -6.157850  -18.866800
  H    -61.913800   -5.746340  -18.646800
  H    -60.284700   -5.894320  -17.994400
  C    -60.944000   -7.713540  -18.945700
  H    -61.344900   -8.112100  -17.933900
  H    -59.960900   -8.189620  -19.094700
  H    -61.670900   -8.000280  -19.683000
  H    -56.704700   -1.534690  -17.386300
  H    -56.975800   -8.810320  -21.391400

 Total Charge           Charge          ....    0
 Multiplicity           Mult            ....    1
 Number of Electrons    NEL             ....  134
 Basis Dimension        Dim             ....  322

ORBITAL ENERGIES
----------------

  NO   OCC          E(Eh)            E(eV)
   0   2.0000     -88.961895     -2420.7762
   1   2.0000     -88.960233     -2420.7310
   2   2.0000     -10.323099      -280.9058
   3   2.0000     -10.322320      -280.8846
   4   2.0000     -10.314495      -280.6717
   5   2.0000     -10.309151      -280.5263
   6   2.0000     -10.307227      -280.4739
   7   2.0000     -10.304350      -280.3956
   8   2.0000     -10.299622      -280.2670
   9   2.0000     -10.299354      -280.2597
  10   2.0000     -10.293257      -280.0938
  11   2.0000     -10.292905      -280.0842
  12   2.0000     -10.288182      -279.9557
  13   2.0000     -10.288003      -279.9508
  14   2.0000     -10.280152      -279.7371
  15   2.0000     -10.272940      -279.5409
  16   2.0000      -8.078111      -219.8166
  17   2.0000      -8.075645      -219.7495
  18   2.0000      -6.036419      -164.2593
  19   2.0000      -6.034264      -164.2007
  20   2.0000      -6.032249      -164.1458
  21   2.0000      -6.030236      -164.0911
  22   2.0000      -6.029162      -164.0618
  23   2.0000      -6.026042      -163.9769
  24   2.0000      -1.015150       -27.6236
  25   2.0000      -0.991922       -26.9916
  26   2.0000      -0.918953       -25.0060
  27   2.0000      -0.903910       -24.5966
  28   2.0000      -0.877613       -23.8811
  29   2.0000      -0.848087       -23.0776
  30   2.0000      -0.838198       -22.8085
  31   2.0000      -0.816964       -22.2307
  32   2.0000      -0.781831       -21.2747
  33   2.0000      -0.772764       -21.0280
  34   2.0000      -0.709966       -19.3192
  35   2.0000      -0.690087       -18.7782
  36   2.0000      -0.682526       -18.5725
  37   2.0000      -0.663580       -18.0569
  38   2.0000      -0.647520       -17.6199
  39   2.0000      -0.617017       -16.7899
  40   2.0000      -0.596803       -16.2398
  41   2.0000      -0.579304       -15.7637
  42   2.0000      -0.568046       -15.4573
  43   2.0000      -0.552790       -15.0422
  44   2.0000      -0.539187       -14.6720
  45   2.0000      -0.528358       -14.3774
  46   2.0000      -0.516826       -14.0635
  47   2.0000      -0.508053       -13.8248
  48   2.0000      -0.504055       -13.7160
  49   2.0000      -0.495846       -13.4926
  50   2.0000      -0.488188       -13.2843
  51   2.0000      -0.482707       -13.1351
  52   2.0000      -0.475597       -12.9417
  53   2.0000      -0.467989       -12.7346
  54   2.0000      -0.457394       -12.4463
  55   2.0000      -0.443345       -12.0640
  56   2.0000      -0.441197       -12.0056
  57   2.0000      -0.437554       -11.9064
  58   2.0000      -0.427057       -11.6208
  59   2.0000      -0.424887       -11.5618
  60   2.0000      -0.417557       -11.3623
  61   2.0000      -0.411729       -11.2037
  62   2.0000      -0.409567       -11.1449
  63   2.0000      -0.335328        -9.1247
  64   2.0000      -0.333807        -9.0833
  65   2.0000      -0.326609        -8.8875
  66   2.0000      -0.311924        -8.4879
  67   0.0000       0.047811         1.3010
  68   0.0000       0.053931         1.4675
  69   0.0000       0.109668         2.9842
  70   0.0000       0.126908         3.4534
  71   0.0000       0.135528         3.6879

MULLIKEN ATOMIC CHARGES
-----------------------
   0 S :    0.117085
   1 C :   -0.128939
   2 C :   -0.077079
   3 C :    0.034550
   4 C :   -0.171561
   5 H :    0.017825
   6 C :    0.051180
   7 H :    0.024191
   8 H :    0.036061
   9 C :   -0.128576
  10 H :    0.047600
  11 H :    0.027270
  12 C :    0.019081
  13 H :    0.019553
  14 H :    0.011625
  15 H :    0.046344
  16 S :    0.099458
  17 C :   -0.083269
  18 C :   -0.009828
  19 C :   -0.027698
  20 C :   -0.174572
  21 H :    0.016031
  22 C :    0.043596
  23 H :    0.024648
  24 H :    0.054960
  25 C :   -0.071635
  26 H :    0.036346
  27 H :    0.021226
  28 C :   -0.099317
  29 H :    0.034865
  30 H :    0.063044
  31 H :    0.027769
  32 H :    0.046980
  33 H :    0.051186
Sum of atomic charges:    0.0000000

LOEWDIN ATOMIC CHARGES
----------------------
   0 S :    0.437604
   1 C :   -0.203569
   2 C :   -0.064095
   3 C :   -0.066493
   4 C :   -0.213256
   5 H :    0.030765
   6 C :   -0.025458
   7 H :    0.031572
   8 H :    0.029568
   9 C :   -0.048190
  10 H :    0.031519
  11 H :    0.017813
  12 C :   -0.053041
  13 H :    0.017020
  14 H :    0.021036
  15 H :    0.034204
  16 S :    0.389261
  17 C :   -0.174513
  18 C :   -0.066108
  19 C :   -0.046113
  20 C :   -0.194413
  21 H :    0.024787
  22 C :   -0.038357
  23 H :    0.029061
  24 H :    0.043101
  25 C :   -0.045119
  26 H :    0.026842
  27 H :    0.020143
  28 C :   -0.074427
  29 H :    0.031599
  30 H :    0.029817
  31 H :    0.017506
  32 H :    0.024798
  33 H :    0.025137

  Mayer bond orders larger than 0.100000
B(  0-S ,  1-C ) :   1.1519 B(  0-S ,  4-C ) :   1.1900 B(  1-C ,  2-C ) :   1.6100
B(  1-C ,  4-C ) :   0.1043 B(  1-C , 32-H ) :   0.9652 B(  2-C ,  3-C ) :   1.2545
B(  2-C ,  6-C ) :   1.0050 B(  3-C ,  4-C ) :   1.5734 B(  3-C ,  5-H ) :   0.9907
B(  4-C , 20-C ) :   0.9930 B(  6-C ,  7-H ) :   0.9508 B(  6-C ,  8-H ) :   0.9332
B(  6-C ,  9-C ) :   1.0555 B(  9-C , 10-H ) :   0.9586 B(  9-C , 11-H ) :   0.9515
B(  9-C , 12-C ) :   1.0768 B( 12-C , 13-H ) :   0.9714 B( 12-C , 14-H ) :   0.9677
B( 12-C , 15-H ) :   0.9762 B( 16-S , 17-C ) :   1.1456 B( 16-S , 20-C ) :   1.1217
B( 17-C , 18-C ) :   1.6531 B( 17-C , 33-H ) :   0.9690 B( 18-C , 19-C ) :   1.1934
B( 18-C , 21-H ) :   0.9825 B( 19-C , 20-C ) :   1.6845 B( 19-C , 22-C ) :   1.0246
B( 22-C , 23-H ) :   0.9439 B( 22-C , 24-H ) :   0.9427 B( 22-C , 25-C ) :   1.0631
B( 25-C , 26-H ) :   0.9562 B( 25-C , 27-H ) :   0.9544 B( 25-C , 28-C ) :   1.0701
B( 28-C , 29-H ) :   0.9730 B( 28-C , 30-H ) :   0.9685 B( 28-C , 31-H ) :   0.9771

Dispersion correction           -0.015196981
FINAL SINGLE POINT ENERGY     -1339.867472415276

DIPOLE MOMENT
-------------
                                X             Y             Z
Electronic contribution:     21.26306      -0.21977     -19.74332
Nuclear contribution   :    -21.76218       0.06507      20.14488
                        -----------------------------------------
Total Dipole Moment    :     -0.49912      -0.15470       0.40157
                        -----------------------------------------
Magnitude (a.u.)       :      0.65902
Magnitude (Debye)      :      1.67509

Rotational constants in cm-1:     0.020297     0.008780     0.006995
Rotational constants in MHz :   608.479285   263.223722   209.691950

                             ****ORCA TERMINATED NORMALLY****
TOTAL RUN TIME: 0 days 0 hours 0 minutes 22 seconds 451 msec
