                         Program Version 4.2.1 -  RELEASE  -
|  1> ! wB97X-D3 SP def2-SVP
|  2> %pal
|  3> nprocs 24
|  4> end
|  5>
|  6> * xyz 0 1
|  7> S 	 -117.371 	 44.1938 	 -112.659
|  8> C 	 -117.986 	 42.7666 	 -113.566
|  9> C 	 -117.268 	 42.4984 	 -114.68
| 10> C 	 -116.106 	 43.3395 	 -114.796
| 11> C 	 -116.068 	 44.4018 	 -113.89
| 12> H 	 -115.43 	 43.159 	 -115.617
| 13> C 	 -117.689 	 41.514 	 -115.779
| 14> H 	 -118.647 	 40.9545 	 -115.57
| 15> H 	 -116.856 	 40.8316 	 -115.805
| 16> C 	 -118.005 	 42.1458 	 -117.135
| 17> H 	 -118.951 	 42.7166 	 -116.975
| 18> H 	 -117.189 	 42.8406 	 -117.362
| 19> C 	 -118.089 	 41.2663 	 -118.39
| 20> H 	 -118.763 	 40.4343 	 -118.274
| 21> H 	 -118.489 	 41.7922 	 -119.247
| 22> H 	 -117.136 	 40.9031 	 -118.67
| 23> S 	 -115.831 	 47.1623 	 -114.18
| 24> C 	 -114.243 	 47.8475 	 -113.981
| 25> C 	 -113.322 	 46.9141 	 -113.624
| 26> C 	 -113.847 	 45.5884 	 -113.555
| 27> C 	 -115.171 	 45.5485 	 -113.852
| 28> H 	 -112.349 	 47.2538 	 -113.31
| 29> C 	 -112.991 	 44.4456 	 -113.169
| 30> H 	 -113.608 	 43.5346 	 -113.254
| 31> H 	 -112.675 	 44.4998 	 -112.16
| 32> C 	 -111.683 	 44.2302 	 -113.992
| 33> H 	 -111.193 	 43.4235 	 -113.548
| 34> H 	 -111.038 	 45.0901 	 -113.818
| 35> C 	 -111.91 	 44.033 	 -115.537
| 36> H 	 -112.542 	 44.7614 	 -116.018
| 37> H 	 -112.444 	 43.1493 	 -115.522
| 38> H 	 -111.044 	 43.9795 	 -116.21
| 39> H 	 -118.905 	 42.294 	 -113.377
| 40> H 	 -113.996 	 48.9046 	 -114.155
| 41> *
| 42>
| 43>                          ****END OF INPUT****

CARTESIAN COORDINATES (ANGSTROEM)
---------------------------------
  S    -117.371000   44.193800  -112.659000
  C    -117.986000   42.766600  -113.566000
  C    -117.268000   42.498400  -114.680000
  C    -116.106000   43.339500  -114.796000
  C    -116.068000   44.401800  -113.890000
  H    -115.430000   43.159000  -115.617000
  C    -117.689000   41.514000  -115.779000
  H    -118.647000   40.954500  -115.570000
  H    -116.856000   40.831600  -115.805000
  C    -118.005000   42.145800  -117.135000
  H    -118.951000   42.716600  -116.975000
  H    -117.189000   42.840600  -117.362000
  C    -118.089000   41.266300  -118.390000
  H    -118.763000   40.434300  -118.274000
  H    -118.489000   41.792200  -119.247000
  H    -117.136000   40.903100  -118.670000
  S    -115.831000   47.162300  -114.180000
  C    -114.243000   47.847500  -113.981000
  C    -113.322000   46.914100  -113.624000
  C    -113.847000   45.588400  -113.555000
  C    -115.171000   45.548500  -113.852000
  H    -112.349000   47.253800  -113.310000
  C    -112.991000   44.445600  -113.169000
  H    -113.608000   43.534600  -113.254000
  H    -112.675000   44.499800  -112.160000
  C    -111.683000   44.230200  -113.992000
  H    -111.193000   43.423500  -113.548000
  H    -111.038000   45.090100  -113.818000
  C    -111.910000   44.033000  -115.537000
  H    -112.542000   44.761400  -116.018000
  H    -112.444000   43.149300  -115.522000
  H    -111.044000   43.979500  -116.210000
  H    -118.905000   42.294000  -113.377000
  H    -113.996000   48.904600  -114.155000

 Total Charge           Charge          ....    0
 Multiplicity           Mult            ....    1
 Number of Electrons    NEL             ....  134
 Basis Dimension        Dim             ....  322

ORBITAL ENERGIES
----------------

  NO   OCC          E(Eh)            E(eV)
   0   2.0000     -88.964485     -2420.8467
   1   2.0000     -88.964383     -2420.8439
   2   2.0000     -10.336682      -281.2754
   3   2.0000     -10.323891      -280.9274
   4   2.0000     -10.317111      -280.7429
   5   2.0000     -10.309499      -280.5357
   6   2.0000     -10.299328      -280.2590
   7   2.0000     -10.298998      -280.2500
   8   2.0000     -10.298649      -280.2405
   9   2.0000     -10.297570      -280.2111
  10   2.0000     -10.289394      -279.9886
  11   2.0000     -10.289062      -279.9796
  12   2.0000     -10.286268      -279.9036
  13   2.0000     -10.285738      -279.8892
  14   2.0000     -10.275044      -279.5982
  15   2.0000     -10.271269      -279.4954
  16   2.0000      -8.079303      -219.8490
  17   2.0000      -8.077668      -219.8045
  18   2.0000      -6.037875      -164.2989
  19   2.0000      -6.036349      -164.2574
  20   2.0000      -6.033906      -164.1909
  21   2.0000      -6.032534      -164.1536
  22   2.0000      -6.029880      -164.0814
  23   2.0000      -6.028171      -164.0349
  24   2.0000      -1.004864       -27.3437
  25   2.0000      -0.979573       -26.6555
  26   2.0000      -0.909228       -24.7413
  27   2.0000      -0.908582       -24.7238
  28   2.0000      -0.870525       -23.6882
  29   2.0000      -0.848100       -23.0780
  30   2.0000      -0.842450       -22.9242
  31   2.0000      -0.815506       -22.1910
  32   2.0000      -0.787817       -21.4376
  33   2.0000      -0.778192       -21.1757
  34   2.0000      -0.713655       -19.4195
  35   2.0000      -0.700594       -19.0641
  36   2.0000      -0.694327       -18.8936
  37   2.0000      -0.658630       -17.9222
  38   2.0000      -0.636579       -17.3222
  39   2.0000      -0.623971       -16.9791
  40   2.0000      -0.598587       -16.2884
  41   2.0000      -0.568962       -15.4822
  42   2.0000      -0.563582       -15.3358
  43   2.0000      -0.555174       -15.1071
  44   2.0000      -0.541290       -14.7292
  45   2.0000      -0.522965       -14.2306
  46   2.0000      -0.517187       -14.0734
  47   2.0000      -0.514814       -14.0088
  48   2.0000      -0.505333       -13.7508
  49   2.0000      -0.497005       -13.5242
  50   2.0000      -0.489448       -13.3185
  51   2.0000      -0.484905       -13.1949
  52   2.0000      -0.467996       -12.7348
  53   2.0000      -0.463478       -12.6119
  54   2.0000      -0.457364       -12.4455
  55   2.0000      -0.451821       -12.2947
  56   2.0000      -0.448692       -12.2095
  57   2.0000      -0.437256       -11.8984
  58   2.0000      -0.431786       -11.7495
  59   2.0000      -0.425961       -11.5910
  60   2.0000      -0.418995       -11.4014
  61   2.0000      -0.415371       -11.3028
  62   2.0000      -0.412234       -11.2175
  63   2.0000      -0.338186        -9.2025
  64   2.0000      -0.332575        -9.0498
  65   2.0000      -0.327881        -8.9221
  66   2.0000      -0.302831        -8.2405
  67   0.0000       0.037658         1.0247
  68   0.0000       0.060459         1.6452
  69   0.0000       0.115043         3.1305
  70   0.0000       0.119954         3.2641
  71   0.0000       0.124908         3.3989

MULLIKEN ATOMIC CHARGES
-----------------------
   0 S :    0.092256
   1 C :   -0.102053
   2 C :   -0.088437
   3 C :    0.055068
   4 C :   -0.172487
   5 H :    0.009487
   6 C :    0.061220
   7 H :    0.030665
   8 H :    0.026591
   9 C :   -0.108211
  10 H :    0.038878
  11 H :    0.027061
  12 C :   -0.007531
  13 H :    0.018351
  14 H :    0.032169
  15 H :    0.020880
  16 S :    0.112645
  17 C :   -0.097879
  18 C :   -0.031682
  19 C :    0.002847
  20 C :   -0.179748
  21 H :    0.015270
  22 C :    0.072178
  23 H :    0.024933
  24 H :    0.028341
  25 C :   -0.060106
  26 H :    0.019499
  27 H :    0.021130
  28 C :   -0.036250
  29 H :    0.035546
  30 H :    0.011523
  31 H :    0.038299
  32 H :    0.024917
  33 H :    0.064629
Sum of atomic charges:   -0.0000000

LOEWDIN ATOMIC CHARGES
----------------------
   0 S :    0.357436
   1 C :   -0.171569
   2 C :   -0.063834
   3 C :   -0.053857
   4 C :   -0.170792
   5 H :    0.028209
   6 C :   -0.032068
   7 H :    0.035487
   8 H :    0.026797
   9 C :   -0.045811
  10 H :    0.030323
  11 H :    0.021892
  12 C :   -0.059418
  13 H :    0.020157
  14 H :    0.030700
  15 H :    0.019674
  16 S :    0.396597
  17 C :   -0.180498
  18 C :   -0.072332
  19 C :   -0.051427
  20 C :   -0.199456
  21 H :    0.030426
  22 C :   -0.026903
  23 H :    0.031740
  24 H :    0.031869
  25 C :   -0.025663
  26 H :    0.017419
  27 H :    0.016471
  28 C :   -0.064700
  29 H :    0.026016
  30 H :    0.014575
  31 H :    0.029497
  32 H :    0.017694
  33 H :    0.035348

  Mayer bond orders larger than 0.100000
B(  0-S ,  1-C ) :   1.1079 B(  0-S ,  4-C ) :   1.1304 B(  1-C ,  2-C ) :   1.6780
B(  1-C , 32-H ) :   0.9658 B(  2-C ,  3-C ) :   1.2137 B(  2-C ,  6-C ) :   1.0176
B(  3-C ,  4-C ) :   1.6005 B(  3-C ,  5-H ) :   0.9894 B(  4-C , 20-C ) :   1.0322
B(  6-C ,  7-H ) :   0.9479 B(  6-C ,  8-H ) :   0.9353 B(  6-C ,  9-C ) :   1.0574
B(  9-C , 10-H ) :   0.9567 B(  9-C , 11-H ) :   0.9579 B(  9-C , 12-C ) :   1.0853
B( 12-C , 13-H ) :   0.9744 B( 12-C , 14-H ) :   0.9718 B( 12-C , 15-H ) :   0.9742
B( 16-S , 17-C ) :   1.1474 B( 16-S , 20-C ) :   1.1242 B( 17-C , 18-C ) :   1.6439
B( 17-C , 33-H ) :   0.9615 B( 18-C , 19-C ) :   1.1982 B( 18-C , 21-H ) :   0.9928
B( 19-C , 20-C ) :   1.6296 B( 19-C , 22-C ) :   1.0592 B( 22-C , 23-H ) :   0.9282
B( 22-C , 24-H ) :   0.9255 B( 22-C , 25-C ) :   1.0766 B( 25-C , 26-H ) :   0.9595
B( 25-C , 27-H ) :   0.9562 B( 25-C , 28-C ) :   1.0529 B( 28-C , 29-H ) :   0.9771
B( 28-C , 30-H ) :   0.9777 B( 28-C , 31-H ) :   0.9767

Dispersion correction           -0.014604136
FINAL SINGLE POINT ENERGY     -1339.878820431436

DIPOLE MOMENT
-------------
                                X             Y             Z
Electronic contribution:     -9.06585      17.47308      17.53388
Nuclear contribution   :      9.43318     -17.75421     -17.91442
                        -----------------------------------------
Total Dipole Moment    :      0.36733      -0.28113      -0.38054
                        -----------------------------------------
Magnitude (a.u.)       :      0.59898
Magnitude (Debye)      :      1.52249

Rotational constants in cm-1:     0.018050     0.008299     0.007145
Rotational constants in MHz :   541.113293   248.800456   214.187574

                             ****ORCA TERMINATED NORMALLY****
TOTAL RUN TIME: 0 days 0 hours 0 minutes 21 seconds 650 msec
