                         Program Version 4.2.1 -  RELEASE  -
|  1> ! wB97X-D3 SP def2-SVP
|  2> %pal
|  3> nprocs 24
|  4> end
|  5>
|  6> * xyz 0 1
|  7> S 	 -131.881 	 61.0001 	 -59.4648
|  8> C 	 -131.353 	 62.6314 	 -60.0038
|  9> C 	 -132.289 	 63.6044 	 -59.663
| 10> C 	 -133.521 	 63.0583 	 -59.2866
| 11> C 	 -133.423 	 61.69 	 -59.0613
| 12> H 	 -134.374 	 63.5796 	 -58.9541
| 13> C 	 -132.004 	 65.0853 	 -59.665
| 14> H 	 -131.13 	 65.2362 	 -60.2963
| 15> H 	 -131.832 	 65.4463 	 -58.6574
| 16> C 	 -133.063 	 66.023 	 -60.2512
| 17> H 	 -134.077 	 65.9295 	 -59.7311
| 18> H 	 -132.664 	 67.009 	 -59.9913
| 19> C 	 -133.228 	 65.9062 	 -61.7432
| 20> H 	 -134.104 	 66.5892 	 -62.0888
| 21> H 	 -132.424 	 66.3605 	 -62.2711
| 22> H 	 -133.477 	 64.9201 	 -62.2425
| 23> S 	 -135.182 	 59.6524 	 -59.6333
| 24> C 	 -136.442 	 59.2334 	 -58.4416
| 25> C 	 -136.157 	 59.9154 	 -57.2623
| 26> C 	 -135.056 	 60.8225 	 -57.2878
| 27> C 	 -134.431 	 60.8056 	 -58.5272
| 28> H 	 -136.909 	 59.8323 	 -56.4563
| 29> C 	 -134.681 	 61.7947 	 -56.2479
| 30> H 	 -135.12 	 62.7621 	 -56.3907
| 31> H 	 -133.56 	 61.9097 	 -56.3976
| 32> C 	 -135.049 	 61.4053 	 -54.8477
| 33> H 	 -136.134 	 61.2794 	 -54.7151
| 34> H 	 -134.73 	 62.1658 	 -54.045
| 35> C 	 -134.327 	 60.1785 	 -54.3274
| 36> H 	 -134.511 	 59.9836 	 -53.3176
| 37> H 	 -133.307 	 60.3863 	 -54.3007
| 38> H 	 -134.551 	 59.3404 	 -54.9318
| 39> H 	 -130.415 	 62.8795 	 -60.3465
| 40> H 	 -137.368 	 58.6858 	 -58.5519
| 41> *
| 42>
| 43>                          ****END OF INPUT****

CARTESIAN COORDINATES (ANGSTROEM)
---------------------------------
  S    -131.881000   61.000100  -59.464800
  C    -131.353000   62.631400  -60.003800
  C    -132.289000   63.604400  -59.663000
  C    -133.521000   63.058300  -59.286600
  C    -133.423000   61.690000  -59.061300
  H    -134.374000   63.579600  -58.954100
  C    -132.004000   65.085300  -59.665000
  H    -131.130000   65.236200  -60.296300
  H    -131.832000   65.446300  -58.657400
  C    -133.063000   66.023000  -60.251200
  H    -134.077000   65.929500  -59.731100
  H    -132.664000   67.009000  -59.991300
  C    -133.228000   65.906200  -61.743200
  H    -134.104000   66.589200  -62.088800
  H    -132.424000   66.360500  -62.271100
  H    -133.477000   64.920100  -62.242500
  S    -135.182000   59.652400  -59.633300
  C    -136.442000   59.233400  -58.441600
  C    -136.157000   59.915400  -57.262300
  C    -135.056000   60.822500  -57.287800
  C    -134.431000   60.805600  -58.527200
  H    -136.909000   59.832300  -56.456300
  C    -134.681000   61.794700  -56.247900
  H    -135.120000   62.762100  -56.390700
  H    -133.560000   61.909700  -56.397600
  C    -135.049000   61.405300  -54.847700
  H    -136.134000   61.279400  -54.715100
  H    -134.730000   62.165800  -54.045000
  C    -134.327000   60.178500  -54.327400
  H    -134.511000   59.983600  -53.317600
  H    -133.307000   60.386300  -54.300700
  H    -134.551000   59.340400  -54.931800
  H    -130.415000   62.879500  -60.346500
  H    -137.368000   58.685800  -58.551900

 Total Charge           Charge          ....    0
 Multiplicity           Mult            ....    1
 Number of Electrons    NEL             ....  134
 Basis Dimension        Dim             ....  322

ORBITAL ENERGIES
----------------

  NO   OCC          E(Eh)            E(eV)
   0   2.0000     -88.969514     -2420.9836
   1   2.0000     -88.964770     -2420.8545
   2   2.0000     -10.327414      -281.0232
   3   2.0000     -10.321807      -280.8707
   4   2.0000     -10.321311      -280.8572
   5   2.0000     -10.310193      -280.5546
   6   2.0000     -10.301479      -280.3175
   7   2.0000     -10.299447      -280.2622
   8   2.0000     -10.296705      -280.1876
   9   2.0000     -10.294100      -280.1167
  10   2.0000     -10.291706      -280.0516
  11   2.0000     -10.289987      -280.0048
  12   2.0000     -10.289335      -279.9870
  13   2.0000     -10.287314      -279.9321
  14   2.0000     -10.282981      -279.8141
  15   2.0000     -10.256892      -279.1042
  16   2.0000      -8.083559      -219.9648
  17   2.0000      -8.078625      -219.8306
  18   2.0000      -6.041907      -164.4086
  19   2.0000      -6.038283      -164.3100
  20   2.0000      -6.037235      -164.2815
  21   2.0000      -6.034409      -164.2046
  22   2.0000      -6.033153      -164.1704
  23   2.0000      -6.029405      -164.0684
  24   2.0000      -1.006169       -27.3793
  25   2.0000      -0.980796       -26.6888
  26   2.0000      -0.917353       -24.9624
  27   2.0000      -0.915015       -24.8988
  28   2.0000      -0.869502       -23.6604
  29   2.0000      -0.852409       -23.1952
  30   2.0000      -0.844813       -22.9885
  31   2.0000      -0.815518       -22.1914
  32   2.0000      -0.787607       -21.4319
  33   2.0000      -0.775687       -21.1075
  34   2.0000      -0.710553       -19.3351
  35   2.0000      -0.697707       -18.9856
  36   2.0000      -0.692344       -18.8396
  37   2.0000      -0.650398       -17.6982
  38   2.0000      -0.643226       -17.5031
  39   2.0000      -0.623438       -16.9646
  40   2.0000      -0.598056       -16.2739
  41   2.0000      -0.565877       -15.3983
  42   2.0000      -0.560477       -15.2514
  43   2.0000      -0.557269       -15.1641
  44   2.0000      -0.545334       -14.8393
  45   2.0000      -0.538112       -14.6428
  46   2.0000      -0.528138       -14.3714
  47   2.0000      -0.516832       -14.0637
  48   2.0000      -0.499653       -13.5962
  49   2.0000      -0.495453       -13.4820
  50   2.0000      -0.490840       -13.3564
  51   2.0000      -0.474031       -12.8991
  52   2.0000      -0.469709       -12.7814
  53   2.0000      -0.463869       -12.6225
  54   2.0000      -0.459699       -12.5090
  55   2.0000      -0.452945       -12.3253
  56   2.0000      -0.442410       -12.0386
  57   2.0000      -0.437684       -11.9100
  58   2.0000      -0.426711       -11.6114
  59   2.0000      -0.424406       -11.5487
  60   2.0000      -0.419513       -11.4155
  61   2.0000      -0.415516       -11.3068
  62   2.0000      -0.409653       -11.1472
  63   2.0000      -0.339453        -9.2370
  64   2.0000      -0.331250        -9.0138
  65   2.0000      -0.321944        -8.7605
  66   2.0000      -0.299154        -8.1404
  67   0.0000       0.033627         0.9150
  68   0.0000       0.053889         1.4664
  69   0.0000       0.105637         2.8745
  70   0.0000       0.123048         3.3483
  71   0.0000       0.131391         3.5753

MULLIKEN ATOMIC CHARGES
-----------------------
   0 S :    0.121818
   1 C :   -0.084032
   2 C :   -0.093079
   3 C :    0.076799
   4 C :   -0.200286
   5 H :   -0.004475
   6 C :    0.086929
   7 H :    0.011347
   8 H :    0.043490
   9 C :   -0.092270
  10 H :    0.042011
  11 H :    0.029471
  12 C :   -0.082588
  13 H :    0.033057
  14 H :    0.022623
  15 H :    0.059245
  16 S :    0.111317
  17 C :   -0.091553
  18 C :   -0.065800
  19 C :   -0.017992
  20 C :   -0.172816
  21 H :    0.028467
  22 C :    0.097383
  23 H :    0.037606
  24 H :    0.046124
  25 C :   -0.133574
  26 H :    0.030729
  27 H :    0.033266
  28 C :    0.011046
  29 H :    0.011282
  30 H :    0.007905
  31 H :    0.028801
  32 H :    0.008797
  33 H :    0.058952
Sum of atomic charges:   -0.0000000

LOEWDIN ATOMIC CHARGES
----------------------
   0 S :    0.403608
   1 C :   -0.176428
   2 C :   -0.056369
   3 C :   -0.054050
   4 C :   -0.193245
   5 H :    0.025768
   6 C :   -0.029556
   7 H :    0.030190
   8 H :    0.035159
   9 C :   -0.048904
  10 H :    0.027876
  11 H :    0.029561
  12 C :   -0.081864
  13 H :    0.035908
  14 H :    0.018628
  15 H :    0.036203
  16 S :    0.391886
  17 C :   -0.180502
  18 C :   -0.076992
  19 C :   -0.058146
  20 C :   -0.203458
  21 H :    0.032980
  22 C :   -0.037831
  23 H :    0.033231
  24 H :    0.045311
  25 C :   -0.048751
  26 H :    0.020877
  27 H :    0.034300
  28 C :   -0.055235
  29 H :    0.019441
  30 H :    0.019212
  31 H :    0.018793
  32 H :    0.007206
  33 H :    0.035191

  Mayer bond orders larger than 0.100000
B(  0-S ,  1-C ) :   1.1242 B(  0-S ,  4-C ) :   1.1733 B(  1-C ,  2-C ) :   1.6138
B(  1-C ,  4-C ) :   0.1037 B(  1-C , 32-H ) :   0.9749 B(  2-C ,  3-C ) :   1.2390
B(  2-C ,  6-C ) :   1.0254 B(  3-C ,  4-C ) :   1.5680 B(  3-C ,  5-H ) :   0.9966
B(  4-C , 20-C ) :   1.0182 B(  6-C ,  7-H ) :   0.9351 B(  6-C ,  8-H ) :   0.9335
B(  6-C ,  9-C ) :   1.0808 B(  9-C , 10-H ) :   0.9521 B(  9-C , 11-H ) :   0.9510
B(  9-C , 12-C ) :   1.0812 B( 12-C , 13-H ) :   0.9710 B( 12-C , 14-H ) :   0.9713
B( 12-C , 15-H ) :   0.9753 B( 16-S , 17-C ) :   1.1426 B( 16-S , 20-C ) :   1.1443
B( 17-C , 18-C ) :   1.6269 B( 17-C , 20-C ) :   0.1044 B( 17-C , 33-H ) :   0.9654
B( 18-C , 19-C ) :   1.2267 B( 18-C , 21-H ) :   0.9773 B( 19-C , 20-C ) :   1.5929
B( 19-C , 22-C ) :   1.0452 B( 22-C , 23-H ) :   0.9220 B( 22-C , 24-H ) :   0.9247
B( 22-C , 25-C ) :   1.0826 B( 25-C , 26-H ) :   0.9471 B( 25-C , 27-H ) :   0.9554
B( 25-C , 28-C ) :   1.0857 B( 28-C , 29-H ) :   0.9703 B( 28-C , 30-H ) :   0.9690
B( 28-C , 31-H ) :   0.9739

Dispersion correction           -0.014517181
FINAL SINGLE POINT ENERGY     -1339.865173488079

DIPOLE MOMENT
-------------
                                X             Y             Z
Electronic contribution:      1.53443     -19.17211     -10.36097
Nuclear contribution   :     -1.69091      19.88114      10.76431
                        -----------------------------------------
Total Dipole Moment    :     -0.15648       0.70902       0.40334
                        -----------------------------------------
Magnitude (a.u.)       :      0.83059
Magnitude (Debye)      :      2.11120

Rotational constants in cm-1:     0.019990     0.008026     0.007253
Rotational constants in MHz :   599.291857   240.609856   217.443830

                             ****ORCA TERMINATED NORMALLY****
TOTAL RUN TIME: 0 days 0 hours 0 minutes 21 seconds 917 msec
