                         Program Version 4.2.1 -  RELEASE  -
|  1> ! wB97X-D3 SP def2-SVP
|  2> %pal
|  3> nprocs 24
|  4> end
|  5>
|  6> * xyz 0 1
|  7> S 	 50.6733 	 -19.4891 	 -109.672
|  8> C 	 50.2148 	 -20.1303 	 -111.206
|  9> C 	 49.1261 	 -21.0214 	 -111.099
| 10> C 	 48.7842 	 -21.2501 	 -109.742
| 11> C 	 49.5577 	 -20.5193 	 -108.853
| 12> H 	 47.9729 	 -21.8679 	 -109.325
| 13> C 	 48.6025 	 -21.7955 	 -112.288
| 14> H 	 49.1217 	 -22.6942 	 -112.375
| 15> H 	 48.8034 	 -21.195 	 -113.19
| 16> C 	 47.0767 	 -22.0725 	 -112.289
| 17> H 	 46.9971 	 -22.6511 	 -111.41
| 18> H 	 46.5228 	 -21.1554 	 -112.234
| 19> C 	 46.5695 	 -22.7569 	 -113.572
| 20> H 	 47.0238 	 -22.2294 	 -114.402
| 21> H 	 46.8107 	 -23.8267 	 -113.547
| 22> H 	 45.4361 	 -22.7268 	 -113.628
| 23> S 	 50.2636 	 -22.3463 	 -106.922
| 24> C 	 50.5159 	 -21.8741 	 -105.262
| 25> C 	 50.2413 	 -20.5102 	 -105.107
| 26> C 	 49.7931 	 -19.8551 	 -106.349
| 27> C 	 49.6648 	 -20.7529 	 -107.403
| 28> H 	 50.3356 	 -20.1734 	 -104.084
| 29> C 	 49.2943 	 -18.4867 	 -106.391
| 30> H 	 48.8171 	 -18.2723 	 -105.452
| 31> H 	 48.4929 	 -18.3249 	 -107.194
| 32> C 	 50.3745 	 -17.4818 	 -106.519
| 33> H 	 51.0643 	 -17.7895 	 -107.282
| 34> H 	 50.9322 	 -17.5537 	 -105.556
| 35> C 	 49.8708 	 -16.0456 	 -106.738
| 36> H 	 50.6334 	 -15.2911 	 -106.586
| 37> H 	 49.2288 	 -15.6787 	 -105.964
| 38> H 	 49.4228 	 -16.061 	 -107.719
| 39> H 	 50.7561 	 -20.0553 	 -112.112
| 40> H 	 50.8159 	 -22.5628 	 -104.472
| 41> *
| 42>
| 43>                          ****END OF INPUT****

CARTESIAN COORDINATES (ANGSTROEM)
---------------------------------
  S     50.673300  -19.489100  -109.672000
  C     50.214800  -20.130300  -111.206000
  C     49.126100  -21.021400  -111.099000
  C     48.784200  -21.250100  -109.742000
  C     49.557700  -20.519300  -108.853000
  H     47.972900  -21.867900  -109.325000
  C     48.602500  -21.795500  -112.288000
  H     49.121700  -22.694200  -112.375000
  H     48.803400  -21.195000  -113.190000
  C     47.076700  -22.072500  -112.289000
  H     46.997100  -22.651100  -111.410000
  H     46.522800  -21.155400  -112.234000
  C     46.569500  -22.756900  -113.572000
  H     47.023800  -22.229400  -114.402000
  H     46.810700  -23.826700  -113.547000
  H     45.436100  -22.726800  -113.628000
  S     50.263600  -22.346300  -106.922000
  C     50.515900  -21.874100  -105.262000
  C     50.241300  -20.510200  -105.107000
  C     49.793100  -19.855100  -106.349000
  C     49.664800  -20.752900  -107.403000
  H     50.335600  -20.173400  -104.084000
  C     49.294300  -18.486700  -106.391000
  H     48.817100  -18.272300  -105.452000
  H     48.492900  -18.324900  -107.194000
  C     50.374500  -17.481800  -106.519000
  H     51.064300  -17.789500  -107.282000
  H     50.932200  -17.553700  -105.556000
  C     49.870800  -16.045600  -106.738000
  H     50.633400  -15.291100  -106.586000
  H     49.228800  -15.678700  -105.964000
  H     49.422800  -16.061000  -107.719000
  H     50.756100  -20.055300  -112.112000
  H     50.815900  -22.562800  -104.472000

 Total Charge           Charge          ....    0
 Multiplicity           Mult            ....    1
 Number of Electrons    NEL             ....  134
 Basis Dimension        Dim             ....  322

ORBITAL ENERGIES
----------------

  NO   OCC          E(Eh)            E(eV)
   0   2.0000     -88.970656     -2421.0146
   1   2.0000     -88.961360     -2420.7617
   2   2.0000     -10.328070      -281.0411
   3   2.0000     -10.326794      -281.0063
   4   2.0000     -10.320028      -280.8222
   5   2.0000     -10.311265      -280.5838
   6   2.0000     -10.305231      -280.4196
   7   2.0000     -10.303184      -280.3639
   8   2.0000     -10.299732      -280.2700
   9   2.0000     -10.296180      -280.1733
  10   2.0000     -10.287340      -279.9328
  11   2.0000     -10.284400      -279.8528
  12   2.0000     -10.283181      -279.8196
  13   2.0000     -10.280759      -279.7537
  14   2.0000     -10.278007      -279.6788
  15   2.0000     -10.271589      -279.5041
  16   2.0000      -8.085551      -220.0190
  17   2.0000      -8.075991      -219.7589
  18   2.0000      -6.043865      -164.4619
  19   2.0000      -6.039945      -164.3553
  20   2.0000      -6.036611      -164.2645
  21   2.0000      -6.034504      -164.2072
  22   2.0000      -6.030415      -164.0959
  23   2.0000      -6.026833      -163.9985
  24   2.0000      -1.007884       -27.4259
  25   2.0000      -0.982365       -26.7315
  26   2.0000      -0.918582       -24.9959
  27   2.0000      -0.913017       -24.8444
  28   2.0000      -0.867901       -23.6168
  29   2.0000      -0.851483       -23.1700
  30   2.0000      -0.846674       -23.0392
  31   2.0000      -0.814364       -22.1600
  32   2.0000      -0.783368       -21.3165
  33   2.0000      -0.770048       -20.9541
  34   2.0000      -0.709130       -19.2964
  35   2.0000      -0.694470       -18.8975
  36   2.0000      -0.686801       -18.6888
  37   2.0000      -0.664756       -18.0889
  38   2.0000      -0.638740       -17.3810
  39   2.0000      -0.618124       -16.8200
  40   2.0000      -0.596518       -16.2321
  41   2.0000      -0.580292       -15.7906
  42   2.0000      -0.573429       -15.6038
  43   2.0000      -0.567647       -15.4465
  44   2.0000      -0.525161       -14.2904
  45   2.0000      -0.524772       -14.2798
  46   2.0000      -0.517071       -14.0702
  47   2.0000      -0.511626       -13.9221
  48   2.0000      -0.508455       -13.8358
  49   2.0000      -0.497679       -13.5425
  50   2.0000      -0.494370       -13.4525
  51   2.0000      -0.477940       -13.0054
  52   2.0000      -0.471099       -12.8192
  53   2.0000      -0.466489       -12.6938
  54   2.0000      -0.462567       -12.5871
  55   2.0000      -0.449529       -12.2323
  56   2.0000      -0.444043       -12.0830
  57   2.0000      -0.434666       -11.8279
  58   2.0000      -0.428281       -11.6541
  59   2.0000      -0.424120       -11.5409
  60   2.0000      -0.416884       -11.3440
  61   2.0000      -0.414192       -11.2707
  62   2.0000      -0.408829       -11.1248
  63   2.0000      -0.341463        -9.2917
  64   2.0000      -0.335936        -9.1413
  65   2.0000      -0.323797        -8.8110
  66   2.0000      -0.294083        -8.0024
  67   0.0000       0.031973         0.8700
  68   0.0000       0.060996         1.6598
  69   0.0000       0.103641         2.8202
  70   0.0000       0.119470         3.2509
  71   0.0000       0.133569         3.6346

MULLIKEN ATOMIC CHARGES
-----------------------
   0 S :    0.130384
   1 C :   -0.104622
   2 C :   -0.080411
   3 C :   -0.007901
   4 C :   -0.149392
   5 H :    0.031720
   6 C :    0.071615
   7 H :    0.031673
   8 H :    0.013988
   9 C :   -0.094146
  10 H :    0.025488
  11 H :    0.032475
  12 C :   -0.050218
  13 H :    0.033856
  14 H :    0.034398
  15 H :    0.045522
  16 S :    0.098486
  17 C :   -0.115263
  18 C :   -0.024398
  19 C :   -0.033280
  20 C :   -0.132331
  21 H :    0.021307
  22 C :    0.038522
  23 H :    0.015003
  24 H :    0.040985
  25 C :   -0.100657
  26 H :    0.023668
  27 H :    0.020132
  28 C :   -0.001071
  29 H :    0.024656
  30 H :    0.014513
  31 H :    0.040418
  32 H :    0.036955
  33 H :    0.067925
Sum of atomic charges:    0.0000000

LOEWDIN ATOMIC CHARGES
----------------------
   0 S :    0.443341
   1 C :   -0.203866
   2 C :   -0.057941
   3 C :   -0.069496
   4 C :   -0.206427
   5 H :    0.038547
   6 C :   -0.026306
   7 H :    0.024573
   8 H :    0.027246
   9 C :   -0.037309
  10 H :    0.015454
  11 H :    0.024075
  12 C :   -0.064874
  13 H :    0.024292
  14 H :    0.025500
  15 H :    0.034554
  16 S :    0.400062
  17 C :   -0.188634
  18 C :   -0.072029
  19 C :   -0.054514
  20 C :   -0.195881
  21 H :    0.031666
  22 C :   -0.043969
  23 H :    0.030253
  24 H :    0.036617
  25 C :   -0.042537
  26 H :    0.011542
  27 H :    0.024593
  28 C :   -0.063477
  29 H :    0.027919
  30 H :    0.022824
  31 H :    0.027935
  32 H :    0.022381
  33 H :    0.033886

  Mayer bond orders larger than 0.100000
B(  0-S ,  1-C ) :   1.1601 B(  0-S ,  4-C ) :   1.1646 B(  1-C ,  2-C ) :   1.5855
B(  1-C , 32-H ) :   0.9720 B(  2-C ,  3-C ) :   1.2485 B(  2-C ,  6-C ) :   1.0276
B(  3-C ,  4-C ) :   1.5450 B(  3-C ,  5-H ) :   0.9950 B(  4-C , 20-C ) :   1.0405
B(  6-C ,  7-H ) :   0.9402 B(  6-C ,  8-H ) :   0.9377 B(  6-C ,  9-C ) :   1.0592
B(  9-C , 10-H ) :   0.9567 B(  9-C , 11-H ) :   0.9621 B(  9-C , 12-C ) :   1.0846
B( 12-C , 13-H ) :   0.9739 B( 12-C , 14-H ) :   0.9750 B( 12-C , 15-H ) :   0.9762
B( 16-S , 17-C ) :   1.1617 B( 16-S , 20-C ) :   1.1268 B( 17-C , 18-C ) :   1.6164
B( 17-C , 33-H ) :   0.9656 B( 18-C , 19-C ) :   1.2036 B( 18-C , 21-H ) :   0.9931
B( 19-C , 20-C ) :   1.5921 B( 19-C , 22-C ) :   1.0599 B( 22-C , 23-H ) :   0.9284
B( 22-C , 24-H ) :   0.9446 B( 22-C , 25-C ) :   1.0491 B( 25-C , 26-H ) :   0.9564
B( 25-C , 27-H ) :   0.9519 B( 25-C , 28-C ) :   1.0843 B( 28-C , 29-H ) :   0.9704
B( 28-C , 30-H ) :   0.9684 B( 28-C , 31-H ) :   0.9744

Dispersion correction           -0.013971834
FINAL SINGLE POINT ENERGY     -1339.873260926709

DIPOLE MOMENT
-------------
                                X             Y             Z
Electronic contribution:     11.69689      -7.59382       9.57017
Nuclear contribution   :    -11.83631       7.58729      -9.58335
                        -----------------------------------------
Total Dipole Moment    :     -0.13942      -0.00654      -0.01319
                        -----------------------------------------
Magnitude (a.u.)       :      0.14020
Magnitude (Debye)      :      0.35636

Rotational constants in cm-1:     0.020871     0.007689     0.006327
Rotational constants in MHz :   625.685759   230.518135   189.664350

                             ****ORCA TERMINATED NORMALLY****
TOTAL RUN TIME: 0 days 0 hours 0 minutes 20 seconds 357 msec
