                         Program Version 4.2.1 -  RELEASE  -
|  1> ! wB97X-D3 SP def2-SVP
|  2> %pal
|  3> nprocs 24
|  4> end
|  5>
|  6> * xyz 0 1
|  7> S 	 -147.38 	 30.9679 	 -16.5134
|  8> C 	 -146.357 	 29.529 	 -16.7478
|  9> C 	 -146.327 	 28.7406 	 -15.6361
| 10> C 	 -146.993 	 29.3728 	 -14.5519
| 11> C 	 -147.53 	 30.6786 	 -14.7848
| 12> H 	 -147.226 	 28.872 	 -13.6036
| 13> C 	 -145.867 	 27.2989 	 -15.5085
| 14> H 	 -146.808 	 26.7917 	 -15.3798
| 15> H 	 -145.264 	 27.3067 	 -14.5407
| 16> C 	 -145.096 	 26.7797 	 -16.7351
| 17> H 	 -145.566 	 27.0605 	 -17.7052
| 18> H 	 -144.124 	 27.1995 	 -16.7507
| 19> C 	 -144.903 	 25.223 	 -16.662
| 20> H 	 -143.996 	 24.985 	 -17.13
| 21> H 	 -144.885 	 24.7507 	 -15.6652
| 22> H 	 -145.618 	 24.6208 	 -17.2288
| 23> S 	 -149.788 	 32.3002 	 -14.5826
| 24> C 	 -150.406 	 32.6051 	 -13.0333
| 25> C 	 -149.551 	 32.2045 	 -12.0276
| 26> C 	 -148.377 	 31.575 	 -12.536
| 27> C 	 -148.375 	 31.4764 	 -13.9217
| 28> H 	 -149.77 	 32.3591 	 -11.0485
| 29> C 	 -147.268 	 31.0283 	 -11.6456
| 30> H 	 -146.31 	 31.3157 	 -12.0556
| 31> H 	 -147.367 	 29.9809 	 -11.6625
| 32> C 	 -147.31 	 31.3224 	 -10.0813
| 33> H 	 -146.704 	 30.6683 	 -9.5009
| 34> H 	 -148.369 	 31.1509 	 -9.65399
| 35> C 	 -146.879 	 32.7273 	 -9.66653
| 36> H 	 -145.875 	 32.8108 	 -9.92594
| 37> H 	 -146.856 	 32.8385 	 -8.59567
| 38> H 	 -147.46 	 33.6438 	 -10.0498
| 39> H 	 -146.049 	 29.1524 	 -17.6898
| 40> H 	 -151.364 	 33.0622 	 -12.8703
| 41> *
| 42>
| 43>                          ****END OF INPUT****

CARTESIAN COORDINATES (ANGSTROEM)
---------------------------------
  S    -147.380000   30.967900  -16.513400
  C    -146.357000   29.529000  -16.747800
  C    -146.327000   28.740600  -15.636100
  C    -146.993000   29.372800  -14.551900
  C    -147.530000   30.678600  -14.784800
  H    -147.226000   28.872000  -13.603600
  C    -145.867000   27.298900  -15.508500
  H    -146.808000   26.791700  -15.379800
  H    -145.264000   27.306700  -14.540700
  C    -145.096000   26.779700  -16.735100
  H    -145.566000   27.060500  -17.705200
  H    -144.124000   27.199500  -16.750700
  C    -144.903000   25.223000  -16.662000
  H    -143.996000   24.985000  -17.130000
  H    -144.885000   24.750700  -15.665200
  H    -145.618000   24.620800  -17.228800
  S    -149.788000   32.300200  -14.582600
  C    -150.406000   32.605100  -13.033300
  C    -149.551000   32.204500  -12.027600
  C    -148.377000   31.575000  -12.536000
  C    -148.375000   31.476400  -13.921700
  H    -149.770000   32.359100  -11.048500
  C    -147.268000   31.028300  -11.645600
  H    -146.310000   31.315700  -12.055600
  H    -147.367000   29.980900  -11.662500
  C    -147.310000   31.322400  -10.081300
  H    -146.704000   30.668300   -9.500900
  H    -148.369000   31.150900   -9.653990
  C    -146.879000   32.727300   -9.666530
  H    -145.875000   32.810800   -9.925940
  H    -146.856000   32.838500   -8.595670
  H    -147.460000   33.643800  -10.049800
  H    -146.049000   29.152400  -17.689800
  H    -151.364000   33.062200  -12.870300

 Total Charge           Charge          ....    0
 Multiplicity           Mult            ....    1
 Number of Electrons    NEL             ....  134
 Basis Dimension        Dim             ....  322

ORBITAL ENERGIES
----------------

  NO   OCC          E(Eh)            E(eV)
   0   2.0000     -88.966102     -2420.8907
   1   2.0000     -88.963197     -2420.8117
   2   2.0000     -10.334807      -281.2244
   3   2.0000     -10.325964      -280.9838
   4   2.0000     -10.314078      -280.6603
   5   2.0000     -10.308279      -280.5025
   6   2.0000     -10.304731      -280.4060
   7   2.0000     -10.300390      -280.2879
   8   2.0000     -10.296728      -280.1882
   9   2.0000     -10.296700      -280.1874
  10   2.0000     -10.294610      -280.1306
  11   2.0000     -10.294511      -280.1279
  12   2.0000     -10.293225      -280.0929
  13   2.0000     -10.286195      -279.9016
  14   2.0000     -10.277790      -279.6729
  15   2.0000     -10.274629      -279.5869
  16   2.0000      -8.081759      -219.9158
  17   2.0000      -8.077224      -219.7924
  18   2.0000      -6.040171      -164.3614
  19   2.0000      -6.036100      -164.2506
  20   2.0000      -6.035891      -164.2450
  21   2.0000      -6.032611      -164.1557
  22   2.0000      -6.031950      -164.1377
  23   2.0000      -6.027754      -164.0235
  24   2.0000      -1.007270       -27.4092
  25   2.0000      -0.983108       -26.7517
  26   2.0000      -0.911340       -24.7988
  27   2.0000      -0.905833       -24.6490
  28   2.0000      -0.869888       -23.6709
  29   2.0000      -0.855094       -23.2683
  30   2.0000      -0.842715       -22.9314
  31   2.0000      -0.810058       -22.0428
  32   2.0000      -0.787504       -21.4291
  33   2.0000      -0.775620       -21.1057
  34   2.0000      -0.718401       -19.5487
  35   2.0000      -0.704971       -19.1832
  36   2.0000      -0.695309       -18.9203
  37   2.0000      -0.661520       -18.0009
  38   2.0000      -0.632104       -17.2004
  39   2.0000      -0.612382       -16.6638
  40   2.0000      -0.598325       -16.2813
  41   2.0000      -0.572322       -15.5737
  42   2.0000      -0.567545       -15.4437
  43   2.0000      -0.555022       -15.1029
  44   2.0000      -0.538862       -14.6632
  45   2.0000      -0.524887       -14.2829
  46   2.0000      -0.519944       -14.1484
  47   2.0000      -0.509521       -13.8648
  48   2.0000      -0.506367       -13.7789
  49   2.0000      -0.504319       -13.7232
  50   2.0000      -0.489297       -13.3144
  51   2.0000      -0.479903       -13.0588
  52   2.0000      -0.472720       -12.8634
  53   2.0000      -0.470418       -12.8007
  54   2.0000      -0.457421       -12.4470
  55   2.0000      -0.450375       -12.2553
  56   2.0000      -0.445609       -12.1256
  57   2.0000      -0.436680       -11.8827
  58   2.0000      -0.432828       -11.7778
  59   2.0000      -0.429664       -11.6918
  60   2.0000      -0.421576       -11.4717
  61   2.0000      -0.415976       -11.3193
  62   2.0000      -0.413557       -11.2535
  63   2.0000      -0.356621        -9.7041
  64   2.0000      -0.333797        -9.0831
  65   2.0000      -0.324453        -8.8288
  66   2.0000      -0.279794        -7.6136
  67   0.0000       0.020324         0.5531
  68   0.0000       0.079423         2.1612
  69   0.0000       0.104108         2.8329
  70   0.0000       0.128530         3.4975
  71   0.0000       0.140247         3.8163

MULLIKEN ATOMIC CHARGES
-----------------------
   0 S :    0.083612
   1 C :   -0.110477
   2 C :   -0.091772
   3 C :   -0.023342
   4 C :   -0.129054
   5 H :    0.012678
   6 C :    0.056796
   7 H :    0.047300
   8 H :    0.054064
   9 C :   -0.084266
  10 H :    0.043190
  11 H :    0.032111
  12 C :   -0.036107
  13 H :    0.013782
  14 H :    0.034060
  15 H :    0.029972
  16 S :    0.115586
  17 C :   -0.078478
  18 C :    0.004578
  19 C :   -0.055839
  20 C :   -0.134379
  21 H :   -0.027619
  22 C :    0.095314
  23 H :    0.041365
  24 H :    0.032890
  25 C :   -0.100920
  26 H :    0.023404
  27 H :    0.032310
  28 C :   -0.045998
  29 H :    0.012482
  30 H :    0.023125
  31 H :    0.049172
  32 H :    0.027516
  33 H :    0.052945
Sum of atomic charges:    0.0000000

LOEWDIN ATOMIC CHARGES
----------------------
   0 S :    0.382406
   1 C :   -0.191642
   2 C :   -0.067896
   3 C :   -0.071539
   4 C :   -0.184468
   5 H :    0.027581
   6 C :   -0.029267
   7 H :    0.037144
   8 H :    0.044923
   9 C :   -0.037161
  10 H :    0.030436
  11 H :    0.023148
  12 C :   -0.067785
  13 H :    0.018691
  14 H :    0.029089
  15 H :    0.026116
  16 S :    0.424174
  17 C :   -0.189622
  18 C :   -0.062906
  19 C :   -0.045615
  20 C :   -0.203126
  21 H :    0.013115
  22 C :   -0.023726
  23 H :    0.034566
  24 H :    0.027613
  25 C :   -0.040539
  26 H :    0.023215
  27 H :    0.027692
  28 C :   -0.072823
  29 H :    0.015193
  30 H :    0.023442
  31 H :    0.034373
  32 H :    0.017272
  33 H :    0.027923

  Mayer bond orders larger than 0.100000
B(  0-S ,  1-C ) :   1.1203 B(  0-S ,  4-C ) :   1.1454 B(  1-C ,  2-C ) :   1.6264
B(  1-C , 32-H ) :   0.9647 B(  2-C ,  3-C ) :   1.2728 B(  2-C ,  6-C ) :   0.9877
B(  3-C ,  4-C ) :   1.5305 B(  3-C ,  5-H ) :   0.9849 B(  4-C , 20-C ) :   1.0995
B(  6-C ,  7-H ) :   0.9416 B(  6-C ,  8-H ) :   0.9381 B(  6-C ,  9-C ) :   1.0810
B(  9-C , 10-H ) :   0.9517 B(  9-C , 11-H ) :   0.9605 B(  9-C , 12-C ) :   1.0708
B( 12-C , 13-H ) :   0.9749 B( 12-C , 14-H ) :   0.9778 B( 12-C , 15-H ) :   0.9775
B( 16-S , 17-C ) :   1.1844 B( 16-S , 20-C ) :   1.1309 B( 17-C , 18-C ) :   1.5661
B( 17-C , 33-H ) :   0.9670 B( 18-C , 19-C ) :   1.2683 B( 18-C , 21-H ) :   1.0107
B( 19-C , 20-C ) :   1.5769 B( 19-C , 22-C ) :   1.0209 B( 22-C , 23-H ) :   0.9394
B( 22-C , 24-H ) :   0.9229 B( 22-C , 25-C ) :   1.0733 B( 25-C , 26-H ) :   0.9539
B( 25-C , 27-H ) :   0.9522 B( 25-C , 28-C ) :   1.0824 B( 28-C , 29-H ) :   0.9717
B( 28-C , 30-H ) :   0.9724 B( 28-C , 31-H ) :   0.9752

Dispersion correction           -0.013394299
FINAL SINGLE POINT ENERGY     -1339.864204139253

DIPOLE MOMENT
-------------
                                X             Y             Z
Electronic contribution:    -14.97004      16.90203     -13.77071
Nuclear contribution   :     15.09314     -17.53882      14.29825
                        -----------------------------------------
Total Dipole Moment    :      0.12311      -0.63679       0.52754
                        -----------------------------------------
Magnitude (a.u.)       :      0.83604
Magnitude (Debye)      :      2.12503

Rotational constants in cm-1:     0.021012     0.007077     0.005684
Rotational constants in MHz :   629.912423   212.173484   170.395885

                             ****ORCA TERMINATED NORMALLY****
TOTAL RUN TIME: 0 days 0 hours 0 minutes 21 seconds 17 msec
