                         Program Version 4.2.1 -  RELEASE  -
|  1> ! wB97X-D3 SP def2-SVP
|  2> %pal
|  3> nprocs 24
|  4> end
|  5>
|  6> * xyz 0 1
|  7> S 	 -99.005 	 7.66067 	 3.59041
|  8> C 	 -98.9504 	 7.25545 	 1.93415
|  9> C 	 -97.809 	 7.76782 	 1.30042
| 10> C 	 -96.9291 	 8.32145 	 2.2581
| 11> C 	 -97.367 	 8.21979 	 3.61258
| 12> H 	 -95.9679 	 8.83541 	 2.02583
| 13> C 	 -97.5493 	 7.80158 	 -0.170544
| 14> H 	 -97.0907 	 8.67971 	 -0.604495
| 15> H 	 -98.6152 	 7.80911 	 -0.440459
| 16> C 	 -96.8912 	 6.52783 	 -0.812168
| 17> H 	 -95.8613 	 6.28587 	 -0.420037
| 18> H 	 -97.5038 	 5.65561 	 -0.571021
| 19> C 	 -96.8917 	 6.50014 	 -2.39209
| 20> H 	 -96.1282 	 7.16115 	 -2.79244
| 21> H 	 -96.7304 	 5.4972 	 -2.74559
| 22> H 	 -97.8815 	 6.66954 	 -2.74944
| 23> S 	 -97.8992 	 9.63242 	 5.89623
| 24> C 	 -96.6174 	 10.3769 	 6.77962
| 25> C 	 -95.4038 	 9.88291 	 6.3289
| 26> C 	 -95.499 	 8.85276 	 5.31535
| 27> C 	 -96.7754 	 8.81168 	 4.8081
| 28> H 	 -94.5339 	 10.3084 	 6.89113
| 29> C 	 -94.3174 	 8.16471 	 4.64849
| 30> H 	 -93.9078 	 9.00516 	 4.13641
| 31> H 	 -94.528 	 7.43677 	 3.87158
| 32> C 	 -93.2578 	 7.50975 	 5.69608
| 33> H 	 -93.7117 	 6.68653 	 6.16726
| 34> H 	 -92.9731 	 8.26456 	 6.42407
| 35> C 	 -91.9926 	 7.05813 	 5.0309
| 36> H 	 -92.1005 	 6.20817 	 4.3763
| 37> H 	 -91.2816 	 6.79596 	 5.74916
| 38> H 	 -91.5544 	 7.8882 	 4.37897
| 39> H 	 -99.8604 	 6.96724 	 1.33512
| 40> H 	 -96.8401 	 11.0878 	 7.52589
| 41> *
| 42>
| 43>                          ****END OF INPUT****

CARTESIAN COORDINATES (ANGSTROEM)
---------------------------------
  S    -99.005000    7.660670    3.590410
  C    -98.950400    7.255450    1.934150
  C    -97.809000    7.767820    1.300420
  C    -96.929100    8.321450    2.258100
  C    -97.367000    8.219790    3.612580
  H    -95.967900    8.835410    2.025830
  C    -97.549300    7.801580   -0.170544
  H    -97.090700    8.679710   -0.604495
  H    -98.615200    7.809110   -0.440459
  C    -96.891200    6.527830   -0.812168
  H    -95.861300    6.285870   -0.420037
  H    -97.503800    5.655610   -0.571021
  C    -96.891700    6.500140   -2.392090
  H    -96.128200    7.161150   -2.792440
  H    -96.730400    5.497200   -2.745590
  H    -97.881500    6.669540   -2.749440
  S    -97.899200    9.632420    5.896230
  C    -96.617400   10.376900    6.779620
  C    -95.403800    9.882910    6.328900
  C    -95.499000    8.852760    5.315350
  C    -96.775400    8.811680    4.808100
  H    -94.533900   10.308400    6.891130
  C    -94.317400    8.164710    4.648490
  H    -93.907800    9.005160    4.136410
  H    -94.528000    7.436770    3.871580
  C    -93.257800    7.509750    5.696080
  H    -93.711700    6.686530    6.167260
  H    -92.973100    8.264560    6.424070
  C    -91.992600    7.058130    5.030900
  H    -92.100500    6.208170    4.376300
  H    -91.281600    6.795960    5.749160
  H    -91.554400    7.888200    4.378970
  H    -99.860400    6.967240    1.335120
  H    -96.840100   11.087800    7.525890

 Total Charge           Charge          ....    0
 Multiplicity           Mult            ....    1
 Number of Electrons    NEL             ....  134
 Basis Dimension        Dim             ....  322

ORBITAL ENERGIES
----------------

  NO   OCC          E(Eh)            E(eV)
   0   2.0000     -88.969261     -2420.9767
   1   2.0000     -88.957428     -2420.6547
   2   2.0000     -10.331140      -281.1246
   3   2.0000     -10.325735      -280.9775
   4   2.0000     -10.316214      -280.7184
   5   2.0000     -10.314608      -280.6748
   6   2.0000     -10.308464      -280.5076
   7   2.0000     -10.302261      -280.3388
   8   2.0000     -10.301180      -280.3094
   9   2.0000     -10.297688      -280.2143
  10   2.0000     -10.294709      -280.1333
  11   2.0000     -10.294473      -280.1268
  12   2.0000     -10.293713      -280.1062
  13   2.0000     -10.285994      -279.8961
  14   2.0000     -10.277299      -279.6595
  15   2.0000     -10.274384      -279.5802
  16   2.0000      -8.084738      -219.9969
  17   2.0000      -8.073174      -219.6822
  18   2.0000      -6.043121      -164.4417
  19   2.0000      -6.039100      -164.3323
  20   2.0000      -6.035632      -164.2379
  21   2.0000      -6.031602      -164.1282
  22   2.0000      -6.027639      -164.0204
  23   2.0000      -6.023856      -163.9175
  24   2.0000      -1.009600       -27.4726
  25   2.0000      -0.987293       -26.8656
  26   2.0000      -0.907814       -24.7029
  27   2.0000      -0.903986       -24.5987
  28   2.0000      -0.868054       -23.6209
  29   2.0000      -0.856594       -23.3091
  30   2.0000      -0.845500       -23.0072
  31   2.0000      -0.812093       -22.0982
  32   2.0000      -0.782336       -21.2884
  33   2.0000      -0.771927       -21.0052
  34   2.0000      -0.705950       -19.2099
  35   2.0000      -0.701288       -19.0830
  36   2.0000      -0.696387       -18.9496
  37   2.0000      -0.657910       -17.9026
  38   2.0000      -0.634624       -17.2690
  39   2.0000      -0.617850       -16.8126
  40   2.0000      -0.598004       -16.2725
  41   2.0000      -0.575488       -15.6598
  42   2.0000      -0.564429       -15.3589
  43   2.0000      -0.552041       -15.0218
  44   2.0000      -0.530347       -14.4315
  45   2.0000      -0.520914       -14.1748
  46   2.0000      -0.518068       -14.0974
  47   2.0000      -0.512323       -13.9410
  48   2.0000      -0.508728       -13.8432
  49   2.0000      -0.498280       -13.5589
  50   2.0000      -0.487121       -13.2552
  51   2.0000      -0.481868       -13.1123
  52   2.0000      -0.476786       -12.9740
  53   2.0000      -0.469183       -12.7671
  54   2.0000      -0.458192       -12.4681
  55   2.0000      -0.450406       -12.2562
  56   2.0000      -0.440646       -11.9906
  57   2.0000      -0.437119       -11.8946
  58   2.0000      -0.431937       -11.7536
  59   2.0000      -0.425269       -11.5722
  60   2.0000      -0.422070       -11.4851
  61   2.0000      -0.418367       -11.3843
  62   2.0000      -0.407264       -11.0822
  63   2.0000      -0.351881        -9.5752
  64   2.0000      -0.331416        -9.0183
  65   2.0000      -0.324183        -8.8215
  66   2.0000      -0.283296        -7.7089
  67   0.0000       0.023104         0.6287
  68   0.0000       0.074076         2.0157
  69   0.0000       0.105414         2.8685
  70   0.0000       0.118301         3.2191
  71   0.0000       0.133198         3.6245

MULLIKEN ATOMIC CHARGES
-----------------------
   0 S :    0.121538
   1 C :   -0.129442
   2 C :   -0.093240
   3 C :    0.007873
   4 C :   -0.144648
   5 H :    0.024612
   6 C :    0.064152
   7 H :    0.034036
   8 H :    0.015630
   9 C :   -0.095242
  10 H :    0.039277
  11 H :    0.022445
  12 C :   -0.032886
  13 H :    0.041226
  14 H :    0.025493
  15 H :    0.019549
  16 S :    0.078478
  17 C :   -0.084142
  18 C :   -0.058186
  19 C :   -0.015066
  20 C :   -0.144417
  21 H :    0.041039
  22 C :    0.034851
  23 H :    0.031392
  24 H :    0.035080
  25 C :   -0.063432
  26 H :    0.031898
  27 H :    0.029940
  28 C :   -0.037895
  29 H :    0.026309
  30 H :    0.024189
  31 H :    0.029243
  32 H :    0.070395
  33 H :    0.049950
Sum of atomic charges:   -0.0000000

LOEWDIN ATOMIC CHARGES
----------------------
   0 S :    0.443730
   1 C :   -0.227668
   2 C :   -0.068130
   3 C :   -0.066484
   4 C :   -0.205247
   5 H :    0.034920
   6 C :   -0.036328
   7 H :    0.030781
   8 H :    0.036105
   9 C :   -0.040217
  10 H :    0.026408
  11 H :    0.022671
  12 C :   -0.062949
  13 H :    0.023907
  14 H :    0.025980
  15 H :    0.020881
  16 S :    0.389131
  17 C :   -0.180892
  18 C :   -0.080201
  19 C :   -0.055212
  20 C :   -0.189553
  21 H :    0.039476
  22 C :   -0.027166
  23 H :    0.030188
  24 H :    0.030506
  25 C :   -0.027960
  26 H :    0.021084
  27 H :    0.023901
  28 C :   -0.065178
  29 H :    0.021444
  30 H :    0.019312
  31 H :    0.031327
  32 H :    0.039385
  33 H :    0.022050

  Mayer bond orders larger than 0.100000
B(  0-S ,  1-C ) :   1.1732 B(  0-S ,  4-C ) :   1.1782 B(  1-C ,  2-C ) :   1.5569
B(  1-C ,  4-C ) :   0.1064 B(  1-C , 32-H ) :   0.9540 B(  2-C ,  3-C ) :   1.3079
B(  2-C ,  6-C ) :   1.0117 B(  3-C ,  4-C ) :   1.4947 B(  3-C ,  5-H ) :   0.9895
B(  4-C , 20-C ) :   1.0741 B(  6-C ,  7-H ) :   0.9525 B(  6-C ,  8-H ) :   0.9341
B(  6-C ,  9-C ) :   1.0568 B(  9-C , 10-H ) :   0.9603 B(  9-C , 11-H ) :   0.9579
B(  9-C , 12-C ) :   1.0776 B( 12-C , 13-H ) :   0.9786 B( 12-C , 14-H ) :   0.9756
B( 12-C , 15-H ) :   0.9746 B( 16-S , 17-C ) :   1.1553 B( 16-S , 20-C ) :   1.1290
B( 17-C , 18-C ) :   1.6229 B( 17-C , 33-H ) :   0.9782 B( 18-C , 19-C ) :   1.1916
B( 18-C , 21-H ) :   0.9831 B( 19-C , 20-C ) :   1.6010 B( 19-C , 22-C ) :   1.0406
B( 22-C , 23-H ) :   0.9380 B( 22-C , 24-H ) :   0.9442 B( 22-C , 25-C ) :   1.0485
B( 25-C , 26-H ) :   0.9578 B( 25-C , 27-H ) :   0.9584 B( 25-C , 28-C ) :   1.0976
B( 28-C , 29-H ) :   0.9728 B( 28-C , 30-H ) :   0.9714 B( 28-C , 31-H ) :   0.9729

Dispersion correction           -0.013088408
FINAL SINGLE POINT ENERGY     -1339.860291562852

DIPOLE MOMENT
-------------
                                X             Y             Z
Electronic contribution:    -21.54093       9.62556      19.10822
Nuclear contribution   :     22.03897      -9.55384     -19.45963
                        -----------------------------------------
Total Dipole Moment    :      0.49804       0.07172      -0.35141
                        -----------------------------------------
Magnitude (a.u.)       :      0.61374
Magnitude (Debye)      :      1.56001

Rotational constants in cm-1:     0.017282     0.007914     0.005805
Rotational constants in MHz :   518.114834   237.240874   174.014929

                             ****ORCA TERMINATED NORMALLY****
TOTAL RUN TIME: 0 days 0 hours 0 minutes 20 seconds 503 msec
