                         Program Version 4.2.1 -  RELEASE  -
|  1> ! wB97X-D3 SP def2-SVP
|  2> %pal
|  3> nprocs 24
|  4> end
|  5>
|  6> * xyz 0 1
|  7> S 	 37.7769 	 -35.1205 	 -114.926
|  8> C 	 36.4669 	 -35.7296 	 -115.873
|  9> C 	 36.7823 	 -35.8774 	 -117.255
| 10> C 	 38.0921 	 -35.3253 	 -117.503
| 11> C 	 38.7868 	 -34.901 	 -116.382
| 12> H 	 38.6373 	 -35.3581 	 -118.51
| 13> C 	 35.8123 	 -36.3707 	 -118.231
| 14> H 	 35.264 	 -37.0422 	 -117.642
| 15> H 	 36.3551 	 -36.9379 	 -119.066
| 16> C 	 34.9661 	 -35.1836 	 -118.824
| 17> H 	 34.1987 	 -35.6791 	 -119.376
| 18> H 	 34.5652 	 -34.6219 	 -117.957
| 19> C 	 35.7273 	 -34.2497 	 -119.867
| 20> H 	 36.0258 	 -34.8562 	 -120.701
| 21> H 	 34.9925 	 -33.419 	 -120.155
| 22> H 	 36.638 	 -33.709 	 -119.371
| 23> S 	 40.7394 	 -32.9132 	 -116.435
| 24> C 	 42.2911 	 -33.233 	 -115.811
| 25> C 	 42.4086 	 -34.5083 	 -115.311
| 26> C 	 41.214 	 -35.2738 	 -115.558
| 27> C 	 40.214 	 -34.511 	 -116.143
| 28> H 	 43.3245 	 -34.8122 	 -114.84
| 29> C 	 41.0485 	 -36.6746 	 -114.95
| 30> H 	 40.1097 	 -36.651 	 -114.425
| 31> H 	 41.8606 	 -36.906 	 -114.238
| 32> C 	 41.0172 	 -37.8116 	 -115.939
| 33> H 	 40.1741 	 -37.5703 	 -116.603
| 34> H 	 40.8011 	 -38.712 	 -115.3
| 35> C 	 42.3139 	 -37.9283 	 -116.754
| 36> H 	 42.3764 	 -37.1668 	 -117.536
| 37> H 	 42.1934 	 -38.7943 	 -117.348
| 38> H 	 43.2414 	 -37.8642 	 -116.2
| 39> H 	 35.5878 	 -36.1751 	 -115.541
| 40> H 	 43.0918 	 -32.524 	 -115.813
| 41> *
| 42>
| 43>                          ****END OF INPUT****

CARTESIAN COORDINATES (ANGSTROEM)
---------------------------------
  S     37.776900  -35.120500  -114.926000
  C     36.466900  -35.729600  -115.873000
  C     36.782300  -35.877400  -117.255000
  C     38.092100  -35.325300  -117.503000
  C     38.786800  -34.901000  -116.382000
  H     38.637300  -35.358100  -118.510000
  C     35.812300  -36.370700  -118.231000
  H     35.264000  -37.042200  -117.642000
  H     36.355100  -36.937900  -119.066000
  C     34.966100  -35.183600  -118.824000
  H     34.198700  -35.679100  -119.376000
  H     34.565200  -34.621900  -117.957000
  C     35.727300  -34.249700  -119.867000
  H     36.025800  -34.856200  -120.701000
  H     34.992500  -33.419000  -120.155000
  H     36.638000  -33.709000  -119.371000
  S     40.739400  -32.913200  -116.435000
  C     42.291100  -33.233000  -115.811000
  C     42.408600  -34.508300  -115.311000
  C     41.214000  -35.273800  -115.558000
  C     40.214000  -34.511000  -116.143000
  H     43.324500  -34.812200  -114.840000
  C     41.048500  -36.674600  -114.950000
  H     40.109700  -36.651000  -114.425000
  H     41.860600  -36.906000  -114.238000
  C     41.017200  -37.811600  -115.939000
  H     40.174100  -37.570300  -116.603000
  H     40.801100  -38.712000  -115.300000
  C     42.313900  -37.928300  -116.754000
  H     42.376400  -37.166800  -117.536000
  H     42.193400  -38.794300  -117.348000
  H     43.241400  -37.864200  -116.200000
  H     35.587800  -36.175100  -115.541000
  H     43.091800  -32.524000  -115.813000

 Total Charge           Charge          ....    0
 Multiplicity           Mult            ....    1
 Number of Electrons    NEL             ....  134
 Basis Dimension        Dim             ....  322

ORBITAL ENERGIES
----------------

  NO   OCC          E(Eh)            E(eV)
   0   2.0000     -88.968444     -2420.9544
   1   2.0000     -88.964813     -2420.8556
   2   2.0000     -10.334297      -281.2105
   3   2.0000     -10.323434      -280.9149
   4   2.0000     -10.310798      -280.5711
   5   2.0000     -10.310312      -280.5578
   6   2.0000     -10.304484      -280.3993
   7   2.0000     -10.302081      -280.3339
   8   2.0000     -10.301584      -280.3204
   9   2.0000     -10.294394      -280.1247
  10   2.0000     -10.294128      -280.1175
  11   2.0000     -10.293866      -280.1103
  12   2.0000     -10.290341      -280.0144
  13   2.0000     -10.281829      -279.7828
  14   2.0000     -10.281609      -279.7768
  15   2.0000     -10.268321      -279.4152
  16   2.0000      -8.082323      -219.9312
  17   2.0000      -8.081106      -219.8981
  18   2.0000      -6.040786      -164.3782
  19   2.0000      -6.039451      -164.3418
  20   2.0000      -6.036855      -164.2712
  21   2.0000      -6.035243      -164.2273
  22   2.0000      -6.033274      -164.1737
  23   2.0000      -6.032121      -164.1424
  24   2.0000      -1.008271       -27.4365
  25   2.0000      -0.984731       -26.7959
  26   2.0000      -0.911782       -24.8109
  27   2.0000      -0.907660       -24.6987
  28   2.0000      -0.862115       -23.4593
  29   2.0000      -0.845798       -23.0153
  30   2.0000      -0.840603       -22.8740
  31   2.0000      -0.817963       -22.2579
  32   2.0000      -0.783675       -21.3249
  33   2.0000      -0.768801       -20.9201
  34   2.0000      -0.702599       -19.1187
  35   2.0000      -0.699097       -19.0234
  36   2.0000      -0.681001       -18.5310
  37   2.0000      -0.662598       -18.0302
  38   2.0000      -0.637659       -17.3516
  39   2.0000      -0.613874       -16.7044
  40   2.0000      -0.590220       -16.0607
  41   2.0000      -0.576041       -15.6749
  42   2.0000      -0.557631       -15.1739
  43   2.0000      -0.547401       -14.8955
  44   2.0000      -0.540249       -14.7009
  45   2.0000      -0.535291       -14.5660
  46   2.0000      -0.516472       -14.0539
  47   2.0000      -0.511002       -13.9051
  48   2.0000      -0.498310       -13.5597
  49   2.0000      -0.492339       -13.3972
  50   2.0000      -0.483555       -13.1582
  51   2.0000      -0.476602       -12.9690
  52   2.0000      -0.469734       -12.7821
  53   2.0000      -0.466201       -12.6860
  54   2.0000      -0.462332       -12.5807
  55   2.0000      -0.443433       -12.0664
  56   2.0000      -0.440285       -11.9808
  57   2.0000      -0.436005       -11.8643
  58   2.0000      -0.428620       -11.6633
  59   2.0000      -0.424768       -11.5585
  60   2.0000      -0.420753       -11.4493
  61   2.0000      -0.417705       -11.3663
  62   2.0000      -0.410202       -11.1622
  63   2.0000      -0.336619        -9.1599
  64   2.0000      -0.332557        -9.0493
  65   2.0000      -0.319343        -8.6898
  66   2.0000      -0.304825        -8.2947
  67   0.0000       0.039663         1.0793
  68   0.0000       0.061364         1.6698
  69   0.0000       0.111607         3.0370
  70   0.0000       0.120177         3.2702
  71   0.0000       0.131003         3.5648

MULLIKEN ATOMIC CHARGES
-----------------------
   0 S :    0.119931
   1 C :   -0.075537
   2 C :   -0.153304
   3 C :    0.044967
   4 C :   -0.187662
   5 H :    0.041389
   6 C :    0.061935
   7 H :    0.011377
   8 H :    0.038017
   9 C :   -0.058668
  10 H :    0.029806
  11 H :    0.038283
  12 C :   -0.103495
  13 H :    0.039269
  14 H :    0.055863
  15 H :    0.061739
  16 S :    0.133648
  17 C :   -0.089873
  18 C :   -0.037753
  19 C :   -0.027683
  20 C :   -0.180521
  21 H :    0.014579
  22 C :    0.079464
  23 H :    0.019179
  24 H :    0.018755
  25 C :   -0.089261
  26 H :    0.035648
  27 H :    0.037927
  28 C :   -0.022592
  29 H :    0.027053
  30 H :    0.021214
  31 H :    0.029917
  32 H :    0.020151
  33 H :    0.046240
Sum of atomic charges:   -0.0000000

LOEWDIN ATOMIC CHARGES
----------------------
   0 S :    0.416147
   1 C :   -0.202186
   2 C :   -0.062158
   3 C :   -0.069692
   4 C :   -0.188771
   5 H :    0.045111
   6 C :   -0.037616
   7 H :    0.024611
   8 H :    0.038775
   9 C :   -0.031187
  10 H :    0.018874
  11 H :    0.027851
  12 C :   -0.075600
  13 H :    0.020159
  14 H :    0.037889
  15 H :    0.037955
  16 S :    0.448669
  17 C :   -0.195329
  18 C :   -0.071601
  19 C :   -0.049991
  20 C :   -0.234119
  21 H :    0.029901
  22 C :   -0.034555
  23 H :    0.019193
  24 H :    0.027478
  25 C :   -0.041089
  26 H :    0.027704
  27 H :    0.028890
  28 C :   -0.066480
  29 H :    0.028873
  30 H :    0.022905
  31 H :    0.022475
  32 H :    0.012745
  33 H :    0.024167

  Mayer bond orders larger than 0.100000
B(  0-S ,  1-C ) :   1.1559 B(  0-S ,  4-C ) :   1.1529 B(  1-C ,  2-C ) :   1.5937
B(  1-C ,  4-C ) :   0.1017 B(  1-C , 32-H ) :   0.9657 B(  2-C ,  3-C ) :   1.2403
B(  2-C ,  6-C ) :   1.0394 B(  3-C ,  4-C ) :   1.6038 B(  3-C ,  5-H ) :   0.9747
B(  4-C , 20-C ) :   0.9810 B(  6-C ,  7-H ) :   0.9302 B(  6-C ,  8-H ) :   0.9390
B(  6-C ,  9-C ) :   1.0578 B(  9-C , 10-H ) :   0.9577 B(  9-C , 11-H ) :   0.9566
B(  9-C , 12-C ) :   1.0677 B( 12-C , 13-H ) :   0.9758 B( 12-C , 14-H ) :   0.9735
B( 12-C , 15-H ) :   0.9712 B( 16-S , 17-C ) :   1.1831 B( 16-S , 20-C ) :   1.1669
B( 17-C , 18-C ) :   1.5882 B( 17-C , 33-H ) :   0.9696 B( 18-C , 19-C ) :   1.2530
B( 18-C , 21-H ) :   0.9968 B( 19-C , 20-C ) :   1.5815 B( 19-C , 22-C ) :   1.0263
B( 22-C , 23-H ) :   0.9280 B( 22-C , 24-H ) :   0.9414 B( 22-C , 25-C ) :   1.0809
B( 25-C , 26-H ) :   0.9532 B( 25-C , 27-H ) :   0.9566 B( 25-C , 28-C ) :   1.0756
B( 28-C , 29-H ) :   0.9672 B( 28-C , 30-H ) :   0.9713 B( 28-C , 31-H ) :   0.9779

Dispersion correction           -0.015464718
FINAL SINGLE POINT ENERGY     -1339.876832068541

DIPOLE MOMENT
-------------
                                X             Y             Z
Electronic contribution:      4.21193      14.15993      12.44816
Nuclear contribution   :     -4.27902     -14.54018     -12.69059
                        -----------------------------------------
Total Dipole Moment    :     -0.06710      -0.38025      -0.24243
                        -----------------------------------------
Magnitude (a.u.)       :      0.45593
Magnitude (Debye)      :      1.15887

Rotational constants in cm-1:     0.020626     0.008461     0.007523
Rotational constants in MHz :   618.360419   253.653242   225.535446

                             ****ORCA TERMINATED NORMALLY****
TOTAL RUN TIME: 0 days 0 hours 0 minutes 22 seconds 193 msec
