                         Program Version 4.2.1 -  RELEASE  -
|  1> ! wB97X-D3 SP def2-SVP
|  2> %pal
|  3> nprocs 24
|  4> end
|  5>
|  6> * xyz 0 1
|  7> S 	 -91.2408 	 -31.5423 	 -72.2406
|  8> C 	 -90.152 	 -33.0279 	 -72.3075
|  9> C 	 -89.1681 	 -32.8857 	 -73.234
| 10> C 	 -89.3055 	 -31.6836 	 -73.9559
| 11> C 	 -90.3388 	 -30.8592 	 -73.5788
| 12> H 	 -88.6257 	 -31.3307 	 -74.7121
| 13> C 	 -88.076 	 -33.9447 	 -73.395
| 14> H 	 -88.1562 	 -34.503 	 -72.4763
| 15> H 	 -87.0606 	 -33.5811 	 -73.3805
| 16> C 	 -88.3092 	 -34.9465 	 -74.5407
| 17> H 	 -87.8826 	 -35.848 	 -74.2878
| 18> H 	 -89.4655 	 -34.9918 	 -74.6673
| 19> C 	 -87.7015 	 -34.3725 	 -75.8115
| 20> H 	 -87.984 	 -34.9469 	 -76.6448
| 21> H 	 -88.0981 	 -33.3191 	 -76.0334
| 22> H 	 -86.6 	 -34.2853 	 -75.7101
| 23> S 	 -90.7149 	 -28.2784 	 -72.8823
| 24> C 	 -90.733 	 -27.0753 	 -74.1292
| 25> C 	 -90.5086 	 -27.5658 	 -75.4048
| 26> C 	 -90.4188 	 -29.0077 	 -75.398
| 27> C 	 -90.5531 	 -29.5036 	 -74.0741
| 28> H 	 -90.6072 	 -27.0109 	 -76.3016
| 29> C 	 -90.459 	 -29.8361 	 -76.6471
| 30> H 	 -91.4166 	 -29.5333 	 -77.0945
| 31> H 	 -90.8302 	 -30.8153 	 -76.4093
| 32> C 	 -89.2129 	 -29.9079 	 -77.6681
| 33> H 	 -88.4262 	 -30.5459 	 -77.198
| 34> H 	 -88.7575 	 -28.9084 	 -77.7549
| 35> C 	 -89.4256 	 -30.5339 	 -79.0454
| 36> H 	 -89.98 	 -31.4727 	 -78.9746
| 37> H 	 -88.5347 	 -30.7021 	 -79.6005
| 38> H 	 -89.9576 	 -29.8449 	 -79.6548
| 39> H 	 -90.1355 	 -33.832 	 -71.6098
| 40> H 	 -90.9693 	 -26.0191 	 -73.8847
| 41> *
| 42>
| 43>                          ****END OF INPUT****

CARTESIAN COORDINATES (ANGSTROEM)
---------------------------------
  S    -91.240800  -31.542300  -72.240600
  C    -90.152000  -33.027900  -72.307500
  C    -89.168100  -32.885700  -73.234000
  C    -89.305500  -31.683600  -73.955900
  C    -90.338800  -30.859200  -73.578800
  H    -88.625700  -31.330700  -74.712100
  C    -88.076000  -33.944700  -73.395000
  H    -88.156200  -34.503000  -72.476300
  H    -87.060600  -33.581100  -73.380500
  C    -88.309200  -34.946500  -74.540700
  H    -87.882600  -35.848000  -74.287800
  H    -89.465500  -34.991800  -74.667300
  C    -87.701500  -34.372500  -75.811500
  H    -87.984000  -34.946900  -76.644800
  H    -88.098100  -33.319100  -76.033400
  H    -86.600000  -34.285300  -75.710100
  S    -90.714900  -28.278400  -72.882300
  C    -90.733000  -27.075300  -74.129200
  C    -90.508600  -27.565800  -75.404800
  C    -90.418800  -29.007700  -75.398000
  C    -90.553100  -29.503600  -74.074100
  H    -90.607200  -27.010900  -76.301600
  C    -90.459000  -29.836100  -76.647100
  H    -91.416600  -29.533300  -77.094500
  H    -90.830200  -30.815300  -76.409300
  C    -89.212900  -29.907900  -77.668100
  H    -88.426200  -30.545900  -77.198000
  H    -88.757500  -28.908400  -77.754900
  C    -89.425600  -30.533900  -79.045400
  H    -89.980000  -31.472700  -78.974600
  H    -88.534700  -30.702100  -79.600500
  H    -89.957600  -29.844900  -79.654800
  H    -90.135500  -33.832000  -71.609800
  H    -90.969300  -26.019100  -73.884700

 Total Charge           Charge          ....    0
 Multiplicity           Mult            ....    1
 Number of Electrons    NEL             ....  134
 Basis Dimension        Dim             ....  322

ORBITAL ENERGIES
----------------

  NO   OCC          E(Eh)            E(eV)
   0   2.0000     -88.968071     -2420.9443
   1   2.0000     -88.966630     -2420.9051
   2   2.0000     -10.327204      -281.0175
   3   2.0000     -10.324819      -280.9526
   4   2.0000     -10.319315      -280.8028
   5   2.0000     -10.314330      -280.6672
   6   2.0000     -10.307237      -280.4742
   7   2.0000     -10.299012      -280.2504
   8   2.0000     -10.298563      -280.2382
   9   2.0000     -10.294919      -280.1390
  10   2.0000     -10.294584      -280.1299
  11   2.0000     -10.289715      -279.9974
  12   2.0000     -10.287390      -279.9341
  13   2.0000     -10.287155      -279.9277
  14   2.0000     -10.280211      -279.7388
  15   2.0000     -10.275840      -279.6198
  16   2.0000      -8.083752      -219.9701
  17   2.0000      -8.079994      -219.8678
  18   2.0000      -6.042102      -164.4139
  19   2.0000      -6.038620      -164.3192
  20   2.0000      -6.038123      -164.3057
  21   2.0000      -6.034866      -164.2171
  22   2.0000      -6.034648      -164.2111
  23   2.0000      -6.030538      -164.0993
  24   2.0000      -1.006794       -27.3963
  25   2.0000      -0.981394       -26.7051
  26   2.0000      -0.914685       -24.8898
  27   2.0000      -0.901633       -24.5347
  28   2.0000      -0.869963       -23.6729
  29   2.0000      -0.858302       -23.3556
  30   2.0000      -0.840247       -22.8643
  31   2.0000      -0.815965       -22.2035
  32   2.0000      -0.786015       -21.3886
  33   2.0000      -0.770219       -20.9587
  34   2.0000      -0.708510       -19.2795
  35   2.0000      -0.698049       -18.9949
  36   2.0000      -0.695466       -18.9246
  37   2.0000      -0.663375       -18.0514
  38   2.0000      -0.638517       -17.3749
  39   2.0000      -0.616731       -16.7821
  40   2.0000      -0.598851       -16.2956
  41   2.0000      -0.575787       -15.6680
  42   2.0000      -0.554750       -15.0955
  43   2.0000      -0.552129       -15.0242
  44   2.0000      -0.535339       -14.5673
  45   2.0000      -0.527788       -14.3618
  46   2.0000      -0.517725       -14.0880
  47   2.0000      -0.515254       -14.0208
  48   2.0000      -0.504171       -13.7192
  49   2.0000      -0.493673       -13.4335
  50   2.0000      -0.487955       -13.2779
  51   2.0000      -0.479253       -13.0411
  52   2.0000      -0.471616       -12.8333
  53   2.0000      -0.466870       -12.7042
  54   2.0000      -0.460330       -12.5262
  55   2.0000      -0.452053       -12.3010
  56   2.0000      -0.441163       -12.0047
  57   2.0000      -0.434049       -11.8111
  58   2.0000      -0.431976       -11.7547
  59   2.0000      -0.428396       -11.6572
  60   2.0000      -0.425307       -11.5732
  61   2.0000      -0.420206       -11.4344
  62   2.0000      -0.411163       -11.1883
  63   2.0000      -0.348757        -9.4901
  64   2.0000      -0.334724        -9.1083
  65   2.0000      -0.330268        -8.9871
  66   2.0000      -0.287229        -7.8159
  67   0.0000       0.026514         0.7215
  68   0.0000       0.074293         2.0216
  69   0.0000       0.103333         2.8118
  70   0.0000       0.117132         3.1873
  71   0.0000       0.126786         3.4500

MULLIKEN ATOMIC CHARGES
-----------------------
   0 S :    0.087293
   1 C :   -0.112820
   2 C :   -0.082745
   3 C :    0.031597
   4 C :   -0.136877
   5 H :   -0.001726
   6 C :    0.079091
   7 H :    0.000172
   8 H :    0.026772
   9 C :   -0.046725
  10 H :    0.019389
  11 H :    0.048150
  12 C :   -0.059647
  13 H :    0.027085
  14 H :    0.030086
  15 H :    0.034610
  16 S :    0.122402
  17 C :   -0.110302
  18 C :    0.004131
  19 C :   -0.047151
  20 C :   -0.151422
  21 H :    0.009822
  22 C :    0.037035
  23 H :    0.027139
  24 H :    0.010460
  25 C :   -0.077438
  26 H :    0.035414
  27 H :    0.032507
  28 C :   -0.023753
  29 H :    0.036130
  30 H :    0.029241
  31 H :    0.020225
  32 H :    0.032454
  33 H :    0.069404
Sum of atomic charges:   -0.0000000

LOEWDIN ATOMIC CHARGES
----------------------
   0 S :    0.360000
   1 C :   -0.163991
   2 C :   -0.058094
   3 C :   -0.065895
   4 C :   -0.188977
   5 H :    0.026772
   6 C :   -0.025290
   7 H :    0.026358
   8 H :    0.027507
   9 C :   -0.033069
  10 H :    0.012021
  11 H :    0.039443
  12 C :   -0.067420
  13 H :    0.016375
  14 H :    0.031058
  15 H :    0.026215
  16 S :    0.431312
  17 C :   -0.193278
  18 C :   -0.062488
  19 C :   -0.054741
  20 C :   -0.210325
  21 H :    0.027560
  22 C :   -0.046097
  23 H :    0.038670
  24 H :    0.029091
  25 C :   -0.039028
  26 H :    0.025352
  27 H :    0.024491
  28 C :   -0.062049
  29 H :    0.028794
  30 H :    0.026049
  31 H :    0.020238
  32 H :    0.020811
  33 H :    0.032625

  Mayer bond orders larger than 0.100000
B(  0-S ,  1-C ) :   1.1042 B(  0-S ,  4-C ) :   1.1347 B(  1-C ,  2-C ) :   1.6526
B(  1-C , 32-H ) :   0.9641 B(  2-C ,  3-C ) :   1.2249 B(  2-C ,  6-C ) :   1.0245
B(  3-C ,  4-C ) :   1.5868 B(  3-C ,  5-H ) :   0.9936 B(  4-C , 20-C ) :   1.0342
B(  6-C ,  7-H ) :   0.9324 B(  6-C ,  8-H ) :   0.9433 B(  6-C ,  9-C ) :   1.0557
B(  9-C , 10-H ) :   0.9558 B(  9-C , 11-H ) :   0.9540 B(  9-C , 12-C ) :   1.0835
B( 12-C , 13-H ) :   0.9726 B( 12-C , 14-H ) :   0.9715 B( 12-C , 15-H ) :   0.9746
B( 16-S , 17-C ) :   1.1637 B( 16-S , 20-C ) :   1.1609 B( 17-C , 18-C ) :   1.5910
B( 17-C , 33-H ) :   0.9644 B( 18-C , 19-C ) :   1.2536 B( 18-C , 21-H ) :   0.9936
B( 19-C , 20-C ) :   1.5665 B( 19-C , 22-C ) :   1.0461 B( 22-C , 23-H ) :   0.9363
B( 22-C , 24-H ) :   0.9309 B( 22-C , 25-C ) :   1.0249 B( 25-C , 26-H ) :   0.9564
B( 25-C , 27-H ) :   0.9616 B( 25-C , 28-C ) :   1.0860 B( 28-C , 29-H ) :   0.9744
B( 28-C , 30-H ) :   0.9729 B( 28-C , 31-H ) :   0.9742

Dispersion correction           -0.014537476
FINAL SINGLE POINT ENERGY     -1339.869403251589

DIPOLE MOMENT
-------------
                                X             Y             Z
Electronic contribution:    -13.72511      15.36427      25.03848
Nuclear contribution   :     14.09249     -15.57257     -25.57382
                        -----------------------------------------
Total Dipole Moment    :      0.36738      -0.20830      -0.53534
                        -----------------------------------------
Magnitude (a.u.)       :      0.68187
Magnitude (Debye)      :      1.73318

Rotational constants in cm-1:     0.015527     0.010564     0.006722
Rotational constants in MHz :   465.498041   316.714281   201.519560

                             ****ORCA TERMINATED NORMALLY****
TOTAL RUN TIME: 0 days 0 hours 0 minutes 22 seconds 88 msec
