                         Program Version 4.2.1 -  RELEASE  -
|  1> ! wB97X-D3 SP def2-SVP
|  2> %pal
|  3> nprocs 24
|  4> end
|  5>
|  6> * xyz 0 1
|  7> S 	 -121.335 	 51.6653 	 -38.3576
|  8> C 	 -121.437 	 51.9591 	 -40.1021
|  9> C 	 -121.519 	 53.3164 	 -40.4718
| 10> C 	 -121.26 	 54.1124 	 -39.3844
| 11> C 	 -121.171 	 53.4115 	 -38.192
| 12> H 	 -121.156 	 55.1597 	 -39.6015
| 13> C 	 -121.839 	 53.8326 	 -41.8606
| 14> H 	 -120.917 	 53.6455 	 -42.4031
| 15> H 	 -121.948 	 54.921 	 -41.8178
| 16> C 	 -123.01 	 53.2271 	 -42.7786
| 17> H 	 -123.087 	 53.7773 	 -43.8101
| 18> H 	 -122.614 	 52.2029 	 -43.0844
| 19> C 	 -124.459 	 53.0083 	 -42.0767
| 20> H 	 -125.159 	 53.8716 	 -42.2269
| 21> H 	 -125.072 	 52.2676 	 -42.4767
| 22> H 	 -124.427 	 52.9907 	 -40.9506
| 23> S 	 -120.132 	 52.9785 	 -35.6621
| 24> C 	 -120.065 	 54.2991 	 -34.5436
| 25> C 	 -120.707 	 55.3679 	 -35.0652
| 26> C 	 -121.202 	 55.2136 	 -36.3887
| 27> C 	 -120.995 	 53.9871 	 -36.8769
| 28> H 	 -120.838 	 56.2644 	 -34.4581
| 29> C 	 -121.866 	 56.438 	 -36.9526
| 30> H 	 -122.499 	 56.8627 	 -36.2014
| 31> H 	 -122.576 	 56.0134 	 -37.655
| 32> C 	 -120.853 	 57.4334 	 -37.5742
| 33> H 	 -120.151 	 56.8421 	 -38.0892
| 34> H 	 -120.336 	 57.8487 	 -36.7044
| 35> C 	 -121.738 	 58.4317 	 -38.3202
| 36> H 	 -122.348 	 59.026 	 -37.5921
| 37> H 	 -122.32 	 57.9948 	 -39.1686
| 38> H 	 -121.144 	 59.1363 	 -38.8922
| 39> H 	 -121.616 	 51.2517 	 -40.9002
| 40> H 	 -119.603 	 54.2662 	 -33.5695
| 41> *
| 42>
| 43>                          ****END OF INPUT****

CARTESIAN COORDINATES (ANGSTROEM)
---------------------------------
  S    -121.335000   51.665300  -38.357600
  C    -121.437000   51.959100  -40.102100
  C    -121.519000   53.316400  -40.471800
  C    -121.260000   54.112400  -39.384400
  C    -121.171000   53.411500  -38.192000
  H    -121.156000   55.159700  -39.601500
  C    -121.839000   53.832600  -41.860600
  H    -120.917000   53.645500  -42.403100
  H    -121.948000   54.921000  -41.817800
  C    -123.010000   53.227100  -42.778600
  H    -123.087000   53.777300  -43.810100
  H    -122.614000   52.202900  -43.084400
  C    -124.459000   53.008300  -42.076700
  H    -125.159000   53.871600  -42.226900
  H    -125.072000   52.267600  -42.476700
  H    -124.427000   52.990700  -40.950600
  S    -120.132000   52.978500  -35.662100
  C    -120.065000   54.299100  -34.543600
  C    -120.707000   55.367900  -35.065200
  C    -121.202000   55.213600  -36.388700
  C    -120.995000   53.987100  -36.876900
  H    -120.838000   56.264400  -34.458100
  C    -121.866000   56.438000  -36.952600
  H    -122.499000   56.862700  -36.201400
  H    -122.576000   56.013400  -37.655000
  C    -120.853000   57.433400  -37.574200
  H    -120.151000   56.842100  -38.089200
  H    -120.336000   57.848700  -36.704400
  C    -121.738000   58.431700  -38.320200
  H    -122.348000   59.026000  -37.592100
  H    -122.320000   57.994800  -39.168600
  H    -121.144000   59.136300  -38.892200
  H    -121.616000   51.251700  -40.900200
  H    -119.603000   54.266200  -33.569500

 Total Charge           Charge          ....    0
 Multiplicity           Mult            ....    1
 Number of Electrons    NEL             ....  134
 Basis Dimension        Dim             ....  322

ORBITAL ENERGIES
----------------

  NO   OCC          E(Eh)            E(eV)
   0   2.0000     -88.976342     -2421.1694
   1   2.0000     -88.957942     -2420.6687
   2   2.0000     -10.331451      -281.1331
   3   2.0000     -10.322224      -280.8820
   4   2.0000     -10.317627      -280.7569
   5   2.0000     -10.311568      -280.5920
   6   2.0000     -10.311206      -280.5822
   7   2.0000     -10.302109      -280.3346
   8   2.0000     -10.297772      -280.2166
   9   2.0000     -10.290777      -280.0263
  10   2.0000     -10.289574      -279.9936
  11   2.0000     -10.288374      -279.9609
  12   2.0000     -10.287586      -279.9395
  13   2.0000     -10.285237      -279.8755
  14   2.0000     -10.284344      -279.8512
  15   2.0000     -10.283814      -279.8368
  16   2.0000      -8.089812      -220.1350
  17   2.0000      -8.072889      -219.6745
  18   2.0000      -6.048251      -164.5813
  19   2.0000      -6.044793      -164.4872
  20   2.0000      -6.040437      -164.3686
  21   2.0000      -6.031573      -164.1274
  22   2.0000      -6.027437      -164.0149
  23   2.0000      -6.023400      -163.9051
  24   2.0000      -1.009400       -27.4672
  25   2.0000      -0.986027       -26.8312
  26   2.0000      -0.914899       -24.8957
  27   2.0000      -0.901433       -24.5292
  28   2.0000      -0.863555       -23.4985
  29   2.0000      -0.853592       -23.2274
  30   2.0000      -0.845925       -23.0188
  31   2.0000      -0.808597       -22.0030
  32   2.0000      -0.782695       -21.2982
  33   2.0000      -0.773344       -21.0438
  34   2.0000      -0.713189       -19.4069
  35   2.0000      -0.708818       -19.2879
  36   2.0000      -0.699551       -19.0358
  37   2.0000      -0.666509       -18.1366
  38   2.0000      -0.626427       -17.0460
  39   2.0000      -0.622327       -16.9344
  40   2.0000      -0.596399       -16.2288
  41   2.0000      -0.571533       -15.5522
  42   2.0000      -0.561826       -15.2881
  43   2.0000      -0.548693       -14.9307
  44   2.0000      -0.533853       -14.5269
  45   2.0000      -0.521290       -14.1850
  46   2.0000      -0.512462       -13.9448
  47   2.0000      -0.510162       -13.8822
  48   2.0000      -0.499625       -13.5955
  49   2.0000      -0.491223       -13.3668
  50   2.0000      -0.488006       -13.2793
  51   2.0000      -0.480541       -13.0762
  52   2.0000      -0.470435       -12.8012
  53   2.0000      -0.467398       -12.7185
  54   2.0000      -0.458895       -12.4872
  55   2.0000      -0.454803       -12.3758
  56   2.0000      -0.448978       -12.2173
  57   2.0000      -0.439245       -11.9525
  58   2.0000      -0.433147       -11.7865
  59   2.0000      -0.430534       -11.7154
  60   2.0000      -0.424003       -11.5377
  61   2.0000      -0.410281       -11.1643
  62   2.0000      -0.405989       -11.0475
  63   2.0000      -0.356433        -9.6990
  64   2.0000      -0.339246        -9.2314
  65   2.0000      -0.327567        -8.9136
  66   2.0000      -0.278629        -7.5819
  67   0.0000       0.022342         0.6079
  68   0.0000       0.077301         2.1035
  69   0.0000       0.091501         2.4899
  70   0.0000       0.123590         3.3631
  71   0.0000       0.129576         3.5259

MULLIKEN ATOMIC CHARGES
-----------------------
   0 S :    0.129583
   1 C :   -0.101972
   2 C :   -0.114164
   3 C :   -0.012904
   4 C :   -0.093273
   5 H :   -0.008102
   6 C :    0.058199
   7 H :    0.047164
   8 H :    0.025626
   9 C :   -0.114584
  10 H :    0.056905
  11 H :    0.037632
  12 C :   -0.064009
  13 H :    0.023292
  14 H :    0.027888
  15 H :    0.056778
  16 S :    0.069394
  17 C :   -0.072919
  18 C :   -0.038073
  19 C :   -0.076760
  20 C :   -0.103704
  21 H :    0.015055
  22 C :    0.036487
  23 H :    0.017891
  24 H :    0.015907
  25 C :   -0.026525
  26 H :    0.027351
  27 H :    0.028389
  28 C :   -0.037466
  29 H :    0.045726
  30 H :    0.037851
  31 H :    0.021878
  32 H :    0.031027
  33 H :    0.054433
Sum of atomic charges:   -0.0000000

LOEWDIN ATOMIC CHARGES
----------------------
   0 S :    0.407029
   1 C :   -0.198164
   2 C :   -0.062242
   3 C :   -0.066334
   4 C :   -0.176962
   5 H :    0.030808
   6 C :   -0.036310
   7 H :    0.041214
   8 H :    0.027795
   9 C :   -0.047664
  10 H :    0.040527
  11 H :    0.025114
  12 C :   -0.082588
  13 H :    0.029738
  14 H :    0.017338
  15 H :    0.037732
  16 S :    0.369713
  17 C :   -0.181145
  18 C :   -0.076362
  19 C :   -0.063841
  20 C :   -0.178740
  21 H :    0.030055
  22 C :   -0.027941
  23 H :    0.025799
  24 H :    0.025157
  25 C :   -0.029205
  26 H :    0.018137
  27 H :    0.029220
  28 C :   -0.068513
  29 H :    0.035766
  30 H :    0.031159
  31 H :    0.020336
  32 H :    0.021772
  33 H :    0.031602

  Mayer bond orders larger than 0.100000
B(  0-S ,  1-C ) :   1.1323 B(  0-S ,  4-C ) :   1.1490 B(  1-C ,  2-C ) :   1.5931
B(  1-C ,  4-C ) :   0.1087 B(  1-C , 32-H ) :   0.9628 B(  2-C ,  3-C ) :   1.3053
B(  2-C ,  6-C ) :   1.0054 B(  3-C ,  4-C ) :   1.5221 B(  3-C ,  5-H ) :   0.9916
B(  4-C , 20-C ) :   1.0708 B(  6-C ,  7-H ) :   0.9349 B(  6-C ,  8-H ) :   0.9473
B(  6-C ,  9-C ) :   1.0597 B(  9-C , 10-H ) :   0.9580 B(  9-C , 11-H ) :   0.9608
B(  9-C , 12-C ) :   1.0425 B( 12-C , 13-H ) :   0.9762 B( 12-C , 14-H ) :   0.9807
B( 12-C , 15-H ) :   0.9790 B( 16-S , 17-C ) :   1.1388 B( 16-S , 20-C ) :   1.0954
B( 17-C , 18-C ) :   1.6329 B( 17-C , 33-H ) :   0.9676 B( 18-C , 19-C ) :   1.2123
B( 18-C , 21-H ) :   0.9876 B( 19-C , 20-C ) :   1.6661 B( 19-C , 22-C ) :   1.0299
B( 22-C , 23-H ) :   0.9341 B( 22-C , 24-H ) :   0.9393 B( 22-C , 25-C ) :   1.0409
B( 25-C , 26-H ) :   0.9593 B( 25-C , 27-H ) :   0.9499 B( 25-C , 28-C ) :   1.0791
B( 28-C , 29-H ) :   0.9696 B( 28-C , 30-H ) :   0.9750 B( 28-C , 31-H ) :   0.9727

Dispersion correction           -0.014509672
FINAL SINGLE POINT ENERGY     -1339.849803391008

DIPOLE MOMENT
-------------
                                X             Y             Z
Electronic contribution:     11.63922     -19.60701      19.30964
Nuclear contribution   :    -11.85275      20.28773     -19.67685
                        -----------------------------------------
Total Dipole Moment    :     -0.21353       0.68072      -0.36721
                        -----------------------------------------
Magnitude (a.u.)       :      0.80238
Magnitude (Debye)      :      2.03950

Rotational constants in cm-1:     0.018471     0.009183     0.006561
Rotational constants in MHz :   553.743755   275.309157   196.687492

                             ****ORCA TERMINATED NORMALLY****
TOTAL RUN TIME: 0 days 0 hours 0 minutes 20 seconds 860 msec
