                         Program Version 4.2.1 -  RELEASE  -
|  1> ! wB97X-D3 SP def2-SVP
|  2> %pal
|  3> nprocs 24
|  4> end
|  5>
|  6> * xyz 0 1
|  7> S 	 45.2066 	 -23.07 	 -111.168
|  8> C 	 46.6572 	 -23.1058 	 -110.264
|  9> C 	 47.784 	 -22.9705 	 -111.065
| 10> C 	 47.4289 	 -22.8825 	 -112.453
| 11> C 	 46.08 	 -22.8784 	 -112.696
| 12> H 	 48.2276 	 -22.9617 	 -113.19
| 13> C 	 49.2571 	 -23.0225 	 -110.566
| 14> H 	 49.8633 	 -23.4922 	 -111.324
| 15> H 	 49.1768 	 -23.866 	 -109.909
| 16> C 	 50.0168 	 -21.8415 	 -109.935
| 17> H 	 49.5496 	 -21.663 	 -108.899
| 18> H 	 51.1165 	 -22.1694 	 -109.696
| 19> C 	 49.9373 	 -20.5203 	 -110.714
| 20> H 	 50.8028 	 -19.8809 	 -110.445
| 21> H 	 49.7908 	 -20.6135 	 -111.807
| 22> H 	 49.0538 	 -20.0029 	 -110.368
| 23> S 	 44.5943 	 -24.6454 	 -114.154
| 24> C 	 44.0956 	 -24.2076 	 -115.824
| 25> C 	 44.7552 	 -23.0627 	 -116.202
| 26> C 	 45.5835 	 -22.4591 	 -115.163
| 27> C 	 45.5788 	 -23.2198 	 -114.01
| 28> H 	 44.4839 	 -22.5925 	 -117.097
| 29> C 	 46.2477 	 -21.1693 	 -115.38
| 30> H 	 46.2914 	 -20.5783 	 -114.455
| 31> H 	 45.6362 	 -20.54 	 -116.061
| 32> C 	 47.6633 	 -21.4435 	 -115.862
| 33> H 	 47.6386 	 -22.2929 	 -116.573
| 34> H 	 48.3291 	 -21.8315 	 -115.043
| 35> C 	 48.2438 	 -20.157 	 -116.544
| 36> H 	 48.022 	 -20.2187 	 -117.686
| 37> H 	 49.3506 	 -20.2538 	 -116.28
| 38> H 	 47.9075 	 -19.2179 	 -115.978
| 39> H 	 46.6806 	 -23.0785 	 -109.159
| 40> H 	 43.4188 	 -24.5843 	 -116.496
| 41> *
| 42>
| 43>                          ****END OF INPUT****

CARTESIAN COORDINATES (ANGSTROEM)
---------------------------------
  S     45.206600  -23.070000  -111.168000
  C     46.657200  -23.105800  -110.264000
  C     47.784000  -22.970500  -111.065000
  C     47.428900  -22.882500  -112.453000
  C     46.080000  -22.878400  -112.696000
  H     48.227600  -22.961700  -113.190000
  C     49.257100  -23.022500  -110.566000
  H     49.863300  -23.492200  -111.324000
  H     49.176800  -23.866000  -109.909000
  C     50.016800  -21.841500  -109.935000
  H     49.549600  -21.663000  -108.899000
  H     51.116500  -22.169400  -109.696000
  C     49.937300  -20.520300  -110.714000
  H     50.802800  -19.880900  -110.445000
  H     49.790800  -20.613500  -111.807000
  H     49.053800  -20.002900  -110.368000
  S     44.594300  -24.645400  -114.154000
  C     44.095600  -24.207600  -115.824000
  C     44.755200  -23.062700  -116.202000
  C     45.583500  -22.459100  -115.163000
  C     45.578800  -23.219800  -114.010000
  H     44.483900  -22.592500  -117.097000
  C     46.247700  -21.169300  -115.380000
  H     46.291400  -20.578300  -114.455000
  H     45.636200  -20.540000  -116.061000
  C     47.663300  -21.443500  -115.862000
  H     47.638600  -22.292900  -116.573000
  H     48.329100  -21.831500  -115.043000
  C     48.243800  -20.157000  -116.544000
  H     48.022000  -20.218700  -117.686000
  H     49.350600  -20.253800  -116.280000
  H     47.907500  -19.217900  -115.978000
  H     46.680600  -23.078500  -109.159000
  H     43.418800  -24.584300  -116.496000

 Total Charge           Charge          ....    0
 Multiplicity           Mult            ....    1
 Number of Electrons    NEL             ....  134
 Basis Dimension        Dim             ....  322

ORBITAL ENERGIES
----------------

  NO   OCC          E(Eh)            E(eV)
   0   2.0000     -88.971339     -2421.0332
   1   2.0000     -88.963389     -2420.8169
   2   2.0000     -10.327887      -281.0361
   3   2.0000     -10.321552      -280.8637
   4   2.0000     -10.318654      -280.7848
   5   2.0000     -10.310837      -280.5721
   6   2.0000     -10.304975      -280.4126
   7   2.0000     -10.304713      -280.4055
   8   2.0000     -10.297217      -280.2015
   9   2.0000     -10.296469      -280.1812
  10   2.0000     -10.295784      -280.1625
  11   2.0000     -10.292396      -280.0703
  12   2.0000     -10.290664      -280.0232
  13   2.0000     -10.287715      -279.9430
  14   2.0000     -10.287053      -279.9250
  15   2.0000     -10.281292      -279.7682
  16   2.0000      -8.086201      -220.0367
  17   2.0000      -8.077348      -219.7958
  18   2.0000      -6.044772      -164.4866
  19   2.0000      -6.040595      -164.3730
  20   2.0000      -6.036963      -164.2741
  21   2.0000      -6.036173      -164.2526
  22   2.0000      -6.031909      -164.1366
  23   2.0000      -6.027856      -164.0263
  24   2.0000      -1.008524       -27.4433
  25   2.0000      -0.982094       -26.7241
  26   2.0000      -0.910825       -24.7848
  27   2.0000      -0.904619       -24.6159
  28   2.0000      -0.873338       -23.7647
  29   2.0000      -0.850150       -23.1338
  30   2.0000      -0.840029       -22.8583
  31   2.0000      -0.817898       -22.2561
  32   2.0000      -0.782876       -21.3031
  33   2.0000      -0.763937       -20.7878
  34   2.0000      -0.704724       -19.1765
  35   2.0000      -0.695031       -18.9128
  36   2.0000      -0.690015       -18.7763
  37   2.0000      -0.664934       -18.0938
  38   2.0000      -0.640266       -17.4225
  39   2.0000      -0.616846       -16.7852
  40   2.0000      -0.593285       -16.1441
  41   2.0000      -0.569917       -15.5082
  42   2.0000      -0.559884       -15.2352
  43   2.0000      -0.549421       -14.9505
  44   2.0000      -0.541781       -14.7426
  45   2.0000      -0.518660       -14.1135
  46   2.0000      -0.516237       -14.0475
  47   2.0000      -0.512411       -13.9434
  48   2.0000      -0.502962       -13.6863
  49   2.0000      -0.499727       -13.5983
  50   2.0000      -0.490677       -13.3520
  51   2.0000      -0.477900       -13.0043
  52   2.0000      -0.469769       -12.7831
  53   2.0000      -0.460959       -12.5433
  54   2.0000      -0.456164       -12.4129
  55   2.0000      -0.446013       -12.1366
  56   2.0000      -0.442387       -12.0380
  57   2.0000      -0.440520       -11.9872
  58   2.0000      -0.433154       -11.7867
  59   2.0000      -0.420582       -11.4446
  60   2.0000      -0.414081       -11.2677
  61   2.0000      -0.409906       -11.1541
  62   2.0000      -0.406523       -11.0621
  63   2.0000      -0.352542        -9.5932
  64   2.0000      -0.329361        -8.9624
  65   2.0000      -0.325619        -8.8605
  66   2.0000      -0.292958        -7.9718
  67   0.0000       0.030329         0.8253
  68   0.0000       0.068844         1.8733
  69   0.0000       0.115096         3.1319
  70   0.0000       0.122478         3.3328
  71   0.0000       0.125212         3.4072

MULLIKEN ATOMIC CHARGES
-----------------------
   0 S :    0.124627
   1 C :   -0.133510
   2 C :   -0.111349
   3 C :    0.017388
   4 C :   -0.131993
   5 H :    0.025701
   6 C :    0.063986
   7 H :    0.014483
   8 H :    0.020326
   9 C :   -0.100513
  10 H :    0.035981
  11 H :    0.048663
  12 C :   -0.051223
  13 H :    0.044768
  14 H :    0.038750
  15 H :    0.035067
  16 S :    0.100678
  17 C :   -0.051171
  18 C :   -0.017217
  19 C :   -0.069726
  20 C :   -0.150007
  21 H :   -0.001058
  22 C :    0.078200
  23 H :    0.031380
  24 H :    0.028691
  25 C :   -0.117363
  26 H :    0.035549
  27 H :    0.035503
  28 C :   -0.089991
  29 H :    0.070078
  30 H :    0.041090
  31 H :    0.051785
  32 H :    0.063936
  33 H :    0.018490
Sum of atomic charges:   -0.0000000

LOEWDIN ATOMIC CHARGES
----------------------
   0 S :    0.422067
   1 C :   -0.206301
   2 C :   -0.069189
   3 C :   -0.052365
   4 C :   -0.200473
   5 H :    0.030335
   6 C :   -0.043637
   7 H :    0.027994
   8 H :    0.032664
   9 C :   -0.051014
  10 H :    0.029225
  11 H :    0.035439
  12 C :   -0.075095
  13 H :    0.033035
  14 H :    0.027375
  15 H :    0.028549
  16 S :    0.387345
  17 C :   -0.165965
  18 C :   -0.059171
  19 C :   -0.056057
  20 C :   -0.199657
  21 H :    0.020435
  22 C :   -0.040296
  23 H :    0.033185
  24 H :    0.033334
  25 C :   -0.047100
  26 H :    0.025219
  27 H :    0.024931
  28 C :   -0.086834
  29 H :    0.042349
  30 H :    0.033504
  31 H :    0.033700
  32 H :    0.035671
  33 H :    0.016800

  Mayer bond orders larger than 0.100000
B(  0-S ,  1-C ) :   1.1613 B(  0-S ,  4-C ) :   1.1448 B(  1-C ,  2-C ) :   1.5953
B(  1-C , 32-H ) :   0.9619 B(  2-C ,  3-C ) :   1.2842 B(  2-C ,  6-C ) :   0.9946
B(  3-C ,  4-C ) :   1.5417 B(  3-C ,  5-H ) :   0.9788 B(  4-C , 20-C ) :   1.0350
B(  6-C ,  7-H ) :   0.9401 B(  6-C ,  8-H ) :   0.9407 B(  6-C ,  9-C ) :   1.0690
B(  9-C , 10-H ) :   0.9593 B(  9-C , 11-H ) :   0.9561 B(  9-C , 12-C ) :   1.0590
B( 12-C , 13-H ) :   0.9747 B( 12-C , 14-H ) :   0.9805 B( 12-C , 15-H ) :   0.9721
B( 16-S , 17-C ) :   1.1186 B( 16-S , 20-C ) :   1.1222 B( 17-C , 18-C ) :   1.6594
B( 17-C , 33-H ) :   0.9737 B( 18-C , 19-C ) :   1.2179 B( 18-C , 21-H ) :   0.9881
B( 19-C , 20-C ) :   1.6231 B( 19-C , 22-C ) :   1.0657 B( 22-C , 23-H ) :   0.9117
B( 22-C , 24-H ) :   0.9417 B( 22-C , 25-C ) :   1.0487 B( 25-C , 26-H ) :   0.9610
B( 25-C , 27-H ) :   0.9524 B( 25-C , 28-C ) :   1.0545 B( 28-C , 29-H ) :   0.9754
B( 28-C , 30-H ) :   0.9767 B( 28-C , 31-H ) :   0.9712

Dispersion correction           -0.014570066
FINAL SINGLE POINT ENERGY     -1339.857146829767

DIPOLE MOMENT
-------------
                                X             Y             Z
Electronic contribution:    -24.46084     -17.15486       3.30591
Nuclear contribution   :     24.93006      17.46427      -3.33260
                        -----------------------------------------
Total Dipole Moment    :      0.46921       0.30940      -0.02669
                        -----------------------------------------
Magnitude (a.u.)       :      0.56268
Magnitude (Debye)      :      1.43021

Rotational constants in cm-1:     0.017667     0.009615     0.006751
Rotational constants in MHz :   529.632817   288.260272   202.391892

                             ****ORCA TERMINATED NORMALLY****
TOTAL RUN TIME: 0 days 0 hours 0 minutes 20 seconds 680 msec
