                         Program Version 4.2.1 -  RELEASE  -
|  1> ! wB97X-D3 SP def2-SVP
|  2> %pal
|  3> nprocs 24
|  4> end
|  5>
|  6> * xyz 0 1
|  7> S 	 -51.0788 	 1.54213 	 -18.2526
|  8> C 	 -50.5843 	 0.0540456 	 -19.0418
|  9> C 	 -49.2181 	 -0.196592 	 -18.9148
| 10> C 	 -48.6056 	 0.849845 	 -18.1244
| 11> C 	 -49.4535 	 1.82742 	 -17.6592
| 12> H 	 -47.5619 	 1.05072 	 -17.837
| 13> C 	 -48.4488 	 -1.27702 	 -19.5667
| 14> H 	 -47.4624 	 -1.24875 	 -19.1455
| 15> H 	 -48.2512 	 -0.924229 	 -20.5472
| 16> C 	 -49.0546 	 -2.71429 	 -19.5186
| 17> H 	 -49.4192 	 -2.83165 	 -18.5169
| 18> H 	 -49.9487 	 -2.77661 	 -20.1526
| 19> C 	 -47.9808 	 -3.69127 	 -19.9667
| 20> H 	 -47.1516 	 -3.4342 	 -20.7211
| 21> H 	 -47.4197 	 -4.05523 	 -19.1052
| 22> H 	 -48.4514 	 -4.57664 	 -20.3852
| 23> S 	 -49.5709 	 4.51004 	 -17.8865
| 24> C 	 -49.0773 	 5.5041 	 -16.5642
| 25> C 	 -48.5975 	 4.81335 	 -15.4819
| 26> C 	 -48.5694 	 3.36987 	 -15.642
| 27> C 	 -49.1892 	 3.08422 	 -16.8817
| 28> H 	 -48.356 	 5.4274 	 -14.5301
| 29> C 	 -48.0783 	 2.54464 	 -14.5517
| 30> H 	 -47.6001 	 3.10057 	 -13.8215
| 31> H 	 -47.2453 	 1.91179 	 -14.8492
| 32> C 	 -49.0643 	 1.58705 	 -13.8386
| 33> H 	 -49.0069 	 0.608346 	 -14.2929
| 34> H 	 -50.0509 	 1.85421 	 -14.1209
| 35> C 	 -48.8702 	 1.27698 	 -12.3511
| 36> H 	 -48.8994 	 2.22469 	 -11.8353
| 37> H 	 -47.8657 	 0.938371 	 -12.1837
| 38> H 	 -49.6525 	 0.587045 	 -11.8941
| 39> H 	 -51.2872 	 -0.670624 	 -19.4619
| 40> H 	 -49.2473 	 6.58935 	 -16.6529
| 41> *
| 42>
| 43>                          ****END OF INPUT****

CARTESIAN COORDINATES (ANGSTROEM)
---------------------------------
  S    -51.078800    1.542130  -18.252600
  C    -50.584300    0.054046  -19.041800
  C    -49.218100   -0.196592  -18.914800
  C    -48.605600    0.849845  -18.124400
  C    -49.453500    1.827420  -17.659200
  H    -47.561900    1.050720  -17.837000
  C    -48.448800   -1.277020  -19.566700
  H    -47.462400   -1.248750  -19.145500
  H    -48.251200   -0.924229  -20.547200
  C    -49.054600   -2.714290  -19.518600
  H    -49.419200   -2.831650  -18.516900
  H    -49.948700   -2.776610  -20.152600
  C    -47.980800   -3.691270  -19.966700
  H    -47.151600   -3.434200  -20.721100
  H    -47.419700   -4.055230  -19.105200
  H    -48.451400   -4.576640  -20.385200
  S    -49.570900    4.510040  -17.886500
  C    -49.077300    5.504100  -16.564200
  C    -48.597500    4.813350  -15.481900
  C    -48.569400    3.369870  -15.642000
  C    -49.189200    3.084220  -16.881700
  H    -48.356000    5.427400  -14.530100
  C    -48.078300    2.544640  -14.551700
  H    -47.600100    3.100570  -13.821500
  H    -47.245300    1.911790  -14.849200
  C    -49.064300    1.587050  -13.838600
  H    -49.006900    0.608346  -14.292900
  H    -50.050900    1.854210  -14.120900
  C    -48.870200    1.276980  -12.351100
  H    -48.899400    2.224690  -11.835300
  H    -47.865700    0.938371  -12.183700
  H    -49.652500    0.587045  -11.894100
  H    -51.287200   -0.670624  -19.461900
  H    -49.247300    6.589350  -16.652900

 Total Charge           Charge          ....    0
 Multiplicity           Mult            ....    1
 Number of Electrons    NEL             ....  134
 Basis Dimension        Dim             ....  322

ORBITAL ENERGIES
----------------

  NO   OCC          E(Eh)            E(eV)
   0   2.0000     -88.965879     -2420.8846
   1   2.0000     -88.961334     -2420.7610
   2   2.0000     -10.335265      -281.2368
   3   2.0000     -10.326567      -281.0002
   4   2.0000     -10.314431      -280.6699
   5   2.0000     -10.312740      -280.6239
   6   2.0000     -10.312291      -280.6117
   7   2.0000     -10.301286      -280.3122
   8   2.0000     -10.300844      -280.3002
   9   2.0000     -10.292930      -280.0849
  10   2.0000     -10.291671      -280.0506
  11   2.0000     -10.285839      -279.8919
  12   2.0000     -10.284273      -279.8493
  13   2.0000     -10.284226      -279.8480
  14   2.0000     -10.280573      -279.7486
  15   2.0000     -10.276857      -279.6475
  16   2.0000      -8.080744      -219.8882
  17   2.0000      -8.075978      -219.7585
  18   2.0000      -6.039162      -164.3339
  19   2.0000      -6.035359      -164.2305
  20   2.0000      -6.034464      -164.2061
  21   2.0000      -6.031451      -164.1241
  22   2.0000      -6.030436      -164.0965
  23   2.0000      -6.026834      -163.9985
  24   2.0000      -1.001089       -27.2410
  25   2.0000      -0.979979       -26.6666
  26   2.0000      -0.915034       -24.8993
  27   2.0000      -0.912419       -24.8282
  28   2.0000      -0.862293       -23.4642
  29   2.0000      -0.855061       -23.2674
  30   2.0000      -0.844679       -22.9849
  31   2.0000      -0.810612       -22.0579
  32   2.0000      -0.786488       -21.4014
  33   2.0000      -0.769318       -20.9342
  34   2.0000      -0.714783       -19.4502
  35   2.0000      -0.709539       -19.3075
  36   2.0000      -0.682865       -18.5817
  37   2.0000      -0.656389       -17.8612
  38   2.0000      -0.639694       -17.4070
  39   2.0000      -0.613768       -16.7015
  40   2.0000      -0.598279       -16.2800
  41   2.0000      -0.566631       -15.4188
  42   2.0000      -0.561038       -15.2666
  43   2.0000      -0.555828       -15.1248
  44   2.0000      -0.528233       -14.3740
  45   2.0000      -0.522672       -14.2226
  46   2.0000      -0.516698       -14.0601
  47   2.0000      -0.514379       -13.9970
  48   2.0000      -0.503891       -13.7116
  49   2.0000      -0.489620       -13.3232
  50   2.0000      -0.489129       -13.3099
  51   2.0000      -0.483656       -13.1609
  52   2.0000      -0.470133       -12.7930
  53   2.0000      -0.462073       -12.5736
  54   2.0000      -0.456723       -12.4281
  55   2.0000      -0.453521       -12.3409
  56   2.0000      -0.448171       -12.1953
  57   2.0000      -0.439038       -11.9468
  58   2.0000      -0.433368       -11.7925
  59   2.0000      -0.425283       -11.5725
  60   2.0000      -0.421297       -11.4641
  61   2.0000      -0.417489       -11.3605
  62   2.0000      -0.401492       -10.9251
  63   2.0000      -0.340083        -9.2541
  64   2.0000      -0.330895        -9.0041
  65   2.0000      -0.323895        -8.8136
  66   2.0000      -0.293931        -7.9983
  67   0.0000       0.036151         0.9837
  68   0.0000       0.063473         1.7272
  69   0.0000       0.108987         2.9657
  70   0.0000       0.122447         3.3320
  71   0.0000       0.132949         3.6177

MULLIKEN ATOMIC CHARGES
-----------------------
   0 S :    0.100197
   1 C :   -0.132533
   2 C :   -0.102554
   3 C :    0.037094
   4 C :   -0.176270
   5 H :    0.013696
   6 C :    0.091713
   7 H :    0.007661
   8 H :    0.033957
   9 C :   -0.059708
  10 H :    0.034664
  11 H :    0.035338
  12 C :   -0.069367
  13 H :    0.048043
  14 H :    0.033897
  15 H :    0.027129
  16 S :    0.108942
  17 C :   -0.101841
  18 C :   -0.072808
  19 C :   -0.009530
  20 C :   -0.177605
  21 H :    0.053158
  22 C :    0.126864
  23 H :   -0.016471
  24 H :    0.023167
  25 C :   -0.064420
  26 H :    0.021602
  27 H :    0.019985
  28 C :   -0.058914
  29 H :    0.021566
  30 H :    0.025120
  31 H :    0.057607
  32 H :    0.054878
  33 H :    0.065744
Sum of atomic charges:    0.0000000

LOEWDIN ATOMIC CHARGES
----------------------
   0 S :    0.395680
   1 C :   -0.203547
   2 C :   -0.061754
   3 C :   -0.073368
   4 C :   -0.202424
   5 H :    0.035804
   6 C :   -0.031733
   7 H :    0.028311
   8 H :    0.033583
   9 C :   -0.033291
  10 H :    0.026699
  11 H :    0.024134
  12 C :   -0.077498
  13 H :    0.037902
  14 H :    0.027936
  15 H :    0.024724
  16 S :    0.405952
  17 C :   -0.197762
  18 C :   -0.081984
  19 C :   -0.047651
  20 C :   -0.184681
  21 H :    0.048078
  22 C :   -0.032923
  23 H :    0.021606
  24 H :    0.039744
  25 C :   -0.039218
  26 H :    0.024298
  27 H :    0.018581
  28 C :   -0.065663
  29 H :    0.019086
  30 H :    0.021020
  31 H :    0.040966
  32 H :    0.028835
  33 H :    0.030560

  Mayer bond orders larger than 0.100000
B(  0-S ,  1-C ) :   1.1354 B(  0-S ,  4-C ) :   1.1524 B(  1-C ,  2-C ) :   1.6086
B(  1-C , 32-H ) :   0.9680 B(  2-C ,  3-C ) :   1.2120 B(  2-C ,  6-C ) :   1.0255
B(  3-C ,  4-C ) :   1.6202 B(  3-C ,  5-H ) :   0.9886 B(  4-C , 20-C ) :   0.9857
B(  6-C ,  7-H ) :   0.9398 B(  6-C ,  8-H ) :   0.9216 B(  6-C ,  9-C ) :   1.0522
B(  9-C , 10-H ) :   0.9643 B(  9-C , 11-H ) :   0.9563 B(  9-C , 12-C ) :   1.0704
B( 12-C , 13-H ) :   0.9763 B( 12-C , 14-H ) :   0.9747 B( 12-C , 15-H ) :   0.9746
B( 16-S , 17-C ) :   1.1476 B( 16-S , 20-C ) :   1.1592 B( 17-C , 18-C ) :   1.6426
B( 17-C , 33-H ) :   0.9627 B( 18-C , 19-C ) :   1.2079 B( 18-C , 21-H ) :   0.9706
B( 19-C , 20-C ) :   1.5934 B( 19-C , 22-C ) :   1.0842 B( 22-C , 23-H ) :   0.9251
B( 22-C , 24-H ) :   0.9073 B( 22-C , 25-C ) :   1.0377 B( 25-C , 26-H ) :   0.9505
B( 25-C , 27-H ) :   0.9653 B( 25-C , 28-C ) :   1.0832 B( 28-C , 29-H ) :   0.9759
B( 28-C , 30-H ) :   0.9743 B( 28-C , 31-H ) :   0.9732

Dispersion correction           -0.013477315
FINAL SINGLE POINT ENERGY     -1339.859894622544

DIPOLE MOMENT
-------------
                                X             Y             Z
Electronic contribution:    -10.57752      23.29655      -9.70275
Nuclear contribution   :     11.01029     -23.67806       9.93056
                        -----------------------------------------
Total Dipole Moment    :      0.43277      -0.38151       0.22780
                        -----------------------------------------
Magnitude (a.u.)       :      0.62027
Magnitude (Debye)      :      1.57660

Rotational constants in cm-1:     0.018748     0.007609     0.006125
Rotational constants in MHz :   562.037285   228.106680   183.633725

                             ****ORCA TERMINATED NORMALLY****
TOTAL RUN TIME: 0 days 0 hours 0 minutes 20 seconds 746 msec
