                         Program Version 4.2.1 -  RELEASE  -
|  1> ! wB97X-D3 SP def2-SVP
|  2> %pal
|  3> nprocs 24
|  4> end
|  5>
|  6> * xyz 0 1
|  7> S 	 -109.161 	 64.907 	 -2.17782
|  8> C 	 -108.049 	 65.9558 	 -3.00932
|  9> C 	 -108.429 	 66.2885 	 -4.31845
| 10> C 	 -109.51 	 65.4287 	 -4.6841
| 11> C 	 -110.05 	 64.6434 	 -3.64796
| 12> H 	 -110.028 	 65.3615 	 -5.60352
| 13> C 	 -107.701 	 67.217 	 -5.30895
| 14> H 	 -107.708 	 68.2547 	 -4.95005
| 15> H 	 -108.251 	 67.1926 	 -6.21122
| 16> C 	 -106.215 	 66.7686 	 -5.61287
| 17> H 	 -105.64 	 66.8904 	 -4.68556
| 18> H 	 -106.183 	 65.7029 	 -5.78839
| 19> C 	 -105.514 	 67.5112 	 -6.69468
| 20> H 	 -105.25 	 68.5183 	 -6.35787
| 21> H 	 -104.528 	 66.9491 	 -6.80996
| 22> H 	 -106.102 	 67.5288 	 -7.59909
| 23> S 	 -110.712 	 61.9434 	 -3.9821
| 24> C 	 -112.422 	 61.5924 	 -3.97261
| 25> C 	 -113.25 	 62.7095 	 -3.96089
| 26> C 	 -112.524 	 63.9133 	 -3.746
| 27> C 	 -111.14 	 63.681 	 -3.71433
| 28> H 	 -114.293 	 62.5941 	 -3.83138
| 29> C 	 -113.091 	 65.3284 	 -3.7948
| 30> H 	 -113.877 	 65.2003 	 -4.54735
| 31> H 	 -112.368 	 66.0852 	 -4.22394
| 32> C 	 -113.737 	 65.879 	 -2.4276
| 33> H 	 -114.134 	 65.0001 	 -1.87902
| 34> H 	 -114.553 	 66.5081 	 -2.66602
| 35> C 	 -112.614 	 66.4986 	 -1.53125
| 36> H 	 -112.858 	 66.5536 	 -0.473346
| 37> H 	 -112.385 	 67.4438 	 -2.00394
| 38> H 	 -111.711 	 65.884 	 -1.35717
| 39> H 	 -107.221 	 66.4451 	 -2.43622
| 40> H 	 -112.785 	 60.5354 	 -4.19261
| 41> *
| 42>
| 43>                          ****END OF INPUT****

CARTESIAN COORDINATES (ANGSTROEM)
---------------------------------
  S    -109.161000   64.907000   -2.177820
  C    -108.049000   65.955800   -3.009320
  C    -108.429000   66.288500   -4.318450
  C    -109.510000   65.428700   -4.684100
  C    -110.050000   64.643400   -3.647960
  H    -110.028000   65.361500   -5.603520
  C    -107.701000   67.217000   -5.308950
  H    -107.708000   68.254700   -4.950050
  H    -108.251000   67.192600   -6.211220
  C    -106.215000   66.768600   -5.612870
  H    -105.640000   66.890400   -4.685560
  H    -106.183000   65.702900   -5.788390
  C    -105.514000   67.511200   -6.694680
  H    -105.250000   68.518300   -6.357870
  H    -104.528000   66.949100   -6.809960
  H    -106.102000   67.528800   -7.599090
  S    -110.712000   61.943400   -3.982100
  C    -112.422000   61.592400   -3.972610
  C    -113.250000   62.709500   -3.960890
  C    -112.524000   63.913300   -3.746000
  C    -111.140000   63.681000   -3.714330
  H    -114.293000   62.594100   -3.831380
  C    -113.091000   65.328400   -3.794800
  H    -113.877000   65.200300   -4.547350
  H    -112.368000   66.085200   -4.223940
  C    -113.737000   65.879000   -2.427600
  H    -114.134000   65.000100   -1.879020
  H    -114.553000   66.508100   -2.666020
  C    -112.614000   66.498600   -1.531250
  H    -112.858000   66.553600   -0.473346
  H    -112.385000   67.443800   -2.003940
  H    -111.711000   65.884000   -1.357170
  H    -107.221000   66.445100   -2.436220
  H    -112.785000   60.535400   -4.192610

 Total Charge           Charge          ....    0
 Multiplicity           Mult            ....    1
 Number of Electrons    NEL             ....  134
 Basis Dimension        Dim             ....  322

ORBITAL ENERGIES
----------------

  NO   OCC          E(Eh)            E(eV)
   0   2.0000     -88.966734     -2420.9079
   1   2.0000     -88.966347     -2420.8974
   2   2.0000     -10.325242      -280.9641
   3   2.0000     -10.324327      -280.9392
   4   2.0000     -10.323295      -280.9111
   5   2.0000     -10.317571      -280.7554
   6   2.0000     -10.306357      -280.4502
   7   2.0000     -10.306217      -280.4464
   8   2.0000     -10.297581      -280.2114
   9   2.0000     -10.295668      -280.1594
  10   2.0000     -10.292814      -280.0817
  11   2.0000     -10.292638      -280.0769
  12   2.0000     -10.289815      -280.0001
  13   2.0000     -10.284824      -279.8643
  14   2.0000     -10.281404      -279.7712
  15   2.0000     -10.272486      -279.5286
  16   2.0000      -8.081226      -219.9014
  17   2.0000      -8.080400      -219.8789
  18   2.0000      -6.039551      -164.3445
  19   2.0000      -6.038729      -164.3222
  20   2.0000      -6.035639      -164.2381
  21   2.0000      -6.035182      -164.2256
  22   2.0000      -6.032330      -164.1480
  23   2.0000      -6.031205      -164.1174
  24   2.0000      -0.999969       -27.2105
  25   2.0000      -0.978156       -26.6170
  26   2.0000      -0.908873       -24.7317
  27   2.0000      -0.894795       -24.3486
  28   2.0000      -0.865097       -23.5405
  29   2.0000      -0.850076       -23.1317
  30   2.0000      -0.845588       -23.0096
  31   2.0000      -0.806236       -21.9388
  32   2.0000      -0.782902       -21.3039
  33   2.0000      -0.764083       -20.7918
  34   2.0000      -0.702678       -19.1209
  35   2.0000      -0.697624       -18.9833
  36   2.0000      -0.685557       -18.6549
  37   2.0000      -0.655518       -17.8376
  38   2.0000      -0.645558       -17.5665
  39   2.0000      -0.610864       -16.6224
  40   2.0000      -0.591123       -16.0853
  41   2.0000      -0.570092       -15.5130
  42   2.0000      -0.558420       -15.1954
  43   2.0000      -0.544027       -14.8037
  44   2.0000      -0.539744       -14.6872
  45   2.0000      -0.524229       -14.2650
  46   2.0000      -0.514906       -14.0113
  47   2.0000      -0.506478       -13.7820
  48   2.0000      -0.500914       -13.6306
  49   2.0000      -0.488671       -13.2974
  50   2.0000      -0.479322       -13.0430
  51   2.0000      -0.474823       -12.9206
  52   2.0000      -0.471918       -12.8415
  53   2.0000      -0.464867       -12.6497
  54   2.0000      -0.454219       -12.3599
  55   2.0000      -0.452337       -12.3087
  56   2.0000      -0.446491       -12.1496
  57   2.0000      -0.431555       -11.7432
  58   2.0000      -0.426841       -11.6149
  59   2.0000      -0.421992       -11.4830
  60   2.0000      -0.420549       -11.4437
  61   2.0000      -0.418644       -11.3919
  62   2.0000      -0.413432       -11.2501
  63   2.0000      -0.336905        -9.1677
  64   2.0000      -0.328325        -8.9342
  65   2.0000      -0.316220        -8.6048
  66   2.0000      -0.304234        -8.2786
  67   0.0000       0.039397         1.0720
  68   0.0000       0.051284         1.3955
  69   0.0000       0.105411         2.8684
  70   0.0000       0.117267         3.1910
  71   0.0000       0.127244         3.4625

MULLIKEN ATOMIC CHARGES
-----------------------
   0 S :    0.127170
   1 C :   -0.156061
   2 C :   -0.077592
   3 C :    0.062622
   4 C :   -0.203486
   5 H :   -0.005039
   6 C :    0.099208
   7 H :    0.036932
   8 H :    0.005552
   9 C :   -0.107308
  10 H :    0.023670
  11 H :    0.032528
  12 C :   -0.034179
  13 H :    0.030879
  14 H :    0.044571
  15 H :    0.035709
  16 S :    0.114067
  17 C :   -0.119008
  18 C :   -0.015393
  19 C :   -0.005539
  20 C :   -0.191704
  21 H :    0.015934
  22 C :    0.019775
  23 H :    0.024941
  24 H :    0.044420
  25 C :   -0.047738
  26 H :    0.027303
  27 H :    0.030213
  28 C :   -0.046787
  29 H :    0.025734
  30 H :    0.037888
  31 H :    0.023850
  32 H :    0.066153
  33 H :    0.080712
Sum of atomic charges:    0.0000000

LOEWDIN ATOMIC CHARGES
----------------------
   0 S :    0.431690
   1 C :   -0.205510
   2 C :   -0.063005
   3 C :   -0.053933
   4 C :   -0.211324
   5 H :    0.023717
   6 C :   -0.025284
   7 H :    0.033979
   8 H :    0.021336
   9 C :   -0.044237
  10 H :    0.023113
  11 H :    0.023412
  12 C :   -0.065353
  13 H :    0.024800
  14 H :    0.040330
  15 H :    0.022265
  16 S :    0.386905
  17 C :   -0.186105
  18 C :   -0.075783
  19 C :   -0.045988
  20 C :   -0.196732
  21 H :    0.027672
  22 C :   -0.033642
  23 H :    0.030174
  24 H :    0.036710
  25 C :   -0.031604
  26 H :    0.025247
  27 H :    0.017816
  28 C :   -0.073627
  29 H :    0.025140
  30 H :    0.024501
  31 H :    0.021256
  32 H :    0.031855
  33 H :    0.040208

  Mayer bond orders larger than 0.100000
B(  0-S ,  1-C ) :   1.1733 B(  0-S ,  4-C ) :   1.1633 B(  1-C ,  2-C ) :   1.5709
B(  1-C ,  4-C ) :   0.1033 B(  1-C , 32-H ) :   0.9627 B(  2-C ,  3-C ) :   1.2510
B(  2-C ,  6-C ) :   1.0270 B(  3-C ,  4-C ) :   1.5742 B(  3-C ,  5-H ) :   0.9937
B(  4-C , 20-C ) :   1.0289 B(  6-C ,  7-H ) :   0.9354 B(  6-C ,  8-H ) :   0.9411
B(  6-C ,  9-C ) :   1.0589 B(  9-C , 10-H ) :   0.9519 B(  9-C , 11-H ) :   0.9601
B(  9-C , 12-C ) :   1.0937 B( 12-C , 13-H ) :   0.9726 B( 12-C , 14-H ) :   0.9702
B( 12-C , 15-H ) :   0.9749 B( 16-S , 17-C ) :   1.1660 B( 16-S , 20-C ) :   1.1298
B( 17-C , 18-C ) :   1.6175 B( 17-C , 33-H ) :   0.9545 B( 18-C , 19-C ) :   1.2445
B( 18-C , 21-H ) :   0.9846 B( 19-C , 20-C ) :   1.5996 B( 19-C , 22-C ) :   1.0315
B( 22-C , 23-H ) :   0.9379 B( 22-C , 24-H ) :   0.9414 B( 22-C , 25-C ) :   1.0480
B( 25-C , 26-H ) :   0.9629 B( 25-C , 27-H ) :   0.9618 B( 25-C , 28-C ) :   1.0647
B( 28-C , 29-H ) :   0.9724 B( 28-C , 30-H ) :   0.9794 B( 28-C , 31-H ) :   0.9694

Dispersion correction           -0.014917938
FINAL SINGLE POINT ENERGY     -1339.873139662889

DIPOLE MOMENT
-------------
                                X             Y             Z
Electronic contribution:     -3.34662     -19.97483       6.51508
Nuclear contribution   :      3.25885      20.35221      -6.82384
                        -----------------------------------------
Total Dipole Moment    :     -0.08777       0.37739      -0.30876
                        -----------------------------------------
Magnitude (a.u.)       :      0.49544
Magnitude (Debye)      :      1.25930

Rotational constants in cm-1:     0.020979     0.007693     0.006725
Rotational constants in MHz :   628.943778   230.618423   201.607498

                             ****ORCA TERMINATED NORMALLY****
TOTAL RUN TIME: 0 days 0 hours 0 minutes 21 seconds 471 msec
