                         Program Version 4.2.1 -  RELEASE  -
|  1> ! wB97X-D3 SP def2-SVP
|  2> %pal
|  3> nprocs 24
|  4> end
|  5>
|  6> * xyz 0 1
|  7> S 	 -116.306 	 46.0007 	 -112.23
|  8> C 	 -117.412 	 44.6883 	 -111.785
|  9> C 	 -116.961 	 44.0098 	 -110.669
| 10> C 	 -115.661 	 44.3998 	 -110.298
| 11> C 	 -115.188 	 45.4735 	 -111.049
| 12> H 	 -115.097 	 44.167 	 -109.399
| 13> C 	 -117.56 	 42.6531 	 -110.223
| 14> H 	 -116.837 	 42.3735 	 -109.503
| 15> H 	 -117.479 	 41.8971 	 -111.041
| 16> C 	 -118.977 	 42.7733 	 -109.739
| 17> H 	 -119.195 	 43.6266 	 -109.162
| 18> H 	 -119.505 	 43.0257 	 -110.68
| 19> C 	 -119.391 	 41.3979 	 -109.051
| 20> H 	 -118.685 	 41.0809 	 -108.215
| 21> H 	 -120.409 	 41.3954 	 -108.748
| 22> H 	 -119.336 	 40.6716 	 -109.819
| 23> S 	 -113.997 	 47.8802 	 -110.418
| 24> C 	 -112.255 	 48.0043 	 -110.569
| 25> C 	 -111.687 	 46.7565 	 -110.6
| 26> C 	 -112.622 	 45.7133 	 -110.772
| 27> C 	 -113.955 	 46.1825 	 -110.727
| 28> H 	 -110.649 	 46.6198 	 -110.589
| 29> C 	 -112.08 	 44.3878 	 -111.136
| 30> H 	 -112.997 	 43.8323 	 -111.007
| 31> H 	 -111.357 	 44.2995 	 -110.256
| 32> C 	 -111.278 	 44.1904 	 -112.441
| 33> H 	 -111.059 	 43.1433 	 -112.561
| 34> H 	 -110.259 	 44.6568 	 -112.297
| 35> C 	 -111.974 	 44.571 	 -113.735
| 36> H 	 -113.087 	 44.3311 	 -113.694
| 37> H 	 -111.591 	 44.0965 	 -114.609
| 38> H 	 -111.812 	 45.6071 	 -113.784
| 39> H 	 -118.317 	 44.5349 	 -112.334
| 40> H 	 -111.701 	 48.8993 	 -110.473
| 41> *
| 42>
| 43>                          ****END OF INPUT****

CARTESIAN COORDINATES (ANGSTROEM)
---------------------------------
  S    -116.306000   46.000700  -112.230000
  C    -117.412000   44.688300  -111.785000
  C    -116.961000   44.009800  -110.669000
  C    -115.661000   44.399800  -110.298000
  C    -115.188000   45.473500  -111.049000
  H    -115.097000   44.167000  -109.399000
  C    -117.560000   42.653100  -110.223000
  H    -116.837000   42.373500  -109.503000
  H    -117.479000   41.897100  -111.041000
  C    -118.977000   42.773300  -109.739000
  H    -119.195000   43.626600  -109.162000
  H    -119.505000   43.025700  -110.680000
  C    -119.391000   41.397900  -109.051000
  H    -118.685000   41.080900  -108.215000
  H    -120.409000   41.395400  -108.748000
  H    -119.336000   40.671600  -109.819000
  S    -113.997000   47.880200  -110.418000
  C    -112.255000   48.004300  -110.569000
  C    -111.687000   46.756500  -110.600000
  C    -112.622000   45.713300  -110.772000
  C    -113.955000   46.182500  -110.727000
  H    -110.649000   46.619800  -110.589000
  C    -112.080000   44.387800  -111.136000
  H    -112.997000   43.832300  -111.007000
  H    -111.357000   44.299500  -110.256000
  C    -111.278000   44.190400  -112.441000
  H    -111.059000   43.143300  -112.561000
  H    -110.259000   44.656800  -112.297000
  C    -111.974000   44.571000  -113.735000
  H    -113.087000   44.331100  -113.694000
  H    -111.591000   44.096500  -114.609000
  H    -111.812000   45.607100  -113.784000
  H    -118.317000   44.534900  -112.334000
  H    -111.701000   48.899300  -110.473000

 Total Charge           Charge          ....    0
 Multiplicity           Mult            ....    1
 Number of Electrons    NEL             ....  134
 Basis Dimension        Dim             ....  322

ORBITAL ENERGIES
----------------

  NO   OCC          E(Eh)            E(eV)
   0   2.0000     -88.969041     -2420.9707
   1   2.0000     -88.964245     -2420.8402
   2   2.0000     -10.325419      -280.9689
   3   2.0000     -10.322784      -280.8972
   4   2.0000     -10.314020      -280.6587
   5   2.0000     -10.312420      -280.6152
   6   2.0000     -10.299276      -280.2575
   7   2.0000     -10.296075      -280.1704
   8   2.0000     -10.290948      -280.0309
   9   2.0000     -10.290135      -280.0088
  10   2.0000     -10.289544      -279.9927
  11   2.0000     -10.288318      -279.9594
  12   2.0000     -10.286081      -279.8985
  13   2.0000     -10.283785      -279.8360
  14   2.0000     -10.281758      -279.7808
  15   2.0000     -10.269801      -279.4555
  16   2.0000      -8.084011      -219.9771
  17   2.0000      -8.079339      -219.8500
  18   2.0000      -6.042278      -164.4187
  19   2.0000      -6.038477      -164.3153
  20   2.0000      -6.037824      -164.2975
  21   2.0000      -6.035015      -164.2211
  22   2.0000      -6.033795      -164.1879
  23   2.0000      -6.030119      -164.0879
  24   2.0000      -1.009917       -27.4812
  25   2.0000      -0.987125       -26.8610
  26   2.0000      -0.913307       -24.8523
  27   2.0000      -0.909933       -24.7605
  28   2.0000      -0.867840       -23.6151
  29   2.0000      -0.854028       -23.2393
  30   2.0000      -0.848608       -23.0918
  31   2.0000      -0.812673       -22.1140
  32   2.0000      -0.781685       -21.2707
  33   2.0000      -0.769750       -20.9460
  34   2.0000      -0.713498       -19.4153
  35   2.0000      -0.704452       -19.1691
  36   2.0000      -0.693918       -18.8825
  37   2.0000      -0.662416       -18.0253
  38   2.0000      -0.646871       -17.6023
  39   2.0000      -0.614218       -16.7137
  40   2.0000      -0.585349       -15.9282
  41   2.0000      -0.567508       -15.4427
  42   2.0000      -0.559269       -15.2185
  43   2.0000      -0.552772       -15.0417
  44   2.0000      -0.547277       -14.8922
  45   2.0000      -0.526696       -14.3321
  46   2.0000      -0.522301       -14.2125
  47   2.0000      -0.513048       -13.9607
  48   2.0000      -0.500407       -13.6168
  49   2.0000      -0.496527       -13.5112
  50   2.0000      -0.491986       -13.3876
  51   2.0000      -0.479015       -13.0347
  52   2.0000      -0.474951       -12.9241
  53   2.0000      -0.462199       -12.5771
  54   2.0000      -0.455525       -12.3955
  55   2.0000      -0.452661       -12.3175
  56   2.0000      -0.448198       -12.1961
  57   2.0000      -0.439747       -11.9661
  58   2.0000      -0.438617       -11.9354
  59   2.0000      -0.424512       -11.5516
  60   2.0000      -0.416697       -11.3389
  61   2.0000      -0.411107       -11.1868
  62   2.0000      -0.400970       -10.9109
  63   2.0000      -0.341945        -9.3048
  64   2.0000      -0.335437        -9.1277
  65   2.0000      -0.327095        -8.9007
  66   2.0000      -0.290079        -7.8934
  67   0.0000       0.031854         0.8668
  68   0.0000       0.066949         1.8218
  69   0.0000       0.112053         3.0491
  70   0.0000       0.116935         3.1820
  71   0.0000       0.127806         3.4778

MULLIKEN ATOMIC CHARGES
-----------------------
   0 S :    0.124668
   1 C :   -0.139622
   2 C :   -0.053606
   3 C :    0.017428
   4 C :   -0.173932
   5 H :    0.029400
   6 C :    0.049133
   7 H :    0.003975
   8 H :    0.048522
   9 C :   -0.078228
  10 H :    0.023791
  11 H :    0.022720
  12 C :   -0.020878
  13 H :    0.049867
  14 H :    0.029474
  15 H :    0.014945
  16 S :    0.110852
  17 C :   -0.081946
  18 C :   -0.012068
  19 C :   -0.060962
  20 C :   -0.173896
  21 H :   -0.004389
  22 C :    0.059998
  23 H :    0.013819
  24 H :    0.042358
  25 C :   -0.061842
  26 H :    0.026078
  27 H :    0.027770
  28 C :   -0.030361
  29 H :    0.045431
  30 H :    0.028500
  31 H :    0.030458
  32 H :    0.049742
  33 H :    0.042801
Sum of atomic charges:   -0.0000000

LOEWDIN ATOMIC CHARGES
----------------------
   0 S :    0.422528
   1 C :   -0.185631
   2 C :   -0.062812
   3 C :   -0.072131
   4 C :   -0.208095
   5 H :    0.035900
   6 C :   -0.025895
   7 H :    0.018158
   8 H :    0.037815
   9 C :   -0.039538
  10 H :    0.017163
  11 H :    0.027365
  12 C :   -0.060068
  13 H :    0.036629
  14 H :    0.020373
  15 H :    0.019119
  16 S :    0.412380
  17 C :   -0.173781
  18 C :   -0.065041
  19 C :   -0.062215
  20 C :   -0.218052
  21 H :    0.021361
  22 C :   -0.039680
  23 H :    0.027724
  24 H :    0.047556
  25 C :   -0.042985
  26 H :    0.023569
  27 H :    0.027338
  28 C :   -0.062610
  29 H :    0.037856
  30 H :    0.022089
  31 H :    0.021606
  32 H :    0.021044
  33 H :    0.020960

  Mayer bond orders larger than 0.100000
B(  0-S ,  1-C ) :   1.1441 B(  0-S ,  4-C ) :   1.1738 B(  1-C ,  2-C ) :   1.5760
B(  1-C , 32-H ) :   0.9757 B(  2-C ,  3-C ) :   1.2710 B(  2-C ,  6-C ) :   1.0076
B(  3-C ,  4-C ) :   1.5531 B(  3-C ,  5-H ) :   0.9808 B(  4-C , 20-C ) :   1.0330
B(  6-C ,  7-H ) :   0.9498 B(  6-C ,  8-H ) :   0.9486 B(  6-C ,  9-C ) :   1.0373
B(  9-C , 10-H ) :   0.9672 B(  9-C , 11-H ) :   0.9560 B(  9-C , 12-C ) :   1.0641
B( 12-C , 13-H ) :   0.9784 B( 12-C , 14-H ) :   0.9759 B( 12-C , 15-H ) :   0.9730
B( 16-S , 17-C ) :   1.1538 B( 16-S , 20-C ) :   1.1520 B( 17-C , 18-C ) :   1.5958
B( 17-C , 33-H ) :   0.9719 B( 18-C , 19-C ) :   1.2537 B( 18-C , 21-H ) :   0.9981
B( 19-C , 20-C ) :   1.5567 B( 19-C , 22-C ) :   1.0210 B( 22-C , 23-H ) :   0.9260
B( 22-C , 24-H ) :   0.9307 B( 22-C , 25-C ) :   1.0803 B( 25-C , 26-H ) :   0.9544
B( 25-C , 27-H ) :   0.9497 B( 25-C , 28-C ) :   1.0659 B( 28-C , 29-H ) :   0.9738
B( 28-C , 30-H ) :   0.9747 B( 28-C , 31-H ) :   0.9755

Dispersion correction           -0.014381025
FINAL SINGLE POINT ENERGY     -1339.854054700178

DIPOLE MOMENT
-------------
                                X             Y             Z
Electronic contribution:      1.37255      23.06329      -0.29476
Nuclear contribution   :     -1.21254     -23.52537       0.29261
                        -----------------------------------------
Total Dipole Moment    :      0.16001      -0.46208      -0.00215
                        -----------------------------------------
Magnitude (a.u.)       :      0.48901
Magnitude (Debye)      :      1.24296

Rotational constants in cm-1:     0.022494     0.007284     0.006566
Rotational constants in MHz :   674.347680   218.366740   196.856704

                             ****ORCA TERMINATED NORMALLY****
TOTAL RUN TIME: 0 days 0 hours 0 minutes 21 seconds 576 msec
