                         Program Version 4.2.1 -  RELEASE  -
|  1> ! wB97X-D3 SP def2-SVP
|  2> %pal
|  3> nprocs 24
|  4> end
|  5>
|  6> * xyz 0 1
|  7> S 	 -123.707 	 60.4471 	 -60.1614
|  8> C 	 -122.925 	 61.9787 	 -59.633
|  9> C 	 -123.117 	 62.154 	 -58.2903
| 10> C 	 -123.992 	 61.1432 	 -57.6932
| 11> C 	 -124.463 	 60.211 	 -58.6096
| 12> H 	 -124.345 	 61.0962 	 -56.6116
| 13> C 	 -122.695 	 63.4336 	 -57.5116
| 14> H 	 -121.807 	 63.1803 	 -56.9575
| 15> H 	 -123.463 	 63.4825 	 -56.6761
| 16> C 	 -122.53 	 64.7329 	 -58.3978
| 17> H 	 -121.802 	 64.5827 	 -59.1888
| 18> H 	 -123.44 	 64.9106 	 -59.0391
| 19> C 	 -122.193 	 65.8597 	 -57.5014
| 20> H 	 -121.22 	 65.724 	 -57.2587
| 21> H 	 -122.153 	 66.9093 	 -57.8958
| 22> H 	 -122.9 	 65.9223 	 -56.6289
| 23> S 	 -124.741 	 57.4914 	 -59.1557
| 24> C 	 -126.226 	 56.639 	 -58.8015
| 25> C 	 -127.119 	 57.4412 	 -58.0592
| 26> C 	 -126.505 	 58.7386 	 -57.7281
| 27> C 	 -125.264 	 59.0067 	 -58.3173
| 28> H 	 -128.021 	 56.9882 	 -57.6571
| 29> C 	 -127.279 	 59.8571 	 -57.0645
| 30> H 	 -126.731 	 60.3078 	 -56.2424
| 31> H 	 -128.153 	 59.3732 	 -56.6021
| 32> C 	 -127.988 	 60.858 	 -57.9765
| 33> H 	 -128.66 	 60.4113 	 -58.7172
| 34> H 	 -127.295 	 61.2615 	 -58.7131
| 35> C 	 -128.593 	 62.0435 	 -57.2588
| 36> H 	 -127.921 	 62.5141 	 -56.4791
| 37> H 	 -129.545 	 61.9012 	 -56.8237
| 38> H 	 -128.685 	 62.8243 	 -58.0132
| 39> H 	 -122.398 	 62.5864 	 -60.3187
| 40> H 	 -126.307 	 55.5595 	 -58.8653
| 41> *
| 42>
| 43>                          ****END OF INPUT****

CARTESIAN COORDINATES (ANGSTROEM)
---------------------------------
  S    -123.707000   60.447100  -60.161400
  C    -122.925000   61.978700  -59.633000
  C    -123.117000   62.154000  -58.290300
  C    -123.992000   61.143200  -57.693200
  C    -124.463000   60.211000  -58.609600
  H    -124.345000   61.096200  -56.611600
  C    -122.695000   63.433600  -57.511600
  H    -121.807000   63.180300  -56.957500
  H    -123.463000   63.482500  -56.676100
  C    -122.530000   64.732900  -58.397800
  H    -121.802000   64.582700  -59.188800
  H    -123.440000   64.910600  -59.039100
  C    -122.193000   65.859700  -57.501400
  H    -121.220000   65.724000  -57.258700
  H    -122.153000   66.909300  -57.895800
  H    -122.900000   65.922300  -56.628900
  S    -124.741000   57.491400  -59.155700
  C    -126.226000   56.639000  -58.801500
  C    -127.119000   57.441200  -58.059200
  C    -126.505000   58.738600  -57.728100
  C    -125.264000   59.006700  -58.317300
  H    -128.021000   56.988200  -57.657100
  C    -127.279000   59.857100  -57.064500
  H    -126.731000   60.307800  -56.242400
  H    -128.153000   59.373200  -56.602100
  C    -127.988000   60.858000  -57.976500
  H    -128.660000   60.411300  -58.717200
  H    -127.295000   61.261500  -58.713100
  C    -128.593000   62.043500  -57.258800
  H    -127.921000   62.514100  -56.479100
  H    -129.545000   61.901200  -56.823700
  H    -128.685000   62.824300  -58.013200
  H    -122.398000   62.586400  -60.318700
  H    -126.307000   55.559500  -58.865300

 Total Charge           Charge          ....    0
 Multiplicity           Mult            ....    1
 Number of Electrons    NEL             ....  134
 Basis Dimension        Dim             ....  322

ORBITAL ENERGIES
----------------

  NO   OCC          E(Eh)            E(eV)
   0   2.0000     -88.964692     -2420.8523
   1   2.0000     -88.963563     -2420.8216
   2   2.0000     -10.336601      -281.2732
   3   2.0000     -10.335768      -281.2506
   4   2.0000     -10.323685      -280.9218
   5   2.0000     -10.315583      -280.7013
   6   2.0000     -10.312320      -280.6125
   7   2.0000     -10.308576      -280.5106
   8   2.0000     -10.305321      -280.4220
   9   2.0000     -10.304028      -280.3868
  10   2.0000     -10.303878      -280.3828
  11   2.0000     -10.296050      -280.1698
  12   2.0000     -10.288363      -279.9606
  13   2.0000     -10.280754      -279.7536
  14   2.0000     -10.276396      -279.6350
  15   2.0000     -10.275358      -279.6067
  16   2.0000      -8.078915      -219.8385
  17   2.0000      -8.077540      -219.8010
  18   2.0000      -6.037623      -164.2921
  19   2.0000      -6.036171      -164.2526
  20   2.0000      -6.033488      -164.1796
  21   2.0000      -6.031950      -164.1377
  22   2.0000      -6.029464      -164.0701
  23   2.0000      -6.028406      -164.0413
  24   2.0000      -0.999104       -27.1870
  25   2.0000      -0.975118       -26.5343
  26   2.0000      -0.911811       -24.8117
  27   2.0000      -0.907258       -24.6878
  28   2.0000      -0.870115       -23.6770
  29   2.0000      -0.850090       -23.1321
  30   2.0000      -0.841174       -22.8895
  31   2.0000      -0.813592       -22.1390
  32   2.0000      -0.778877       -21.1943
  33   2.0000      -0.770204       -20.9583
  34   2.0000      -0.715229       -19.4624
  35   2.0000      -0.703194       -19.1349
  36   2.0000      -0.689373       -18.7588
  37   2.0000      -0.662879       -18.0378
  38   2.0000      -0.641397       -17.4533
  39   2.0000      -0.609403       -16.5827
  40   2.0000      -0.590720       -16.0743
  41   2.0000      -0.570773       -15.5315
  42   2.0000      -0.567647       -15.4465
  43   2.0000      -0.557076       -15.1588
  44   2.0000      -0.526740       -14.3333
  45   2.0000      -0.521716       -14.1966
  46   2.0000      -0.519264       -14.1299
  47   2.0000      -0.512789       -13.9537
  48   2.0000      -0.509701       -13.8697
  49   2.0000      -0.500743       -13.6259
  50   2.0000      -0.491330       -13.3698
  51   2.0000      -0.478723       -13.0267
  52   2.0000      -0.473535       -12.8855
  53   2.0000      -0.464075       -12.6281
  54   2.0000      -0.458427       -12.4744
  55   2.0000      -0.450597       -12.2614
  56   2.0000      -0.443664       -12.0727
  57   2.0000      -0.435456       -11.8494
  58   2.0000      -0.429810       -11.6957
  59   2.0000      -0.420942       -11.4544
  60   2.0000      -0.416684       -11.3386
  61   2.0000      -0.413426       -11.2499
  62   2.0000      -0.396243       -10.7823
  63   2.0000      -0.352727        -9.5982
  64   2.0000      -0.329537        -8.9672
  65   2.0000      -0.326756        -8.8915
  66   2.0000      -0.291827        -7.9410
  67   0.0000       0.024317         0.6617
  68   0.0000       0.064153         1.7457
  69   0.0000       0.107840         2.9345
  70   0.0000       0.113194         3.0802
  71   0.0000       0.134682         3.6649

MULLIKEN ATOMIC CHARGES
-----------------------
   0 S :    0.095915
   1 C :   -0.132892
   2 C :   -0.056968
   3 C :   -0.013047
   4 C :   -0.112678
   5 H :    0.042720
   6 C :    0.037812
   7 H :    0.036075
   8 H :    0.032122
   9 C :   -0.079708
  10 H :    0.028654
  11 H :    0.038788
  12 C :   -0.018562
  13 H :    0.008253
  14 H :    0.032491
  15 H :    0.041297
  16 S :    0.079539
  17 C :   -0.099088
  18 C :   -0.030243
  19 C :   -0.057460
  20 C :   -0.139275
  21 H :    0.033003
  22 C :    0.055590
  23 H :    0.026369
  24 H :    0.011619
  25 C :   -0.064482
  26 H :    0.022016
  27 H :    0.022332
  28 C :   -0.037376
  29 H :    0.030937
  30 H :    0.029103
  31 H :    0.027244
  32 H :    0.038365
  33 H :    0.071534
Sum of atomic charges:   -0.0000000

LOEWDIN ATOMIC CHARGES
----------------------
   0 S :    0.385153
   1 C :   -0.178170
   2 C :   -0.058789
   3 C :   -0.077180
   4 C :   -0.192765
   5 H :    0.042414
   6 C :   -0.028864
   7 H :    0.031069
   8 H :    0.036259
   9 C :   -0.043400
  10 H :    0.022534
  11 H :    0.029619
  12 C :   -0.066540
  13 H :    0.013173
  14 H :    0.032173
  15 H :    0.033696
  16 S :    0.380559
  17 C :   -0.182837
  18 C :   -0.072736
  19 C :   -0.054767
  20 C :   -0.176202
  21 H :    0.034700
  22 C :   -0.039338
  23 H :    0.026728
  24 H :    0.032063
  25 C :   -0.047225
  26 H :    0.029077
  27 H :    0.023817
  28 C :   -0.063977
  29 H :    0.031160
  30 H :    0.016077
  31 H :    0.030395
  32 H :    0.019876
  33 H :    0.032247

  Mayer bond orders larger than 0.100000
B(  0-S ,  1-C ) :   1.1056 B(  0-S ,  4-C ) :   1.1452 B(  1-C ,  2-C ) :   1.6390
B(  1-C , 32-H ) :   0.9789 B(  2-C ,  3-C ) :   1.2187 B(  2-C ,  6-C ) :   0.9974
B(  3-C ,  4-C ) :   1.5900 B(  3-C ,  5-H ) :   0.9780 B(  4-C , 20-C ) :   1.0506
B(  6-C ,  7-H ) :   0.9335 B(  6-C ,  8-H ) :   0.9528 B(  6-C ,  9-C ) :   1.0522
B(  9-C , 10-H ) :   0.9497 B(  9-C , 11-H ) :   0.9591 B(  9-C , 12-C ) :   1.0822
B( 12-C , 13-H ) :   0.9717 B( 12-C , 14-H ) :   0.9698 B( 12-C , 15-H ) :   0.9741
B( 16-S , 17-C ) :   1.1692 B( 16-S , 20-C ) :   1.1173 B( 17-C , 18-C ) :   1.5946
B( 17-C , 33-H ) :   0.9628 B( 18-C , 19-C ) :   1.2469 B( 18-C , 21-H ) :   0.9859
B( 19-C , 20-C ) :   1.5886 B( 19-C , 22-C ) :   1.0545 B( 22-C , 23-H ) :   0.9421
B( 22-C , 24-H ) :   0.9294 B( 22-C , 25-C ) :   1.0540 B( 25-C , 26-H ) :   0.9468
B( 25-C , 27-H ) :   0.9574 B( 25-C , 28-C ) :   1.0801 B( 28-C , 29-H ) :   0.9729
B( 28-C , 30-H ) :   0.9780 B( 28-C , 31-H ) :   0.9723

Dispersion correction           -0.013927865
FINAL SINGLE POINT ENERGY     -1339.857848417640

DIPOLE MOMENT
-------------
                                X             Y             Z
Electronic contribution:      6.72149     -27.03665     -12.13726
Nuclear contribution   :     -6.88937      27.53511      12.54670
                        -----------------------------------------
Total Dipole Moment    :     -0.16787       0.49846       0.40944
                        -----------------------------------------
Magnitude (a.u.)       :      0.66654
Magnitude (Debye)      :      1.69422

Rotational constants in cm-1:     0.020675     0.007956     0.006229
Rotational constants in MHz :   619.811545   238.516782   186.734820

                             ****ORCA TERMINATED NORMALLY****
TOTAL RUN TIME: 0 days 0 hours 0 minutes 21 seconds 176 msec
