                         Program Version 4.2.1 -  RELEASE  -
|  1> ! wB97X-D3 SP def2-SVP
|  2> %pal
|  3> nprocs 24
|  4> end
|  5>
|  6> * xyz 0 1
|  7> S 	 -107.422 	 1.00847 	 -113.049
|  8> C 	 -108.99 	 1.79033 	 -112.913
|  9> C 	 -109.85 	 1.37583 	 -113.927
| 10> C 	 -109.123 	 0.674458 	 -114.966
| 11> C 	 -107.788 	 0.424288 	 -114.634
| 12> H 	 -109.619 	 0.200995 	 -115.825
| 13> C 	 -111.23 	 1.96345 	 -114.108
| 14> H 	 -111.148 	 3.11357 	 -114.267
| 15> H 	 -111.733 	 1.86537 	 -113.2
| 16> C 	 -112.159 	 1.3428 	 -115.301
| 17> H 	 -111.663 	 1.33566 	 -116.282
| 18> H 	 -112.346 	 0.308321 	 -115.04
| 19> C 	 -113.511 	 2.1173 	 -115.484
| 20> H 	 -114.069 	 2.43569 	 -114.609
| 21> H 	 -113.265 	 3.09491 	 -116.056
| 22> H 	 -114.128 	 1.63982 	 -116.192
| 23> S 	 -106.544 	 -0.0156023 	 -116.991
| 24> C 	 -105.763 	 -1.54386 	 -117.304
| 25> C 	 -105.742 	 -2.36382 	 -116.192
| 26> C 	 -106.41 	 -1.7366 	 -115.056
| 27> C 	 -106.907 	 -0.454693 	 -115.364
| 28> H 	 -105.142 	 -3.30253 	 -116.33
| 29> C 	 -106.711 	 -2.43271 	 -113.747
| 30> H 	 -106.584 	 -1.62129 	 -112.969
| 31> H 	 -105.914 	 -3.17225 	 -113.401
| 32> C 	 -108.002 	 -3.10854 	 -113.483
| 33> H 	 -108.772 	 -2.34017 	 -113.641
| 34> H 	 -108.048 	 -3.48279 	 -112.372
| 35> C 	 -108.334 	 -4.33624 	 -114.359
| 36> H 	 -107.984 	 -5.23561 	 -113.869
| 37> H 	 -107.771 	 -4.24953 	 -115.313
| 38> H 	 -109.395 	 -4.41187 	 -114.539
| 39> H 	 -109.311 	 2.46799 	 -112.137
| 40> H 	 -105.282 	 -1.82759 	 -118.218
| 41> *
| 42>
| 43>                          ****END OF INPUT****

CARTESIAN COORDINATES (ANGSTROEM)
---------------------------------
  S    -107.422000    1.008470  -113.049000
  C    -108.990000    1.790330  -112.913000
  C    -109.850000    1.375830  -113.927000
  C    -109.123000    0.674458  -114.966000
  C    -107.788000    0.424288  -114.634000
  H    -109.619000    0.200995  -115.825000
  C    -111.230000    1.963450  -114.108000
  H    -111.148000    3.113570  -114.267000
  H    -111.733000    1.865370  -113.200000
  C    -112.159000    1.342800  -115.301000
  H    -111.663000    1.335660  -116.282000
  H    -112.346000    0.308321  -115.040000
  C    -113.511000    2.117300  -115.484000
  H    -114.069000    2.435690  -114.609000
  H    -113.265000    3.094910  -116.056000
  H    -114.128000    1.639820  -116.192000
  S    -106.544000   -0.015602  -116.991000
  C    -105.763000   -1.543860  -117.304000
  C    -105.742000   -2.363820  -116.192000
  C    -106.410000   -1.736600  -115.056000
  C    -106.907000   -0.454693  -115.364000
  H    -105.142000   -3.302530  -116.330000
  C    -106.711000   -2.432710  -113.747000
  H    -106.584000   -1.621290  -112.969000
  H    -105.914000   -3.172250  -113.401000
  C    -108.002000   -3.108540  -113.483000
  H    -108.772000   -2.340170  -113.641000
  H    -108.048000   -3.482790  -112.372000
  C    -108.334000   -4.336240  -114.359000
  H    -107.984000   -5.235610  -113.869000
  H    -107.771000   -4.249530  -115.313000
  H    -109.395000   -4.411870  -114.539000
  H    -109.311000    2.467990  -112.137000
  H    -105.282000   -1.827590  -118.218000

 Total Charge           Charge          ....    0
 Multiplicity           Mult            ....    1
 Number of Electrons    NEL             ....  134
 Basis Dimension        Dim             ....  322

ORBITAL ENERGIES
----------------

  NO   OCC          E(Eh)            E(eV)
   0   2.0000     -88.971501     -2421.0376
   1   2.0000     -88.967288     -2420.9230
   2   2.0000     -10.330445      -281.1057
   3   2.0000     -10.326841      -281.0076
   4   2.0000     -10.316029      -280.7134
   5   2.0000     -10.314073      -280.6602
   6   2.0000     -10.310178      -280.5542
   7   2.0000     -10.305210      -280.4190
   8   2.0000     -10.302040      -280.3328
   9   2.0000     -10.301328      -280.3134
  10   2.0000     -10.300450      -280.2895
  11   2.0000     -10.299914      -280.2749
  12   2.0000     -10.290675      -280.0235
  13   2.0000     -10.285891      -279.8933
  14   2.0000     -10.285256      -279.8760
  15   2.0000     -10.270257      -279.4679
  16   2.0000      -8.085799      -220.0258
  17   2.0000      -8.082333      -219.9315
  18   2.0000      -6.044317      -164.4742
  19   2.0000      -6.040738      -164.3768
  20   2.0000      -6.040270      -164.3641
  21   2.0000      -6.036693      -164.2668
  22   2.0000      -6.036670      -164.2661
  23   2.0000      -6.033285      -164.1740
  24   2.0000      -1.008858       -27.4524
  25   2.0000      -0.983507       -26.7626
  26   2.0000      -0.906945       -24.6792
  27   2.0000      -0.901188       -24.5226
  28   2.0000      -0.870585       -23.6898
  29   2.0000      -0.848517       -23.0893
  30   2.0000      -0.840836       -22.8803
  31   2.0000      -0.815340       -22.1865
  32   2.0000      -0.781183       -21.2571
  33   2.0000      -0.770174       -20.9575
  34   2.0000      -0.715944       -19.4818
  35   2.0000      -0.696015       -18.9395
  36   2.0000      -0.676812       -18.4170
  37   2.0000      -0.659928       -17.9575
  38   2.0000      -0.635643       -17.2967
  39   2.0000      -0.618847       -16.8397
  40   2.0000      -0.587139       -15.9769
  41   2.0000      -0.568938       -15.4816
  42   2.0000      -0.558396       -15.1947
  43   2.0000      -0.548159       -14.9162
  44   2.0000      -0.543425       -14.7874
  45   2.0000      -0.527003       -14.3405
  46   2.0000      -0.515846       -14.0369
  47   2.0000      -0.510029       -13.8786
  48   2.0000      -0.498750       -13.5717
  49   2.0000      -0.491456       -13.3732
  50   2.0000      -0.485033       -13.1984
  51   2.0000      -0.477041       -12.9810
  52   2.0000      -0.472509       -12.8576
  53   2.0000      -0.470383       -12.7998
  54   2.0000      -0.459145       -12.4940
  55   2.0000      -0.454093       -12.3565
  56   2.0000      -0.440824       -11.9954
  57   2.0000      -0.436934       -11.8896
  58   2.0000      -0.433529       -11.7969
  59   2.0000      -0.428079       -11.6486
  60   2.0000      -0.415694       -11.3116
  61   2.0000      -0.406395       -11.0586
  62   2.0000      -0.399674       -10.8757
  63   2.0000      -0.343018        -9.3340
  64   2.0000      -0.333357        -9.0711
  65   2.0000      -0.329117        -8.9557
  66   2.0000      -0.293710        -7.9922
  67   0.0000       0.030779         0.8375
  68   0.0000       0.063319         1.7230
  69   0.0000       0.104778         2.8512
  70   0.0000       0.118003         3.2110
  71   0.0000       0.124439         3.3862

MULLIKEN ATOMIC CHARGES
-----------------------
   0 S :    0.128258
   1 C :   -0.120491
   2 C :   -0.071217
   3 C :    0.017380
   4 C :   -0.150325
   5 H :    0.032453
   6 C :    0.018375
   7 H :    0.058183
   8 H :    0.019420
   9 C :   -0.100753
  10 H :    0.046911
  11 H :    0.038258
  12 C :   -0.058687
  13 H :    0.042043
  14 H :    0.032547
  15 H :    0.028077
  16 S :    0.122513
  17 C :   -0.102221
  18 C :   -0.054562
  19 C :   -0.013470
  20 C :   -0.166189
  21 H :    0.045162
  22 C :    0.021131
  23 H :    0.025224
  24 H :    0.025178
  25 C :   -0.083421
  26 H :    0.029990
  27 H :    0.044451
  28 C :   -0.039638
  29 H :    0.024436
  30 H :    0.032169
  31 H :    0.034319
  32 H :    0.045880
  33 H :    0.048616
Sum of atomic charges:   -0.0000000

LOEWDIN ATOMIC CHARGES
----------------------
   0 S :    0.430888
   1 C :   -0.193577
   2 C :   -0.065944
   3 C :   -0.062479
   4 C :   -0.209001
   5 H :    0.034719
   6 C :   -0.035071
   7 H :    0.045327
   8 H :    0.020886
   9 C :   -0.037555
  10 H :    0.027328
  11 H :    0.021119
  12 C :   -0.070437
  13 H :    0.024525
  14 H :    0.035052
  15 H :    0.020319
  16 S :    0.429061
  17 C :   -0.192118
  18 C :   -0.078594
  19 C :   -0.058432
  20 C :   -0.208146
  21 H :    0.045718
  22 C :   -0.055926
  23 H :    0.028122
  24 H :    0.033499
  25 C :   -0.050236
  26 H :    0.022846
  27 H :    0.037178
  28 C :   -0.068594
  29 H :    0.021772
  30 H :    0.028388
  31 H :    0.025407
  32 H :    0.028253
  33 H :    0.025703

  Mayer bond orders larger than 0.100000
B(  0-S ,  1-C ) :   1.1440 B(  0-S ,  4-C ) :   1.1624 B(  1-C ,  2-C ) :   1.5973
B(  1-C , 32-H ) :   0.9745 B(  2-C ,  3-C ) :   1.2597 B(  2-C ,  6-C ) :   1.0226
B(  3-C ,  4-C ) :   1.5520 B(  3-C ,  5-H ) :   0.9820 B(  4-C , 20-C ) :   1.0275
B(  6-C ,  7-H ) :   0.9497 B(  6-C ,  8-H ) :   0.9363 B(  6-C ,  9-C ) :   1.0546
B(  9-C , 10-H ) :   0.9544 B(  9-C , 11-H ) :   0.9628 B(  9-C , 12-C ) :   1.0780
B( 12-C , 13-H ) :   0.9795 B( 12-C , 14-H ) :   0.9746 B( 12-C , 15-H ) :   0.9741
B( 16-S , 17-C ) :   1.1560 B( 16-S , 20-C ) :   1.1582 B( 17-C , 18-C ) :   1.6259
B( 17-C , 33-H ) :   0.9671 B( 18-C , 19-C ) :   1.2228 B( 18-C , 21-H ) :   0.9824
B( 19-C , 20-C ) :   1.5756 B( 19-C , 22-C ) :   1.0444 B( 22-C , 23-H ) :   0.9225
B( 22-C , 24-H ) :   0.9342 B( 22-C , 25-C ) :   1.0870 B( 25-C , 26-H ) :   0.9542
B( 25-C , 27-H ) :   0.9526 B( 25-C , 28-C ) :   1.0640 B( 28-C , 29-H ) :   0.9758
B( 28-C , 30-H ) :   0.9777 B( 28-C , 31-H ) :   0.9767

Dispersion correction           -0.014691972
FINAL SINGLE POINT ENERGY     -1339.867880844646

DIPOLE MOMENT
-------------
                                X             Y             Z
Electronic contribution:     21.59887       8.41624      -2.54001
Nuclear contribution   :    -22.08760      -8.56576       2.53128
                        -----------------------------------------
Total Dipole Moment    :     -0.48873      -0.14952      -0.00873
                        -----------------------------------------
Magnitude (a.u.)       :      0.51117
Magnitude (Debye)      :      1.29928

Rotational constants in cm-1:     0.018276     0.007970     0.007687
Rotational constants in MHz :   547.897834   238.941036   230.449603

                             ****ORCA TERMINATED NORMALLY****
TOTAL RUN TIME: 0 days 0 hours 0 minutes 20 seconds 475 msec
