                         Program Version 4.2.1 -  RELEASE  -
|  1> ! wB97X-D3 SP def2-SVP
|  2> %pal
|  3> nprocs 24
|  4> end
|  5>
|  6> * xyz 0 1
|  7> S 	 -38.4042 	 -4.11411 	 -6.82729
|  8> C 	 -37.4356 	 -4.39281 	 -5.4303
|  9> C 	 -36.2051 	 -3.71599 	 -5.47613
| 10> C 	 -36.089 	 -2.95484 	 -6.70859
| 11> C 	 -37.1423 	 -3.07925 	 -7.59532
| 12> H 	 -35.1571 	 -2.47197 	 -6.96703
| 13> C 	 -35.2038 	 -3.64461 	 -4.41695
| 14> H 	 -35.7015 	 -3.54647 	 -3.39571
| 15> H 	 -34.5737 	 -2.75027 	 -4.61596
| 16> C 	 -34.293 	 -4.84541 	 -4.34077
| 17> H 	 -34.9049 	 -5.68931 	 -3.84487
| 18> H 	 -33.9098 	 -5.18111 	 -5.29076
| 19> C 	 -33.0026 	 -4.52033 	 -3.58603
| 20> H 	 -32.2599 	 -5.36374 	 -3.67256
| 21> H 	 -32.5568 	 -3.6432 	 -3.85213
| 22> H 	 -33.2054 	 -4.65484 	 -2.49523
| 23> S 	 -35.835 	 -2.58238 	 -9.91017
| 24> C 	 -36.732 	 -1.643 	 -11.2394
| 25> C 	 -38.0174 	 -1.39035 	 -10.8225
| 26> C 	 -38.2933 	 -1.87004 	 -9.57991
| 27> C 	 -37.2409 	 -2.52372 	 -8.95146
| 28> H 	 -38.7076 	 -0.940689 	 -11.5481
| 29> C 	 -39.6861 	 -1.65667 	 -8.91776
| 30> H 	 -39.5069 	 -1.10258 	 -7.93265
| 31> H 	 -39.9621 	 -2.69207 	 -8.61561
| 32> C 	 -40.7076 	 -0.832483 	 -9.62314
| 33> H 	 -40.9807 	 -1.36009 	 -10.5403
| 34> H 	 -40.3012 	 0.158283 	 -9.81891
| 35> C 	 -41.984 	 -0.678483 	 -8.72171
| 36> H 	 -42.5684 	 -1.63245 	 -8.60217
| 37> H 	 -42.6636 	 0.166771 	 -9.15492
| 38> H 	 -41.7427 	 -0.393086 	 -7.72888
| 39> H 	 -37.7521 	 -4.82777 	 -4.54528
| 40> H 	 -36.3816 	 -1.37444 	 -12.2237
| 41> *
| 42>
| 43>                          ****END OF INPUT****

CARTESIAN COORDINATES (ANGSTROEM)
---------------------------------
  S    -38.404200   -4.114110   -6.827290
  C    -37.435600   -4.392810   -5.430300
  C    -36.205100   -3.715990   -5.476130
  C    -36.089000   -2.954840   -6.708590
  C    -37.142300   -3.079250   -7.595320
  H    -35.157100   -2.471970   -6.967030
  C    -35.203800   -3.644610   -4.416950
  H    -35.701500   -3.546470   -3.395710
  H    -34.573700   -2.750270   -4.615960
  C    -34.293000   -4.845410   -4.340770
  H    -34.904900   -5.689310   -3.844870
  H    -33.909800   -5.181110   -5.290760
  C    -33.002600   -4.520330   -3.586030
  H    -32.259900   -5.363740   -3.672560
  H    -32.556800   -3.643200   -3.852130
  H    -33.205400   -4.654840   -2.495230
  S    -35.835000   -2.582380   -9.910170
  C    -36.732000   -1.643000  -11.239400
  C    -38.017400   -1.390350  -10.822500
  C    -38.293300   -1.870040   -9.579910
  C    -37.240900   -2.523720   -8.951460
  H    -38.707600   -0.940689  -11.548100
  C    -39.686100   -1.656670   -8.917760
  H    -39.506900   -1.102580   -7.932650
  H    -39.962100   -2.692070   -8.615610
  C    -40.707600   -0.832483   -9.623140
  H    -40.980700   -1.360090  -10.540300
  H    -40.301200    0.158283   -9.818910
  C    -41.984000   -0.678483   -8.721710
  H    -42.568400   -1.632450   -8.602170
  H    -42.663600    0.166771   -9.154920
  H    -41.742700   -0.393086   -7.728880
  H    -37.752100   -4.827770   -4.545280
  H    -36.381600   -1.374440  -12.223700

 Total Charge           Charge          ....    0
 Multiplicity           Mult            ....    1
 Number of Electrons    NEL             ....  134
 Basis Dimension        Dim             ....  322

ORBITAL ENERGIES
----------------

  NO   OCC          E(Eh)            E(eV)
   0   2.0000     -88.970212     -2421.0026
   1   2.0000     -88.968088     -2420.9448
   2   2.0000     -10.335455      -281.2420
   3   2.0000     -10.324862      -280.9538
   4   2.0000     -10.322310      -280.8843
   5   2.0000     -10.309540      -280.5369
   6   2.0000     -10.299424      -280.2616
   7   2.0000     -10.296849      -280.1915
   8   2.0000     -10.295730      -280.1611
   9   2.0000     -10.294333      -280.1230
  10   2.0000     -10.294096      -280.1166
  11   2.0000     -10.291007      -280.0325
  12   2.0000     -10.289922      -280.0030
  13   2.0000     -10.288683      -279.9693
  14   2.0000     -10.288115      -279.9538
  15   2.0000     -10.276599      -279.6405
  16   2.0000      -8.083862      -219.9731
  17   2.0000      -8.081816      -219.9174
  18   2.0000      -6.042366      -164.4212
  19   2.0000      -6.040484      -164.3699
  20   2.0000      -6.038541      -164.3171
  21   2.0000      -6.036383      -164.2583
  22   2.0000      -6.034654      -164.2113
  23   2.0000      -6.032582      -164.1549
  24   2.0000      -1.005735       -27.3674
  25   2.0000      -0.982455       -26.7340
  26   2.0000      -0.917750       -24.9733
  27   2.0000      -0.908769       -24.7289
  28   2.0000      -0.874794       -23.8044
  29   2.0000      -0.852330       -23.1931
  30   2.0000      -0.842010       -22.9123
  31   2.0000      -0.817766       -22.2526
  32   2.0000      -0.776114       -21.1191
  33   2.0000      -0.764823       -20.8119
  34   2.0000      -0.706365       -19.2212
  35   2.0000      -0.702133       -19.1060
  36   2.0000      -0.695819       -18.9342
  37   2.0000      -0.659563       -17.9476
  38   2.0000      -0.638165       -17.3654
  39   2.0000      -0.618433       -16.8284
  40   2.0000      -0.592556       -16.1243
  41   2.0000      -0.575123       -15.6499
  42   2.0000      -0.573108       -15.5950
  43   2.0000      -0.567892       -15.4531
  44   2.0000      -0.530555       -14.4371
  45   2.0000      -0.524346       -14.2682
  46   2.0000      -0.517597       -14.0845
  47   2.0000      -0.506748       -13.7893
  48   2.0000      -0.505870       -13.7654
  49   2.0000      -0.497995       -13.5511
  50   2.0000      -0.483121       -13.1464
  51   2.0000      -0.480351       -13.0710
  52   2.0000      -0.474591       -12.9143
  53   2.0000      -0.469187       -12.7672
  54   2.0000      -0.453828       -12.3493
  55   2.0000      -0.445202       -12.1146
  56   2.0000      -0.443509       -12.0685
  57   2.0000      -0.437946       -11.9171
  58   2.0000      -0.431078       -11.7302
  59   2.0000      -0.424212       -11.5434
  60   2.0000      -0.418729       -11.3942
  61   2.0000      -0.412187       -11.2162
  62   2.0000      -0.410387       -11.1672
  63   2.0000      -0.354888        -9.6570
  64   2.0000      -0.337257        -9.1772
  65   2.0000      -0.323275        -8.7968
  66   2.0000      -0.284866        -7.7516
  67   0.0000       0.022503         0.6123
  68   0.0000       0.072659         1.9772
  69   0.0000       0.102159         2.7799
  70   0.0000       0.112792         3.0692
  71   0.0000       0.121941         3.3182

MULLIKEN ATOMIC CHARGES
-----------------------
   0 S :    0.098451
   1 C :   -0.072030
   2 C :   -0.095763
   3 C :    0.014703
   4 C :   -0.139709
   5 H :    0.013684
   6 C :    0.036281
   7 H :    0.043274
   8 H :    0.023049
   9 C :   -0.089941
  10 H :    0.040143
  11 H :    0.029292
  12 C :   -0.038713
  13 H :    0.030950
  14 H :    0.024567
  15 H :    0.028063
  16 S :    0.106101
  17 C :   -0.091043
  18 C :   -0.067339
  19 C :   -0.010511
  20 C :   -0.137276
  21 H :    0.032661
  22 C :    0.005629
  23 H :    0.043516
  24 H :    0.038074
  25 C :   -0.051947
  26 H :    0.035196
  27 H :    0.038201
  28 C :   -0.065813
  29 H :    0.043484
  30 H :    0.047987
  31 H :    0.021622
  32 H :    0.018565
  33 H :    0.046592
Sum of atomic charges:    0.0000000

LOEWDIN ATOMIC CHARGES
----------------------
   0 S :    0.402397
   1 C :   -0.195462
   2 C :   -0.061398
   3 C :   -0.065267
   4 C :   -0.175512
   5 H :    0.026686
   6 C :   -0.043364
   7 H :    0.041443
   8 H :    0.032682
   9 C :   -0.043053
  10 H :    0.032705
  11 H :    0.021267
  12 C :   -0.064802
  13 H :    0.032346
  14 H :    0.009296
  15 H :    0.030130
  16 S :    0.401389
  17 C :   -0.157126
  18 C :   -0.073890
  19 C :   -0.066849
  20 C :   -0.211559
  21 H :    0.041079
  22 C :   -0.044390
  23 H :    0.039547
  24 H :    0.025212
  25 C :   -0.044698
  26 H :    0.024992
  27 H :    0.028261
  28 C :   -0.067400
  29 H :    0.031713
  30 H :    0.036787
  31 H :    0.015707
  32 H :    0.013637
  33 H :    0.027497

  Mayer bond orders larger than 0.100000
B(  0-S ,  1-C ) :   1.1454 B(  0-S ,  4-C ) :   1.1288 B(  1-C ,  2-C ) :   1.5969
B(  1-C , 32-H ) :   0.9709 B(  2-C ,  3-C ) :   1.2544 B(  2-C ,  6-C ) :   1.0420
B(  3-C ,  4-C ) :   1.5766 B(  3-C ,  5-H ) :   0.9848 B(  4-C , 20-C ) :   1.0423
B(  6-C ,  7-H ) :   0.9350 B(  6-C ,  8-H ) :   0.9424 B(  6-C ,  9-C ) :   1.0601
B(  9-C , 10-H ) :   0.9535 B(  9-C , 11-H ) :   0.9614 B(  9-C , 12-C ) :   1.0803
B( 12-C , 13-H ) :   0.9747 B( 12-C , 14-H ) :   0.9771 B( 12-C , 15-H ) :   0.9724
B( 16-S , 17-C ) :   1.1402 B( 16-S , 20-C ) :   1.1564 B( 17-C , 18-C ) :   1.5869
B( 17-C , 20-C ) :   0.1102 B( 17-C , 33-H ) :   0.9643 B( 18-C , 19-C ) :   1.3037
B( 18-C , 21-H ) :   0.9769 B( 19-C , 20-C ) :   1.5546 B( 19-C , 22-C ) :   1.0013
B( 22-C , 23-H ) :   0.9303 B( 22-C , 24-H ) :   0.9320 B( 22-C , 25-C ) :   1.0998
B( 25-C , 26-H ) :   0.9446 B( 25-C , 27-H ) :   0.9456 B( 25-C , 28-C ) :   1.0775
B( 28-C , 29-H ) :   0.9753 B( 28-C , 30-H ) :   0.9751 B( 28-C , 31-H ) :   0.9746

Dispersion correction           -0.013391100
FINAL SINGLE POINT ENERGY     -1339.862200941606

DIPOLE MOMENT
-------------
                                X             Y             Z
Electronic contribution:      2.16782      -3.69676     -12.79154
Nuclear contribution   :     -2.17281       3.92135      12.96419
                        -----------------------------------------
Total Dipole Moment    :     -0.00498       0.22459       0.17264
                        -----------------------------------------
Magnitude (a.u.)       :      0.28332
Magnitude (Debye)      :      0.72015

Rotational constants in cm-1:     0.022790     0.007144     0.005774
Rotational constants in MHz :   683.218208   214.160584   173.089054

                             ****ORCA TERMINATED NORMALLY****
TOTAL RUN TIME: 0 days 0 hours 0 minutes 20 seconds 871 msec
