                         Program Version 4.2.1 -  RELEASE  -
|  1> ! wB97X-D3 SP def2-SVP
|  2> %pal
|  3> nprocs 24
|  4> end
|  5>
|  6> * xyz 0 1
|  7> S 	 -111.514 	 49.82 	 -72.7862
|  8> C 	 -111.734 	 50.0997 	 -74.4989
|  9> C 	 -110.872 	 51.0123 	 -75.0052
| 10> C 	 -110.205 	 51.6512 	 -73.9306
| 11> C 	 -110.552 	 51.3176 	 -72.6118
| 12> H 	 -109.608 	 52.5253 	 -74.1456
| 13> C 	 -110.587 	 51.2562 	 -76.5033
| 14> H 	 -110.354 	 50.2453 	 -76.987
| 15> H 	 -109.779 	 51.9144 	 -76.6054
| 16> C 	 -111.748 	 51.7943 	 -77.3802
| 17> H 	 -111.434 	 51.8586 	 -78.4413
| 18> H 	 -112.594 	 51.0924 	 -77.4572
| 19> C 	 -112.175 	 53.1468 	 -76.9277
| 20> H 	 -112.462 	 53.2133 	 -75.8757
| 21> H 	 -111.519 	 53.9862 	 -77.1393
| 22> H 	 -113.17 	 53.3465 	 -77.4074
| 23> S 	 -109.55 	 51.2656 	 -70.1646
| 24> C 	 -109.579 	 52.7666 	 -69.2243
| 25> C 	 -110.042 	 53.8009 	 -69.912
| 26> C 	 -110.556 	 53.4776 	 -71.182
| 27> C 	 -110.299 	 52.1336 	 -71.4372
| 28> H 	 -110.058 	 54.8392 	 -69.5755
| 29> C 	 -111.15 	 54.488 	 -72.1104
| 30> H 	 -111.772 	 55.0396 	 -71.4516
| 31> H 	 -111.623 	 54.0826 	 -73.0294
| 32> C 	 -110.228 	 55.5666 	 -72.6005
| 33> H 	 -109.361 	 54.933 	 -72.9037
| 34> H 	 -109.83 	 56.1515 	 -71.7046
| 35> C 	 -110.71 	 56.4606 	 -73.711
| 36> H 	 -111.41 	 57.147 	 -73.2358
| 37> H 	 -111.152 	 55.922 	 -74.599
| 38> H 	 -109.826 	 57.0251 	 -74.0509
| 39> H 	 -112.395 	 49.6481 	 -75.2005
| 40> H 	 -109.252 	 52.8602 	 -68.1825
| 41> *
| 42>
| 43>                          ****END OF INPUT****

CARTESIAN COORDINATES (ANGSTROEM)
---------------------------------
  S    -111.514000   49.820000  -72.786200
  C    -111.734000   50.099700  -74.498900
  C    -110.872000   51.012300  -75.005200
  C    -110.205000   51.651200  -73.930600
  C    -110.552000   51.317600  -72.611800
  H    -109.608000   52.525300  -74.145600
  C    -110.587000   51.256200  -76.503300
  H    -110.354000   50.245300  -76.987000
  H    -109.779000   51.914400  -76.605400
  C    -111.748000   51.794300  -77.380200
  H    -111.434000   51.858600  -78.441300
  H    -112.594000   51.092400  -77.457200
  C    -112.175000   53.146800  -76.927700
  H    -112.462000   53.213300  -75.875700
  H    -111.519000   53.986200  -77.139300
  H    -113.170000   53.346500  -77.407400
  S    -109.550000   51.265600  -70.164600
  C    -109.579000   52.766600  -69.224300
  C    -110.042000   53.800900  -69.912000
  C    -110.556000   53.477600  -71.182000
  C    -110.299000   52.133600  -71.437200
  H    -110.058000   54.839200  -69.575500
  C    -111.150000   54.488000  -72.110400
  H    -111.772000   55.039600  -71.451600
  H    -111.623000   54.082600  -73.029400
  C    -110.228000   55.566600  -72.600500
  H    -109.361000   54.933000  -72.903700
  H    -109.830000   56.151500  -71.704600
  C    -110.710000   56.460600  -73.711000
  H    -111.410000   57.147000  -73.235800
  H    -111.152000   55.922000  -74.599000
  H    -109.826000   57.025100  -74.050900
  H    -112.395000   49.648100  -75.200500
  H    -109.252000   52.860200  -68.182500

 Total Charge           Charge          ....    0
 Multiplicity           Mult            ....    1
 Number of Electrons    NEL             ....  134
 Basis Dimension        Dim             ....  322

ORBITAL ENERGIES
----------------

  NO   OCC          E(Eh)            E(eV)
   0   2.0000     -88.965651     -2420.8784
   1   2.0000     -88.965176     -2420.8655
   2   2.0000     -10.329412      -281.0776
   3   2.0000     -10.324218      -280.9363
   4   2.0000     -10.313853      -280.6542
   5   2.0000     -10.308603      -280.5114
   6   2.0000     -10.300284      -280.2850
   7   2.0000     -10.299340      -280.2593
   8   2.0000     -10.296029      -280.1692
   9   2.0000     -10.292798      -280.0813
  10   2.0000     -10.291770      -280.0533
  11   2.0000     -10.288769      -279.9716
  12   2.0000     -10.288601      -279.9671
  13   2.0000     -10.287130      -279.9270
  14   2.0000     -10.286173      -279.9010
  15   2.0000     -10.277850      -279.6745
  16   2.0000      -8.080685      -219.8866
  17   2.0000      -8.079684      -219.8594
  18   2.0000      -6.039114      -164.3326
  19   2.0000      -6.038397      -164.3131
  20   2.0000      -6.035298      -164.2288
  21   2.0000      -6.034389      -164.2041
  22   2.0000      -6.031264      -164.1190
  23   2.0000      -6.030134      -164.0883
  24   2.0000      -1.011482       -27.5238
  25   2.0000      -0.987928       -26.8829
  26   2.0000      -0.921052       -25.0631
  27   2.0000      -0.912963       -24.8430
  28   2.0000      -0.875725       -23.8297
  29   2.0000      -0.855536       -23.2803
  30   2.0000      -0.845239       -23.0001
  31   2.0000      -0.815110       -22.1803
  32   2.0000      -0.786109       -21.3911
  33   2.0000      -0.776899       -21.1405
  34   2.0000      -0.708624       -19.2826
  35   2.0000      -0.701183       -19.0802
  36   2.0000      -0.686468       -18.6798
  37   2.0000      -0.666509       -18.1366
  38   2.0000      -0.631565       -17.1858
  39   2.0000      -0.616136       -16.7659
  40   2.0000      -0.601078       -16.3562
  41   2.0000      -0.578573       -15.7438
  42   2.0000      -0.577188       -15.7061
  43   2.0000      -0.549354       -14.9487
  44   2.0000      -0.540925       -14.7193
  45   2.0000      -0.524499       -14.2723
  46   2.0000      -0.518619       -14.1123
  47   2.0000      -0.514335       -13.9958
  48   2.0000      -0.510951       -13.9037
  49   2.0000      -0.498545       -13.5661
  50   2.0000      -0.493804       -13.4371
  51   2.0000      -0.480514       -13.0755
  52   2.0000      -0.474275       -12.9057
  53   2.0000      -0.466688       -12.6992
  54   2.0000      -0.460239       -12.5237
  55   2.0000      -0.454467       -12.3667
  56   2.0000      -0.444004       -12.0820
  57   2.0000      -0.438380       -11.9289
  58   2.0000      -0.431160       -11.7325
  59   2.0000      -0.427580       -11.6350
  60   2.0000      -0.420621       -11.4457
  61   2.0000      -0.413468       -11.2510
  62   2.0000      -0.403335       -10.9753
  63   2.0000      -0.347625        -9.4594
  64   2.0000      -0.329129        -8.9561
  65   2.0000      -0.328181        -8.9303
  66   2.0000      -0.290408        -7.9024
  67   0.0000       0.029143         0.7930
  68   0.0000       0.062576         1.7028
  69   0.0000       0.100844         2.7441
  70   0.0000       0.117915         3.2086
  71   0.0000       0.127387         3.4664

MULLIKEN ATOMIC CHARGES
-----------------------
   0 S :    0.118713
   1 C :   -0.106050
   2 C :   -0.100881
   3 C :    0.028603
   4 C :   -0.136106
   5 H :   -0.002205
   6 C :    0.088403
   7 H :    0.049893
   8 H :    0.008237
   9 C :   -0.080861
  10 H :    0.033540
  11 H :    0.028813
  12 C :   -0.070678
  13 H :    0.039236
  14 H :    0.037799
  15 H :    0.027930
  16 S :    0.108911
  17 C :   -0.079090
  18 C :   -0.033406
  19 C :   -0.023235
  20 C :   -0.194077
  21 H :    0.016945
  22 C :    0.117479
  23 H :    0.004861
  24 H :    0.038488
  25 C :   -0.159665
  26 H :    0.024025
  27 H :    0.030238
  28 C :   -0.023998
  29 H :    0.035969
  30 H :    0.046128
  31 H :    0.044255
  32 H :    0.025553
  33 H :    0.056234
Sum of atomic charges:   -0.0000000

LOEWDIN ATOMIC CHARGES
----------------------
   0 S :    0.387213
   1 C :   -0.183630
   2 C :   -0.074771
   3 C :   -0.058741
   4 C :   -0.197187
   5 H :    0.021923
   6 C :   -0.023160
   7 H :    0.043664
   8 H :    0.020593
   9 C :   -0.047852
  10 H :    0.030833
  11 H :    0.023746
  12 C :   -0.076501
  13 H :    0.025327
  14 H :    0.023744
  15 H :    0.032822
  16 S :    0.410859
  17 C :   -0.175842
  18 C :   -0.070259
  19 C :   -0.051020
  20 C :   -0.201320
  21 H :    0.034799
  22 C :   -0.034050
  23 H :    0.026261
  24 H :    0.036809
  25 C :   -0.055399
  26 H :    0.019096
  27 H :    0.025680
  28 C :   -0.066549
  29 H :    0.027702
  30 H :    0.033255
  31 H :    0.034889
  32 H :    0.024067
  33 H :    0.033000

  Mayer bond orders larger than 0.100000
B(  0-S ,  1-C ) :   1.1444 B(  0-S ,  4-C ) :   1.1158 B(  1-C ,  2-C ) :   1.6217
B(  1-C , 32-H ) :   0.9647 B(  2-C ,  3-C ) :   1.2544 B(  2-C ,  6-C ) :   1.0083
B(  3-C ,  4-C ) :   1.5587 B(  3-C ,  5-H ) :   0.9925 B(  4-C , 20-C ) :   1.0468
B(  6-C ,  7-H ) :   0.9413 B(  6-C ,  8-H ) :   0.9426 B(  6-C ,  9-C ) :   1.0759
B(  9-C , 10-H ) :   0.9507 B(  9-C , 11-H ) :   0.9567 B(  9-C , 12-C ) :   1.0804
B( 12-C , 13-H ) :   0.9731 B( 12-C , 14-H ) :   0.9750 B( 12-C , 15-H ) :   0.9675
B( 16-S , 17-C ) :   1.1277 B( 16-S , 20-C ) :   1.1542 B( 17-C , 18-C ) :   1.6450
B( 17-C , 33-H ) :   0.9637 B( 18-C , 19-C ) :   1.2254 B( 18-C , 21-H ) :   0.9828
B( 19-C , 20-C ) :   1.5970 B( 19-C , 22-C ) :   1.0632 B( 22-C , 23-H ) :   0.9096
B( 22-C , 24-H ) :   0.9320 B( 22-C , 25-C ) :   1.0599 B( 25-C , 26-H ) :   0.9549
B( 25-C , 27-H ) :   0.9458 B( 25-C , 28-C ) :   1.0883 B( 28-C , 29-H ) :   0.9717
B( 28-C , 30-H ) :   0.9696 B( 28-C , 31-H ) :   0.9699

Dispersion correction           -0.015064231
FINAL SINGLE POINT ENERGY     -1339.855420408375

DIPOLE MOMENT
-------------
                                X             Y             Z
Electronic contribution:      4.51874     -22.77079      22.96609
Nuclear contribution   :     -4.57078      23.47244     -23.47752
                        -----------------------------------------
Total Dipole Moment    :     -0.05204       0.70165      -0.51142
                        -----------------------------------------
Magnitude (a.u.)       :      0.86981
Magnitude (Debye)      :      2.21088

Rotational constants in cm-1:     0.017481     0.010201     0.006856
Rotational constants in MHz :   524.078195   305.811448   205.548993

                             ****ORCA TERMINATED NORMALLY****
TOTAL RUN TIME: 0 days 0 hours 0 minutes 22 seconds 723 msec
