                         Program Version 4.2.1 -  RELEASE  -
|  1> ! wB97X-D3 SP def2-SVP
|  2> %pal
|  3> nprocs 24
|  4> end
|  5>
|  6> * xyz 0 1
|  7> S 	 -108.971 	 29.7477 	 -18.3329
|  8> C 	 -108.986 	 28.6243 	 -19.6507
|  9> C 	 -108.611 	 29.2226 	 -20.8066
| 10> C 	 -108.509 	 30.6391 	 -20.7214
| 11> C 	 -108.85 	 31.2056 	 -19.4702
| 12> H 	 -108.304 	 31.2024 	 -21.5232
| 13> C 	 -108.314 	 28.4062 	 -22.0789
| 14> H 	 -108.47 	 28.8754 	 -22.9639
| 15> H 	 -108.865 	 27.4515 	 -21.9998
| 16> C 	 -106.8 	 27.9984 	 -22.0373
| 17> H 	 -106.152 	 28.8251 	 -21.8741
| 18> H 	 -106.515 	 27.2547 	 -21.312
| 19> C 	 -106.375 	 27.3485 	 -23.3931
| 20> H 	 -106.292 	 28.1619 	 -24.1404
| 21> H 	 -105.389 	 26.8977 	 -23.3932
| 22> H 	 -107.133 	 26.588 	 -23.6187
| 23> S 	 -107.322 	 33.4738 	 -19.0581
| 24> C 	 -107.981 	 34.731 	 -18.0326
| 25> C 	 -109.33 	 34.5733 	 -17.7645
| 26> C 	 -109.797 	 33.3765 	 -18.327
| 27> C 	 -108.832 	 32.6097 	 -19.042
| 28> H 	 -109.853 	 35.3426 	 -17.2219
| 29> C 	 -111.237 	 32.9583 	 -18.1334
| 30> H 	 -111.497 	 32.2681 	 -18.91
| 31> H 	 -111.934 	 33.7483 	 -18.2385
| 32> C 	 -111.53 	 32.4381 	 -16.7341
| 33> H 	 -110.982 	 32.9686 	 -16.0091
| 34> H 	 -111.156 	 31.4119 	 -16.5873
| 35> C 	 -113.004 	 32.297 	 -16.3194
| 36> H 	 -113.535 	 33.2604 	 -16.0706
| 37> H 	 -113.108 	 31.666 	 -15.4429
| 38> H 	 -113.615 	 31.8356 	 -17.0284
| 39> H 	 -108.987 	 27.5639 	 -19.4423
| 40> H 	 -107.429 	 35.5971 	 -17.5914
| 41> *
| 42>
| 43>                          ****END OF INPUT****

CARTESIAN COORDINATES (ANGSTROEM)
---------------------------------
  S    -108.971000   29.747700  -18.332900
  C    -108.986000   28.624300  -19.650700
  C    -108.611000   29.222600  -20.806600
  C    -108.509000   30.639100  -20.721400
  C    -108.850000   31.205600  -19.470200
  H    -108.304000   31.202400  -21.523200
  C    -108.314000   28.406200  -22.078900
  H    -108.470000   28.875400  -22.963900
  H    -108.865000   27.451500  -21.999800
  C    -106.800000   27.998400  -22.037300
  H    -106.152000   28.825100  -21.874100
  H    -106.515000   27.254700  -21.312000
  C    -106.375000   27.348500  -23.393100
  H    -106.292000   28.161900  -24.140400
  H    -105.389000   26.897700  -23.393200
  H    -107.133000   26.588000  -23.618700
  S    -107.322000   33.473800  -19.058100
  C    -107.981000   34.731000  -18.032600
  C    -109.330000   34.573300  -17.764500
  C    -109.797000   33.376500  -18.327000
  C    -108.832000   32.609700  -19.042000
  H    -109.853000   35.342600  -17.221900
  C    -111.237000   32.958300  -18.133400
  H    -111.497000   32.268100  -18.910000
  H    -111.934000   33.748300  -18.238500
  C    -111.530000   32.438100  -16.734100
  H    -110.982000   32.968600  -16.009100
  H    -111.156000   31.411900  -16.587300
  C    -113.004000   32.297000  -16.319400
  H    -113.535000   33.260400  -16.070600
  H    -113.108000   31.666000  -15.442900
  H    -113.615000   31.835600  -17.028400
  H    -108.987000   27.563900  -19.442300
  H    -107.429000   35.597100  -17.591400

 Total Charge           Charge          ....    0
 Multiplicity           Mult            ....    1
 Number of Electrons    NEL             ....  134
 Basis Dimension        Dim             ....  322

ORBITAL ENERGIES
----------------

  NO   OCC          E(Eh)            E(eV)
   0   2.0000     -88.970976     -2421.0233
   1   2.0000     -88.961632     -2420.7691
   2   2.0000     -10.341840      -281.4158
   3   2.0000     -10.329903      -281.0909
   4   2.0000     -10.323702      -280.9222
   5   2.0000     -10.310323      -280.5582
   6   2.0000     -10.307174      -280.4725
   7   2.0000     -10.298778      -280.2440
   8   2.0000     -10.293750      -280.1072
   9   2.0000     -10.292426      -280.0711
  10   2.0000     -10.291734      -280.0523
  11   2.0000     -10.282068      -279.7893
  12   2.0000     -10.279931      -279.7311
  13   2.0000     -10.278721      -279.6982
  14   2.0000     -10.276126      -279.6276
  15   2.0000     -10.271719      -279.5077
  16   2.0000      -8.085576      -220.0197
  17   2.0000      -8.075197      -219.7373
  18   2.0000      -6.043991      -164.4654
  19   2.0000      -6.040026      -164.3575
  20   2.0000      -6.036499      -164.2615
  21   2.0000      -6.033802      -164.1881
  22   2.0000      -6.029918      -164.0824
  23   2.0000      -6.025855      -163.9719
  24   2.0000      -1.002454       -27.2781
  25   2.0000      -0.982823       -26.7440
  26   2.0000      -0.908173       -24.7127
  27   2.0000      -0.905956       -24.6523
  28   2.0000      -0.870727       -23.6937
  29   2.0000      -0.849156       -23.1067
  30   2.0000      -0.843469       -22.9520
  31   2.0000      -0.817433       -22.2435
  32   2.0000      -0.781855       -21.2754
  33   2.0000      -0.765493       -20.8301
  34   2.0000      -0.707431       -19.2502
  35   2.0000      -0.698073       -18.9955
  36   2.0000      -0.696761       -18.9598
  37   2.0000      -0.663273       -18.0486
  38   2.0000      -0.647605       -17.6222
  39   2.0000      -0.620985       -16.8979
  40   2.0000      -0.598309       -16.2808
  41   2.0000      -0.577126       -15.7044
  42   2.0000      -0.566517       -15.4157
  43   2.0000      -0.555183       -15.1073
  44   2.0000      -0.525679       -14.3045
  45   2.0000      -0.516666       -14.0592
  46   2.0000      -0.515701       -14.0329
  47   2.0000      -0.509794       -13.8722
  48   2.0000      -0.509006       -13.8507
  49   2.0000      -0.507863       -13.8197
  50   2.0000      -0.490086       -13.3359
  51   2.0000      -0.476565       -12.9680
  52   2.0000      -0.474835       -12.9209
  53   2.0000      -0.465724       -12.6730
  54   2.0000      -0.460597       -12.5335
  55   2.0000      -0.447333       -12.1725
  56   2.0000      -0.438322       -11.9273
  57   2.0000      -0.437025       -11.8921
  58   2.0000      -0.431279       -11.7357
  59   2.0000      -0.426281       -11.5997
  60   2.0000      -0.424870       -11.5613
  61   2.0000      -0.413634       -11.2555
  62   2.0000      -0.404192       -10.9986
  63   2.0000      -0.344494        -9.3742
  64   2.0000      -0.334019        -9.0891
  65   2.0000      -0.321602        -8.7512
  66   2.0000      -0.295366        -8.0373
  67   0.0000       0.025693         0.6992
  68   0.0000       0.052885         1.4391
  69   0.0000       0.109863         2.9895
  70   0.0000       0.112698         3.0667
  71   0.0000       0.136245         3.7074

MULLIKEN ATOMIC CHARGES
-----------------------
   0 S :    0.089757
   1 C :   -0.122288
   2 C :   -0.085689
   3 C :    0.080389
   4 C :   -0.131980
   5 H :   -0.041474
   6 C :    0.120703
   7 H :   -0.000951
   8 H :    0.031043
   9 C :   -0.090504
  10 H :    0.023538
  11 H :    0.025945
  12 C :   -0.068004
  13 H :    0.033185
  14 H :    0.034636
  15 H :    0.034038
  16 S :    0.129600
  17 C :   -0.114966
  18 C :   -0.028851
  19 C :   -0.042207
  20 C :   -0.166192
  21 H :    0.024076
  22 C :    0.119732
  23 H :    0.022219
  24 H :    0.005530
  25 C :   -0.068281
  26 H :    0.011555
  27 H :    0.020188
  28 C :   -0.040921
  29 H :    0.028445
  30 H :    0.027578
  31 H :    0.015254
  32 H :    0.054012
  33 H :    0.070883
Sum of atomic charges:   -0.0000000

LOEWDIN ATOMIC CHARGES
----------------------
   0 S :    0.373425
   1 C :   -0.193894
   2 C :   -0.064945
   3 C :   -0.043116
   4 C :   -0.163010
   5 H :    0.008493
   6 C :   -0.010714
   7 H :    0.012611
   8 H :    0.036898
   9 C :   -0.035040
  10 H :    0.016747
  11 H :    0.020451
  12 C :   -0.069561
  13 H :    0.024250
  14 H :    0.023746
  15 H :    0.024165
  16 S :    0.425221
  17 C :   -0.185062
  18 C :   -0.073342
  19 C :   -0.038799
  20 C :   -0.223216
  21 H :    0.036105
  22 C :   -0.028375
  23 H :    0.029441
  24 H :    0.025956
  25 C :   -0.039386
  26 H :    0.016058
  27 H :    0.023876
  28 C :   -0.066391
  29 H :    0.025075
  30 H :    0.028130
  31 H :    0.015882
  32 H :    0.028864
  33 H :    0.039457

  Mayer bond orders larger than 0.100000
B(  0-S ,  1-C ) :   1.1478 B(  0-S ,  4-C ) :   1.1188 B(  1-C ,  2-C ) :   1.6064
B(  1-C , 32-H ) :   0.9647 B(  2-C ,  3-C ) :   1.2529 B(  2-C ,  6-C ) :   1.0325
B(  3-C ,  4-C ) :   1.5456 B(  3-C ,  5-H ) :   1.0164 B(  4-C , 20-C ) :   1.0754
B(  6-C ,  7-H ) :   0.9477 B(  6-C ,  8-H ) :   0.9393 B(  6-C ,  9-C ) :   1.0477
B(  9-C , 10-H ) :   0.9627 B(  9-C , 11-H ) :   0.9613 B(  9-C , 12-C ) :   1.0782
B( 12-C , 13-H ) :   0.9787 B( 12-C , 14-H ) :   0.9759 B( 12-C , 15-H ) :   0.9744
B( 16-S , 17-C ) :   1.1849 B( 16-S , 20-C ) :   1.1349 B( 17-C , 18-C ) :   1.5779
B( 17-C , 33-H ) :   0.9577 B( 18-C , 19-C ) :   1.2697 B( 18-C , 21-H ) :   0.9957
B( 19-C , 20-C ) :   1.5424 B( 19-C , 22-C ) :   1.0598 B( 22-C , 23-H ) :   0.9251
B( 22-C , 24-H ) :   0.9376 B( 22-C , 25-C ) :   1.0528 B( 25-C , 26-H ) :   0.9595
B( 25-C , 27-H ) :   0.9458 B( 25-C , 28-C ) :   1.0858 B( 28-C , 29-H ) :   0.9734
B( 28-C , 30-H ) :   0.9743 B( 28-C , 31-H ) :   0.9732

Dispersion correction           -0.013942678
FINAL SINGLE POINT ENERGY     -1339.858748094432

DIPOLE MOMENT
-------------
                                X             Y             Z
Electronic contribution:      8.24729      10.78850       5.85262
Nuclear contribution   :     -8.26803     -10.79091      -5.96879
                        -----------------------------------------
Total Dipole Moment    :     -0.02074      -0.00241      -0.11617
                        -----------------------------------------
Magnitude (a.u.)       :      0.11804
Magnitude (Debye)      :      0.30002

Rotational constants in cm-1:     0.022325     0.007312     0.005925
Rotational constants in MHz :   669.279492   219.210725   177.613611

                             ****ORCA TERMINATED NORMALLY****
TOTAL RUN TIME: 0 days 0 hours 0 minutes 20 seconds 839 msec
