                         Program Version 4.2.1 -  RELEASE  -
|  1> ! wB97X-D3 SP def2-SVP
|  2> %pal
|  3> nprocs 24
|  4> end
|  5>
|  6> * xyz 0 1
|  7> S 	 -65.0626 	 11.6202 	 -73.3423
|  8> C 	 -64.4131 	 11.8414 	 -71.755
|  9> C 	 -65.3756 	 11.6153 	 -70.7956
| 10> C 	 -66.6448 	 11.2117 	 -71.3035
| 11> C 	 -66.6225 	 11.0569 	 -72.6854
| 12> H 	 -67.62 	 11.1105 	 -70.7862
| 13> C 	 -65.1701 	 11.9535 	 -69.3398
| 14> H 	 -65.232 	 13.0937 	 -69.1558
| 15> H 	 -64.154 	 11.7787 	 -69.0364
| 16> C 	 -66.1579 	 11.3988 	 -68.3363
| 17> H 	 -65.885 	 11.7425 	 -67.339
| 18> H 	 -67.2215 	 11.5855 	 -68.5849
| 19> C 	 -66.0885 	 9.81736 	 -68.1566
| 20> H 	 -66.276 	 9.21576 	 -68.9921
| 21> H 	 -65.0836 	 9.50321 	 -67.9048
| 22> H 	 -66.8837 	 9.50048 	 -67.4611
| 23> S 	 -68.3076 	 12.0809 	 -74.5032
| 24> C 	 -69.3945 	 11.0268 	 -75.4413
| 25> C 	 -69.5055 	 9.76641 	 -74.9123
| 26> C 	 -68.6256 	 9.63782 	 -73.7431
| 27> C 	 -67.7735 	 10.7149 	 -73.5213
| 28> H 	 -70.1254 	 8.95291 	 -75.3166
| 29> C 	 -68.3969 	 8.32159 	 -73.0245
| 30> H 	 -69.3043 	 7.75751 	 -73.2678
| 31> H 	 -68.5264 	 8.44256 	 -71.9988
| 32> C 	 -67.1976 	 7.42554 	 -73.3248
| 33> H 	 -67.2645 	 6.38219 	 -73.0145
| 34> H 	 -66.4608 	 7.91372 	 -72.766
| 35> C 	 -66.7713 	 7.4031 	 -74.812
| 36> H 	 -65.6749 	 7.30923 	 -75.1035
| 37> H 	 -67.1186 	 8.35251 	 -75.2095
| 38> H 	 -67.3725 	 6.65896 	 -75.3127
| 39> H 	 -63.3769 	 12.1834 	 -71.6615
| 40> H 	 -70.0516 	 11.3979 	 -76.2298
| 41> *
| 42>
| 43>                          ****END OF INPUT****

CARTESIAN COORDINATES (ANGSTROEM)
---------------------------------
  S    -65.062600   11.620200  -73.342300
  C    -64.413100   11.841400  -71.755000
  C    -65.375600   11.615300  -70.795600
  C    -66.644800   11.211700  -71.303500
  C    -66.622500   11.056900  -72.685400
  H    -67.620000   11.110500  -70.786200
  C    -65.170100   11.953500  -69.339800
  H    -65.232000   13.093700  -69.155800
  H    -64.154000   11.778700  -69.036400
  C    -66.157900   11.398800  -68.336300
  H    -65.885000   11.742500  -67.339000
  H    -67.221500   11.585500  -68.584900
  C    -66.088500    9.817360  -68.156600
  H    -66.276000    9.215760  -68.992100
  H    -65.083600    9.503210  -67.904800
  H    -66.883700    9.500480  -67.461100
  S    -68.307600   12.080900  -74.503200
  C    -69.394500   11.026800  -75.441300
  C    -69.505500    9.766410  -74.912300
  C    -68.625600    9.637820  -73.743100
  C    -67.773500   10.714900  -73.521300
  H    -70.125400    8.952910  -75.316600
  C    -68.396900    8.321590  -73.024500
  H    -69.304300    7.757510  -73.267800
  H    -68.526400    8.442560  -71.998800
  C    -67.197600    7.425540  -73.324800
  H    -67.264500    6.382190  -73.014500
  H    -66.460800    7.913720  -72.766000
  C    -66.771300    7.403100  -74.812000
  H    -65.674900    7.309230  -75.103500
  H    -67.118600    8.352510  -75.209500
  H    -67.372500    6.658960  -75.312700
  H    -63.376900   12.183400  -71.661500
  H    -70.051600   11.397900  -76.229800

 Total Charge           Charge          ....    0
 Multiplicity           Mult            ....    1
 Number of Electrons    NEL             ....  134
 Basis Dimension        Dim             ....  322

ORBITAL ENERGIES
----------------

  NO   OCC          E(Eh)            E(eV)
   0   2.0000     -88.969134     -2420.9732
   1   2.0000     -88.962328     -2420.7880
   2   2.0000     -10.335517      -281.2437
   3   2.0000     -10.329605      -281.0828
   4   2.0000     -10.321780      -280.8699
   5   2.0000     -10.317883      -280.7639
   6   2.0000     -10.309966      -280.5484
   7   2.0000     -10.304970      -280.4125
   8   2.0000     -10.303340      -280.3681
   9   2.0000     -10.301746      -280.3248
  10   2.0000     -10.295992      -280.1682
  11   2.0000     -10.293328      -280.0957
  12   2.0000     -10.281504      -279.7740
  13   2.0000     -10.276190      -279.6293
  14   2.0000     -10.272118      -279.5185
  15   2.0000     -10.269443      -279.4458
  16   2.0000      -8.083661      -219.9676
  17   2.0000      -8.076792      -219.7807
  18   2.0000      -6.042133      -164.4148
  19   2.0000      -6.038136      -164.3060
  20   2.0000      -6.035382      -164.2311
  21   2.0000      -6.034515      -164.2075
  22   2.0000      -6.031333      -164.1209
  23   2.0000      -6.027464      -164.0156
  24   2.0000      -1.005623       -27.3644
  25   2.0000      -0.982540       -26.7363
  26   2.0000      -0.909657       -24.7530
  27   2.0000      -0.905660       -24.6443
  28   2.0000      -0.872444       -23.7404
  29   2.0000      -0.845593       -23.0098
  30   2.0000      -0.838265       -22.8103
  31   2.0000      -0.817945       -22.2574
  32   2.0000      -0.782737       -21.2994
  33   2.0000      -0.771744       -21.0002
  34   2.0000      -0.712456       -19.3869
  35   2.0000      -0.696070       -18.9410
  36   2.0000      -0.685355       -18.6494
  37   2.0000      -0.663464       -18.0538
  38   2.0000      -0.645868       -17.5750
  39   2.0000      -0.624699       -16.9989
  40   2.0000      -0.586313       -15.9544
  41   2.0000      -0.567669       -15.4471
  42   2.0000      -0.558117       -15.1871
  43   2.0000      -0.547137       -14.8884
  44   2.0000      -0.542367       -14.7586
  45   2.0000      -0.535593       -14.5742
  46   2.0000      -0.519335       -14.1318
  47   2.0000      -0.510494       -13.8912
  48   2.0000      -0.501123       -13.6363
  49   2.0000      -0.494393       -13.4531
  50   2.0000      -0.491852       -13.3840
  51   2.0000      -0.480719       -13.0810
  52   2.0000      -0.468089       -12.7373
  53   2.0000      -0.466367       -12.6905
  54   2.0000      -0.449545       -12.2327
  55   2.0000      -0.446172       -12.1410
  56   2.0000      -0.441228       -12.0064
  57   2.0000      -0.440010       -11.9733
  58   2.0000      -0.436062       -11.8658
  59   2.0000      -0.420177       -11.4336
  60   2.0000      -0.414106       -11.2684
  61   2.0000      -0.411144       -11.1878
  62   2.0000      -0.399770       -10.8783
  63   2.0000      -0.345572        -9.4035
  64   2.0000      -0.329857        -8.9759
  65   2.0000      -0.328376        -8.9356
  66   2.0000      -0.299378        -8.1465
  67   0.0000       0.028394         0.7726
  68   0.0000       0.057918         1.5760
  69   0.0000       0.105457         2.8696
  70   0.0000       0.120241         3.2719
  71   0.0000       0.128443         3.4951

MULLIKEN ATOMIC CHARGES
-----------------------
   0 S :    0.120686
   1 C :   -0.140125
   2 C :   -0.043254
   3 C :    0.026187
   4 C :   -0.157689
   5 H :    0.038790
   6 C :    0.049761
   7 H :    0.052138
   8 H :    0.014842
   9 C :   -0.082658
  10 H :    0.035064
  11 H :    0.039179
  12 C :   -0.056903
  13 H :    0.013468
  14 H :    0.021714
  15 H :    0.035595
  16 S :    0.089471
  17 C :   -0.084058
  18 C :   -0.030653
  19 C :   -0.092104
  20 C :   -0.167375
  21 H :    0.037458
  22 C :    0.086633
  23 H :   -0.001242
  24 H :    0.010534
  25 C :   -0.028515
  26 H :    0.034639
  27 H :    0.021706
  28 C :   -0.075034
  29 H :    0.052152
  30 H :    0.032035
  31 H :    0.020542
  32 H :    0.063431
  33 H :    0.063585
Sum of atomic charges:    0.0000000

LOEWDIN ATOMIC CHARGES
----------------------
   0 S :    0.409307
   1 C :   -0.198346
   2 C :   -0.068449
   3 C :   -0.059738
   4 C :   -0.195426
   5 H :    0.043511
   6 C :   -0.041564
   7 H :    0.045940
   8 H :    0.026598
   9 C :   -0.040218
  10 H :    0.029643
  11 H :    0.025771
  12 C :   -0.070987
  13 H :    0.012867
  14 H :    0.021831
  15 H :    0.029156
  16 S :    0.384129
  17 C :   -0.171496
  18 C :   -0.072108
  19 C :   -0.057553
  20 C :   -0.189007
  21 H :    0.040281
  22 C :   -0.034466
  23 H :    0.025956
  24 H :    0.022849
  25 C :   -0.034583
  26 H :    0.027564
  27 H :    0.017629
  28 C :   -0.073616
  29 H :    0.035802
  30 H :    0.024323
  31 H :    0.018960
  32 H :    0.034205
  33 H :    0.031233

  Mayer bond orders larger than 0.100000
B(  0-S ,  1-C ) :   1.1494 B(  0-S ,  4-C ) :   1.1551 B(  1-C ,  2-C ) :   1.5886
B(  1-C ,  4-C ) :   0.1006 B(  1-C , 32-H ) :   0.9733 B(  2-C ,  3-C ) :   1.2428
B(  2-C ,  6-C ) :   1.0187 B(  3-C ,  4-C ) :   1.5709 B(  3-C ,  5-H ) :   0.9837
B(  4-C , 20-C ) :   1.0332 B(  6-C ,  7-H ) :   0.9328 B(  6-C ,  8-H ) :   0.9399
B(  6-C ,  9-C ) :   1.0911 B(  9-C , 10-H ) :   0.9539 B(  9-C , 11-H ) :   0.9501
B(  9-C , 12-C ) :   1.0679 B( 12-C , 13-H ) :   0.9769 B( 12-C , 14-H ) :   0.9750
B( 12-C , 15-H ) :   0.9770 B( 16-S , 17-C ) :   1.1401 B( 16-S , 20-C ) :   1.1383
B( 17-C , 18-C ) :   1.6346 B( 17-C , 33-H ) :   0.9635 B( 18-C , 19-C ) :   1.2096
B( 18-C , 21-H ) :   0.9860 B( 19-C , 20-C ) :   1.6145 B( 19-C , 22-C ) :   1.0533
B( 22-C , 23-H ) :   0.9239 B( 22-C , 24-H ) :   0.9330 B( 22-C , 25-C ) :   1.0571
B( 25-C , 26-H ) :   0.9601 B( 25-C , 27-H ) :   0.9545 B( 25-C , 28-C ) :   1.0692
B( 28-C , 29-H ) :   0.9759 B( 28-C , 30-H ) :   0.9753 B( 28-C , 31-H ) :   0.9782

Dispersion correction           -0.015350252
FINAL SINGLE POINT ENERGY     -1339.860891403365

DIPOLE MOMENT
-------------
                                X             Y             Z
Electronic contribution:     -0.88888      16.72047     -16.49557
Nuclear contribution   :      0.79717     -16.85375      16.91096
                        -----------------------------------------
Total Dipole Moment    :     -0.09171      -0.13328       0.41540
                        -----------------------------------------
Magnitude (a.u.)       :      0.44579
Magnitude (Debye)      :      1.13311

Rotational constants in cm-1:     0.019391     0.009043     0.007941
Rotational constants in MHz :   581.337851   271.114252   238.059761

                             ****ORCA TERMINATED NORMALLY****
TOTAL RUN TIME: 0 days 0 hours 0 minutes 22 seconds 411 msec
