                         Program Version 4.2.1 -  RELEASE  -
|  1> ! wB97X-D3 SP def2-SVP
|  2> %pal
|  3> nprocs 24
|  4> end
|  5>
|  6> * xyz 0 1
|  7> S 	 -62.883 	 12.4377 	 -88.9731
|  8> C 	 -62.8913 	 14.1996 	 -89.1147
|  9> C 	 -61.8877 	 14.78 	 -88.3078
| 10> C 	 -61.4444 	 13.8644 	 -87.3677
| 11> C 	 -61.8011 	 12.5545 	 -87.6081
| 12> H 	 -60.7358 	 14.1322 	 -86.6048
| 13> C 	 -61.3694 	 16.2066 	 -88.3425
| 14> H 	 -61.6429 	 16.5936 	 -89.3143
| 15> H 	 -60.3037 	 16.4402 	 -88.3445
| 16> C 	 -61.9307 	 17.1793 	 -87.2625
| 17> H 	 -61.1367 	 17.3019 	 -86.5312
| 18> H 	 -62.0024 	 18.1428 	 -87.7443
| 19> C 	 -63.2612 	 16.8848 	 -86.722
| 20> H 	 -64.0025 	 16.7518 	 -87.5973
| 21> H 	 -63.2838 	 16.0099 	 -86.0658
| 22> H 	 -63.5022 	 17.7425 	 -86.0606
| 23> S 	 -62.8474 	 10.696 	 -85.9343
| 24> C 	 -61.7781 	 9.68047 	 -85.1192
| 25> C 	 -60.4528 	 9.83803 	 -85.4837
| 26> C 	 -60.3283 	 10.9001 	 -86.34
| 27> C 	 -61.5015 	 11.4215 	 -86.7438
| 28> H 	 -59.6454 	 9.22645 	 -85.0536
| 29> C 	 -58.975 	 11.2917 	 -86.9581
| 30> H 	 -58.3294 	 11.0037 	 -86.1891
| 31> H 	 -58.8688 	 12.3327 	 -87.1442
| 32> C 	 -58.5769 	 10.4963 	 -88.1469
| 33> H 	 -57.5785 	 10.837 	 -88.4504
| 34> H 	 -59.318 	 10.7573 	 -88.9825
| 35> C 	 -58.6672 	 8.97116 	 -87.923
| 36> H 	 -57.8844 	 8.56493 	 -87.2256
| 37> H 	 -58.5227 	 8.49535 	 -88.8844
| 38> H 	 -59.6604 	 8.68113 	 -87.6645
| 39> H 	 -63.2223 	 14.8167 	 -89.9861
| 40> H 	 -62.08 	 8.9257 	 -84.3725
| 41> *
| 42>
| 43>                          ****END OF INPUT****

CARTESIAN COORDINATES (ANGSTROEM)
---------------------------------
  S    -62.883000   12.437700  -88.973100
  C    -62.891300   14.199600  -89.114700
  C    -61.887700   14.780000  -88.307800
  C    -61.444400   13.864400  -87.367700
  C    -61.801100   12.554500  -87.608100
  H    -60.735800   14.132200  -86.604800
  C    -61.369400   16.206600  -88.342500
  H    -61.642900   16.593600  -89.314300
  H    -60.303700   16.440200  -88.344500
  C    -61.930700   17.179300  -87.262500
  H    -61.136700   17.301900  -86.531200
  H    -62.002400   18.142800  -87.744300
  C    -63.261200   16.884800  -86.722000
  H    -64.002500   16.751800  -87.597300
  H    -63.283800   16.009900  -86.065800
  H    -63.502200   17.742500  -86.060600
  S    -62.847400   10.696000  -85.934300
  C    -61.778100    9.680470  -85.119200
  C    -60.452800    9.838030  -85.483700
  C    -60.328300   10.900100  -86.340000
  C    -61.501500   11.421500  -86.743800
  H    -59.645400    9.226450  -85.053600
  C    -58.975000   11.291700  -86.958100
  H    -58.329400   11.003700  -86.189100
  H    -58.868800   12.332700  -87.144200
  C    -58.576900   10.496300  -88.146900
  H    -57.578500   10.837000  -88.450400
  H    -59.318000   10.757300  -88.982500
  C    -58.667200    8.971160  -87.923000
  H    -57.884400    8.564930  -87.225600
  H    -58.522700    8.495350  -88.884400
  H    -59.660400    8.681130  -87.664500
  H    -63.222300   14.816700  -89.986100
  H    -62.080000    8.925700  -84.372500

 Total Charge           Charge          ....    0
 Multiplicity           Mult            ....    1
 Number of Electrons    NEL             ....  134
 Basis Dimension        Dim             ....  322

ORBITAL ENERGIES
----------------

  NO   OCC          E(Eh)            E(eV)
   0   2.0000     -88.971810     -2421.0460
   1   2.0000     -88.965366     -2420.8707
   2   2.0000     -10.326035      -280.9857
   3   2.0000     -10.317395      -280.7506
   4   2.0000     -10.313815      -280.6532
   5   2.0000     -10.312013      -280.6041
   6   2.0000     -10.300005      -280.2774
   7   2.0000     -10.290290      -280.0130
   8   2.0000     -10.289921      -280.0030
   9   2.0000     -10.287548      -279.9384
  10   2.0000     -10.285903      -279.8937
  11   2.0000     -10.284550      -279.8568
  12   2.0000     -10.278961      -279.7047
  13   2.0000     -10.277357      -279.6611
  14   2.0000     -10.276424      -279.6357
  15   2.0000     -10.273824      -279.5650
  16   2.0000      -8.085773      -220.0251
  17   2.0000      -8.081848      -219.9183
  18   2.0000      -6.044250      -164.4724
  19   2.0000      -6.040442      -164.3688
  20   2.0000      -6.039928      -164.3548
  21   2.0000      -6.036567      -164.2633
  22   2.0000      -6.036151      -164.2520
  23   2.0000      -6.032907      -164.1637
  24   2.0000      -1.018666       -27.7193
  25   2.0000      -0.990671       -26.9575
  26   2.0000      -0.916569       -24.9411
  27   2.0000      -0.914086       -24.8735
  28   2.0000      -0.868238       -23.6260
  29   2.0000      -0.852617       -23.2009
  30   2.0000      -0.848981       -23.1019
  31   2.0000      -0.810078       -22.0433
  32   2.0000      -0.789953       -21.4957
  33   2.0000      -0.776341       -21.1253
  34   2.0000      -0.704213       -19.1626
  35   2.0000      -0.690542       -18.7906
  36   2.0000      -0.686239       -18.6735
  37   2.0000      -0.665938       -18.1211
  38   2.0000      -0.631886       -17.1945
  39   2.0000      -0.621678       -16.9167
  40   2.0000      -0.594889       -16.1878
  41   2.0000      -0.567526       -15.4432
  42   2.0000      -0.561129       -15.2691
  43   2.0000      -0.553822       -15.0703
  44   2.0000      -0.546378       -14.8677
  45   2.0000      -0.543073       -14.7778
  46   2.0000      -0.518956       -14.1215
  47   2.0000      -0.508124       -13.8268
  48   2.0000      -0.493528       -13.4296
  49   2.0000      -0.488459       -13.2916
  50   2.0000      -0.484314       -13.1789
  51   2.0000      -0.479133       -13.0379
  52   2.0000      -0.475367       -12.9354
  53   2.0000      -0.463443       -12.6109
  54   2.0000      -0.456325       -12.4172
  55   2.0000      -0.453091       -12.3292
  56   2.0000      -0.445657       -12.1269
  57   2.0000      -0.436197       -11.8695
  58   2.0000      -0.434034       -11.8107
  59   2.0000      -0.424087       -11.5400
  60   2.0000      -0.422171       -11.4878
  61   2.0000      -0.407960       -11.1011
  62   2.0000      -0.404011       -10.9937
  63   2.0000      -0.342752        -9.3268
  64   2.0000      -0.337550        -9.1852
  65   2.0000      -0.328811        -8.9474
  66   2.0000      -0.293551        -7.9879
  67   0.0000       0.035875         0.9762
  68   0.0000       0.063731         1.7342
  69   0.0000       0.104056         2.8315
  70   0.0000       0.127136         3.4595
  71   0.0000       0.141162         3.8412

MULLIKEN ATOMIC CHARGES
-----------------------
   0 S :    0.123009
   1 C :   -0.120581
   2 C :   -0.127158
   3 C :    0.061623
   4 C :   -0.170480
   5 H :    0.006804
   6 C :    0.082111
   7 H :   -0.000176
   8 H :    0.033067
   9 C :   -0.100191
  10 H :    0.022341
  11 H :    0.021083
  12 C :   -0.032385
  13 H :    0.041389
  14 H :    0.036462
  15 H :    0.037386
  16 S :    0.140022
  17 C :   -0.097339
  18 C :   -0.062132
  19 C :   -0.062565
  20 C :   -0.174029
  21 H :    0.025913
  22 C :    0.158136
  23 H :   -0.010553
  24 H :    0.014233
  25 C :   -0.081383
  26 H :    0.031339
  27 H :    0.034840
  28 C :   -0.058713
  29 H :    0.036917
  30 H :    0.025394
  31 H :    0.045696
  32 H :    0.061340
  33 H :    0.058580
Sum of atomic charges:    0.0000000

LOEWDIN ATOMIC CHARGES
----------------------
   0 S :    0.409867
   1 C :   -0.213359
   2 C :   -0.057937
   3 C :   -0.061166
   4 C :   -0.195196
   5 H :    0.029213
   6 C :   -0.036860
   7 H :    0.024478
   8 H :    0.036084
   9 C :   -0.048352
  10 H :    0.019288
  11 H :    0.025671
  12 C :   -0.071873
  13 H :    0.037076
  14 H :    0.025600
  15 H :    0.031920
  16 S :    0.449112
  17 C :   -0.205069
  18 C :   -0.078801
  19 C :   -0.059451
  20 C :   -0.214147
  21 H :    0.037789
  22 C :   -0.024069
  23 H :    0.019432
  24 H :    0.024836
  25 C :   -0.037831
  26 H :    0.024254
  27 H :    0.031095
  28 C :   -0.067979
  29 H :    0.027873
  30 H :    0.026407
  31 H :    0.024991
  32 H :    0.035105
  33 H :    0.031998

  Mayer bond orders larger than 0.100000
B(  0-S ,  1-C ) :   1.1415 B(  0-S ,  4-C ) :   1.1604 B(  1-C ,  2-C ) :   1.5889
B(  1-C ,  4-C ) :   0.1083 B(  1-C , 32-H ) :   0.9484 B(  2-C ,  3-C ) :   1.2676
B(  2-C ,  6-C ) :   1.0401 B(  3-C ,  4-C ) :   1.5688 B(  3-C ,  5-H ) :   0.9907
B(  4-C , 20-C ) :   1.0056 B(  6-C ,  7-H ) :   0.9279 B(  6-C ,  8-H ) :   0.9516
B(  6-C ,  9-C ) :   1.0546 B(  9-C , 10-H ) :   0.9542 B(  9-C , 11-H ) :   0.9530
B(  9-C , 12-C ) :   1.1132 B( 12-C , 13-H ) :   0.9674 B( 12-C , 14-H ) :   0.9632
B( 12-C , 15-H ) :   0.9678 B( 16-S , 17-C ) :   1.1935 B( 16-S , 20-C ) :   1.1566
B( 17-C , 18-C ) :   1.5687 B( 17-C , 20-C ) :   0.1012 B( 17-C , 33-H ) :   0.9611
B( 18-C , 19-C ) :   1.2770 B( 18-C , 21-H ) :   0.9882 B( 19-C , 20-C ) :   1.6079
B( 19-C , 22-C ) :   1.0331 B( 22-C , 23-H ) :   0.9143 B( 22-C , 24-H ) :   0.9285
B( 22-C , 25-C ) :   1.0864 B( 25-C , 26-H ) :   0.9544 B( 25-C , 27-H ) :   0.9527
B( 25-C , 28-C ) :   1.0851 B( 28-C , 29-H ) :   0.9738 B( 28-C , 30-H ) :   0.9693
B( 28-C , 31-H ) :   0.9646

Dispersion correction           -0.015288401
FINAL SINGLE POINT ENERGY     -1339.865968378390

DIPOLE MOMENT
-------------
                                X             Y             Z
Electronic contribution:    -13.73954     -11.40335       0.74527
Nuclear contribution   :     14.31057      11.66954      -0.65226
                        -----------------------------------------
Total Dipole Moment    :      0.57104       0.26619       0.09300
                        -----------------------------------------
Magnitude (a.u.)       :      0.63686
Magnitude (Debye)      :      1.61877

Rotational constants in cm-1:     0.022478     0.008218     0.007546
Rotational constants in MHz :   673.875896   246.364099   226.210460

                             ****ORCA TERMINATED NORMALLY****
TOTAL RUN TIME: 0 days 0 hours 0 minutes 21 seconds 124 msec
