                         Program Version 4.2.1 -  RELEASE  -
|  1> ! wB97X-D3 SP def2-SVP
|  2> %pal
|  3> nprocs 24
|  4> end
|  5>
|  6> * xyz 0 1
|  7> S 	 -96.1381 	 5.80844 	 0.133877
|  8> C 	 -97.4135 	 6.46304 	 -0.826478
|  9> C 	 -96.8477 	 7.28344 	 -1.78502
| 10> C 	 -95.4303 	 7.19584 	 -1.9265
| 11> C 	 -94.8991 	 6.37175 	 -0.917576
| 12> H 	 -94.9249 	 7.63538 	 -2.77594
| 13> C 	 -97.6725 	 8.07323 	 -2.75114
| 14> H 	 -97.3386 	 9.06877 	 -2.74369
| 15> H 	 -98.6665 	 8.05323 	 -2.29989
| 16> C 	 -97.747 	 7.40813 	 -4.19152
| 17> H 	 -96.7877 	 7.2648 	 -4.68262
| 18> H 	 -98.0304 	 6.38436 	 -4.0516
| 19> C 	 -98.6007 	 8.09003 	 -5.25044
| 20> H 	 -99.6436 	 8.14009 	 -4.87351
| 21> H 	 -98.1615 	 9.08181 	 -5.51387
| 22> H 	 -98.6199 	 7.35738 	 -6.13257
| 23> S 	 -93.3699 	 4.32736 	 0.0242336
| 24> C 	 -91.6434 	 4.44916 	 0.247771
| 25> C 	 -91.1416 	 5.50827 	 -0.52023
| 26> C 	 -92.1809 	 6.25886 	 -1.17771
| 27> C 	 -93.4865 	 5.86327 	 -0.831532
| 28> H 	 -90.0224 	 5.64258 	 -0.573242
| 29> C 	 -91.8034 	 7.59402 	 -1.8743
| 30> H 	 -92.4745 	 7.7487 	 -2.77648
| 31> H 	 -90.7272 	 7.6595 	 -2.21362
| 32> C 	 -91.9387 	 8.72109 	 -0.884438
| 33> H 	 -91.1616 	 8.59293 	 -0.0896419
| 34> H 	 -92.9285 	 8.5368 	 -0.286388
| 35> C 	 -91.8672 	 10.1703 	 -1.38177
| 36> H 	 -92.7481 	 10.152 	 -2.03734
| 37> H 	 -91.0104 	 10.381 	 -1.9684
| 38> H 	 -91.9678 	 10.9892 	 -0.651176
| 39> H 	 -98.5064 	 6.41645 	 -0.68777
| 40> H 	 -91.0959 	 3.75753 	 0.887395
| 41> *
| 42>
| 43>                          ****END OF INPUT****

CARTESIAN COORDINATES (ANGSTROEM)
---------------------------------
  S    -96.138100    5.808440    0.133877
  C    -97.413500    6.463040   -0.826478
  C    -96.847700    7.283440   -1.785020
  C    -95.430300    7.195840   -1.926500
  C    -94.899100    6.371750   -0.917576
  H    -94.924900    7.635380   -2.775940
  C    -97.672500    8.073230   -2.751140
  H    -97.338600    9.068770   -2.743690
  H    -98.666500    8.053230   -2.299890
  C    -97.747000    7.408130   -4.191520
  H    -96.787700    7.264800   -4.682620
  H    -98.030400    6.384360   -4.051600
  C    -98.600700    8.090030   -5.250440
  H    -99.643600    8.140090   -4.873510
  H    -98.161500    9.081810   -5.513870
  H    -98.619900    7.357380   -6.132570
  S    -93.369900    4.327360    0.024234
  C    -91.643400    4.449160    0.247771
  C    -91.141600    5.508270   -0.520230
  C    -92.180900    6.258860   -1.177710
  C    -93.486500    5.863270   -0.831532
  H    -90.022400    5.642580   -0.573242
  C    -91.803400    7.594020   -1.874300
  H    -92.474500    7.748700   -2.776480
  H    -90.727200    7.659500   -2.213620
  C    -91.938700    8.721090   -0.884438
  H    -91.161600    8.592930   -0.089642
  H    -92.928500    8.536800   -0.286388
  C    -91.867200   10.170300   -1.381770
  H    -92.748100   10.152000   -2.037340
  H    -91.010400   10.381000   -1.968400
  H    -91.967800   10.989200   -0.651176
  H    -98.506400    6.416450   -0.687770
  H    -91.095900    3.757530    0.887395

 Total Charge           Charge          ....    0
 Multiplicity           Mult            ....    1
 Number of Electrons    NEL             ....  134
 Basis Dimension        Dim             ....  322

ORBITAL ENERGIES
----------------

  NO   OCC          E(Eh)            E(eV)
   0   2.0000     -88.972109     -2421.0542
   1   2.0000     -88.962533     -2420.7936
   2   2.0000     -10.340088      -281.3681
   3   2.0000     -10.337468      -281.2968
   4   2.0000     -10.320647      -280.8391
   5   2.0000     -10.314833      -280.6809
   6   2.0000     -10.313878      -280.6549
   7   2.0000     -10.304577      -280.4018
   8   2.0000     -10.302609      -280.3482
   9   2.0000     -10.297522      -280.2098
  10   2.0000     -10.296974      -280.1949
  11   2.0000     -10.289357      -279.9877
  12   2.0000     -10.289309      -279.9863
  13   2.0000     -10.289146      -279.9819
  14   2.0000     -10.285765      -279.8899
  15   2.0000     -10.276197      -279.6295
  16   2.0000      -8.087197      -220.0638
  17   2.0000      -8.077515      -219.8003
  18   2.0000      -6.045819      -164.5151
  19   2.0000      -6.041461      -164.3965
  20   2.0000      -6.037962      -164.3013
  21   2.0000      -6.036016      -164.2483
  22   2.0000      -6.031845      -164.1349
  23   2.0000      -6.028374      -164.0404
  24   2.0000      -1.010231       -27.4898
  25   2.0000      -0.985803       -26.8251
  26   2.0000      -0.910732       -24.7823
  27   2.0000      -0.906566       -24.6689
  28   2.0000      -0.866665       -23.5832
  29   2.0000      -0.852236       -23.1905
  30   2.0000      -0.843317       -22.9478
  31   2.0000      -0.816459       -22.2170
  32   2.0000      -0.778897       -21.1949
  33   2.0000      -0.770463       -20.9654
  34   2.0000      -0.704135       -19.1605
  35   2.0000      -0.695850       -18.9350
  36   2.0000      -0.680836       -18.5265
  37   2.0000      -0.662918       -18.0389
  38   2.0000      -0.635903       -17.3038
  39   2.0000      -0.623743       -16.9729
  40   2.0000      -0.593174       -16.1411
  41   2.0000      -0.570353       -15.5201
  42   2.0000      -0.562848       -15.3159
  43   2.0000      -0.557139       -15.1605
  44   2.0000      -0.527571       -14.3559
  45   2.0000      -0.519983       -14.1494
  46   2.0000      -0.516979       -14.0677
  47   2.0000      -0.512457       -13.9447
  48   2.0000      -0.508685       -13.8420
  49   2.0000      -0.505897       -13.7662
  50   2.0000      -0.493725       -13.4349
  51   2.0000      -0.488386       -13.2897
  52   2.0000      -0.467623       -12.7247
  53   2.0000      -0.463308       -12.6072
  54   2.0000      -0.459373       -12.5002
  55   2.0000      -0.450492       -12.2585
  56   2.0000      -0.444760       -12.1025
  57   2.0000      -0.433919       -11.8075
  58   2.0000      -0.428462       -11.6590
  59   2.0000      -0.421061       -11.4577
  60   2.0000      -0.417752       -11.3676
  61   2.0000      -0.411227       -11.1901
  62   2.0000      -0.400427       -10.8962
  63   2.0000      -0.355487        -9.6733
  64   2.0000      -0.330976        -9.0063
  65   2.0000      -0.329414        -8.9638
  66   2.0000      -0.286266        -7.7897
  67   0.0000       0.015970         0.4346
  68   0.0000       0.082805         2.2532
  69   0.0000       0.104369         2.8400
  70   0.0000       0.113441         3.0869
  71   0.0000       0.132519         3.6060

MULLIKEN ATOMIC CHARGES
-----------------------
   0 S :    0.128253
   1 C :   -0.126640
   2 C :   -0.132942
   3 C :    0.013543
   4 C :   -0.091869
   5 H :    0.014988
   6 C :    0.109854
   7 H :    0.019977
   8 H :    0.006308
   9 C :   -0.090414
  10 H :    0.021188
  11 H :    0.018260
  12 C :   -0.062327
  13 H :    0.036244
  14 H :    0.047988
  15 H :    0.046425
  16 S :    0.083696
  17 C :   -0.107078
  18 C :   -0.052704
  19 C :   -0.030999
  20 C :   -0.138762
  21 H :    0.048033
  22 C :    0.026376
  23 H :    0.035603
  24 H :    0.033316
  25 C :   -0.132558
  26 H :    0.024011
  27 H :    0.048387
  28 C :   -0.010364
  29 H :    0.020330
  30 H :    0.021731
  31 H :    0.045338
  32 H :    0.059949
  33 H :    0.066859
Sum of atomic charges:   -0.0000000

LOEWDIN ATOMIC CHARGES
----------------------
   0 S :    0.438237
   1 C :   -0.219515
   2 C :   -0.063559
   3 C :   -0.065895
   4 C :   -0.199635
   5 H :    0.031072
   6 C :   -0.026802
   7 H :    0.023017
   8 H :    0.028411
   9 C :   -0.046460
  10 H :    0.021374
  11 H :    0.021840
  12 C :   -0.071291
  13 H :    0.024754
  14 H :    0.029594
  15 H :    0.037840
  16 S :    0.400831
  17 C :   -0.188876
  18 C :   -0.077901
  19 C :   -0.059324
  20 C :   -0.185648
  21 H :    0.044397
  22 C :   -0.038664
  23 H :    0.028926
  24 H :    0.035889
  25 C :   -0.057443
  26 H :    0.020889
  27 H :    0.034401
  28 C :   -0.067321
  29 H :    0.026599
  30 H :    0.017168
  31 H :    0.032442
  32 H :    0.039400
  33 H :    0.031253

  Mayer bond orders larger than 0.100000
B(  0-S ,  1-C ) :   1.1298 B(  0-S ,  4-C ) :   1.1817 B(  1-C ,  2-C ) :   1.5877
B(  1-C , 32-H ) :   0.9632 B(  2-C ,  3-C ) :   1.2710 B(  2-C ,  6-C ) :   1.0461
B(  3-C ,  4-C ) :   1.5062 B(  3-C ,  5-H ) :   0.9969 B(  4-C , 20-C ) :   1.0508
B(  6-C ,  7-H ) :   0.9341 B(  6-C ,  8-H ) :   0.9362 B(  6-C ,  9-C ) :   1.0455
B(  9-C , 10-H ) :   0.9578 B(  9-C , 11-H ) :   0.9529 B(  9-C , 12-C ) :   1.0888
B( 12-C , 13-H ) :   0.9755 B( 12-C , 14-H ) :   0.9735 B( 12-C , 15-H ) :   0.9718
B( 16-S , 17-C ) :   1.1629 B( 16-S , 20-C ) :   1.1479 B( 17-C , 18-C ) :   1.5829
B( 17-C , 20-C ) :   0.1024 B( 17-C , 33-H ) :   0.9707 B( 18-C , 19-C ) :   1.2555
B( 18-C , 21-H ) :   0.9827 B( 19-C , 20-C ) :   1.5623 B( 19-C , 22-C ) :   1.0480
B( 22-C , 23-H ) :   0.9400 B( 22-C , 24-H ) :   0.9357 B( 22-C , 25-C ) :   1.0562
B( 25-C , 26-H ) :   0.9511 B( 25-C , 27-H ) :   0.9584 B( 25-C , 28-C ) :   1.0617
B( 28-C , 29-H ) :   0.9766 B( 28-C , 30-H ) :   0.9738 B( 28-C , 31-H ) :   0.9739

Dispersion correction           -0.014020817
FINAL SINGLE POINT ENERGY     -1339.865087606900

DIPOLE MOMENT
-------------
                                X             Y             Z
Electronic contribution:      2.53575     -21.57927      18.42175
Nuclear contribution   :     -2.47661      21.94453     -18.75339
                        -----------------------------------------
Total Dipole Moment    :      0.05914       0.36526      -0.33164
                        -----------------------------------------
Magnitude (a.u.)       :      0.49689
Magnitude (Debye)      :      1.26299

Rotational constants in cm-1:     0.018148     0.008451     0.006591
Rotational constants in MHz :   544.058289   253.356755   197.580614

                             ****ORCA TERMINATED NORMALLY****
TOTAL RUN TIME: 0 days 0 hours 0 minutes 21 seconds 283 msec
