                         Program Version 4.2.1 -  RELEASE  -
|  1> ! wB97X-D3 SP def2-SVP
|  2> %pal
|  3> nprocs 24
|  4> end
|  5>
|  6> * xyz 0 1
|  7> S 	 -95.1523 	 53.9661 	 -97.9881
|  8> C 	 -93.9657 	 54.6742 	 -96.8464
|  9> C 	 -92.7119 	 54.0592 	 -96.9936
| 10> C 	 -92.7641 	 53.0745 	 -98.0735
| 11> C 	 -93.9889 	 52.9014 	 -98.703
| 12> H 	 -91.9007 	 52.4608 	 -98.3696
| 13> C 	 -91.3869 	 54.2998 	 -96.2657
| 14> H 	 -91.0566 	 53.4353 	 -95.6505
| 15> H 	 -91.5887 	 55.0688 	 -95.4956
| 16> C 	 -90.131 	 54.7293 	 -97.0951
| 17> H 	 -90.0821 	 53.8654 	 -97.7665
| 18> H 	 -90.3721 	 55.5941 	 -97.6025
| 19> C 	 -88.8097 	 54.94 	 -96.3092
| 20> H 	 -88.9424 	 55.6496 	 -95.4543
| 21> H 	 -88.4189 	 54.0759 	 -95.7332
| 22> H 	 -88.0322 	 55.3965 	 -97.0154
| 23> S 	 -94.5483 	 52.6912 	 -101.428
| 24> C 	 -94.7719 	 51.1545 	 -102.122
| 25> C 	 -94.8144 	 50.205 	 -101.151
| 26> C 	 -94.6935 	 50.6841 	 -99.7975
| 27> C 	 -94.3298 	 52.0154 	 -99.8093
| 28> H 	 -94.8655 	 49.177 	 -101.481
| 29> C 	 -94.9163 	 49.8295 	 -98.584
| 30> H 	 -94.0879 	 49.9058 	 -97.8864
| 31> H 	 -94.8193 	 48.8103 	 -98.941
| 32> C 	 -96.2134 	 50.0869 	 -97.7459
| 33> H 	 -97.0187 	 50.4244 	 -98.4365
| 34> H 	 -96.061 	 50.9209 	 -97.1126
| 35> C 	 -96.6503 	 48.9426 	 -96.8714
| 36> H 	 -96.575 	 48.0241 	 -97.37
| 37> H 	 -97.687 	 49.0813 	 -96.7448
| 38> H 	 -96.1528 	 48.9703 	 -95.8732
| 39> H 	 -94.1483 	 55.3763 	 -96.0559
| 40> H 	 -94.7549 	 50.941 	 -103.217
| 41> *
| 42>
| 43>                          ****END OF INPUT****

CARTESIAN COORDINATES (ANGSTROEM)
---------------------------------
  S    -95.152300   53.966100  -97.988100
  C    -93.965700   54.674200  -96.846400
  C    -92.711900   54.059200  -96.993600
  C    -92.764100   53.074500  -98.073500
  C    -93.988900   52.901400  -98.703000
  H    -91.900700   52.460800  -98.369600
  C    -91.386900   54.299800  -96.265700
  H    -91.056600   53.435300  -95.650500
  H    -91.588700   55.068800  -95.495600
  C    -90.131000   54.729300  -97.095100
  H    -90.082100   53.865400  -97.766500
  H    -90.372100   55.594100  -97.602500
  C    -88.809700   54.940000  -96.309200
  H    -88.942400   55.649600  -95.454300
  H    -88.418900   54.075900  -95.733200
  H    -88.032200   55.396500  -97.015400
  S    -94.548300   52.691200  -101.428000
  C    -94.771900   51.154500  -102.122000
  C    -94.814400   50.205000  -101.151000
  C    -94.693500   50.684100  -99.797500
  C    -94.329800   52.015400  -99.809300
  H    -94.865500   49.177000  -101.481000
  C    -94.916300   49.829500  -98.584000
  H    -94.087900   49.905800  -97.886400
  H    -94.819300   48.810300  -98.941000
  C    -96.213400   50.086900  -97.745900
  H    -97.018700   50.424400  -98.436500
  H    -96.061000   50.920900  -97.112600
  C    -96.650300   48.942600  -96.871400
  H    -96.575000   48.024100  -97.370000
  H    -97.687000   49.081300  -96.744800
  H    -96.152800   48.970300  -95.873200
  H    -94.148300   55.376300  -96.055900
  H    -94.754900   50.941000  -103.217000

 Total Charge           Charge          ....    0
 Multiplicity           Mult            ....    1
 Number of Electrons    NEL             ....  134
 Basis Dimension        Dim             ....  322

ORBITAL ENERGIES
----------------

  NO   OCC          E(Eh)            E(eV)
   0   2.0000     -88.968008     -2420.9426
   1   2.0000     -88.961262     -2420.7590
   2   2.0000     -10.328989      -281.0661
   3   2.0000     -10.324388      -280.9409
   4   2.0000     -10.322206      -280.8815
   5   2.0000     -10.314425      -280.6698
   6   2.0000     -10.310646      -280.5669
   7   2.0000     -10.304245      -280.3928
   8   2.0000     -10.299328      -280.2590
   9   2.0000     -10.297332      -280.2047
  10   2.0000     -10.293742      -280.1070
  11   2.0000     -10.289405      -279.9889
  12   2.0000     -10.287796      -279.9452
  13   2.0000     -10.287736      -279.9435
  14   2.0000     -10.279965      -279.7321
  15   2.0000     -10.268356      -279.4162
  16   2.0000      -8.081916      -219.9201
  17   2.0000      -8.076944      -219.7848
  18   2.0000      -6.040529      -164.3712
  19   2.0000      -6.036405      -164.2589
  20   2.0000      -6.035428      -164.2323
  21   2.0000      -6.032720      -164.1587
  22   2.0000      -6.031300      -164.1200
  23   2.0000      -6.027682      -164.0216
  24   2.0000      -1.006784       -27.3960
  25   2.0000      -0.981871       -26.7181
  26   2.0000      -0.908014       -24.7083
  27   2.0000      -0.905606       -24.6428
  28   2.0000      -0.868530       -23.6339
  29   2.0000      -0.854523       -23.2528
  30   2.0000      -0.840276       -22.8651
  31   2.0000      -0.811836       -22.0912
  32   2.0000      -0.782927       -21.3045
  33   2.0000      -0.773560       -21.0496
  34   2.0000      -0.709479       -19.3059
  35   2.0000      -0.700018       -19.0485
  36   2.0000      -0.691866       -18.8266
  37   2.0000      -0.655309       -17.8319
  38   2.0000      -0.640059       -17.4169
  39   2.0000      -0.617327       -16.7983
  40   2.0000      -0.596187       -16.2231
  41   2.0000      -0.571567       -15.5531
  42   2.0000      -0.563311       -15.3285
  43   2.0000      -0.557585       -15.1727
  44   2.0000      -0.524661       -14.2768
  45   2.0000      -0.521904       -14.2017
  46   2.0000      -0.519548       -14.1376
  47   2.0000      -0.509719       -13.8702
  48   2.0000      -0.504483       -13.7277
  49   2.0000      -0.501405       -13.6439
  50   2.0000      -0.494600       -13.4588
  51   2.0000      -0.476473       -12.9655
  52   2.0000      -0.468434       -12.7467
  53   2.0000      -0.462696       -12.5906
  54   2.0000      -0.456385       -12.4189
  55   2.0000      -0.449885       -12.2420
  56   2.0000      -0.446897       -12.1607
  57   2.0000      -0.436823       -11.8866
  58   2.0000      -0.431998       -11.7553
  59   2.0000      -0.424215       -11.5435
  60   2.0000      -0.422494       -11.4966
  61   2.0000      -0.411426       -11.1955
  62   2.0000      -0.409237       -11.1359
  63   2.0000      -0.331756        -9.0275
  64   2.0000      -0.328177        -8.9302
  65   2.0000      -0.324812        -8.8386
  66   2.0000      -0.310295        -8.4435
  67   0.0000       0.045200         1.2299
  68   0.0000       0.052335         1.4241
  69   0.0000       0.114435         3.1139
  70   0.0000       0.124429         3.3859
  71   0.0000       0.129037         3.5113

MULLIKEN ATOMIC CHARGES
-----------------------
   0 S :    0.114811
   1 C :   -0.112335
   2 C :   -0.079850
   3 C :    0.029298
   4 C :   -0.168602
   5 H :    0.022518
   6 C :    0.021980
   7 H :    0.039148
   8 H :    0.009869
   9 C :   -0.038294
  10 H :    0.032888
  11 H :    0.024431
  12 C :   -0.090676
  13 H :    0.030518
  14 H :    0.037578
  15 H :    0.059983
  16 S :    0.112260
  17 C :   -0.100357
  18 C :   -0.046835
  19 C :   -0.023022
  20 C :   -0.185387
  21 H :    0.014424
  22 C :    0.107220
  23 H :    0.021762
  24 H :    0.005230
  25 C :   -0.087718
  26 H :    0.034069
  27 H :    0.022990
  28 C :   -0.006274
  29 H :    0.015375
  30 H :    0.019472
  31 H :    0.045128
  32 H :    0.043578
  33 H :    0.074820
Sum of atomic charges:    0.0000000

LOEWDIN ATOMIC CHARGES
----------------------
   0 S :    0.404545
   1 C :   -0.184946
   2 C :   -0.061333
   3 C :   -0.062116
   4 C :   -0.206650
   5 H :    0.032328
   6 C :   -0.040266
   7 H :    0.034338
   8 H :    0.023901
   9 C :   -0.032462
  10 H :    0.025450
  11 H :    0.016538
  12 C :   -0.078364
  13 H :    0.027680
  14 H :    0.027866
  15 H :    0.040897
  16 S :    0.414846
  17 C :   -0.203980
  18 C :   -0.080034
  19 C :   -0.047472
  20 C :   -0.201955
  21 H :    0.029273
  22 C :   -0.033330
  23 H :    0.032796
  24 H :    0.026047
  25 C :   -0.037042
  26 H :    0.026667
  27 H :    0.018453
  28 C :   -0.058724
  29 H :    0.016863
  30 H :    0.026112
  31 H :    0.033793
  32 H :    0.027221
  33 H :    0.043059

  Mayer bond orders larger than 0.100000
B(  0-S ,  1-C ) :   1.1321 B(  0-S ,  4-C ) :   1.1462 B(  1-C ,  2-C ) :   1.6223
B(  1-C , 32-H ) :   0.9672 B(  2-C ,  3-C ) :   1.2204 B(  2-C ,  6-C ) :   1.0322
B(  3-C ,  4-C ) :   1.6169 B(  3-C ,  5-H ) :   0.9850 B(  4-C , 20-C ) :   1.0150
B(  6-C ,  7-H ) :   0.9432 B(  6-C ,  8-H ) :   0.9391 B(  6-C ,  9-C ) :   1.0487
B(  9-C , 10-H ) :   0.9567 B(  9-C , 11-H ) :   0.9582 B(  9-C , 12-C ) :   1.0778
B( 12-C , 13-H ) :   0.9738 B( 12-C , 14-H ) :   0.9738 B( 12-C , 15-H ) :   0.9741
B( 16-S , 17-C ) :   1.1611 B( 16-S , 20-C ) :   1.1437 B( 17-C , 18-C ) :   1.6248
B( 17-C , 33-H ) :   0.9590 B( 18-C , 19-C ) :   1.2252 B( 18-C , 21-H ) :   0.9906
B( 19-C , 20-C ) :   1.5964 B( 19-C , 22-C ) :   1.0584 B( 22-C , 23-H ) :   0.9228
B( 22-C , 24-H ) :   0.9327 B( 22-C , 25-C ) :   1.0476 B( 25-C , 26-H ) :   0.9639
B( 25-C , 27-H ) :   0.9494 B( 25-C , 28-C ) :   1.0906 B( 28-C , 29-H ) :   0.9749
B( 28-C , 30-H ) :   0.9701 B( 28-C , 31-H ) :   0.9749

Dispersion correction           -0.013924066
FINAL SINGLE POINT ENERGY     -1339.874736156298

DIPOLE MOMENT
-------------
                                X             Y             Z
Electronic contribution:    -12.08662       7.33070     -17.45122
Nuclear contribution   :     12.42538      -7.68011      17.76884
                        -----------------------------------------
Total Dipole Moment    :      0.33875      -0.34940       0.31762
                        -----------------------------------------
Magnitude (a.u.)       :      0.58114
Magnitude (Debye)      :      1.47714

Rotational constants in cm-1:     0.018262     0.007663     0.006674
Rotational constants in MHz :   547.472989   229.722551   200.071589

                             ****ORCA TERMINATED NORMALLY****
TOTAL RUN TIME: 0 days 0 hours 0 minutes 20 seconds 946 msec
