                         Program Version 4.2.1 -  RELEASE  -
|  1> ! wB97X-D3 SP def2-SVP
|  2> %pal
|  3> nprocs 24
|  4> end
|  5>
|  6> * xyz 0 1
|  7> S 	 -31.3648 	 8.28935 	 3.76081
|  8> C 	 -30.2384 	 9.56256 	 3.82333
|  9> C 	 -30.107 	 10.0623 	 5.08357
| 10> C 	 -30.8366 	 9.26132 	 6.00783
| 11> C 	 -31.5943 	 8.23871 	 5.4084
| 12> H 	 -30.8808 	 9.42977 	 7.08699
| 13> C 	 -29.2372 	 11.2876 	 5.37926
| 14> H 	 -28.2608 	 10.9833 	 5.10556
| 15> H 	 -29.2907 	 11.4344 	 6.46253
| 16> C 	 -29.5921 	 12.6032 	 4.69687
| 17> H 	 -29.5647 	 12.4224 	 3.59739
| 18> H 	 -30.613 	 12.8911 	 4.96658
| 19> C 	 -28.6036 	 13.6725 	 5.06814
| 20> H 	 -28.9477 	 14.6736 	 4.81402
| 21> H 	 -28.3762 	 13.7141 	 6.12013
| 22> H 	 -27.6219 	 13.4181 	 4.6857
| 23> S 	 -32.4102 	 5.66424 	 5.65578
| 24> C 	 -33.6982 	 5.30159 	 6.84481
| 25> C 	 -34.169 	 6.46152 	 7.49455
| 26> C 	 -33.4332 	 7.60367 	 7.15531
| 27> C 	 -32.487 	 7.34796 	 6.13869
| 28> H 	 -34.8828 	 6.45636 	 8.24043
| 29> C 	 -33.8334 	 8.91598 	 7.75986
| 30> H 	 -33.0998 	 9.68294 	 7.64009
| 31> H 	 -33.863 	 8.78502 	 8.79865
| 32> C 	 -35.1121 	 9.59295 	 7.28571
| 33> H 	 -35.158 	 10.6044 	 7.71658
| 34> H 	 -35.9856 	 9.03443 	 7.72473
| 35> C 	 -35.3992 	 9.65667 	 5.71575
| 36> H 	 -36.4055 	 10.0906 	 5.63264
| 37> H 	 -35.6023 	 8.64696 	 5.41447
| 38> H 	 -34.5927 	 10.0897 	 5.05603
| 39> H 	 -29.7282 	 9.96246 	 2.96663
| 40> H 	 -34.0609 	 4.28769 	 7.13526
| 41> *
| 42>
| 43>                          ****END OF INPUT****

CARTESIAN COORDINATES (ANGSTROEM)
---------------------------------
  S    -31.364800    8.289350    3.760810
  C    -30.238400    9.562560    3.823330
  C    -30.107000   10.062300    5.083570
  C    -30.836600    9.261320    6.007830
  C    -31.594300    8.238710    5.408400
  H    -30.880800    9.429770    7.086990
  C    -29.237200   11.287600    5.379260
  H    -28.260800   10.983300    5.105560
  H    -29.290700   11.434400    6.462530
  C    -29.592100   12.603200    4.696870
  H    -29.564700   12.422400    3.597390
  H    -30.613000   12.891100    4.966580
  C    -28.603600   13.672500    5.068140
  H    -28.947700   14.673600    4.814020
  H    -28.376200   13.714100    6.120130
  H    -27.621900   13.418100    4.685700
  S    -32.410200    5.664240    5.655780
  C    -33.698200    5.301590    6.844810
  C    -34.169000    6.461520    7.494550
  C    -33.433200    7.603670    7.155310
  C    -32.487000    7.347960    6.138690
  H    -34.882800    6.456360    8.240430
  C    -33.833400    8.915980    7.759860
  H    -33.099800    9.682940    7.640090
  H    -33.863000    8.785020    8.798650
  C    -35.112100    9.592950    7.285710
  H    -35.158000   10.604400    7.716580
  H    -35.985600    9.034430    7.724730
  C    -35.399200    9.656670    5.715750
  H    -36.405500   10.090600    5.632640
  H    -35.602300    8.646960    5.414470
  H    -34.592700   10.089700    5.056030
  H    -29.728200    9.962460    2.966630
  H    -34.060900    4.287690    7.135260

 Total Charge           Charge          ....    0
 Multiplicity           Mult            ....    1
 Number of Electrons    NEL             ....  134
 Basis Dimension        Dim             ....  322

ORBITAL ENERGIES
----------------

  NO   OCC          E(Eh)            E(eV)
   0   2.0000     -88.971794     -2421.0456
   1   2.0000     -88.965867     -2420.8843
   2   2.0000     -10.330080      -281.0958
   3   2.0000     -10.326096      -280.9874
   4   2.0000     -10.321839      -280.8715
   5   2.0000     -10.302548      -280.3466
   6   2.0000     -10.302327      -280.3406
   7   2.0000     -10.295384      -280.1516
   8   2.0000     -10.292254      -280.0665
   9   2.0000     -10.290981      -280.0318
  10   2.0000     -10.290425      -280.0167
  11   2.0000     -10.289010      -279.9782
  12   2.0000     -10.288595      -279.9669
  13   2.0000     -10.281881      -279.7842
  14   2.0000     -10.278655      -279.6964
  15   2.0000     -10.275615      -279.6137
  16   2.0000      -8.085539      -220.0187
  17   2.0000      -8.082778      -219.9436
  18   2.0000      -6.043999      -164.4656
  19   2.0000      -6.040989      -164.3837
  20   2.0000      -6.040200      -164.3622
  21   2.0000      -6.036794      -164.2695
  22   2.0000      -6.036401      -164.2588
  23   2.0000      -6.033917      -164.1912
  24   2.0000      -1.015847       -27.6426
  25   2.0000      -0.985751       -26.8236
  26   2.0000      -0.918134       -24.9837
  27   2.0000      -0.906584       -24.6694
  28   2.0000      -0.871893       -23.7254
  29   2.0000      -0.850630       -23.1468
  30   2.0000      -0.844791       -22.9879
  31   2.0000      -0.809212       -22.0198
  32   2.0000      -0.786739       -21.4083
  33   2.0000      -0.774718       -21.0811
  34   2.0000      -0.704681       -19.1753
  35   2.0000      -0.702988       -19.1293
  36   2.0000      -0.685732       -18.6597
  37   2.0000      -0.669278       -18.2120
  38   2.0000      -0.641785       -17.4638
  39   2.0000      -0.616145       -16.7662
  40   2.0000      -0.593135       -16.1400
  41   2.0000      -0.574696       -15.6383
  42   2.0000      -0.566367       -15.4116
  43   2.0000      -0.552846       -15.0437
  44   2.0000      -0.539851       -14.6901
  45   2.0000      -0.528633       -14.3848
  46   2.0000      -0.518196       -14.1008
  47   2.0000      -0.506057       -13.7705
  48   2.0000      -0.502970       -13.6865
  49   2.0000      -0.497424       -13.5356
  50   2.0000      -0.493897       -13.4396
  51   2.0000      -0.476345       -12.9620
  52   2.0000      -0.470034       -12.7903
  53   2.0000      -0.468601       -12.7513
  54   2.0000      -0.459764       -12.5108
  55   2.0000      -0.452509       -12.3134
  56   2.0000      -0.444534       -12.0964
  57   2.0000      -0.440862       -11.9965
  58   2.0000      -0.433070       -11.7844
  59   2.0000      -0.422324       -11.4920
  60   2.0000      -0.420150       -11.4329
  61   2.0000      -0.417068       -11.3490
  62   2.0000      -0.409883       -11.1535
  63   2.0000      -0.347433        -9.4541
  64   2.0000      -0.336389        -9.1536
  65   2.0000      -0.330623        -8.9967
  66   2.0000      -0.284888        -7.7522
  67   0.0000       0.028169         0.7665
  68   0.0000       0.075841         2.0637
  69   0.0000       0.107238         2.9181
  70   0.0000       0.122762         3.3405
  71   0.0000       0.135125         3.6769

MULLIKEN ATOMIC CHARGES
-----------------------
   0 S :    0.135263
   1 C :   -0.137420
   2 C :   -0.078402
   3 C :    0.002857
   4 C :   -0.141071
   5 H :    0.012918
   6 C :    0.070302
   7 H :    0.024810
   8 H :    0.015025
   9 C :   -0.072191
  10 H :    0.031617
  11 H :    0.030770
  12 C :   -0.011909
  13 H :    0.038435
  14 H :    0.012541
  15 H :    0.018098
  16 S :    0.116078
  17 C :   -0.104777
  18 C :   -0.007271
  19 C :   -0.033136
  20 C :   -0.169990
  21 H :   -0.010937
  22 C :    0.122259
  23 H :   -0.001112
  24 H :    0.012754
  25 C :   -0.114698
  26 H :    0.035305
  27 H :    0.023244
  28 C :   -0.052609
  29 H :    0.032576
  30 H :    0.028681
  31 H :    0.061580
  32 H :    0.040163
  33 H :    0.070244
Sum of atomic charges:    0.0000000

LOEWDIN ATOMIC CHARGES
----------------------
   0 S :    0.465869
   1 C :   -0.217721
   2 C :   -0.064784
   3 C :   -0.072970
   4 C :   -0.233317
   5 H :    0.028168
   6 C :   -0.026580
   7 H :    0.027090
   8 H :    0.028431
   9 C :   -0.039094
  10 H :    0.025637
  11 H :    0.025230
  12 C :   -0.064624
  13 H :    0.028395
  14 H :    0.022453
  15 H :    0.025488
  16 S :    0.401115
  17 C :   -0.181158
  18 C :   -0.055208
  19 C :   -0.052745
  20 C :   -0.191660
  21 H :    0.019309
  22 C :   -0.035747
  23 H :    0.024982
  24 H :    0.027969
  25 C :   -0.038056
  26 H :    0.024463
  27 H :    0.022282
  28 C :   -0.072004
  29 H :    0.030239
  30 H :    0.023155
  31 H :    0.034878
  32 H :    0.024405
  33 H :    0.036108

  Mayer bond orders larger than 0.100000
B(  0-S ,  1-C ) :   1.1607 B(  0-S ,  4-C ) :   1.1982 B(  1-C ,  2-C ) :   1.5628
B(  1-C , 32-H ) :   0.9745 B(  2-C ,  3-C ) :   1.3017 B(  2-C ,  6-C ) :   1.0038
B(  3-C ,  4-C ) :   1.5015 B(  3-C ,  5-H ) :   0.9952 B(  4-C , 20-C ) :   1.0384
B(  6-C ,  7-H ) :   0.9389 B(  6-C ,  8-H ) :   0.9416 B(  6-C ,  9-C ) :   1.0716
B(  9-C , 10-H ) :   0.9528 B(  9-C , 11-H ) :   0.9552 B(  9-C , 12-C ) :   1.0880
B( 12-C , 13-H ) :   0.9732 B( 12-C , 14-H ) :   0.9696 B( 12-C , 15-H ) :   0.9693
B( 16-S , 17-C ) :   1.1500 B( 16-S , 20-C ) :   1.1553 B( 17-C , 18-C ) :   1.5793
B( 17-C , 20-C ) :   0.1136 B( 17-C , 33-H ) :   0.9631 B( 18-C , 19-C ) :   1.2677
B( 18-C , 21-H ) :   0.9974 B( 19-C , 20-C ) :   1.5549 B( 19-C , 22-C ) :   1.0510
B( 22-C , 23-H ) :   0.9251 B( 22-C , 24-H ) :   0.9222 B( 22-C , 25-C ) :   1.0745
B( 25-C , 26-H ) :   0.9588 B( 25-C , 27-H ) :   0.9544 B( 25-C , 28-C ) :   1.0705
B( 28-C , 29-H ) :   0.9721 B( 28-C , 30-H ) :   0.9705 B( 28-C , 31-H ) :   0.9767

Dispersion correction           -0.014562213
FINAL SINGLE POINT ENERGY     -1339.879741160392

DIPOLE MOMENT
-------------
                                X             Y             Z
Electronic contribution:      0.97320     -26.88396      -6.37106
Nuclear contribution   :     -1.02931      27.37402       6.76583
                        -----------------------------------------
Total Dipole Moment    :     -0.05610       0.49006       0.39477
                        -----------------------------------------
Magnitude (a.u.)       :      0.63179
Magnitude (Debye)      :      1.60588

Rotational constants in cm-1:     0.022078     0.007939     0.006661
Rotational constants in MHz :   661.896720   237.996785   199.694679

                             ****ORCA TERMINATED NORMALLY****
TOTAL RUN TIME: 0 days 0 hours 0 minutes 21 seconds 661 msec
