                         Program Version 4.2.1 -  RELEASE  -
|  1> ! wB97X-D3 SP def2-SVP
|  2> %pal
|  3> nprocs 24
|  4> end
|  5>
|  6> * xyz 0 1
|  7> S 	 -29.6196 	 -34.3786 	 -95.6132
|  8> C 	 -28.3645 	 -35.539 	 -95.3482
|  9> C 	 -27.2563 	 -35.0165 	 -94.6807
| 10> C 	 -27.4026 	 -33.6011 	 -94.4874
| 11> C 	 -28.5841 	 -33.0947 	 -95.0833
| 12> H 	 -26.743 	 -33.0134 	 -93.8725
| 13> C 	 -25.9906 	 -35.8233 	 -94.2475
| 14> H 	 -26.2849 	 -36.8237 	 -93.9718
| 15> H 	 -25.7329 	 -35.3455 	 -93.3536
| 16> C 	 -24.9184 	 -35.8958 	 -95.2759
| 17> H 	 -25.2668 	 -36.2908 	 -96.2272
| 18> H 	 -24.7029 	 -34.8341 	 -95.5037
| 19> C 	 -23.7128 	 -36.7249 	 -94.7116
| 20> H 	 -23.2044 	 -36.3258 	 -93.8161
| 21> H 	 -23.9902 	 -37.7324 	 -94.3328
| 22> H 	 -22.9351 	 -36.7154 	 -95.4115
| 23> S 	 -30.8691 	 -31.4408 	 -94.7752
| 24> C 	 -30.5652 	 -29.8298 	 -94.291
| 25> C 	 -29.2607 	 -29.4375 	 -94.3606
| 26> C 	 -28.3968 	 -30.5255 	 -94.6694
| 27> C 	 -29.1082 	 -31.7086 	 -94.8897
| 28> H 	 -28.9865 	 -28.4107 	 -94.1388
| 29> C 	 -26.8646 	 -30.3711 	 -94.7414
| 30> H 	 -26.62 	 -29.656 	 -95.4821
| 31> H 	 -26.3895 	 -31.1938 	 -95.2641
| 32> C 	 -26.202 	 -29.9364 	 -93.4168
| 33> H 	 -26.619 	 -30.5 	 -92.6135
| 34> H 	 -26.4281 	 -28.8793 	 -93.1774
| 35> C 	 -24.7438 	 -30.1808 	 -93.2967
| 36> H 	 -24.5117 	 -31.2477 	 -93.2651
| 37> H 	 -24.2437 	 -29.6959 	 -92.4209
| 38> H 	 -24.247 	 -29.824 	 -94.1002
| 39> H 	 -28.5069 	 -36.5434 	 -95.6846
| 40> H 	 -31.4112 	 -29.1596 	 -94.2302
| 41> *
| 42>
| 43>                          ****END OF INPUT****

CARTESIAN COORDINATES (ANGSTROEM)
---------------------------------
  S    -29.619600  -34.378600  -95.613200
  C    -28.364500  -35.539000  -95.348200
  C    -27.256300  -35.016500  -94.680700
  C    -27.402600  -33.601100  -94.487400
  C    -28.584100  -33.094700  -95.083300
  H    -26.743000  -33.013400  -93.872500
  C    -25.990600  -35.823300  -94.247500
  H    -26.284900  -36.823700  -93.971800
  H    -25.732900  -35.345500  -93.353600
  C    -24.918400  -35.895800  -95.275900
  H    -25.266800  -36.290800  -96.227200
  H    -24.702900  -34.834100  -95.503700
  C    -23.712800  -36.724900  -94.711600
  H    -23.204400  -36.325800  -93.816100
  H    -23.990200  -37.732400  -94.332800
  H    -22.935100  -36.715400  -95.411500
  S    -30.869100  -31.440800  -94.775200
  C    -30.565200  -29.829800  -94.291000
  C    -29.260700  -29.437500  -94.360600
  C    -28.396800  -30.525500  -94.669400
  C    -29.108200  -31.708600  -94.889700
  H    -28.986500  -28.410700  -94.138800
  C    -26.864600  -30.371100  -94.741400
  H    -26.620000  -29.656000  -95.482100
  H    -26.389500  -31.193800  -95.264100
  C    -26.202000  -29.936400  -93.416800
  H    -26.619000  -30.500000  -92.613500
  H    -26.428100  -28.879300  -93.177400
  C    -24.743800  -30.180800  -93.296700
  H    -24.511700  -31.247700  -93.265100
  H    -24.243700  -29.695900  -92.420900
  H    -24.247000  -29.824000  -94.100200
  H    -28.506900  -36.543400  -95.684600
  H    -31.411200  -29.159600  -94.230200

 Total Charge           Charge          ....    0
 Multiplicity           Mult            ....    1
 Number of Electrons    NEL             ....  134
 Basis Dimension        Dim             ....  322

ORBITAL ENERGIES
----------------

  NO   OCC          E(Eh)            E(eV)
   0   2.0000     -88.967877     -2420.9390
   1   2.0000     -88.965389     -2420.8713
   2   2.0000     -10.332712      -281.1674
   3   2.0000     -10.330699      -281.1126
   4   2.0000     -10.311594      -280.5927
   5   2.0000     -10.311052      -280.5780
   6   2.0000     -10.305423      -280.4248
   7   2.0000     -10.303450      -280.3711
   8   2.0000     -10.296566      -280.1838
   9   2.0000     -10.292405      -280.0706
  10   2.0000     -10.290102      -280.0079
  11   2.0000     -10.289634      -279.9952
  12   2.0000     -10.286504      -279.9100
  13   2.0000     -10.283880      -279.8386
  14   2.0000     -10.281595      -279.7764
  15   2.0000     -10.270905      -279.4855
  16   2.0000      -8.083231      -219.9559
  17   2.0000      -8.080626      -219.8850
  18   2.0000      -6.041650      -164.4017
  19   2.0000      -6.039053      -164.3310
  20   2.0000      -6.037719      -164.2947
  21   2.0000      -6.035246      -164.2274
  22   2.0000      -6.034019      -164.1940
  23   2.0000      -6.031291      -164.1198
  24   2.0000      -1.004956       -27.3462
  25   2.0000      -0.984857       -26.7993
  26   2.0000      -0.914418       -24.8826
  27   2.0000      -0.913139       -24.8478
  28   2.0000      -0.863648       -23.5011
  29   2.0000      -0.858550       -23.3623
  30   2.0000      -0.845665       -23.0117
  31   2.0000      -0.810090       -22.0437
  32   2.0000      -0.788448       -21.4548
  33   2.0000      -0.774766       -21.0824
  34   2.0000      -0.708977       -19.2922
  35   2.0000      -0.705878       -19.2079
  36   2.0000      -0.692823       -18.8527
  37   2.0000      -0.661569       -18.0022
  38   2.0000      -0.638287       -17.3687
  39   2.0000      -0.622311       -16.9339
  40   2.0000      -0.601557       -16.3692
  41   2.0000      -0.568188       -15.4612
  42   2.0000      -0.563612       -15.3367
  43   2.0000      -0.559161       -15.2156
  44   2.0000      -0.531491       -14.4626
  45   2.0000      -0.529151       -14.3989
  46   2.0000      -0.520435       -14.1618
  47   2.0000      -0.511383       -13.9154
  48   2.0000      -0.501878       -13.6568
  49   2.0000      -0.492248       -13.3948
  50   2.0000      -0.488953       -13.3051
  51   2.0000      -0.484878       -13.1942
  52   2.0000      -0.470505       -12.8031
  53   2.0000      -0.465306       -12.6616
  54   2.0000      -0.464368       -12.6361
  55   2.0000      -0.453897       -12.3512
  56   2.0000      -0.447972       -12.1899
  57   2.0000      -0.444314       -12.0904
  58   2.0000      -0.434618       -11.8266
  59   2.0000      -0.428873       -11.6702
  60   2.0000      -0.420282       -11.4365
  61   2.0000      -0.414981       -11.2922
  62   2.0000      -0.412818       -11.2334
  63   2.0000      -0.356285        -9.6950
  64   2.0000      -0.337234        -9.1766
  65   2.0000      -0.329446        -8.9647
  66   2.0000      -0.279807        -7.6139
  67   0.0000       0.022999         0.6258
  68   0.0000       0.080422         2.1884
  69   0.0000       0.100243         2.7277
  70   0.0000       0.118144         3.2149
  71   0.0000       0.130293         3.5455

MULLIKEN ATOMIC CHARGES
-----------------------
   0 S :    0.103567
   1 C :   -0.121868
   2 C :   -0.095778
   3 C :   -0.004501
   4 C :   -0.114656
   5 H :    0.009854
   6 C :    0.102509
   7 H :    0.008235
   8 H :    0.007742
   9 C :   -0.045673
  10 H :    0.029149
  11 H :    0.023542
  12 C :   -0.033146
  13 H :    0.022205
  14 H :    0.034451
  15 H :    0.025332
  16 S :    0.096595
  17 C :   -0.088752
  18 C :   -0.024323
  19 C :   -0.051829
  20 C :   -0.133337
  21 H :    0.020394
  22 C :    0.070181
  23 H :    0.014903
  24 H :    0.015099
  25 C :   -0.061431
  26 H :    0.023401
  27 H :    0.030183
  28 C :   -0.016152
  29 H :    0.022614
  30 H :    0.037581
  31 H :   -0.002411
  32 H :    0.040097
  33 H :    0.056227
Sum of atomic charges:    0.0000000

LOEWDIN ATOMIC CHARGES
----------------------
   0 S :    0.421097
   1 C :   -0.201269
   2 C :   -0.056498
   3 C :   -0.065937
   4 C :   -0.193852
   5 H :    0.027692
   6 C :   -0.023080
   7 H :    0.024372
   8 H :    0.022666
   9 C :   -0.036636
  10 H :    0.026000
  11 H :    0.027655
  12 C :   -0.066693
  13 H :    0.028317
  14 H :    0.030075
  15 H :    0.018279
  16 S :    0.397349
  17 C :   -0.190284
  18 C :   -0.070627
  19 C :   -0.051659
  20 C :   -0.185299
  21 H :    0.034315
  22 C :   -0.034830
  23 H :    0.029338
  24 H :    0.030362
  25 C :   -0.041027
  26 H :    0.020971
  27 H :    0.027120
  28 C :   -0.059595
  29 H :    0.024472
  30 H :    0.035168
  31 H :    0.006616
  32 H :    0.020212
  33 H :    0.025209

  Mayer bond orders larger than 0.100000
B(  0-S ,  1-C ) :   1.1524 B(  0-S ,  4-C ) :   1.1735 B(  1-C ,  2-C ) :   1.5817
B(  1-C , 32-H ) :   0.9754 B(  2-C ,  3-C ) :   1.2776 B(  2-C ,  6-C ) :   1.0071
B(  3-C ,  4-C ) :   1.5163 B(  3-C ,  5-H ) :   0.9927 B(  4-C , 20-C ) :   1.0577
B(  6-C ,  7-H ) :   0.9388 B(  6-C ,  8-H ) :   0.9386 B(  6-C ,  9-C ) :   1.0707
B(  9-C , 10-H ) :   0.9554 B(  9-C , 11-H ) :   0.9526 B(  9-C , 12-C ) :   1.0682
B( 12-C , 13-H ) :   0.9743 B( 12-C , 14-H ) :   0.9745 B( 12-C , 15-H ) :   0.9753
B( 16-S , 17-C ) :   1.1645 B( 16-S , 20-C ) :   1.1296 B( 17-C , 18-C ) :   1.6139
B( 17-C , 33-H ) :   0.9627 B( 18-C , 19-C ) :   1.2358 B( 18-C , 21-H ) :   0.9947
B( 19-C , 20-C ) :   1.6118 B( 19-C , 22-C ) :   1.0418 B( 22-C , 23-H ) :   0.9210
B( 22-C , 24-H ) :   0.9387 B( 22-C , 25-C ) :   1.0423 B( 25-C , 26-H ) :   0.9614
B( 25-C , 27-H ) :   0.9494 B( 25-C , 28-C ) :   1.0980 B( 28-C , 29-H ) :   0.9732
B( 28-C , 30-H ) :   0.9699 B( 28-C , 31-H ) :   0.9680

Dispersion correction           -0.013973571
FINAL SINGLE POINT ENERGY     -1339.872965982149

DIPOLE MOMENT
-------------
                                X             Y             Z
Electronic contribution:    -32.92550       2.41857      -6.84149
Nuclear contribution   :     33.58064      -2.30322       7.03366
                        -----------------------------------------
Total Dipole Moment    :      0.65515       0.11535       0.19218
                        -----------------------------------------
Magnitude (a.u.)       :      0.69243
Magnitude (Debye)      :      1.76001

Rotational constants in cm-1:     0.017721     0.009013     0.006153
Rotational constants in MHz :   531.265494   270.201630   184.463150

                             ****ORCA TERMINATED NORMALLY****
TOTAL RUN TIME: 0 days 0 hours 0 minutes 21 seconds 518 msec
