                         Program Version 4.2.1 -  RELEASE  -
|  1> ! wB97X-D3 SP def2-SVP
|  2> %pal
|  3> nprocs 24
|  4> end
|  5>
|  6> * xyz 0 1
|  7> S 	 -83.0273 	 -40.0368 	 -75.3095
|  8> C 	 -83.6654 	 -41.1321 	 -76.4614
|  9> C 	 -83.6365 	 -40.5135 	 -77.749
| 10> C 	 -83.1726 	 -39.1756 	 -77.6871
| 11> C 	 -82.7552 	 -38.8112 	 -76.4163
| 12> H 	 -82.9741 	 -38.5519 	 -78.5388
| 13> C 	 -83.9874 	 -41.1346 	 -79.0901
| 14> H 	 -85.0174 	 -40.9787 	 -79.2694
| 15> H 	 -84.0439 	 -42.2101 	 -78.9151
| 16> C 	 -83.1437 	 -40.8006 	 -80.3209
| 17> H 	 -83.4558 	 -41.3384 	 -81.2422
| 18> H 	 -83.2264 	 -39.756 	 -80.5939
| 19> C 	 -81.6515 	 -41.0806 	 -80.1287
| 20> H 	 -81.4934 	 -42.0279 	 -79.6699
| 21> H 	 -81.198 	 -41.0785 	 -81.0874
| 22> H 	 -80.9911 	 -40.4356 	 -79.5044
| 23> S 	 -82.6547 	 -37.0433 	 -74.3918
| 24> C 	 -81.9529 	 -35.5051 	 -74.4384
| 25> C 	 -81.3669 	 -35.2859 	 -75.6783
| 26> C 	 -81.537 	 -36.4375 	 -76.5724
| 27> C 	 -82.2355 	 -37.5262 	 -75.9771
| 28> H 	 -80.9263 	 -34.3231 	 -75.9481
| 29> C 	 -80.928 	 -36.3726 	 -77.9545
| 30> H 	 -80.3006 	 -35.4881 	 -77.808
| 31> H 	 -81.7557 	 -36.1475 	 -78.686
| 32> C 	 -79.9759 	 -37.485 	 -78.3302
| 33> H 	 -80.5135 	 -38.3697 	 -78.0175
| 34> H 	 -79.1178 	 -37.4433 	 -77.6242
| 35> C 	 -79.5701 	 -37.2245 	 -79.7888
| 36> H 	 -79.5081 	 -36.2015 	 -79.9887
| 37> H 	 -80.3013 	 -37.6497 	 -80.5214
| 38> H 	 -78.6012 	 -37.6775 	 -80.0299
| 39> H 	 -83.8735 	 -42.2107 	 -76.2818
| 40> H 	 -82.0756 	 -34.6966 	 -73.7516
| 41> *
| 42>
| 43>                          ****END OF INPUT****

CARTESIAN COORDINATES (ANGSTROEM)
---------------------------------
  S    -83.027300  -40.036800  -75.309500
  C    -83.665400  -41.132100  -76.461400
  C    -83.636500  -40.513500  -77.749000
  C    -83.172600  -39.175600  -77.687100
  C    -82.755200  -38.811200  -76.416300
  H    -82.974100  -38.551900  -78.538800
  C    -83.987400  -41.134600  -79.090100
  H    -85.017400  -40.978700  -79.269400
  H    -84.043900  -42.210100  -78.915100
  C    -83.143700  -40.800600  -80.320900
  H    -83.455800  -41.338400  -81.242200
  H    -83.226400  -39.756000  -80.593900
  C    -81.651500  -41.080600  -80.128700
  H    -81.493400  -42.027900  -79.669900
  H    -81.198000  -41.078500  -81.087400
  H    -80.991100  -40.435600  -79.504400
  S    -82.654700  -37.043300  -74.391800
  C    -81.952900  -35.505100  -74.438400
  C    -81.366900  -35.285900  -75.678300
  C    -81.537000  -36.437500  -76.572400
  C    -82.235500  -37.526200  -75.977100
  H    -80.926300  -34.323100  -75.948100
  C    -80.928000  -36.372600  -77.954500
  H    -80.300600  -35.488100  -77.808000
  H    -81.755700  -36.147500  -78.686000
  C    -79.975900  -37.485000  -78.330200
  H    -80.513500  -38.369700  -78.017500
  H    -79.117800  -37.443300  -77.624200
  C    -79.570100  -37.224500  -79.788800
  H    -79.508100  -36.201500  -79.988700
  H    -80.301300  -37.649700  -80.521400
  H    -78.601200  -37.677500  -80.029900
  H    -83.873500  -42.210700  -76.281800
  H    -82.075600  -34.696600  -73.751600

 Total Charge           Charge          ....    0
 Multiplicity           Mult            ....    1
 Number of Electrons    NEL             ....  134
 Basis Dimension        Dim             ....  322

ORBITAL ENERGIES
----------------

  NO   OCC          E(Eh)            E(eV)
   0   2.0000     -88.969506     -2420.9833
   1   2.0000     -88.963774     -2420.8274
   2   2.0000     -10.328272      -281.0466
   3   2.0000     -10.327825      -281.0344
   4   2.0000     -10.317473      -280.7527
   5   2.0000     -10.312174      -280.6085
   6   2.0000     -10.306303      -280.4488
   7   2.0000     -10.306109      -280.4435
   8   2.0000     -10.296822      -280.1908
   9   2.0000     -10.292619      -280.0764
  10   2.0000     -10.289777      -279.9991
  11   2.0000     -10.288921      -279.9758
  12   2.0000     -10.288638      -279.9681
  13   2.0000     -10.283423      -279.8262
  14   2.0000     -10.278553      -279.6937
  15   2.0000     -10.270267      -279.4682
  16   2.0000      -8.085930      -220.0293
  17   2.0000      -8.080190      -219.8731
  18   2.0000      -6.044296      -164.4737
  19   2.0000      -6.039918      -164.3545
  20   2.0000      -6.038653      -164.3201
  21   2.0000      -6.037020      -164.2757
  22   2.0000      -6.034106      -164.1964
  23   2.0000      -6.031241      -164.1184
  24   2.0000      -1.019113       -27.7315
  25   2.0000      -0.991977       -26.9931
  26   2.0000      -0.915971       -24.9248
  27   2.0000      -0.913548       -24.8589
  28   2.0000      -0.872536       -23.7429
  29   2.0000      -0.852597       -23.2004
  30   2.0000      -0.845220       -22.9996
  31   2.0000      -0.817579       -22.2474
  32   2.0000      -0.784773       -21.3548
  33   2.0000      -0.770070       -20.9547
  34   2.0000      -0.714248       -19.4357
  35   2.0000      -0.705281       -19.1917
  36   2.0000      -0.687266       -18.7015
  37   2.0000      -0.664730       -18.0882
  38   2.0000      -0.638008       -17.3611
  39   2.0000      -0.628711       -17.1081
  40   2.0000      -0.590609       -16.0713
  41   2.0000      -0.568414       -15.4673
  42   2.0000      -0.564788       -15.3687
  43   2.0000      -0.557511       -15.1707
  44   2.0000      -0.538712       -14.6591
  45   2.0000      -0.523051       -14.2329
  46   2.0000      -0.517727       -14.0881
  47   2.0000      -0.514160       -13.9910
  48   2.0000      -0.506511       -13.7829
  49   2.0000      -0.498549       -13.5662
  50   2.0000      -0.497912       -13.5489
  51   2.0000      -0.490891       -13.3578
  52   2.0000      -0.475656       -12.9433
  53   2.0000      -0.464386       -12.6366
  54   2.0000      -0.455439       -12.3931
  55   2.0000      -0.455041       -12.3823
  56   2.0000      -0.447833       -12.1862
  57   2.0000      -0.440111       -11.9760
  58   2.0000      -0.435341       -11.8462
  59   2.0000      -0.427957       -11.6453
  60   2.0000      -0.413855       -11.2616
  61   2.0000      -0.410230       -11.1629
  62   2.0000      -0.403638       -10.9835
  63   2.0000      -0.358739        -9.7618
  64   2.0000      -0.332971        -9.0606
  65   2.0000      -0.325004        -8.8438
  66   2.0000      -0.283814        -7.7230
  67   0.0000       0.026090         0.7099
  68   0.0000       0.081907         2.2288
  69   0.0000       0.113295         3.0829
  70   0.0000       0.119733         3.2581
  71   0.0000       0.125561         3.4167

MULLIKEN ATOMIC CHARGES
-----------------------
   0 S :    0.129103
   1 C :   -0.136074
   2 C :   -0.122988
   3 C :    0.023935
   4 C :   -0.132118
   5 H :    0.000371
   6 C :    0.108943
   7 H :    0.027285
   8 H :    0.005205
   9 C :   -0.067077
  10 H :    0.037044
  11 H :    0.026208
  12 C :   -0.051286
  13 H :    0.017229
  14 H :    0.022361
  15 H :    0.039788
  16 S :    0.103072
  17 C :   -0.067251
  18 C :   -0.055810
  19 C :   -0.096425
  20 C :   -0.111620
  21 H :    0.027464
  22 C :    0.007775
  23 H :    0.012444
  24 H :    0.054828
  25 C :   -0.059868
  26 H :    0.033419
  27 H :    0.030552
  28 C :   -0.011890
  29 H :    0.018129
  30 H :    0.035298
  31 H :    0.031571
  32 H :    0.067511
  33 H :    0.052871
Sum of atomic charges:    0.0000000

LOEWDIN ATOMIC CHARGES
----------------------
   0 S :    0.465683
   1 C :   -0.232882
   2 C :   -0.053208
   3 C :   -0.069450
   4 C :   -0.218487
   5 H :    0.027852
   6 C :   -0.037329
   7 H :    0.031340
   8 H :    0.030289
   9 C :   -0.039010
  10 H :    0.035304
  11 H :    0.020866
  12 C :   -0.070045
  13 H :    0.020714
  14 H :    0.021907
  15 H :    0.030638
  16 S :    0.449811
  17 C :   -0.207960
  18 C :   -0.077362
  19 C :   -0.061347
  20 C :   -0.216337
  21 H :    0.033034
  22 C :   -0.044672
  23 H :    0.029340
  24 H :    0.035535
  25 C :   -0.043497
  26 H :    0.020950
  27 H :    0.031197
  28 C :   -0.058666
  29 H :    0.017483
  30 H :    0.031676
  31 H :    0.027053
  32 H :    0.038838
  33 H :    0.030742

  Mayer bond orders larger than 0.100000
B(  0-S ,  1-C ) :   1.1624 B(  0-S ,  4-C ) :   1.2035 B(  1-C ,  2-C ) :   1.5450
B(  1-C ,  4-C ) :   0.1063 B(  1-C , 32-H ) :   0.9654 B(  2-C ,  3-C ) :   1.3027
B(  2-C ,  6-C ) :   1.0168 B(  3-C ,  4-C ) :   1.5042 B(  3-C ,  5-H ) :   0.9948
B(  4-C , 20-C ) :   1.0492 B(  6-C ,  7-H ) :   0.9283 B(  6-C ,  8-H ) :   0.9323
B(  6-C ,  9-C ) :   1.0795 B(  9-C , 10-H ) :   0.9527 B(  9-C , 11-H ) :   0.9494
B(  9-C , 12-C ) :   1.0757 B( 12-C , 13-H ) :   0.9749 B( 12-C , 14-H ) :   0.9730
B( 12-C , 15-H ) :   0.9702 B( 16-S , 17-C ) :   1.1867 B( 16-S , 20-C ) :   1.1632
B( 17-C , 18-C ) :   1.5680 B( 17-C , 33-H ) :   0.9681 B( 18-C , 19-C ) :   1.2991
B( 18-C , 21-H ) :   0.9835 B( 19-C , 20-C ) :   1.5226 B( 19-C , 22-C ) :   1.0369
B( 22-C , 23-H ) :   0.9309 B( 22-C , 24-H ) :   0.9307 B( 22-C , 25-C ) :   1.0634
B( 25-C , 26-H ) :   0.9641 B( 25-C , 27-H ) :   0.9473 B( 25-C , 28-C ) :   1.0631
B( 28-C , 29-H ) :   0.9718 B( 28-C , 30-H ) :   0.9741 B( 28-C , 31-H ) :   0.9747

Dispersion correction           -0.015662176
FINAL SINGLE POINT ENERGY     -1339.872163485823

DIPOLE MOMENT
-------------
                                X             Y             Z
Electronic contribution:    -10.58583       3.44249      29.20920
Nuclear contribution   :     10.71470      -3.36114     -29.84974
                        -----------------------------------------
Total Dipole Moment    :      0.12887       0.08135      -0.64054
                        -----------------------------------------
Magnitude (a.u.)       :      0.65842
Magnitude (Debye)      :      1.67356

Rotational constants in cm-1:     0.018181     0.010906     0.007314
Rotational constants in MHz :   545.063989   326.941839   219.265051

                             ****ORCA TERMINATED NORMALLY****
TOTAL RUN TIME: 0 days 0 hours 0 minutes 21 seconds 880 msec
