                         Program Version 4.2.1 -  RELEASE  -
|  1> ! wB97X-D3 SP def2-SVP
|  2> %pal
|  3> nprocs 24
|  4> end
|  5>
|  6> * xyz 0 1
|  7> S 	 -40.8635 	 -11.5474 	 5.89416
|  8> C 	 -41.1919 	 -12.3277 	 7.39691
|  9> C 	 -42.0512 	 -11.5775 	 8.14683
| 10> C 	 -42.222 	 -10.2664 	 7.70117
| 11> C 	 -41.6352 	 -9.98382 	 6.48912
| 12> H 	 -42.8405 	 -9.50249 	 8.19341
| 13> C 	 -42.8591 	 -12.1497 	 9.34078
| 14> H 	 -42.832 	 -13.2184 	 9.32007
| 15> H 	 -43.9361 	 -11.8436 	 9.32315
| 16> C 	 -42.3328 	 -11.8601 	 10.7906
| 17> H 	 -43.0376 	 -12.2651 	 11.5415
| 18> H 	 -41.3795 	 -12.2624 	 10.9208
| 19> C 	 -42.3663 	 -10.3079 	 11.1526
| 20> H 	 -43.3639 	 -9.86314 	 11.422
| 21> H 	 -41.7557 	 -10.0025 	 11.9881
| 22> H 	 -42.0555 	 -9.62053 	 10.3246
| 23> S 	 -41.6064 	 -8.82294 	 3.95426
| 24> C 	 -41.4066 	 -7.06197 	 3.84142
| 25> C 	 -41.1897 	 -6.47759 	 5.05952
| 26> C 	 -41.1238 	 -7.42075 	 6.13826
| 27> C 	 -41.4258 	 -8.72321 	 5.73762
| 28> H 	 -41.0226 	 -5.43603 	 5.08005
| 29> C 	 -40.8858 	 -7.07431 	 7.59439
| 30> H 	 -41.8704 	 -7.4697 	 8.10393
| 31> H 	 -40.9527 	 -6.02553 	 7.71261
| 32> C 	 -39.4826 	 -7.42815 	 8.19925
| 33> H 	 -38.7051 	 -6.85999 	 7.69542
| 34> H 	 -39.3295 	 -8.4652 	 7.86621
| 35> C 	 -39.4181 	 -7.48185 	 9.76087
| 36> H 	 -39.3211 	 -6.3729 	 10.0924
| 37> H 	 -38.4578 	 -7.90031 	 9.9199
| 38> H 	 -40.3232 	 -8.01618 	 10.1837
| 39> H 	 -41.0724 	 -13.3332 	 7.57713
| 40> H 	 -41.5443 	 -6.60012 	 2.85607
| 41> *
| 42>
| 43>                          ****END OF INPUT****

CARTESIAN COORDINATES (ANGSTROEM)
---------------------------------
  S    -40.863500  -11.547400    5.894160
  C    -41.191900  -12.327700    7.396910
  C    -42.051200  -11.577500    8.146830
  C    -42.222000  -10.266400    7.701170
  C    -41.635200   -9.983820    6.489120
  H    -42.840500   -9.502490    8.193410
  C    -42.859100  -12.149700    9.340780
  H    -42.832000  -13.218400    9.320070
  H    -43.936100  -11.843600    9.323150
  C    -42.332800  -11.860100   10.790600
  H    -43.037600  -12.265100   11.541500
  H    -41.379500  -12.262400   10.920800
  C    -42.366300  -10.307900   11.152600
  H    -43.363900   -9.863140   11.422000
  H    -41.755700  -10.002500   11.988100
  H    -42.055500   -9.620530   10.324600
  S    -41.606400   -8.822940    3.954260
  C    -41.406600   -7.061970    3.841420
  C    -41.189700   -6.477590    5.059520
  C    -41.123800   -7.420750    6.138260
  C    -41.425800   -8.723210    5.737620
  H    -41.022600   -5.436030    5.080050
  C    -40.885800   -7.074310    7.594390
  H    -41.870400   -7.469700    8.103930
  H    -40.952700   -6.025530    7.712610
  C    -39.482600   -7.428150    8.199250
  H    -38.705100   -6.859990    7.695420
  H    -39.329500   -8.465200    7.866210
  C    -39.418100   -7.481850    9.760870
  H    -39.321100   -6.372900   10.092400
  H    -38.457800   -7.900310    9.919900
  H    -40.323200   -8.016180   10.183700
  H    -41.072400  -13.333200    7.577130
  H    -41.544300   -6.600120    2.856070

 Total Charge           Charge          ....    0
 Multiplicity           Mult            ....    1
 Number of Electrons    NEL             ....  134
 Basis Dimension        Dim             ....  322

ORBITAL ENERGIES
----------------

  NO   OCC          E(Eh)            E(eV)
   0   2.0000     -88.964472     -2420.8464
   1   2.0000     -88.963853     -2420.8295
   2   2.0000     -10.339639      -281.3559
   3   2.0000     -10.333728      -281.1950
   4   2.0000     -10.322404      -280.8869
   5   2.0000     -10.309133      -280.5258
   6   2.0000     -10.308331      -280.5040
   7   2.0000     -10.300230      -280.2835
   8   2.0000     -10.298997      -280.2500
   9   2.0000     -10.296597      -280.1847
  10   2.0000     -10.296553      -280.1834
  11   2.0000     -10.295781      -280.1625
  12   2.0000     -10.293510      -280.1006
  13   2.0000     -10.288783      -279.9720
  14   2.0000     -10.288068      -279.9526
  15   2.0000     -10.284009      -279.8421
  16   2.0000      -8.078535      -219.8281
  17   2.0000      -8.077960      -219.8125
  18   2.0000      -6.037185      -164.2802
  19   2.0000      -6.036474      -164.2608
  20   2.0000      -6.033207      -164.1719
  21   2.0000      -6.032687      -164.1578
  22   2.0000      -6.029097      -164.0601
  23   2.0000      -6.028632      -164.0474
  24   2.0000      -1.002000       -27.2658
  25   2.0000      -0.982709       -26.7409
  26   2.0000      -0.900185       -24.4953
  27   2.0000      -0.900126       -24.4937
  28   2.0000      -0.868167       -23.6240
  29   2.0000      -0.849238       -23.1089
  30   2.0000      -0.841640       -22.9022
  31   2.0000      -0.818102       -22.2617
  32   2.0000      -0.780854       -21.2481
  33   2.0000      -0.769627       -20.9426
  34   2.0000      -0.706705       -19.2304
  35   2.0000      -0.702295       -19.1104
  36   2.0000      -0.689409       -18.7598
  37   2.0000      -0.665044       -18.0968
  38   2.0000      -0.645365       -17.5613
  39   2.0000      -0.620761       -16.8918
  40   2.0000      -0.591710       -16.1012
  41   2.0000      -0.572835       -15.5876
  42   2.0000      -0.562172       -15.2975
  43   2.0000      -0.543544       -14.7906
  44   2.0000      -0.531430       -14.4609
  45   2.0000      -0.527223       -14.3465
  46   2.0000      -0.512315       -13.9408
  47   2.0000      -0.510488       -13.8911
  48   2.0000      -0.505805       -13.7637
  49   2.0000      -0.499507       -13.5923
  50   2.0000      -0.488850       -13.3023
  51   2.0000      -0.479675       -13.0526
  52   2.0000      -0.473496       -12.8845
  53   2.0000      -0.463223       -12.6049
  54   2.0000      -0.458630       -12.4799
  55   2.0000      -0.443077       -12.0567
  56   2.0000      -0.440584       -11.9889
  57   2.0000      -0.437508       -11.9052
  58   2.0000      -0.430324       -11.7097
  59   2.0000      -0.424283       -11.5453
  60   2.0000      -0.418584       -11.3903
  61   2.0000      -0.414658       -11.2834
  62   2.0000      -0.402291       -10.9469
  63   2.0000      -0.354997        -9.6600
  64   2.0000      -0.335718        -9.1353
  65   2.0000      -0.329007        -8.9527
  66   2.0000      -0.287013        -7.8100
  67   0.0000       0.020714         0.5637
  68   0.0000       0.063191         1.7195
  69   0.0000       0.100379         2.7315
  70   0.0000       0.118113         3.2140
  71   0.0000       0.125246         3.4081

MULLIKEN ATOMIC CHARGES
-----------------------
   0 S :    0.086578
   1 C :   -0.065655
   2 C :   -0.088256
   3 C :    0.011968
   4 C :   -0.117078
   5 H :    0.031028
   6 C :    0.040742
   7 H :    0.015482
   8 H :    0.043826
   9 C :   -0.030834
  10 H :    0.042291
  11 H :    0.025177
  12 C :   -0.109685
  13 H :    0.027570
  14 H :    0.033036
  15 H :    0.023009
  16 S :    0.081080
  17 C :   -0.101682
  18 C :   -0.003415
  19 C :   -0.050273
  20 C :   -0.148328
  21 H :    0.007483
  22 C :    0.040977
  23 H :    0.042653
  24 H :   -0.001103
  25 C :   -0.079420
  26 H :    0.032533
  27 H :    0.034230
  28 C :   -0.051633
  29 H :    0.038500
  30 H :    0.036973
  31 H :    0.061621
  32 H :    0.020397
  33 H :    0.070208
Sum of atomic charges:    0.0000000

LOEWDIN ATOMIC CHARGES
----------------------
   0 S :    0.375764
   1 C :   -0.183160
   2 C :   -0.067879
   3 C :   -0.067340
   4 C :   -0.159121
   5 H :    0.035202
   6 C :   -0.027601
   7 H :    0.024943
   8 H :    0.037586
   9 C :   -0.027290
  10 H :    0.031797
  11 H :    0.015335
  12 C :   -0.086007
  13 H :    0.027497
  14 H :    0.022389
  15 H :    0.020598
  16 S :    0.369531
  17 C :   -0.167308
  18 C :   -0.068197
  19 C :   -0.054515
  20 C :   -0.183271
  21 H :    0.028867
  22 C :   -0.042022
  23 H :    0.043203
  24 H :    0.018265
  25 C :   -0.040261
  26 H :    0.026137
  27 H :    0.024293
  28 C :   -0.065985
  29 H :    0.032406
  30 H :    0.023702
  31 H :    0.036480
  32 H :    0.013737
  33 H :    0.032225

  Mayer bond orders larger than 0.100000
B(  0-S ,  1-C ) :   1.1459 B(  0-S ,  4-C ) :   1.1252 B(  1-C ,  2-C ) :   1.6234
B(  1-C ,  4-C ) :   0.1071 B(  1-C , 32-H ) :   0.9671 B(  2-C ,  3-C ) :   1.2414
B(  2-C ,  6-C ) :   1.0144 B(  3-C ,  4-C ) :   1.5887 B(  3-C ,  5-H ) :   0.9831
B(  4-C , 20-C ) :   1.0396 B(  6-C ,  7-H ) :   0.9416 B(  6-C ,  8-H ) :   0.9502
B(  6-C ,  9-C ) :   1.0740 B(  9-C , 10-H ) :   0.9581 B(  9-C , 11-H ) :   0.9603
B(  9-C , 12-C ) :   1.0543 B( 12-C , 13-H ) :   0.9741 B( 12-C , 14-H ) :   0.9786
B( 12-C , 15-H ) :   0.9712 B( 16-S , 17-C ) :   1.1476 B( 16-S , 20-C ) :   1.1270
B( 17-C , 18-C ) :   1.6161 B( 17-C , 33-H ) :   0.9654 B( 18-C , 19-C ) :   1.2218
B( 18-C , 21-H ) :   1.0009 B( 19-C , 20-C ) :   1.6036 B( 19-C , 22-C ) :   1.0358
B( 22-C , 23-H ) :   0.9430 B( 22-C , 24-H ) :   0.9268 B( 22-C , 25-C ) :   1.0397
B( 25-C , 26-H ) :   0.9524 B( 25-C , 27-H ) :   0.9659 B( 25-C , 28-C ) :   1.0678
B( 28-C , 29-H ) :   0.9755 B( 28-C , 30-H ) :   0.9734 B( 28-C , 31-H ) :   0.9692

Dispersion correction           -0.015444585
FINAL SINGLE POINT ENERGY     -1339.855657602936

DIPOLE MOMENT
-------------
                                X             Y             Z
Electronic contribution:     -0.61005      -5.59121     -30.68097
Nuclear contribution   :      0.49056       5.85708      31.21849
                        -----------------------------------------
Total Dipole Moment    :     -0.11949       0.26587       0.53752
                        -----------------------------------------
Magnitude (a.u.)       :      0.61146
Magnitude (Debye)      :      1.55421

Rotational constants in cm-1:     0.018468     0.009843     0.007251
Rotational constants in MHz :   553.671280   295.099634   217.364826

                             ****ORCA TERMINATED NORMALLY****
TOTAL RUN TIME: 0 days 0 hours 0 minutes 22 seconds 700 msec
