                         Program Version 4.2.1 -  RELEASE  -
|  1> ! wB97X-D3 SP def2-SVP
|  2> %pal
|  3> nprocs 24
|  4> end
|  5>
|  6> * xyz 0 1
|  7> S 	 -51.818 	 17.7114 	 29.5913
|  8> C 	 -50.607 	 17.9795 	 28.2616
|  9> C 	 -49.4729 	 17.2447 	 28.5289
| 10> C 	 -49.5803 	 16.5301 	 29.7484
| 11> C 	 -50.6803 	 16.7299 	 30.5087
| 12> H 	 -48.7503 	 15.9869 	 30.2649
| 13> C 	 -48.2131 	 17.0963 	 27.6217
| 14> H 	 -47.5949 	 16.2716 	 27.9623
| 15> H 	 -47.5022 	 17.8928 	 27.8806
| 16> C 	 -48.5809 	 16.8759 	 26.135
| 17> H 	 -49.0824 	 17.6995 	 25.7618
| 18> H 	 -47.7683 	 16.7589 	 25.5418
| 19> C 	 -49.4089 	 15.5859 	 25.9133
| 20> H 	 -50.3441 	 15.6787 	 26.4831
| 21> H 	 -49.7244 	 15.3408 	 24.8973
| 22> H 	 -48.7893 	 14.8336 	 26.2946
| 23> S 	 -52.3726 	 16.7816 	 32.6061
| 24> C 	 -52.3957 	 15.5547 	 33.863
| 25> C 	 -51.5912 	 14.4621 	 33.5418
| 26> C 	 -50.868 	 14.6819 	 32.3372
| 27> C 	 -51.1032 	 15.9635 	 31.7328
| 28> H 	 -51.4687 	 13.5865 	 34.218
| 29> C 	 -49.891 	 13.6326 	 31.9091
| 30> H 	 -49.5605 	 13.0846 	 32.7205
| 31> H 	 -49.0176 	 14.1376 	 31.4799
| 32> C 	 -50.3612 	 12.5351 	 30.9329
| 33> H 	 -50.7088 	 13.0877 	 30.0012
| 34> H 	 -51.213 	 12.0119 	 31.4464
| 35> C 	 -49.2477 	 11.4417 	 30.663
| 36> H 	 -49.215 	 10.7096 	 31.5594
| 37> H 	 -48.2632 	 11.9097 	 30.4591
| 38> H 	 -49.5292 	 10.8236 	 29.8355
| 39> H 	 -50.7338 	 18.5219 	 27.354
| 40> H 	 -52.8881 	 15.6846 	 34.7673
| 41> *
| 42>
| 43>                          ****END OF INPUT****

CARTESIAN COORDINATES (ANGSTROEM)
---------------------------------
  S    -51.818000   17.711400   29.591300
  C    -50.607000   17.979500   28.261600
  C    -49.472900   17.244700   28.528900
  C    -49.580300   16.530100   29.748400
  C    -50.680300   16.729900   30.508700
  H    -48.750300   15.986900   30.264900
  C    -48.213100   17.096300   27.621700
  H    -47.594900   16.271600   27.962300
  H    -47.502200   17.892800   27.880600
  C    -48.580900   16.875900   26.135000
  H    -49.082400   17.699500   25.761800
  H    -47.768300   16.758900   25.541800
  C    -49.408900   15.585900   25.913300
  H    -50.344100   15.678700   26.483100
  H    -49.724400   15.340800   24.897300
  H    -48.789300   14.833600   26.294600
  S    -52.372600   16.781600   32.606100
  C    -52.395700   15.554700   33.863000
  C    -51.591200   14.462100   33.541800
  C    -50.868000   14.681900   32.337200
  C    -51.103200   15.963500   31.732800
  H    -51.468700   13.586500   34.218000
  C    -49.891000   13.632600   31.909100
  H    -49.560500   13.084600   32.720500
  H    -49.017600   14.137600   31.479900
  C    -50.361200   12.535100   30.932900
  H    -50.708800   13.087700   30.001200
  H    -51.213000   12.011900   31.446400
  C    -49.247700   11.441700   30.663000
  H    -49.215000   10.709600   31.559400
  H    -48.263200   11.909700   30.459100
  H    -49.529200   10.823600   29.835500
  H    -50.733800   18.521900   27.354000
  H    -52.888100   15.684600   34.767300

 Total Charge           Charge          ....    0
 Multiplicity           Mult            ....    1
 Number of Electrons    NEL             ....  134
 Basis Dimension        Dim             ....  322

ORBITAL ENERGIES
----------------

  NO   OCC          E(Eh)            E(eV)
   0   2.0000     -88.967768     -2420.9361
   1   2.0000     -88.967259     -2420.9222
   2   2.0000     -10.338892      -281.3356
   3   2.0000     -10.334829      -281.2250
   4   2.0000     -10.318873      -280.7908
   5   2.0000     -10.317285      -280.7476
   6   2.0000     -10.311240      -280.5831
   7   2.0000     -10.305318      -280.4219
   8   2.0000     -10.301148      -280.3085
   9   2.0000     -10.299759      -280.2707
  10   2.0000     -10.295901      -280.1657
  11   2.0000     -10.291259      -280.0394
  12   2.0000     -10.290551      -280.0201
  13   2.0000     -10.283416      -279.8260
  14   2.0000     -10.276884      -279.6482
  15   2.0000     -10.271219      -279.4941
  16   2.0000      -8.082522      -219.9366
  17   2.0000      -8.080716      -219.8875
  18   2.0000      -6.040946      -164.3825
  19   2.0000      -6.039513      -164.3435
  20   2.0000      -6.036870      -164.2716
  21   2.0000      -6.035483      -164.2338
  22   2.0000      -6.033549      -164.1812
  23   2.0000      -6.031131      -164.1154
  24   2.0000      -1.004381       -27.3306
  25   2.0000      -0.982348       -26.7311
  26   2.0000      -0.912521       -24.8310
  27   2.0000      -0.907014       -24.6811
  28   2.0000      -0.867512       -23.6062
  29   2.0000      -0.847121       -23.0513
  30   2.0000      -0.840957       -22.8836
  31   2.0000      -0.814891       -22.1743
  32   2.0000      -0.782716       -21.2988
  33   2.0000      -0.773644       -21.0519
  34   2.0000      -0.715279       -19.4637
  35   2.0000      -0.701782       -19.0965
  36   2.0000      -0.687776       -18.7153
  37   2.0000      -0.667511       -18.1639
  38   2.0000      -0.639733       -17.4080
  39   2.0000      -0.612707       -16.6726
  40   2.0000      -0.596888       -16.2421
  41   2.0000      -0.581761       -15.8305
  42   2.0000      -0.566678       -15.4201
  43   2.0000      -0.556067       -15.1314
  44   2.0000      -0.542012       -14.7489
  45   2.0000      -0.519995       -14.1498
  46   2.0000      -0.514815       -14.0088
  47   2.0000      -0.510993       -13.9048
  48   2.0000      -0.504678       -13.7330
  49   2.0000      -0.495335       -13.4787
  50   2.0000      -0.485640       -13.2149
  51   2.0000      -0.479058       -13.0358
  52   2.0000      -0.468025       -12.7356
  53   2.0000      -0.464730       -12.6460
  54   2.0000      -0.456823       -12.4308
  55   2.0000      -0.451466       -12.2850
  56   2.0000      -0.448733       -12.2106
  57   2.0000      -0.441023       -12.0008
  58   2.0000      -0.431774       -11.7492
  59   2.0000      -0.422863       -11.5067
  60   2.0000      -0.419033       -11.4025
  61   2.0000      -0.416568       -11.3354
  62   2.0000      -0.413498       -11.2518
  63   2.0000      -0.357428        -9.7261
  64   2.0000      -0.335778        -9.1370
  65   2.0000      -0.329416        -8.9639
  66   2.0000      -0.286299        -7.7906
  67   0.0000       0.018890         0.5140
  68   0.0000       0.072335         1.9683
  69   0.0000       0.092436         2.5153
  70   0.0000       0.117478         3.1967
  71   0.0000       0.135330         3.6825

MULLIKEN ATOMIC CHARGES
-----------------------
   0 S :    0.082629
   1 C :   -0.118597
   2 C :   -0.084014
   3 C :   -0.053299
   4 C :   -0.051764
   5 H :    0.031236
   6 C :    0.065380
   7 H :    0.010105
   8 H :    0.045825
   9 C :   -0.009859
  10 H :    0.009214
  11 H :    0.003183
  12 C :   -0.055161
  13 H :    0.044135
  14 H :    0.036206
  15 H :    0.017813
  16 S :    0.090947
  17 C :   -0.062579
  18 C :   -0.042955
  19 C :   -0.043955
  20 C :   -0.149060
  21 H :    0.039828
  22 C :    0.081489
  23 H :   -0.011460
  24 H :    0.012602
  25 C :   -0.107196
  26 H :    0.050157
  27 H :    0.033757
  28 C :   -0.065770
  29 H :    0.043229
  30 H :    0.041596
  31 H :    0.038984
  32 H :    0.040125
  33 H :    0.037228
Sum of atomic charges:    0.0000000

LOEWDIN ATOMIC CHARGES
----------------------
   0 S :    0.368503
   1 C :   -0.174511
   2 C :   -0.057160
   3 C :   -0.085271
   4 C :   -0.184611
   5 H :    0.036365
   6 C :   -0.027282
   7 H :    0.027290
   8 H :    0.038697
   9 C :   -0.026137
  10 H :    0.010966
  11 H :    0.012339
  12 C :   -0.057023
  13 H :    0.028414
  14 H :    0.026647
  15 H :    0.016721
  16 S :    0.413465
  17 C :   -0.170429
  18 C :   -0.070245
  19 C :   -0.053580
  20 C :   -0.193231
  21 H :    0.042231
  22 C :   -0.036139
  23 H :    0.017136
  24 H :    0.026104
  25 C :   -0.041256
  26 H :    0.030856
  27 H :    0.026798
  28 C :   -0.072083
  29 H :    0.035140
  30 H :    0.026701
  31 H :    0.024237
  32 H :    0.025453
  33 H :    0.014897

  Mayer bond orders larger than 0.100000
B(  0-S ,  1-C ) :   1.1122 B(  0-S ,  4-C ) :   1.1243 B(  1-C ,  2-C ) :   1.6337
B(  1-C , 32-H ) :   0.9737 B(  2-C ,  3-C ) :   1.2344 B(  2-C ,  6-C ) :   0.9981
B(  3-C ,  4-C ) :   1.6364 B(  3-C ,  5-H ) :   0.9806 B(  4-C , 20-C ) :   1.0315
B(  6-C ,  7-H ) :   0.9453 B(  6-C ,  8-H ) :   0.9383 B(  6-C ,  9-C ) :   1.0666
B(  9-C , 10-H ) :   0.9573 B(  9-C , 11-H ) :   0.9536 B(  9-C , 12-C ) :   1.0674
B( 12-C , 13-H ) :   0.9749 B( 12-C , 14-H ) :   0.9762 B( 12-C , 15-H ) :   0.9786
B( 16-S , 17-C ) :   1.1728 B( 16-S , 20-C ) :   1.1525 B( 17-C , 18-C ) :   1.5701
B( 17-C , 20-C ) :   0.1061 B( 17-C , 33-H ) :   0.9774 B( 18-C , 19-C ) :   1.2813
B( 18-C , 21-H ) :   0.9825 B( 19-C , 20-C ) :   1.5363 B( 19-C , 22-C ) :   1.0499
B( 22-C , 23-H ) :   0.9261 B( 22-C , 24-H ) :   0.9365 B( 22-C , 25-C ) :   1.0574
B( 25-C , 26-H ) :   0.9582 B( 25-C , 27-H ) :   0.9565 B( 25-C , 28-C ) :   1.0682
B( 28-C , 29-H ) :   0.9736 B( 28-C , 30-H ) :   0.9763 B( 28-C , 31-H ) :   0.9759

Dispersion correction           -0.014081261
FINAL SINGLE POINT ENERGY     -1339.855259104270

DIPOLE MOMENT
-------------
                                X             Y             Z
Electronic contribution:    -17.03882      19.59379      15.67581
Nuclear contribution   :     17.59544     -20.11193     -15.80594
                        -----------------------------------------
Total Dipole Moment    :      0.55662      -0.51814      -0.13013
                        -----------------------------------------
Magnitude (a.u.)       :      0.77151
Magnitude (Debye)      :      1.96103

Rotational constants in cm-1:     0.017595     0.009341     0.006561
Rotational constants in MHz :   527.494469   280.028387   196.681895

                             ****ORCA TERMINATED NORMALLY****
TOTAL RUN TIME: 0 days 0 hours 0 minutes 21 seconds 512 msec
