                         Program Version 4.2.1 -  RELEASE  -
|  1> ! wB97X-D3 SP def2-SVP
|  2> %pal
|  3> nprocs 24
|  4> end
|  5>
|  6> * xyz 0 1
|  7> S 	 -121.593 	 48.8478 	 -37.0638
|  8> C 	 -122.657 	 47.6092 	 -37.487
|  9> C 	 -123.53 	 47.2905 	 -36.4555
| 10> C 	 -123.183 	 48.027 	 -35.3079
| 11> C 	 -122.201 	 48.9776 	 -35.4255
| 12> H 	 -123.631 	 47.8507 	 -34.3811
| 13> C 	 -124.701 	 46.2433 	 -36.4433
| 14> H 	 -124.546 	 45.4046 	 -37.0642
| 15> H 	 -125.572 	 46.8126 	 -36.7694
| 16> C 	 -125.079 	 45.5982 	 -35.0701
| 17> H 	 -125.407 	 46.4554 	 -34.5806
| 18> H 	 -125.927 	 44.9213 	 -35.2295
| 19> C 	 -123.924 	 44.9379 	 -34.3386
| 20> H 	 -124.341 	 44.5617 	 -33.3994
| 21> H 	 -123.447 	 44.0527 	 -34.8805
| 22> H 	 -123.279 	 45.7629 	 -34.1056
| 23> S 	 -121.84 	 51.5984 	 -34.6286
| 24> C 	 -121.247 	 52.0078 	 -33.0258
| 25> C 	 -120.855 	 50.833 	 -32.35
| 26> C 	 -121.307 	 49.6695 	 -33.031
| 27> C 	 -121.653 	 49.9227 	 -34.4008
| 28> H 	 -120.496 	 50.7796 	 -31.3688
| 29> C 	 -121.22 	 48.239 	 -32.4643
| 30> H 	 -120.264 	 47.794 	 -32.6496
| 31> H 	 -121.709 	 47.4899 	 -33.0935
| 32> C 	 -121.601 	 48.1876 	 -30.9579
| 33> H 	 -120.937 	 48.9274 	 -30.4971
| 34> H 	 -121.424 	 47.2272 	 -30.4799
| 35> C 	 -123.04 	 48.6565 	 -30.6453
| 36> H 	 -123.118 	 48.7557 	 -29.5377
| 37> H 	 -123.819 	 47.9975 	 -31.0274
| 38> H 	 -123.129 	 49.6997 	 -30.9951
| 39> H 	 -122.63 	 47.1846 	 -38.4403
| 40> H 	 -121.077 	 52.9594 	 -32.6197
| 41> *
| 42>
| 43>                          ****END OF INPUT****

CARTESIAN COORDINATES (ANGSTROEM)
---------------------------------
  S    -121.593000   48.847800  -37.063800
  C    -122.657000   47.609200  -37.487000
  C    -123.530000   47.290500  -36.455500
  C    -123.183000   48.027000  -35.307900
  C    -122.201000   48.977600  -35.425500
  H    -123.631000   47.850700  -34.381100
  C    -124.701000   46.243300  -36.443300
  H    -124.546000   45.404600  -37.064200
  H    -125.572000   46.812600  -36.769400
  C    -125.079000   45.598200  -35.070100
  H    -125.407000   46.455400  -34.580600
  H    -125.927000   44.921300  -35.229500
  C    -123.924000   44.937900  -34.338600
  H    -124.341000   44.561700  -33.399400
  H    -123.447000   44.052700  -34.880500
  H    -123.279000   45.762900  -34.105600
  S    -121.840000   51.598400  -34.628600
  C    -121.247000   52.007800  -33.025800
  C    -120.855000   50.833000  -32.350000
  C    -121.307000   49.669500  -33.031000
  C    -121.653000   49.922700  -34.400800
  H    -120.496000   50.779600  -31.368800
  C    -121.220000   48.239000  -32.464300
  H    -120.264000   47.794000  -32.649600
  H    -121.709000   47.489900  -33.093500
  C    -121.601000   48.187600  -30.957900
  H    -120.937000   48.927400  -30.497100
  H    -121.424000   47.227200  -30.479900
  C    -123.040000   48.656500  -30.645300
  H    -123.118000   48.755700  -29.537700
  H    -123.819000   47.997500  -31.027400
  H    -123.129000   49.699700  -30.995100
  H    -122.630000   47.184600  -38.440300
  H    -121.077000   52.959400  -32.619700

 Total Charge           Charge          ....    0
 Multiplicity           Mult            ....    1
 Number of Electrons    NEL             ....  134
 Basis Dimension        Dim             ....  322

ORBITAL ENERGIES
----------------

  NO   OCC          E(Eh)            E(eV)
   0   2.0000     -88.970920     -2421.0218
   1   2.0000     -88.964916     -2420.8584
   2   2.0000     -10.330516      -281.1076
   3   2.0000     -10.330333      -281.1027
   4   2.0000     -10.320905      -280.8461
   5   2.0000     -10.309084      -280.5244
   6   2.0000     -10.308450      -280.5072
   7   2.0000     -10.302637      -280.3490
   8   2.0000     -10.296512      -280.1823
   9   2.0000     -10.292606      -280.0761
  10   2.0000     -10.290032      -280.0060
  11   2.0000     -10.289846      -280.0009
  12   2.0000     -10.286647      -279.9139
  13   2.0000     -10.283297      -279.8227
  14   2.0000     -10.281786      -279.7816
  15   2.0000     -10.279461      -279.7184
  16   2.0000      -8.085805      -220.0259
  17   2.0000      -8.080847      -219.8910
  18   2.0000      -6.044222      -164.4716
  19   2.0000      -6.040050      -164.3581
  20   2.0000      -6.039188      -164.3347
  21   2.0000      -6.036883      -164.2719
  22   2.0000      -6.035003      -164.2208
  23   2.0000      -6.031897      -164.1363
  24   2.0000      -1.010561       -27.4988
  25   2.0000      -0.990453       -26.9516
  26   2.0000      -0.911716       -24.8091
  27   2.0000      -0.905492       -24.6397
  28   2.0000      -0.870209       -23.6796
  29   2.0000      -0.848900       -23.0998
  30   2.0000      -0.843457       -22.9516
  31   2.0000      -0.818023       -22.2596
  32   2.0000      -0.787095       -21.4180
  33   2.0000      -0.774020       -21.0622
  34   2.0000      -0.703442       -19.1416
  35   2.0000      -0.699928       -19.0460
  36   2.0000      -0.691026       -18.8038
  37   2.0000      -0.658047       -17.9064
  38   2.0000      -0.649540       -17.6749
  39   2.0000      -0.632782       -17.2189
  40   2.0000      -0.605461       -16.4754
  41   2.0000      -0.574594       -15.6355
  42   2.0000      -0.555273       -15.1098
  43   2.0000      -0.548232       -14.9182
  44   2.0000      -0.544141       -14.8068
  45   2.0000      -0.540476       -14.7071
  46   2.0000      -0.521185       -14.1822
  47   2.0000      -0.508458       -13.8359
  48   2.0000      -0.501994       -13.6599
  49   2.0000      -0.498841       -13.5742
  50   2.0000      -0.489842       -13.3293
  51   2.0000      -0.482135       -13.1196
  52   2.0000      -0.476344       -12.9620
  53   2.0000      -0.468736       -12.7550
  54   2.0000      -0.466969       -12.7069
  55   2.0000      -0.447219       -12.1694
  56   2.0000      -0.444977       -12.1084
  57   2.0000      -0.437689       -11.9101
  58   2.0000      -0.433715       -11.8020
  59   2.0000      -0.421589       -11.4720
  60   2.0000      -0.420285       -11.4365
  61   2.0000      -0.412221       -11.2171
  62   2.0000      -0.407713       -11.0944
  63   2.0000      -0.348979        -9.4962
  64   2.0000      -0.333354        -9.0710
  65   2.0000      -0.326766        -8.8917
  66   2.0000      -0.292478        -7.9587
  67   0.0000       0.033252         0.9048
  68   0.0000       0.066352         1.8055
  69   0.0000       0.114234         3.1085
  70   0.0000       0.124082         3.3764
  71   0.0000       0.129269         3.5176

MULLIKEN ATOMIC CHARGES
-----------------------
   0 S :    0.118209
   1 C :   -0.118581
   2 C :   -0.078647
   3 C :    0.025536
   4 C :   -0.156325
   5 H :   -0.019162
   6 C :    0.082766
   7 H :    0.017050
   8 H :    0.045883
   9 C :   -0.103227
  10 H :    0.017818
  11 H :    0.034623
  12 C :   -0.029655
  13 H :    0.032195
  14 H :    0.051745
  15 H :    0.022084
  16 S :    0.129566
  17 C :   -0.077570
  18 C :   -0.007014
  19 C :   -0.081300
  20 C :   -0.124269
  21 H :    0.005693
  22 C :    0.097471
  23 H :    0.027989
  24 H :   -0.006429
  25 C :   -0.088732
  26 H :    0.023099
  27 H :    0.031944
  28 C :   -0.063138
  29 H :    0.033624
  30 H :    0.042206
  31 H :    0.042486
  32 H :    0.029325
  33 H :    0.042734
Sum of atomic charges:    0.0000000

LOEWDIN ATOMIC CHARGES
----------------------
   0 S :    0.437154
   1 C :   -0.202023
   2 C :   -0.065390
   3 C :   -0.064897
   4 C :   -0.201474
   5 H :    0.016063
   6 C :   -0.022296
   7 H :    0.019257
   8 H :    0.036595
   9 C :   -0.040092
  10 H :    0.012932
  11 H :    0.027093
  12 C :   -0.066538
  13 H :    0.027856
  14 H :    0.036322
  15 H :    0.021367
  16 S :    0.444869
  17 C :   -0.180334
  18 C :   -0.062283
  19 C :   -0.048705
  20 C :   -0.224209
  21 H :    0.021410
  22 C :   -0.042011
  23 H :    0.034532
  24 H :    0.028821
  25 C :   -0.039951
  26 H :    0.021795
  27 H :    0.023678
  28 C :   -0.069384
  29 H :    0.029703
  30 H :    0.023158
  31 H :    0.029172
  32 H :    0.017143
  33 H :    0.020669

  Mayer bond orders larger than 0.100000
B(  0-S ,  1-C ) :   1.1859 B(  0-S ,  4-C ) :   1.1655 B(  1-C ,  2-C ) :   1.5661
B(  1-C ,  4-C ) :   0.1032 B(  1-C , 32-H ) :   0.9806 B(  2-C ,  3-C ) :   1.2911
B(  2-C ,  6-C ) :   0.9901 B(  3-C ,  4-C ) :   1.5527 B(  3-C ,  5-H ) :   0.9969
B(  4-C , 20-C ) :   0.9950 B(  6-C ,  7-H ) :   0.9504 B(  6-C ,  8-H ) :   0.9410
B(  6-C ,  9-C ) :   1.0746 B(  9-C , 10-H ) :   0.9486 B(  9-C , 11-H ) :   0.9548
B(  9-C , 12-C ) :   1.0878 B( 12-C , 13-H ) :   0.9684 B( 12-C , 14-H ) :   0.9719
B( 12-C , 15-H ) :   0.9709 B( 16-S , 17-C ) :   1.1833 B( 16-S , 20-C ) :   1.1823
B( 17-C , 18-C ) :   1.5455 B( 17-C , 20-C ) :   0.1153 B( 17-C , 33-H ) :   0.9755
B( 18-C , 19-C ) :   1.3006 B( 18-C , 21-H ) :   0.9874 B( 19-C , 20-C ) :   1.5288
B( 19-C , 22-C ) :   1.0299 B( 22-C , 23-H ) :   0.9278 B( 22-C , 24-H ) :   0.9345
B( 22-C , 25-C ) :   1.0582 B( 25-C , 26-H ) :   0.9559 B( 25-C , 27-H ) :   0.9569
B( 25-C , 28-C ) :   1.0822 B( 28-C , 29-H ) :   0.9734 B( 28-C , 30-H ) :   0.9762
B( 28-C , 31-H ) :   0.9695

Dispersion correction           -0.015350079
FINAL SINGLE POINT ENERGY     -1339.862243267385

DIPOLE MOMENT
-------------
                                X             Y             Z
Electronic contribution:     10.69474      20.79140     -18.23094
Nuclear contribution   :    -10.94392     -21.24845      18.66582
                        -----------------------------------------
Total Dipole Moment    :     -0.24918      -0.45705       0.43488
                        -----------------------------------------
Magnitude (a.u.)       :      0.67831
Magnitude (Debye)      :      1.72413

Rotational constants in cm-1:     0.017468     0.010497     0.007277
Rotational constants in MHz :   523.664698   314.694379   218.170507

                             ****ORCA TERMINATED NORMALLY****
TOTAL RUN TIME: 0 days 0 hours 0 minutes 22 seconds 926 msec
