                         Program Version 4.2.1 -  RELEASE  -
|  1> ! wB97X-D3 SP def2-SVP
|  2> %pal
|  3> nprocs 24
|  4> end
|  5>
|  6> * xyz 0 1
|  7> S 	 -38.0291 	 -13.891 	 14.0459
|  8> C 	 -39.1651 	 -13.2068 	 15.2127
|  9> C 	 -38.8221 	 -13.7523 	 16.4501
| 10> C 	 -37.8451 	 -14.747 	 16.416
| 11> C 	 -37.3338 	 -15.0218 	 15.1723
| 12> H 	 -37.4067 	 -15.2304 	 17.2499
| 13> C 	 -39.4429 	 -13.3348 	 17.7514
| 14> H 	 -39.7293 	 -14.1436 	 18.4228
| 15> H 	 -40.2922 	 -12.7702 	 17.3425
| 16> C 	 -38.6422 	 -12.3771 	 18.617
| 17> H 	 -39.1925 	 -12.0349 	 19.4886
| 18> H 	 -37.6997 	 -12.7963 	 19.0408
| 19> C 	 -38.3263 	 -11.0245 	 17.9019
| 20> H 	 -39.2457 	 -10.436 	 17.7977
| 21> H 	 -37.7168 	 -10.4669 	 18.6324
| 22> H 	 -37.7283 	 -11.1998 	 17.0226
| 23> S 	 -36.3576 	 -17.585 	 14.9911
| 24> C 	 -34.7303 	 -17.7249 	 14.2827
| 25> C 	 -34.061 	 -16.557 	 14.1708
| 26> C 	 -34.8971 	 -15.4467 	 14.5807
| 27> C 	 -36.2115 	 -15.7864 	 14.908
| 28> H 	 -33.0275 	 -16.5146 	 13.9582
| 29> C 	 -34.3799 	 -14.0525 	 14.6205
| 30> H 	 -34.8452 	 -13.4297 	 13.9009
| 31> H 	 -33.2586 	 -14.0716 	 14.5947
| 32> C 	 -34.4836 	 -13.2524 	 15.9287
| 33> H 	 -33.9106 	 -13.7597 	 16.6403
| 34> H 	 -35.4969 	 -13.1445 	 16.2251
| 35> C 	 -33.865 	 -11.8649 	 15.8995
| 36> H 	 -32.7662 	 -11.9769 	 16.1043
| 37> H 	 -34.3748 	 -11.2085 	 16.669
| 38> H 	 -33.9066 	 -11.3926 	 14.946
| 39> H 	 -39.9941 	 -12.5692 	 14.9779
| 40> H 	 -34.165 	 -18.6168 	 14.1286
| 41> *
| 42>
| 43>                          ****END OF INPUT****

CARTESIAN COORDINATES (ANGSTROEM)
---------------------------------
  S    -38.029100  -13.891000   14.045900
  C    -39.165100  -13.206800   15.212700
  C    -38.822100  -13.752300   16.450100
  C    -37.845100  -14.747000   16.416000
  C    -37.333800  -15.021800   15.172300
  H    -37.406700  -15.230400   17.249900
  C    -39.442900  -13.334800   17.751400
  H    -39.729300  -14.143600   18.422800
  H    -40.292200  -12.770200   17.342500
  C    -38.642200  -12.377100   18.617000
  H    -39.192500  -12.034900   19.488600
  H    -37.699700  -12.796300   19.040800
  C    -38.326300  -11.024500   17.901900
  H    -39.245700  -10.436000   17.797700
  H    -37.716800  -10.466900   18.632400
  H    -37.728300  -11.199800   17.022600
  S    -36.357600  -17.585000   14.991100
  C    -34.730300  -17.724900   14.282700
  C    -34.061000  -16.557000   14.170800
  C    -34.897100  -15.446700   14.580700
  C    -36.211500  -15.786400   14.908000
  H    -33.027500  -16.514600   13.958200
  C    -34.379900  -14.052500   14.620500
  H    -34.845200  -13.429700   13.900900
  H    -33.258600  -14.071600   14.594700
  C    -34.483600  -13.252400   15.928700
  H    -33.910600  -13.759700   16.640300
  H    -35.496900  -13.144500   16.225100
  C    -33.865000  -11.864900   15.899500
  H    -32.766200  -11.976900   16.104300
  H    -34.374800  -11.208500   16.669000
  H    -33.906600  -11.392600   14.946000
  H    -39.994100  -12.569200   14.977900
  H    -34.165000  -18.616800   14.128600

 Total Charge           Charge          ....    0
 Multiplicity           Mult            ....    1
 Number of Electrons    NEL             ....  134
 Basis Dimension        Dim             ....  322

ORBITAL ENERGIES
----------------

  NO   OCC          E(Eh)            E(eV)
   0   2.0000     -88.967777     -2420.9363
   1   2.0000     -88.965664     -2420.8788
   2   2.0000     -10.324574      -280.9459
   3   2.0000     -10.323301      -280.9113
   4   2.0000     -10.321819      -280.8710
   5   2.0000     -10.315979      -280.7120
   6   2.0000     -10.305325      -280.4222
   7   2.0000     -10.301021      -280.3050
   8   2.0000     -10.291383      -280.0428
   9   2.0000     -10.289878      -280.0018
  10   2.0000     -10.287859      -279.9469
  11   2.0000     -10.287575      -279.9391
  12   2.0000     -10.285599      -279.8854
  13   2.0000     -10.278596      -279.6948
  14   2.0000     -10.276713      -279.6436
  15   2.0000     -10.269966      -279.4600
  16   2.0000      -8.082123      -219.9257
  17   2.0000      -8.079254      -219.8477
  18   2.0000      -6.040580      -164.3725
  19   2.0000      -6.037955      -164.3011
  20   2.0000      -6.036518      -164.2620
  21   2.0000      -6.034113      -164.1966
  22   2.0000      -6.033090      -164.1687
  23   2.0000      -6.029677      -164.0758
  24   2.0000      -1.011711       -27.5300
  25   2.0000      -0.982535       -26.7361
  26   2.0000      -0.915971       -24.9248
  27   2.0000      -0.911065       -24.7913
  28   2.0000      -0.878883       -23.9156
  29   2.0000      -0.850706       -23.1489
  30   2.0000      -0.846505       -23.0346
  31   2.0000      -0.819799       -22.3079
  32   2.0000      -0.784126       -21.3371
  33   2.0000      -0.768392       -20.9090
  34   2.0000      -0.718416       -19.5491
  35   2.0000      -0.694944       -18.9104
  36   2.0000      -0.687982       -18.7209
  37   2.0000      -0.666260       -18.1299
  38   2.0000      -0.644960       -17.5502
  39   2.0000      -0.620783       -16.8924
  40   2.0000      -0.596431       -16.2297
  41   2.0000      -0.582772       -15.8580
  42   2.0000      -0.571776       -15.5588
  43   2.0000      -0.555321       -15.1111
  44   2.0000      -0.553089       -15.0503
  45   2.0000      -0.526345       -14.3226
  46   2.0000      -0.523492       -14.2449
  47   2.0000      -0.513535       -13.9740
  48   2.0000      -0.508538       -13.8380
  49   2.0000      -0.501908       -13.6576
  50   2.0000      -0.486267       -13.2320
  51   2.0000      -0.482209       -13.1216
  52   2.0000      -0.473456       -12.8834
  53   2.0000      -0.463460       -12.6114
  54   2.0000      -0.459517       -12.5041
  55   2.0000      -0.447332       -12.1725
  56   2.0000      -0.442101       -12.0302
  57   2.0000      -0.428857       -11.6698
  58   2.0000      -0.425353       -11.5745
  59   2.0000      -0.422743       -11.5034
  60   2.0000      -0.422153       -11.4874
  61   2.0000      -0.412684       -11.2297
  62   2.0000      -0.406155       -11.0520
  63   2.0000      -0.342648        -9.3239
  64   2.0000      -0.334004        -9.0887
  65   2.0000      -0.326588        -8.8869
  66   2.0000      -0.297092        -8.0843
  67   0.0000       0.028404         0.7729
  68   0.0000       0.053040         1.4433
  69   0.0000       0.098605         2.6832
  70   0.0000       0.123439         3.3590
  71   0.0000       0.129044         3.5115

MULLIKEN ATOMIC CHARGES
-----------------------
   0 S :    0.108833
   1 C :   -0.120010
   2 C :   -0.097000
   3 C :    0.051414
   4 C :   -0.152841
   5 H :    0.000484
   6 C :    0.107293
   7 H :    0.037034
   8 H :    0.005822
   9 C :   -0.096041
  10 H :    0.027266
  11 H :    0.031255
  12 C :   -0.077229
  13 H :    0.034493
  14 H :    0.027495
  15 H :    0.052673
  16 S :    0.099074
  17 C :   -0.057446
  18 C :   -0.019641
  19 C :   -0.015200
  20 C :   -0.171351
  21 H :    0.009805
  22 C :    0.055384
  23 H :    0.026773
  24 H :    0.017047
  25 C :   -0.056901
  26 H :    0.011191
  27 H :    0.029689
  28 C :   -0.068531
  29 H :    0.031428
  30 H :    0.047886
  31 H :    0.021841
  32 H :    0.054275
  33 H :    0.043736
Sum of atomic charges:   -0.0000000

LOEWDIN ATOMIC CHARGES
----------------------
   0 S :    0.414825
   1 C :   -0.188988
   2 C :   -0.066482
   3 C :   -0.051997
   4 C :   -0.204125
   5 H :    0.027550
   6 C :   -0.034134
   7 H :    0.033201
   8 H :    0.031606
   9 C :   -0.043806
  10 H :    0.024343
  11 H :    0.023096
  12 C :   -0.067035
  13 H :    0.025311
  14 H :    0.027172
  15 H :    0.021352
  16 S :    0.369414
  17 C :   -0.163357
  18 C :   -0.064742
  19 C :   -0.045389
  20 C :   -0.186636
  21 H :    0.029298
  22 C :   -0.035915
  23 H :    0.024414
  24 H :    0.035668
  25 C :   -0.036537
  26 H :    0.015540
  27 H :    0.014455
  28 C :   -0.066448
  29 H :    0.027995
  30 H :    0.037053
  31 H :    0.016493
  32 H :    0.030501
  33 H :    0.026308

  Mayer bond orders larger than 0.100000
B(  0-S ,  1-C ) :   1.1472 B(  0-S ,  4-C ) :   1.1500 B(  1-C ,  2-C ) :   1.5521
B(  1-C ,  4-C ) :   0.1063 B(  1-C , 32-H ) :   0.9754 B(  2-C ,  3-C ) :   1.2718
B(  2-C ,  6-C ) :   1.0281 B(  3-C ,  4-C ) :   1.5355 B(  3-C ,  5-H ) :   1.0039
B(  4-C , 20-C ) :   1.0778 B(  6-C ,  7-H ) :   0.9432 B(  6-C ,  8-H ) :   0.9307
B(  6-C ,  9-C ) :   1.0757 B(  9-C , 10-H ) :   0.9565 B(  9-C , 11-H ) :   0.9570
B(  9-C , 12-C ) :   1.0744 B( 12-C , 13-H ) :   0.9755 B( 12-C , 14-H ) :   0.9738
B( 12-C , 15-H ) :   0.9764 B( 16-S , 17-C ) :   1.1346 B( 16-S , 20-C ) :   1.0940
B( 17-C , 18-C ) :   1.6572 B( 17-C , 33-H ) :   0.9600 B( 18-C , 19-C ) :   1.2141
B( 18-C , 21-H ) :   0.9922 B( 19-C , 20-C ) :   1.6087 B( 19-C , 22-C ) :   1.0580
B( 22-C , 23-H ) :   0.9239 B( 22-C , 24-H ) :   0.9432 B( 22-C , 25-C ) :   1.0662
B( 25-C , 26-H ) :   0.9594 B( 25-C , 27-H ) :   0.9540 B( 25-C , 28-C ) :   1.0865
B( 28-C , 29-H ) :   0.9771 B( 28-C , 30-H ) :   0.9735 B( 28-C , 31-H ) :   0.9741

Dispersion correction           -0.015967133
FINAL SINGLE POINT ENERGY     -1339.857465470488

DIPOLE MOMENT
-------------
                                X             Y             Z
Electronic contribution:     -5.70484     -23.09206     -15.62934
Nuclear contribution   :      5.95395      23.45864      16.11276
                        -----------------------------------------
Total Dipole Moment    :      0.24911       0.36658       0.48342
                        -----------------------------------------
Magnitude (a.u.)       :      0.65585
Magnitude (Debye)      :      1.66704

Rotational constants in cm-1:     0.019889     0.009643     0.007914
Rotational constants in MHz :   596.257749   289.087391   237.254681

                             ****ORCA TERMINATED NORMALLY****
TOTAL RUN TIME: 0 days 0 hours 0 minutes 23 seconds 121 msec
