                         Program Version 4.2.1 -  RELEASE  -
|  1> ! wB97X-D3 SP def2-SVP
|  2> %pal
|  3> nprocs 24
|  4> end
|  5>
|  6> * xyz 0 1
|  7> S 	 -57.0249 	 12.3684 	 -92.9341
|  8> C 	 -55.3435 	 12.3936 	 -93.3448
|  9> C 	 -54.6921 	 13.6063 	 -93.11
| 10> C 	 -55.5893 	 14.549 	 -92.4649
| 11> C 	 -56.8279 	 14.0085 	 -92.2268
| 12> H 	 -55.3208 	 15.5446 	 -92.1682
| 13> C 	 -53.3571 	 14.0456 	 -93.6413
| 14> H 	 -53.6272 	 14.3868 	 -94.612
| 15> H 	 -52.6839 	 13.1715 	 -93.7781
| 16> C 	 -52.5687 	 15.1302 	 -92.8482
| 17> H 	 -53.2098 	 15.9823 	 -92.6537
| 18> H 	 -52.3961 	 14.7445 	 -91.8698
| 19> C 	 -51.2272 	 15.3701 	 -93.4939
| 20> H 	 -51.3112 	 16.1617 	 -94.22
| 21> H 	 -50.4256 	 15.6118 	 -92.7861
| 22> H 	 -50.7536 	 14.5006 	 -94.037
| 23> S 	 -59.1866 	 13.5717 	 -90.762
| 24> C 	 -60.1191 	 14.8956 	 -90.1538
| 25> C 	 -59.45 	 16.0543 	 -90.4287
| 26> C 	 -58.1769 	 15.9147 	 -90.9826
| 27> C 	 -57.8973 	 14.6328 	 -91.4037
| 28> H 	 -59.8962 	 16.9928 	 -90.2126
| 29> C 	 -57.4099 	 17.2298 	 -91.2244
| 30> H 	 -58.0667 	 18.1113 	 -91.4016
| 31> H 	 -56.8575 	 17.1463 	 -92.1105
| 32> C 	 -56.304 	 17.4933 	 -90.1846
| 33> H 	 -55.5532 	 16.6473 	 -90.3322
| 34> H 	 -56.5974 	 17.5101 	 -89.1007
| 35> C 	 -55.46 	 18.7694 	 -90.4698
| 36> H 	 -54.7731 	 18.5921 	 -91.3036
| 37> H 	 -54.8379 	 18.9911 	 -89.5552
| 38> H 	 -56.0215 	 19.6179 	 -90.7173
| 39> H 	 -54.9181 	 11.6386 	 -93.9134
| 40> H 	 -61.1094 	 14.916 	 -89.8344
| 41> *
| 42>
| 43>                          ****END OF INPUT****

CARTESIAN COORDINATES (ANGSTROEM)
---------------------------------
  S    -57.024900   12.368400  -92.934100
  C    -55.343500   12.393600  -93.344800
  C    -54.692100   13.606300  -93.110000
  C    -55.589300   14.549000  -92.464900
  C    -56.827900   14.008500  -92.226800
  H    -55.320800   15.544600  -92.168200
  C    -53.357100   14.045600  -93.641300
  H    -53.627200   14.386800  -94.612000
  H    -52.683900   13.171500  -93.778100
  C    -52.568700   15.130200  -92.848200
  H    -53.209800   15.982300  -92.653700
  H    -52.396100   14.744500  -91.869800
  C    -51.227200   15.370100  -93.493900
  H    -51.311200   16.161700  -94.220000
  H    -50.425600   15.611800  -92.786100
  H    -50.753600   14.500600  -94.037000
  S    -59.186600   13.571700  -90.762000
  C    -60.119100   14.895600  -90.153800
  C    -59.450000   16.054300  -90.428700
  C    -58.176900   15.914700  -90.982600
  C    -57.897300   14.632800  -91.403700
  H    -59.896200   16.992800  -90.212600
  C    -57.409900   17.229800  -91.224400
  H    -58.066700   18.111300  -91.401600
  H    -56.857500   17.146300  -92.110500
  C    -56.304000   17.493300  -90.184600
  H    -55.553200   16.647300  -90.332200
  H    -56.597400   17.510100  -89.100700
  C    -55.460000   18.769400  -90.469800
  H    -54.773100   18.592100  -91.303600
  H    -54.837900   18.991100  -89.555200
  H    -56.021500   19.617900  -90.717300
  H    -54.918100   11.638600  -93.913400
  H    -61.109400   14.916000  -89.834400

 Total Charge           Charge          ....    0
 Multiplicity           Mult            ....    1
 Number of Electrons    NEL             ....  134
 Basis Dimension        Dim             ....  322

ORBITAL ENERGIES
----------------

  NO   OCC          E(Eh)            E(eV)
   0   2.0000     -88.971002     -2421.0241
   1   2.0000     -88.963284     -2420.8140
   2   2.0000     -10.337738      -281.3042
   3   2.0000     -10.333794      -281.1968
   4   2.0000     -10.308717      -280.5144
   5   2.0000     -10.307344      -280.4771
   6   2.0000     -10.305250      -280.4201
   7   2.0000     -10.300191      -280.2825
   8   2.0000     -10.297058      -280.1972
   9   2.0000     -10.296354      -280.1780
  10   2.0000     -10.294241      -280.1206
  11   2.0000     -10.294174      -280.1187
  12   2.0000     -10.289257      -279.9849
  13   2.0000     -10.283847      -279.8377
  14   2.0000     -10.283004      -279.8148
  15   2.0000     -10.280891      -279.7573
  16   2.0000      -8.085102      -220.0068
  17   2.0000      -8.077727      -219.8061
  18   2.0000      -6.043705      -164.4576
  19   2.0000      -6.039922      -164.3546
  20   2.0000      -6.036361      -164.2577
  21   2.0000      -6.035590      -164.2368
  22   2.0000      -6.032201      -164.1445
  23   2.0000      -6.028444      -164.0423
  24   2.0000      -1.005454       -27.3598
  25   2.0000      -0.984971       -26.8024
  26   2.0000      -0.914873       -24.8949
  27   2.0000      -0.907394       -24.6915
  28   2.0000      -0.869800       -23.6685
  29   2.0000      -0.855743       -23.2860
  30   2.0000      -0.847622       -23.0650
  31   2.0000      -0.817908       -22.2564
  32   2.0000      -0.782778       -21.3005
  33   2.0000      -0.773042       -21.0355
  34   2.0000      -0.716318       -19.4920
  35   2.0000      -0.701124       -19.0786
  36   2.0000      -0.690945       -18.8016
  37   2.0000      -0.665878       -18.1195
  38   2.0000      -0.643415       -17.5082
  39   2.0000      -0.627477       -17.0745
  40   2.0000      -0.599869       -16.3233
  41   2.0000      -0.572871       -15.5886
  42   2.0000      -0.565531       -15.3889
  43   2.0000      -0.562408       -15.3039
  44   2.0000      -0.526421       -14.3247
  45   2.0000      -0.525373       -14.2961
  46   2.0000      -0.515584       -14.0297
  47   2.0000      -0.512380       -13.9426
  48   2.0000      -0.506857       -13.7923
  49   2.0000      -0.502068       -13.6620
  50   2.0000      -0.498384       -13.5617
  51   2.0000      -0.484986       -13.1972
  52   2.0000      -0.474389       -12.9088
  53   2.0000      -0.472505       -12.8575
  54   2.0000      -0.458647       -12.4804
  55   2.0000      -0.453091       -12.3292
  56   2.0000      -0.441022       -12.0008
  57   2.0000      -0.438440       -11.9306
  58   2.0000      -0.432657       -11.7732
  59   2.0000      -0.429494       -11.6871
  60   2.0000      -0.420117       -11.4320
  61   2.0000      -0.418580       -11.3901
  62   2.0000      -0.410974       -11.1832
  63   2.0000      -0.362607        -9.8670
  64   2.0000      -0.332429        -9.0458
  65   2.0000      -0.329194        -8.9578
  66   2.0000      -0.282051        -7.6750
  67   0.0000       0.019471         0.5298
  68   0.0000       0.081074         2.2061
  69   0.0000       0.097465         2.6522
  70   0.0000       0.114877         3.1260
  71   0.0000       0.124233         3.3805

MULLIKEN ATOMIC CHARGES
-----------------------
   0 S :    0.116917
   1 C :   -0.097332
   2 C :   -0.062106
   3 C :   -0.016815
   4 C :   -0.082513
   5 H :   -0.020925
   6 C :    0.035016
   7 H :    0.041300
   8 H :    0.028396
   9 C :   -0.061753
  10 H :    0.032672
  11 H :    0.023810
  12 C :   -0.048841
  13 H :    0.032521
  14 H :    0.034953
  15 H :    0.034662
  16 S :    0.084825
  17 C :   -0.048409
  18 C :   -0.040016
  19 C :   -0.035341
  20 C :   -0.119556
  21 H :    0.001261
  22 C :    0.069440
  23 H :    0.032435
  24 H :   -0.000593
  25 C :   -0.123619
  26 H :    0.037929
  27 H :    0.045275
  28 C :   -0.042236
  29 H :    0.026344
  30 H :    0.045598
  31 H :    0.022441
  32 H :    0.018818
  33 H :    0.035441
Sum of atomic charges:   -0.0000000

LOEWDIN ATOMIC CHARGES
----------------------
   0 S :    0.395073
   1 C :   -0.195381
   2 C :   -0.053009
   3 C :   -0.063162
   4 C :   -0.165419
   5 H :    0.022189
   6 C :   -0.030802
   7 H :    0.032604
   8 H :    0.033466
   9 C :   -0.040566
  10 H :    0.022138
  11 H :    0.023683
  12 C :   -0.068623
  13 H :    0.024331
  14 H :    0.029202
  15 H :    0.033892
  16 S :    0.393624
  17 C :   -0.185740
  18 C :   -0.066556
  19 C :   -0.062441
  20 C :   -0.174069
  21 H :    0.024786
  22 C :   -0.028960
  23 H :    0.033034
  24 H :    0.017752
  25 C :   -0.045663
  26 H :    0.028346
  27 H :    0.027638
  28 C :   -0.067199
  29 H :    0.022289
  30 H :    0.036293
  31 H :    0.013523
  32 H :    0.011297
  33 H :    0.022429

  Mayer bond orders larger than 0.100000
B(  0-S ,  1-C ) :   1.1276 B(  0-S ,  4-C ) :   1.1310 B(  1-C ,  2-C ) :   1.6287
B(  1-C , 32-H ) :   0.9729 B(  2-C ,  3-C ) :   1.2216 B(  2-C ,  6-C ) :   1.0168
B(  3-C ,  4-C ) :   1.5914 B(  3-C ,  5-H ) :   0.9833 B(  4-C , 20-C ) :   1.0668
B(  6-C ,  7-H ) :   0.9380 B(  6-C ,  8-H ) :   0.9416 B(  6-C ,  9-C ) :   1.0626
B(  9-C , 10-H ) :   0.9505 B(  9-C , 11-H ) :   0.9604 B(  9-C , 12-C ) :   1.0767
B( 12-C , 13-H ) :   0.9764 B( 12-C , 14-H ) :   0.9749 B( 12-C , 15-H ) :   0.9727
B( 16-S , 17-C ) :   1.1466 B( 16-S , 20-C ) :   1.1298 B( 17-C , 18-C ) :   1.6017
B( 17-C , 33-H ) :   0.9714 B( 18-C , 19-C ) :   1.2711 B( 18-C , 21-H ) :   0.9937
B( 19-C , 20-C ) :   1.5818 B( 19-C , 22-C ) :   1.0337 B( 22-C , 23-H ) :   0.9454
B( 22-C , 24-H ) :   0.9286 B( 22-C , 25-C ) :   1.0504 B( 25-C , 26-H ) :   0.9532
B( 25-C , 27-H ) :   0.9606 B( 25-C , 28-C ) :   1.0727 B( 28-C , 29-H ) :   0.9755
B( 28-C , 30-H ) :   0.9754 B( 28-C , 31-H ) :   0.9762

Dispersion correction           -0.014005911
FINAL SINGLE POINT ENERGY     -1339.869513979396

DIPOLE MOMENT
-------------
                                X             Y             Z
Electronic contribution:    -26.14303     -22.55661       0.88178
Nuclear contribution   :     26.63342      23.20226      -1.08309
                        -----------------------------------------
Total Dipole Moment    :      0.49039       0.64565      -0.20132
                        -----------------------------------------
Magnitude (a.u.)       :      0.83539
Magnitude (Debye)      :      2.12338

Rotational constants in cm-1:     0.016913     0.009656     0.006308
Rotational constants in MHz :   507.053563   289.474138   189.107786

                             ****ORCA TERMINATED NORMALLY****
TOTAL RUN TIME: 0 days 0 hours 0 minutes 20 seconds 727 msec
