                         Program Version 4.2.1 -  RELEASE  -
|  1> ! wB97X-D3 SP def2-SVP
|  2> %pal
|  3> nprocs 24
|  4> end
|  5>
|  6> * xyz 0 1
|  7> S 	 -84.8936 	 -44.9774 	 -83.2579
|  8> C 	 -86.5657 	 -44.6371 	 -83.1245
|  9> C 	 -87.2704 	 -45.6425 	 -82.4399
| 10> C 	 -86.4321 	 -46.7988 	 -82.2359
| 11> C 	 -85.0997 	 -46.5516 	 -82.5239
| 12> H 	 -86.674 	 -47.6974 	 -81.7462
| 13> C 	 -88.764 	 -45.4877 	 -82.0193
| 14> H 	 -88.8091 	 -45.4574 	 -80.9901
| 15> H 	 -89.0604 	 -46.5875 	 -82.3024
| 16> C 	 -89.6758 	 -44.4503 	 -82.5335
| 17> H 	 -89.1939 	 -43.488 	 -82.6149
| 18> H 	 -89.7726 	 -44.5936 	 -83.631
| 19> C 	 -91.082 	 -44.4783 	 -81.8647
| 20> H 	 -90.9894 	 -44.0725 	 -80.8645
| 21> H 	 -91.8412 	 -44.032 	 -82.4986
| 22> H 	 -91.6106 	 -45.5059 	 -81.7863
| 23> S 	 -82.79 	 -47.5305 	 -83.6112
| 24> C 	 -82.1434 	 -49.0753 	 -82.9916
| 25> C 	 -82.7001 	 -49.3907 	 -81.8002
| 26> C 	 -83.713 	 -48.5019 	 -81.4067
| 27> C 	 -83.9259 	 -47.4654 	 -82.3228
| 28> H 	 -82.3736 	 -50.268 	 -81.3034
| 29> C 	 -84.4325 	 -48.7973 	 -80.0359
| 30> H 	 -84.9901 	 -49.7606 	 -80.1391
| 31> H 	 -85.0203 	 -47.9934 	 -79.8809
| 32> C 	 -83.4411 	 -48.7757 	 -78.9206
| 33> H 	 -82.6685 	 -49.5288 	 -79.1466
| 34> H 	 -83.7762 	 -49.2104 	 -77.9642
| 35> C 	 -82.8859 	 -47.3074 	 -78.7529
| 36> H 	 -82.5837 	 -46.8846 	 -79.7106
| 37> H 	 -82.0736 	 -47.2033 	 -77.9655
| 38> H 	 -83.6636 	 -46.6188 	 -78.4015
| 39> H 	 -87.0168 	 -43.6224 	 -83.2709
| 40> H 	 -81.3535 	 -49.587 	 -83.4489
| 41> *
| 42>
| 43>                          ****END OF INPUT****

CARTESIAN COORDINATES (ANGSTROEM)
---------------------------------
  S    -84.893600  -44.977400  -83.257900
  C    -86.565700  -44.637100  -83.124500
  C    -87.270400  -45.642500  -82.439900
  C    -86.432100  -46.798800  -82.235900
  C    -85.099700  -46.551600  -82.523900
  H    -86.674000  -47.697400  -81.746200
  C    -88.764000  -45.487700  -82.019300
  H    -88.809100  -45.457400  -80.990100
  H    -89.060400  -46.587500  -82.302400
  C    -89.675800  -44.450300  -82.533500
  H    -89.193900  -43.488000  -82.614900
  H    -89.772600  -44.593600  -83.631000
  C    -91.082000  -44.478300  -81.864700
  H    -90.989400  -44.072500  -80.864500
  H    -91.841200  -44.032000  -82.498600
  H    -91.610600  -45.505900  -81.786300
  S    -82.790000  -47.530500  -83.611200
  C    -82.143400  -49.075300  -82.991600
  C    -82.700100  -49.390700  -81.800200
  C    -83.713000  -48.501900  -81.406700
  C    -83.925900  -47.465400  -82.322800
  H    -82.373600  -50.268000  -81.303400
  C    -84.432500  -48.797300  -80.035900
  H    -84.990100  -49.760600  -80.139100
  H    -85.020300  -47.993400  -79.880900
  C    -83.441100  -48.775700  -78.920600
  H    -82.668500  -49.528800  -79.146600
  H    -83.776200  -49.210400  -77.964200
  C    -82.885900  -47.307400  -78.752900
  H    -82.583700  -46.884600  -79.710600
  H    -82.073600  -47.203300  -77.965500
  H    -83.663600  -46.618800  -78.401500
  H    -87.016800  -43.622400  -83.270900
  H    -81.353500  -49.587000  -83.448900

 Total Charge           Charge          ....    0
 Multiplicity           Mult            ....    1
 Number of Electrons    NEL             ....  134
 Basis Dimension        Dim             ....  322

ORBITAL ENERGIES
----------------

  NO   OCC          E(Eh)            E(eV)
   0   2.0000     -88.966130     -2420.8915
   1   2.0000     -88.964337     -2420.8427
   2   2.0000     -10.333430      -281.1869
   3   2.0000     -10.330754      -281.1141
   4   2.0000     -10.313847      -280.6540
   5   2.0000     -10.312293      -280.6118
   6   2.0000     -10.308363      -280.5048
   7   2.0000     -10.304351      -280.3957
   8   2.0000     -10.294982      -280.1407
   9   2.0000     -10.294043      -280.1152
  10   2.0000     -10.291413      -280.0436
  11   2.0000     -10.291323      -280.0411
  12   2.0000     -10.289457      -279.9904
  13   2.0000     -10.288627      -279.9678
  14   2.0000     -10.288097      -279.9533
  15   2.0000     -10.281472      -279.7731
  16   2.0000      -8.081414      -219.9065
  17   2.0000      -8.079394      -219.8515
  18   2.0000      -6.039876      -164.3534
  19   2.0000      -6.037870      -164.2988
  20   2.0000      -6.035861      -164.2441
  21   2.0000      -6.033860      -164.1897
  22   2.0000      -6.032202      -164.1446
  23   2.0000      -6.030164      -164.0891
  24   2.0000      -1.008196       -27.4344
  25   2.0000      -0.986556       -26.8456
  26   2.0000      -0.915116       -24.9016
  27   2.0000      -0.912216       -24.8227
  28   2.0000      -0.869349       -23.6562
  29   2.0000      -0.851617       -23.1737
  30   2.0000      -0.838406       -22.8142
  31   2.0000      -0.813544       -22.1376
  32   2.0000      -0.780740       -21.2450
  33   2.0000      -0.772195       -21.0125
  34   2.0000      -0.714415       -19.4402
  35   2.0000      -0.705632       -19.2012
  36   2.0000      -0.693746       -18.8778
  37   2.0000      -0.663669       -18.0594
  38   2.0000      -0.639373       -17.3982
  39   2.0000      -0.617586       -16.8054
  40   2.0000      -0.600535       -16.3414
  41   2.0000      -0.574253       -15.6262
  42   2.0000      -0.563219       -15.3260
  43   2.0000      -0.561437       -15.2775
  44   2.0000      -0.535197       -14.5634
  45   2.0000      -0.522901       -14.2288
  46   2.0000      -0.512632       -13.9494
  47   2.0000      -0.507765       -13.8170
  48   2.0000      -0.504050       -13.7159
  49   2.0000      -0.500136       -13.6094
  50   2.0000      -0.490795       -13.3552
  51   2.0000      -0.475401       -12.9363
  52   2.0000      -0.473443       -12.8830
  53   2.0000      -0.462943       -12.5973
  54   2.0000      -0.456201       -12.4139
  55   2.0000      -0.450930       -12.2704
  56   2.0000      -0.450050       -12.2465
  57   2.0000      -0.438332       -11.9276
  58   2.0000      -0.437113       -11.8945
  59   2.0000      -0.430992       -11.7279
  60   2.0000      -0.417305       -11.3554
  61   2.0000      -0.409818       -11.1517
  62   2.0000      -0.404660       -11.0114
  63   2.0000      -0.356814        -9.7094
  64   2.0000      -0.334519        -9.1027
  65   2.0000      -0.324909        -8.8412
  66   2.0000      -0.287250        -7.8165
  67   0.0000       0.028111         0.7649
  68   0.0000       0.079087         2.1521
  69   0.0000       0.102396         2.7863
  70   0.0000       0.122421         3.3312
  71   0.0000       0.140593         3.8257

MULLIKEN ATOMIC CHARGES
-----------------------
   0 S :    0.111207
   1 C :   -0.137248
   2 C :   -0.111726
   3 C :    0.042101
   4 C :   -0.143621
   5 H :   -0.005685
   6 C :    0.058146
   7 H :    0.018083
   8 H :    0.041418
   9 C :   -0.061051
  10 H :    0.024452
  11 H :    0.022351
  12 C :   -0.066284
  13 H :    0.048332
  14 H :    0.036169
  15 H :    0.039761
  16 S :    0.090659
  17 C :   -0.075024
  18 C :   -0.011709
  19 C :   -0.112216
  20 C :   -0.118441
  21 H :    0.011334
  22 C :    0.142160
  23 H :    0.048568
  24 H :   -0.013523
  25 C :   -0.070054
  26 H :    0.017621
  27 H :    0.026485
  28 C :   -0.081977
  29 H :    0.052559
  30 H :    0.043642
  31 H :    0.031915
  32 H :    0.065282
  33 H :    0.036314
Sum of atomic charges:   -0.0000000

LOEWDIN ATOMIC CHARGES
----------------------
   0 S :    0.415284
   1 C :   -0.232701
   2 C :   -0.055601
   3 C :   -0.064102
   4 C :   -0.185211
   5 H :    0.024137
   6 C :   -0.034845
   7 H :    0.019006
   8 H :    0.045907
   9 C :   -0.053499
  10 H :    0.024095
  11 H :    0.029846
  12 C :   -0.067737
  13 H :    0.026338
  14 H :    0.029168
  15 H :    0.039153
  16 S :    0.400465
  17 C :   -0.156819
  18 C :   -0.064995
  19 C :   -0.057216
  20 C :   -0.209358
  21 H :    0.029218
  22 C :   -0.019313
  23 H :    0.038110
  24 H :    0.009264
  25 C :   -0.044673
  26 H :    0.019753
  27 H :    0.025452
  28 C :   -0.069195
  29 H :    0.028462
  30 H :    0.031974
  31 H :    0.026466
  32 H :    0.035500
  33 H :    0.017669

  Mayer bond orders larger than 0.100000
B(  0-S ,  1-C ) :   1.1411 B(  0-S ,  4-C ) :   1.1644 B(  1-C ,  2-C ) :   1.6200
B(  1-C , 32-H ) :   0.9548 B(  2-C ,  3-C ) :   1.2439 B(  2-C ,  6-C ) :   0.9851
B(  3-C ,  4-C ) :   1.5872 B(  3-C ,  5-H ) :   0.9944 B(  4-C , 20-C ) :   1.0025
B(  6-C ,  7-H ) :   0.9392 B(  6-C ,  8-H ) :   0.9419 B(  6-C ,  9-C ) :   1.0800
B(  9-C , 10-H ) :   0.9446 B(  9-C , 11-H ) :   0.9474 B(  9-C , 12-C ) :   1.0697
B( 12-C , 13-H ) :   0.9768 B( 12-C , 14-H ) :   0.9735 B( 12-C , 15-H ) :   0.9752
B( 16-S , 17-C ) :   1.1469 B( 16-S , 20-C ) :   1.1498 B( 17-C , 18-C ) :   1.6148
B( 17-C , 33-H ) :   0.9758 B( 18-C , 19-C ) :   1.2358 B( 18-C , 21-H ) :   0.9976
B( 19-C , 20-C ) :   1.6059 B( 19-C , 22-C ) :   1.0130 B( 22-C , 23-H ) :   0.9379
B( 22-C , 24-H ) :   0.9292 B( 22-C , 25-C ) :   1.0742 B( 25-C , 26-H ) :   0.9550
B( 25-C , 27-H ) :   0.9543 B( 25-C , 28-C ) :   1.0531 B( 28-C , 29-H ) :   0.9770
B( 28-C , 30-H ) :   0.9755 B( 28-C , 31-H ) :   0.9734

Dispersion correction           -0.014010028
FINAL SINGLE POINT ENERGY     -1339.850058879165

DIPOLE MOMENT
-------------
                                X             Y             Z
Electronic contribution:     18.50069       0.09800     -17.66297
Nuclear contribution   :    -18.92418      -0.39006      18.16540
                        -----------------------------------------
Total Dipole Moment    :     -0.42349      -0.29206       0.50243
                        -----------------------------------------
Magnitude (a.u.)       :      0.71908
Magnitude (Debye)      :      1.82776

Rotational constants in cm-1:     0.022572     0.007181     0.006087
Rotational constants in MHz :   676.690989   215.273367   182.472251

                             ****ORCA TERMINATED NORMALLY****
TOTAL RUN TIME: 0 days 0 hours 0 minutes 21 seconds 238 msec
