                         Program Version 4.2.1 -  RELEASE  -
|  1> ! wB97X-D3 SP def2-SVP
|  2> %pal
|  3> nprocs 24
|  4> end
|  5>
|  6> * xyz 0 1
|  7> S 	 -102.247 	 13.722 	 -121.859
|  8> C 	 -102.883 	 14.7626 	 -123.104
|  9> C 	 -102.231 	 14.6667 	 -124.366
| 10> C 	 -101.424 	 13.5075 	 -124.366
| 11> C 	 -101.282 	 12.95 	 -123.11
| 12> H 	 -100.82 	 13.1045 	 -125.213
| 13> C 	 -102.449 	 15.4567 	 -125.669
| 14> H 	 -103.555 	 15.5557 	 -125.881
| 15> H 	 -102.012 	 14.7429 	 -126.373
| 16> C 	 -101.628 	 16.7536 	 -125.789
| 17> H 	 -100.905 	 16.7374 	 -124.94
| 18> H 	 -101.102 	 16.8699 	 -126.738
| 19> C 	 -102.409 	 18.0413 	 -125.649
| 20> H 	 -103.16 	 17.9709 	 -124.875
| 21> H 	 -101.852 	 18.9654 	 -125.575
| 22> H 	 -103.004 	 18.1835 	 -126.571
| 23> S 	 -102 	 10.3973 	 -122.62
| 24> C 	 -100.869 	 9.03938 	 -122.595
| 25> C 	 -99.6097 	 9.47721 	 -123.072
| 26> C 	 -99.5966 	 10.9199 	 -123.122
| 27> C 	 -100.766 	 11.5738 	 -122.888
| 28> H 	 -98.878 	 8.76704 	 -123.212
| 29> C 	 -98.319 	 11.6454 	 -123.623
| 30> H 	 -98.6314 	 12.6848 	 -123.403
| 31> H 	 -98.2782 	 11.6438 	 -124.665
| 32> C 	 -96.9938 	 11.246 	 -122.878
| 33> H 	 -96.144 	 11.6918 	 -123.406
| 34> H 	 -96.9897 	 10.1118 	 -122.755
| 35> C 	 -97.0481 	 11.8476 	 -121.485
| 36> H 	 -97.7947 	 11.2676 	 -120.921
| 37> H 	 -97.2235 	 12.9225 	 -121.504
| 38> H 	 -96.2126 	 11.6132 	 -120.914
| 39> H 	 -103.515 	 15.5827 	 -122.926
| 40> H 	 -101.095 	 7.97288 	 -122.392
| 41> *
| 42>
| 43>                          ****END OF INPUT****

CARTESIAN COORDINATES (ANGSTROEM)
---------------------------------
  S    -102.247000   13.722000  -121.859000
  C    -102.883000   14.762600  -123.104000
  C    -102.231000   14.666700  -124.366000
  C    -101.424000   13.507500  -124.366000
  C    -101.282000   12.950000  -123.110000
  H    -100.820000   13.104500  -125.213000
  C    -102.449000   15.456700  -125.669000
  H    -103.555000   15.555700  -125.881000
  H    -102.012000   14.742900  -126.373000
  C    -101.628000   16.753600  -125.789000
  H    -100.905000   16.737400  -124.940000
  H    -101.102000   16.869900  -126.738000
  C    -102.409000   18.041300  -125.649000
  H    -103.160000   17.970900  -124.875000
  H    -101.852000   18.965400  -125.575000
  H    -103.004000   18.183500  -126.571000
  S    -102.000000   10.397300  -122.620000
  C    -100.869000    9.039380  -122.595000
  C    -99.609700    9.477210  -123.072000
  C    -99.596600   10.919900  -123.122000
  C    -100.766000   11.573800  -122.888000
  H    -98.878000    8.767040  -123.212000
  C    -98.319000   11.645400  -123.623000
  H    -98.631400   12.684800  -123.403000
  H    -98.278200   11.643800  -124.665000
  C    -96.993800   11.246000  -122.878000
  H    -96.144000   11.691800  -123.406000
  H    -96.989700   10.111800  -122.755000
  C    -97.048100   11.847600  -121.485000
  H    -97.794700   11.267600  -120.921000
  H    -97.223500   12.922500  -121.504000
  H    -96.212600   11.613200  -120.914000
  H    -103.515000   15.582700  -122.926000
  H    -101.095000    7.972880  -122.392000

 Total Charge           Charge          ....    0
 Multiplicity           Mult            ....    1
 Number of Electrons    NEL             ....  134
 Basis Dimension        Dim             ....  322

ORBITAL ENERGIES
----------------

  NO   OCC          E(Eh)            E(eV)
   0   2.0000     -88.976419     -2421.1714
   1   2.0000     -88.958793     -2420.6918
   2   2.0000     -10.331148      -281.1248
   3   2.0000     -10.321711      -280.8680
   4   2.0000     -10.320403      -280.8324
   5   2.0000     -10.317063      -280.7416
   6   2.0000     -10.307719      -280.4873
   7   2.0000     -10.302828      -280.3542
   8   2.0000     -10.300024      -280.2779
   9   2.0000     -10.299544      -280.2648
  10   2.0000     -10.291650      -280.0500
  11   2.0000     -10.291019      -280.0329
  12   2.0000     -10.290244      -280.0118
  13   2.0000     -10.283353      -279.8243
  14   2.0000     -10.276468      -279.6369
  15   2.0000     -10.264612      -279.3143
  16   2.0000      -8.090677      -220.1585
  17   2.0000      -8.073842      -219.7004
  18   2.0000      -6.048940      -164.6000
  19   2.0000      -6.045387      -164.5033
  20   2.0000      -6.041581      -164.3998
  21   2.0000      -6.032442      -164.1511
  22   2.0000      -6.028198      -164.0356
  23   2.0000      -6.024560      -163.9366
  24   2.0000      -1.007695       -27.4208
  25   2.0000      -0.982700       -26.7406
  26   2.0000      -0.912487       -24.8300
  27   2.0000      -0.901287       -24.5253
  28   2.0000      -0.866047       -23.5663
  29   2.0000      -0.858812       -23.3694
  30   2.0000      -0.841123       -22.8881
  31   2.0000      -0.812871       -22.1193
  32   2.0000      -0.782719       -21.2989
  33   2.0000      -0.767822       -20.8935
  34   2.0000      -0.699762       -19.0415
  35   2.0000      -0.698800       -19.0153
  36   2.0000      -0.691128       -18.8065
  37   2.0000      -0.658603       -17.9215
  38   2.0000      -0.643034       -17.4978
  39   2.0000      -0.618001       -16.8166
  40   2.0000      -0.589909       -16.0522
  41   2.0000      -0.575181       -15.6515
  42   2.0000      -0.559582       -15.2270
  43   2.0000      -0.550681       -14.9848
  44   2.0000      -0.540006       -14.6943
  45   2.0000      -0.533988       -14.5305
  46   2.0000      -0.522584       -14.2202
  47   2.0000      -0.519129       -14.1262
  48   2.0000      -0.497990       -13.5510
  49   2.0000      -0.491774       -13.3818
  50   2.0000      -0.480876       -13.0853
  51   2.0000      -0.479177       -13.0391
  52   2.0000      -0.469799       -12.7839
  53   2.0000      -0.460474       -12.5301
  54   2.0000      -0.452366       -12.3095
  55   2.0000      -0.450103       -12.2479
  56   2.0000      -0.441029       -12.0010
  57   2.0000      -0.437624       -11.9084
  58   2.0000      -0.430587       -11.7169
  59   2.0000      -0.427219       -11.6252
  60   2.0000      -0.416774       -11.3410
  61   2.0000      -0.412449       -11.2233
  62   2.0000      -0.405433       -11.0324
  63   2.0000      -0.348247        -9.4763
  64   2.0000      -0.328032        -8.9262
  65   2.0000      -0.321904        -8.7595
  66   2.0000      -0.300428        -8.1751
  67   0.0000       0.030306         0.8247
  68   0.0000       0.061468         1.6726
  69   0.0000       0.107533         2.9261
  70   0.0000       0.119130         3.2417
  71   0.0000       0.124479         3.3872

MULLIKEN ATOMIC CHARGES
-----------------------
   0 S :    0.140632
   1 C :   -0.096032
   2 C :   -0.124242
   3 C :    0.031292
   4 C :   -0.181905
   5 H :    0.039586
   6 C :    0.057981
   7 H :    0.054740
   8 H :    0.022857
   9 C :   -0.060748
  10 H :    0.044760
  11 H :    0.036644
  12 C :   -0.060410
  13 H :    0.020245
  14 H :    0.037714
  15 H :    0.021188
  16 S :    0.098265
  17 C :   -0.116411
  18 C :   -0.010383
  19 C :   -0.084167
  20 C :   -0.120550
  21 H :   -0.002453
  22 C :    0.062189
  23 H :    0.016445
  24 H :    0.023796
  25 C :   -0.078151
  26 H :    0.035606
  27 H :    0.042559
  28 C :   -0.031720
  29 H :    0.030897
  30 H :    0.039587
  31 H :    0.010309
  32 H :    0.029815
  33 H :    0.070063
Sum of atomic charges:   -0.0000000

LOEWDIN ATOMIC CHARGES
----------------------
   0 S :    0.424096
   1 C :   -0.190485
   2 C :   -0.061884
   3 C :   -0.055508
   4 C :   -0.204406
   5 H :    0.042685
   6 C :   -0.032396
   7 H :    0.040134
   8 H :    0.035791
   9 C :   -0.045455
  10 H :    0.031412
  11 H :    0.026800
  12 C :   -0.068445
  13 H :    0.018071
  14 H :    0.026148
  15 H :    0.024725
  16 S :    0.408902
  17 C :   -0.182830
  18 C :   -0.066232
  19 C :   -0.062232
  20 C :   -0.214025
  21 H :    0.017133
  22 C :   -0.032068
  23 H :    0.029275
  24 H :    0.017289
  25 C :   -0.039336
  26 H :    0.024475
  27 H :    0.031226
  28 C :   -0.063806
  29 H :    0.030888
  30 H :    0.026545
  31 H :    0.013887
  32 H :    0.013361
  33 H :    0.036263

  Mayer bond orders larger than 0.100000
B(  0-S ,  1-C ) :   1.1642 B(  0-S ,  4-C ) :   1.1573 B(  1-C ,  2-C ) :   1.5811
B(  1-C , 32-H ) :   0.9685 B(  2-C ,  3-C ) :   1.2688 B(  2-C ,  6-C ) :   1.0178
B(  3-C ,  4-C ) :   1.5793 B(  3-C ,  5-H ) :   0.9729 B(  4-C , 20-C ) :   0.9870
B(  6-C ,  7-H ) :   0.9508 B(  6-C ,  8-H ) :   0.9383 B(  6-C ,  9-C ) :   1.0306
B(  9-C , 10-H ) :   0.9619 B(  9-C , 11-H ) :   0.9608 B(  9-C , 12-C ) :   1.0800
B( 12-C , 13-H ) :   0.9772 B( 12-C , 14-H ) :   0.9742 B( 12-C , 15-H ) :   0.9751
B( 16-S , 17-C ) :   1.1690 B( 16-S , 20-C ) :   1.1367 B( 17-C , 18-C ) :   1.5953
B( 17-C , 33-H ) :   0.9644 B( 18-C , 19-C ) :   1.2223 B( 18-C , 21-H ) :   1.0066
B( 19-C , 20-C ) :   1.6384 B( 19-C , 22-C ) :   1.0167 B( 22-C , 23-H ) :   0.9391
B( 22-C , 24-H ) :   0.9435 B( 22-C , 25-C ) :   1.0550 B( 25-C , 26-H ) :   0.9560
B( 25-C , 27-H ) :   0.9582 B( 25-C , 28-C ) :   1.0822 B( 28-C , 29-H ) :   0.9713
B( 28-C , 30-H ) :   0.9753 B( 28-C , 31-H ) :   0.9699

Dispersion correction           -0.014143661
FINAL SINGLE POINT ENERGY     -1339.848281395011

DIPOLE MOMENT
-------------
                                X             Y             Z
Electronic contribution:    -14.06486     -14.75947      10.86221
Nuclear contribution   :     14.31382      14.98044     -11.37604
                        -----------------------------------------
Total Dipole Moment    :      0.24896       0.22097      -0.51383
                        -----------------------------------------
Magnitude (a.u.)       :      0.61224
Magnitude (Debye)      :      1.55618

Rotational constants in cm-1:     0.021422     0.007533     0.006502
Rotational constants in MHz :   642.218806   225.821611   194.912250

                             ****ORCA TERMINATED NORMALLY****
TOTAL RUN TIME: 0 days 0 hours 0 minutes 21 seconds 399 msec
