                         Program Version 4.2.1 -  RELEASE  -
|  1> ! wB97X-D3 SP def2-SVP
|  2> %pal
|  3> nprocs 24
|  4> end
|  5>
|  6> * xyz 0 1
|  7> S 	 -39.7974 	 9.34977 	 2.50003
|  8> C 	 -39.752 	 8.44716 	 1.02381
|  9> C 	 -39.8736 	 7.07386 	 1.27447
| 10> C 	 -40.1941 	 6.81445 	 2.66214
| 11> C 	 -40.3453 	 7.97 	 3.42754
| 12> H 	 -40.3709 	 5.85158 	 3.14894
| 13> C 	 -39.7547 	 5.9682 	 0.218289
| 14> H 	 -38.6764 	 5.73805 	 0.150895
| 15> H 	 -40.018 	 6.35798 	 -0.778847
| 16> C 	 -40.5698 	 4.71823 	 0.496192
| 17> H 	 -39.9874 	 4.03077 	 1.14247
| 18> H 	 -41.5963 	 4.99629 	 0.927668
| 19> C 	 -40.893 	 3.91735 	 -0.795254
| 20> H 	 -39.9594 	 3.73332 	 -1.36554
| 21> H 	 -41.3429 	 2.95966 	 -0.450502
| 22> H 	 -41.6181 	 4.41888 	 -1.48325
| 23> S 	 -39.0348 	 7.93209 	 5.78505
| 24> C 	 -39.8222 	 7.99767 	 7.29946
| 25> C 	 -41.1837 	 7.87264 	 7.13266
| 26> C 	 -41.5702 	 7.89742 	 5.76071
| 27> C 	 -40.4842 	 7.92106 	 4.87559
| 28> H 	 -41.8755 	 7.86041 	 7.95866
| 29> C 	 -43.0423 	 7.71283 	 5.30378
| 30> H 	 -43.01 	 7.85921 	 4.24967
| 31> H 	 -43.6857 	 8.52002 	 5.7803
| 32> C 	 -43.603 	 6.32012 	 5.57822
| 33> H 	 -44.7023 	 6.34127 	 5.4631
| 34> H 	 -43.2762 	 5.92841 	 6.5851
| 35> C 	 -43.1135 	 5.24432 	 4.62753
| 36> H 	 -43.5168 	 5.53244 	 3.57015
| 37> H 	 -43.4882 	 4.28477 	 4.77409
| 38> H 	 -41.9957 	 5.21982 	 4.54942
| 39> H 	 -39.4457 	 8.82878 	 0.0679828
| 40> H 	 -39.3632 	 8.39438 	 8.15425
| 41> *
| 42>
| 43>                          ****END OF INPUT****

CARTESIAN COORDINATES (ANGSTROEM)
---------------------------------
  S    -39.797400    9.349770    2.500030
  C    -39.752000    8.447160    1.023810
  C    -39.873600    7.073860    1.274470
  C    -40.194100    6.814450    2.662140
  C    -40.345300    7.970000    3.427540
  H    -40.370900    5.851580    3.148940
  C    -39.754700    5.968200    0.218289
  H    -38.676400    5.738050    0.150895
  H    -40.018000    6.357980   -0.778847
  C    -40.569800    4.718230    0.496192
  H    -39.987400    4.030770    1.142470
  H    -41.596300    4.996290    0.927668
  C    -40.893000    3.917350   -0.795254
  H    -39.959400    3.733320   -1.365540
  H    -41.342900    2.959660   -0.450502
  H    -41.618100    4.418880   -1.483250
  S    -39.034800    7.932090    5.785050
  C    -39.822200    7.997670    7.299460
  C    -41.183700    7.872640    7.132660
  C    -41.570200    7.897420    5.760710
  C    -40.484200    7.921060    4.875590
  H    -41.875500    7.860410    7.958660
  C    -43.042300    7.712830    5.303780
  H    -43.010000    7.859210    4.249670
  H    -43.685700    8.520020    5.780300
  C    -43.603000    6.320120    5.578220
  H    -44.702300    6.341270    5.463100
  H    -43.276200    5.928410    6.585100
  C    -43.113500    5.244320    4.627530
  H    -43.516800    5.532440    3.570150
  H    -43.488200    4.284770    4.774090
  H    -41.995700    5.219820    4.549420
  H    -39.445700    8.828780    0.067983
  H    -39.363200    8.394380    8.154250

 Total Charge           Charge          ....    0
 Multiplicity           Mult            ....    1
 Number of Electrons    NEL             ....  134
 Basis Dimension        Dim             ....  322

ORBITAL ENERGIES
----------------

  NO   OCC          E(Eh)            E(eV)
   0   2.0000     -88.967908     -2420.9399
   1   2.0000     -88.960567     -2420.7401
   2   2.0000     -10.327894      -281.0363
   3   2.0000     -10.322787      -280.8973
   4   2.0000     -10.315067      -280.6872
   5   2.0000     -10.308520      -280.5091
   6   2.0000     -10.306201      -280.4460
   7   2.0000     -10.303396      -280.3697
   8   2.0000     -10.297937      -280.2211
   9   2.0000     -10.296103      -280.1712
  10   2.0000     -10.295697      -280.1602
  11   2.0000     -10.292389      -280.0701
  12   2.0000     -10.291369      -280.0424
  13   2.0000     -10.289294      -279.9859
  14   2.0000     -10.287118      -279.9267
  15   2.0000     -10.278632      -279.6958
  16   2.0000      -8.082627      -219.9395
  17   2.0000      -8.077066      -219.7881
  18   2.0000      -6.041136      -164.3877
  19   2.0000      -6.037136      -164.2788
  20   2.0000      -6.035413      -164.2319
  21   2.0000      -6.033376      -164.1765
  22   2.0000      -6.031114      -164.1149
  23   2.0000      -6.028081      -164.0324
  24   2.0000      -1.010674       -27.5018
  25   2.0000      -0.986716       -26.8499
  26   2.0000      -0.910035       -24.7633
  27   2.0000      -0.907632       -24.6979
  28   2.0000      -0.872709       -23.7476
  29   2.0000      -0.845424       -23.0051
  30   2.0000      -0.844409       -22.9775
  31   2.0000      -0.814247       -22.1568
  32   2.0000      -0.778634       -21.1877
  33   2.0000      -0.770017       -20.9532
  34   2.0000      -0.706421       -19.2227
  35   2.0000      -0.691257       -18.8101
  36   2.0000      -0.685320       -18.6485
  37   2.0000      -0.656437       -17.8626
  38   2.0000      -0.642016       -17.4702
  39   2.0000      -0.615539       -16.7497
  40   2.0000      -0.597273       -16.2526
  41   2.0000      -0.572717       -15.5844
  42   2.0000      -0.565763       -15.3952
  43   2.0000      -0.556055       -15.1310
  44   2.0000      -0.539764       -14.6877
  45   2.0000      -0.524747       -14.2791
  46   2.0000      -0.519320       -14.1314
  47   2.0000      -0.509176       -13.8554
  48   2.0000      -0.507149       -13.8002
  49   2.0000      -0.494171       -13.4471
  50   2.0000      -0.487964       -13.2782
  51   2.0000      -0.481679       -13.1072
  52   2.0000      -0.474875       -12.9220
  53   2.0000      -0.460264       -12.5244
  54   2.0000      -0.450309       -12.2535
  55   2.0000      -0.447033       -12.1644
  56   2.0000      -0.443820       -12.0770
  57   2.0000      -0.438247       -11.9253
  58   2.0000      -0.433425       -11.7941
  59   2.0000      -0.427270       -11.6266
  60   2.0000      -0.414090       -11.2680
  61   2.0000      -0.411651       -11.2016
  62   2.0000      -0.408433       -11.1140
  63   2.0000      -0.336529        -9.1574
  64   2.0000      -0.326457        -8.8834
  65   2.0000      -0.316715        -8.6182
  66   2.0000      -0.312615        -8.5067
  67   0.0000       0.039130         1.0648
  68   0.0000       0.053855         1.4655
  69   0.0000       0.117967         3.2101
  70   0.0000       0.122548         3.3347
  71   0.0000       0.135732         3.6935

MULLIKEN ATOMIC CHARGES
-----------------------
   0 S :    0.124580
   1 C :   -0.107337
   2 C :   -0.101531
   3 C :    0.015861
   4 C :   -0.144048
   5 H :    0.026630
   6 C :    0.078586
   7 H :    0.045854
   8 H :    0.020904
   9 C :   -0.125324
  10 H :    0.043500
  11 H :    0.055384
  12 C :   -0.078785
  13 H :    0.035890
  14 H :    0.041935
  15 H :    0.045475
  16 S :    0.118788
  17 C :   -0.080213
  18 C :   -0.031944
  19 C :   -0.061333
  20 C :   -0.200730
  21 H :    0.016520
  22 C :    0.085782
  23 H :    0.017209
  24 H :    0.043776
  25 C :   -0.073697
  26 H :    0.038960
  27 H :    0.036148
  28 C :   -0.073942
  29 H :    0.026183
  30 H :    0.025925
  31 H :    0.039228
  32 H :    0.043220
  33 H :    0.052546
Sum of atomic charges:   -0.0000000

LOEWDIN ATOMIC CHARGES
----------------------
   0 S :    0.421544
   1 C :   -0.202274
   2 C :   -0.061930
   3 C :   -0.054586
   4 C :   -0.212495
   5 H :    0.032324
   6 C :   -0.039796
   7 H :    0.039148
   8 H :    0.030040
   9 C :   -0.051855
  10 H :    0.028318
  11 H :    0.035884
  12 C :   -0.071786
  13 H :    0.024699
  14 H :    0.030181
  15 H :    0.027342
  16 S :    0.444612
  17 C :   -0.195315
  18 C :   -0.070977
  19 C :   -0.056471
  20 C :   -0.221033
  21 H :    0.029510
  22 C :   -0.028920
  23 H :    0.024856
  24 H :    0.038967
  25 C :   -0.046553
  26 H :    0.028698
  27 H :    0.027609
  28 C :   -0.067142
  29 H :    0.028736
  30 H :    0.014680
  31 H :    0.024874
  32 H :    0.026657
  33 H :    0.022454

  Mayer bond orders larger than 0.100000
B(  0-S ,  1-C ) :   1.1556 B(  0-S ,  4-C ) :   1.1545 B(  1-C ,  2-C ) :   1.5953
B(  1-C , 32-H ) :   0.9700 B(  2-C ,  3-C ) :   1.2543 B(  2-C ,  6-C ) :   1.0150
B(  3-C ,  4-C ) :   1.5550 B(  3-C ,  5-H ) :   0.9866 B(  4-C , 20-C ) :   1.0231
B(  6-C ,  7-H ) :   0.9230 B(  6-C ,  8-H ) :   0.9509 B(  6-C ,  9-C ) :   1.0694
B(  9-C , 10-H ) :   0.9457 B(  9-C , 11-H ) :   0.9606 B(  9-C , 12-C ) :   1.0838
B( 12-C , 13-H ) :   0.9735 B( 12-C , 14-H ) :   0.9749 B( 12-C , 15-H ) :   0.9759
B( 16-S , 17-C ) :   1.1841 B( 16-S , 20-C ) :   1.1765 B( 17-C , 18-C ) :   1.5607
B( 17-C , 20-C ) :   0.1019 B( 17-C , 33-H ) :   0.9728 B( 18-C , 19-C ) :   1.2814
B( 18-C , 21-H ) :   0.9922 B( 19-C , 20-C ) :   1.5651 B( 19-C , 22-C ) :   1.0429
B( 22-C , 23-H ) :   0.9335 B( 22-C , 24-H ) :   0.9356 B( 22-C , 25-C ) :   1.0607
B( 25-C , 26-H ) :   0.9539 B( 25-C , 27-H ) :   0.9574 B( 25-C , 28-C ) :   1.0792
B( 28-C , 29-H ) :   0.9709 B( 28-C , 30-H ) :   0.9711 B( 28-C , 31-H ) :   0.9724

Dispersion correction           -0.015027563
FINAL SINGLE POINT ENERGY     -1339.880281710700

DIPOLE MOMENT
-------------
                                X             Y             Z
Electronic contribution:     15.18658      21.71953      11.71231
Nuclear contribution   :    -15.39654     -22.11456     -11.90112
                        -----------------------------------------
Total Dipole Moment    :     -0.20997      -0.39504      -0.18880
                        -----------------------------------------
Magnitude (a.u.)       :      0.48558
Magnitude (Debye)      :      1.23424

Rotational constants in cm-1:     0.018640     0.009074     0.007166
Rotational constants in MHz :   558.806917   272.045583   214.834408

                             ****ORCA TERMINATED NORMALLY****
TOTAL RUN TIME: 0 days 0 hours 0 minutes 21 seconds 8 msec
