                         Program Version 4.2.1 -  RELEASE  -
|  1> ! wB97X-D3 SP def2-SVP
|  2> %pal
|  3> nprocs 24
|  4> end
|  5>
|  6> * xyz 0 1
|  7> S 	 -62.5463 	 4.2492 	 -74.3617
|  8> C 	 -62.3798 	 3.87326 	 -72.6401
|  9> C 	 -63.2686 	 4.66219 	 -71.867
| 10> C 	 -64.0963 	 5.48791 	 -72.6371
| 11> C 	 -63.9121 	 5.29022 	 -74.0055
| 12> H 	 -64.7581 	 6.23634 	 -72.1863
| 13> C 	 -63.2957 	 4.69422 	 -70.3162
| 14> H 	 -62.8811 	 3.75918 	 -70.0323
| 15> H 	 -64.2672 	 4.47431 	 -69.8711
| 16> C 	 -62.5697 	 5.85046 	 -69.5937
| 17> H 	 -62.5896 	 5.5399 	 -68.5121
| 18> H 	 -61.5024 	 5.88657 	 -69.9429
| 19> C 	 -63.1258 	 7.26439 	 -69.7415
| 20> H 	 -62.5921 	 7.93213 	 -69.0665
| 21> H 	 -63.0178 	 7.5712 	 -70.7707
| 22> H 	 -64.2156 	 7.22556 	 -69.5047
| 23> S 	 -63.8164 	 6.48015 	 -76.5754
| 24> C 	 -65.2823 	 7.31958 	 -77.1432
| 25> C 	 -66.3117 	 7.11864 	 -76.2608
| 26> C 	 -65.9969 	 6.4027 	 -75.0696
| 27> C 	 -64.6706 	 5.95634 	 -75.1005
| 28> H 	 -67.2953 	 7.50403 	 -76.5089
| 29> C 	 -67.1471 	 6.0458 	 -74.1498
| 30> H 	 -67.7051 	 6.95019 	 -73.873
| 31> H 	 -66.6726 	 5.68535 	 -73.1907
| 32> C 	 -68.1799 	 4.96122 	 -74.569
| 33> H 	 -67.7002 	 3.99617 	 -74.4714
| 34> H 	 -68.4889 	 5.19889 	 -75.6106
| 35> C 	 -69.4444 	 5.12199 	 -73.7338
| 36> H 	 -69.1303 	 5.33216 	 -72.7086
| 37> H 	 -70.0468 	 4.24291 	 -73.7826
| 38> H 	 -70.0624 	 5.92052 	 -74.0056
| 39> H 	 -61.7404 	 3.09177 	 -72.2058
| 40> H 	 -65.4485 	 7.89344 	 -78.0175
| 41> *
| 42>
| 43>                          ****END OF INPUT****

CARTESIAN COORDINATES (ANGSTROEM)
---------------------------------
  S    -62.546300    4.249200  -74.361700
  C    -62.379800    3.873260  -72.640100
  C    -63.268600    4.662190  -71.867000
  C    -64.096300    5.487910  -72.637100
  C    -63.912100    5.290220  -74.005500
  H    -64.758100    6.236340  -72.186300
  C    -63.295700    4.694220  -70.316200
  H    -62.881100    3.759180  -70.032300
  H    -64.267200    4.474310  -69.871100
  C    -62.569700    5.850460  -69.593700
  H    -62.589600    5.539900  -68.512100
  H    -61.502400    5.886570  -69.942900
  C    -63.125800    7.264390  -69.741500
  H    -62.592100    7.932130  -69.066500
  H    -63.017800    7.571200  -70.770700
  H    -64.215600    7.225560  -69.504700
  S    -63.816400    6.480150  -76.575400
  C    -65.282300    7.319580  -77.143200
  C    -66.311700    7.118640  -76.260800
  C    -65.996900    6.402700  -75.069600
  C    -64.670600    5.956340  -75.100500
  H    -67.295300    7.504030  -76.508900
  C    -67.147100    6.045800  -74.149800
  H    -67.705100    6.950190  -73.873000
  H    -66.672600    5.685350  -73.190700
  C    -68.179900    4.961220  -74.569000
  H    -67.700200    3.996170  -74.471400
  H    -68.488900    5.198890  -75.610600
  C    -69.444400    5.121990  -73.733800
  H    -69.130300    5.332160  -72.708600
  H    -70.046800    4.242910  -73.782600
  H    -70.062400    5.920520  -74.005600
  H    -61.740400    3.091770  -72.205800
  H    -65.448500    7.893440  -78.017500

 Total Charge           Charge          ....    0
 Multiplicity           Mult            ....    1
 Number of Electrons    NEL             ....  134
 Basis Dimension        Dim             ....  322

ORBITAL ENERGIES
----------------

  NO   OCC          E(Eh)            E(eV)
   0   2.0000     -88.973117     -2421.0816
   1   2.0000     -88.969417     -2420.9809
   2   2.0000     -10.335666      -281.2478
   3   2.0000     -10.335418      -281.2410
   4   2.0000     -10.320415      -280.8328
   5   2.0000     -10.315758      -280.7060
   6   2.0000     -10.304310      -280.3945
   7   2.0000     -10.303298      -280.3670
   8   2.0000     -10.295036      -280.1422
   9   2.0000     -10.294619      -280.1308
  10   2.0000     -10.293534      -280.1013
  11   2.0000     -10.291558      -280.0475
  12   2.0000     -10.290224      -280.0112
  13   2.0000     -10.288055      -279.9522
  14   2.0000     -10.278935      -279.7040
  15   2.0000     -10.271266      -279.4954
  16   2.0000      -8.087056      -220.0600
  17   2.0000      -8.082890      -219.9466
  18   2.0000      -6.045494      -164.5062
  19   2.0000      -6.041776      -164.4051
  20   2.0000      -6.041596      -164.4002
  21   2.0000      -6.037854      -164.2984
  22   2.0000      -6.037674      -164.2934
  23   2.0000      -6.033433      -164.1781
  24   2.0000      -1.001313       -27.2471
  25   2.0000      -0.979292       -26.6479
  26   2.0000      -0.908377       -24.7182
  27   2.0000      -0.905759       -24.6469
  28   2.0000      -0.863377       -23.4937
  29   2.0000      -0.854952       -23.2644
  30   2.0000      -0.845950       -23.0195
  31   2.0000      -0.814434       -22.1619
  32   2.0000      -0.784857       -21.3570
  33   2.0000      -0.770727       -20.9725
  34   2.0000      -0.705428       -19.1957
  35   2.0000      -0.694437       -18.8966
  36   2.0000      -0.691218       -18.8090
  37   2.0000      -0.658981       -17.9318
  38   2.0000      -0.635595       -17.2954
  39   2.0000      -0.622292       -16.9334
  40   2.0000      -0.595225       -16.1969
  41   2.0000      -0.569841       -15.5062
  42   2.0000      -0.566416       -15.4130
  43   2.0000      -0.543856       -14.7991
  44   2.0000      -0.540288       -14.7020
  45   2.0000      -0.525015       -14.2864
  46   2.0000      -0.519389       -14.1333
  47   2.0000      -0.509191       -13.8558
  48   2.0000      -0.505207       -13.7474
  49   2.0000      -0.491925       -13.3860
  50   2.0000      -0.489776       -13.3275
  51   2.0000      -0.479374       -13.0444
  52   2.0000      -0.470736       -12.8094
  53   2.0000      -0.464408       -12.6372
  54   2.0000      -0.457798       -12.4573
  55   2.0000      -0.449818       -12.2402
  56   2.0000      -0.445168       -12.1136
  57   2.0000      -0.438880       -11.9425
  58   2.0000      -0.435595       -11.8531
  59   2.0000      -0.425271       -11.5722
  60   2.0000      -0.416817       -11.3422
  61   2.0000      -0.414298       -11.2736
  62   2.0000      -0.410445       -11.1688
  63   2.0000      -0.353306        -9.6140
  64   2.0000      -0.338205        -9.2030
  65   2.0000      -0.330991        -9.0067
  66   2.0000      -0.281964        -7.6726
  67   0.0000       0.019321         0.5257
  68   0.0000       0.073249         1.9932
  69   0.0000       0.095514         2.5991
  70   0.0000       0.118580         3.2267
  71   0.0000       0.136043         3.7019

MULLIKEN ATOMIC CHARGES
-----------------------
   0 S :    0.114864
   1 C :   -0.127075
   2 C :   -0.109541
   3 C :    0.008753
   4 C :   -0.138703
   5 H :    0.034337
   6 C :    0.080761
   7 H :   -0.006753
   8 H :    0.020734
   9 C :   -0.097216
  10 H :    0.037708
  11 H :    0.037631
  12 C :   -0.045860
  13 H :    0.043199
  14 H :    0.043157
  15 H :    0.029522
  16 S :    0.094708
  17 C :   -0.070926
  18 C :   -0.038162
  19 C :   -0.034010
  20 C :   -0.118649
  21 H :    0.014987
  22 C :    0.004918
  23 H :    0.026290
  24 H :    0.019801
  25 C :   -0.047152
  26 H :    0.043739
  27 H :    0.028435
  28 C :   -0.024286
  29 H :    0.022614
  30 H :    0.030755
  31 H :    0.020717
  32 H :    0.058358
  33 H :    0.042344
Sum of atomic charges:    0.0000000

LOEWDIN ATOMIC CHARGES
----------------------
   0 S :    0.404438
   1 C :   -0.203404
   2 C :   -0.059810
   3 C :   -0.071350
   4 C :   -0.183062
   5 H :    0.037485
   6 C :   -0.040389
   7 H :    0.026383
   8 H :    0.030571
   9 C :   -0.043760
  10 H :    0.029244
  11 H :    0.029272
  12 C :   -0.067369
  13 H :    0.029773
  14 H :    0.024923
  15 H :    0.025807
  16 S :    0.375340
  17 C :   -0.174036
  18 C :   -0.065314
  19 C :   -0.064020
  20 C :   -0.181400
  21 H :    0.029691
  22 C :   -0.040791
  23 H :    0.029957
  24 H :    0.030909
  25 C :   -0.031607
  26 H :    0.027831
  27 H :    0.025178
  28 C :   -0.058715
  29 H :    0.024239
  30 H :    0.025293
  31 H :    0.018518
  32 H :    0.033316
  33 H :    0.026861

  Mayer bond orders larger than 0.100000
B(  0-S ,  1-C ) :   1.1350 B(  0-S ,  4-C ) :   1.1667 B(  1-C ,  2-C ) :   1.5901
B(  1-C ,  4-C ) :   0.1082 B(  1-C , 32-H ) :   0.9648 B(  2-C ,  3-C ) :   1.2857
B(  2-C ,  6-C ) :   1.0150 B(  3-C ,  4-C ) :   1.5329 B(  3-C ,  5-H ) :   0.9802
B(  4-C , 20-C ) :   1.0427 B(  6-C ,  7-H ) :   0.9261 B(  6-C ,  8-H ) :   0.9391
B(  6-C ,  9-C ) :   1.0720 B(  9-C , 10-H ) :   0.9534 B(  9-C , 11-H ) :   0.9534
B(  9-C , 12-C ) :   1.0838 B( 12-C , 13-H ) :   0.9712 B( 12-C , 14-H ) :   0.9717
B( 12-C , 15-H ) :   0.9735 B( 16-S , 17-C ) :   1.1234 B( 16-S , 20-C ) :   1.1259
B( 17-C , 18-C ) :   1.6433 B( 17-C , 33-H ) :   0.9697 B( 18-C , 19-C ) :   1.2283
B( 18-C , 21-H ) :   0.9848 B( 19-C , 20-C ) :   1.6026 B( 19-C , 22-C ) :   1.0502
B( 22-C , 23-H ) :   0.9372 B( 22-C , 24-H ) :   0.9243 B( 22-C , 25-C ) :   1.0602
B( 25-C , 26-H ) :   0.9583 B( 25-C , 27-H ) :   0.9577 B( 25-C , 28-C ) :   1.0772
B( 28-C , 29-H ) :   0.9742 B( 28-C , 30-H ) :   0.9718 B( 28-C , 31-H ) :   0.9733

Dispersion correction           -0.013896590
FINAL SINGLE POINT ENERGY     -1339.878636910938

DIPOLE MOMENT
-------------
                                X             Y             Z
Electronic contribution:     16.50093      -2.78170     -22.66378
Nuclear contribution   :    -17.00366       2.86560      23.15420
                        -----------------------------------------
Total Dipole Moment    :     -0.50273       0.08390       0.49042
                        -----------------------------------------
Magnitude (a.u.)       :      0.70731
Magnitude (Debye)      :      1.79784

Rotational constants in cm-1:     0.016204     0.008872     0.006972
Rotational constants in MHz :   485.772012   265.987541   209.019112

                             ****ORCA TERMINATED NORMALLY****
TOTAL RUN TIME: 0 days 0 hours 0 minutes 20 seconds 202 msec
