                         Program Version 4.2.1 -  RELEASE  -
|  1> ! wB97X-D3 SP def2-SVP
|  2> %pal
|  3> nprocs 24
|  4> end
|  5>
|  6> * xyz 0 1
|  7> S 	 -81.3999 	 2.48036 	 -113.453
|  8> C 	 -81.3287 	 0.729926 	 -113.396
|  9> C 	 -82.4525 	 0.230107 	 -114.045
| 10> C 	 -83.1033 	 1.23291 	 -114.843
| 11> C 	 -82.5932 	 2.47966 	 -114.658
| 12> H 	 -83.9161 	 1.00092 	 -115.566
| 13> C 	 -82.8353 	 -1.217 	 -114.167
| 14> H 	 -81.9598 	 -1.73116 	 -113.743
| 15> H 	 -82.8552 	 -1.49497 	 -115.249
| 16> C 	 -84.0446 	 -1.61995 	 -113.479
| 17> H 	 -83.8952 	 -2.75002 	 -113.443
| 18> H 	 -84.1151 	 -1.34034 	 -112.407
| 19> C 	 -85.3561 	 -1.21212 	 -114.143
| 20> H 	 -86.2533 	 -1.59917 	 -113.615
| 21> H 	 -85.5712 	 -0.166878 	 -114.285
| 22> H 	 -85.4493 	 -1.6718 	 -115.157
| 23> S 	 -81.9079 	 4.82947 	 -116.03
| 24> C 	 -83.1944 	 5.83181 	 -116.677
| 25> C 	 -84.3528 	 5.47714 	 -116.001
| 26> C 	 -84.3107 	 4.23868 	 -115.305
| 27> C 	 -83.1014 	 3.67537 	 -115.363
| 28> H 	 -85.3367 	 6.01594 	 -116.126
| 29> C 	 -85.5084 	 3.57092 	 -114.634
| 30> H 	 -85.6121 	 2.54462 	 -114.873
| 31> H 	 -86.4044 	 4.02076 	 -114.932
| 32> C 	 -85.4393 	 3.67271 	 -113.114
| 33> H 	 -84.4238 	 3.27088 	 -112.8
| 34> H 	 -86.2525 	 3.00171 	 -112.637
| 35> C 	 -85.5377 	 5.10167 	 -112.608
| 36> H 	 -86.4083 	 5.66451 	 -112.896
| 37> H 	 -84.6535 	 5.58263 	 -112.998
| 38> H 	 -85.3003 	 5.21628 	 -111.496
| 39> H 	 -80.7122 	 0.121456 	 -112.841
| 40> H 	 -83.124 	 6.77088 	 -117.22
| 41> *
| 42>
| 43>                          ****END OF INPUT****

CARTESIAN COORDINATES (ANGSTROEM)
---------------------------------
  S    -81.399900    2.480360  -113.453000
  C    -81.328700    0.729926  -113.396000
  C    -82.452500    0.230107  -114.045000
  C    -83.103300    1.232910  -114.843000
  C    -82.593200    2.479660  -114.658000
  H    -83.916100    1.000920  -115.566000
  C    -82.835300   -1.217000  -114.167000
  H    -81.959800   -1.731160  -113.743000
  H    -82.855200   -1.494970  -115.249000
  C    -84.044600   -1.619950  -113.479000
  H    -83.895200   -2.750020  -113.443000
  H    -84.115100   -1.340340  -112.407000
  C    -85.356100   -1.212120  -114.143000
  H    -86.253300   -1.599170  -113.615000
  H    -85.571200   -0.166878  -114.285000
  H    -85.449300   -1.671800  -115.157000
  S    -81.907900    4.829470  -116.030000
  C    -83.194400    5.831810  -116.677000
  C    -84.352800    5.477140  -116.001000
  C    -84.310700    4.238680  -115.305000
  C    -83.101400    3.675370  -115.363000
  H    -85.336700    6.015940  -116.126000
  C    -85.508400    3.570920  -114.634000
  H    -85.612100    2.544620  -114.873000
  H    -86.404400    4.020760  -114.932000
  C    -85.439300    3.672710  -113.114000
  H    -84.423800    3.270880  -112.800000
  H    -86.252500    3.001710  -112.637000
  C    -85.537700    5.101670  -112.608000
  H    -86.408300    5.664510  -112.896000
  H    -84.653500    5.582630  -112.998000
  H    -85.300300    5.216280  -111.496000
  H    -80.712200    0.121456  -112.841000
  H    -83.124000    6.770880  -117.220000

 Total Charge           Charge          ....    0
 Multiplicity           Mult            ....    1
 Number of Electrons    NEL             ....  134
 Basis Dimension        Dim             ....  322

ORBITAL ENERGIES
----------------

  NO   OCC          E(Eh)            E(eV)
   0   2.0000     -88.967580     -2420.9309
   1   2.0000     -88.963833     -2420.8290
   2   2.0000     -10.325096      -280.9602
   3   2.0000     -10.324948      -280.9561
   4   2.0000     -10.321980      -280.8753
   5   2.0000     -10.309856      -280.5454
   6   2.0000     -10.299365      -280.2600
   7   2.0000     -10.298911      -280.2476
   8   2.0000     -10.297914      -280.2205
   9   2.0000     -10.291765      -280.0532
  10   2.0000     -10.291077      -280.0345
  11   2.0000     -10.290434      -280.0170
  12   2.0000     -10.290141      -280.0090
  13   2.0000     -10.284505      -279.8556
  14   2.0000     -10.283238      -279.8211
  15   2.0000     -10.273763      -279.5633
  16   2.0000      -8.082819      -219.9447
  17   2.0000      -8.078137      -219.8173
  18   2.0000      -6.041356      -164.3937
  19   2.0000      -6.037251      -164.2820
  20   2.0000      -6.036739      -164.2680
  21   2.0000      -6.033528      -164.1806
  22   2.0000      -6.032909      -164.1638
  23   2.0000      -6.028585      -164.0461
  24   2.0000      -1.013792       -27.5867
  25   2.0000      -0.990613       -26.9559
  26   2.0000      -0.924648       -25.1610
  27   2.0000      -0.912267       -24.8241
  28   2.0000      -0.869964       -23.6729
  29   2.0000      -0.848614       -23.0920
  30   2.0000      -0.840512       -22.8715
  31   2.0000      -0.816325       -22.2133
  32   2.0000      -0.788768       -21.4635
  33   2.0000      -0.781322       -21.2608
  34   2.0000      -0.706949       -19.2371
  35   2.0000      -0.701121       -19.0785
  36   2.0000      -0.683474       -18.5983
  37   2.0000      -0.662476       -18.0269
  38   2.0000      -0.641022       -17.4431
  39   2.0000      -0.617633       -16.8067
  40   2.0000      -0.599484       -16.3128
  41   2.0000      -0.576830       -15.6964
  42   2.0000      -0.555662       -15.1203
  43   2.0000      -0.551247       -15.0002
  44   2.0000      -0.544539       -14.8177
  45   2.0000      -0.535421       -14.5695
  46   2.0000      -0.519843       -14.1456
  47   2.0000      -0.514910       -14.0114
  48   2.0000      -0.512079       -13.9344
  49   2.0000      -0.493730       -13.4351
  50   2.0000      -0.487442       -13.2640
  51   2.0000      -0.485536       -13.2121
  52   2.0000      -0.477307       -12.9882
  53   2.0000      -0.468294       -12.7429
  54   2.0000      -0.463691       -12.6177
  55   2.0000      -0.444640       -12.0993
  56   2.0000      -0.438664       -11.9367
  57   2.0000      -0.436054       -11.8656
  58   2.0000      -0.427377       -11.6295
  59   2.0000      -0.422634       -11.5004
  60   2.0000      -0.420149       -11.4328
  61   2.0000      -0.409137       -11.1332
  62   2.0000      -0.404654       -11.0112
  63   2.0000      -0.346025        -9.4158
  64   2.0000      -0.331293        -9.0150
  65   2.0000      -0.327780        -8.9193
  66   2.0000      -0.300725        -8.1832
  67   0.0000       0.029172         0.7938
  68   0.0000       0.064518         1.7556
  69   0.0000       0.107275         2.9191
  70   0.0000       0.120597         3.2816
  71   0.0000       0.129358         3.5200

MULLIKEN ATOMIC CHARGES
-----------------------
   0 S :    0.120667
   1 C :   -0.082917
   2 C :   -0.105648
   3 C :   -0.007196
   4 C :   -0.127016
   5 H :    0.030558
   6 C :    0.056634
   7 H :    0.010112
   8 H :    0.042126
   9 C :   -0.059950
  10 H :    0.039278
  11 H :    0.035410
  12 C :   -0.065666
  13 H :    0.035437
  14 H :    0.032280
  15 H :    0.025287
  16 S :    0.094081
  17 C :   -0.075516
  18 C :   -0.057188
  19 C :   -0.050251
  20 C :   -0.183031
  21 H :    0.032974
  22 C :    0.173464
  23 H :    0.008468
  24 H :   -0.007811
  25 C :   -0.123095
  26 H :    0.045601
  27 H :    0.039312
  28 C :   -0.059245
  29 H :    0.032746
  30 H :    0.029215
  31 H :    0.041163
  32 H :    0.013604
  33 H :    0.066110
Sum of atomic charges:   -0.0000000

LOEWDIN ATOMIC CHARGES
----------------------
   0 S :    0.424033
   1 C :   -0.189031
   2 C :   -0.055849
   3 C :   -0.074146
   4 C :   -0.208392
   5 H :    0.036161
   6 C :   -0.041174
   7 H :    0.031785
   8 H :    0.038835
   9 C :   -0.050179
  10 H :    0.037332
  11 H :    0.030621
  12 C :   -0.074408
  13 H :    0.031836
  14 H :    0.020308
  15 H :    0.027563
  16 S :    0.382898
  17 C :   -0.182662
  18 C :   -0.075057
  19 C :   -0.058125
  20 C :   -0.178474
  21 H :    0.036038
  22 C :   -0.020041
  23 H :    0.025444
  24 H :    0.019128
  25 C :   -0.044221
  26 H :    0.029303
  27 H :    0.026987
  28 C :   -0.077217
  29 H :    0.019209
  30 H :    0.026316
  31 H :    0.036699
  32 H :    0.012043
  33 H :    0.036437

  Mayer bond orders larger than 0.100000
B(  0-S ,  1-C ) :   1.1243 B(  0-S ,  4-C ) :   1.1595 B(  1-C ,  2-C ) :   1.6144
B(  1-C , 32-H ) :   0.9765 B(  2-C ,  3-C ) :   1.2301 B(  2-C ,  6-C ) :   1.0286
B(  3-C ,  4-C ) :   1.5757 B(  3-C ,  5-H ) :   0.9885 B(  4-C , 20-C ) :   1.0178
B(  6-C ,  7-H ) :   0.9311 B(  6-C ,  8-H ) :   0.9408 B(  6-C ,  9-C ) :   1.0825
B(  9-C , 10-H ) :   0.9505 B(  9-C , 11-H ) :   0.9484 B(  9-C , 12-C ) :   1.0785
B( 12-C , 13-H ) :   0.9700 B( 12-C , 14-H ) :   0.9732 B( 12-C , 15-H ) :   0.9707
B( 16-S , 17-C ) :   1.1437 B( 16-S , 20-C ) :   1.1227 B( 17-C , 18-C ) :   1.6146
B( 17-C , 20-C ) :   0.1012 B( 17-C , 33-H ) :   0.9677 B( 18-C , 19-C ) :   1.2450
B( 18-C , 21-H ) :   0.9723 B( 19-C , 20-C ) :   1.6298 B( 19-C , 22-C ) :   1.0296
B( 22-C , 23-H ) :   0.9331 B( 22-C , 24-H ) :   0.9232 B( 22-C , 25-C ) :   1.0639
B( 25-C , 26-H ) :   0.9547 B( 25-C , 27-H ) :   0.9553 B( 25-C , 28-C ) :   1.0720
B( 28-C , 29-H ) :   0.9765 B( 28-C , 30-H ) :   0.9696 B( 28-C , 31-H ) :   0.9701

Dispersion correction           -0.016084505
FINAL SINGLE POINT ENERGY     -1339.866051331244

DIPOLE MOMENT
-------------
                                X             Y             Z
Electronic contribution:     20.89037      13.36099      -8.11077
Nuclear contribution   :    -21.45516     -13.69536       8.18367
                        -----------------------------------------
Total Dipole Moment    :     -0.56479      -0.33437       0.07290
                        -----------------------------------------
Magnitude (a.u.)       :      0.66038
Magnitude (Debye)      :      1.67856

Rotational constants in cm-1:     0.020322     0.009608     0.008010
Rotational constants in MHz :   609.230050   288.043819   240.122030

                             ****ORCA TERMINATED NORMALLY****
TOTAL RUN TIME: 0 days 0 hours 0 minutes 23 seconds 119 msec
