                         Program Version 4.2.1 -  RELEASE  -
|  1> ! wB97X-D3 SP def2-SVP
|  2> %pal
|  3> nprocs 24
|  4> end
|  5>
|  6> * xyz 0 1
|  7> S 	 -40.1624 	 -10.2844 	 14.4516
|  8> C 	 -41.6522 	 -9.91873 	 15.403
|  9> C 	 -41.3557 	 -9.85346 	 16.7849
| 10> C 	 -39.9336 	 -9.97262 	 17.0774
| 11> C 	 -39.2117 	 -10.2475 	 15.9777
| 12> H 	 -39.553 	 -9.84362 	 18.0453
| 13> C 	 -42.37 	 -9.71893 	 17.8963
| 14> H 	 -41.7262 	 -9.77091 	 18.763
| 15> H 	 -43.0793 	 -10.5422 	 17.8923
| 16> C 	 -43.2512 	 -8.48314 	 17.8365
| 17> H 	 -42.6729 	 -7.58947 	 17.5517
| 18> H 	 -43.9433 	 -8.53426 	 16.9873
| 19> C 	 -44.0272 	 -8.41238 	 19.105
| 20> H 	 -44.8561 	 -7.71615 	 19.0665
| 21> H 	 -44.449 	 -9.30925 	 19.443
| 22> H 	 -43.3507 	 -8.07718 	 19.8768
| 23> S 	 -37.2065 	 -11.7193 	 17.141
| 24> C 	 -35.6537 	 -11.8192 	 16.3499
| 25> C 	 -35.5677 	 -10.9324 	 15.3265
| 26> C 	 -36.7516 	 -10.2225 	 14.9976
| 27> C 	 -37.7902 	 -10.6231 	 15.8828
| 28> H 	 -34.6594 	 -10.848 	 14.7784
| 29> C 	 -36.9535 	 -9.24355 	 13.7909
| 30> H 	 -37.8418 	 -8.66087 	 13.9419
| 31> H 	 -37.1949 	 -9.6919 	 12.8295
| 32> C 	 -35.8102 	 -8.23065 	 13.5896
| 33> H 	 -35.9421 	 -7.54858 	 12.7133
| 34> H 	 -34.9118 	 -8.7091 	 13.2545
| 35> C 	 -35.6564 	 -7.28897 	 14.8464
| 36> H 	 -35.7593 	 -7.81025 	 15.8267
| 37> H 	 -36.4615 	 -6.54917 	 14.7376
| 38> H 	 -34.7163 	 -6.71553 	 14.8031
| 39> H 	 -42.6942 	 -9.66311 	 15.0373
| 40> H 	 -34.8496 	 -12.4514 	 16.624
| 41> *
| 42>
| 43>                          ****END OF INPUT****

CARTESIAN COORDINATES (ANGSTROEM)
---------------------------------
  S    -40.162400  -10.284400   14.451600
  C    -41.652200   -9.918730   15.403000
  C    -41.355700   -9.853460   16.784900
  C    -39.933600   -9.972620   17.077400
  C    -39.211700  -10.247500   15.977700
  H    -39.553000   -9.843620   18.045300
  C    -42.370000   -9.718930   17.896300
  H    -41.726200   -9.770910   18.763000
  H    -43.079300  -10.542200   17.892300
  C    -43.251200   -8.483140   17.836500
  H    -42.672900   -7.589470   17.551700
  H    -43.943300   -8.534260   16.987300
  C    -44.027200   -8.412380   19.105000
  H    -44.856100   -7.716150   19.066500
  H    -44.449000   -9.309250   19.443000
  H    -43.350700   -8.077180   19.876800
  S    -37.206500  -11.719300   17.141000
  C    -35.653700  -11.819200   16.349900
  C    -35.567700  -10.932400   15.326500
  C    -36.751600  -10.222500   14.997600
  C    -37.790200  -10.623100   15.882800
  H    -34.659400  -10.848000   14.778400
  C    -36.953500   -9.243550   13.790900
  H    -37.841800   -8.660870   13.941900
  H    -37.194900   -9.691900   12.829500
  C    -35.810200   -8.230650   13.589600
  H    -35.942100   -7.548580   12.713300
  H    -34.911800   -8.709100   13.254500
  C    -35.656400   -7.288970   14.846400
  H    -35.759300   -7.810250   15.826700
  H    -36.461500   -6.549170   14.737600
  H    -34.716300   -6.715530   14.803100
  H    -42.694200   -9.663110   15.037300
  H    -34.849600  -12.451400   16.624000

 Total Charge           Charge          ....    0
 Multiplicity           Mult            ....    1
 Number of Electrons    NEL             ....  134
 Basis Dimension        Dim             ....  322

ORBITAL ENERGIES
----------------

  NO   OCC          E(Eh)            E(eV)
   0   2.0000     -88.968362     -2420.9522
   1   2.0000     -88.967834     -2420.9378
   2   2.0000     -10.332359      -281.1578
   3   2.0000     -10.331630      -281.1380
   4   2.0000     -10.321843      -280.8716
   5   2.0000     -10.312726      -280.6235
   6   2.0000     -10.311870      -280.6003
   7   2.0000     -10.303203      -280.3644
   8   2.0000     -10.293852      -280.1100
   9   2.0000     -10.291023      -280.0330
  10   2.0000     -10.289503      -279.9916
  11   2.0000     -10.288720      -279.9703
  12   2.0000     -10.288287      -279.9585
  13   2.0000     -10.284711      -279.8612
  14   2.0000     -10.279315      -279.7144
  15   2.0000     -10.269707      -279.4529
  16   2.0000      -8.082273      -219.9298
  17   2.0000      -8.080962      -219.8941
  18   2.0000      -6.040772      -164.3778
  19   2.0000      -6.039811      -164.3516
  20   2.0000      -6.036853      -164.2711
  21   2.0000      -6.035873      -164.2445
  22   2.0000      -6.033037      -164.1673
  23   2.0000      -6.031383      -164.1223
  24   2.0000      -1.001195       -27.2439
  25   2.0000      -0.976188       -26.5634
  26   2.0000      -0.918835       -25.0028
  27   2.0000      -0.901081       -24.5196
  28   2.0000      -0.867041       -23.5934
  29   2.0000      -0.851474       -23.1698
  30   2.0000      -0.839383       -22.8408
  31   2.0000      -0.815203       -22.1828
  32   2.0000      -0.780683       -21.2435
  33   2.0000      -0.768125       -20.9017
  34   2.0000      -0.710962       -19.3463
  35   2.0000      -0.701516       -19.0892
  36   2.0000      -0.695318       -18.9206
  37   2.0000      -0.656774       -17.8717
  38   2.0000      -0.633147       -17.2288
  39   2.0000      -0.621685       -16.9169
  40   2.0000      -0.602385       -16.3917
  41   2.0000      -0.569618       -15.5001
  42   2.0000      -0.562346       -15.3022
  43   2.0000      -0.548204       -14.9174
  44   2.0000      -0.535981       -14.5848
  45   2.0000      -0.526822       -14.3356
  46   2.0000      -0.515121       -14.0172
  47   2.0000      -0.513603       -13.9758
  48   2.0000      -0.504739       -13.7346
  49   2.0000      -0.490334       -13.3427
  50   2.0000      -0.488357       -13.2889
  51   2.0000      -0.474418       -12.9096
  52   2.0000      -0.467572       -12.7233
  53   2.0000      -0.464593       -12.6422
  54   2.0000      -0.458876       -12.4867
  55   2.0000      -0.454376       -12.3642
  56   2.0000      -0.444645       -12.0994
  57   2.0000      -0.438095       -11.9212
  58   2.0000      -0.429184       -11.6787
  59   2.0000      -0.427532       -11.6337
  60   2.0000      -0.421112       -11.4590
  61   2.0000      -0.411858       -11.2072
  62   2.0000      -0.410952       -11.1826
  63   2.0000      -0.348265        -9.4768
  64   2.0000      -0.335347        -9.1253
  65   2.0000      -0.326803        -8.8928
  66   2.0000      -0.288435        -7.8487
  67   0.0000       0.025180         0.6852
  68   0.0000       0.070185         1.9098
  69   0.0000       0.101160         2.7527
  70   0.0000       0.107800         2.9334
  71   0.0000       0.132538         3.6065

MULLIKEN ATOMIC CHARGES
-----------------------
   0 S :    0.095866
   1 C :   -0.138007
   2 C :   -0.122289
   3 C :    0.027982
   4 C :   -0.110606
   5 H :    0.000459
   6 C :    0.076814
   7 H :    0.010569
   8 H :    0.038400
   9 C :   -0.089976
  10 H :    0.032500
  11 H :    0.019431
  12 C :    0.004105
  13 H :    0.024576
  14 H :    0.012507
  15 H :    0.024429
  16 S :    0.110732
  17 C :   -0.070787
  18 C :   -0.025244
  19 C :   -0.024925
  20 C :   -0.165017
  21 H :    0.006297
  22 C :    0.096921
  23 H :    0.011725
  24 H :    0.039145
  25 C :   -0.097313
  26 H :    0.027361
  27 H :    0.020408
  28 C :   -0.078024
  29 H :    0.060142
  30 H :    0.032794
  31 H :    0.036645
  32 H :    0.069413
  33 H :    0.042964
Sum of atomic charges:    0.0000000

LOEWDIN ATOMIC CHARGES
----------------------
   0 S :    0.372704
   1 C :   -0.203605
   2 C :   -0.053717
   3 C :   -0.067536
   4 C :   -0.164908
   5 H :    0.024904
   6 C :   -0.030296
   7 H :    0.026766
   8 H :    0.036062
   9 C :   -0.043089
  10 H :    0.026823
  11 H :    0.020514
  12 C :   -0.058038
  13 H :    0.025135
  14 H :    0.018499
  15 H :    0.027138
  16 S :    0.406585
  17 C :   -0.180607
  18 C :   -0.066917
  19 C :   -0.051904
  20 C :   -0.190551
  21 H :    0.027248
  22 C :   -0.033821
  23 H :    0.021876
  24 H :    0.033163
  25 C :   -0.047364
  26 H :    0.030608
  27 H :    0.012881
  28 C :   -0.070320
  29 H :    0.031624
  30 H :    0.026754
  31 H :    0.026530
  32 H :    0.041446
  33 H :    0.025414

  Mayer bond orders larger than 0.100000
B(  0-S ,  1-C ) :   1.1055 B(  0-S ,  4-C ) :   1.1247 B(  1-C ,  2-C ) :   1.6444
B(  1-C , 32-H ) :   0.9596 B(  2-C ,  3-C ) :   1.2071 B(  2-C ,  6-C ) :   1.0164
B(  3-C ,  4-C ) :   1.6115 B(  3-C ,  5-H ) :   0.9980 B(  4-C , 20-C ) :   1.0317
B(  6-C ,  7-H ) :   0.9475 B(  6-C ,  8-H ) :   0.9325 B(  6-C ,  9-C ) :   1.0614
B(  9-C , 10-H ) :   0.9593 B(  9-C , 11-H ) :   0.9498 B(  9-C , 12-C ) :   1.0862
B( 12-C , 13-H ) :   0.9705 B( 12-C , 14-H ) :   0.9682 B( 12-C , 15-H ) :   0.9734
B( 16-S , 17-C ) :   1.1411 B( 16-S , 20-C ) :   1.1577 B( 17-C , 18-C ) :   1.6179
B( 17-C , 33-H ) :   0.9715 B( 18-C , 19-C ) :   1.2463 B( 18-C , 21-H ) :   0.9927
B( 19-C , 20-C ) :   1.5542 B( 19-C , 22-C ) :   1.0228 B( 22-C , 23-H ) :   0.9288
B( 22-C , 24-H ) :   0.9399 B( 22-C , 25-C ) :   1.0731 B( 25-C , 26-H ) :   0.9558
B( 25-C , 27-H ) :   0.9596 B( 25-C , 28-C ) :   1.0559 B( 28-C , 29-H ) :   0.9784
B( 28-C , 30-H ) :   0.9780 B( 28-C , 31-H ) :   0.9761

Dispersion correction           -0.013983118
FINAL SINGLE POINT ENERGY     -1339.873803377151

DIPOLE MOMENT
-------------
                                X             Y             Z
Electronic contribution:      7.13594     -17.40832      -3.72208
Nuclear contribution   :     -7.18853      17.69437       3.82338
                        -----------------------------------------
Total Dipole Moment    :     -0.05259       0.28606       0.10130
                        -----------------------------------------
Magnitude (a.u.)       :      0.30799
Magnitude (Debye)      :      0.78284

Rotational constants in cm-1:     0.022508     0.007059     0.006345
Rotational constants in MHz :   674.775543   211.621513   190.205486

                             ****ORCA TERMINATED NORMALLY****
TOTAL RUN TIME: 0 days 0 hours 0 minutes 19 seconds 883 msec
