                         Program Version 4.2.1 -  RELEASE  -
|  1> ! wB97X-D3 SP def2-SVP
|  2> %pal
|  3> nprocs 24
|  4> end
|  5>
|  6> * xyz 0 1
|  7> S 	 -103.999 	 29.3577 	 -115.123
|  8> C 	 -105.094 	 30.363 	 -114.205
|  9> C 	 -106.162 	 30.7929 	 -114.959
| 10> C 	 -106.015 	 30.3474 	 -116.307
| 11> C 	 -104.874 	 29.6244 	 -116.572
| 12> H 	 -106.573 	 30.5253 	 -117.213
| 13> C 	 -107.22 	 31.7395 	 -114.383
| 14> H 	 -107.648 	 32.2664 	 -115.283
| 15> H 	 -106.788 	 32.4917 	 -113.706
| 16> C 	 -108.21 	 30.9357 	 -113.418
| 17> H 	 -108.536 	 29.9733 	 -113.78
| 18> H 	 -107.701 	 30.7144 	 -112.522
| 19> C 	 -109.502 	 31.738 	 -113.003
| 20> H 	 -109.228 	 32.6663 	 -112.549
| 21> H 	 -110.168 	 32.0348 	 -113.739
| 22> H 	 -110.057 	 31.1631 	 -112.338
| 23> S 	 -102.7 	 29.252 	 -118.274
| 24> C 	 -102.937 	 28.2445 	 -119.688
| 25> C 	 -104.263 	 27.8998 	 -119.889
| 26> C 	 -105.068 	 28.3049 	 -118.796
| 27> C 	 -104.447 	 29.0658 	 -117.851
| 28> H 	 -104.682 	 27.323 	 -120.725
| 29> C 	 -106.566 	 27.8768 	 -118.717
| 30> H 	 -106.993 	 28.7773 	 -118.453
| 31> H 	 -106.469 	 27.2925 	 -117.889
| 32> C 	 -107.165 	 27.0996 	 -119.945
| 33> H 	 -106.909 	 27.5923 	 -120.904
| 34> H 	 -108.277 	 27.2766 	 -119.947
| 35> C 	 -107.049 	 25.5484 	 -120.023
| 36> H 	 -107.255 	 25.1628 	 -121.049
| 37> H 	 -107.802 	 25.1389 	 -119.323
| 38> H 	 -106.03 	 25.3094 	 -119.631
| 39> H 	 -104.908 	 30.6266 	 -113.168
| 40> H 	 -102.153 	 27.8935 	 -120.424
| 41> *
| 42>
| 43>                          ****END OF INPUT****

CARTESIAN COORDINATES (ANGSTROEM)
---------------------------------
  S    -103.999000   29.357700  -115.123000
  C    -105.094000   30.363000  -114.205000
  C    -106.162000   30.792900  -114.959000
  C    -106.015000   30.347400  -116.307000
  C    -104.874000   29.624400  -116.572000
  H    -106.573000   30.525300  -117.213000
  C    -107.220000   31.739500  -114.383000
  H    -107.648000   32.266400  -115.283000
  H    -106.788000   32.491700  -113.706000
  C    -108.210000   30.935700  -113.418000
  H    -108.536000   29.973300  -113.780000
  H    -107.701000   30.714400  -112.522000
  C    -109.502000   31.738000  -113.003000
  H    -109.228000   32.666300  -112.549000
  H    -110.168000   32.034800  -113.739000
  H    -110.057000   31.163100  -112.338000
  S    -102.700000   29.252000  -118.274000
  C    -102.937000   28.244500  -119.688000
  C    -104.263000   27.899800  -119.889000
  C    -105.068000   28.304900  -118.796000
  C    -104.447000   29.065800  -117.851000
  H    -104.682000   27.323000  -120.725000
  C    -106.566000   27.876800  -118.717000
  H    -106.993000   28.777300  -118.453000
  H    -106.469000   27.292500  -117.889000
  C    -107.165000   27.099600  -119.945000
  H    -106.909000   27.592300  -120.904000
  H    -108.277000   27.276600  -119.947000
  C    -107.049000   25.548400  -120.023000
  H    -107.255000   25.162800  -121.049000
  H    -107.802000   25.138900  -119.323000
  H    -106.030000   25.309400  -119.631000
  H    -104.908000   30.626600  -113.168000
  H    -102.153000   27.893500  -120.424000

 Total Charge           Charge          ....    0
 Multiplicity           Mult            ....    1
 Number of Electrons    NEL             ....  134
 Basis Dimension        Dim             ....  322

ORBITAL ENERGIES
----------------

  NO   OCC          E(Eh)            E(eV)
   0   2.0000     -88.965635     -2420.8780
   1   2.0000     -88.963246     -2420.8130
   2   2.0000     -10.324134      -280.9340
   3   2.0000     -10.323940      -280.9287
   4   2.0000     -10.323682      -280.9217
   5   2.0000     -10.311211      -280.5823
   6   2.0000     -10.304677      -280.4045
   7   2.0000     -10.303929      -280.3842
   8   2.0000     -10.300320      -280.2859
   9   2.0000     -10.299447      -280.2622
  10   2.0000     -10.292516      -280.0736
  11   2.0000     -10.292184      -280.0646
  12   2.0000     -10.292130      -280.0631
  13   2.0000     -10.289739      -279.9980
  14   2.0000     -10.285801      -279.8909
  15   2.0000     -10.266570      -279.3676
  16   2.0000      -8.079424      -219.8523
  17   2.0000      -8.078801      -219.8353
  18   2.0000      -6.038054      -164.3038
  19   2.0000      -6.037142      -164.2790
  20   2.0000      -6.034105      -164.1963
  21   2.0000      -6.033136      -164.1700
  22   2.0000      -6.030067      -164.0865
  23   2.0000      -6.029737      -164.0775
  24   2.0000      -1.008208       -27.4347
  25   2.0000      -0.983805       -26.7707
  26   2.0000      -0.904333       -24.6081
  27   2.0000      -0.902979       -24.5713
  28   2.0000      -0.867610       -23.6089
  29   2.0000      -0.851910       -23.1817
  30   2.0000      -0.843293       -22.9472
  31   2.0000      -0.815910       -22.2020
  32   2.0000      -0.787181       -21.4203
  33   2.0000      -0.772477       -21.0202
  34   2.0000      -0.711202       -19.3528
  35   2.0000      -0.704178       -19.1617
  36   2.0000      -0.694983       -18.9114
  37   2.0000      -0.658288       -17.9129
  38   2.0000      -0.648340       -17.6422
  39   2.0000      -0.612091       -16.6558
  40   2.0000      -0.587138       -15.9768
  41   2.0000      -0.565198       -15.3798
  42   2.0000      -0.561016       -15.2660
  43   2.0000      -0.552859       -15.0441
  44   2.0000      -0.530161       -14.4264
  45   2.0000      -0.527070       -14.3423
  46   2.0000      -0.522695       -14.2233
  47   2.0000      -0.518740       -14.1156
  48   2.0000      -0.502313       -13.6686
  49   2.0000      -0.498986       -13.5781
  50   2.0000      -0.489277       -13.3139
  51   2.0000      -0.481258       -13.0957
  52   2.0000      -0.470833       -12.8120
  53   2.0000      -0.463238       -12.6054
  54   2.0000      -0.459448       -12.5022
  55   2.0000      -0.453046       -12.3280
  56   2.0000      -0.446414       -12.1475
  57   2.0000      -0.443833       -12.0773
  58   2.0000      -0.433508       -11.7963
  59   2.0000      -0.430659       -11.7188
  60   2.0000      -0.426340       -11.6013
  61   2.0000      -0.415843       -11.3157
  62   2.0000      -0.400222       -10.8906
  63   2.0000      -0.344505        -9.3745
  64   2.0000      -0.333354        -9.0710
  65   2.0000      -0.329889        -8.9767
  66   2.0000      -0.291129        -7.9220
  67   0.0000       0.029770         0.8101
  68   0.0000       0.073553         2.0015
  69   0.0000       0.110313         3.0018
  70   0.0000       0.125814         3.4236
  71   0.0000       0.133586         3.6351

MULLIKEN ATOMIC CHARGES
-----------------------
   0 S :    0.119261
   1 C :   -0.137402
   2 C :   -0.044399
   3 C :    0.004877
   4 C :   -0.163902
   5 H :    0.008213
   6 C :    0.048710
   7 H :    0.041935
   8 H :    0.037467
   9 C :   -0.072484
  10 H :    0.030429
  11 H :    0.019655
  12 C :   -0.000033
  13 H :    0.012536
  14 H :    0.014553
  15 H :    0.017573
  16 S :    0.103302
  17 C :   -0.094450
  18 C :   -0.043397
  19 C :   -0.101011
  20 C :   -0.185472
  21 H :    0.029513
  22 C :    0.202953
  23 H :    0.000796
  24 H :    0.017587
  25 C :   -0.140527
  26 H :    0.035179
  27 H :    0.032314
  28 C :   -0.059875
  29 H :    0.052719
  30 H :    0.044467
  31 H :    0.043743
  32 H :    0.050046
  33 H :    0.075122
Sum of atomic charges:   -0.0000000

LOEWDIN ATOMIC CHARGES
----------------------
   0 S :    0.420607
   1 C :   -0.196238
   2 C :   -0.063684
   3 C :   -0.071757
   4 C :   -0.207881
   5 H :    0.029204
   6 C :   -0.029286
   7 H :    0.036413
   8 H :    0.034622
   9 C :   -0.025816
  10 H :    0.021353
  11 H :    0.018595
  12 C :   -0.056090
  13 H :    0.020958
  14 H :    0.015806
  15 H :    0.019129
  16 S :    0.381447
  17 C :   -0.185426
  18 C :   -0.085353
  19 C :   -0.045873
  20 C :   -0.197580
  21 H :    0.036502
  22 C :   -0.011945
  23 H :    0.021311
  24 H :    0.027285
  25 C :   -0.055902
  26 H :    0.023607
  27 H :    0.031835
  28 C :   -0.069875
  29 H :    0.034827
  30 H :    0.030385
  31 H :    0.028228
  32 H :    0.026859
  33 H :    0.043731

  Mayer bond orders larger than 0.100000
B(  0-S ,  1-C ) :   1.1475 B(  0-S ,  4-C ) :   1.1624 B(  1-C ,  2-C ) :   1.5926
B(  1-C , 32-H ) :   0.9706 B(  2-C ,  3-C ) :   1.2313 B(  2-C ,  6-C ) :   1.0194
B(  3-C ,  4-C ) :   1.5803 B(  3-C ,  5-H ) :   0.9956 B(  4-C , 20-C ) :   1.0443
B(  6-C ,  7-H ) :   0.9527 B(  6-C ,  8-H ) :   0.9451 B(  6-C ,  9-C ) :   1.0386
B(  9-C , 10-H ) :   0.9659 B(  9-C , 11-H ) :   0.9575 B(  9-C , 12-C ) :   1.0792
B( 12-C , 13-H ) :   0.9725 B( 12-C , 14-H ) :   0.9779 B( 12-C , 15-H ) :   0.9748
B( 16-S , 17-C ) :   1.1627 B( 16-S , 20-C ) :   1.1051 B( 17-C , 18-C ) :   1.5965
B( 17-C , 33-H ) :   0.9531 B( 18-C , 19-C ) :   1.2667 B( 18-C , 21-H ) :   0.9741
B( 19-C , 20-C ) :   1.6467 B( 19-C , 22-C ) :   0.9674 B( 22-C , 23-H ) :   0.9296
B( 22-C , 24-H ) :   0.9260 B( 22-C , 25-C ) :   1.0643 B( 25-C , 26-H ) :   0.9578
B( 25-C , 27-H ) :   0.9567 B( 25-C , 28-C ) :   1.0588 B( 28-C , 29-H ) :   0.9742
B( 28-C , 30-H ) :   0.9770 B( 28-C , 31-H ) :   0.9796

Dispersion correction           -0.013544416
FINAL SINGLE POINT ENERGY     -1339.855779677289

DIPOLE MOMENT
-------------
                                X             Y             Z
Electronic contribution:     27.97333       2.19720      -1.48985
Nuclear contribution   :    -28.67594      -2.28213       1.40842
                        -----------------------------------------
Total Dipole Moment    :     -0.70261      -0.08493      -0.08143
                        -----------------------------------------
Magnitude (a.u.)       :      0.71239
Magnitude (Debye)      :      1.81076

Rotational constants in cm-1:     0.019399     0.007466     0.005783
Rotational constants in MHz :   581.574135   223.831099   173.377915

                             ****ORCA TERMINATED NORMALLY****
TOTAL RUN TIME: 0 days 0 hours 0 minutes 20 seconds 704 msec
