                         Program Version 4.2.1 -  RELEASE  -
|  1> ! wB97X-D3 SP def2-SVP
|  2> %pal
|  3> nprocs 24
|  4> end
|  5>
|  6> * xyz 0 1
|  7> S 	 -51.6838 	 18.7257 	 -100.716
|  8> C 	 -53.3763 	 18.6055 	 -100.12
|  9> C 	 -54.1797 	 19.546 	 -100.781
| 10> C 	 -53.4981 	 20.1517 	 -101.875
| 11> C 	 -52.1807 	 19.7972 	 -101.97
| 12> H 	 -53.9018 	 20.9341 	 -102.527
| 13> C 	 -55.6797 	 19.7726 	 -100.472
| 14> H 	 -55.7438 	 19.5088 	 -99.4455
| 15> H 	 -56.3275 	 19.1287 	 -101.073
| 16> C 	 -56.1582 	 21.2751 	 -100.606
| 17> H 	 -55.795 	 21.7176 	 -101.604
| 18> H 	 -57.245 	 21.3723 	 -100.469
| 19> C 	 -55.4895 	 22.3267 	 -99.6727
| 20> H 	 -55.8748 	 23.2831 	 -99.9802
| 21> H 	 -55.5914 	 22.1872 	 -98.6034
| 22> H 	 -54.458 	 22.432 	 -99.6712
| 23> S 	 -50.7405 	 22.0481 	 -102.343
| 24> C 	 -49.7991 	 22.2085 	 -103.83
| 25> C 	 -49.8638 	 21.0939 	 -104.696
| 26> C 	 -50.7143 	 20.1395 	 -104.084
| 27> C 	 -51.2042 	 20.4861 	 -102.844
| 28> H 	 -49.3184 	 21.005 	 -105.616
| 29> C 	 -51.1874 	 18.8684 	 -104.839
| 30> H 	 -51.6406 	 18.1449 	 -104.118
| 31> H 	 -50.3282 	 18.4461 	 -105.282
| 32> C 	 -52.2228 	 18.9025 	 -105.979
| 33> H 	 -52.6977 	 17.842 	 -106.199
| 34> H 	 -51.7201 	 19.2317 	 -106.867
| 35> C 	 -53.358 	 19.8496 	 -105.781
| 36> H 	 -53.0461 	 20.8473 	 -105.484
| 37> H 	 -54.1679 	 19.5212 	 -105.109
| 38> H 	 -53.8848 	 20.0436 	 -106.711
| 39> H 	 -53.5783 	 17.9358 	 -99.2938
| 40> H 	 -49.142 	 23.0764 	 -104.014
| 41> *
| 42>
| 43>                          ****END OF INPUT****

CARTESIAN COORDINATES (ANGSTROEM)
---------------------------------
  S    -51.683800   18.725700  -100.716000
  C    -53.376300   18.605500  -100.120000
  C    -54.179700   19.546000  -100.781000
  C    -53.498100   20.151700  -101.875000
  C    -52.180700   19.797200  -101.970000
  H    -53.901800   20.934100  -102.527000
  C    -55.679700   19.772600  -100.472000
  H    -55.743800   19.508800  -99.445500
  H    -56.327500   19.128700  -101.073000
  C    -56.158200   21.275100  -100.606000
  H    -55.795000   21.717600  -101.604000
  H    -57.245000   21.372300  -100.469000
  C    -55.489500   22.326700  -99.672700
  H    -55.874800   23.283100  -99.980200
  H    -55.591400   22.187200  -98.603400
  H    -54.458000   22.432000  -99.671200
  S    -50.740500   22.048100  -102.343000
  C    -49.799100   22.208500  -103.830000
  C    -49.863800   21.093900  -104.696000
  C    -50.714300   20.139500  -104.084000
  C    -51.204200   20.486100  -102.844000
  H    -49.318400   21.005000  -105.616000
  C    -51.187400   18.868400  -104.839000
  H    -51.640600   18.144900  -104.118000
  H    -50.328200   18.446100  -105.282000
  C    -52.222800   18.902500  -105.979000
  H    -52.697700   17.842000  -106.199000
  H    -51.720100   19.231700  -106.867000
  C    -53.358000   19.849600  -105.781000
  H    -53.046100   20.847300  -105.484000
  H    -54.167900   19.521200  -105.109000
  H    -53.884800   20.043600  -106.711000
  H    -53.578300   17.935800  -99.293800
  H    -49.142000   23.076400  -104.014000

 Total Charge           Charge          ....    0
 Multiplicity           Mult            ....    1
 Number of Electrons    NEL             ....  134
 Basis Dimension        Dim             ....  322

ORBITAL ENERGIES
----------------

  NO   OCC          E(Eh)            E(eV)
   0   2.0000     -88.970508     -2421.0106
   1   2.0000     -88.965560     -2420.8760
   2   2.0000     -10.324708      -280.9496
   3   2.0000     -10.323880      -280.9271
   4   2.0000     -10.320125      -280.8249
   5   2.0000     -10.320027      -280.8222
   6   2.0000     -10.307473      -280.4806
   7   2.0000     -10.302541      -280.3464
   8   2.0000     -10.300938      -280.3028
   9   2.0000     -10.299159      -280.2544
  10   2.0000     -10.296449      -280.1806
  11   2.0000     -10.291584      -280.0483
  12   2.0000     -10.287791      -279.9450
  13   2.0000     -10.285096      -279.8717
  14   2.0000     -10.267958      -279.4054
  15   2.0000     -10.266586      -279.3680
  16   2.0000      -8.085576      -220.0197
  17   2.0000      -8.080048      -219.8693
  18   2.0000      -6.043851      -164.4616
  19   2.0000      -6.040047      -164.3580
  20   2.0000      -6.038411      -164.3135
  21   2.0000      -6.036544      -164.2627
  22   2.0000      -6.034649      -164.2111
  23   2.0000      -6.030917      -164.1096
  24   2.0000      -1.008685       -27.4477
  25   2.0000      -0.982810       -26.7436
  26   2.0000      -0.904186       -24.6042
  27   2.0000      -0.902008       -24.5449
  28   2.0000      -0.865991       -23.5648
  29   2.0000      -0.849909       -23.1272
  30   2.0000      -0.842601       -22.9283
  31   2.0000      -0.813585       -22.1388
  32   2.0000      -0.785609       -21.3775
  33   2.0000      -0.772469       -21.0200
  34   2.0000      -0.704280       -19.1644
  35   2.0000      -0.691204       -18.8086
  36   2.0000      -0.682193       -18.5634
  37   2.0000      -0.666583       -18.1386
  38   2.0000      -0.640703       -17.4344
  39   2.0000      -0.619368       -16.8538
  40   2.0000      -0.587980       -15.9998
  41   2.0000      -0.563932       -15.3454
  42   2.0000      -0.555069       -15.1042
  43   2.0000      -0.547988       -14.9115
  44   2.0000      -0.541562       -14.7366
  45   2.0000      -0.534677       -14.5493
  46   2.0000      -0.522004       -14.2045
  47   2.0000      -0.514084       -13.9889
  48   2.0000      -0.500633       -13.6229
  49   2.0000      -0.491890       -13.3850
  50   2.0000      -0.488224       -13.2852
  51   2.0000      -0.469267       -12.7694
  52   2.0000      -0.468008       -12.7351
  53   2.0000      -0.460362       -12.5271
  54   2.0000      -0.457647       -12.4532
  55   2.0000      -0.452266       -12.3068
  56   2.0000      -0.446099       -12.1390
  57   2.0000      -0.435724       -11.8567
  58   2.0000      -0.429228       -11.6799
  59   2.0000      -0.419930       -11.4269
  60   2.0000      -0.418013       -11.3747
  61   2.0000      -0.411479       -11.1969
  62   2.0000      -0.403367       -10.9762
  63   2.0000      -0.341739        -9.2992
  64   2.0000      -0.330453        -8.9921
  65   2.0000      -0.319988        -8.7073
  66   2.0000      -0.309041        -8.4094
  67   0.0000       0.045527         1.2388
  68   0.0000       0.051707         1.4070
  69   0.0000       0.110110         2.9962
  70   0.0000       0.120231         3.2716
  71   0.0000       0.121156         3.2968

MULLIKEN ATOMIC CHARGES
-----------------------
   0 S :    0.109600
   1 C :   -0.145850
   2 C :   -0.090741
   3 C :    0.029059
   4 C :   -0.160685
   5 H :    0.021633
   6 C :    0.119859
   7 H :    0.012615
   8 H :    0.052153
   9 C :   -0.125368
  10 H :    0.041846
  11 H :    0.047814
  12 C :   -0.038946
  13 H :    0.027808
  14 H :    0.018516
  15 H :    0.016346
  16 S :    0.136821
  17 C :   -0.119098
  18 C :   -0.020200
  19 C :   -0.036113
  20 C :   -0.183944
  21 H :    0.021819
  22 C :    0.090670
  23 H :    0.037457
  24 H :    0.012229
  25 C :   -0.083351
  26 H :    0.047507
  27 H :    0.014671
  28 C :   -0.054062
  29 H :    0.030193
  30 H :    0.032285
  31 H :    0.017546
  32 H :    0.054866
  33 H :    0.065044
Sum of atomic charges:   -0.0000000

LOEWDIN ATOMIC CHARGES
----------------------
   0 S :    0.401495
   1 C :   -0.183412
   2 C :   -0.058633
   3 C :   -0.069140
   4 C :   -0.205532
   5 H :    0.034139
   6 C :   -0.025786
   7 H :    0.024976
   8 H :    0.035604
   9 C :   -0.042180
  10 H :    0.032250
  11 H :    0.029659
  12 C :   -0.069864
  13 H :    0.027051
  14 H :    0.021268
  15 H :    0.016836
  16 S :    0.432411
  17 C :   -0.181556
  18 C :   -0.065630
  19 C :   -0.056339
  20 C :   -0.221214
  21 H :    0.034634
  22 C :   -0.032830
  23 H :    0.035644
  24 H :    0.022920
  25 C :   -0.045503
  26 H :    0.041194
  27 H :    0.016245
  28 C :   -0.074808
  29 H :    0.022963
  30 H :    0.024502
  31 H :    0.024331
  32 H :    0.025680
  33 H :    0.028627

  Mayer bond orders larger than 0.100000
B(  0-S ,  1-C ) :   1.1403 B(  0-S ,  4-C ) :   1.1675 B(  1-C ,  2-C ) :   1.5941
B(  1-C ,  4-C ) :   0.1003 B(  1-C , 32-H ) :   0.9759 B(  2-C ,  3-C ) :   1.2337
B(  2-C ,  6-C ) :   1.0056 B(  3-C ,  4-C ) :   1.5933 B(  3-C ,  5-H ) :   0.9899
B(  4-C , 20-C ) :   0.9784 B(  6-C ,  7-H ) :   0.9405 B(  6-C ,  8-H ) :   0.9454
B(  6-C ,  9-C ) :   1.0604 B(  9-C , 10-H ) :   0.9599 B(  9-C , 11-H ) :   0.9600
B(  9-C , 12-C ) :   1.0627 B( 12-C , 13-H ) :   0.9761 B( 12-C , 14-H ) :   0.9734
B( 12-C , 15-H ) :   0.9741 B( 16-S , 17-C ) :   1.1735 B( 16-S , 20-C ) :   1.1600
B( 17-C , 18-C ) :   1.5822 B( 17-C , 33-H ) :   0.9633 B( 18-C , 19-C ) :   1.2451
B( 18-C , 21-H ) :   0.9981 B( 19-C , 20-C ) :   1.6115 B( 19-C , 22-C ) :   1.0449
B( 22-C , 23-H ) :   0.9335 B( 22-C , 24-H ) :   0.9332 B( 22-C , 25-C ) :   1.0698
B( 25-C , 26-H ) :   0.9547 B( 25-C , 27-H ) :   0.9526 B( 25-C , 28-C ) :   1.0952
B( 28-C , 29-H ) :   0.9660 B( 28-C , 30-H ) :   0.9738 B( 28-C , 31-H ) :   0.9695

Dispersion correction           -0.015618125
FINAL SINGLE POINT ENERGY     -1339.866593087733

DIPOLE MOMENT
-------------
                                X             Y             Z
Electronic contribution:     19.09397      -1.54188       8.12044
Nuclear contribution   :    -19.40640       1.66516      -8.33157
                        -----------------------------------------
Total Dipole Moment    :     -0.31243       0.12328      -0.21113
                        -----------------------------------------
Magnitude (a.u.)       :      0.39673
Magnitude (Debye)      :      1.00840

Rotational constants in cm-1:     0.018716     0.008956     0.008490
Rotational constants in MHz :   561.082278   268.503153   254.517930

                             ****ORCA TERMINATED NORMALLY****
TOTAL RUN TIME: 0 days 0 hours 0 minutes 21 seconds 90 msec
