                         Program Version 4.2.1 -  RELEASE  -
|  1> ! wB97X-D3 SP def2-SVP
|  2> %pal
|  3> nprocs 24
|  4> end
|  5>
|  6> * xyz 0 1
|  7> S 	 -35.7149 	 -10.5226 	 5.8544
|  8> C 	 -34.8152 	 -9.9767 	 7.3336
|  9> C 	 -35.2332 	 -8.7379 	 7.72532
| 10> C 	 -36.1668 	 -8.16882 	 6.80276
| 11> C 	 -36.674 	 -9.03124 	 5.81813
| 12> H 	 -36.556 	 -7.21769 	 6.9959
| 13> C 	 -34.725 	 -7.97422 	 8.91961
| 14> H 	 -35.0621 	 -6.93274 	 8.74364
| 15> H 	 -33.6404 	 -7.93248 	 8.91913
| 16> C 	 -35.2412 	 -8.49847 	 10.2735
| 17> H 	 -35.0855 	 -9.5863 	 10.4022
| 18> H 	 -34.7305 	 -8.07886 	 11.1547
| 19> C 	 -36.7259 	 -8.34301 	 10.5335
| 20> H 	 -37.4657 	 -9.15118 	 10.3112
| 21> H 	 -36.8553 	 -8.21036 	 11.5898
| 22> H 	 -37.0033 	 -7.39333 	 9.95655
| 23> S 	 -38.8502 	 -10.0322 	 4.42014
| 24> C 	 -39.8738 	 -8.86053 	 3.58148
| 25> C 	 -39.4056 	 -7.60074 	 3.63285
| 26> C 	 -38.1806 	 -7.47154 	 4.34974
| 27> C 	 -37.7499 	 -8.71049 	 4.87008
| 28> H 	 -39.9954 	 -6.78693 	 3.24209
| 29> C 	 -37.4875 	 -6.16466 	 4.54201
| 30> H 	 -37.56 	 -5.97422 	 5.59076
| 31> H 	 -37.9815 	 -5.2808 	 4.10829
| 32> C 	 -36.0543 	 -6.16497 	 3.97161
| 33> H 	 -36.0886 	 -5.9746 	 2.88977
| 34> H 	 -35.4253 	 -7.01243 	 4.14901
| 35> C 	 -35.1453 	 -5.02062 	 4.54094
| 36> H 	 -35.6194 	 -4.03008 	 4.58063
| 37> H 	 -34.2996 	 -4.99503 	 3.90283
| 38> H 	 -34.6564 	 -5.13197 	 5.48497
| 39> H 	 -34.1221 	 -10.5025 	 7.98883
| 40> H 	 -40.665 	 -9.07305 	 2.93657
| 41> *
| 42>
| 43>                          ****END OF INPUT****

CARTESIAN COORDINATES (ANGSTROEM)
---------------------------------
  S    -35.714900  -10.522600    5.854400
  C    -34.815200   -9.976700    7.333600
  C    -35.233200   -8.737900    7.725320
  C    -36.166800   -8.168820    6.802760
  C    -36.674000   -9.031240    5.818130
  H    -36.556000   -7.217690    6.995900
  C    -34.725000   -7.974220    8.919610
  H    -35.062100   -6.932740    8.743640
  H    -33.640400   -7.932480    8.919130
  C    -35.241200   -8.498470   10.273500
  H    -35.085500   -9.586300   10.402200
  H    -34.730500   -8.078860   11.154700
  C    -36.725900   -8.343010   10.533500
  H    -37.465700   -9.151180   10.311200
  H    -36.855300   -8.210360   11.589800
  H    -37.003300   -7.393330    9.956550
  S    -38.850200  -10.032200    4.420140
  C    -39.873800   -8.860530    3.581480
  C    -39.405600   -7.600740    3.632850
  C    -38.180600   -7.471540    4.349740
  C    -37.749900   -8.710490    4.870080
  H    -39.995400   -6.786930    3.242090
  C    -37.487500   -6.164660    4.542010
  H    -37.560000   -5.974220    5.590760
  H    -37.981500   -5.280800    4.108290
  C    -36.054300   -6.164970    3.971610
  H    -36.088600   -5.974600    2.889770
  H    -35.425300   -7.012430    4.149010
  C    -35.145300   -5.020620    4.540940
  H    -35.619400   -4.030080    4.580630
  H    -34.299600   -4.995030    3.902830
  H    -34.656400   -5.131970    5.484970
  H    -34.122100  -10.502500    7.988830
  H    -40.665000   -9.073050    2.936570

 Total Charge           Charge          ....    0
 Multiplicity           Mult            ....    1
 Number of Electrons    NEL             ....  134
 Basis Dimension        Dim             ....  322

ORBITAL ENERGIES
----------------

  NO   OCC          E(Eh)            E(eV)
   0   2.0000     -88.970087     -2420.9991
   1   2.0000     -88.967980     -2420.9418
   2   2.0000     -10.337687      -281.3028
   3   2.0000     -10.333232      -281.1815
   4   2.0000     -10.316238      -280.7191
   5   2.0000     -10.310707      -280.5686
   6   2.0000     -10.305793      -280.4349
   7   2.0000     -10.297866      -280.2192
   8   2.0000     -10.297617      -280.2124
   9   2.0000     -10.292353      -280.0692
  10   2.0000     -10.290674      -280.0235
  11   2.0000     -10.290053      -280.0066
  12   2.0000     -10.289801      -279.9997
  13   2.0000     -10.286165      -279.9008
  14   2.0000     -10.279555      -279.7209
  15   2.0000     -10.270332      -279.4699
  16   2.0000      -8.083034      -219.9505
  17   2.0000      -8.081966      -219.9215
  18   2.0000      -6.041891      -164.4082
  19   2.0000      -6.040524      -164.3710
  20   2.0000      -6.037765      -164.2959
  21   2.0000      -6.036709      -164.2672
  22   2.0000      -6.033536      -164.1809
  23   2.0000      -6.032596      -164.1553
  24   2.0000      -1.001229       -27.2448
  25   2.0000      -0.979874       -26.6637
  26   2.0000      -0.912974       -24.8433
  27   2.0000      -0.907710       -24.7000
  28   2.0000      -0.869606       -23.6632
  29   2.0000      -0.850071       -23.1316
  30   2.0000      -0.844378       -22.9767
  31   2.0000      -0.816007       -22.2047
  32   2.0000      -0.784645       -21.3513
  33   2.0000      -0.774076       -21.0637
  34   2.0000      -0.714106       -19.4318
  35   2.0000      -0.699954       -19.0467
  36   2.0000      -0.693410       -18.8687
  37   2.0000      -0.663559       -18.0563
  38   2.0000      -0.630890       -17.1674
  39   2.0000      -0.619847       -16.8669
  40   2.0000      -0.598274       -16.2799
  41   2.0000      -0.572851       -15.5881
  42   2.0000      -0.563704       -15.3392
  43   2.0000      -0.558475       -15.1969
  44   2.0000      -0.540581       -14.7100
  45   2.0000      -0.528490       -14.3810
  46   2.0000      -0.511246       -13.9117
  47   2.0000      -0.505656       -13.7596
  48   2.0000      -0.504371       -13.7246
  49   2.0000      -0.498490       -13.5646
  50   2.0000      -0.492589       -13.4040
  51   2.0000      -0.484057       -13.1719
  52   2.0000      -0.467729       -12.7276
  53   2.0000      -0.466208       -12.6862
  54   2.0000      -0.459340       -12.4993
  55   2.0000      -0.446678       -12.1547
  56   2.0000      -0.444222       -12.0879
  57   2.0000      -0.436885       -11.8882
  58   2.0000      -0.429115       -11.6768
  59   2.0000      -0.426132       -11.5956
  60   2.0000      -0.420385       -11.4393
  61   2.0000      -0.413660       -11.2563
  62   2.0000      -0.404934       -11.0188
  63   2.0000      -0.353562        -9.6209
  64   2.0000      -0.332823        -9.0566
  65   2.0000      -0.332271        -9.0416
  66   2.0000      -0.284916        -7.7530
  67   0.0000       0.017616         0.4794
  68   0.0000       0.076287         2.0759
  69   0.0000       0.099472         2.7068
  70   0.0000       0.116762         3.1773
  71   0.0000       0.134246         3.6530

MULLIKEN ATOMIC CHARGES
-----------------------
   0 S :    0.100672
   1 C :   -0.109627
   2 C :   -0.096807
   3 C :    0.030598
   4 C :   -0.109489
   5 H :   -0.027943
   6 C :    0.068992
   7 H :    0.023016
   8 H :    0.036540
   9 C :   -0.072278
  10 H :    0.026474
  11 H :    0.033511
  12 C :   -0.078403
  13 H :    0.053659
  14 H :    0.025527
  15 H :    0.027347
  16 S :    0.101178
  17 C :   -0.052342
  18 C :   -0.037009
  19 C :   -0.037927
  20 C :   -0.147028
  21 H :    0.016204
  22 C :    0.080058
  23 H :    0.030664
  24 H :    0.018488
  25 C :   -0.074071
  26 H :    0.037716
  27 H :    0.049752
  28 C :   -0.054043
  29 H :    0.023734
  30 H :    0.016334
  31 H :    0.020771
  32 H :    0.042527
  33 H :    0.033207
Sum of atomic charges:   -0.0000000

LOEWDIN ATOMIC CHARGES
----------------------
   0 S :    0.372499
   1 C :   -0.180918
   2 C :   -0.063507
   3 C :   -0.060590
   4 C :   -0.181505
   5 H :    0.014190
   6 C :   -0.030682
   7 H :    0.031314
   8 H :    0.034055
   9 C :   -0.049369
  10 H :    0.027000
  11 H :    0.027955
  12 C :   -0.075614
  13 H :    0.032524
  14 H :    0.023539
  15 H :    0.028419
  16 S :    0.387936
  17 C :   -0.168314
  18 C :   -0.068858
  19 C :   -0.047833
  20 C :   -0.186575
  21 H :    0.033956
  22 C :   -0.034588
  23 H :    0.027610
  24 H :    0.035164
  25 C :   -0.030189
  26 H :    0.029954
  27 H :    0.026904
  28 C :   -0.068859
  29 H :    0.020768
  30 H :    0.022363
  31 H :    0.018778
  32 H :    0.032749
  33 H :    0.019723

  Mayer bond orders larger than 0.100000
B(  0-S ,  1-C ) :   1.1091 B(  0-S ,  4-C ) :   1.1328 B(  1-C ,  2-C ) :   1.6436
B(  1-C , 32-H ) :   0.9594 B(  2-C ,  3-C ) :   1.2567 B(  2-C ,  6-C ) :   1.0100
B(  3-C ,  4-C ) :   1.5513 B(  3-C ,  5-H ) :   0.9924 B(  4-C , 20-C ) :   1.0756
B(  6-C ,  7-H ) :   0.9437 B(  6-C ,  8-H ) :   0.9400 B(  6-C ,  9-C ) :   1.0755
B(  9-C , 10-H ) :   0.9548 B(  9-C , 11-H ) :   0.9609 B(  9-C , 12-C ) :   1.0601
B( 12-C , 13-H ) :   0.9760 B( 12-C , 14-H ) :   0.9754 B( 12-C , 15-H ) :   0.9776
B( 16-S , 17-C ) :   1.1370 B( 16-S , 20-C ) :   1.1292 B( 17-C , 18-C ) :   1.6416
B( 17-C , 33-H ) :   0.9652 B( 18-C , 19-C ) :   1.2488 B( 18-C , 21-H ) :   0.9889
B( 19-C , 20-C ) :   1.5727 B( 19-C , 22-C ) :   1.0388 B( 22-C , 23-H ) :   0.9349
B( 22-C , 24-H ) :   0.9292 B( 22-C , 25-C ) :   1.0521 B( 25-C , 26-H ) :   0.9586
B( 25-C , 27-H ) :   0.9636 B( 25-C , 28-C ) :   1.0731 B( 28-C , 29-H ) :   0.9751
B( 28-C , 30-H ) :   0.9730 B( 28-C , 31-H ) :   0.9772

Dispersion correction           -0.014970927
FINAL SINGLE POINT ENERGY     -1339.864515072347

DIPOLE MOMENT
-------------
                                X             Y             Z
Electronic contribution:     -8.99641     -21.07149     -14.13050
Nuclear contribution   :      9.06321      21.74174      14.44093
                        -----------------------------------------
Total Dipole Moment    :      0.06680       0.67025       0.31042
                        -----------------------------------------
Magnitude (a.u.)       :      0.74166
Magnitude (Debye)      :      1.88514

Rotational constants in cm-1:     0.017675     0.009287     0.007687
Rotational constants in MHz :   529.880092   278.420383   230.444573

                             ****ORCA TERMINATED NORMALLY****
TOTAL RUN TIME: 0 days 0 hours 0 minutes 22 seconds 297 msec
