                         Program Version 4.2.1 -  RELEASE  -
|  1> ! wB97X-D3 SP def2-SVP
|  2> %pal
|  3> nprocs 24
|  4> end
|  5>
|  6> * xyz 0 1
|  7> S 	 -54.4839 	 -48.1588 	 -80.1498
|  8> C 	 -55.3498 	 -46.6151 	 -80.456
|  9> C 	 -54.5594 	 -45.4951 	 -80.2074
| 10> C 	 -53.2724 	 -45.901 	 -79.7037
| 11> C 	 -53.0513 	 -47.255 	 -79.5137
| 12> H 	 -52.4468 	 -45.1727 	 -79.3877
| 13> C 	 -54.9856 	 -44.0592 	 -80.4528
| 14> H 	 -54.5789 	 -43.3983 	 -79.6629
| 15> H 	 -56.0825 	 -44.0149 	 -80.3206
| 16> C 	 -54.3961 	 -43.5987 	 -81.8403
| 17> H 	 -53.3822 	 -43.8615 	 -81.9413
| 18> H 	 -54.9114 	 -44.0102 	 -82.721
| 19> C 	 -54.3802 	 -42.032 	 -81.9439
| 20> H 	 -53.8111 	 -41.5879 	 -81.1493
| 21> H 	 -53.879 	 -41.8109 	 -82.8925
| 22> H 	 -55.342 	 -41.5475 	 -82.0016
| 23> S 	 -52.1852 	 -49.3107 	 -78.0077
| 24> C 	 -50.6201 	 -49.3137 	 -77.2309
| 25> C 	 -49.8926 	 -48.2778 	 -77.8094
| 26> C 	 -50.5732 	 -47.4049 	 -78.7214
| 27> C 	 -51.8437 	 -47.8574 	 -78.9236
| 28> H 	 -48.853 	 -48.2211 	 -77.484
| 29> C 	 -49.853 	 -46.2331 	 -79.4882
| 30> H 	 -50.3791 	 -46.0591 	 -80.4372
| 31> H 	 -48.9016 	 -46.6295 	 -79.8139
| 32> C 	 -49.7195 	 -44.9155 	 -78.7028
| 33> H 	 -50.6956 	 -44.4228 	 -78.7305
| 34> H 	 -49.0951 	 -44.2353 	 -79.2962
| 35> C 	 -49.3596 	 -45.0091 	 -77.2297
| 36> H 	 -49.0202 	 -43.9958 	 -76.905
| 37> H 	 -48.451 	 -45.6283 	 -77.1539
| 38> H 	 -50.1452 	 -45.2697 	 -76.5208
| 39> H 	 -56.2993 	 -46.6226 	 -80.9144
| 40> H 	 -50.1958 	 -50.0877 	 -76.5497
| 41> *
| 42>
| 43>                          ****END OF INPUT****

CARTESIAN COORDINATES (ANGSTROEM)
---------------------------------
  S    -54.483900  -48.158800  -80.149800
  C    -55.349800  -46.615100  -80.456000
  C    -54.559400  -45.495100  -80.207400
  C    -53.272400  -45.901000  -79.703700
  C    -53.051300  -47.255000  -79.513700
  H    -52.446800  -45.172700  -79.387700
  C    -54.985600  -44.059200  -80.452800
  H    -54.578900  -43.398300  -79.662900
  H    -56.082500  -44.014900  -80.320600
  C    -54.396100  -43.598700  -81.840300
  H    -53.382200  -43.861500  -81.941300
  H    -54.911400  -44.010200  -82.721000
  C    -54.380200  -42.032000  -81.943900
  H    -53.811100  -41.587900  -81.149300
  H    -53.879000  -41.810900  -82.892500
  H    -55.342000  -41.547500  -82.001600
  S    -52.185200  -49.310700  -78.007700
  C    -50.620100  -49.313700  -77.230900
  C    -49.892600  -48.277800  -77.809400
  C    -50.573200  -47.404900  -78.721400
  C    -51.843700  -47.857400  -78.923600
  H    -48.853000  -48.221100  -77.484000
  C    -49.853000  -46.233100  -79.488200
  H    -50.379100  -46.059100  -80.437200
  H    -48.901600  -46.629500  -79.813900
  C    -49.719500  -44.915500  -78.702800
  H    -50.695600  -44.422800  -78.730500
  H    -49.095100  -44.235300  -79.296200
  C    -49.359600  -45.009100  -77.229700
  H    -49.020200  -43.995800  -76.905000
  H    -48.451000  -45.628300  -77.153900
  H    -50.145200  -45.269700  -76.520800
  H    -56.299300  -46.622600  -80.914400
  H    -50.195800  -50.087700  -76.549700

 Total Charge           Charge          ....    0
 Multiplicity           Mult            ....    1
 Number of Electrons    NEL             ....  134
 Basis Dimension        Dim             ....  322

ORBITAL ENERGIES
----------------

  NO   OCC          E(Eh)            E(eV)
   0   2.0000     -88.965745     -2420.8810
   1   2.0000     -88.961762     -2420.7726
   2   2.0000     -10.336072      -281.2588
   3   2.0000     -10.329292      -281.0743
   4   2.0000     -10.320880      -280.8454
   5   2.0000     -10.315534      -280.7000
   6   2.0000     -10.307513      -280.4817
   7   2.0000     -10.305744      -280.4335
   8   2.0000     -10.302201      -280.3371
   9   2.0000     -10.299816      -280.2723
  10   2.0000     -10.299690      -280.2688
  11   2.0000     -10.295787      -280.1626
  12   2.0000     -10.291496      -280.0458
  13   2.0000     -10.291402      -280.0433
  14   2.0000     -10.282397      -279.7982
  15   2.0000     -10.277116      -279.6545
  16   2.0000      -8.078738      -219.8336
  17   2.0000      -8.076848      -219.7822
  18   2.0000      -6.037505      -164.2889
  19   2.0000      -6.035399      -164.2316
  20   2.0000      -6.033621      -164.1832
  21   2.0000      -6.031244      -164.1185
  22   2.0000      -6.029207      -164.0631
  23   2.0000      -6.027572      -164.0186
  24   2.0000      -1.003310       -27.3014
  25   2.0000      -0.975705       -26.5503
  26   2.0000      -0.907980       -24.7074
  27   2.0000      -0.905156       -24.6305
  28   2.0000      -0.866309       -23.5735
  29   2.0000      -0.848823       -23.0976
  30   2.0000      -0.838613       -22.8198
  31   2.0000      -0.812169       -22.1002
  32   2.0000      -0.786592       -21.4043
  33   2.0000      -0.771465       -20.9926
  34   2.0000      -0.707379       -19.2488
  35   2.0000      -0.703749       -19.1500
  36   2.0000      -0.691892       -18.8273
  37   2.0000      -0.662595       -18.0301
  38   2.0000      -0.637309       -17.3421
  39   2.0000      -0.613709       -16.6999
  40   2.0000      -0.588479       -16.0133
  41   2.0000      -0.565262       -15.3816
  42   2.0000      -0.560239       -15.2449
  43   2.0000      -0.554458       -15.0876
  44   2.0000      -0.542989       -14.7755
  45   2.0000      -0.525640       -14.3034
  46   2.0000      -0.520125       -14.1533
  47   2.0000      -0.503569       -13.7028
  48   2.0000      -0.502130       -13.6637
  49   2.0000      -0.497131       -13.5276
  50   2.0000      -0.492752       -13.4085
  51   2.0000      -0.483213       -13.1489
  52   2.0000      -0.469154       -12.7663
  53   2.0000      -0.464198       -12.6315
  54   2.0000      -0.458477       -12.4758
  55   2.0000      -0.446471       -12.1491
  56   2.0000      -0.445501       -12.1227
  57   2.0000      -0.434145       -11.8137
  58   2.0000      -0.431823       -11.7505
  59   2.0000      -0.430358       -11.7106
  60   2.0000      -0.421060       -11.4576
  61   2.0000      -0.414144       -11.2694
  62   2.0000      -0.408719       -11.1218
  63   2.0000      -0.356795        -9.7089
  64   2.0000      -0.332135        -9.0379
  65   2.0000      -0.326881        -8.8949
  66   2.0000      -0.285856        -7.7785
  67   0.0000       0.023307         0.6342
  68   0.0000       0.077787         2.1167
  69   0.0000       0.103308         2.8111
  70   0.0000       0.119525         3.2524
  71   0.0000       0.129202         3.5158

MULLIKEN ATOMIC CHARGES
-----------------------
   0 S :    0.088477
   1 C :   -0.119158
   2 C :   -0.075408
   3 C :   -0.022838
   4 C :   -0.093855
   5 H :    0.011818
   6 C :    0.061774
   7 H :    0.029714
   8 H :    0.037601
   9 C :   -0.060451
  10 H :    0.023646
  11 H :    0.037934
  12 C :   -0.054541
  13 H :    0.029182
  14 H :    0.029016
  15 H :    0.032298
  16 S :    0.087418
  17 C :   -0.108480
  18 C :   -0.056765
  19 C :   -0.058363
  20 C :   -0.127075
  21 H :    0.020534
  22 C :    0.061968
  23 H :    0.031992
  24 H :    0.027144
  25 C :   -0.070119
  26 H :    0.022628
  27 H :    0.032576
  28 C :   -0.050498
  29 H :    0.029074
  30 H :    0.029855
  31 H :    0.057924
  32 H :    0.036665
  33 H :    0.078312
Sum of atomic charges:    0.0000000

LOEWDIN ATOMIC CHARGES
----------------------
   0 S :    0.354606
   1 C :   -0.174430
   2 C :   -0.061183
   3 C :   -0.076216
   4 C :   -0.174779
   5 H :    0.038556
   6 C :   -0.030603
   7 H :    0.033329
   8 H :    0.035630
   9 C :   -0.028450
  10 H :    0.020088
  11 H :    0.028561
  12 C :   -0.065823
  13 H :    0.019730
  14 H :    0.027198
  15 H :    0.021296
  16 S :    0.403602
  17 C :   -0.199280
  18 C :   -0.072903
  19 C :   -0.063518
  20 C :   -0.184843
  21 H :    0.028884
  22 C :   -0.026505
  23 H :    0.034321
  24 H :    0.029347
  25 C :   -0.046415
  26 H :    0.019609
  27 H :    0.027946
  28 C :   -0.069692
  29 H :    0.032071
  30 H :    0.024639
  31 H :    0.032831
  32 H :    0.018064
  33 H :    0.044326

  Mayer bond orders larger than 0.100000
B(  0-S ,  1-C ) :   1.1225 B(  0-S ,  4-C ) :   1.1162 B(  1-C ,  2-C ) :   1.6214
B(  1-C , 32-H ) :   0.9724 B(  2-C ,  3-C ) :   1.2319 B(  2-C ,  6-C ) :   1.0290
B(  3-C ,  4-C ) :   1.6125 B(  3-C ,  5-H ) :   0.9687 B(  4-C , 20-C ) :   1.0402
B(  6-C ,  7-H ) :   0.9452 B(  6-C ,  8-H ) :   0.9431 B(  6-C ,  9-C ) :   1.0437
B(  9-C , 10-H ) :   0.9625 B(  9-C , 11-H ) :   0.9580 B(  9-C , 12-C ) :   1.0780
B( 12-C , 13-H ) :   0.9776 B( 12-C , 14-H ) :   0.9755 B( 12-C , 15-H ) :   0.9776
B( 16-S , 17-C ) :   1.1444 B( 16-S , 20-C ) :   1.1437 B( 17-C , 18-C ) :   1.6167
B( 17-C , 33-H ) :   0.9640 B( 18-C , 19-C ) :   1.2295 B( 18-C , 21-H ) :   0.9848
B( 19-C , 20-C ) :   1.6166 B( 19-C , 22-C ) :   1.0085 B( 22-C , 23-H ) :   0.9437
B( 22-C , 24-H ) :   0.9408 B( 22-C , 25-C ) :   1.0699 B( 25-C , 26-H ) :   0.9447
B( 25-C , 27-H ) :   0.9505 B( 25-C , 28-C ) :   1.0876 B( 28-C , 29-H ) :   0.9683
B( 28-C , 30-H ) :   0.9756 B( 28-C , 31-H ) :   0.9694

Dispersion correction           -0.014458917
FINAL SINGLE POINT ENERGY     -1339.880950371396

DIPOLE MOMENT
-------------
                                X             Y             Z
Electronic contribution:     -8.12295     -29.81337       4.87278
Nuclear contribution   :      8.53209      30.56503      -4.97520
                        -----------------------------------------
Total Dipole Moment    :      0.40914       0.75166      -0.10241
                        -----------------------------------------
Magnitude (a.u.)       :      0.86191
Magnitude (Debye)      :      2.19079

Rotational constants in cm-1:     0.018376     0.009152     0.006452
Rotational constants in MHz :   550.885106   274.368904   193.438618

                             ****ORCA TERMINATED NORMALLY****
TOTAL RUN TIME: 0 days 0 hours 0 minutes 20 seconds 763 msec
