                         Program Version 4.2.1 -  RELEASE  -
|  1> ! wB97X-D3 SP def2-SVP
|  2> %pal
|  3> nprocs 24
|  4> end
|  5>
|  6> * xyz 0 1
|  7> S 	 -45.723 	 26.7524 	 28.2353
|  8> C 	 -46.8879 	 26.5708 	 26.9426
|  9> C 	 -48.2131 	 26.5201 	 27.3589
| 10> C 	 -48.2848 	 26.6376 	 28.7666
| 11> C 	 -47.0269 	 26.746 	 29.3941
| 12> H 	 -49.2043 	 26.616 	 29.3639
| 13> C 	 -49.3211 	 26.4907 	 26.3757
| 14> H 	 -49.8413 	 25.4956 	 26.4453
| 15> H 	 -48.9817 	 26.4073 	 25.3257
| 16> C 	 -50.1901 	 27.6818 	 26.5565
| 17> H 	 -50.5515 	 27.6434 	 27.5454
| 18> H 	 -49.6549 	 28.6499 	 26.5706
| 19> C 	 -51.3666 	 27.7913 	 25.5193
| 20> H 	 -52.3457 	 28.1404 	 25.8848
| 21> H 	 -51.0483 	 28.4938 	 24.6666
| 22> H 	 -51.53 	 26.812 	 25.0159
| 23> S 	 -46.2548 	 28.1416 	 31.64
| 24> C 	 -46.7456 	 27.5797 	 33.206
| 25> C 	 -47.192 	 26.2883 	 33.1313
| 26> C 	 -47.3516 	 25.8289 	 31.7857
| 27> C 	 -46.936 	 26.7586 	 30.8583
| 28> H 	 -47.457 	 25.6884 	 33.9942
| 29> C 	 -47.958 	 24.511 	 31.4267
| 30> H 	 -48.0477 	 24.3754 	 30.3546
| 31> H 	 -48.9298 	 24.5958 	 31.791
| 32> C 	 -47.3646 	 23.3198 	 32.1038
| 33> H 	 -47.3514 	 23.5612 	 33.153
| 34> H 	 -46.365 	 23.329 	 31.8321
| 35> C 	 -47.9899 	 21.931 	 31.818
| 36> H 	 -47.9702 	 21.6675 	 30.7206
| 37> H 	 -49.0375 	 22.0946 	 32.1544
| 38> H 	 -47.5513 	 21.0757 	 32.347
| 39> H 	 -46.5847 	 26.4913 	 25.9085
| 40> H 	 -46.6152 	 28.037 	 34.1393
| 41> *
| 42>
| 43>                          ****END OF INPUT****

CARTESIAN COORDINATES (ANGSTROEM)
---------------------------------
  S    -45.723000   26.752400   28.235300
  C    -46.887900   26.570800   26.942600
  C    -48.213100   26.520100   27.358900
  C    -48.284800   26.637600   28.766600
  C    -47.026900   26.746000   29.394100
  H    -49.204300   26.616000   29.363900
  C    -49.321100   26.490700   26.375700
  H    -49.841300   25.495600   26.445300
  H    -48.981700   26.407300   25.325700
  C    -50.190100   27.681800   26.556500
  H    -50.551500   27.643400   27.545400
  H    -49.654900   28.649900   26.570600
  C    -51.366600   27.791300   25.519300
  H    -52.345700   28.140400   25.884800
  H    -51.048300   28.493800   24.666600
  H    -51.530000   26.812000   25.015900
  S    -46.254800   28.141600   31.640000
  C    -46.745600   27.579700   33.206000
  C    -47.192000   26.288300   33.131300
  C    -47.351600   25.828900   31.785700
  C    -46.936000   26.758600   30.858300
  H    -47.457000   25.688400   33.994200
  C    -47.958000   24.511000   31.426700
  H    -48.047700   24.375400   30.354600
  H    -48.929800   24.595800   31.791000
  C    -47.364600   23.319800   32.103800
  H    -47.351400   23.561200   33.153000
  H    -46.365000   23.329000   31.832100
  C    -47.989900   21.931000   31.818000
  H    -47.970200   21.667500   30.720600
  H    -49.037500   22.094600   32.154400
  H    -47.551300   21.075700   32.347000
  H    -46.584700   26.491300   25.908500
  H    -46.615200   28.037000   34.139300

 Total Charge           Charge          ....    0
 Multiplicity           Mult            ....    1
 Number of Electrons    NEL             ....  134
 Basis Dimension        Dim             ....  322

ORBITAL ENERGIES
----------------

  NO   OCC          E(Eh)            E(eV)
   0   2.0000     -88.971209     -2421.0297
   1   2.0000     -88.962187     -2420.7842
   2   2.0000     -10.330177      -281.0984
   3   2.0000     -10.320977      -280.8481
   4   2.0000     -10.312299      -280.6119
   5   2.0000     -10.312233      -280.6101
   6   2.0000     -10.298983      -280.2496
   7   2.0000     -10.298414      -280.2341
   8   2.0000     -10.297204      -280.2012
   9   2.0000     -10.294712      -280.1333
  10   2.0000     -10.291813      -280.0545
  11   2.0000     -10.288930      -279.9760
  12   2.0000     -10.286431      -279.9080
  13   2.0000     -10.284296      -279.8499
  14   2.0000     -10.276762      -279.6449
  15   2.0000     -10.274217      -279.5757
  16   2.0000      -8.085687      -220.0227
  17   2.0000      -8.077789      -219.8078
  18   2.0000      -6.044092      -164.4681
  19   2.0000      -6.040215      -164.3626
  20   2.0000      -6.036621      -164.2648
  21   2.0000      -6.036343      -164.2572
  22   2.0000      -6.032129      -164.1426
  23   2.0000      -6.028503      -164.0439
  24   2.0000      -1.009233       -27.4626
  25   2.0000      -0.987849       -26.8807
  26   2.0000      -0.918973       -25.0065
  27   2.0000      -0.917027       -24.9536
  28   2.0000      -0.868573       -23.6351
  29   2.0000      -0.850137       -23.1334
  30   2.0000      -0.845534       -23.0082
  31   2.0000      -0.813694       -22.1417
  32   2.0000      -0.781577       -21.2678
  33   2.0000      -0.770644       -20.9703
  34   2.0000      -0.712158       -19.3788
  35   2.0000      -0.703939       -19.1552
  36   2.0000      -0.693842       -18.8804
  37   2.0000      -0.659695       -17.9512
  38   2.0000      -0.642752       -17.4902
  39   2.0000      -0.621940       -16.9238
  40   2.0000      -0.600931       -16.3522
  41   2.0000      -0.572652       -15.5827
  42   2.0000      -0.569314       -15.4918
  43   2.0000      -0.555608       -15.1189
  44   2.0000      -0.527075       -14.3424
  45   2.0000      -0.521668       -14.1953
  46   2.0000      -0.517413       -14.0795
  47   2.0000      -0.516067       -14.0429
  48   2.0000      -0.501075       -13.6349
  49   2.0000      -0.498752       -13.5717
  50   2.0000      -0.494358       -13.4522
  51   2.0000      -0.474642       -12.9157
  52   2.0000      -0.468195       -12.7402
  53   2.0000      -0.467841       -12.7306
  54   2.0000      -0.458713       -12.4822
  55   2.0000      -0.457123       -12.4389
  56   2.0000      -0.452150       -12.3036
  57   2.0000      -0.443629       -12.0718
  58   2.0000      -0.429736       -11.6937
  59   2.0000      -0.427072       -11.6212
  60   2.0000      -0.423912       -11.5352
  61   2.0000      -0.413355       -11.2480
  62   2.0000      -0.405186       -11.0257
  63   2.0000      -0.341407        -9.2902
  64   2.0000      -0.334990        -9.1155
  65   2.0000      -0.325336        -8.8528
  66   2.0000      -0.295700        -8.0464
  67   0.0000       0.038576         1.0497
  68   0.0000       0.065353         1.7783
  69   0.0000       0.120454         3.2777
  70   0.0000       0.126117         3.4318
  71   0.0000       0.128527         3.4974

MULLIKEN ATOMIC CHARGES
-----------------------
   0 S :    0.130837
   1 C :   -0.129614
   2 C :   -0.069809
   3 C :    0.001363
   4 C :   -0.155795
   5 H :    0.028113
   6 C :    0.076939
   7 H :    0.038751
   8 H :    0.013569
   9 C :   -0.071592
  10 H :    0.016067
  11 H :    0.040673
  12 C :   -0.077749
  13 H :    0.043944
  14 H :    0.044271
  15 H :    0.031666
  16 S :    0.109442
  17 C :   -0.056810
  18 C :   -0.049900
  19 C :   -0.044138
  20 C :   -0.188268
  21 H :    0.020064
  22 C :    0.128882
  23 H :    0.025021
  24 H :    0.000123
  25 C :   -0.071418
  26 H :    0.013741
  27 H :    0.009970
  28 C :   -0.057638
  29 H :    0.043681
  30 H :    0.030715
  31 H :    0.046342
  32 H :    0.043422
  33 H :    0.035136
Sum of atomic charges:   -0.0000000

LOEWDIN ATOMIC CHARGES
----------------------
   0 S :    0.414589
   1 C :   -0.194738
   2 C :   -0.063798
   3 C :   -0.058514
   4 C :   -0.202371
   5 H :    0.034790
   6 C :   -0.037644
   7 H :    0.038257
   8 H :    0.029532
   9 C :   -0.043967
  10 H :    0.017259
  11 H :    0.033754
  12 C :   -0.075990
  13 H :    0.027382
  14 H :    0.034473
  15 H :    0.025468
  16 S :    0.416673
  17 C :   -0.178649
  18 C :   -0.071742
  19 C :   -0.051001
  20 C :   -0.209062
  21 H :    0.030110
  22 C :   -0.027791
  23 H :    0.029619
  24 H :    0.022077
  25 C :   -0.038928
  26 H :    0.019450
  27 H :    0.013659
  28 C :   -0.067752
  29 H :    0.031977
  30 H :    0.027785
  31 H :    0.029418
  32 H :    0.023804
  33 H :    0.021870

  Mayer bond orders larger than 0.100000
B(  0-S ,  1-C ) :   1.1462 B(  0-S ,  4-C ) :   1.1644 B(  1-C ,  2-C ) :   1.5949
B(  1-C , 32-H ) :   0.9666 B(  2-C ,  3-C ) :   1.2532 B(  2-C ,  6-C ) :   1.0309
B(  3-C ,  4-C ) :   1.5443 B(  3-C ,  5-H ) :   0.9921 B(  4-C , 20-C ) :   1.0276
B(  6-C ,  7-H ) :   0.9227 B(  6-C ,  8-H ) :   0.9390 B(  6-C ,  9-C ) :   1.0593
B(  9-C , 10-H ) :   0.9576 B(  9-C , 11-H ) :   0.9596 B(  9-C , 12-C ) :   1.0562
B( 12-C , 13-H ) :   0.9783 B( 12-C , 14-H ) :   0.9787 B( 12-C , 15-H ) :   0.9781
B( 16-S , 17-C ) :   1.1596 B( 16-S , 20-C ) :   1.1373 B( 17-C , 18-C ) :   1.6101
B( 17-C , 33-H ) :   0.9725 B( 18-C , 19-C ) :   1.2379 B( 18-C , 21-H ) :   0.9867
B( 19-C , 20-C ) :   1.6087 B( 19-C , 22-C ) :   1.0445 B( 22-C , 23-H ) :   0.9291
B( 22-C , 24-H ) :   0.9128 B( 22-C , 25-C ) :   1.0607 B( 25-C , 26-H ) :   0.9523
B( 25-C , 27-H ) :   0.9541 B( 25-C , 28-C ) :   1.0775 B( 28-C , 29-H ) :   0.9751
B( 28-C , 30-H ) :   0.9753 B( 28-C , 31-H ) :   0.9750

Dispersion correction           -0.013777767
FINAL SINGLE POINT ENERGY     -1339.879550895009

DIPOLE MOMENT
-------------
                                X             Y             Z
Electronic contribution:     20.71526      14.18158       6.99056
Nuclear contribution   :    -21.22935     -14.53053      -7.01861
                        -----------------------------------------
Total Dipole Moment    :     -0.51410      -0.34895      -0.02805
                        -----------------------------------------
Magnitude (a.u.)       :      0.62197
Magnitude (Debye)      :      1.58093

Rotational constants in cm-1:     0.017265     0.007922     0.006811
Rotational constants in MHz :   517.597925   237.482913   204.191741

                             ****ORCA TERMINATED NORMALLY****
TOTAL RUN TIME: 0 days 0 hours 0 minutes 21 seconds 373 msec
