                         Program Version 4.2.1 -  RELEASE  -
|  1> ! wB97X-D3 SP def2-SVP
|  2> %pal
|  3> nprocs 24
|  4> end
|  5>
|  6> * xyz 0 1
|  7> S 	 -47.3901 	 0.0748288 	 13.4159
|  8> C 	 -47.9531 	 -0.0512575 	 15.0493
|  9> C 	 -46.9566 	 -0.640954 	 15.8894
| 10> C 	 -45.8244 	 -0.98277 	 15.1289
| 11> C 	 -45.8763 	 -0.691812 	 13.7745
| 12> H 	 -45.0287 	 -1.52254 	 15.5748
| 13> C 	 -47.0675 	 -0.683928 	 17.4189
| 14> H 	 -46.9416 	 -1.75481 	 17.6544
| 15> H 	 -48.0683 	 -0.42138 	 17.7074
| 16> C 	 -46.0644 	 0.244023 	 18.1472
| 17> H 	 -45.0406 	 -0.0845913 	 17.8415
| 18> H 	 -46.2352 	 1.24674 	 17.7571
| 19> C 	 -46.2417 	 0.310826 	 19.6577
| 20> H 	 -45.5002 	 0.891593 	 20.1315
| 21> H 	 -47.2491 	 0.729465 	 19.9542
| 22> H 	 -46.1325 	 -0.651689 	 20.0171
| 23> S 	 -43.2953 	 -0.412168 	 12.8817
| 24> C 	 -42.8358 	 -1.18353 	 11.388
| 25> C 	 -43.7236 	 -2.21164 	 11.0806
| 26> C 	 -44.9207 	 -2.07487 	 11.8279
| 27> C 	 -44.9305 	 -0.970933 	 12.7154
| 28> H 	 -43.6513 	 -2.96874 	 10.272
| 29> C 	 -46.1192 	 -2.92274 	 11.544
| 30> H 	 -46.18 	 -3.32748 	 10.4804
| 31> H 	 -47.0654 	 -2.36367 	 11.6105
| 32> C 	 -46.1741 	 -4.14615 	 12.446
| 33> H 	 -46.1956 	 -3.74323 	 13.5148
| 34> H 	 -45.2512 	 -4.78184 	 12.5064
| 35> C 	 -47.3314 	 -5.10715 	 12.0867
| 36> H 	 -47.6359 	 -5.67653 	 12.9759
| 37> H 	 -46.9521 	 -5.79716 	 11.3902
| 38> H 	 -48.2182 	 -4.7045 	 11.6145
| 39> H 	 -48.9045 	 0.112982 	 15.3235
| 40> H 	 -41.8058 	 -1.12624 	 11.0801
| 41> *
| 42>
| 43>                          ****END OF INPUT****

CARTESIAN COORDINATES (ANGSTROEM)
---------------------------------
  S    -47.390100    0.074829   13.415900
  C    -47.953100   -0.051257   15.049300
  C    -46.956600   -0.640954   15.889400
  C    -45.824400   -0.982770   15.128900
  C    -45.876300   -0.691812   13.774500
  H    -45.028700   -1.522540   15.574800
  C    -47.067500   -0.683928   17.418900
  H    -46.941600   -1.754810   17.654400
  H    -48.068300   -0.421380   17.707400
  C    -46.064400    0.244023   18.147200
  H    -45.040600   -0.084591   17.841500
  H    -46.235200    1.246740   17.757100
  C    -46.241700    0.310826   19.657700
  H    -45.500200    0.891593   20.131500
  H    -47.249100    0.729465   19.954200
  H    -46.132500   -0.651689   20.017100
  S    -43.295300   -0.412168   12.881700
  C    -42.835800   -1.183530   11.388000
  C    -43.723600   -2.211640   11.080600
  C    -44.920700   -2.074870   11.827900
  C    -44.930500   -0.970933   12.715400
  H    -43.651300   -2.968740   10.272000
  C    -46.119200   -2.922740   11.544000
  H    -46.180000   -3.327480   10.480400
  H    -47.065400   -2.363670   11.610500
  C    -46.174100   -4.146150   12.446000
  H    -46.195600   -3.743230   13.514800
  H    -45.251200   -4.781840   12.506400
  C    -47.331400   -5.107150   12.086700
  H    -47.635900   -5.676530   12.975900
  H    -46.952100   -5.797160   11.390200
  H    -48.218200   -4.704500   11.614500
  H    -48.904500    0.112982   15.323500
  H    -41.805800   -1.126240   11.080100

 Total Charge           Charge          ....    0
 Multiplicity           Mult            ....    1
 Number of Electrons    NEL             ....  134
 Basis Dimension        Dim             ....  322

ORBITAL ENERGIES
----------------

  NO   OCC          E(Eh)            E(eV)
   0   2.0000     -88.966351     -2420.8975
   1   2.0000     -88.965515     -2420.8747
   2   2.0000     -10.327212      -281.0177
   3   2.0000     -10.324402      -280.9413
   4   2.0000     -10.320104      -280.8243
   5   2.0000     -10.306856      -280.4638
   6   2.0000     -10.304231      -280.3924
   7   2.0000     -10.302400      -280.3426
   8   2.0000     -10.300299      -280.2854
   9   2.0000     -10.294436      -280.1259
  10   2.0000     -10.291555      -280.0474
  11   2.0000     -10.289666      -279.9961
  12   2.0000     -10.289456      -279.9903
  13   2.0000     -10.289411      -279.9891
  14   2.0000     -10.273494      -279.5560
  15   2.0000     -10.271856      -279.5114
  16   2.0000      -8.081182      -219.9001
  17   2.0000      -8.080700      -219.8870
  18   2.0000      -6.039501      -164.3432
  19   2.0000      -6.039008      -164.3298
  20   2.0000      -6.035437      -164.2326
  21   2.0000      -6.035331      -164.2297
  22   2.0000      -6.032399      -164.1499
  23   2.0000      -6.031463      -164.1244
  24   2.0000      -1.009135       -27.4600
  25   2.0000      -0.986168       -26.8350
  26   2.0000      -0.910236       -24.7688
  27   2.0000      -0.907019       -24.6812
  28   2.0000      -0.870072       -23.6759
  29   2.0000      -0.852438       -23.1960
  30   2.0000      -0.847298       -23.0562
  31   2.0000      -0.814105       -22.1529
  32   2.0000      -0.783886       -21.3306
  33   2.0000      -0.769004       -20.9257
  34   2.0000      -0.706490       -19.2246
  35   2.0000      -0.696368       -18.9491
  36   2.0000      -0.688202       -18.7269
  37   2.0000      -0.666010       -18.1230
  38   2.0000      -0.644392       -17.5348
  39   2.0000      -0.622896       -16.9499
  40   2.0000      -0.603370       -16.4185
  41   2.0000      -0.567791       -15.4504
  42   2.0000      -0.563869       -15.3437
  43   2.0000      -0.552182       -15.0256
  44   2.0000      -0.529632       -14.4120
  45   2.0000      -0.521048       -14.1784
  46   2.0000      -0.516957       -14.0671
  47   2.0000      -0.509958       -13.8767
  48   2.0000      -0.506068       -13.7708
  49   2.0000      -0.502985       -13.6869
  50   2.0000      -0.492899       -13.4125
  51   2.0000      -0.479807       -13.0562
  52   2.0000      -0.468085       -12.7372
  53   2.0000      -0.464547       -12.6410
  54   2.0000      -0.458575       -12.4785
  55   2.0000      -0.453229       -12.3330
  56   2.0000      -0.448176       -12.1955
  57   2.0000      -0.444981       -12.1086
  58   2.0000      -0.432404       -11.7663
  59   2.0000      -0.428889       -11.6707
  60   2.0000      -0.417376       -11.3574
  61   2.0000      -0.413935       -11.2637
  62   2.0000      -0.399036       -10.8583
  63   2.0000      -0.336704        -9.1622
  64   2.0000      -0.332875        -9.0580
  65   2.0000      -0.323965        -8.8155
  66   2.0000      -0.296396        -8.0654
  67   0.0000       0.029133         0.7928
  68   0.0000       0.055417         1.5080
  69   0.0000       0.105090         2.8597
  70   0.0000       0.126452         3.4409
  71   0.0000       0.130761         3.5582

MULLIKEN ATOMIC CHARGES
-----------------------
   0 S :    0.120346
   1 C :   -0.079743
   2 C :   -0.116145
   3 C :    0.047260
   4 C :   -0.177778
   5 H :   -0.003571
   6 C :    0.083116
   7 H :    0.031419
   8 H :    0.003665
   9 C :   -0.094847
  10 H :    0.033757
  11 H :    0.032925
  12 C :    0.000451
  13 H :    0.027243
  14 H :    0.036420
  15 H :    0.009902
  16 S :    0.104316
  17 C :   -0.080804
  18 C :   -0.018117
  19 C :   -0.031609
  20 C :   -0.132509
  21 H :    0.035179
  22 C :    0.038732
  23 H :    0.024212
  24 H :    0.030126
  25 C :   -0.127297
  26 H :    0.038303
  27 H :    0.031547
  28 C :   -0.017424
  29 H :    0.036317
  30 H :    0.020659
  31 H :    0.028607
  32 H :    0.004213
  33 H :    0.061127
Sum of atomic charges:   -0.0000000

LOEWDIN ATOMIC CHARGES
----------------------
   0 S :    0.436151
   1 C :   -0.191776
   2 C :   -0.055722
   3 C :   -0.067048
   4 C :   -0.204209
   5 H :    0.023770
   6 C :   -0.028520
   7 H :    0.031215
   8 H :    0.023018
   9 C :   -0.038287
  10 H :    0.026315
  11 H :    0.025706
  12 C :   -0.057349
  13 H :    0.023140
  14 H :    0.032954
  15 H :    0.014388
  16 S :    0.424145
  17 C :   -0.180160
  18 C :   -0.068027
  19 C :   -0.046344
  20 C :   -0.218375
  21 H :    0.039601
  22 C :   -0.043425
  23 H :    0.031001
  24 H :    0.029250
  25 C :   -0.049354
  26 H :    0.027883
  27 H :    0.026598
  28 C :   -0.066149
  29 H :    0.031872
  30 H :    0.019699
  31 H :    0.023434
  32 H :   -0.000001
  33 H :    0.024606

  Mayer bond orders larger than 0.100000
B(  0-S ,  1-C ) :   1.1715 B(  0-S ,  4-C ) :   1.1769 B(  1-C ,  2-C ) :   1.5504
B(  1-C ,  4-C ) :   0.1131 B(  1-C , 32-H ) :   0.9829 B(  2-C ,  3-C ) :   1.2948
B(  2-C ,  6-C ) :   1.0273 B(  3-C ,  4-C ) :   1.5384 B(  3-C ,  5-H ) :   0.9990
B(  4-C , 20-C ) :   1.0185 B(  6-C ,  7-H ) :   0.9340 B(  6-C ,  8-H ) :   0.9414
B(  6-C ,  9-C ) :   1.0570 B(  9-C , 10-H ) :   0.9544 B(  9-C , 11-H ) :   0.9569
B(  9-C , 12-C ) :   1.0891 B( 12-C , 13-H ) :   0.9723 B( 12-C , 14-H ) :   0.9729
B( 12-C , 15-H ) :   0.9728 B( 16-S , 17-C ) :   1.1866 B( 16-S , 20-C ) :   1.1499
B( 17-C , 18-C ) :   1.5436 B( 17-C , 20-C ) :   0.1088 B( 17-C , 33-H ) :   0.9690
B( 18-C , 19-C ) :   1.3051 B( 18-C , 21-H ) :   0.9836 B( 19-C , 20-C ) :   1.5344
B( 19-C , 22-C ) :   1.0426 B( 22-C , 23-H ) :   0.9457 B( 22-C , 24-H ) :   0.9352
B( 22-C , 25-C ) :   1.0429 B( 25-C , 26-H ) :   0.9582 B( 25-C , 27-H ) :   0.9606
B( 25-C , 28-C ) :   1.0624 B( 28-C , 29-H ) :   0.9738 B( 28-C , 30-H ) :   0.9755
B( 28-C , 31-H ) :   0.9765

Dispersion correction           -0.014436906
FINAL SINGLE POINT ENERGY     -1339.867684628796

DIPOLE MOMENT
-------------
                                X             Y             Z
Electronic contribution:      7.99252      12.98882     -15.09442
Nuclear contribution   :     -7.99994     -13.50772      15.38831
                        -----------------------------------------
Total Dipole Moment    :     -0.00742      -0.51890       0.29389
                        -----------------------------------------
Magnitude (a.u.)       :      0.59639
Magnitude (Debye)      :      1.51591

Rotational constants in cm-1:     0.018828     0.008076     0.006853
Rotational constants in MHz :   564.455237   242.125220   205.443521

                             ****ORCA TERMINATED NORMALLY****
TOTAL RUN TIME: 0 days 0 hours 0 minutes 22 seconds 422 msec
