                         Program Version 4.2.1 -  RELEASE  -
|  1> ! wB97X-D3 SP def2-SVP
|  2> %pal
|  3> nprocs 24
|  4> end
|  5>
|  6> * xyz 0 1
|  7> S 	 -125.646 	 26.2856 	 -110.889
|  8> C 	 -124.016 	 25.6648 	 -110.695
|  9> C 	 -123.58 	 25.0066 	 -111.871
| 10> C 	 -124.549 	 25.172 	 -112.913
| 11> C 	 -125.644 	 25.9225 	 -112.565
| 12> H 	 -124.455 	 24.7791 	 -113.942
| 13> C 	 -122.214 	 24.3958 	 -112.186
| 14> H 	 -122.324 	 23.8845 	 -113.116
| 15> H 	 -121.826 	 23.5974 	 -111.543
| 16> C 	 -121.072 	 25.2811 	 -112.535
| 17> H 	 -120.716 	 25.7855 	 -111.575
| 18> H 	 -120.235 	 24.658 	 -112.764
| 19> C 	 -121.275 	 26.1946 	 -113.807
| 20> H 	 -121.135 	 25.634 	 -114.792
| 21> H 	 -122.34 	 26.5374 	 -113.832
| 22> H 	 -120.586 	 27.0205 	 -113.767
| 23> S 	 -127.322 	 25.5463 	 -114.77
| 24> C 	 -128.494 	 26.8297 	 -115.225
| 25> C 	 -128.459 	 27.895 	 -114.34
| 26> C 	 -127.459 	 27.7276 	 -113.282
| 27> C 	 -126.709 	 26.4921 	 -113.412
| 28> H 	 -129.121 	 28.7344 	 -114.504
| 29> C 	 -127.278 	 28.8574 	 -112.249
| 30> H 	 -127.273 	 29.797 	 -112.828
| 31> H 	 -126.302 	 28.7473 	 -111.823
| 32> C 	 -128.388 	 28.8648 	 -111.099
| 33> H 	 -128.472 	 27.861 	 -110.645
| 34> H 	 -129.251 	 29.0383 	 -111.676
| 35> C 	 -128.038 	 29.9631 	 -110.106
| 36> H 	 -127.262 	 29.5918 	 -109.468
| 37> H 	 -128.841 	 30.2035 	 -109.416
| 38> H 	 -127.666 	 30.8 	 -110.621
| 39> H 	 -123.558 	 25.6852 	 -109.67
| 40> H 	 -129.124 	 26.7981 	 -116.052
| 41> *
| 42>
| 43>                          ****END OF INPUT****

CARTESIAN COORDINATES (ANGSTROEM)
---------------------------------
  S    -125.646000   26.285600  -110.889000
  C    -124.016000   25.664800  -110.695000
  C    -123.580000   25.006600  -111.871000
  C    -124.549000   25.172000  -112.913000
  C    -125.644000   25.922500  -112.565000
  H    -124.455000   24.779100  -113.942000
  C    -122.214000   24.395800  -112.186000
  H    -122.324000   23.884500  -113.116000
  H    -121.826000   23.597400  -111.543000
  C    -121.072000   25.281100  -112.535000
  H    -120.716000   25.785500  -111.575000
  H    -120.235000   24.658000  -112.764000
  C    -121.275000   26.194600  -113.807000
  H    -121.135000   25.634000  -114.792000
  H    -122.340000   26.537400  -113.832000
  H    -120.586000   27.020500  -113.767000
  S    -127.322000   25.546300  -114.770000
  C    -128.494000   26.829700  -115.225000
  C    -128.459000   27.895000  -114.340000
  C    -127.459000   27.727600  -113.282000
  C    -126.709000   26.492100  -113.412000
  H    -129.121000   28.734400  -114.504000
  C    -127.278000   28.857400  -112.249000
  H    -127.273000   29.797000  -112.828000
  H    -126.302000   28.747300  -111.823000
  C    -128.388000   28.864800  -111.099000
  H    -128.472000   27.861000  -110.645000
  H    -129.251000   29.038300  -111.676000
  C    -128.038000   29.963100  -110.106000
  H    -127.262000   29.591800  -109.468000
  H    -128.841000   30.203500  -109.416000
  H    -127.666000   30.800000  -110.621000
  H    -123.558000   25.685200  -109.670000
  H    -129.124000   26.798100  -116.052000

 Total Charge           Charge          ....    0
 Multiplicity           Mult            ....    1
 Number of Electrons    NEL             ....  134
 Basis Dimension        Dim             ....  322

ORBITAL ENERGIES
----------------

  NO   OCC          E(Eh)            E(eV)
   0   2.0000     -88.969541     -2420.9843
   1   2.0000     -88.968230     -2420.9486
   2   2.0000     -10.338388      -281.3218
   3   2.0000     -10.330217      -281.0995
   4   2.0000     -10.323701      -280.9222
   5   2.0000     -10.319371      -280.8044
   6   2.0000     -10.314867      -280.6818
   7   2.0000     -10.311387      -280.5871
   8   2.0000     -10.300131      -280.2808
   9   2.0000     -10.296923      -280.1935
  10   2.0000     -10.291647      -280.0500
  11   2.0000     -10.288389      -279.9613
  12   2.0000     -10.287218      -279.9294
  13   2.0000     -10.284973      -279.8683
  14   2.0000     -10.283686      -279.8333
  15   2.0000     -10.269679      -279.4522
  16   2.0000      -8.084362      -219.9867
  17   2.0000      -8.081704      -219.9144
  18   2.0000      -6.042726      -164.4309
  19   2.0000      -6.040361      -164.3666
  20   2.0000      -6.038814      -164.3245
  21   2.0000      -6.036391      -164.2586
  22   2.0000      -6.035312      -164.2292
  23   2.0000      -6.032399      -164.1499
  24   2.0000      -1.005047       -27.3487
  25   2.0000      -0.974650       -26.5216
  26   2.0000      -0.914664       -24.8893
  27   2.0000      -0.902034       -24.5456
  28   2.0000      -0.865340       -23.5471
  29   2.0000      -0.849828       -23.1250
  30   2.0000      -0.840934       -22.8830
  31   2.0000      -0.811413       -22.0797
  32   2.0000      -0.784112       -21.3368
  33   2.0000      -0.766319       -20.8526
  34   2.0000      -0.704623       -19.1738
  35   2.0000      -0.700772       -19.0690
  36   2.0000      -0.692535       -18.8448
  37   2.0000      -0.661611       -18.0034
  38   2.0000      -0.639207       -17.3937
  39   2.0000      -0.612847       -16.6764
  40   2.0000      -0.590304       -16.0630
  41   2.0000      -0.570556       -15.5256
  42   2.0000      -0.566325       -15.4105
  43   2.0000      -0.551495       -15.0069
  44   2.0000      -0.541546       -14.7362
  45   2.0000      -0.523240       -14.2381
  46   2.0000      -0.515139       -14.0176
  47   2.0000      -0.507064       -13.7979
  48   2.0000      -0.503942       -13.7130
  49   2.0000      -0.495571       -13.4852
  50   2.0000      -0.488340       -13.2884
  51   2.0000      -0.478218       -13.0130
  52   2.0000      -0.465923       -12.6784
  53   2.0000      -0.463664       -12.6169
  54   2.0000      -0.460411       -12.5284
  55   2.0000      -0.449257       -12.2249
  56   2.0000      -0.445698       -12.1281
  57   2.0000      -0.437281       -11.8990
  58   2.0000      -0.434506       -11.8235
  59   2.0000      -0.424940       -11.5632
  60   2.0000      -0.418452       -11.3867
  61   2.0000      -0.413301       -11.2465
  62   2.0000      -0.404387       -11.0039
  63   2.0000      -0.355053        -9.6615
  64   2.0000      -0.334201        -9.0941
  65   2.0000      -0.328132        -8.9289
  66   2.0000      -0.284624        -7.7450
  67   0.0000       0.019838         0.5398
  68   0.0000       0.077881         2.1193
  69   0.0000       0.107461         2.9241
  70   0.0000       0.109716         2.9855
  71   0.0000       0.122541         3.3345

MULLIKEN ATOMIC CHARGES
-----------------------
   0 S :    0.108204
   1 C :   -0.153880
   2 C :   -0.053471
   3 C :   -0.009703
   4 C :   -0.135407
   5 H :    0.026947
   6 C :    0.065215
   7 H :    0.000293
   8 H :    0.034046
   9 C :   -0.072036
  10 H :    0.029930
  11 H :    0.020624
  12 C :   -0.086260
  13 H :    0.041004
  14 H :    0.053729
  15 H :    0.040090
  16 S :    0.089924
  17 C :   -0.068747
  18 C :   -0.026082
  19 C :   -0.070653
  20 C :   -0.115443
  21 H :    0.026648
  22 C :    0.013967
  23 H :    0.035379
  24 H :    0.017572
  25 C :   -0.054151
  26 H :    0.037086
  27 H :    0.012998
  28 C :    0.005052
  29 H :    0.022751
  30 H :    0.034280
  31 H :    0.019803
  32 H :    0.074402
  33 H :    0.035891
Sum of atomic charges:   -0.0000000

LOEWDIN ATOMIC CHARGES
----------------------
   0 S :    0.440844
   1 C :   -0.203119
   2 C :   -0.057941
   3 C :   -0.074401
   4 C :   -0.202440
   5 H :    0.034701
   6 C :   -0.040925
   7 H :    0.027695
   8 H :    0.035765
   9 C :   -0.044205
  10 H :    0.025067
  11 H :    0.021573
  12 C :   -0.072722
  13 H :    0.032508
  14 H :    0.031832
  15 H :    0.024924
  16 S :    0.382091
  17 C :   -0.161198
  18 C :   -0.066871
  19 C :   -0.053552
  20 C :   -0.197059
  21 H :    0.033653
  22 C :   -0.037360
  23 H :    0.032328
  24 H :    0.010909
  25 C :   -0.029087
  26 H :    0.025175
  27 H :    0.013216
  28 C :   -0.058243
  29 H :    0.026453
  30 H :    0.027052
  31 H :    0.019491
  32 H :    0.037031
  33 H :    0.016815

  Mayer bond orders larger than 0.100000
B(  0-S ,  1-C ) :   1.1543 B(  0-S ,  4-C ) :   1.1677 B(  1-C ,  2-C ) :   1.5667
B(  1-C , 32-H ) :   0.9682 B(  2-C ,  3-C ) :   1.2643 B(  2-C ,  6-C ) :   1.0231
B(  3-C ,  4-C ) :   1.5536 B(  3-C ,  5-H ) :   0.9825 B(  4-C , 20-C ) :   1.0469
B(  6-C ,  7-H ) :   0.9334 B(  6-C ,  8-H ) :   0.9384 B(  6-C ,  9-C ) :   1.0899
B(  9-C , 10-H ) :   0.9563 B(  9-C , 11-H ) :   0.9500 B(  9-C , 12-C ) :   1.0567
B( 12-C , 13-H ) :   0.9737 B( 12-C , 14-H ) :   0.9788 B( 12-C , 15-H ) :   0.9752
B( 16-S , 17-C ) :   1.1365 B( 16-S , 20-C ) :   1.1343 B( 17-C , 18-C ) :   1.6296
B( 17-C , 33-H ) :   0.9743 B( 18-C , 19-C ) :   1.2300 B( 18-C , 21-H ) :   0.9866
B( 19-C , 20-C ) :   1.5592 B( 19-C , 22-C ) :   1.0416 B( 22-C , 23-H ) :   0.9383
B( 22-C , 24-H ) :   0.9357 B( 22-C , 25-C ) :   1.0418 B( 25-C , 26-H ) :   0.9585
B( 25-C , 27-H ) :   0.9586 B( 25-C , 28-C ) :   1.0807 B( 28-C , 29-H ) :   0.9724
B( 28-C , 30-H ) :   0.9730 B( 28-C , 31-H ) :   0.9712

Dispersion correction           -0.014410886
FINAL SINGLE POINT ENERGY     -1339.871079583550

DIPOLE MOMENT
-------------
                                X             Y             Z
Electronic contribution:    -11.66025     -10.26245      -5.03879
Nuclear contribution   :     11.84846      10.49178       5.05790
                        -----------------------------------------
Total Dipole Moment    :      0.18820       0.22933       0.01911
                        -----------------------------------------
Magnitude (a.u.)       :      0.29728
Magnitude (Debye)      :      0.75563

Rotational constants in cm-1:     0.018838     0.008710     0.006830
Rotational constants in MHz :   564.735698   261.122048   204.760969

                             ****ORCA TERMINATED NORMALLY****
TOTAL RUN TIME: 0 days 0 hours 0 minutes 21 seconds 478 msec
