                         Program Version 4.2.1 -  RELEASE  -
|  1> ! wB97X-D3 SP def2-SVP
|  2> %pal
|  3> nprocs 24
|  4> end
|  5>
|  6> * xyz 0 1
|  7> S 	 -73.6312 	 6.11859 	 -112.444
|  8> C 	 -74.9971 	 7.1694 	 -112.145
|  9> C 	 -75.2867 	 7.20039 	 -110.763
| 10> C 	 -74.4374 	 6.37973 	 -110.01
| 11> C 	 -73.5631 	 5.69136 	 -110.752
| 12> H 	 -74.5206 	 6.13964 	 -108.967
| 13> C 	 -76.2135 	 8.25687 	 -110.157
| 14> H 	 -75.9491 	 9.35566 	 -110.252
| 15> H 	 -76.2463 	 8.14805 	 -109.1
| 16> C 	 -77.6776 	 8.08679 	 -110.682
| 17> H 	 -77.7216 	 7.76106 	 -111.748
| 18> H 	 -78.1154 	 7.21234 	 -110.196
| 19> C 	 -78.551 	 9.23716 	 -110.439
| 20> H 	 -78.6184 	 9.5829 	 -109.388
| 21> H 	 -78.2647 	 10.2061 	 -110.906
| 22> H 	 -79.5476 	 9.06368 	 -110.677
| 23> S 	 -70.8588 	 5.08326 	 -110.167
| 24> C 	 -70.4962 	 3.49993 	 -109.707
| 25> C 	 -71.5837 	 2.63602 	 -109.776
| 26> C 	 -72.8163 	 3.32022 	 -110.039
| 27> C 	 -72.6044 	 4.67652 	 -110.295
| 28> H 	 -71.5094 	 1.53381 	 -109.739
| 29> C 	 -74.0774 	 2.55389 	 -110.238
| 30> H 	 -73.9241 	 1.7434 	 -110.839
| 31> H 	 -74.7808 	 3.21558 	 -110.697
| 32> C 	 -74.7578 	 2.16475 	 -108.894
| 33> H 	 -74.8447 	 3.05598 	 -108.258
| 34> H 	 -74.0559 	 1.45833 	 -108.394
| 35> C 	 -76.1861 	 1.58599 	 -109.129
| 36> H 	 -76.2494 	 0.819199 	 -108.348
| 37> H 	 -76.261 	 1.04078 	 -110.053
| 38> H 	 -76.8951 	 2.44253 	 -109.185
| 39> H 	 -75.4117 	 7.9367 	 -112.714
| 40> H 	 -69.5219 	 3.13754 	 -109.5
| 41> *
| 42>
| 43>                          ****END OF INPUT****

CARTESIAN COORDINATES (ANGSTROEM)
---------------------------------
  S    -73.631200    6.118590  -112.444000
  C    -74.997100    7.169400  -112.145000
  C    -75.286700    7.200390  -110.763000
  C    -74.437400    6.379730  -110.010000
  C    -73.563100    5.691360  -110.752000
  H    -74.520600    6.139640  -108.967000
  C    -76.213500    8.256870  -110.157000
  H    -75.949100    9.355660  -110.252000
  H    -76.246300    8.148050  -109.100000
  C    -77.677600    8.086790  -110.682000
  H    -77.721600    7.761060  -111.748000
  H    -78.115400    7.212340  -110.196000
  C    -78.551000    9.237160  -110.439000
  H    -78.618400    9.582900  -109.388000
  H    -78.264700   10.206100  -110.906000
  H    -79.547600    9.063680  -110.677000
  S    -70.858800    5.083260  -110.167000
  C    -70.496200    3.499930  -109.707000
  C    -71.583700    2.636020  -109.776000
  C    -72.816300    3.320220  -110.039000
  C    -72.604400    4.676520  -110.295000
  H    -71.509400    1.533810  -109.739000
  C    -74.077400    2.553890  -110.238000
  H    -73.924100    1.743400  -110.839000
  H    -74.780800    3.215580  -110.697000
  C    -74.757800    2.164750  -108.894000
  H    -74.844700    3.055980  -108.258000
  H    -74.055900    1.458330  -108.394000
  C    -76.186100    1.585990  -109.129000
  H    -76.249400    0.819199  -108.348000
  H    -76.261000    1.040780  -110.053000
  H    -76.895100    2.442530  -109.185000
  H    -75.411700    7.936700  -112.714000
  H    -69.521900    3.137540  -109.500000

 Total Charge           Charge          ....    0
 Multiplicity           Mult            ....    1
 Number of Electrons    NEL             ....  134
 Basis Dimension        Dim             ....  322

ORBITAL ENERGIES
----------------

  NO   OCC          E(Eh)            E(eV)
   0   2.0000     -88.968802     -2420.9642
   1   2.0000     -88.966576     -2420.9036
   2   2.0000     -10.325517      -280.9716
   3   2.0000     -10.322983      -280.9027
   4   2.0000     -10.313086      -280.6333
   5   2.0000     -10.310653      -280.5671
   6   2.0000     -10.301076      -280.3065
   7   2.0000     -10.300232      -280.2836
   8   2.0000     -10.294870      -280.1377
   9   2.0000     -10.293269      -280.0941
  10   2.0000     -10.289028      -279.9787
  11   2.0000     -10.286799      -279.9180
  12   2.0000     -10.284708      -279.8611
  13   2.0000     -10.281254      -279.7671
  14   2.0000     -10.278202      -279.6841
  15   2.0000     -10.271767      -279.5090
  16   2.0000      -8.083216      -219.9555
  17   2.0000      -8.081693      -219.9140
  18   2.0000      -6.041649      -164.4016
  19   2.0000      -6.040027      -164.3575
  20   2.0000      -6.037733      -164.2951
  21   2.0000      -6.036191      -164.2531
  22   2.0000      -6.034102      -164.1963
  23   2.0000      -6.032577      -164.1548
  24   2.0000      -1.007821       -27.4242
  25   2.0000      -0.986308       -26.8388
  26   2.0000      -0.911720       -24.8092
  27   2.0000      -0.910589       -24.7784
  28   2.0000      -0.867327       -23.6012
  29   2.0000      -0.854726       -23.2583
  30   2.0000      -0.850056       -23.1312
  31   2.0000      -0.814305       -22.1584
  32   2.0000      -0.784721       -21.3533
  33   2.0000      -0.769872       -20.9493
  34   2.0000      -0.705806       -19.2060
  35   2.0000      -0.698967       -19.0199
  36   2.0000      -0.693894       -18.8818
  37   2.0000      -0.659026       -17.9330
  38   2.0000      -0.646944       -17.6042
  39   2.0000      -0.618818       -16.8389
  40   2.0000      -0.599372       -16.3097
  41   2.0000      -0.572754       -15.5854
  42   2.0000      -0.568709       -15.4753
  43   2.0000      -0.552477       -15.0337
  44   2.0000      -0.526468       -14.3259
  45   2.0000      -0.524328       -14.2677
  46   2.0000      -0.520682       -14.1685
  47   2.0000      -0.511530       -13.9194
  48   2.0000      -0.507989       -13.8231
  49   2.0000      -0.502976       -13.6867
  50   2.0000      -0.494856       -13.4657
  51   2.0000      -0.478282       -13.0147
  52   2.0000      -0.472604       -12.8602
  53   2.0000      -0.468423       -12.7464
  54   2.0000      -0.455680       -12.3997
  55   2.0000      -0.451460       -12.2849
  56   2.0000      -0.444965       -12.1081
  57   2.0000      -0.436604       -11.8806
  58   2.0000      -0.432844       -11.7783
  59   2.0000      -0.425815       -11.5870
  60   2.0000      -0.421517       -11.4701
  61   2.0000      -0.414430       -11.2772
  62   2.0000      -0.406106       -11.0507
  63   2.0000      -0.340585        -9.2678
  64   2.0000      -0.329280        -8.9602
  65   2.0000      -0.321496        -8.7483
  66   2.0000      -0.305169        -8.3041
  67   0.0000       0.040548         1.1034
  68   0.0000       0.054979         1.4960
  69   0.0000       0.115103         3.1321
  70   0.0000       0.118333         3.2200
  71   0.0000       0.126557         3.4438

MULLIKEN ATOMIC CHARGES
-----------------------
   0 S :    0.129424
   1 C :   -0.075340
   2 C :   -0.097246
   3 C :    0.059076
   4 C :   -0.184232
   5 H :    0.007903
   6 C :    0.049230
   7 H :    0.046830
   8 H :    0.008743
   9 C :   -0.085668
  10 H :    0.032460
  11 H :    0.021586
  12 C :   -0.024569
  13 H :    0.016088
  14 H :    0.024468
  15 H :    0.017237
  16 S :    0.123861
  17 C :   -0.067020
  18 C :   -0.051698
  19 C :   -0.017668
  20 C :   -0.202129
  21 H :    0.028417
  22 C :    0.122623
  23 H :    0.009765
  24 H :    0.012907
  25 C :   -0.136321
  26 H :    0.034709
  27 H :    0.029805
  28 C :   -0.022039
  29 H :    0.039591
  30 H :    0.023054
  31 H :    0.052111
  32 H :    0.030018
  33 H :    0.044023
Sum of atomic charges:    0.0000000

LOEWDIN ATOMIC CHARGES
----------------------
   0 S :    0.418100
   1 C :   -0.191290
   2 C :   -0.060809
   3 C :   -0.062304
   4 C :   -0.196316
   5 H :    0.034216
   6 C :   -0.031967
   7 H :    0.036955
   8 H :    0.022939
   9 C :   -0.048027
  10 H :    0.026768
  11 H :    0.026614
  12 C :   -0.072751
  13 H :    0.027088
  14 H :    0.026188
  15 H :    0.018851
  16 S :    0.417366
  17 C :   -0.194797
  18 C :   -0.078954
  19 C :   -0.042777
  20 C :   -0.202421
  21 H :    0.034443
  22 C :   -0.023190
  23 H :    0.018549
  24 H :    0.027613
  25 C :   -0.036401
  26 H :    0.024562
  27 H :    0.020170
  28 C :   -0.067421
  29 H :    0.033015
  30 H :    0.020349
  31 H :    0.034853
  32 H :    0.018032
  33 H :    0.022753

  Mayer bond orders larger than 0.100000
B(  0-S ,  1-C ) :   1.1468 B(  0-S ,  4-C ) :   1.1528 B(  1-C ,  2-C ) :   1.5963
B(  1-C ,  4-C ) :   0.1003 B(  1-C , 32-H ) :   0.9672 B(  2-C ,  3-C ) :   1.2533
B(  2-C ,  6-C ) :   1.0175 B(  3-C ,  4-C ) :   1.6060 B(  3-C ,  5-H ) :   0.9951
B(  4-C , 20-C ) :   1.0019 B(  6-C ,  7-H ) :   0.9547 B(  6-C ,  8-H ) :   0.9402
B(  6-C ,  9-C ) :   1.0364 B(  9-C , 10-H ) :   0.9628 B(  9-C , 11-H ) :   0.9482
B(  9-C , 12-C ) :   1.0968 B( 12-C , 13-H ) :   0.9651 B( 12-C , 14-H ) :   0.9699
B( 12-C , 15-H ) :   0.9679 B( 16-S , 17-C ) :   1.1800 B( 16-S , 20-C ) :   1.1388
B( 17-C , 18-C ) :   1.5880 B( 17-C , 33-H ) :   0.9688 B( 18-C , 19-C ) :   1.2512
B( 18-C , 21-H ) :   0.9832 B( 19-C , 20-C ) :   1.5923 B( 19-C , 22-C ) :   1.0546
B( 22-C , 23-H ) :   0.9331 B( 22-C , 24-H ) :   0.9243 B( 22-C , 25-C ) :   1.0547
B( 25-C , 26-H ) :   0.9587 B( 25-C , 27-H ) :   0.9651 B( 25-C , 28-C ) :   1.0642
B( 28-C , 29-H ) :   0.9756 B( 28-C , 30-H ) :   0.9756 B( 28-C , 31-H ) :   0.9761

Dispersion correction           -0.013923112
FINAL SINGLE POINT ENERGY     -1339.866628959248

DIPOLE MOMENT
-------------
                                X             Y             Z
Electronic contribution:     27.93453       1.05736      -8.81178
Nuclear contribution   :    -28.30741      -1.25517       9.04816
                        -----------------------------------------
Total Dipole Moment    :     -0.37288      -0.19780       0.23638
                        -----------------------------------------
Magnitude (a.u.)       :      0.48378
Magnitude (Debye)      :      1.22967

Rotational constants in cm-1:     0.019060     0.007985     0.006304
Rotational constants in MHz :   571.403047   239.371281   188.997190

                             ****ORCA TERMINATED NORMALLY****
TOTAL RUN TIME: 0 days 0 hours 0 minutes 21 seconds 168 msec
