                         Program Version 4.2.1 -  RELEASE  -
|  1> ! wB97X-D3 SP def2-SVP
|  2> %pal
|  3> nprocs 24
|  4> end
|  5>
|  6> * xyz 0 1
|  7> S 	 -77.9805 	 -0.891566 	 -64.87
|  8> C 	 -76.9288 	 0.412058 	 -65.4154
|  9> C 	 -77.0376 	 1.54932 	 -64.5986
| 10> C 	 -77.8769 	 1.27326 	 -63.4925
| 11> C 	 -78.4308 	 0.012871 	 -63.3938
| 12> H 	 -78.0739 	 2.01889 	 -62.7247
| 13> C 	 -76.3092 	 2.82218 	 -64.782
| 14> H 	 -77.0263 	 3.59914 	 -64.5685
| 15> H 	 -76.193 	 2.9543 	 -65.8584
| 16> C 	 -75.1543 	 3.07087 	 -63.7785
| 17> H 	 -75.5143 	 3.12888 	 -62.7508
| 18> H 	 -74.5249 	 2.17432 	 -63.66
| 19> C 	 -74.1968 	 4.16039 	 -64.1047
| 20> H 	 -73.1961 	 3.90109 	 -63.7581
| 21> H 	 -74.0599 	 4.23349 	 -65.2065
| 22> H 	 -74.5559 	 5.10181 	 -63.6948
| 23> S 	 -78.5243 	 -0.531122 	 -60.7627
| 24> C 	 -80.0509 	 -0.490115 	 -59.9209
| 25> C 	 -81.0549 	 -0.818919 	 -60.766
| 26> C 	 -80.6886 	 -0.740172 	 -62.1721
| 27> C 	 -79.2988 	 -0.444146 	 -62.3074
| 28> H 	 -82.0549 	 -1.10367 	 -60.4251
| 29> C 	 -81.659 	 -0.717276 	 -63.316
| 30> H 	 -81.1223 	 -0.497031 	 -64.2593
| 31> H 	 -82.4433 	 0.0463794 	 -63.0531
| 32> C 	 -82.3865 	 -2.01808 	 -63.4919
| 33> H 	 -83.1151 	 -1.85532 	 -64.3344
| 34> H 	 -83.0373 	 -2.27357 	 -62.6441
| 35> C 	 -81.4676 	 -3.18027 	 -63.8227
| 36> H 	 -80.8274 	 -3.30865 	 -63.0397
| 37> H 	 -80.9047 	 -3.13109 	 -64.7478
| 38> H 	 -82.151 	 -4.05013 	 -63.9573
| 39> H 	 -76.3324 	 0.339419 	 -66.3326
| 40> H 	 -80.198 	 -0.314119 	 -58.8834
| 41> *
| 42>
| 43>                          ****END OF INPUT****

CARTESIAN COORDINATES (ANGSTROEM)
---------------------------------
  S    -77.980500   -0.891566  -64.870000
  C    -76.928800    0.412058  -65.415400
  C    -77.037600    1.549320  -64.598600
  C    -77.876900    1.273260  -63.492500
  C    -78.430800    0.012871  -63.393800
  H    -78.073900    2.018890  -62.724700
  C    -76.309200    2.822180  -64.782000
  H    -77.026300    3.599140  -64.568500
  H    -76.193000    2.954300  -65.858400
  C    -75.154300    3.070870  -63.778500
  H    -75.514300    3.128880  -62.750800
  H    -74.524900    2.174320  -63.660000
  C    -74.196800    4.160390  -64.104700
  H    -73.196100    3.901090  -63.758100
  H    -74.059900    4.233490  -65.206500
  H    -74.555900    5.101810  -63.694800
  S    -78.524300   -0.531122  -60.762700
  C    -80.050900   -0.490115  -59.920900
  C    -81.054900   -0.818919  -60.766000
  C    -80.688600   -0.740172  -62.172100
  C    -79.298800   -0.444146  -62.307400
  H    -82.054900   -1.103670  -60.425100
  C    -81.659000   -0.717276  -63.316000
  H    -81.122300   -0.497031  -64.259300
  H    -82.443300    0.046379  -63.053100
  C    -82.386500   -2.018080  -63.491900
  H    -83.115100   -1.855320  -64.334400
  H    -83.037300   -2.273570  -62.644100
  C    -81.467600   -3.180270  -63.822700
  H    -80.827400   -3.308650  -63.039700
  H    -80.904700   -3.131090  -64.747800
  H    -82.151000   -4.050130  -63.957300
  H    -76.332400    0.339419  -66.332600
  H    -80.198000   -0.314119  -58.883400

 Total Charge           Charge          ....    0
 Multiplicity           Mult            ....    1
 Number of Electrons    NEL             ....  134
 Basis Dimension        Dim             ....  322

ORBITAL ENERGIES
----------------

  NO   OCC          E(Eh)            E(eV)
   0   2.0000     -88.966719     -2420.9075
   1   2.0000     -88.960812     -2420.7468
   2   2.0000     -10.331540      -281.1355
   3   2.0000     -10.326437      -280.9966
   4   2.0000     -10.319588      -280.8103
   5   2.0000     -10.312794      -280.6254
   6   2.0000     -10.306132      -280.4441
   7   2.0000     -10.299770      -280.2710
   8   2.0000     -10.295126      -280.1446
   9   2.0000     -10.292445      -280.0717
  10   2.0000     -10.290998      -280.0323
  11   2.0000     -10.290030      -280.0060
  12   2.0000     -10.285482      -279.8822
  13   2.0000     -10.283640      -279.8321
  14   2.0000     -10.277781      -279.6726
  15   2.0000     -10.264211      -279.3034
  16   2.0000      -8.080334      -219.8771
  17   2.0000      -8.076305      -219.7674
  18   2.0000      -6.038844      -164.3253
  19   2.0000      -6.034957      -164.2195
  20   2.0000      -6.034866      -164.2171
  21   2.0000      -6.031213      -164.1177
  22   2.0000      -6.030807      -164.1066
  23   2.0000      -6.026833      -163.9985
  24   2.0000      -1.003421       -27.3045
  25   2.0000      -0.982381       -26.7320
  26   2.0000      -0.914387       -24.8817
  27   2.0000      -0.914049       -24.8725
  28   2.0000      -0.871448       -23.7133
  29   2.0000      -0.852925       -23.2093
  30   2.0000      -0.842082       -22.9142
  31   2.0000      -0.815183       -22.1823
  32   2.0000      -0.782903       -21.3039
  33   2.0000      -0.769990       -20.9525
  34   2.0000      -0.707471       -19.2513
  35   2.0000      -0.698643       -19.0110
  36   2.0000      -0.689766       -18.7695
  37   2.0000      -0.655297       -17.8315
  38   2.0000      -0.637454       -17.3460
  39   2.0000      -0.618787       -16.8380
  40   2.0000      -0.597361       -16.2550
  41   2.0000      -0.572169       -15.5695
  42   2.0000      -0.556852       -15.1527
  43   2.0000      -0.553787       -15.0693
  44   2.0000      -0.544876       -14.8268
  45   2.0000      -0.530463       -14.4346
  46   2.0000      -0.519146       -14.1267
  47   2.0000      -0.512481       -13.9453
  48   2.0000      -0.508739       -13.8435
  49   2.0000      -0.501827       -13.6554
  50   2.0000      -0.491366       -13.3707
  51   2.0000      -0.477508       -12.9936
  52   2.0000      -0.469336       -12.7713
  53   2.0000      -0.463523       -12.6131
  54   2.0000      -0.457596       -12.4518
  55   2.0000      -0.445539       -12.1237
  56   2.0000      -0.444353       -12.0915
  57   2.0000      -0.436077       -11.8663
  58   2.0000      -0.431103       -11.7309
  59   2.0000      -0.426406       -11.6031
  60   2.0000      -0.419887       -11.4257
  61   2.0000      -0.408788       -11.1237
  62   2.0000      -0.404101       -10.9961
  63   2.0000      -0.336477        -9.1560
  64   2.0000      -0.329787        -8.9739
  65   2.0000      -0.322153        -8.7662
  66   2.0000      -0.296011        -8.0549
  67   0.0000       0.030210         0.8220
  68   0.0000       0.064764         1.7623
  69   0.0000       0.100013         2.7215
  70   0.0000       0.117534         3.1983
  71   0.0000       0.133378         3.6294

MULLIKEN ATOMIC CHARGES
-----------------------
   0 S :    0.104871
   1 C :   -0.137129
   2 C :   -0.095612
   3 C :    0.035138
   4 C :   -0.152144
   5 H :    0.013640
   6 C :    0.101165
   7 H :    0.016932
   8 H :    0.019848
   9 C :   -0.080934
  10 H :    0.027058
  11 H :    0.022839
  12 C :   -0.027687
  13 H :    0.032722
  14 H :    0.027832
  15 H :    0.036553
  16 S :    0.111218
  17 C :   -0.083247
  18 C :   -0.032325
  19 C :   -0.040448
  20 C :   -0.193253
  21 H :    0.023172
  22 C :    0.081322
  23 H :    0.030296
  24 H :    0.041591
  25 C :   -0.112063
  26 H :    0.029395
  27 H :    0.027770
  28 C :   -0.020479
  29 H :    0.026211
  30 H :    0.029817
  31 H :    0.030707
  32 H :    0.056802
  33 H :    0.048423
Sum of atomic charges:    0.0000000

LOEWDIN ATOMIC CHARGES
----------------------
   0 S :    0.384794
   1 C :   -0.189909
   2 C :   -0.067144
   3 C :   -0.052971
   4 C :   -0.198389
   5 H :    0.031130
   6 C :   -0.036471
   7 H :    0.033405
   8 H :    0.033132
   9 C :   -0.047602
  10 H :    0.027137
  11 H :    0.026018
  12 C :   -0.064565
  13 H :    0.029627
  14 H :    0.029491
  15 H :    0.024325
  16 S :    0.415692
  17 C :   -0.179377
  18 C :   -0.072500
  19 C :   -0.053783
  20 C :   -0.208668
  21 H :    0.032042
  22 C :   -0.037051
  23 H :    0.032740
  24 H :    0.040008
  25 C :   -0.047617
  26 H :    0.027017
  27 H :    0.021778
  28 C :   -0.058306
  29 H :    0.011819
  30 H :    0.024969
  31 H :    0.032457
  32 H :    0.030903
  33 H :    0.025869

  Mayer bond orders larger than 0.100000
B(  0-S ,  1-C ) :   1.1542 B(  0-S ,  4-C ) :   1.1203 B(  1-C ,  2-C ) :   1.5772
B(  1-C , 32-H ) :   0.9666 B(  2-C ,  3-C ) :   1.2581 B(  2-C ,  6-C ) :   1.0434
B(  3-C ,  4-C ) :   1.5737 B(  3-C ,  5-H ) :   0.9899 B(  4-C , 20-C ) :   1.0346
B(  6-C ,  7-H ) :   0.9252 B(  6-C ,  8-H ) :   0.9384 B(  6-C ,  9-C ) :   1.0410
B(  9-C , 10-H ) :   0.9500 B(  9-C , 11-H ) :   0.9625 B(  9-C , 12-C ) :   1.0881
B( 12-C , 13-H ) :   0.9754 B( 12-C , 14-H ) :   0.9738 B( 12-C , 15-H ) :   0.9757
B( 16-S , 17-C ) :   1.1478 B( 16-S , 20-C ) :   1.1550 B( 17-C , 18-C ) :   1.6191
B( 17-C , 33-H ) :   0.9742 B( 18-C , 19-C ) :   1.2229 B( 18-C , 21-H ) :   0.9867
B( 19-C , 20-C ) :   1.5623 B( 19-C , 22-C ) :   1.0527 B( 22-C , 23-H ) :   0.9335
B( 22-C , 24-H ) :   0.9320 B( 22-C , 25-C ) :   1.0756 B( 25-C , 26-H ) :   0.9538
B( 25-C , 27-H ) :   0.9551 B( 25-C , 28-C ) :   1.0717 B( 28-C , 29-H ) :   0.9748
B( 28-C , 30-H ) :   0.9738 B( 28-C , 31-H ) :   0.9712

Dispersion correction           -0.014516411
FINAL SINGLE POINT ENERGY     -1339.871060374674

DIPOLE MOMENT
-------------
                                X             Y             Z
Electronic contribution:      0.10379      -8.25021       6.69311
Nuclear contribution   :     -0.25197       8.70127      -6.70389
                        -----------------------------------------
Total Dipole Moment    :     -0.14818       0.45105      -0.01079
                        -----------------------------------------
Magnitude (a.u.)       :      0.47489
Magnitude (Debye)      :      1.20708

Rotational constants in cm-1:     0.023736     0.007577     0.006317
Rotational constants in MHz :   711.576975   227.144620   189.378230

                             ****ORCA TERMINATED NORMALLY****
TOTAL RUN TIME: 0 days 0 hours 0 minutes 21 seconds 276 msec
