                         Program Version 4.2.1 -  RELEASE  -
|  1> ! wB97X-D3 SP def2-SVP
|  2> %pal
|  3> nprocs 24
|  4> end
|  5>
|  6> * xyz 0 1
|  7> S 	 -48.983 	 24.17 	 30.9663
|  8> C 	 -48.0814 	 25.6181 	 30.5161
|  9> C 	 -46.7715 	 25.4441 	 30.1475
| 10> C 	 -46.4188 	 24.071 	 30.3432
| 11> C 	 -47.5145 	 23.2407 	 30.7528
| 12> H 	 -45.4374 	 23.6301 	 30.2121
| 13> C 	 -45.724 	 26.4922 	 29.8839
| 14> H 	 -46.2541 	 27.365 	 29.4571
| 15> H 	 -45.0546 	 26.0159 	 29.2187
| 16> C 	 -44.9484 	 26.6915 	 31.1693
| 17> H 	 -45.7026 	 27.2291 	 31.7939
| 18> H 	 -44.703 	 25.7493 	 31.6309
| 19> C 	 -43.7099 	 27.6987 	 31.0456
| 20> H 	 -44.0816 	 28.6331 	 30.6614
| 21> H 	 -43.2679 	 27.811 	 32.0533
| 22> H 	 -42.9424 	 27.2363 	 30.299
| 23> S 	 -47.0602 	 20.631 	 29.8923
| 24> C 	 -47.5319 	 19.375 	 30.9683
| 25> C 	 -47.632 	 19.7649 	 32.2612
| 26> C 	 -47.6361 	 21.1692 	 32.312
| 27> C 	 -47.4643 	 21.7892 	 31.093
| 28> H 	 -47.6454 	 18.9828 	 33.0671
| 29> C 	 -47.9798 	 21.9761 	 33.6096
| 30> H 	 -47.729 	 23.0621 	 33.5922
| 31> H 	 -47.3594 	 21.5426 	 34.3773
| 32> C 	 -49.2958 	 21.6936 	 34.3106
| 33> H 	 -49.267 	 20.6586 	 34.6274
| 34> H 	 -50.052 	 21.7903 	 33.61
| 35> C 	 -49.7126 	 22.658 	 35.4225
| 36> H 	 -49.9212 	 23.6116 	 34.9689
| 37> H 	 -49.0672 	 22.8843 	 36.2952
| 38> H 	 -50.6209 	 22.1376 	 35.7817
| 39> H 	 -48.4357 	 26.6494 	 30.6508
| 40> H 	 -47.4224 	 18.3641 	 30.7216
| 41> *
| 42>
| 43>                          ****END OF INPUT****

CARTESIAN COORDINATES (ANGSTROEM)
---------------------------------
  S    -48.983000   24.170000   30.966300
  C    -48.081400   25.618100   30.516100
  C    -46.771500   25.444100   30.147500
  C    -46.418800   24.071000   30.343200
  C    -47.514500   23.240700   30.752800
  H    -45.437400   23.630100   30.212100
  C    -45.724000   26.492200   29.883900
  H    -46.254100   27.365000   29.457100
  H    -45.054600   26.015900   29.218700
  C    -44.948400   26.691500   31.169300
  H    -45.702600   27.229100   31.793900
  H    -44.703000   25.749300   31.630900
  C    -43.709900   27.698700   31.045600
  H    -44.081600   28.633100   30.661400
  H    -43.267900   27.811000   32.053300
  H    -42.942400   27.236300   30.299000
  S    -47.060200   20.631000   29.892300
  C    -47.531900   19.375000   30.968300
  C    -47.632000   19.764900   32.261200
  C    -47.636100   21.169200   32.312000
  C    -47.464300   21.789200   31.093000
  H    -47.645400   18.982800   33.067100
  C    -47.979800   21.976100   33.609600
  H    -47.729000   23.062100   33.592200
  H    -47.359400   21.542600   34.377300
  C    -49.295800   21.693600   34.310600
  H    -49.267000   20.658600   34.627400
  H    -50.052000   21.790300   33.610000
  C    -49.712600   22.658000   35.422500
  H    -49.921200   23.611600   34.968900
  H    -49.067200   22.884300   36.295200
  H    -50.620900   22.137600   35.781700
  H    -48.435700   26.649400   30.650800
  H    -47.422400   18.364100   30.721600

 Total Charge           Charge          ....    0
 Multiplicity           Mult            ....    1
 Number of Electrons    NEL             ....  134
 Basis Dimension        Dim             ....  322

ORBITAL ENERGIES
----------------

  NO   OCC          E(Eh)            E(eV)
   0   2.0000     -88.971702     -2421.0431
   1   2.0000     -88.963568     -2420.8218
   2   2.0000     -10.334000      -281.2024
   3   2.0000     -10.321192      -280.8539
   4   2.0000     -10.311906      -280.6012
   5   2.0000     -10.307239      -280.4742
   6   2.0000     -10.302919      -280.3567
   7   2.0000     -10.298412      -280.2340
   8   2.0000     -10.297728      -280.2154
   9   2.0000     -10.295079      -280.1433
  10   2.0000     -10.292068      -280.0614
  11   2.0000     -10.291723      -280.0520
  12   2.0000     -10.291483      -280.0455
  13   2.0000     -10.284311      -279.8503
  14   2.0000     -10.277712      -279.6708
  15   2.0000     -10.274411      -279.5809
  16   2.0000      -8.085402      -220.0150
  17   2.0000      -8.079781      -219.8620
  18   2.0000      -6.043898      -164.4628
  19   2.0000      -6.040155      -164.3610
  20   2.0000      -6.038099      -164.3050
  21   2.0000      -6.036161      -164.2523
  22   2.0000      -6.034294      -164.2015
  23   2.0000      -6.030432      -164.0964
  24   2.0000      -1.011400       -27.5216
  25   2.0000      -0.986159       -26.8348
  26   2.0000      -0.917124       -24.9562
  27   2.0000      -0.907883       -24.7048
  28   2.0000      -0.865287       -23.5457
  29   2.0000      -0.851928       -23.1821
  30   2.0000      -0.843042       -22.9403
  31   2.0000      -0.809542       -22.0288
  32   2.0000      -0.783364       -21.3164
  33   2.0000      -0.773078       -21.0365
  34   2.0000      -0.702222       -19.1084
  35   2.0000      -0.695662       -18.9299
  36   2.0000      -0.691297       -18.8112
  37   2.0000      -0.659057       -17.9339
  38   2.0000      -0.633960       -17.2509
  39   2.0000      -0.616950       -16.7881
  40   2.0000      -0.597330       -16.2542
  41   2.0000      -0.573675       -15.6105
  42   2.0000      -0.568671       -15.4743
  43   2.0000      -0.563659       -15.3379
  44   2.0000      -0.527834       -14.3631
  45   2.0000      -0.524740       -14.2789
  46   2.0000      -0.510815       -13.9000
  47   2.0000      -0.506399       -13.7798
  48   2.0000      -0.501447       -13.6451
  49   2.0000      -0.495780       -13.4908
  50   2.0000      -0.484527       -13.1846
  51   2.0000      -0.476274       -12.9601
  52   2.0000      -0.470604       -12.8058
  53   2.0000      -0.464085       -12.6284
  54   2.0000      -0.462587       -12.5876
  55   2.0000      -0.450913       -12.2700
  56   2.0000      -0.450827       -12.2676
  57   2.0000      -0.444488       -12.0951
  58   2.0000      -0.431038       -11.7291
  59   2.0000      -0.427247       -11.6260
  60   2.0000      -0.418066       -11.3762
  61   2.0000      -0.413319       -11.2470
  62   2.0000      -0.406390       -11.0584
  63   2.0000      -0.339188        -9.2298
  64   2.0000      -0.332809        -9.0562
  65   2.0000      -0.325651        -8.8614
  66   2.0000      -0.296456        -8.0670
  67   0.0000       0.036975         1.0061
  68   0.0000       0.065020         1.7693
  69   0.0000       0.104273         2.8374
  70   0.0000       0.114538         3.1167
  71   0.0000       0.134112         3.6494

MULLIKEN ATOMIC CHARGES
-----------------------
   0 S :    0.129589
   1 C :   -0.130533
   2 C :   -0.097438
   3 C :    0.014972
   4 C :   -0.180351
   5 H :    0.012414
   6 C :    0.115841
   7 H :    0.037294
   8 H :    0.010505
   9 C :   -0.118175
  10 H :    0.025729
  11 H :    0.040038
  12 C :   -0.048601
  13 H :    0.033515
  14 H :    0.050375
  15 H :    0.045010
  16 S :    0.120616
  17 C :   -0.068265
  18 C :   -0.060978
  19 C :   -0.002814
  20 C :   -0.172151
  21 H :    0.043921
  22 C :    0.055641
  23 H :    0.037738
  24 H :    0.008784
  25 C :   -0.052095
  26 H :    0.019810
  27 H :    0.006882
  28 C :   -0.056606
  29 H :    0.031827
  30 H :    0.034879
  31 H :    0.038865
  32 H :    0.042253
  33 H :    0.031510
Sum of atomic charges:   -0.0000000

LOEWDIN ATOMIC CHARGES
----------------------
   0 S :    0.410007
   1 C :   -0.203346
   2 C :   -0.061410
   3 C :   -0.061797
   4 C :   -0.192297
   5 H :    0.027675
   6 C :   -0.026985
   7 H :    0.035789
   8 H :    0.024504
   9 C :   -0.039062
  10 H :    0.026985
  11 H :    0.023627
  12 C :   -0.068699
  13 H :    0.021154
  14 H :    0.030514
  15 H :    0.032923
  16 S :    0.430262
  17 C :   -0.178853
  18 C :   -0.076674
  19 C :   -0.051463
  20 C :   -0.221400
  21 H :    0.045866
  22 C :   -0.042435
  23 H :    0.029599
  24 H :    0.029748
  25 C :   -0.037106
  26 H :    0.018793
  27 H :    0.012316
  28 C :   -0.063264
  29 H :    0.024027
  30 H :    0.024001
  31 H :    0.035144
  32 H :    0.027345
  33 H :    0.014513

  Mayer bond orders larger than 0.100000
B(  0-S ,  1-C ) :   1.1344 B(  0-S ,  4-C ) :   1.1559 B(  1-C ,  2-C ) :   1.6372
B(  1-C , 32-H ) :   0.9540 B(  2-C ,  3-C ) :   1.2302 B(  2-C ,  6-C ) :   1.0311
B(  3-C ,  4-C ) :   1.5884 B(  3-C ,  5-H ) :   0.9859 B(  4-C , 20-C ) :   1.0077
B(  6-C ,  7-H ) :   0.9393 B(  6-C ,  8-H ) :   0.9240 B(  6-C ,  9-C ) :   1.0591
B(  9-C , 10-H ) :   0.9556 B(  9-C , 11-H ) :   0.9597 B(  9-C , 12-C ) :   1.0668
B( 12-C , 13-H ) :   0.9748 B( 12-C , 14-H ) :   0.9761 B( 12-C , 15-H ) :   0.9766
B( 16-S , 17-C ) :   1.1754 B( 16-S , 20-C ) :   1.1438 B( 17-C , 18-C ) :   1.6141
B( 17-C , 33-H ) :   0.9675 B( 18-C , 19-C ) :   1.2362 B( 18-C , 21-H ) :   0.9854
B( 19-C , 20-C ) :   1.5985 B( 19-C , 22-C ) :   1.0446 B( 22-C , 23-H ) :   0.9444
B( 22-C , 24-H ) :   0.9273 B( 22-C , 25-C ) :   1.0507 B( 25-C , 26-H ) :   0.9581
B( 25-C , 27-H ) :   0.9525 B( 25-C , 28-C ) :   1.0768 B( 28-C , 29-H ) :   0.9748
B( 28-C , 30-H ) :   0.9788 B( 28-C , 31-H ) :   0.9739

Dispersion correction           -0.014212530
FINAL SINGLE POINT ENERGY     -1339.855141143245

DIPOLE MOMENT
-------------
                                X             Y             Z
Electronic contribution:     -6.98747     -14.74896     -15.91519
Nuclear contribution   :      7.31756      14.87701      16.33007
                        -----------------------------------------
Total Dipole Moment    :      0.33009       0.12805       0.41488
                        -----------------------------------------
Magnitude (a.u.)       :      0.54542
Magnitude (Debye)      :      1.38635

Rotational constants in cm-1:     0.018186     0.008111     0.006776
Rotational constants in MHz :   545.193560   243.162642   203.139010

                             ****ORCA TERMINATED NORMALLY****
TOTAL RUN TIME: 0 days 0 hours 0 minutes 21 seconds 289 msec
