                         Program Version 4.2.1 -  RELEASE  -
|  1> ! wB97X-D3 SP def2-SVP
|  2> %pal
|  3> nprocs 24
|  4> end
|  5>
|  6> * xyz 0 1
|  7> S 	 -97.5706 	 -24.5789 	 -66.1028
|  8> C 	 -98.136 	 -22.9437 	 -66.5905
|  9> C 	 -97.071 	 -22.0057 	 -66.4473
| 10> C 	 -95.9268 	 -22.6106 	 -65.8429
| 11> C 	 -96.0799 	 -23.9372 	 -65.5071
| 12> H 	 -94.9671 	 -22.1637 	 -65.5882
| 13> C 	 -97.1417 	 -20.5354 	 -66.9216
| 14> H 	 -97.8991 	 -20.5065 	 -67.7312
| 15> H 	 -96.2014 	 -20.3752 	 -67.3531
| 16> C 	 -97.5239 	 -19.4525 	 -65.8663
| 17> H 	 -98.3488 	 -19.8192 	 -65.3463
| 18> H 	 -96.6539 	 -19.4336 	 -65.1474
| 19> C 	 -97.6985 	 -18.0271 	 -66.4835
| 20> H 	 -98.0707 	 -17.3754 	 -65.7401
| 21> H 	 -96.6956 	 -17.6843 	 -66.8508
| 22> H 	 -98.4286 	 -17.9757 	 -67.3643
| 23> S 	 -94.9055 	 -26.4741 	 -65.3797
| 24> C 	 -93.6461 	 -26.7496 	 -64.1984
| 25> C 	 -93.3794 	 -25.6139 	 -63.4416
| 26> C 	 -94.1577 	 -24.5 	 -63.8136
| 27> C 	 -95.0903 	 -24.7943 	 -64.8199
| 28> H 	 -92.552 	 -25.6398 	 -62.7019
| 29> C 	 -94.0536 	 -23.2349 	 -62.9253
| 30> H 	 -94.4199 	 -22.3921 	 -63.4956
| 31> H 	 -93.001 	 -23.0743 	 -62.7701
| 32> C 	 -94.6802 	 -23.3586 	 -61.5072
| 33> H 	 -94.0013 	 -23.9604 	 -60.8912
| 34> H 	 -95.6131 	 -23.8527 	 -61.5983
| 35> C 	 -94.7664 	 -21.9054 	 -60.9215
| 36> H 	 -95.2548 	 -21.2593 	 -61.5669
| 37> H 	 -93.7238 	 -21.5861 	 -61.0342
| 38> H 	 -95.2572 	 -21.7743 	 -59.9589
| 39> H 	 -99.0753 	 -22.8252 	 -67.1299
| 40> H 	 -93.0276 	 -27.6679 	 -64.1506
| 41> *
| 42>
| 43>                          ****END OF INPUT****

CARTESIAN COORDINATES (ANGSTROEM)
---------------------------------
  S    -97.570600  -24.578900  -66.102800
  C    -98.136000  -22.943700  -66.590500
  C    -97.071000  -22.005700  -66.447300
  C    -95.926800  -22.610600  -65.842900
  C    -96.079900  -23.937200  -65.507100
  H    -94.967100  -22.163700  -65.588200
  C    -97.141700  -20.535400  -66.921600
  H    -97.899100  -20.506500  -67.731200
  H    -96.201400  -20.375200  -67.353100
  C    -97.523900  -19.452500  -65.866300
  H    -98.348800  -19.819200  -65.346300
  H    -96.653900  -19.433600  -65.147400
  C    -97.698500  -18.027100  -66.483500
  H    -98.070700  -17.375400  -65.740100
  H    -96.695600  -17.684300  -66.850800
  H    -98.428600  -17.975700  -67.364300
  S    -94.905500  -26.474100  -65.379700
  C    -93.646100  -26.749600  -64.198400
  C    -93.379400  -25.613900  -63.441600
  C    -94.157700  -24.500000  -63.813600
  C    -95.090300  -24.794300  -64.819900
  H    -92.552000  -25.639800  -62.701900
  C    -94.053600  -23.234900  -62.925300
  H    -94.419900  -22.392100  -63.495600
  H    -93.001000  -23.074300  -62.770100
  C    -94.680200  -23.358600  -61.507200
  H    -94.001300  -23.960400  -60.891200
  H    -95.613100  -23.852700  -61.598300
  C    -94.766400  -21.905400  -60.921500
  H    -95.254800  -21.259300  -61.566900
  H    -93.723800  -21.586100  -61.034200
  H    -95.257200  -21.774300  -59.958900
  H    -99.075300  -22.825200  -67.129900
  H    -93.027600  -27.667900  -64.150600

 Total Charge           Charge          ....    0
 Multiplicity           Mult            ....    1
 Number of Electrons    NEL             ....  134
 Basis Dimension        Dim             ....  322

ORBITAL ENERGIES
----------------

  NO   OCC          E(Eh)            E(eV)
   0   2.0000     -88.969376     -2420.9798
   1   2.0000     -88.966213     -2420.8937
   2   2.0000     -10.334051      -281.2038
   3   2.0000     -10.330479      -281.1066
   4   2.0000     -10.321685      -280.8673
   5   2.0000     -10.321390      -280.8593
   6   2.0000     -10.311401      -280.5875
   7   2.0000     -10.306335      -280.4496
   8   2.0000     -10.296419      -280.1798
   9   2.0000     -10.293700      -280.1058
  10   2.0000     -10.293283      -280.0945
  11   2.0000     -10.292647      -280.0772
  12   2.0000     -10.291161      -280.0367
  13   2.0000     -10.289387      -279.9884
  14   2.0000     -10.287238      -279.9300
  15   2.0000     -10.274918      -279.5947
  16   2.0000      -8.083585      -219.9655
  17   2.0000      -8.080604      -219.8844
  18   2.0000      -6.042052      -164.4126
  19   2.0000      -6.039071      -164.3315
  20   2.0000      -6.038187      -164.3074
  21   2.0000      -6.035185      -164.2257
  22   2.0000      -6.034409      -164.2046
  23   2.0000      -6.031413      -164.1231
  24   2.0000      -1.002909       -27.2905
  25   2.0000      -0.979587       -26.6559
  26   2.0000      -0.907794       -24.7023
  27   2.0000      -0.904907       -24.6238
  28   2.0000      -0.863023       -23.4840
  29   2.0000      -0.852207       -23.1897
  30   2.0000      -0.843191       -22.9444
  31   2.0000      -0.810270       -22.0486
  32   2.0000      -0.781173       -21.2568
  33   2.0000      -0.769834       -20.9482
  34   2.0000      -0.708433       -19.2774
  35   2.0000      -0.702798       -19.1241
  36   2.0000      -0.693708       -18.8768
  37   2.0000      -0.659512       -17.9462
  38   2.0000      -0.641735       -17.4625
  39   2.0000      -0.616831       -16.7848
  40   2.0000      -0.592895       -16.1335
  41   2.0000      -0.569488       -15.4965
  42   2.0000      -0.568053       -15.4575
  43   2.0000      -0.553213       -15.0537
  44   2.0000      -0.526206       -14.3188
  45   2.0000      -0.523996       -14.2587
  46   2.0000      -0.516951       -14.0670
  47   2.0000      -0.508757       -13.8440
  48   2.0000      -0.499744       -13.5987
  49   2.0000      -0.495780       -13.4909
  50   2.0000      -0.489482       -13.3195
  51   2.0000      -0.478767       -13.0279
  52   2.0000      -0.472210       -12.8495
  53   2.0000      -0.463067       -12.6007
  54   2.0000      -0.459614       -12.5067
  55   2.0000      -0.449288       -12.2257
  56   2.0000      -0.442732       -12.0473
  57   2.0000      -0.439554       -11.9609
  58   2.0000      -0.435720       -11.8565
  59   2.0000      -0.430257       -11.7079
  60   2.0000      -0.424163       -11.5421
  61   2.0000      -0.419810       -11.4236
  62   2.0000      -0.416470       -11.3327
  63   2.0000      -0.350749        -9.5444
  64   2.0000      -0.335814        -9.1380
  65   2.0000      -0.331245        -9.0136
  66   2.0000      -0.284588        -7.7440
  67   0.0000       0.022030         0.5995
  68   0.0000       0.071621         1.9489
  69   0.0000       0.099702         2.7130
  70   0.0000       0.121323         3.3014
  71   0.0000       0.126721         3.4483

MULLIKEN ATOMIC CHARGES
-----------------------
   0 S :    0.094654
   1 C :   -0.137618
   2 C :   -0.089452
   3 C :    0.006509
   4 C :   -0.130560
   5 H :    0.018982
   6 C :    0.071158
   7 H :    0.020053
   8 H :    0.015507
   9 C :   -0.055839
  10 H :    0.021749
  11 H :    0.031478
  12 C :   -0.060840
  13 H :    0.037365
  14 H :    0.040634
  15 H :    0.042315
  16 S :    0.103575
  17 C :   -0.107574
  18 C :   -0.049712
  19 C :   -0.049910
  20 C :   -0.137047
  21 H :    0.032359
  22 C :    0.047674
  23 H :    0.005058
  24 H :    0.019958
  25 C :   -0.045923
  26 H :    0.031940
  27 H :    0.036212
  28 C :   -0.018349
  29 H :    0.010019
  30 H :    0.018834
  31 H :    0.045118
  32 H :    0.060176
  33 H :    0.071499
Sum of atomic charges:    0.0000000

LOEWDIN ATOMIC CHARGES
----------------------
   0 S :    0.393370
   1 C :   -0.192785
   2 C :   -0.052463
   3 C :   -0.075810
   4 C :   -0.193032
   5 H :    0.031666
   6 C :   -0.026366
   7 H :    0.029848
   8 H :    0.021666
   9 C :   -0.034318
  10 H :    0.014654
  11 H :    0.029144
  12 C :   -0.067404
  13 H :    0.021382
  14 H :    0.031428
  15 H :    0.031866
  16 S :    0.396356
  17 C :   -0.190332
  18 C :   -0.076112
  19 C :   -0.058785
  20 C :   -0.188337
  21 H :    0.038099
  22 C :   -0.026610
  23 H :    0.020988
  24 H :    0.027567
  25 C :   -0.025140
  26 H :    0.024217
  27 H :    0.018805
  28 C :   -0.061008
  29 H :    0.014020
  30 H :    0.029312
  31 H :    0.028488
  32 H :    0.028504
  33 H :    0.037121

  Mayer bond orders larger than 0.100000
B(  0-S ,  1-C ) :   1.1327 B(  0-S ,  4-C ) :   1.1600 B(  1-C ,  2-C ) :   1.5819
B(  1-C ,  4-C ) :   0.1049 B(  1-C , 32-H ) :   0.9722 B(  2-C ,  3-C ) :   1.2452
B(  2-C ,  6-C ) :   1.0177 B(  3-C ,  4-C ) :   1.5731 B(  3-C ,  5-H ) :   0.9864
B(  4-C , 20-C ) :   1.0421 B(  6-C ,  7-H ) :   0.9441 B(  6-C ,  8-H ) :   0.9409
B(  6-C ,  9-C ) :   1.0567 B(  9-C , 10-H ) :   0.9595 B(  9-C , 11-H ) :   0.9562
B(  9-C , 12-C ) :   1.0727 B( 12-C , 13-H ) :   0.9758 B( 12-C , 14-H ) :   0.9757
B( 12-C , 15-H ) :   0.9760 B( 16-S , 17-C ) :   1.1577 B( 16-S , 20-C ) :   1.1374
B( 17-C , 18-C ) :   1.6010 B( 17-C , 20-C ) :   0.1035 B( 17-C , 33-H ) :   0.9622
B( 18-C , 19-C ) :   1.2531 B( 18-C , 21-H ) :   0.9847 B( 19-C , 20-C ) :   1.5858
B( 19-C , 22-C ) :   1.0454 B( 22-C , 23-H ) :   0.9405 B( 22-C , 24-H ) :   0.9264
B( 22-C , 25-C ) :   1.0547 B( 25-C , 26-H ) :   0.9552 B( 25-C , 27-H ) :   0.9633
B( 25-C , 28-C ) :   1.0688 B( 28-C , 29-H ) :   0.9778 B( 28-C , 30-H ) :   0.9709
B( 28-C , 31-H ) :   0.9742

Dispersion correction           -0.013450294
FINAL SINGLE POINT ENERGY     -1339.876953092717

DIPOLE MOMENT
-------------
                                X             Y             Z
Electronic contribution:     -1.18273     -30.00928     -11.04762
Nuclear contribution   :      1.47307      30.59427      11.25390
                        -----------------------------------------
Total Dipole Moment    :      0.29034       0.58500       0.20628
                        -----------------------------------------
Magnitude (a.u.)       :      0.68488
Magnitude (Debye)      :      1.74084

Rotational constants in cm-1:     0.017558     0.008449     0.006202
Rotational constants in MHz :   526.375782   253.285833   185.917210

                             ****ORCA TERMINATED NORMALLY****
TOTAL RUN TIME: 0 days 0 hours 0 minutes 19 seconds 943 msec
