                         Program Version 4.2.1 -  RELEASE  -
|  1> ! wB97X-D3 SP def2-SVP
|  2> %pal
|  3> nprocs 24
|  4> end
|  5>
|  6> * xyz 0 1
|  7> S 	 -109.603 	 63.5242 	 -2.45928
|  8> C 	 -108.406 	 64.7128 	 -2.80156
|  9> C 	 -108.464 	 65.1937 	 -4.09652
| 10> C 	 -109.59 	 64.6871 	 -4.7823
| 11> C 	 -110.281 	 63.6988 	 -4.05857
| 12> H 	 -109.866 	 64.9565 	 -5.77223
| 13> C 	 -107.529 	 66.1883 	 -4.66893
| 14> H 	 -106.713 	 66.1821 	 -3.95555
| 15> H 	 -108.081 	 67.1002 	 -4.77419
| 16> C 	 -106.884 	 65.7547 	 -5.93959
| 17> H 	 -106.274 	 64.8876 	 -5.8094
| 18> H 	 -107.638 	 65.5441 	 -6.68162
| 19> C 	 -106.08 	 66.9581 	 -6.37144
| 20> H 	 -105.757 	 67.5735 	 -5.51271
| 21> H 	 -105.183 	 66.642 	 -7.00136
| 22> H 	 -106.646 	 67.6671 	 -7.09645
| 23> S 	 -111.114 	 61.2356 	 -4.89985
| 24> C 	 -112.86 	 61.0897 	 -5.20901
| 25> C 	 -113.582 	 62.221 	 -5.05039
| 26> C 	 -112.731 	 63.3038 	 -4.63985
| 27> C 	 -111.39 	 62.9248 	 -4.45724
| 28> H 	 -114.673 	 62.1814 	 -5.20489
| 29> C 	 -113.247 	 64.6915 	 -4.5343
| 30> H 	 -113.463 	 65.0938 	 -5.52701
| 31> H 	 -112.48 	 65.4027 	 -4.32542
| 32> C 	 -114.348 	 65.0353 	 -3.54635
| 33> H 	 -115.31 	 64.6989 	 -4.00779
| 34> H 	 -114.481 	 66.1158 	 -3.4748
| 35> C 	 -114.154 	 64.4887 	 -2.12496
| 36> H 	 -115.058 	 64.7809 	 -1.548
| 37> H 	 -113.224 	 64.8975 	 -1.65667
| 38> H 	 -113.979 	 63.3867 	 -2.23365
| 39> H 	 -107.555 	 64.8435 	 -2.17624
| 40> H 	 -113.26 	 60.1256 	 -5.38023
| 41> *
| 42>
| 43>                          ****END OF INPUT****

CARTESIAN COORDINATES (ANGSTROEM)
---------------------------------
  S    -109.603000   63.524200   -2.459280
  C    -108.406000   64.712800   -2.801560
  C    -108.464000   65.193700   -4.096520
  C    -109.590000   64.687100   -4.782300
  C    -110.281000   63.698800   -4.058570
  H    -109.866000   64.956500   -5.772230
  C    -107.529000   66.188300   -4.668930
  H    -106.713000   66.182100   -3.955550
  H    -108.081000   67.100200   -4.774190
  C    -106.884000   65.754700   -5.939590
  H    -106.274000   64.887600   -5.809400
  H    -107.638000   65.544100   -6.681620
  C    -106.080000   66.958100   -6.371440
  H    -105.757000   67.573500   -5.512710
  H    -105.183000   66.642000   -7.001360
  H    -106.646000   67.667100   -7.096450
  S    -111.114000   61.235600   -4.899850
  C    -112.860000   61.089700   -5.209010
  C    -113.582000   62.221000   -5.050390
  C    -112.731000   63.303800   -4.639850
  C    -111.390000   62.924800   -4.457240
  H    -114.673000   62.181400   -5.204890
  C    -113.247000   64.691500   -4.534300
  H    -113.463000   65.093800   -5.527010
  H    -112.480000   65.402700   -4.325420
  C    -114.348000   65.035300   -3.546350
  H    -115.310000   64.698900   -4.007790
  H    -114.481000   66.115800   -3.474800
  C    -114.154000   64.488700   -2.124960
  H    -115.058000   64.780900   -1.548000
  H    -113.224000   64.897500   -1.656670
  H    -113.979000   63.386700   -2.233650
  H    -107.555000   64.843500   -2.176240
  H    -113.260000   60.125600   -5.380230

 Total Charge           Charge          ....    0
 Multiplicity           Mult            ....    1
 Number of Electrons    NEL             ....  134
 Basis Dimension        Dim             ....  322

ORBITAL ENERGIES
----------------

  NO   OCC          E(Eh)            E(eV)
   0   2.0000     -88.964600     -2420.8498
   1   2.0000     -88.963769     -2420.8272
   2   2.0000     -10.323374      -280.9133
   3   2.0000     -10.322369      -280.8859
   4   2.0000     -10.314135      -280.6619
   5   2.0000     -10.306081      -280.4427
   6   2.0000     -10.305727      -280.4331
   7   2.0000     -10.295357      -280.1509
   8   2.0000     -10.292054      -280.0610
   9   2.0000     -10.291156      -280.0366
  10   2.0000     -10.288102      -279.9535
  11   2.0000     -10.284025      -279.8425
  12   2.0000     -10.283793      -279.8362
  13   2.0000     -10.279896      -279.7302
  14   2.0000     -10.279709      -279.7251
  15   2.0000     -10.279230      -279.7121
  16   2.0000      -8.079951      -219.8667
  17   2.0000      -8.078233      -219.8199
  18   2.0000      -6.038213      -164.3081
  19   2.0000      -6.036678      -164.2664
  20   2.0000      -6.034346      -164.2029
  21   2.0000      -6.032986      -164.1659
  22   2.0000      -6.030970      -164.1110
  23   2.0000      -6.028874      -164.0540
  24   2.0000      -1.007054       -27.4033
  25   2.0000      -0.983439       -26.7607
  26   2.0000      -0.928320       -25.2609
  27   2.0000      -0.907754       -24.7012
  28   2.0000      -0.875415       -23.8213
  29   2.0000      -0.851085       -23.1592
  30   2.0000      -0.844016       -22.9668
  31   2.0000      -0.814127       -22.1535
  32   2.0000      -0.782073       -21.2813
  33   2.0000      -0.765435       -20.8286
  34   2.0000      -0.712874       -19.3983
  35   2.0000      -0.695665       -18.9300
  36   2.0000      -0.688468       -18.7342
  37   2.0000      -0.655011       -17.8238
  38   2.0000      -0.644754       -17.5446
  39   2.0000      -0.624089       -16.9823
  40   2.0000      -0.602149       -16.3853
  41   2.0000      -0.583130       -15.8678
  42   2.0000      -0.565610       -15.3910
  43   2.0000      -0.551733       -15.0134
  44   2.0000      -0.541700       -14.7404
  45   2.0000      -0.525374       -14.2962
  46   2.0000      -0.514569       -14.0021
  47   2.0000      -0.507990       -13.8231
  48   2.0000      -0.503093       -13.6898
  49   2.0000      -0.500135       -13.6094
  50   2.0000      -0.491485       -13.3740
  51   2.0000      -0.473830       -12.8936
  52   2.0000      -0.467121       -12.7110
  53   2.0000      -0.461928       -12.5697
  54   2.0000      -0.455383       -12.3916
  55   2.0000      -0.448672       -12.2090
  56   2.0000      -0.447670       -12.1817
  57   2.0000      -0.439920       -11.9708
  58   2.0000      -0.434659       -11.8277
  59   2.0000      -0.421159       -11.4603
  60   2.0000      -0.418920       -11.3994
  61   2.0000      -0.416062       -11.3216
  62   2.0000      -0.400210       -10.8903
  63   2.0000      -0.339939        -9.2502
  64   2.0000      -0.329997        -8.9797
  65   2.0000      -0.320723        -8.7273
  66   2.0000      -0.301944        -8.2163
  67   0.0000       0.037717         1.0263
  68   0.0000       0.059825         1.6279
  69   0.0000       0.113081         3.0771
  70   0.0000       0.123559         3.3622
  71   0.0000       0.129050         3.5116

MULLIKEN ATOMIC CHARGES
-----------------------
   0 S :    0.124905
   1 C :   -0.112372
   2 C :   -0.109675
   3 C :    0.067650
   4 C :   -0.192197
   5 H :   -0.005465
   6 C :    0.083322
   7 H :    0.011764
   8 H :    0.042539
   9 C :   -0.050994
  10 H :    0.030294
  11 H :    0.025992
  12 C :   -0.095666
  13 H :    0.039777
  14 H :    0.039985
  15 H :    0.044291
  16 S :    0.103949
  17 C :   -0.082997
  18 C :   -0.024683
  19 C :   -0.012737
  20 C :   -0.177223
  21 H :    0.036698
  22 C :    0.087207
  23 H :    0.026559
  24 H :   -0.001044
  25 C :   -0.091761
  26 H :    0.020818
  27 H :    0.024349
  28 C :   -0.072193
  29 H :    0.048972
  30 H :    0.040377
  31 H :    0.051103
  32 H :    0.036788
  33 H :    0.041669
Sum of atomic charges:    0.0000000

LOEWDIN ATOMIC CHARGES
----------------------
   0 S :    0.426619
   1 C :   -0.207937
   2 C :   -0.066394
   3 C :   -0.050110
   4 C :   -0.203125
   5 H :    0.023807
   6 C :   -0.028635
   7 H :    0.031936
   8 H :    0.034882
   9 C :   -0.038628
  10 H :    0.024975
  11 H :    0.021750
  12 C :   -0.076186
  13 H :    0.025206
  14 H :    0.030076
  15 H :    0.033819
  16 S :    0.382725
  17 C :   -0.158198
  18 C :   -0.071582
  19 C :   -0.045092
  20 C :   -0.205332
  21 H :    0.043131
  22 C :   -0.046226
  23 H :    0.037397
  24 H :    0.026838
  25 C :   -0.045838
  26 H :    0.018852
  27 H :    0.023866
  28 C :   -0.071990
  29 H :    0.031910
  30 H :    0.029621
  31 H :    0.031477
  32 H :    0.019361
  33 H :    0.017024

  Mayer bond orders larger than 0.100000
B(  0-S ,  1-C ) :   1.1517 B(  0-S ,  4-C ) :   1.1711 B(  1-C ,  2-C ) :   1.6016
B(  1-C ,  4-C ) :   0.1038 B(  1-C , 32-H ) :   0.9630 B(  2-C ,  3-C ) :   1.2561
B(  2-C ,  6-C ) :   1.0234 B(  3-C ,  4-C ) :   1.5484 B(  3-C ,  5-H ) :   1.0010
B(  4-C , 20-C ) :   1.0519 B(  6-C ,  7-H ) :   0.9279 B(  6-C ,  8-H ) :   0.9379
B(  6-C ,  9-C ) :   1.0832 B(  9-C , 10-H ) :   0.9559 B(  9-C , 11-H ) :   0.9529
B(  9-C , 12-C ) :   1.0750 B( 12-C , 13-H ) :   0.9705 B( 12-C , 14-H ) :   0.9740
B( 12-C , 15-H ) :   0.9748 B( 16-S , 17-C ) :   1.1414 B( 16-S , 20-C ) :   1.1310
B( 17-C , 18-C ) :   1.6502 B( 17-C , 33-H ) :   0.9681 B( 18-C , 19-C ) :   1.1884
B( 18-C , 21-H ) :   0.9894 B( 19-C , 20-C ) :   1.6085 B( 19-C , 22-C ) :   1.0609
B( 22-C , 23-H ) :   0.9275 B( 22-C , 24-H ) :   0.9164 B( 22-C , 25-C ) :   1.0712
B( 25-C , 26-H ) :   0.9547 B( 25-C , 27-H ) :   0.9533 B( 25-C , 28-C ) :   1.0749
B( 28-C , 29-H ) :   0.9727 B( 28-C , 30-H ) :   0.9737 B( 28-C , 31-H ) :   0.9701

Dispersion correction           -0.014573387
FINAL SINGLE POINT ENERGY     -1339.877161848311

DIPOLE MOMENT
-------------
                                X             Y             Z
Electronic contribution:     -0.93017     -20.14942       4.83609
Nuclear contribution   :      0.87923      20.55906      -5.15400
                        -----------------------------------------
Total Dipole Moment    :     -0.05094       0.40964      -0.31791
                        -----------------------------------------
Magnitude (a.u.)       :      0.52102
Magnitude (Debye)      :      1.32434

Rotational constants in cm-1:     0.020901     0.007705     0.007119
Rotational constants in MHz :   626.582759   230.989444   213.418418

                             ****ORCA TERMINATED NORMALLY****
TOTAL RUN TIME: 0 days 0 hours 0 minutes 21 seconds 866 msec
