                         Program Version 4.2.1 -  RELEASE  -
|  1> ! wB97X-D3 SP def2-SVP
|  2> %pal
|  3> nprocs 24
|  4> end
|  5>
|  6> * xyz 0 1
|  7> S 	 0.892526 	 -25.1122 	 -111.453
|  8> C 	 1.63206 	 -25.2457 	 -113.053
|  9> C 	 2.27682 	 -26.4673 	 -113.248
| 10> C 	 1.93691 	 -27.3985 	 -112.202
| 11> C 	 1.16664 	 -26.8598 	 -111.164
| 12> H 	 2.29511 	 -28.4612 	 -112.128
| 13> C 	 2.90158 	 -26.8519 	 -114.48
| 14> H 	 2.86274 	 -25.8781 	 -115.077
| 15> H 	 2.18522 	 -27.5212 	 -114.936
| 16> C 	 4.32638 	 -27.3226 	 -114.45
| 17> H 	 4.99036 	 -26.4699 	 -114.285
| 18> H 	 4.53435 	 -28.1025 	 -113.679
| 19> C 	 4.50963 	 -28.1358 	 -115.774
| 20> H 	 3.81579 	 -28.9677 	 -115.788
| 21> H 	 4.19126 	 -27.5805 	 -116.609
| 22> H 	 5.54799 	 -28.5336 	 -115.747
| 23> S 	 1.38891 	 -26.5708 	 -108.551
| 24> C 	 1.00173 	 -27.8696 	 -107.484
| 25> C 	 0.459304 	 -28.9204 	 -108.134
| 26> C 	 0.485081 	 -28.7457 	 -109.575
| 27> C 	 0.835623 	 -27.4335 	 -109.904
| 28> H 	 0.16872 	 -29.828 	 -107.629
| 29> C 	 -0.000980259 	 -29.7532 	 -110.646
| 30> H 	 -0.121654 	 -29.2199 	 -111.537
| 31> H 	 -1.05661 	 -30.1425 	 -110.377
| 32> C 	 0.941273 	 -30.9833 	 -110.873
| 33> H 	 0.918545 	 -31.5266 	 -109.954
| 34> H 	 1.86606 	 -30.5451 	 -110.928
| 35> C 	 0.490743 	 -31.8738 	 -112.028
| 36> H 	 0.707346 	 -32.8994 	 -111.711
| 37> H 	 1.01431 	 -31.7831 	 -113.026
| 38> H 	 -0.588022 	 -31.7323 	 -112.242
| 39> H 	 1.55125 	 -24.5342 	 -113.817
| 40> H 	 1.22862 	 -27.9978 	 -106.42
| 41> *
| 42>
| 43>                          ****END OF INPUT****

CARTESIAN COORDINATES (ANGSTROEM)
---------------------------------
  S      0.892526  -25.112200  -111.453000
  C      1.632060  -25.245700  -113.053000
  C      2.276820  -26.467300  -113.248000
  C      1.936910  -27.398500  -112.202000
  C      1.166640  -26.859800  -111.164000
  H      2.295110  -28.461200  -112.128000
  C      2.901580  -26.851900  -114.480000
  H      2.862740  -25.878100  -115.077000
  H      2.185220  -27.521200  -114.936000
  C      4.326380  -27.322600  -114.450000
  H      4.990360  -26.469900  -114.285000
  H      4.534350  -28.102500  -113.679000
  C      4.509630  -28.135800  -115.774000
  H      3.815790  -28.967700  -115.788000
  H      4.191260  -27.580500  -116.609000
  H      5.547990  -28.533600  -115.747000
  S      1.388910  -26.570800  -108.551000
  C      1.001730  -27.869600  -107.484000
  C      0.459304  -28.920400  -108.134000
  C      0.485081  -28.745700  -109.575000
  C      0.835623  -27.433500  -109.904000
  H      0.168720  -29.828000  -107.629000
  C     -0.000980  -29.753200  -110.646000
  H     -0.121654  -29.219900  -111.537000
  H     -1.056610  -30.142500  -110.377000
  C      0.941273  -30.983300  -110.873000
  H      0.918545  -31.526600  -109.954000
  H      1.866060  -30.545100  -110.928000
  C      0.490743  -31.873800  -112.028000
  H      0.707346  -32.899400  -111.711000
  H      1.014310  -31.783100  -113.026000
  H     -0.588022  -31.732300  -112.242000
  H      1.551250  -24.534200  -113.817000
  H      1.228620  -27.997800  -106.420000

 Total Charge           Charge          ....    0
 Multiplicity           Mult            ....    1
 Number of Electrons    NEL             ....  134
 Basis Dimension        Dim             ....  322

ORBITAL ENERGIES
----------------

  NO   OCC          E(Eh)            E(eV)
   0   2.0000     -88.965371     -2420.8708
   1   2.0000     -88.965129     -2420.8642
   2   2.0000     -10.332272      -281.1554
   3   2.0000     -10.319686      -280.8129
   4   2.0000     -10.312172      -280.6085
   5   2.0000     -10.311479      -280.5896
   6   2.0000     -10.304866      -280.4096
   7   2.0000     -10.300184      -280.2822
   8   2.0000     -10.297406      -280.2067
   9   2.0000     -10.292824      -280.0820
  10   2.0000     -10.292116      -280.0627
  11   2.0000     -10.291829      -280.0549
  12   2.0000     -10.288811      -279.9728
  13   2.0000     -10.286403      -279.9073
  14   2.0000     -10.279923      -279.7309
  15   2.0000     -10.279319      -279.7145
  16   2.0000      -8.081619      -219.9120
  17   2.0000      -8.079016      -219.8412
  18   2.0000      -6.040113      -164.3598
  19   2.0000      -6.037616      -164.2919
  20   2.0000      -6.035917      -164.2457
  21   2.0000      -6.033780      -164.1875
  22   2.0000      -6.032250      -164.1459
  23   2.0000      -6.029594      -164.0736
  24   2.0000      -1.013348       -27.5746
  25   2.0000      -0.982627       -26.7386
  26   2.0000      -0.922833       -25.1116
  27   2.0000      -0.906599       -24.6698
  28   2.0000      -0.876876       -23.8610
  29   2.0000      -0.851296       -23.1649
  30   2.0000      -0.846219       -23.0268
  31   2.0000      -0.816716       -22.2240
  32   2.0000      -0.779295       -21.2057
  33   2.0000      -0.766813       -20.8660
  34   2.0000      -0.714160       -19.4333
  35   2.0000      -0.703577       -19.1453
  36   2.0000      -0.699558       -19.0360
  37   2.0000      -0.660206       -17.9651
  38   2.0000      -0.638146       -17.3648
  39   2.0000      -0.618825       -16.8391
  40   2.0000      -0.594205       -16.1691
  41   2.0000      -0.571393       -15.5484
  42   2.0000      -0.569036       -15.4842
  43   2.0000      -0.562632       -15.3100
  44   2.0000      -0.533314       -14.5122
  45   2.0000      -0.526254       -14.3201
  46   2.0000      -0.518037       -14.0965
  47   2.0000      -0.517217       -14.0742
  48   2.0000      -0.504834       -13.7372
  49   2.0000      -0.498311       -13.5597
  50   2.0000      -0.487357       -13.2617
  51   2.0000      -0.486607       -13.2412
  52   2.0000      -0.473596       -12.8872
  53   2.0000      -0.461547       -12.5593
  54   2.0000      -0.460540       -12.5319
  55   2.0000      -0.452601       -12.3159
  56   2.0000      -0.445184       -12.1141
  57   2.0000      -0.437096       -11.8940
  58   2.0000      -0.435828       -11.8595
  59   2.0000      -0.425463       -11.5774
  60   2.0000      -0.420270       -11.4361
  61   2.0000      -0.416221       -11.3259
  62   2.0000      -0.408946       -11.1280
  63   2.0000      -0.356309        -9.6957
  64   2.0000      -0.329450        -8.9648
  65   2.0000      -0.326404        -8.8819
  66   2.0000      -0.285093        -7.7578
  67   0.0000       0.029135         0.7928
  68   0.0000       0.068489         1.8637
  69   0.0000       0.110937         3.0187
  70   0.0000       0.116277         3.1641
  71   0.0000       0.123292         3.3549

MULLIKEN ATOMIC CHARGES
-----------------------
   0 S :    0.094416
   1 C :   -0.097173
   2 C :   -0.072345
   3 C :    0.012512
   4 C :   -0.157862
   5 H :    0.027725
   6 C :    0.011323
   7 H :    0.023567
   8 H :    0.039631
   9 C :   -0.073507
  10 H :    0.043279
  11 H :    0.037994
  12 C :   -0.032909
  13 H :    0.021769
  14 H :    0.021198
  15 H :    0.045171
  16 S :    0.118499
  17 C :   -0.084528
  18 C :   -0.021811
  19 C :   -0.074159
  20 C :   -0.115873
  21 H :    0.014331
  22 C :    0.017800
  23 H :    0.014898
  24 H :    0.038993
  25 C :   -0.023253
  26 H :    0.018546
  27 H :    0.006812
  28 C :   -0.062278
  29 H :    0.036672
  30 H :    0.042767
  31 H :    0.041406
  32 H :    0.026753
  33 H :    0.059635
Sum of atomic charges:   -0.0000000

LOEWDIN ATOMIC CHARGES
----------------------
   0 S :    0.373859
   1 C :   -0.184802
   2 C :   -0.063760
   3 C :   -0.065444
   4 C :   -0.177876
   5 H :    0.037510
   6 C :   -0.045193
   7 H :    0.040351
   8 H :    0.035173
   9 C :   -0.037230
  10 H :    0.029077
  11 H :    0.027192
  12 C :   -0.058152
  13 H :    0.023306
  14 H :    0.016524
  15 H :    0.030735
  16 S :    0.440795
  17 C :   -0.199957
  18 C :   -0.069609
  19 C :   -0.055696
  20 C :   -0.219975
  21 H :    0.030347
  22 C :   -0.029458
  23 H :    0.016289
  24 H :    0.035201
  25 C :   -0.034030
  26 H :    0.021812
  27 H :    0.009271
  28 C :   -0.072650
  29 H :    0.030025
  30 H :    0.032565
  31 H :    0.030465
  32 H :    0.015136
  33 H :    0.038201

  Mayer bond orders larger than 0.100000
B(  0-S ,  1-C ) :   1.1225 B(  0-S ,  4-C ) :   1.1296 B(  1-C ,  2-C ) :   1.6153
B(  1-C , 32-H ) :   0.9702 B(  2-C ,  3-C ) :   1.2198 B(  2-C ,  6-C ) :   1.0405
B(  3-C ,  4-C ) :   1.5808 B(  3-C ,  5-H ) :   0.9772 B(  4-C , 20-C ) :   1.0491
B(  6-C ,  7-H ) :   0.9291 B(  6-C ,  8-H ) :   0.9454 B(  6-C ,  9-C ) :   1.0527
B(  9-C , 10-H ) :   0.9533 B(  9-C , 11-H ) :   0.9651 B(  9-C , 12-C ) :   1.0632
B( 12-C , 13-H ) :   0.9776 B( 12-C , 14-H ) :   0.9730 B( 12-C , 15-H ) :   0.9744
B( 16-S , 17-C ) :   1.1487 B( 16-S , 20-C ) :   1.1542 B( 17-C , 18-C ) :   1.6264
B( 17-C , 33-H ) :   0.9615 B( 18-C , 19-C ) :   1.2348 B( 18-C , 21-H ) :   0.9911
B( 19-C , 20-C ) :   1.5823 B( 19-C , 22-C ) :   1.0490 B( 22-C , 23-H ) :   0.9405
B( 22-C , 24-H ) :   0.9391 B( 22-C , 25-C ) :   1.0506 B( 25-C , 26-H ) :   0.9602
B( 25-C , 27-H ) :   0.9569 B( 25-C , 28-C ) :   1.0641 B( 28-C , 29-H ) :   0.9772
B( 28-C , 30-H ) :   0.9760 B( 28-C , 31-H ) :   0.9754

Dispersion correction           -0.013898543
FINAL SINGLE POINT ENERGY     -1339.856793280950

DIPOLE MOMENT
-------------
                                X             Y             Z
Electronic contribution:     -7.67192      22.67970      21.01744
Nuclear contribution   :      7.91551     -23.35127     -21.35786
                        -----------------------------------------
Total Dipole Moment    :      0.24359      -0.67156      -0.34042
                        -----------------------------------------
Magnitude (a.u.)       :      0.79134
Magnitude (Debye)      :      2.01142

Rotational constants in cm-1:     0.016314     0.009539     0.006754
Rotational constants in MHz :   489.078560   285.985276   202.482370

                             ****ORCA TERMINATED NORMALLY****
TOTAL RUN TIME: 0 days 0 hours 0 minutes 21 seconds 905 msec
