                         Program Version 4.2.1 -  RELEASE  -
|  1> ! wB97X-D3 SP def2-SVP
|  2> %pal
|  3> nprocs 24
|  4> end
|  5>
|  6> * xyz 0 1
|  7> S 	 46.7603 	 -18.1214 	 -110.848
|  8> C 	 45.8593 	 -18.5692 	 -112.296
|  9> C 	 45.4747 	 -19.9573 	 -112.241
| 10> C 	 46.0347 	 -20.6311 	 -111.098
| 11> C 	 46.8715 	 -19.7935 	 -110.412
| 12> H 	 45.9316 	 -21.6723 	 -110.74
| 13> C 	 44.4207 	 -20.6486 	 -113.077
| 14> H 	 44.0035 	 -19.8297 	 -113.763
| 15> H 	 43.4959 	 -21.0128 	 -112.507
| 16> C 	 44.9322 	 -21.8075 	 -113.89
| 17> H 	 45.9418 	 -21.5643 	 -114.279
| 18> H 	 45.2738 	 -22.6751 	 -113.232
| 19> C 	 44.1371 	 -22.1904 	 -115.112
| 20> H 	 44.6518 	 -22.8056 	 -115.818
| 21> H 	 43.3179 	 -22.8682 	 -114.827
| 22> H 	 43.6753 	 -21.4265 	 -115.665
| 23> S 	 49.266 	 -21.0645 	 -109.603
| 24> C 	 49.5747 	 -21.0694 	 -107.868
| 25> C 	 48.5848 	 -20.4777 	 -107.11
| 26> C 	 47.5163 	 -19.9152 	 -107.892
| 27> C 	 47.7046 	 -20.1971 	 -109.249
| 28> H 	 48.7256 	 -20.4944 	 -105.992
| 29> C 	 46.3092 	 -19.3092 	 -107.235
| 30> H 	 45.5554 	 -20.0211 	 -106.919
| 31> H 	 45.8114 	 -18.8511 	 -108.053
| 32> C 	 46.6771 	 -18.3106 	 -106.121
| 33> H 	 47.3131 	 -17.5157 	 -106.513
| 34> H 	 47.0774 	 -18.8366 	 -105.311
| 35> C 	 45.4041 	 -17.7764 	 -105.561
| 36> H 	 45.4911 	 -17.2197 	 -104.674
| 37> H 	 44.7078 	 -18.5627 	 -105.265
| 38> H 	 45.039 	 -17.0738 	 -106.263
| 39> H 	 45.5864 	 -17.8695 	 -113.049
| 40> H 	 50.5065 	 -21.4354 	 -107.426
| 41> *
| 42>
| 43>                          ****END OF INPUT****

CARTESIAN COORDINATES (ANGSTROEM)
---------------------------------
  S     46.760300  -18.121400  -110.848000
  C     45.859300  -18.569200  -112.296000
  C     45.474700  -19.957300  -112.241000
  C     46.034700  -20.631100  -111.098000
  C     46.871500  -19.793500  -110.412000
  H     45.931600  -21.672300  -110.740000
  C     44.420700  -20.648600  -113.077000
  H     44.003500  -19.829700  -113.763000
  H     43.495900  -21.012800  -112.507000
  C     44.932200  -21.807500  -113.890000
  H     45.941800  -21.564300  -114.279000
  H     45.273800  -22.675100  -113.232000
  C     44.137100  -22.190400  -115.112000
  H     44.651800  -22.805600  -115.818000
  H     43.317900  -22.868200  -114.827000
  H     43.675300  -21.426500  -115.665000
  S     49.266000  -21.064500  -109.603000
  C     49.574700  -21.069400  -107.868000
  C     48.584800  -20.477700  -107.110000
  C     47.516300  -19.915200  -107.892000
  C     47.704600  -20.197100  -109.249000
  H     48.725600  -20.494400  -105.992000
  C     46.309200  -19.309200  -107.235000
  H     45.555400  -20.021100  -106.919000
  H     45.811400  -18.851100  -108.053000
  C     46.677100  -18.310600  -106.121000
  H     47.313100  -17.515700  -106.513000
  H     47.077400  -18.836600  -105.311000
  C     45.404100  -17.776400  -105.561000
  H     45.491100  -17.219700  -104.674000
  H     44.707800  -18.562700  -105.265000
  H     45.039000  -17.073800  -106.263000
  H     45.586400  -17.869500  -113.049000
  H     50.506500  -21.435400  -107.426000

 Total Charge           Charge          ....    0
 Multiplicity           Mult            ....    1
 Number of Electrons    NEL             ....  134
 Basis Dimension        Dim             ....  322

ORBITAL ENERGIES
----------------

  NO   OCC          E(Eh)            E(eV)
   0   2.0000     -88.970088     -2420.9992
   1   2.0000     -88.966092     -2420.8904
   2   2.0000     -10.329264      -281.0736
   3   2.0000     -10.325048      -280.9588
   4   2.0000     -10.320105      -280.8243
   5   2.0000     -10.316235      -280.7190
   6   2.0000     -10.310445      -280.5615
   7   2.0000     -10.304094      -280.3887
   8   2.0000     -10.300843      -280.3002
   9   2.0000     -10.294952      -280.1399
  10   2.0000     -10.294905      -280.1386
  11   2.0000     -10.287542      -279.9382
  12   2.0000     -10.284254      -279.8488
  13   2.0000     -10.278675      -279.6970
  14   2.0000     -10.270860      -279.4843
  15   2.0000     -10.264571      -279.3132
  16   2.0000      -8.084477      -219.9898
  17   2.0000      -8.079535      -219.8553
  18   2.0000      -6.042871      -164.4349
  19   2.0000      -6.039174      -164.3343
  20   2.0000      -6.038046      -164.3036
  21   2.0000      -6.035249      -164.2275
  22   2.0000      -6.034419      -164.2049
  23   2.0000      -6.030189      -164.0898
  24   2.0000      -0.999576       -27.1999
  25   2.0000      -0.975131       -26.5347
  26   2.0000      -0.916713       -24.9450
  27   2.0000      -0.910856       -24.7857
  28   2.0000      -0.861700       -23.4480
  29   2.0000      -0.852609       -23.2007
  30   2.0000      -0.850438       -23.1416
  31   2.0000      -0.810242       -22.0478
  32   2.0000      -0.783734       -21.3265
  33   2.0000      -0.767784       -20.8925
  34   2.0000      -0.705681       -19.2026
  35   2.0000      -0.699842       -19.0437
  36   2.0000      -0.689483       -18.7618
  37   2.0000      -0.652452       -17.7541
  38   2.0000      -0.639138       -17.3918
  39   2.0000      -0.614419       -16.7192
  40   2.0000      -0.596803       -16.2398
  41   2.0000      -0.583039       -15.8653
  42   2.0000      -0.563902       -15.3445
  43   2.0000      -0.549478       -14.9521
  44   2.0000      -0.529096       -14.3974
  45   2.0000      -0.522746       -14.2247
  46   2.0000      -0.515438       -14.0258
  47   2.0000      -0.511156       -13.9092
  48   2.0000      -0.506941       -13.7946
  49   2.0000      -0.495376       -13.4799
  50   2.0000      -0.487553       -13.2670
  51   2.0000      -0.477972       -13.0063
  52   2.0000      -0.466239       -12.6870
  53   2.0000      -0.459726       -12.5098
  54   2.0000      -0.458335       -12.4719
  55   2.0000      -0.453456       -12.3392
  56   2.0000      -0.444503       -12.0955
  57   2.0000      -0.438916       -11.9435
  58   2.0000      -0.436947       -11.8899
  59   2.0000      -0.425890       -11.5891
  60   2.0000      -0.421287       -11.4638
  61   2.0000      -0.416616       -11.3367
  62   2.0000      -0.395050       -10.7499
  63   2.0000      -0.335814        -9.1380
  64   2.0000      -0.330264        -8.9869
  65   2.0000      -0.324429        -8.8282
  66   2.0000      -0.297859        -8.1052
  67   0.0000       0.039796         1.0829
  68   0.0000       0.053374         1.4524
  69   0.0000       0.095464         2.5977
  70   0.0000       0.111068         3.0223
  71   0.0000       0.130277         3.5450

MULLIKEN ATOMIC CHARGES
-----------------------
   0 S :    0.130435
   1 C :   -0.119401
   2 C :   -0.066978
   3 C :    0.033489
   4 C :   -0.190888
   5 H :    0.036060
   6 C :    0.028126
   7 H :    0.023288
   8 H :    0.055710
   9 C :   -0.105370
  10 H :    0.024787
  11 H :    0.036140
  12 C :   -0.006331
  13 H :    0.022092
  14 H :    0.018361
  15 H :    0.020348
  16 S :    0.105005
  17 C :   -0.105583
  18 C :   -0.051592
  19 C :   -0.010045
  20 C :   -0.183731
  21 H :    0.040805
  22 C :    0.091083
  23 H :    0.033343
  24 H :   -0.004959
  25 C :   -0.062674
  26 H :    0.040735
  27 H :    0.018802
  28 C :   -0.007751
  29 H :    0.010457
  30 H :    0.024780
  31 H :    0.020019
  32 H :    0.043460
  33 H :    0.057979
Sum of atomic charges:    0.0000000

LOEWDIN ATOMIC CHARGES
----------------------
   0 S :    0.417448
   1 C :   -0.195290
   2 C :   -0.053632
   3 C :   -0.063417
   4 C :   -0.202262
   5 H :    0.043261
   6 C :   -0.044550
   7 H :    0.034183
   8 H :    0.041405
   9 C :   -0.059571
  10 H :    0.026169
  11 H :    0.031965
  12 C :   -0.064373
  13 H :    0.025865
  14 H :    0.026779
  15 H :    0.019784
  16 S :    0.371564
  17 C :   -0.182877
  18 C :   -0.079725
  19 C :   -0.052405
  20 C :   -0.183537
  21 H :    0.041351
  22 C :   -0.029121
  23 H :    0.035233
  24 H :    0.020168
  25 C :   -0.029406
  26 H :    0.031395
  27 H :    0.016073
  28 C :   -0.058978
  29 H :    0.017297
  30 H :    0.027151
  31 H :    0.021796
  32 H :    0.020421
  33 H :    0.029839

  Mayer bond orders larger than 0.100000
B(  0-S ,  1-C ) :   1.1413 B(  0-S ,  4-C ) :   1.1582 B(  1-C ,  2-C ) :   1.5892
B(  1-C , 32-H ) :   0.9747 B(  2-C ,  3-C ) :   1.2158 B(  2-C ,  6-C ) :   1.0394
B(  3-C ,  4-C ) :   1.5990 B(  3-C ,  5-H ) :   0.9873 B(  4-C , 20-C ) :   1.0114
B(  6-C ,  7-H ) :   0.9421 B(  6-C ,  8-H ) :   0.9429 B(  6-C ,  9-C ) :   1.0469
B(  9-C , 10-H ) :   0.9574 B(  9-C , 11-H ) :   0.9489 B(  9-C , 12-C ) :   1.0863
B( 12-C , 13-H ) :   0.9733 B( 12-C , 14-H ) :   0.9698 B( 12-C , 15-H ) :   0.9738
B( 16-S , 17-C ) :   1.1404 B( 16-S , 20-C ) :   1.1244 B( 17-C , 18-C ) :   1.6588
B( 17-C , 33-H ) :   0.9609 B( 18-C , 19-C ) :   1.1965 B( 18-C , 21-H ) :   0.9769
B( 19-C , 20-C ) :   1.6227 B( 19-C , 22-C ) :   1.0404 B( 22-C , 23-H ) :   0.9332
B( 22-C , 24-H ) :   0.9168 B( 22-C , 25-C ) :   1.0659 B( 25-C , 26-H ) :   0.9576
B( 25-C , 27-H ) :   0.9493 B( 25-C , 28-C ) :   1.1003 B( 28-C , 29-H ) :   0.9690
B( 28-C , 30-H ) :   0.9674 B( 28-C , 31-H ) :   0.9730

Dispersion correction           -0.013710184
FINAL SINGLE POINT ENERGY     -1339.858368710525

DIPOLE MOMENT
-------------
                                X             Y             Z
Electronic contribution:     17.95323       2.68042       0.16607
Nuclear contribution   :    -18.36289      -2.76012       0.05069
                        -----------------------------------------
Total Dipole Moment    :     -0.40966      -0.07970       0.21677
                        -----------------------------------------
Magnitude (a.u.)       :      0.47028
Magnitude (Debye)      :      1.19536

Rotational constants in cm-1:     0.020600     0.007271     0.006180
Rotational constants in MHz :   617.565173   217.971528   185.273597

                             ****ORCA TERMINATED NORMALLY****
TOTAL RUN TIME: 0 days 0 hours 0 minutes 19 seconds 638 msec
