                         Program Version 4.2.1 -  RELEASE  -
|  1> ! wB97X-D3 SP def2-SVP
|  2> %pal
|  3> nprocs 24
|  4> end
|  5>
|  6> * xyz 0 1
|  7> S 	 -66.2373 	 8.51675 	 -77.4285
|  8> C 	 -65.4536 	 6.96805 	 -77.7648
|  9> C 	 -65.9655 	 6.33639 	 -78.8794
| 10> C 	 -67.1525 	 6.95804 	 -79.3504
| 11> C 	 -67.3448 	 8.18731 	 -78.7662
| 12> H 	 -67.7627 	 6.67818 	 -80.2493
| 13> C 	 -65.4889 	 5.01786 	 -79.4435
| 14> H 	 -66.2478 	 4.22874 	 -79.3155
| 15> H 	 -64.6348 	 4.55638 	 -78.8835
| 16> C 	 -65.1385 	 5.14249 	 -80.908
| 17> H 	 -66.0679 	 5.3987 	 -81.4441
| 18> H 	 -64.4152 	 5.92373 	 -80.8661
| 19> C 	 -64.5608 	 3.92951 	 -81.5216
| 20> H 	 -65.3992 	 3.27394 	 -81.6535
| 21> H 	 -64.0517 	 4.16362 	 -82.4488
| 22> H 	 -63.8015 	 3.52088 	 -80.9125
| 23> S 	 -67.6862 	 10.7195 	 -79.7608
| 24> C 	 -69.2387 	 11.4294 	 -79.7326
| 25> C 	 -70.2315 	 10.5441 	 -79.5535
| 26> C 	 -69.7042 	 9.22444 	 -79.2811
| 27> C 	 -68.2996 	 9.19838 	 -79.1877
| 28> H 	 -71.2401 	 10.8627 	 -79.3996
| 29> C 	 -70.6552 	 8.12545 	 -78.95
| 30> H 	 -70.1341 	 7.16927 	 -78.7942
| 31> H 	 -71.3637 	 8.03682 	 -79.7357
| 32> C 	 -71.4583 	 8.37815 	 -77.6829
| 33> H 	 -72.0335 	 9.28853 	 -77.7374
| 34> H 	 -70.6807 	 8.51427 	 -76.903
| 35> C 	 -72.3554 	 7.22648 	 -77.3825
| 36> H 	 -73.0778 	 7.36003 	 -76.5216
| 37> H 	 -71.7865 	 6.26659 	 -77.3411
| 38> H 	 -72.9952 	 6.99415 	 -78.2459
| 39> H 	 -64.6556 	 6.59048 	 -77.1667
| 40> H 	 -69.5869 	 12.4694 	 -79.9972
| 41> *
| 42>
| 43>                          ****END OF INPUT****

CARTESIAN COORDINATES (ANGSTROEM)
---------------------------------
  S    -66.237300    8.516750  -77.428500
  C    -65.453600    6.968050  -77.764800
  C    -65.965500    6.336390  -78.879400
  C    -67.152500    6.958040  -79.350400
  C    -67.344800    8.187310  -78.766200
  H    -67.762700    6.678180  -80.249300
  C    -65.488900    5.017860  -79.443500
  H    -66.247800    4.228740  -79.315500
  H    -64.634800    4.556380  -78.883500
  C    -65.138500    5.142490  -80.908000
  H    -66.067900    5.398700  -81.444100
  H    -64.415200    5.923730  -80.866100
  C    -64.560800    3.929510  -81.521600
  H    -65.399200    3.273940  -81.653500
  H    -64.051700    4.163620  -82.448800
  H    -63.801500    3.520880  -80.912500
  S    -67.686200   10.719500  -79.760800
  C    -69.238700   11.429400  -79.732600
  C    -70.231500   10.544100  -79.553500
  C    -69.704200    9.224440  -79.281100
  C    -68.299600    9.198380  -79.187700
  H    -71.240100   10.862700  -79.399600
  C    -70.655200    8.125450  -78.950000
  H    -70.134100    7.169270  -78.794200
  H    -71.363700    8.036820  -79.735700
  C    -71.458300    8.378150  -77.682900
  H    -72.033500    9.288530  -77.737400
  H    -70.680700    8.514270  -76.903000
  C    -72.355400    7.226480  -77.382500
  H    -73.077800    7.360030  -76.521600
  H    -71.786500    6.266590  -77.341100
  H    -72.995200    6.994150  -78.245900
  H    -64.655600    6.590480  -77.166700
  H    -69.586900   12.469400  -79.997200

 Total Charge           Charge          ....    0
 Multiplicity           Mult            ....    1
 Number of Electrons    NEL             ....  134
 Basis Dimension        Dim             ....  322

ORBITAL ENERGIES
----------------

  NO   OCC          E(Eh)            E(eV)
   0   2.0000     -88.968880     -2420.9663
   1   2.0000     -88.962420     -2420.7905
   2   2.0000     -10.330421      -281.1051
   3   2.0000     -10.323792      -280.9247
   4   2.0000     -10.314523      -280.6724
   5   2.0000     -10.311304      -280.5849
   6   2.0000     -10.302125      -280.3351
   7   2.0000     -10.301946      -280.3302
   8   2.0000     -10.298447      -280.2350
   9   2.0000     -10.292105      -280.0624
  10   2.0000     -10.285096      -279.8717
  11   2.0000     -10.282837      -279.8102
  12   2.0000     -10.280886      -279.7571
  13   2.0000     -10.280331      -279.7420
  14   2.0000     -10.277310      -279.6598
  15   2.0000     -10.268961      -279.4326
  16   2.0000      -8.083107      -219.9525
  17   2.0000      -8.078242      -219.8201
  18   2.0000      -6.041541      -164.3987
  19   2.0000      -6.037842      -164.2980
  20   2.0000      -6.036776      -164.2690
  21   2.0000      -6.033817      -164.1885
  22   2.0000      -6.032627      -164.1561
  23   2.0000      -6.028865      -164.0538
  24   2.0000      -1.009520       -27.4704
  25   2.0000      -0.987578       -26.8734
  26   2.0000      -0.922344       -25.0983
  27   2.0000      -0.917624       -24.9698
  28   2.0000      -0.874191       -23.7879
  29   2.0000      -0.853635       -23.2286
  30   2.0000      -0.848965       -23.1015
  31   2.0000      -0.817985       -22.2585
  32   2.0000      -0.783809       -21.3285
  33   2.0000      -0.767083       -20.8734
  34   2.0000      -0.706669       -19.2295
  35   2.0000      -0.693938       -18.8830
  36   2.0000      -0.689336       -18.7578
  37   2.0000      -0.655956       -17.8495
  38   2.0000      -0.643913       -17.5218
  39   2.0000      -0.623093       -16.9552
  40   2.0000      -0.597074       -16.2472
  41   2.0000      -0.586106       -15.9488
  42   2.0000      -0.572568       -15.5804
  43   2.0000      -0.565510       -15.3883
  44   2.0000      -0.525297       -14.2941
  45   2.0000      -0.520933       -14.1753
  46   2.0000      -0.514081       -13.9889
  47   2.0000      -0.512574       -13.9479
  48   2.0000      -0.509334       -13.8597
  49   2.0000      -0.498976       -13.5778
  50   2.0000      -0.495155       -13.4738
  51   2.0000      -0.475901       -12.9499
  52   2.0000      -0.472976       -12.8703
  53   2.0000      -0.468669       -12.7531
  54   2.0000      -0.456804       -12.4303
  55   2.0000      -0.452192       -12.3048
  56   2.0000      -0.445979       -12.1357
  57   2.0000      -0.432245       -11.7620
  58   2.0000      -0.428898       -11.6709
  59   2.0000      -0.425025       -11.5655
  60   2.0000      -0.420574       -11.4444
  61   2.0000      -0.419094       -11.4041
  62   2.0000      -0.413118       -11.2415
  63   2.0000      -0.346021        -9.4157
  64   2.0000      -0.332831        -9.0568
  65   2.0000      -0.325780        -8.8649
  66   2.0000      -0.294266        -8.0074
  67   0.0000       0.034969         0.9515
  68   0.0000       0.068835         1.8731
  69   0.0000       0.114306         3.1104
  70   0.0000       0.116533         3.1710
  71   0.0000       0.126490         3.4420

MULLIKEN ATOMIC CHARGES
-----------------------
   0 S :    0.119369
   1 C :   -0.114095
   2 C :   -0.059246
   3 C :    0.027480
   4 C :   -0.173087
   5 H :    0.044004
   6 C :    0.040030
   7 H :    0.025124
   8 H :    0.013523
   9 C :   -0.103129
  10 H :    0.032744
  11 H :    0.022703
  12 C :    0.020780
  13 H :    0.025557
  14 H :    0.032821
  15 H :    0.011554
  16 S :    0.118451
  17 C :   -0.086187
  18 C :   -0.047665
  19 C :   -0.022005
  20 C :   -0.177641
  21 H :    0.017239
  22 C :    0.072777
  23 H :    0.018182
  24 H :    0.013195
  25 C :   -0.083350
  26 H :    0.023156
  27 H :    0.036892
  28 C :   -0.043727
  29 H :    0.049970
  30 H :    0.026803
  31 H :    0.012503
  32 H :    0.038731
  33 H :    0.066544
Sum of atomic charges:   -0.0000000

LOEWDIN ATOMIC CHARGES
----------------------
   0 S :    0.394948
   1 C :   -0.183315
   2 C :   -0.061380
   3 C :   -0.060687
   4 C :   -0.188398
   5 H :    0.044107
   6 C :   -0.036353
   7 H :    0.027205
   8 H :    0.028400
   9 C :   -0.042518
  10 H :    0.025689
  11 H :    0.021017
  12 C :   -0.055598
  13 H :    0.025628
  14 H :    0.029934
  15 H :    0.018383
  16 S :    0.422443
  17 C :   -0.204725
  18 C :   -0.077523
  19 C :   -0.048891
  20 C :   -0.212219
  21 H :    0.029016
  22 C :   -0.031979
  23 H :    0.030128
  24 H :    0.024747
  25 C :   -0.042466
  26 H :    0.018479
  27 H :    0.029554
  28 C :   -0.076253
  29 H :    0.033748
  30 H :    0.028956
  31 H :    0.022875
  32 H :    0.021843
  33 H :    0.045203

  Mayer bond orders larger than 0.100000
B(  0-S ,  1-C ) :   1.1237 B(  0-S ,  4-C ) :   1.1473 B(  1-C ,  2-C ) :   1.6311
B(  1-C , 32-H ) :   0.9720 B(  2-C ,  3-C ) :   1.2151 B(  2-C ,  6-C ) :   1.0303
B(  3-C ,  4-C ) :   1.6078 B(  3-C ,  5-H ) :   0.9769 B(  4-C , 20-C ) :   1.0377
B(  6-C ,  7-H ) :   0.9387 B(  6-C ,  8-H ) :   0.9419 B(  6-C ,  9-C ) :   1.0535
B(  9-C , 10-H ) :   0.9541 B(  9-C , 11-H ) :   0.9556 B(  9-C , 12-C ) :   1.1014
B( 12-C , 13-H ) :   0.9718 B( 12-C , 14-H ) :   0.9700 B( 12-C , 15-H ) :   0.9678
B( 16-S , 17-C ) :   1.1510 B( 16-S , 20-C ) :   1.1407 B( 17-C , 18-C ) :   1.6483
B( 17-C , 33-H ) :   0.9516 B( 18-C , 19-C ) :   1.2193 B( 18-C , 21-H ) :   0.9905
B( 19-C , 20-C ) :   1.5930 B( 19-C , 22-C ) :   1.0701 B( 22-C , 23-H ) :   0.9355
B( 22-C , 24-H ) :   0.9204 B( 22-C , 25-C ) :   1.0662 B( 25-C , 26-H ) :   0.9510
B( 25-C , 27-H ) :   0.9532 B( 25-C , 28-C ) :   1.0938 B( 28-C , 29-H ) :   0.9717
B( 28-C , 30-H ) :   0.9680 B( 28-C , 31-H ) :   0.9655

Dispersion correction           -0.013582916
FINAL SINGLE POINT ENERGY     -1339.876273213473

DIPOLE MOMENT
-------------
                                X             Y             Z
Electronic contribution:      8.59016      22.08255       4.54541
Nuclear contribution   :     -8.85451     -22.52289      -4.71763
                        -----------------------------------------
Total Dipole Moment    :     -0.26434      -0.44035      -0.17222
                        -----------------------------------------
Magnitude (a.u.)       :      0.54170
Magnitude (Debye)      :      1.37690

Rotational constants in cm-1:     0.018373     0.007751     0.006792
Rotational constants in MHz :   550.805200   232.363256   203.611129

                             ****ORCA TERMINATED NORMALLY****
TOTAL RUN TIME: 0 days 0 hours 0 minutes 21 seconds 210 msec
