                         Program Version 4.2.1 -  RELEASE  -
|  1> ! wB97X-D3 SP def2-SVP
|  2> %pal
|  3> nprocs 24
|  4> end
|  5>
|  6> * xyz 0 1
|  7> S 	 -67.9736 	 2.57997 	 -71.2557
|  8> C 	 -68.4025 	 3.20184 	 -72.8338
|  9> C 	 -68.0705 	 2.3312 	 -73.84
| 10> C 	 -67.4942 	 1.15395 	 -73.3436
| 11> C 	 -67.3698 	 1.08615 	 -71.9616
| 12> H 	 -67.1926 	 0.219932 	 -73.9868
| 13> C 	 -68.4557 	 2.49255 	 -75.3186
| 14> H 	 -67.7706 	 1.78146 	 -75.7883
| 15> H 	 -68.1717 	 3.52064 	 -75.5698
| 16> C 	 -69.8995 	 2.1105 	 -75.6711
| 17> H 	 -70.4529 	 2.61707 	 -74.9007
| 18> H 	 -70.1186 	 2.31032 	 -76.7188
| 19> C 	 -70.1656 	 0.594141 	 -75.4808
| 20> H 	 -70.2382 	 0.345377 	 -74.4531
| 21> H 	 -71.09 	 0.300418 	 -75.83
| 22> H 	 -69.4753 	 -0.0793923 	 -76.0087
| 23> S 	 -64.859 	 0.0911781 	 -71.0191
| 24> C 	 -64.9482 	 -1.24368 	 -69.8743
| 25> C 	 -66.2398 	 -1.71383 	 -69.6816
| 26> C 	 -67.2208 	 -0.841996 	 -70.2745
| 27> C 	 -66.6708 	 0.0951942 	 -71.108
| 28> H 	 -66.4019 	 -2.52049 	 -68.9904
| 29> C 	 -68.6996 	 -1.06376 	 -70.02
| 30> H 	 -69.2771 	 -0.216958 	 -70.3514
| 31> H 	 -68.7618 	 -1.16758 	 -68.895
| 32> C 	 -69.2467 	 -2.34877 	 -70.6021
| 33> H 	 -70.3225 	 -2.39496 	 -70.3663
| 34> H 	 -68.6698 	 -3.17807 	 -70.1088
| 35> C 	 -69.1647 	 -2.45498 	 -72.1315
| 36> H 	 -69.645 	 -3.38833 	 -72.3991
| 37> H 	 -68.1168 	 -2.47267 	 -72.4769
| 38> H 	 -69.7619 	 -1.7137 	 -72.5839
| 39> H 	 -68.8559 	 4.18641 	 -72.9189
| 40> H 	 -64.1065 	 -1.66297 	 -69.4239
| 41> *
| 42>
| 43>                          ****END OF INPUT****

CARTESIAN COORDINATES (ANGSTROEM)
---------------------------------
  S    -67.973600    2.579970  -71.255700
  C    -68.402500    3.201840  -72.833800
  C    -68.070500    2.331200  -73.840000
  C    -67.494200    1.153950  -73.343600
  C    -67.369800    1.086150  -71.961600
  H    -67.192600    0.219932  -73.986800
  C    -68.455700    2.492550  -75.318600
  H    -67.770600    1.781460  -75.788300
  H    -68.171700    3.520640  -75.569800
  C    -69.899500    2.110500  -75.671100
  H    -70.452900    2.617070  -74.900700
  H    -70.118600    2.310320  -76.718800
  C    -70.165600    0.594141  -75.480800
  H    -70.238200    0.345377  -74.453100
  H    -71.090000    0.300418  -75.830000
  H    -69.475300   -0.079392  -76.008700
  S    -64.859000    0.091178  -71.019100
  C    -64.948200   -1.243680  -69.874300
  C    -66.239800   -1.713830  -69.681600
  C    -67.220800   -0.841996  -70.274500
  C    -66.670800    0.095194  -71.108000
  H    -66.401900   -2.520490  -68.990400
  C    -68.699600   -1.063760  -70.020000
  H    -69.277100   -0.216958  -70.351400
  H    -68.761800   -1.167580  -68.895000
  C    -69.246700   -2.348770  -70.602100
  H    -70.322500   -2.394960  -70.366300
  H    -68.669800   -3.178070  -70.108800
  C    -69.164700   -2.454980  -72.131500
  H    -69.645000   -3.388330  -72.399100
  H    -68.116800   -2.472670  -72.476900
  H    -69.761900   -1.713700  -72.583900
  H    -68.855900    4.186410  -72.918900
  H    -64.106500   -1.662970  -69.423900

 Total Charge           Charge          ....    0
 Multiplicity           Mult            ....    1
 Number of Electrons    NEL             ....  134
 Basis Dimension        Dim             ....  322

ORBITAL ENERGIES
----------------

  NO   OCC          E(Eh)            E(eV)
   0   2.0000     -88.964884     -2420.8576
   1   2.0000     -88.964583     -2420.8494
   2   2.0000     -10.329262      -281.0735
   3   2.0000     -10.327746      -281.0322
   4   2.0000     -10.317660      -280.7578
   5   2.0000     -10.314179      -280.6631
   6   2.0000     -10.303447      -280.3710
   7   2.0000     -10.300192      -280.2825
   8   2.0000     -10.297520      -280.2098
   9   2.0000     -10.294889      -280.1382
  10   2.0000     -10.291945      -280.0581
  11   2.0000     -10.289922      -280.0030
  12   2.0000     -10.288444      -279.9628
  13   2.0000     -10.287669      -279.9417
  14   2.0000     -10.269783      -279.4550
  15   2.0000     -10.267930      -279.4046
  16   2.0000      -8.079158      -219.8451
  17   2.0000      -8.078597      -219.8298
  18   2.0000      -6.037502      -164.2888
  19   2.0000      -6.037164      -164.2796
  20   2.0000      -6.033592      -164.1824
  21   2.0000      -6.033380      -164.1766
  22   2.0000      -6.030194      -164.0899
  23   2.0000      -6.029229      -164.0637
  24   2.0000      -1.001752       -27.2591
  25   2.0000      -0.981315       -26.7029
  26   2.0000      -0.911036       -24.7905
  27   2.0000      -0.909559       -24.7503
  28   2.0000      -0.864343       -23.5200
  29   2.0000      -0.845440       -23.0056
  30   2.0000      -0.844653       -22.9842
  31   2.0000      -0.812111       -22.0987
  32   2.0000      -0.786274       -21.3956
  33   2.0000      -0.775405       -21.0999
  34   2.0000      -0.704453       -19.1691
  35   2.0000      -0.699734       -19.0407
  36   2.0000      -0.689583       -18.7645
  37   2.0000      -0.658440       -17.9171
  38   2.0000      -0.637503       -17.3473
  39   2.0000      -0.609538       -16.5864
  40   2.0000      -0.597264       -16.2524
  41   2.0000      -0.579476       -15.7683
  42   2.0000      -0.551201       -14.9989
  43   2.0000      -0.548475       -14.9248
  44   2.0000      -0.545415       -14.8415
  45   2.0000      -0.540142       -14.6980
  46   2.0000      -0.519458       -14.1352
  47   2.0000      -0.507867       -13.8198
  48   2.0000      -0.494821       -13.4648
  49   2.0000      -0.492369       -13.3980
  50   2.0000      -0.485083       -13.1998
  51   2.0000      -0.476174       -12.9574
  52   2.0000      -0.468620       -12.7518
  53   2.0000      -0.467230       -12.7140
  54   2.0000      -0.461584       -12.5604
  55   2.0000      -0.445709       -12.1283
  56   2.0000      -0.444125       -12.0853
  57   2.0000      -0.437197       -11.8967
  58   2.0000      -0.430873       -11.7247
  59   2.0000      -0.424317       -11.5462
  60   2.0000      -0.418744       -11.3946
  61   2.0000      -0.416749       -11.3403
  62   2.0000      -0.412106       -11.2140
  63   2.0000      -0.336197        -9.1484
  64   2.0000      -0.328806        -8.9473
  65   2.0000      -0.326879        -8.8948
  66   2.0000      -0.306413        -8.3379
  67   0.0000       0.042798         1.1646
  68   0.0000       0.052276         1.4225
  69   0.0000       0.111908         3.0452
  70   0.0000       0.116541         3.1712
  71   0.0000       0.125968         3.4278

MULLIKEN ATOMIC CHARGES
-----------------------
   0 S :    0.113407
   1 C :   -0.147215
   2 C :   -0.103550
   3 C :    0.005844
   4 C :   -0.199681
   5 H :    0.052723
   6 C :    0.073381
   7 H :    0.015055
   8 H :    0.033834
   9 C :   -0.022307
  10 H :    0.024189
  11 H :    0.041798
  12 C :   -0.041186
  13 H :    0.032091
  14 H :    0.004587
  15 H :    0.026008
  16 S :    0.107780
  17 C :   -0.073533
  18 C :   -0.029581
  19 C :   -0.037623
  20 C :   -0.163030
  21 H :    0.019873
  22 C :    0.091751
  23 H :    0.015901
  24 H :    0.039002
  25 C :   -0.103038
  26 H :    0.033411
  27 H :    0.031354
  28 C :   -0.026381
  29 H :    0.023493
  30 H :    0.048101
  31 H :    0.022266
  32 H :    0.053513
  33 H :    0.037763
Sum of atomic charges:    0.0000000

LOEWDIN ATOMIC CHARGES
----------------------
   0 S :    0.407466
   1 C :   -0.194146
   2 C :   -0.075945
   3 C :   -0.072482
   4 C :   -0.198753
   5 H :    0.050921
   6 C :   -0.027748
   7 H :    0.026523
   8 H :    0.031349
   9 C :   -0.029302
  10 H :    0.025436
  11 H :    0.028036
  12 C :   -0.061721
  13 H :    0.022338
  14 H :    0.015578
  15 H :    0.025566
  16 S :    0.372853
  17 C :   -0.158451
  18 C :   -0.072302
  19 C :   -0.047733
  20 C :   -0.193713
  21 H :    0.029649
  22 C :   -0.032793
  23 H :    0.022237
  24 H :    0.040711
  25 C :   -0.041738
  26 H :    0.027338
  27 H :    0.024776
  28 C :   -0.061426
  29 H :    0.025873
  30 H :    0.029496
  31 H :    0.018218
  32 H :    0.027676
  33 H :    0.016213

  Mayer bond orders larger than 0.100000
B(  0-S ,  1-C ) :   1.1588 B(  0-S ,  4-C ) :   1.1585 B(  1-C ,  2-C ) :   1.5842
B(  1-C ,  4-C ) :   0.1045 B(  1-C , 32-H ) :   0.9708 B(  2-C ,  3-C ) :   1.2727
B(  2-C ,  6-C ) :   1.0056 B(  3-C ,  4-C ) :   1.5859 B(  3-C ,  5-H ) :   0.9712
B(  4-C , 20-C ) :   1.0122 B(  6-C ,  7-H ) :   0.9404 B(  6-C ,  8-H ) :   0.9411
B(  6-C ,  9-C ) :   1.0646 B(  9-C , 10-H ) :   0.9541 B(  9-C , 11-H ) :   0.9583
B(  9-C , 12-C ) :   1.0839 B( 12-C , 13-H ) :   0.9728 B( 12-C , 14-H ) :   0.9676
B( 12-C , 15-H ) :   0.9742 B( 16-S , 17-C ) :   1.1536 B( 16-S , 20-C ) :   1.1074
B( 17-C , 18-C ) :   1.6421 B( 17-C , 33-H ) :   0.9718 B( 18-C , 19-C ) :   1.1977
B( 18-C , 21-H ) :   0.9872 B( 19-C , 20-C ) :   1.6425 B( 19-C , 22-C ) :   1.0437
B( 22-C , 23-H ) :   0.9259 B( 22-C , 24-H ) :   0.9313 B( 22-C , 25-C ) :   1.0828
B( 25-C , 26-H ) :   0.9539 B( 25-C , 27-H ) :   0.9531 B( 25-C , 28-C ) :   1.0814
B( 28-C , 29-H ) :   0.9694 B( 28-C , 30-H ) :   0.9729 B( 28-C , 31-H ) :   0.9736

Dispersion correction           -0.015998809
FINAL SINGLE POINT ENERGY     -1339.884908103509

DIPOLE MOMENT
-------------
                                X             Y             Z
Electronic contribution:     19.01119      11.32443      13.97673
Nuclear contribution   :    -19.43663     -11.63407     -14.15147
                        -----------------------------------------
Total Dipole Moment    :     -0.42544      -0.30964      -0.17474
                        -----------------------------------------
Magnitude (a.u.)       :      0.55445
Magnitude (Debye)      :      1.40929

Rotational constants in cm-1:     0.019762     0.009358     0.007722
Rotational constants in MHz :   592.436500   280.541305   231.495388

                             ****ORCA TERMINATED NORMALLY****
TOTAL RUN TIME: 0 days 0 hours 0 minutes 22 seconds 768 msec
