                         Program Version 4.2.1 -  RELEASE  -
|  1> ! wB97X-D3 SP def2-SVP
|  2> %pal
|  3> nprocs 24
|  4> end
|  5>
|  6> * xyz 0 1
|  7> S 	 -106.456 	 47.8966 	 -94.5732
|  8> C 	 -105.76 	 49.5819 	 -94.6937
|  9> C 	 -106.287 	 50.2914 	 -95.7229
| 10> C 	 -106.953 	 49.3562 	 -96.5608
| 11> C 	 -107.154 	 48.0447 	 -96.0846
| 12> H 	 -107.272 	 49.5072 	 -97.603
| 13> C 	 -105.982 	 51.7264 	 -96.0608
| 14> H 	 -106.262 	 51.9859 	 -97.0675
| 15> H 	 -104.922 	 51.8114 	 -96.0103
| 16> C 	 -106.679 	 52.7604 	 -95.1896
| 17> H 	 -106.363 	 53.786 	 -95.4843
| 18> H 	 -107.751 	 52.57 	 -95.2927
| 19> C 	 -106.305 	 52.6193 	 -93.7206
| 20> H 	 -105.213 	 52.7875 	 -93.5301
| 21> H 	 -106.811 	 53.4306 	 -93.1407
| 22> H 	 -106.681 	 51.7084 	 -93.357
| 23> S 	 -108.605 	 45.6221 	 -95.8752
| 24> C 	 -108.796 	 44.6522 	 -97.2893
| 25> C 	 -108.13 	 45.216 	 -98.4108
| 26> C 	 -107.414 	 46.3883 	 -98.0815
| 27> C 	 -107.633 	 46.818 	 -96.7756
| 28> H 	 -108.227 	 44.8123 	 -99.361
| 29> C 	 -106.481 	 47.0297 	 -99.1476
| 30> H 	 -105.593 	 46.3703 	 -99.1835
| 31> H 	 -106.088 	 47.9875 	 -98.867
| 32> C 	 -107.055 	 47.2459 	 -100.666
| 33> H 	 -108.069 	 47.6868 	 -100.649
| 34> H 	 -107.211 	 46.3415 	 -101.172
| 35> C 	 -106.3 	 48.2688 	 -101.499
| 36> H 	 -106.793 	 48.4079 	 -102.458
| 37> H 	 -105.25 	 48.0351 	 -101.645
| 38> H 	 -106.268 	 49.1829 	 -100.908
| 39> H 	 -105.052 	 49.9854 	 -93.9451
| 40> H 	 -109.356 	 43.6996 	 -97.3923
| 41> *
| 42>
| 43>                          ****END OF INPUT****

CARTESIAN COORDINATES (ANGSTROEM)
---------------------------------
  S    -106.456000   47.896600  -94.573200
  C    -105.760000   49.581900  -94.693700
  C    -106.287000   50.291400  -95.722900
  C    -106.953000   49.356200  -96.560800
  C    -107.154000   48.044700  -96.084600
  H    -107.272000   49.507200  -97.603000
  C    -105.982000   51.726400  -96.060800
  H    -106.262000   51.985900  -97.067500
  H    -104.922000   51.811400  -96.010300
  C    -106.679000   52.760400  -95.189600
  H    -106.363000   53.786000  -95.484300
  H    -107.751000   52.570000  -95.292700
  C    -106.305000   52.619300  -93.720600
  H    -105.213000   52.787500  -93.530100
  H    -106.811000   53.430600  -93.140700
  H    -106.681000   51.708400  -93.357000
  S    -108.605000   45.622100  -95.875200
  C    -108.796000   44.652200  -97.289300
  C    -108.130000   45.216000  -98.410800
  C    -107.414000   46.388300  -98.081500
  C    -107.633000   46.818000  -96.775600
  H    -108.227000   44.812300  -99.361000
  C    -106.481000   47.029700  -99.147600
  H    -105.593000   46.370300  -99.183500
  H    -106.088000   47.987500  -98.867000
  C    -107.055000   47.245900  -100.666000
  H    -108.069000   47.686800  -100.649000
  H    -107.211000   46.341500  -101.172000
  C    -106.300000   48.268800  -101.499000
  H    -106.793000   48.407900  -102.458000
  H    -105.250000   48.035100  -101.645000
  H    -106.268000   49.182900  -100.908000
  H    -105.052000   49.985400  -93.945100
  H    -109.356000   43.699600  -97.392300

 Total Charge           Charge          ....    0
 Multiplicity           Mult            ....    1
 Number of Electrons    NEL             ....  134
 Basis Dimension        Dim             ....  322

ORBITAL ENERGIES
----------------

  NO   OCC          E(Eh)            E(eV)
   0   2.0000     -88.970974     -2421.0233
   1   2.0000     -88.963436     -2420.8182
   2   2.0000     -10.332729      -281.1678
   3   2.0000     -10.326876      -281.0086
   4   2.0000     -10.322982      -280.9026
   5   2.0000     -10.318361      -280.7769
   6   2.0000     -10.307034      -280.4686
   7   2.0000     -10.303296      -280.3669
   8   2.0000     -10.301139      -280.3082
   9   2.0000     -10.295121      -280.1445
  10   2.0000     -10.290834      -280.0278
  11   2.0000     -10.290236      -280.0115
  12   2.0000     -10.290104      -280.0080
  13   2.0000     -10.289287      -279.9857
  14   2.0000     -10.279043      -279.7070
  15   2.0000     -10.275650      -279.6147
  16   2.0000      -8.085222      -220.0101
  17   2.0000      -8.078907      -219.8382
  18   2.0000      -6.043755      -164.4589
  19   2.0000      -6.039728      -164.3493
  20   2.0000      -6.037323      -164.2839
  21   2.0000      -6.036072      -164.2499
  22   2.0000      -6.033400      -164.1772
  23   2.0000      -6.029604      -164.0739
  24   2.0000      -1.007111       -27.4049
  25   2.0000      -0.984212       -26.7818
  26   2.0000      -0.922247       -25.0956
  27   2.0000      -0.898797       -24.4575
  28   2.0000      -0.868801       -23.6413
  29   2.0000      -0.856682       -23.3115
  30   2.0000      -0.838327       -22.8120
  31   2.0000      -0.804723       -21.8976
  32   2.0000      -0.791601       -21.5406
  33   2.0000      -0.775057       -21.0904
  34   2.0000      -0.706810       -19.2333
  35   2.0000      -0.698736       -19.0136
  36   2.0000      -0.690521       -18.7900
  37   2.0000      -0.659928       -17.9576
  38   2.0000      -0.639905       -17.4127
  39   2.0000      -0.614887       -16.7319
  40   2.0000      -0.595018       -16.1913
  41   2.0000      -0.581303       -15.8180
  42   2.0000      -0.560017       -15.2388
  43   2.0000      -0.556342       -15.1388
  44   2.0000      -0.541951       -14.7472
  45   2.0000      -0.528309       -14.3760
  46   2.0000      -0.520994       -14.1770
  47   2.0000      -0.505383       -13.7522
  48   2.0000      -0.504399       -13.7254
  49   2.0000      -0.494955       -13.4684
  50   2.0000      -0.487523       -13.2662
  51   2.0000      -0.482493       -13.1293
  52   2.0000      -0.473533       -12.8855
  53   2.0000      -0.466836       -12.7033
  54   2.0000      -0.462555       -12.5868
  55   2.0000      -0.450151       -12.2492
  56   2.0000      -0.437738       -11.9115
  57   2.0000      -0.436140       -11.8680
  58   2.0000      -0.432186       -11.7604
  59   2.0000      -0.425241       -11.5714
  60   2.0000      -0.425074       -11.5669
  61   2.0000      -0.418604       -11.3908
  62   2.0000      -0.414406       -11.2766
  63   2.0000      -0.351271        -9.5586
  64   2.0000      -0.333846        -9.0844
  65   2.0000      -0.327165        -8.9026
  66   2.0000      -0.284920        -7.7531
  67   0.0000       0.028497         0.7754
  68   0.0000       0.068292         1.8583
  69   0.0000       0.099668         2.7121
  70   0.0000       0.117913         3.2086
  71   0.0000       0.127173         3.4606

MULLIKEN ATOMIC CHARGES
-----------------------
   0 S :    0.097776
   1 C :   -0.161619
   2 C :   -0.062712
   3 C :   -0.012975
   4 C :   -0.134203
   5 H :    0.010255
   6 C :    0.108351
   7 H :    0.014532
   8 H :    0.025801
   9 C :   -0.074406
  10 H :    0.036598
  11 H :    0.038862
  12 C :   -0.075409
  13 H :    0.034366
  14 H :    0.034055
  15 H :    0.038543
  16 S :    0.116968
  17 C :   -0.102268
  18 C :   -0.024333
  19 C :   -0.023579
  20 C :   -0.149706
  21 H :   -0.004057
  22 C :    0.067895
  23 H :    0.048717
  24 H :    0.002205
  25 C :   -0.090015
  26 H :    0.031586
  27 H :    0.022341
  28 C :   -0.044577
  29 H :    0.042491
  30 H :    0.027167
  31 H :    0.026346
  32 H :    0.061859
  33 H :    0.073144
Sum of atomic charges:   -0.0000000

LOEWDIN ATOMIC CHARGES
----------------------
   0 S :    0.406975
   1 C :   -0.170431
   2 C :   -0.063595
   3 C :   -0.072425
   4 C :   -0.218976
   5 H :    0.027419
   6 C :   -0.025805
   7 H :    0.029590
   8 H :    0.029328
   9 C :   -0.036338
  10 H :    0.028651
  11 H :    0.029409
  12 C :   -0.070672
  13 H :    0.026867
  14 H :    0.030311
  15 H :    0.015997
  16 S :    0.406844
  17 C :   -0.198404
  18 C :   -0.063667
  19 C :   -0.053934
  20 C :   -0.194798
  21 H :    0.019481
  22 C :   -0.024601
  23 H :    0.039720
  24 H :    0.019685
  25 C :   -0.039822
  26 H :    0.029382
  27 H :    0.010547
  28 C :   -0.063359
  29 H :    0.030530
  30 H :    0.021055
  31 H :    0.024843
  32 H :    0.030589
  33 H :    0.039605

  Mayer bond orders larger than 0.100000
B(  0-S ,  1-C ) :   1.1359 B(  0-S ,  4-C ) :   1.1654 B(  1-C ,  2-C ) :   1.6118
B(  1-C , 32-H ) :   0.9606 B(  2-C ,  3-C ) :   1.2327 B(  2-C ,  6-C ) :   1.0043
B(  3-C ,  4-C ) :   1.5835 B(  3-C ,  5-H ) :   0.9894 B(  4-C , 20-C ) :   1.0109
B(  6-C ,  7-H ) :   0.9388 B(  6-C ,  8-H ) :   0.9418 B(  6-C ,  9-C ) :   1.0738
B(  9-C , 10-H ) :   0.9556 B(  9-C , 11-H ) :   0.9519 B(  9-C , 12-C ) :   1.0912
B( 12-C , 13-H ) :   0.9742 B( 12-C , 14-H ) :   0.9705 B( 12-C , 15-H ) :   0.9682
B( 16-S , 17-C ) :   1.1700 B( 16-S , 20-C ) :   1.1352 B( 17-C , 18-C ) :   1.5806
B( 17-C , 20-C ) :   0.1056 B( 17-C , 33-H ) :   0.9623 B( 18-C , 19-C ) :   1.2632
B( 18-C , 21-H ) :   1.0010 B( 19-C , 20-C ) :   1.5924 B( 19-C , 22-C ) :   1.0319
B( 22-C , 23-H ) :   0.9342 B( 22-C , 24-H ) :   0.9438 B( 22-C , 25-C ) :   1.0370
B( 25-C , 26-H ) :   0.9615 B( 25-C , 27-H ) :   0.9566 B( 25-C , 28-C ) :   1.0912
B( 28-C , 29-H ) :   0.9727 B( 28-C , 30-H ) :   0.9760 B( 28-C , 31-H ) :   0.9730

Dispersion correction           -0.013800608
FINAL SINGLE POINT ENERGY     -1339.863576566858

DIPOLE MOMENT
-------------
                                X             Y             Z
Electronic contribution:     -7.16855     -21.28260      15.25715
Nuclear contribution   :      7.38684      21.67619     -15.85176
                        -----------------------------------------
Total Dipole Moment    :      0.21829       0.39358      -0.59461
                        -----------------------------------------
Magnitude (a.u.)       :      0.74573
Magnitude (Debye)      :      1.89550

Rotational constants in cm-1:     0.018496     0.008297     0.006094
Rotational constants in MHz :   554.483695   248.730902   182.691959

                             ****ORCA TERMINATED NORMALLY****
TOTAL RUN TIME: 0 days 0 hours 0 minutes 21 seconds 385 msec
