                         Program Version 4.2.1 -  RELEASE  -
|  1> ! wB97X-D3 SP def2-SVP
|  2> %pal
|  3> nprocs 24
|  4> end
|  5>
|  6> * xyz 0 1
|  7> S 	 -108.91 	 51.5732 	 -92.0928
|  8> C 	 -108.742 	 50.0734 	 -91.1545
|  9> C 	 -109.25 	 50.2082 	 -89.9263
| 10> C 	 -109.664 	 51.5471 	 -89.6483
| 11> C 	 -109.606 	 52.4098 	 -90.7324
| 12> H 	 -110.073 	 52.0243 	 -88.7865
| 13> C 	 -109.297 	 49.1312 	 -88.8718
| 14> H 	 -109.114 	 48.167 	 -89.3487
| 15> H 	 -110.349 	 49.1569 	 -88.6291
| 16> C 	 -108.313 	 49.3707 	 -87.6791
| 17> H 	 -108.4 	 50.3912 	 -87.37
| 18> H 	 -108.605 	 48.86 	 -86.7508
| 19> C 	 -106.853 	 49.0175 	 -88.0732
| 20> H 	 -106.713 	 47.978 	 -88.2467
| 21> H 	 -106.459 	 49.5119 	 -88.9739
| 22> H 	 -106.202 	 49.2848 	 -87.2443
| 23> S 	 -108.505 	 54.8827 	 -91.0716
| 24> C 	 -109.505 	 56.2735 	 -91.094
| 25> C 	 -110.771 	 55.9955 	 -90.7435
| 26> C 	 -110.981 	 54.5996 	 -90.4655
| 27> C 	 -109.879 	 53.8043 	 -90.8007
| 28> H 	 -111.452 	 56.781 	 -90.6271
| 29> C 	 -112.354 	 54.1149 	 -89.9734
| 30> H 	 -112.912 	 54.9322 	 -89.5051
| 31> H 	 -112.187 	 53.4896 	 -89.0957
| 32> C 	 -113.305 	 53.3826 	 -90.9461
| 33> H 	 -112.829 	 52.4145 	 -91.1491
| 34> H 	 -113.477 	 54.0306 	 -91.82
| 35> C 	 -114.684 	 53.0163 	 -90.3147
| 36> H 	 -115.242 	 52.3062 	 -90.9258
| 37> H 	 -115.323 	 53.9084 	 -90.3915
| 38> H 	 -114.773 	 52.6378 	 -89.2436
| 39> H 	 -108.494 	 49.0941 	 -91.5383
| 40> H 	 -109.14 	 57.2099 	 -91.3377
| 41> *
| 42>
| 43>                          ****END OF INPUT****

CARTESIAN COORDINATES (ANGSTROEM)
---------------------------------
  S    -108.910000   51.573200  -92.092800
  C    -108.742000   50.073400  -91.154500
  C    -109.250000   50.208200  -89.926300
  C    -109.664000   51.547100  -89.648300
  C    -109.606000   52.409800  -90.732400
  H    -110.073000   52.024300  -88.786500
  C    -109.297000   49.131200  -88.871800
  H    -109.114000   48.167000  -89.348700
  H    -110.349000   49.156900  -88.629100
  C    -108.313000   49.370700  -87.679100
  H    -108.400000   50.391200  -87.370000
  H    -108.605000   48.860000  -86.750800
  C    -106.853000   49.017500  -88.073200
  H    -106.713000   47.978000  -88.246700
  H    -106.459000   49.511900  -88.973900
  H    -106.202000   49.284800  -87.244300
  S    -108.505000   54.882700  -91.071600
  C    -109.505000   56.273500  -91.094000
  C    -110.771000   55.995500  -90.743500
  C    -110.981000   54.599600  -90.465500
  C    -109.879000   53.804300  -90.800700
  H    -111.452000   56.781000  -90.627100
  C    -112.354000   54.114900  -89.973400
  H    -112.912000   54.932200  -89.505100
  H    -112.187000   53.489600  -89.095700
  C    -113.305000   53.382600  -90.946100
  H    -112.829000   52.414500  -91.149100
  H    -113.477000   54.030600  -91.820000
  C    -114.684000   53.016300  -90.314700
  H    -115.242000   52.306200  -90.925800
  H    -115.323000   53.908400  -90.391500
  H    -114.773000   52.637800  -89.243600
  H    -108.494000   49.094100  -91.538300
  H    -109.140000   57.209900  -91.337700

 Total Charge           Charge          ....    0
 Multiplicity           Mult            ....    1
 Number of Electrons    NEL             ....  134
 Basis Dimension        Dim             ....  322

ORBITAL ENERGIES
----------------

  NO   OCC          E(Eh)            E(eV)
   0   2.0000     -88.961851     -2420.7750
   1   2.0000     -88.960826     -2420.7471
   2   2.0000     -10.326330      -280.9937
   3   2.0000     -10.326019      -280.9853
   4   2.0000     -10.309701      -280.5412
   5   2.0000     -10.308804      -280.5168
   6   2.0000     -10.306723      -280.4602
   7   2.0000     -10.296685      -280.1870
   8   2.0000     -10.292725      -280.0793
   9   2.0000     -10.291816      -280.0546
  10   2.0000     -10.291313      -280.0409
  11   2.0000     -10.291191      -280.0375
  12   2.0000     -10.290971      -280.0316
  13   2.0000     -10.286248      -279.9030
  14   2.0000     -10.283876      -279.8385
  15   2.0000     -10.275396      -279.6077
  16   2.0000      -8.076569      -219.7746
  17   2.0000      -8.076463      -219.7717
  18   2.0000      -6.035198      -164.2261
  19   2.0000      -6.034948      -164.2193
  20   2.0000      -6.031050      -164.1132
  21   2.0000      -6.030854      -164.1079
  22   2.0000      -6.027206      -164.0086
  23   2.0000      -6.027169      -164.0076
  24   2.0000      -1.010409       -27.4946
  25   2.0000      -0.988229       -26.8911
  26   2.0000      -0.911749       -24.8099
  27   2.0000      -0.902141       -24.5485
  28   2.0000      -0.874628       -23.7998
  29   2.0000      -0.847472       -23.0609
  30   2.0000      -0.842268       -22.9193
  31   2.0000      -0.818100       -22.2616
  32   2.0000      -0.783995       -21.3336
  33   2.0000      -0.774070       -21.0635
  34   2.0000      -0.717746       -19.5309
  35   2.0000      -0.702693       -19.1212
  36   2.0000      -0.691895       -18.8274
  37   2.0000      -0.664670       -18.0866
  38   2.0000      -0.645364       -17.5613
  39   2.0000      -0.617121       -16.7927
  40   2.0000      -0.598889       -16.2966
  41   2.0000      -0.571034       -15.5386
  42   2.0000      -0.562234       -15.2992
  43   2.0000      -0.555327       -15.1112
  44   2.0000      -0.532661       -14.4945
  45   2.0000      -0.518655       -14.1133
  46   2.0000      -0.516938       -14.0666
  47   2.0000      -0.513812       -13.9815
  48   2.0000      -0.503231       -13.6936
  49   2.0000      -0.502333       -13.6692
  50   2.0000      -0.487772       -13.2729
  51   2.0000      -0.484813       -13.1924
  52   2.0000      -0.469115       -12.7653
  53   2.0000      -0.467026       -12.7084
  54   2.0000      -0.457169       -12.4402
  55   2.0000      -0.445240       -12.1156
  56   2.0000      -0.441805       -12.0221
  57   2.0000      -0.436260       -11.8712
  58   2.0000      -0.433717       -11.8020
  59   2.0000      -0.430830       -11.7235
  60   2.0000      -0.421935       -11.4814
  61   2.0000      -0.413614       -11.2550
  62   2.0000      -0.410707       -11.1759
  63   2.0000      -0.344408        -9.3718
  64   2.0000      -0.332557        -9.0493
  65   2.0000      -0.325578        -8.8594
  66   2.0000      -0.299519        -8.1503
  67   0.0000       0.031722         0.8632
  68   0.0000       0.069164         1.8820
  69   0.0000       0.115690         3.1481
  70   0.0000       0.121886         3.3167
  71   0.0000       0.136869         3.7244

MULLIKEN ATOMIC CHARGES
-----------------------
   0 S :    0.100817
   1 C :   -0.110225
   2 C :   -0.095549
   3 C :    0.045583
   4 C :   -0.185897
   5 H :   -0.001562
   6 C :    0.092195
   7 H :    0.011187
   8 H :    0.030476
   9 C :   -0.047898
  10 H :    0.021984
  11 H :    0.029493
  12 C :   -0.053356
  13 H :    0.021819
  14 H :    0.043408
  15 H :    0.033339
  16 S :    0.105023
  17 C :   -0.047852
  18 C :   -0.012928
  19 C :   -0.020947
  20 C :   -0.154586
  21 H :   -0.003812
  22 C :    0.058113
  23 H :    0.008087
  24 H :    0.012754
  25 C :   -0.049683
  26 H :    0.045113
  27 H :    0.042138
  28 C :   -0.088800
  29 H :    0.033151
  30 H :    0.024982
  31 H :    0.045515
  32 H :    0.040378
  33 H :    0.027541
Sum of atomic charges:   -0.0000000

LOEWDIN ATOMIC CHARGES
----------------------
   0 S :    0.393083
   1 C :   -0.187794
   2 C :   -0.066837
   3 C :   -0.059186
   4 C :   -0.197477
   5 H :    0.026535
   6 C :   -0.026392
   7 H :    0.025919
   8 H :    0.032504
   9 C :   -0.034300
  10 H :    0.020801
  11 H :    0.027001
  12 C :   -0.064493
  13 H :    0.019057
  14 H :    0.030242
  15 H :    0.028021
  16 S :    0.414151
  17 C :   -0.174216
  18 C :   -0.068266
  19 C :   -0.046925
  20 C :   -0.201302
  21 H :    0.024273
  22 C :   -0.039595
  23 H :    0.027026
  24 H :    0.027347
  25 C :   -0.034969
  26 H :    0.028617
  27 H :    0.030711
  28 C :   -0.080723
  29 H :    0.026236
  30 H :    0.023683
  31 H :    0.032675
  32 H :    0.029389
  33 H :    0.015206

  Mayer bond orders larger than 0.100000
B(  0-S ,  1-C ) :   1.1166 B(  0-S ,  4-C ) :   1.1432 B(  1-C ,  2-C ) :   1.6593
B(  1-C , 32-H ) :   0.9616 B(  2-C ,  3-C ) :   1.1887 B(  2-C ,  6-C ) :   1.0138
B(  3-C ,  4-C ) :   1.6094 B(  3-C ,  5-H ) :   0.9962 B(  4-C , 20-C ) :   1.0490
B(  6-C ,  7-H ) :   0.9448 B(  6-C ,  8-H ) :   0.9343 B(  6-C ,  9-C ) :   1.0587
B(  9-C , 10-H ) :   0.9596 B(  9-C , 11-H ) :   0.9566 B(  9-C , 12-C ) :   1.0677
B( 12-C , 13-H ) :   0.9769 B( 12-C , 14-H ) :   0.9780 B( 12-C , 15-H ) :   0.9735
B( 16-S , 17-C ) :   1.1612 B( 16-S , 20-C ) :   1.1436 B( 17-C , 18-C ) :   1.6079
B( 17-C , 33-H ) :   0.9754 B( 18-C , 19-C ) :   1.2303 B( 18-C , 21-H ) :   1.0051
B( 19-C , 20-C ) :   1.5844 B( 19-C , 22-C ) :   1.0445 B( 22-C , 23-H ) :   0.9363
B( 22-C , 24-H ) :   0.9280 B( 22-C , 25-C ) :   1.0675 B( 25-C , 26-H ) :   0.9574
B( 25-C , 27-H ) :   0.9566 B( 25-C , 28-C ) :   1.0695 B( 28-C , 29-H ) :   0.9755
B( 28-C , 30-H ) :   0.9756 B( 28-C , 31-H ) :   0.9759

Dispersion correction           -0.014227577
FINAL SINGLE POINT ENERGY     -1339.879491678795

DIPOLE MOMENT
-------------
                                X             Y             Z
Electronic contribution:     12.85734      12.58488     -14.59789
Nuclear contribution   :    -13.28055     -12.68025      15.09934
                        -----------------------------------------
Total Dipole Moment    :     -0.42322      -0.09537       0.50145
                        -----------------------------------------
Magnitude (a.u.)       :      0.66307
Magnitude (Debye)      :      1.68539

Rotational constants in cm-1:     0.017808     0.008616     0.007002
Rotational constants in MHz :   533.862442   258.304653   209.910749

                             ****ORCA TERMINATED NORMALLY****
TOTAL RUN TIME: 0 days 0 hours 0 minutes 21 seconds 579 msec
