                         Program Version 4.2.1 -  RELEASE  -
|  1> ! wB97X-D3 SP def2-SVP
|  2> %pal
|  3> nprocs 24
|  4> end
|  5>
|  6> * xyz 0 1
|  7> S 	 -79.2781 	 0.60401 	 -65.0823
|  8> C 	 -77.9209 	 1.64929 	 -65.0213
|  9> C 	 -76.8159 	 1.16734 	 -64.3002
| 10> C 	 -77.1321 	 -0.0961698 	 -63.7076
| 11> C 	 -78.4672 	 -0.479036 	 -63.903
| 12> H 	 -76.5058 	 -0.701504 	 -63.0423
| 13> C 	 -75.5271 	 1.87329 	 -64.0573
| 14> H 	 -75.1929 	 2.5513 	 -64.8754
| 15> H 	 -74.7067 	 1.18146 	 -64.1373
| 16> C 	 -75.5168 	 2.66925 	 -62.7169
| 17> H 	 -76.3254 	 3.4579 	 -62.7893
| 18> H 	 -75.7516 	 1.95623 	 -61.8988
| 19> C 	 -74.1669 	 3.35238 	 -62.4082
| 20> H 	 -73.4122 	 2.6284 	 -62.5513
| 21> H 	 -73.8959 	 4.06559 	 -63.2297
| 22> H 	 -74.1299 	 3.85871 	 -61.4664
| 23> S 	 -78.2071 	 -2.68847 	 -62.2626
| 24> C 	 -79.5305 	 -3.8802 	 -62.1533
| 25> C 	 -80.5655 	 -3.48507 	 -62.9596
| 26> C 	 -80.2803 	 -2.32073 	 -63.8169
| 27> C 	 -79.0201 	 -1.7681 	 -63.5602
| 28> H 	 -81.5191 	 -4.00529 	 -62.9365
| 29> C 	 -81.3847 	 -1.78001 	 -64.6837
| 30> H 	 -80.9508 	 -1.41567 	 -65.6691
| 31> H 	 -81.7216 	 -0.913024 	 -64.095
| 32> C 	 -82.4638 	 -2.72039 	 -65.1912
| 33> H 	 -83.296 	 -2.17934 	 -65.6148
| 34> H 	 -82.8883 	 -3.22231 	 -64.3468
| 35> C 	 -81.9184 	 -3.77727 	 -66.1688
| 36> H 	 -81.1985 	 -4.43334 	 -65.6812
| 37> H 	 -81.6146 	 -3.31918 	 -67.1219
| 38> H 	 -82.841 	 -4.32195 	 -66.4552
| 39> H 	 -77.9233 	 2.57933 	 -65.7374
| 40> H 	 -79.62 	 -4.7043 	 -61.4816
| 41> *
| 42>
| 43>                          ****END OF INPUT****

CARTESIAN COORDINATES (ANGSTROEM)
---------------------------------
  S    -79.278100    0.604010  -65.082300
  C    -77.920900    1.649290  -65.021300
  C    -76.815900    1.167340  -64.300200
  C    -77.132100   -0.096170  -63.707600
  C    -78.467200   -0.479036  -63.903000
  H    -76.505800   -0.701504  -63.042300
  C    -75.527100    1.873290  -64.057300
  H    -75.192900    2.551300  -64.875400
  H    -74.706700    1.181460  -64.137300
  C    -75.516800    2.669250  -62.716900
  H    -76.325400    3.457900  -62.789300
  H    -75.751600    1.956230  -61.898800
  C    -74.166900    3.352380  -62.408200
  H    -73.412200    2.628400  -62.551300
  H    -73.895900    4.065590  -63.229700
  H    -74.129900    3.858710  -61.466400
  S    -78.207100   -2.688470  -62.262600
  C    -79.530500   -3.880200  -62.153300
  C    -80.565500   -3.485070  -62.959600
  C    -80.280300   -2.320730  -63.816900
  C    -79.020100   -1.768100  -63.560200
  H    -81.519100   -4.005290  -62.936500
  C    -81.384700   -1.780010  -64.683700
  H    -80.950800   -1.415670  -65.669100
  H    -81.721600   -0.913024  -64.095000
  C    -82.463800   -2.720390  -65.191200
  H    -83.296000   -2.179340  -65.614800
  H    -82.888300   -3.222310  -64.346800
  C    -81.918400   -3.777270  -66.168800
  H    -81.198500   -4.433340  -65.681200
  H    -81.614600   -3.319180  -67.121900
  H    -82.841000   -4.321950  -66.455200
  H    -77.923300    2.579330  -65.737400
  H    -79.620000   -4.704300  -61.481600

 Total Charge           Charge          ....    0
 Multiplicity           Mult            ....    1
 Number of Electrons    NEL             ....  134
 Basis Dimension        Dim             ....  322

ORBITAL ENERGIES
----------------

  NO   OCC          E(Eh)            E(eV)
   0   2.0000     -88.971530     -2421.0384
   1   2.0000     -88.963658     -2420.8242
   2   2.0000     -10.333440      -281.1872
   3   2.0000     -10.330660      -281.1115
   4   2.0000     -10.321420      -280.8601
   5   2.0000     -10.318871      -280.7908
   6   2.0000     -10.307278      -280.4753
   7   2.0000     -10.305967      -280.4396
   8   2.0000     -10.298840      -280.2457
   9   2.0000     -10.296284      -280.1761
  10   2.0000     -10.294620      -280.1309
  11   2.0000     -10.293511      -280.1007
  12   2.0000     -10.293224      -280.0929
  13   2.0000     -10.284760      -279.8625
  14   2.0000     -10.280815      -279.7552
  15   2.0000     -10.276073      -279.6262
  16   2.0000      -8.085373      -220.0142
  17   2.0000      -8.077188      -219.7915
  18   2.0000      -6.043826      -164.4609
  19   2.0000      -6.040009      -164.3570
  20   2.0000      -6.036241      -164.2545
  21   2.0000      -6.036094      -164.2505
  22   2.0000      -6.031929      -164.1371
  23   2.0000      -6.027564      -164.0184
  24   2.0000      -1.001603       -27.2550
  25   2.0000      -0.977051       -26.5869
  26   2.0000      -0.912644       -24.8343
  27   2.0000      -0.908500       -24.7216
  28   2.0000      -0.870096       -23.6765
  29   2.0000      -0.854467       -23.2512
  30   2.0000      -0.841752       -22.9052
  31   2.0000      -0.810786       -22.0626
  32   2.0000      -0.781718       -21.2716
  33   2.0000      -0.767953       -20.8971
  34   2.0000      -0.706731       -19.2311
  35   2.0000      -0.699979       -19.0474
  36   2.0000      -0.690474       -18.7887
  37   2.0000      -0.662227       -18.0201
  38   2.0000      -0.633762       -17.2455
  39   2.0000      -0.615460       -16.7475
  40   2.0000      -0.598599       -16.2887
  41   2.0000      -0.565377       -15.3847
  42   2.0000      -0.561912       -15.2904
  43   2.0000      -0.552467       -15.0334
  44   2.0000      -0.541780       -14.7426
  45   2.0000      -0.530678       -14.4405
  46   2.0000      -0.520720       -14.1695
  47   2.0000      -0.507688       -13.8149
  48   2.0000      -0.500650       -13.6234
  49   2.0000      -0.496040       -13.4979
  50   2.0000      -0.492699       -13.4070
  51   2.0000      -0.475119       -12.9287
  52   2.0000      -0.464206       -12.6317
  53   2.0000      -0.460408       -12.5283
  54   2.0000      -0.455265       -12.3884
  55   2.0000      -0.449225       -12.2240
  56   2.0000      -0.444033       -12.0828
  57   2.0000      -0.440836       -11.9958
  58   2.0000      -0.434642       -11.8272
  59   2.0000      -0.433916       -11.8074
  60   2.0000      -0.415467       -11.3054
  61   2.0000      -0.412980       -11.2378
  62   2.0000      -0.403392       -10.9769
  63   2.0000      -0.366476        -9.9723
  64   2.0000      -0.332924        -9.0593
  65   2.0000      -0.325354        -8.8533
  66   2.0000      -0.276063        -7.5121
  67   0.0000       0.016436         0.4472
  68   0.0000       0.081990         2.2311
  69   0.0000       0.108061         2.9405
  70   0.0000       0.112695         3.0666
  71   0.0000       0.124852         3.3974

MULLIKEN ATOMIC CHARGES
-----------------------
   0 S :    0.089182
   1 C :   -0.141609
   2 C :   -0.056761
   3 C :   -0.019739
   4 C :   -0.123275
   5 H :    0.031123
   6 C :    0.045141
   7 H :    0.017159
   8 H :    0.015614
   9 C :   -0.097839
  10 H :    0.041162
  11 H :    0.039319
  12 C :   -0.015457
  13 H :    0.012062
  14 H :    0.022550
  15 H :    0.046242
  16 S :    0.056897
  17 C :   -0.057463
  18 C :   -0.049930
  19 C :   -0.102968
  20 C :   -0.078002
  21 H :    0.024433
  22 C :    0.006954
  23 H :    0.044494
  24 H :    0.057189
  25 C :   -0.047342
  26 H :    0.026619
  27 H :    0.011967
  28 C :   -0.057901
  29 H :    0.056019
  30 H :    0.037639
  31 H :    0.032967
  32 H :    0.084488
  33 H :    0.049071
Sum of atomic charges:   -0.0000000

LOEWDIN ATOMIC CHARGES
----------------------
   0 S :    0.420601
   1 C :   -0.222810
   2 C :   -0.063093
   3 C :   -0.062447
   4 C :   -0.175738
   5 H :    0.029534
   6 C :   -0.041473
   7 H :    0.032191
   8 H :    0.026917
   9 C :   -0.037987
  10 H :    0.029674
  11 H :    0.026426
  12 C :   -0.066120
  13 H :    0.017866
  14 H :    0.028934
  15 H :    0.026361
  16 S :    0.369322
  17 C :   -0.169985
  18 C :   -0.072030
  19 C :   -0.062379
  20 C :   -0.181123
  21 H :    0.030461
  22 C :   -0.052802
  23 H :    0.029570
  24 H :    0.037247
  25 C :   -0.040773
  26 H :    0.027394
  27 H :    0.014304
  28 C :   -0.062305
  29 H :    0.029355
  30 H :    0.027686
  31 H :    0.031798
  32 H :    0.046483
  33 H :    0.028939

  Mayer bond orders larger than 0.100000
B(  0-S ,  1-C ) :   1.1555 B(  0-S ,  4-C ) :   1.1382 B(  1-C ,  2-C ) :   1.5856
B(  1-C , 32-H ) :   0.9496 B(  2-C ,  3-C ) :   1.2666 B(  2-C ,  6-C ) :   1.0440
B(  3-C ,  4-C ) :   1.5329 B(  3-C ,  5-H ) :   0.9810 B(  4-C , 20-C ) :   1.1240
B(  6-C ,  7-H ) :   0.9382 B(  6-C ,  8-H ) :   0.9348 B(  6-C ,  9-C ) :   1.0489
B(  9-C , 10-H ) :   0.9569 B(  9-C , 11-H ) :   0.9588 B(  9-C , 12-C ) :   1.0775
B( 12-C , 13-H ) :   0.9723 B( 12-C , 14-H ) :   0.9718 B( 12-C , 15-H ) :   0.9748
B( 16-S , 17-C ) :   1.1213 B( 16-S , 20-C ) :   1.1056 B( 17-C , 18-C ) :   1.6514
B( 17-C , 33-H ) :   0.9669 B( 18-C , 19-C ) :   1.2179 B( 18-C , 21-H ) :   0.9821
B( 19-C , 20-C ) :   1.5855 B( 19-C , 22-C ) :   1.0284 B( 22-C , 23-H ) :   0.9336
B( 22-C , 24-H ) :   0.9260 B( 22-C , 25-C ) :   1.0753 B( 25-C , 26-H ) :   0.9494
B( 25-C , 27-H ) :   0.9452 B( 25-C , 28-C ) :   1.0834 B( 28-C , 29-H ) :   0.9737
B( 28-C , 30-H ) :   0.9725 B( 28-C , 31-H ) :   0.9726

Dispersion correction           -0.013669911
FINAL SINGLE POINT ENERGY     -1339.876328343434

DIPOLE MOMENT
-------------
                                X             Y             Z
Electronic contribution:     -2.19031      -6.18951       3.40711
Nuclear contribution   :      2.01027       6.25869      -3.50519
                        -----------------------------------------
Total Dipole Moment    :     -0.18003       0.06918      -0.09808
                        -----------------------------------------
Magnitude (a.u.)       :      0.21637
Magnitude (Debye)      :      0.54998

Rotational constants in cm-1:     0.026449     0.007063     0.005800
Rotational constants in MHz :   792.932588   211.745878   173.886848

                             ****ORCA TERMINATED NORMALLY****
TOTAL RUN TIME: 0 days 0 hours 0 minutes 20 seconds 4 msec
