                         Program Version 4.2.1 -  RELEASE  -
|  1> ! wB97X-D3 SP def2-SVP
|  2> %pal
|  3> nprocs 24
|  4> end
|  5>
|  6> * xyz 0 1
|  7> S 	 -127.303 	 67.3594 	 -39.9303
|  8> C 	 -127.689 	 69.0341 	 -39.7856
|  9> C 	 -127.44 	 69.8188 	 -40.8798
| 10> C 	 -126.837 	 68.9897 	 -41.9052
| 11> C 	 -126.819 	 67.6054 	 -41.62
| 12> H 	 -126.404 	 69.261 	 -42.9102
| 13> C 	 -127.707 	 71.2681 	 -41.0248
| 14> H 	 -127.369 	 71.7726 	 -40.1764
| 15> H 	 -128.767 	 71.4026 	 -40.9218
| 16> C 	 -127.168 	 71.9334 	 -42.2662
| 17> H 	 -126.105 	 71.7919 	 -42.2561
| 18> H 	 -127.632 	 71.4389 	 -43.1489
| 19> C 	 -127.553 	 73.4297 	 -42.256
| 20> H 	 -127.354 	 73.7592 	 -41.2007
| 21> H 	 -127.112 	 74.0407 	 -42.9345
| 22> H 	 -128.598 	 73.5354 	 -42.5135
| 23> S 	 -124.926 	 65.5153 	 -41.4797
| 24> C 	 -124.646 	 64.5615 	 -42.9546
| 25> C 	 -125.287 	 65.0556 	 -44.0683
| 26> C 	 -126.123 	 66.1657 	 -43.7468
| 27> C 	 -126.153 	 66.5624 	 -42.3752
| 28> H 	 -125.149 	 64.7383 	 -45.1262
| 29> C 	 -126.832 	 66.9751 	 -44.8199
| 30> H 	 -127.488 	 67.6492 	 -44.3436
| 31> H 	 -127.444 	 66.3647 	 -45.4601
| 32> C 	 -125.903 	 68.0621 	 -45.519
| 33> H 	 -125.448 	 67.4633 	 -46.3488
| 34> H 	 -125.079 	 68.3123 	 -44.8165
| 35> C 	 -126.699 	 69.0988 	 -46.1775
| 36> H 	 -127.717 	 68.7761 	 -46.5093
| 37> H 	 -126.12 	 69.4023 	 -47.0361
| 38> H 	 -126.71 	 70.028 	 -45.5383
| 39> H 	 -128.048 	 69.4985 	 -38.8756
| 40> H 	 -123.908 	 63.7842 	 -43.0397
| 41> *
| 42>
| 43>                          ****END OF INPUT****

CARTESIAN COORDINATES (ANGSTROEM)
---------------------------------
  S    -127.303000   67.359400  -39.930300
  C    -127.689000   69.034100  -39.785600
  C    -127.440000   69.818800  -40.879800
  C    -126.837000   68.989700  -41.905200
  C    -126.819000   67.605400  -41.620000
  H    -126.404000   69.261000  -42.910200
  C    -127.707000   71.268100  -41.024800
  H    -127.369000   71.772600  -40.176400
  H    -128.767000   71.402600  -40.921800
  C    -127.168000   71.933400  -42.266200
  H    -126.105000   71.791900  -42.256100
  H    -127.632000   71.438900  -43.148900
  C    -127.553000   73.429700  -42.256000
  H    -127.354000   73.759200  -41.200700
  H    -127.112000   74.040700  -42.934500
  H    -128.598000   73.535400  -42.513500
  S    -124.926000   65.515300  -41.479700
  C    -124.646000   64.561500  -42.954600
  C    -125.287000   65.055600  -44.068300
  C    -126.123000   66.165700  -43.746800
  C    -126.153000   66.562400  -42.375200
  H    -125.149000   64.738300  -45.126200
  C    -126.832000   66.975100  -44.819900
  H    -127.488000   67.649200  -44.343600
  H    -127.444000   66.364700  -45.460100
  C    -125.903000   68.062100  -45.519000
  H    -125.448000   67.463300  -46.348800
  H    -125.079000   68.312300  -44.816500
  C    -126.699000   69.098800  -46.177500
  H    -127.717000   68.776100  -46.509300
  H    -126.120000   69.402300  -47.036100
  H    -126.710000   70.028000  -45.538300
  H    -128.048000   69.498500  -38.875600
  H    -123.908000   63.784200  -43.039700

 Total Charge           Charge          ....    0
 Multiplicity           Mult            ....    1
 Number of Electrons    NEL             ....  134
 Basis Dimension        Dim             ....  322

ORBITAL ENERGIES
----------------

  NO   OCC          E(Eh)            E(eV)
   0   2.0000     -88.968352     -2420.9519
   1   2.0000     -88.964715     -2420.8530
   2   2.0000     -10.334784      -281.2238
   3   2.0000     -10.332125      -281.1514
   4   2.0000     -10.319995      -280.8213
   5   2.0000     -10.310767      -280.5702
   6   2.0000     -10.305861      -280.4367
   7   2.0000     -10.303714      -280.3783
   8   2.0000     -10.302181      -280.3366
   9   2.0000     -10.296802      -280.1902
  10   2.0000     -10.290342      -280.0144
  11   2.0000     -10.289674      -279.9963
  12   2.0000     -10.284521      -279.8560
  13   2.0000     -10.283427      -279.8263
  14   2.0000     -10.283396      -279.8254
  15   2.0000     -10.277063      -279.6531
  16   2.0000      -8.082937      -219.9479
  17   2.0000      -8.077578      -219.8021
  18   2.0000      -6.041429      -164.3956
  19   2.0000      -6.037548      -164.2900
  20   2.0000      -6.036252      -164.2548
  21   2.0000      -6.033639      -164.1837
  22   2.0000      -6.032429      -164.1507
  23   2.0000      -6.028186      -164.0353
  24   2.0000      -0.999032       -27.1850
  25   2.0000      -0.974310       -26.5123
  26   2.0000      -0.923048       -25.1174
  27   2.0000      -0.910629       -24.7795
  28   2.0000      -0.870450       -23.6861
  29   2.0000      -0.852444       -23.1962
  30   2.0000      -0.845819       -23.0159
  31   2.0000      -0.812454       -22.1080
  32   2.0000      -0.785531       -21.3754
  33   2.0000      -0.768071       -20.9003
  34   2.0000      -0.717431       -19.5223
  35   2.0000      -0.693705       -18.8767
  36   2.0000      -0.690580       -18.7916
  37   2.0000      -0.656122       -17.8540
  38   2.0000      -0.643032       -17.4978
  39   2.0000      -0.615292       -16.7430
  40   2.0000      -0.596142       -16.2218
  41   2.0000      -0.581334       -15.8189
  42   2.0000      -0.568283       -15.4638
  43   2.0000      -0.565436       -15.3863
  44   2.0000      -0.531941       -14.4748
  45   2.0000      -0.523852       -14.2547
  46   2.0000      -0.513979       -13.9861
  47   2.0000      -0.508254       -13.8303
  48   2.0000      -0.504448       -13.7267
  49   2.0000      -0.500196       -13.6110
  50   2.0000      -0.493969       -13.4416
  51   2.0000      -0.480597       -13.0777
  52   2.0000      -0.473892       -12.8953
  53   2.0000      -0.462340       -12.5809
  54   2.0000      -0.457376       -12.4458
  55   2.0000      -0.453249       -12.3335
  56   2.0000      -0.445450       -12.1213
  57   2.0000      -0.437562       -11.9067
  58   2.0000      -0.434420       -11.8212
  59   2.0000      -0.431655       -11.7459
  60   2.0000      -0.427660       -11.6372
  61   2.0000      -0.418749       -11.3947
  62   2.0000      -0.394431       -10.7330
  63   2.0000      -0.348331        -9.4786
  64   2.0000      -0.329316        -8.9611
  65   2.0000      -0.328233        -8.9317
  66   2.0000      -0.283232        -7.7071
  67   0.0000       0.021482         0.5846
  68   0.0000       0.066557         1.8111
  69   0.0000       0.102278         2.7831
  70   0.0000       0.123525         3.3613
  71   0.0000       0.126152         3.4328

MULLIKEN ATOMIC CHARGES
-----------------------
   0 S :    0.119923
   1 C :   -0.120231
   2 C :   -0.068416
   3 C :   -0.017700
   4 C :   -0.143033
   5 H :    0.025312
   6 C :    0.091579
   7 H :    0.002936
   8 H :    0.025455
   9 C :   -0.103360
  10 H :    0.036653
  11 H :    0.044273
  12 C :    0.011036
  13 H :    0.030698
  14 H :    0.009524
  15 H :    0.025985
  16 S :    0.079135
  17 C :   -0.076506
  18 C :   -0.021826
  19 C :   -0.069615
  20 C :   -0.149518
  21 H :    0.035464
  22 C :    0.067042
  23 H :   -0.002309
  24 H :    0.028934
  25 C :   -0.119362
  26 H :    0.025351
  27 H :    0.057470
  28 C :   -0.034059
  29 H :    0.050107
  30 H :    0.029242
  31 H :    0.038997
  32 H :    0.036952
  33 H :    0.053867
Sum of atomic charges:   -0.0000000

LOEWDIN ATOMIC CHARGES
----------------------
   0 S :    0.411407
   1 C :   -0.199963
   2 C :   -0.062291
   3 C :   -0.062537
   4 C :   -0.197017
   5 H :    0.037380
   6 C :   -0.034067
   7 H :    0.024185
   8 H :    0.035546
   9 C :   -0.036605
  10 H :    0.022711
  11 H :    0.027709
  12 C :   -0.052957
  13 H :    0.031759
  14 H :    0.010361
  15 H :    0.027790
  16 S :    0.352789
  17 C :   -0.167334
  18 C :   -0.077777
  19 C :   -0.051052
  20 C :   -0.175181
  21 H :    0.041910
  22 C :   -0.033117
  23 H :    0.017926
  24 H :    0.025626
  25 C :   -0.048516
  26 H :    0.023843
  27 H :    0.031914
  28 C :   -0.073137
  29 H :    0.036122
  30 H :    0.028679
  31 H :    0.031369
  32 H :    0.026260
  33 H :    0.026266

  Mayer bond orders larger than 0.100000
B(  0-S ,  1-C ) :   1.1478 B(  0-S ,  4-C ) :   1.1376 B(  1-C ,  2-C ) :   1.6218
B(  1-C , 32-H ) :   0.9650 B(  2-C ,  3-C ) :   1.2418 B(  2-C ,  6-C ) :   1.0077
B(  3-C ,  4-C ) :   1.5489 B(  3-C ,  5-H ) :   0.9748 B(  4-C , 20-C ) :   1.0844
B(  6-C ,  7-H ) :   0.9192 B(  6-C ,  8-H ) :   0.9248 B(  6-C ,  9-C ) :   1.0935
B(  9-C , 10-H ) :   0.9521 B(  9-C , 11-H ) :   0.9451 B(  9-C , 12-C ) :   1.0793
B( 12-C , 13-H ) :   0.9741 B( 12-C , 14-H ) :   0.9722 B( 12-C , 15-H ) :   0.9726
B( 16-S , 17-C ) :   1.1484 B( 16-S , 20-C ) :   1.1022 B( 17-C , 18-C ) :   1.6041
B( 17-C , 20-C ) :   0.1014 B( 17-C , 33-H ) :   0.9645 B( 18-C , 19-C ) :   1.2505
B( 18-C , 21-H ) :   0.9820 B( 19-C , 20-C ) :   1.5827 B( 19-C , 22-C ) :   1.0651
B( 22-C , 23-H ) :   0.9352 B( 22-C , 24-H ) :   0.9345 B( 22-C , 25-C ) :   1.0322
B( 25-C , 26-H ) :   0.9582 B( 25-C , 27-H ) :   0.9544 B( 25-C , 28-C ) :   1.0822
B( 28-C , 29-H ) :   0.9677 B( 28-C , 30-H ) :   0.9698 B( 28-C , 31-H ) :   0.9690

Dispersion correction           -0.014486462
FINAL SINGLE POINT ENERGY     -1339.856362646647

DIPOLE MOMENT
-------------
                                X             Y             Z
Electronic contribution:      4.92576     -26.09054      19.52044
Nuclear contribution   :     -4.93095      26.78797     -20.09197
                        -----------------------------------------
Total Dipole Moment    :     -0.00520       0.69742      -0.57153
                        -----------------------------------------
Magnitude (a.u.)       :      0.90170
Magnitude (Debye)      :      2.29195

Rotational constants in cm-1:     0.017569     0.009544     0.006596
Rotational constants in MHz :   526.705866   286.127042   197.735726

                             ****ORCA TERMINATED NORMALLY****
TOTAL RUN TIME: 0 days 0 hours 0 minutes 22 seconds 130 msec
