                         Program Version 4.2.1 -  RELEASE  -
|  1> ! wB97X-D3 SP def2-SVP
|  2> %pal
|  3> nprocs 24
|  4> end
|  5>
|  6> * xyz 0 1
|  7> S 	 -81.9612 	 -31.7572 	 -52.1593
|  8> C 	 -80.4165 	 -31.5617 	 -52.9353
|  9> C 	 -80.3837 	 -30.3322 	 -53.495
| 10> C 	 -81.6473 	 -29.605 	 -53.3888
| 11> C 	 -82.6455 	 -30.3064 	 -52.766
| 12> H 	 -81.849 	 -28.6046 	 -53.7028
| 13> C 	 -79.2354 	 -29.6705 	 -54.1817
| 14> H 	 -78.6751 	 -29.0293 	 -53.4939
| 15> H 	 -79.6495 	 -28.9298 	 -54.8485
| 16> C 	 -78.1691 	 -30.6272 	 -54.84
| 17> H 	 -77.4161 	 -30.0797 	 -55.2014
| 18> H 	 -77.7332 	 -31.3409 	 -54.1486
| 19> C 	 -78.8554 	 -31.4609 	 -55.8768
| 20> H 	 -79.3427 	 -31.0234 	 -56.7857
| 21> H 	 -78.1638 	 -32.1837 	 -56.1772
| 22> H 	 -79.8 	 -31.9757 	 -55.3918
| 23> S 	 -84.4825 	 -28.3286 	 -53.2303
| 24> C 	 -86.0007 	 -28.3872 	 -52.4525
| 25> C 	 -86.0818 	 -29.417 	 -51.5363
| 26> C 	 -84.9035 	 -30.1979 	 -51.4715
| 27> C 	 -83.9976 	 -29.8055 	 -52.4538
| 28> H 	 -86.9772 	 -29.4931 	 -50.9588
| 29> C 	 -84.8534 	 -31.5357 	 -50.7073
| 30> H 	 -83.8066 	 -31.4438 	 -50.3133
| 31> H 	 -84.8392 	 -32.3268 	 -51.3785
| 32> C 	 -85.8141 	 -31.769 	 -49.5647
| 33> H 	 -86.0403 	 -30.8928 	 -48.961
| 34> H 	 -85.5487 	 -32.5352 	 -48.8186
| 35> C 	 -87.1213 	 -32.377 	 -50.1461
| 36> H 	 -87.0458 	 -33.3431 	 -50.5757
| 37> H 	 -87.4277 	 -31.919 	 -51.0546
| 38> H 	 -87.9092 	 -32.3483 	 -49.4319
| 39> H 	 -79.5583 	 -32.1866 	 -53.0378
| 40> H 	 -86.6502 	 -27.5857 	 -52.5282
| 41> *
| 42>
| 43>                          ****END OF INPUT****

CARTESIAN COORDINATES (ANGSTROEM)
---------------------------------
  S    -81.961200  -31.757200  -52.159300
  C    -80.416500  -31.561700  -52.935300
  C    -80.383700  -30.332200  -53.495000
  C    -81.647300  -29.605000  -53.388800
  C    -82.645500  -30.306400  -52.766000
  H    -81.849000  -28.604600  -53.702800
  C    -79.235400  -29.670500  -54.181700
  H    -78.675100  -29.029300  -53.493900
  H    -79.649500  -28.929800  -54.848500
  C    -78.169100  -30.627200  -54.840000
  H    -77.416100  -30.079700  -55.201400
  H    -77.733200  -31.340900  -54.148600
  C    -78.855400  -31.460900  -55.876800
  H    -79.342700  -31.023400  -56.785700
  H    -78.163800  -32.183700  -56.177200
  H    -79.800000  -31.975700  -55.391800
  S    -84.482500  -28.328600  -53.230300
  C    -86.000700  -28.387200  -52.452500
  C    -86.081800  -29.417000  -51.536300
  C    -84.903500  -30.197900  -51.471500
  C    -83.997600  -29.805500  -52.453800
  H    -86.977200  -29.493100  -50.958800
  C    -84.853400  -31.535700  -50.707300
  H    -83.806600  -31.443800  -50.313300
  H    -84.839200  -32.326800  -51.378500
  C    -85.814100  -31.769000  -49.564700
  H    -86.040300  -30.892800  -48.961000
  H    -85.548700  -32.535200  -48.818600
  C    -87.121300  -32.377000  -50.146100
  H    -87.045800  -33.343100  -50.575700
  H    -87.427700  -31.919000  -51.054600
  H    -87.909200  -32.348300  -49.431900
  H    -79.558300  -32.186600  -53.037800
  H    -86.650200  -27.585700  -52.528200

 Total Charge           Charge          ....    0
 Multiplicity           Mult            ....    1
 Number of Electrons    NEL             ....  134
 Basis Dimension        Dim             ....  322

ORBITAL ENERGIES
----------------

  NO   OCC          E(Eh)            E(eV)
   0   2.0000     -88.967975     -2420.9417
   1   2.0000     -88.963935     -2420.8317
   2   2.0000     -10.329531      -281.0808
   3   2.0000     -10.328909      -281.0639
   4   2.0000     -10.309938      -280.5477
   5   2.0000     -10.306426      -280.4521
   6   2.0000     -10.306191      -280.4457
   7   2.0000     -10.296941      -280.1940
   8   2.0000     -10.291284      -280.0401
   9   2.0000     -10.291148      -280.0364
  10   2.0000     -10.290009      -280.0054
  11   2.0000     -10.288765      -279.9715
  12   2.0000     -10.287172      -279.9282
  13   2.0000     -10.280764      -279.7538
  14   2.0000     -10.274562      -279.5850
  15   2.0000     -10.266650      -279.3697
  16   2.0000      -8.083708      -219.9689
  17   2.0000      -8.078720      -219.8331
  18   2.0000      -6.042047      -164.4125
  19   2.0000      -6.038153      -164.3065
  20   2.0000      -6.037525      -164.2894
  21   2.0000      -6.034551      -164.2085
  22   2.0000      -6.033047      -164.1676
  23   2.0000      -6.029295      -164.0654
  24   2.0000      -1.014986       -27.6192
  25   2.0000      -0.993174       -27.0256
  26   2.0000      -0.916468       -24.9384
  27   2.0000      -0.913810       -24.8660
  28   2.0000      -0.873220       -23.7615
  29   2.0000      -0.856409       -23.3041
  30   2.0000      -0.845151       -22.9977
  31   2.0000      -0.815990       -22.2042
  32   2.0000      -0.785631       -21.3781
  33   2.0000      -0.778133       -21.1741
  34   2.0000      -0.715229       -19.4624
  35   2.0000      -0.707616       -19.2552
  36   2.0000      -0.702370       -19.1125
  37   2.0000      -0.666467       -18.1355
  38   2.0000      -0.634886       -17.2761
  39   2.0000      -0.613504       -16.6943
  40   2.0000      -0.601905       -16.3787
  41   2.0000      -0.585596       -15.9349
  42   2.0000      -0.556696       -15.1485
  43   2.0000      -0.553001       -15.0479
  44   2.0000      -0.541456       -14.7338
  45   2.0000      -0.537030       -14.6133
  46   2.0000      -0.526085       -14.3155
  47   2.0000      -0.519528       -14.1371
  48   2.0000      -0.511671       -13.9233
  49   2.0000      -0.497575       -13.5397
  50   2.0000      -0.493829       -13.4378
  51   2.0000      -0.482438       -13.1278
  52   2.0000      -0.478077       -13.0091
  53   2.0000      -0.465122       -12.6566
  54   2.0000      -0.463856       -12.6222
  55   2.0000      -0.456946       -12.4341
  56   2.0000      -0.441833       -12.0229
  57   2.0000      -0.438808       -11.9406
  58   2.0000      -0.434922       -11.8348
  59   2.0000      -0.423085       -11.5127
  60   2.0000      -0.417308       -11.3555
  61   2.0000      -0.413039       -11.2394
  62   2.0000      -0.398290       -10.8380
  63   2.0000      -0.363548        -9.8926
  64   2.0000      -0.334478        -9.1016
  65   2.0000      -0.321201        -8.7403
  66   2.0000      -0.285794        -7.7768
  67   0.0000       0.023406         0.6369
  68   0.0000       0.087566         2.3828
  69   0.0000       0.113892         3.0992
  70   0.0000       0.128636         3.5004
  71   0.0000       0.133609         3.6357

MULLIKEN ATOMIC CHARGES
-----------------------
   0 S :    0.075174
   1 C :   -0.075696
   2 C :   -0.112511
   3 C :   -0.032397
   4 C :   -0.073767
   5 H :    0.005479
   6 C :    0.069681
   7 H :    0.036013
   8 H :    0.018396
   9 C :   -0.005356
  10 H :   -0.000822
  11 H :    0.024822
  12 C :   -0.096281
  13 H :    0.038706
  14 H :    0.022785
  15 H :    0.049351
  16 S :    0.094966
  17 C :   -0.052430
  18 C :   -0.037945
  19 C :   -0.061149
  20 C :   -0.123238
  21 H :    0.017226
  22 C :    0.043870
  23 H :    0.046086
  24 H :    0.034731
  25 C :   -0.045653
  26 H :    0.031451
  27 H :    0.039569
  28 C :   -0.044336
  29 H :    0.016460
  30 H :    0.010316
  31 H :    0.027026
  32 H :    0.028994
  33 H :    0.030477
Sum of atomic charges:    0.0000000

LOEWDIN ATOMIC CHARGES
----------------------
   0 S :    0.429711
   1 C :   -0.208317
   2 C :   -0.058921
   3 C :   -0.081348
   4 C :   -0.190657
   5 H :    0.016617
   6 C :   -0.030850
   7 H :    0.035011
   8 H :    0.029742
   9 C :   -0.027099
  10 H :    0.008763
  11 H :    0.026903
  12 C :   -0.077767
  13 H :    0.028466
  14 H :    0.013866
  15 H :    0.039548
  16 S :    0.436740
  17 C :   -0.183075
  18 C :   -0.069110
  19 C :   -0.053356
  20 C :   -0.193100
  21 H :    0.030040
  22 C :   -0.034877
  23 H :    0.031866
  24 H :    0.022482
  25 C :   -0.039013
  26 H :    0.025726
  27 H :    0.034078
  28 C :   -0.065996
  29 H :    0.022702
  30 H :    0.018345
  31 H :    0.020416
  32 H :    0.029394
  33 H :    0.013074

  Mayer bond orders larger than 0.100000
B(  0-S ,  1-C ) :   1.1026 B(  0-S ,  4-C ) :   1.1429 B(  1-C ,  2-C ) :   1.6368
B(  1-C , 32-H ) :   0.9661 B(  2-C ,  3-C ) :   1.2318 B(  2-C ,  6-C ) :   1.0221
B(  3-C ,  4-C ) :   1.5758 B(  3-C ,  5-H ) :   0.9884 B(  4-C , 20-C ) :   1.0662
B(  6-C ,  7-H ) :   0.9296 B(  6-C ,  8-H ) :   0.9421 B(  6-C ,  9-C ) :   1.0770
B(  9-C , 10-H ) :   0.9486 B(  9-C , 11-H ) :   0.9510 B(  9-C , 12-C ) :   1.0743
B( 12-C , 13-H ) :   0.9751 B( 12-C , 14-H ) :   0.9754 B( 12-C , 15-H ) :   0.9691
B( 16-S , 17-C ) :   1.1708 B( 16-S , 20-C ) :   1.1594 B( 17-C , 18-C ) :   1.5873
B( 17-C , 33-H ) :   0.9748 B( 18-C , 19-C ) :   1.2614 B( 18-C , 21-H ) :   0.9917
B( 19-C , 20-C ) :   1.5560 B( 19-C , 22-C ) :   1.0183 B( 22-C , 23-H ) :   0.9131
B( 22-C , 24-H ) :   0.9497 B( 22-C , 25-C ) :   1.0725 B( 25-C , 26-H ) :   0.9592
B( 25-C , 27-H ) :   0.9566 B( 25-C , 28-C ) :   1.0632 B( 28-C , 29-H ) :   0.9703
B( 28-C , 30-H ) :   0.9720 B( 28-C , 31-H ) :   0.9752

Dispersion correction           -0.013966470
FINAL SINGLE POINT ENERGY     -1339.849463074695

DIPOLE MOMENT
-------------
                                X             Y             Z
Electronic contribution:     -4.22236       9.25675       0.17627
Nuclear contribution   :      4.30164      -9.12693      -0.06479
                        -----------------------------------------
Total Dipole Moment    :      0.07928       0.12982       0.11148
                        -----------------------------------------
Magnitude (a.u.)       :      0.18859
Magnitude (Debye)      :      0.47935

Rotational constants in cm-1:     0.027155     0.007226     0.005971
Rotational constants in MHz :   814.093153   216.643713   178.998233

                             ****ORCA TERMINATED NORMALLY****
TOTAL RUN TIME: 0 days 0 hours 0 minutes 21 seconds 403 msec
