                         Program Version 4.2.1 -  RELEASE  -
|  1> ! wB97X-D3 SP def2-SVP
|  2> %pal
|  3> nprocs 24
|  4> end
|  5>
|  6> * xyz 0 1
|  7> S 	 -95.2621 	 49.0254 	 -97.8013
|  8> C 	 -94.6124 	 48.7441 	 -96.229
|  9> C 	 -93.7853 	 49.7467 	 -95.7533
| 10> C 	 -93.877 	 50.8981 	 -96.6276
| 11> C 	 -94.68 	 50.7009 	 -97.7365
| 12> H 	 -93.375 	 51.8537 	 -96.4696
| 13> C 	 -92.9138 	 49.7108 	 -94.5465
| 14> H 	 -92.1615 	 48.9675 	 -94.6197
| 15> H 	 -93.404 	 49.2406 	 -93.762
| 16> C 	 -92.1193 	 50.9705 	 -94.2126
| 17> H 	 -91.4072 	 51.1927 	 -95.0098
| 18> H 	 -92.8185 	 51.8318 	 -94.0986
| 19> C 	 -91.3483 	 50.7589 	 -92.8857
| 20> H 	 -90.5099 	 51.4154 	 -92.8556
| 21> H 	 -91.8367 	 50.9415 	 -91.919
| 22> H 	 -90.7863 	 49.8057 	 -92.8724
| 23> S 	 -95.1413 	 51.1537 	 -100.38
| 24> C 	 -95.3616 	 52.7762 	 -101.032
| 25> C 	 -95.2838 	 53.7275 	 -100.024
| 26> C 	 -95.0555 	 53.19 	 -98.7055
| 27> C 	 -95.0563 	 51.7425 	 -98.6924
| 28> H 	 -95.3099 	 54.7818 	 -100.216
| 29> C 	 -94.9005 	 54.0591 	 -97.4353
| 30> H 	 -95.0494 	 55.0878 	 -97.6555
| 31> H 	 -93.7928 	 53.9814 	 -97.1471
| 32> C 	 -95.9271 	 53.7673 	 -96.2977
| 33> H 	 -95.6235 	 52.7957 	 -95.8128
| 34> H 	 -96.953 	 53.6513 	 -96.6151
| 35> C 	 -96.0168 	 54.8563 	 -95.1603
| 36> H 	 -95.0561 	 55.4048 	 -95.0222
| 37> H 	 -96.3318 	 54.4695 	 -94.1682
| 38> H 	 -96.6772 	 55.6776 	 -95.3731
| 39> H 	 -94.6359 	 47.7645 	 -95.8085
| 40> H 	 -95.5757 	 53.0602 	 -102.111
| 41> *
| 42>
| 43>                          ****END OF INPUT****

CARTESIAN COORDINATES (ANGSTROEM)
---------------------------------
  S    -95.262100   49.025400  -97.801300
  C    -94.612400   48.744100  -96.229000
  C    -93.785300   49.746700  -95.753300
  C    -93.877000   50.898100  -96.627600
  C    -94.680000   50.700900  -97.736500
  H    -93.375000   51.853700  -96.469600
  C    -92.913800   49.710800  -94.546500
  H    -92.161500   48.967500  -94.619700
  H    -93.404000   49.240600  -93.762000
  C    -92.119300   50.970500  -94.212600
  H    -91.407200   51.192700  -95.009800
  H    -92.818500   51.831800  -94.098600
  C    -91.348300   50.758900  -92.885700
  H    -90.509900   51.415400  -92.855600
  H    -91.836700   50.941500  -91.919000
  H    -90.786300   49.805700  -92.872400
  S    -95.141300   51.153700  -100.380000
  C    -95.361600   52.776200  -101.032000
  C    -95.283800   53.727500  -100.024000
  C    -95.055500   53.190000  -98.705500
  C    -95.056300   51.742500  -98.692400
  H    -95.309900   54.781800  -100.216000
  C    -94.900500   54.059100  -97.435300
  H    -95.049400   55.087800  -97.655500
  H    -93.792800   53.981400  -97.147100
  C    -95.927100   53.767300  -96.297700
  H    -95.623500   52.795700  -95.812800
  H    -96.953000   53.651300  -96.615100
  C    -96.016800   54.856300  -95.160300
  H    -95.056100   55.404800  -95.022200
  H    -96.331800   54.469500  -94.168200
  H    -96.677200   55.677600  -95.373100
  H    -94.635900   47.764500  -95.808500
  H    -95.575700   53.060200  -102.111000

 Total Charge           Charge          ....    0
 Multiplicity           Mult            ....    1
 Number of Electrons    NEL             ....  134
 Basis Dimension        Dim             ....  322

ORBITAL ENERGIES
----------------

  NO   OCC          E(Eh)            E(eV)
   0   2.0000     -88.968003     -2420.9424
   1   2.0000     -88.965372     -2420.8708
   2   2.0000     -10.335624      -281.2466
   3   2.0000     -10.331428      -281.1325
   4   2.0000     -10.324925      -280.9555
   5   2.0000     -10.315004      -280.6855
   6   2.0000     -10.309377      -280.5324
   7   2.0000     -10.302888      -280.3558
   8   2.0000     -10.302544      -280.3465
   9   2.0000     -10.296953      -280.1943
  10   2.0000     -10.296541      -280.1831
  11   2.0000     -10.295019      -280.1417
  12   2.0000     -10.291337      -280.0415
  13   2.0000     -10.282910      -279.8122
  14   2.0000     -10.281619      -279.7771
  15   2.0000     -10.281205      -279.7658
  16   2.0000      -8.082689      -219.9411
  17   2.0000      -8.079229      -219.8470
  18   2.0000      -6.041248      -164.3907
  19   2.0000      -6.037882      -164.2991
  20   2.0000      -6.037365      -164.2851
  21   2.0000      -6.033778      -164.1875
  22   2.0000      -6.033251      -164.1731
  23   2.0000      -6.029988      -164.0843
  24   2.0000      -1.000888       -27.2355
  25   2.0000      -0.976206       -26.5639
  26   2.0000      -0.917527       -24.9672
  27   2.0000      -0.897189       -24.4138
  28   2.0000      -0.868684       -23.6381
  29   2.0000      -0.849587       -23.1184
  30   2.0000      -0.841179       -22.8896
  31   2.0000      -0.813293       -22.1308
  32   2.0000      -0.783431       -21.3182
  33   2.0000      -0.768934       -20.9238
  34   2.0000      -0.717034       -19.5115
  35   2.0000      -0.701389       -19.0858
  36   2.0000      -0.685079       -18.6420
  37   2.0000      -0.661404       -17.9977
  38   2.0000      -0.640592       -17.4314
  39   2.0000      -0.624514       -16.9939
  40   2.0000      -0.588521       -16.0145
  41   2.0000      -0.572063       -15.5666
  42   2.0000      -0.563164       -15.3245
  43   2.0000      -0.555189       -15.1074
  44   2.0000      -0.522437       -14.2162
  45   2.0000      -0.517932       -14.0937
  46   2.0000      -0.512702       -13.9513
  47   2.0000      -0.508941       -13.8490
  48   2.0000      -0.503818       -13.7096
  49   2.0000      -0.495172       -13.4743
  50   2.0000      -0.492033       -13.3889
  51   2.0000      -0.478583       -13.0229
  52   2.0000      -0.474143       -12.9021
  53   2.0000      -0.469615       -12.7789
  54   2.0000      -0.453455       -12.3391
  55   2.0000      -0.450207       -12.2508
  56   2.0000      -0.445998       -12.1362
  57   2.0000      -0.435804       -11.8588
  58   2.0000      -0.433740       -11.8027
  59   2.0000      -0.429952       -11.6996
  60   2.0000      -0.424807       -11.5596
  61   2.0000      -0.415046       -11.2940
  62   2.0000      -0.410066       -11.1585
  63   2.0000      -0.354389        -9.6434
  64   2.0000      -0.332341        -9.0435
  65   2.0000      -0.325797        -8.8654
  66   2.0000      -0.279687        -7.6107
  67   0.0000       0.017821         0.4849
  68   0.0000       0.074051         2.0150
  69   0.0000       0.100708         2.7404
  70   0.0000       0.122947         3.3456
  71   0.0000       0.131241         3.5713

MULLIKEN ATOMIC CHARGES
-----------------------
   0 S :    0.119067
   1 C :   -0.117241
   2 C :   -0.066171
   3 C :   -0.034778
   4 C :   -0.100695
   5 H :    0.010606
   6 C :    0.114335
   7 H :    0.005327
   8 H :    0.002248
   9 C :   -0.099427
  10 H :    0.044049
  11 H :    0.043803
  12 C :   -0.034262
  13 H :    0.010959
  14 H :    0.047157
  15 H :    0.023661
  16 S :    0.078282
  17 C :   -0.104302
  18 C :   -0.019711
  19 C :   -0.072924
  20 C :   -0.126024
  21 H :    0.012889
  22 C :    0.046747
  23 H :    0.005161
  24 H :    0.058531
  25 C :   -0.069946
  26 H :    0.050305
  27 H :    0.041181
  28 C :   -0.081372
  29 H :    0.024262
  30 H :    0.041867
  31 H :    0.027411
  32 H :    0.035390
  33 H :    0.083617
Sum of atomic charges:    0.0000000

LOEWDIN ATOMIC CHARGES
----------------------
   0 S :    0.405146
   1 C :   -0.199532
   2 C :   -0.055022
   3 C :   -0.063830
   4 C :   -0.192286
   5 H :    0.030506
   6 C :   -0.039378
   7 H :    0.032695
   8 H :    0.027979
   9 C :   -0.035999
  10 H :    0.029142
  11 H :    0.027720
  12 C :   -0.070948
  13 H :    0.022384
  14 H :    0.030636
  15 H :    0.028250
  16 S :    0.386695
  17 C :   -0.195626
  18 C :   -0.073802
  19 C :   -0.053361
  20 C :   -0.180503
  21 H :    0.029338
  22 C :   -0.036535
  23 H :    0.022106
  24 H :    0.041155
  25 C :   -0.041586
  26 H :    0.030688
  27 H :    0.028465
  28 C :   -0.077392
  29 H :    0.024677
  30 H :    0.031132
  31 H :    0.019769
  32 H :    0.019967
  33 H :    0.047351

  Mayer bond orders larger than 0.100000
B(  0-S ,  1-C ) :   1.1412 B(  0-S ,  4-C ) :   1.1383 B(  1-C ,  2-C ) :   1.6167
B(  1-C , 32-H ) :   0.9698 B(  2-C ,  3-C ) :   1.2448 B(  2-C ,  6-C ) :   1.0175
B(  3-C ,  4-C ) :   1.5626 B(  3-C ,  5-H ) :   0.9852 B(  4-C , 20-C ) :   1.0602
B(  6-C ,  7-H ) :   0.9113 B(  6-C ,  8-H ) :   0.9257 B(  6-C ,  9-C ) :   1.0813
B(  9-C , 10-H ) :   0.9471 B(  9-C , 11-H ) :   0.9529 B(  9-C , 12-C ) :   1.0810
B( 12-C , 13-H ) :   0.9694 B( 12-C , 14-H ) :   0.9766 B( 12-C , 15-H ) :   0.9695
B( 16-S , 17-C ) :   1.1560 B( 16-S , 20-C ) :   1.1370 B( 17-C , 18-C ) :   1.5901
B( 17-C , 20-C ) :   0.1065 B( 17-C , 33-H ) :   0.9569 B( 18-C , 19-C ) :   1.2809
B( 18-C , 21-H ) :   0.9887 B( 19-C , 20-C ) :   1.5389 B( 19-C , 22-C ) :   1.0348
B( 22-C , 23-H ) :   0.9376 B( 22-C , 24-H ) :   0.9293 B( 22-C , 25-C ) :   1.0529
B( 25-C , 26-H ) :   0.9537 B( 25-C , 27-H ) :   0.9611 B( 25-C , 28-C ) :   1.0679
B( 28-C , 29-H ) :   0.9769 B( 28-C , 30-H ) :   0.9779 B( 28-C , 31-H ) :   0.9776

Dispersion correction           -0.014200997
FINAL SINGLE POINT ENERGY     -1339.866983844332

DIPOLE MOMENT
-------------
                                X             Y             Z
Electronic contribution:     -9.42687     -14.98026     -27.72450
Nuclear contribution   :      9.83907      15.39688      28.27570
                        -----------------------------------------
Total Dipole Moment    :      0.41220       0.41661       0.55120
                        -----------------------------------------
Magnitude (a.u.)       :      0.80455
Magnitude (Debye)      :      2.04499

Rotational constants in cm-1:     0.016962     0.009302     0.006843
Rotational constants in MHz :   508.497587   278.877364   205.158036

                             ****ORCA TERMINATED NORMALLY****
TOTAL RUN TIME: 0 days 0 hours 0 minutes 21 seconds 797 msec
