                         Program Version 4.2.1 -  RELEASE  -
|  1> ! wB97X-D3 SP def2-SVP
|  2> %pal
|  3> nprocs 24
|  4> end
|  5>
|  6> * xyz 0 1
|  7> S 	 -118.04 	 34.4868 	 -118.276
|  8> C 	 -117.486 	 33.9331 	 -119.813
|  9> C 	 -116.11 	 34.175 	 -119.898
| 10> C 	 -115.546 	 34.8403 	 -118.756
| 11> C 	 -116.443 	 34.8354 	 -117.689
| 12> H 	 -114.461 	 35.1336 	 -118.672
| 13> C 	 -115.314 	 33.7928 	 -121.117
| 14> H 	 -114.753 	 34.5746 	 -121.508
| 15> H 	 -115.964 	 33.5776 	 -121.961
| 16> C 	 -114.276 	 32.6995 	 -120.763
| 17> H 	 -113.527 	 33.1791 	 -120.154
| 18> H 	 -114.773 	 31.7335 	 -120.283
| 19> C 	 -113.466 	 32.1163 	 -121.9
| 20> H 	 -112.879 	 31.2118 	 -121.629
| 21> H 	 -114.063 	 31.6013 	 -122.611
| 22> H 	 -112.749 	 32.8409 	 -122.369
| 23> S 	 -114.399 	 34.6679 	 -115.963
| 24> C 	 -114.441 	 35.3401 	 -114.378
| 25> C 	 -115.78 	 35.5927 	 -114.076
| 26> C 	 -116.704 	 35.4018 	 -115.144
| 27> C 	 -116.08 	 35.0697 	 -116.326
| 28> H 	 -116.141 	 35.9678 	 -113.114
| 29> C 	 -118.153 	 35.8597 	 -115.167
| 30> H 	 -118.653 	 34.9261 	 -115.326
| 31> H 	 -118.346 	 36.4368 	 -116.058
| 32> C 	 -118.737 	 36.5193 	 -113.916
| 33> H 	 -118.271 	 37.3927 	 -113.658
| 34> H 	 -118.628 	 35.7849 	 -113.141
| 35> C 	 -120.243 	 36.8763 	 -114.267
| 36> H 	 -120.886 	 36.0019 	 -114.42
| 37> H 	 -120.318 	 37.4397 	 -115.181
| 38> H 	 -120.854 	 37.3649 	 -113.519
| 39> H 	 -118.145 	 33.519 	 -120.584
| 40> H 	 -113.664 	 35.412 	 -113.645
| 41> *
| 42>
| 43>                          ****END OF INPUT****

CARTESIAN COORDINATES (ANGSTROEM)
---------------------------------
  S    -118.040000   34.486800  -118.276000
  C    -117.486000   33.933100  -119.813000
  C    -116.110000   34.175000  -119.898000
  C    -115.546000   34.840300  -118.756000
  C    -116.443000   34.835400  -117.689000
  H    -114.461000   35.133600  -118.672000
  C    -115.314000   33.792800  -121.117000
  H    -114.753000   34.574600  -121.508000
  H    -115.964000   33.577600  -121.961000
  C    -114.276000   32.699500  -120.763000
  H    -113.527000   33.179100  -120.154000
  H    -114.773000   31.733500  -120.283000
  C    -113.466000   32.116300  -121.900000
  H    -112.879000   31.211800  -121.629000
  H    -114.063000   31.601300  -122.611000
  H    -112.749000   32.840900  -122.369000
  S    -114.399000   34.667900  -115.963000
  C    -114.441000   35.340100  -114.378000
  C    -115.780000   35.592700  -114.076000
  C    -116.704000   35.401800  -115.144000
  C    -116.080000   35.069700  -116.326000
  H    -116.141000   35.967800  -113.114000
  C    -118.153000   35.859700  -115.167000
  H    -118.653000   34.926100  -115.326000
  H    -118.346000   36.436800  -116.058000
  C    -118.737000   36.519300  -113.916000
  H    -118.271000   37.392700  -113.658000
  H    -118.628000   35.784900  -113.141000
  C    -120.243000   36.876300  -114.267000
  H    -120.886000   36.001900  -114.420000
  H    -120.318000   37.439700  -115.181000
  H    -120.854000   37.364900  -113.519000
  H    -118.145000   33.519000  -120.584000
  H    -113.664000   35.412000  -113.645000

 Total Charge           Charge          ....    0
 Multiplicity           Mult            ....    1
 Number of Electrons    NEL             ....  134
 Basis Dimension        Dim             ....  322

ORBITAL ENERGIES
----------------

  NO   OCC          E(Eh)            E(eV)
   0   2.0000     -88.967101     -2420.9179
   1   2.0000     -88.962725     -2420.7988
   2   2.0000     -10.332798      -281.1697
   3   2.0000     -10.324119      -280.9336
   4   2.0000     -10.316583      -280.7285
   5   2.0000     -10.315640      -280.7028
   6   2.0000     -10.303679      -280.3774
   7   2.0000     -10.299656      -280.2679
   8   2.0000     -10.299244      -280.2567
   9   2.0000     -10.294887      -280.1381
  10   2.0000     -10.292484      -280.0727
  11   2.0000     -10.286641      -279.9137
  12   2.0000     -10.285650      -279.8868
  13   2.0000     -10.285200      -279.8745
  14   2.0000     -10.278386      -279.6891
  15   2.0000     -10.276241      -279.6307
  16   2.0000      -8.082038      -219.9234
  17   2.0000      -8.077590      -219.8024
  18   2.0000      -6.040562      -164.3721
  19   2.0000      -6.036406      -164.2590
  20   2.0000      -6.036146      -164.2519
  21   2.0000      -6.032895      -164.1634
  22   2.0000      -6.031979      -164.1385
  23   2.0000      -6.028352      -164.0398
  24   2.0000      -1.012388       -27.5485
  25   2.0000      -0.987717       -26.8772
  26   2.0000      -0.912359       -24.8265
  27   2.0000      -0.910565       -24.7777
  28   2.0000      -0.874719       -23.8023
  29   2.0000      -0.852693       -23.2030
  30   2.0000      -0.844779       -22.9876
  31   2.0000      -0.811473       -22.0813
  32   2.0000      -0.781733       -21.2720
  33   2.0000      -0.772534       -21.0217
  34   2.0000      -0.720190       -19.5974
  35   2.0000      -0.706460       -19.2238
  36   2.0000      -0.688244       -18.7281
  37   2.0000      -0.663816       -18.0634
  38   2.0000      -0.634629       -17.2691
  39   2.0000      -0.614737       -16.7279
  40   2.0000      -0.598876       -16.2962
  41   2.0000      -0.577348       -15.7104
  42   2.0000      -0.573786       -15.6135
  43   2.0000      -0.562264       -15.3000
  44   2.0000      -0.526631       -14.3304
  45   2.0000      -0.521573       -14.1927
  46   2.0000      -0.516832       -14.0637
  47   2.0000      -0.512200       -13.9377
  48   2.0000      -0.507006       -13.7963
  49   2.0000      -0.506268       -13.7763
  50   2.0000      -0.484080       -13.1725
  51   2.0000      -0.480639       -13.0788
  52   2.0000      -0.476812       -12.9747
  53   2.0000      -0.472437       -12.8557
  54   2.0000      -0.459221       -12.4960
  55   2.0000      -0.447248       -12.1702
  56   2.0000      -0.444260       -12.0889
  57   2.0000      -0.438422       -11.9301
  58   2.0000      -0.432678       -11.7738
  59   2.0000      -0.426691       -11.6108
  60   2.0000      -0.415504       -11.3064
  61   2.0000      -0.410930       -11.1820
  62   2.0000      -0.406126       -11.0512
  63   2.0000      -0.360623        -9.8130
  64   2.0000      -0.329200        -8.9580
  65   2.0000      -0.326688        -8.8896
  66   2.0000      -0.280595        -7.6354
  67   0.0000       0.015452         0.4205
  68   0.0000       0.085097         2.3156
  69   0.0000       0.113325         3.0837
  70   0.0000       0.121016         3.2930
  71   0.0000       0.134786         3.6677

MULLIKEN ATOMIC CHARGES
-----------------------
   0 S :    0.102257
   1 C :   -0.119105
   2 C :   -0.098199
   3 C :   -0.008709
   4 C :   -0.127446
   5 H :    0.051417
   6 C :    0.122220
   7 H :    0.002321
   8 H :    0.007810
   9 C :   -0.115759
  10 H :    0.033570
  11 H :    0.051940
  12 C :   -0.052754
  13 H :    0.028874
  14 H :    0.013148
  15 H :    0.038272
  16 S :    0.091075
  17 C :   -0.058591
  18 C :   -0.062289
  19 C :   -0.022924
  20 C :   -0.143429
  21 H :    0.017249
  22 C :    0.001647
  23 H :    0.029965
  24 H :    0.034443
  25 C :   -0.008235
  26 H :    0.021683
  27 H :    0.031424
  28 C :   -0.053650
  29 H :    0.021595
  30 H :    0.030068
  31 H :    0.026220
  32 H :    0.062063
  33 H :    0.051828
Sum of atomic charges:   -0.0000000

LOEWDIN ATOMIC CHARGES
----------------------
   0 S :    0.423513
   1 C :   -0.213183
   2 C :   -0.055810
   3 C :   -0.077964
   4 C :   -0.195040
   5 H :    0.038212
   6 C :   -0.031469
   7 H :    0.023069
   8 H :    0.027260
   9 C :   -0.044391
  10 H :    0.023451
  11 H :    0.040260
  12 C :   -0.080381
  13 H :    0.032771
  14 H :    0.017078
  15 H :    0.026817
  16 S :    0.423630
  17 C :   -0.194894
  18 C :   -0.076095
  19 C :   -0.063195
  20 C :   -0.182894
  21 H :    0.028773
  22 C :   -0.034907
  23 H :    0.030727
  24 H :    0.025168
  25 C :   -0.021833
  26 H :    0.012577
  27 H :    0.024697
  28 C :   -0.066505
  29 H :    0.026823
  30 H :    0.024382
  31 H :    0.023325
  32 H :    0.035522
  33 H :    0.030508

  Mayer bond orders larger than 0.100000
B(  0-S ,  1-C ) :   1.1308 B(  0-S ,  4-C ) :   1.1539 B(  1-C ,  2-C ) :   1.5796
B(  1-C , 32-H ) :   0.9725 B(  2-C ,  3-C ) :   1.2598 B(  2-C ,  6-C ) :   1.0484
B(  3-C ,  4-C ) :   1.5025 B(  3-C ,  5-H ) :   0.9737 B(  4-C , 20-C ) :   1.1172
B(  6-C ,  7-H ) :   0.9272 B(  6-C ,  8-H ) :   0.9430 B(  6-C ,  9-C ) :   1.0472
B(  9-C , 10-H ) :   0.9553 B(  9-C , 11-H ) :   0.9576 B(  9-C , 12-C ) :   1.0941
B( 12-C , 13-H ) :   0.9699 B( 12-C , 14-H ) :   0.9700 B( 12-C , 15-H ) :   0.9716
B( 16-S , 17-C ) :   1.1596 B( 16-S , 20-C ) :   1.1384 B( 17-C , 18-C ) :   1.5606
B( 17-C , 20-C ) :   0.1027 B( 17-C , 33-H ) :   0.9726 B( 18-C , 19-C ) :   1.2862
B( 18-C , 21-H ) :   0.9798 B( 19-C , 20-C ) :   1.5542 B( 19-C , 22-C ) :   1.0089
B( 22-C , 23-H ) :   0.9222 B( 22-C , 24-H ) :   0.9495 B( 22-C , 25-C ) :   1.0825
B( 25-C , 26-H ) :   0.9564 B( 25-C , 27-H ) :   0.9506 B( 25-C , 28-C ) :   1.0721
B( 28-C , 29-H ) :   0.9756 B( 28-C , 30-H ) :   0.9771 B( 28-C , 31-H ) :   0.9758

Dispersion correction           -0.013481246
FINAL SINGLE POINT ENERGY     -1339.858696483241

DIPOLE MOMENT
-------------
                                X             Y             Z
Electronic contribution:      3.04351       0.93950       5.49582
Nuclear contribution   :     -3.08303      -0.91177      -5.57249
                        -----------------------------------------
Total Dipole Moment    :     -0.03952       0.02772      -0.07667
                        -----------------------------------------
Magnitude (a.u.)       :      0.09060
Magnitude (Debye)      :      0.23030

Rotational constants in cm-1:     0.024061     0.007522     0.005859
Rotational constants in MHz :   721.321391   225.503699   175.642902

                             ****ORCA TERMINATED NORMALLY****
TOTAL RUN TIME: 0 days 0 hours 0 minutes 19 seconds 850 msec
