                         Program Version 4.2.1 -  RELEASE  -
|  1> ! wB97X-D3 SP def2-SVP
|  2> %pal
|  3> nprocs 24
|  4> end
|  5>
|  6> * xyz 0 1
|  7> S 	 -133.088 	 65.0962 	 -58.9238
|  8> C 	 -133.16 	 66.8542 	 -58.9155
|  9> C 	 -132.905 	 67.3479 	 -60.175
| 10> C 	 -132.815 	 66.3675 	 -61.1751
| 11> C 	 -132.921 	 65.1014 	 -60.6446
| 12> H 	 -132.774 	 66.5585 	 -62.2094
| 13> C 	 -132.735 	 68.8058 	 -60.522
| 14> H 	 -133.528 	 69.4231 	 -60.0483
| 15> H 	 -133.082 	 68.9685 	 -61.5753
| 16> C 	 -131.327 	 69.3072 	 -60.5729
| 17> H 	 -130.791 	 68.4991 	 -61.1607
| 18> H 	 -131.318 	 70.1283 	 -61.296
| 19> C 	 -130.752 	 69.7637 	 -59.2933
| 20> H 	 -129.755 	 70.0896 	 -59.4413
| 21> H 	 -131.46 	 70.4705 	 -58.926
| 22> H 	 -130.684 	 69.0353 	 -58.5666
| 23> S 	 -134.171 	 62.733 	 -61.3518
| 24> C 	 -133.284 	 61.6622 	 -62.4653
| 25> C 	 -132.114 	 62.1719 	 -62.8778
| 26> C 	 -131.792 	 63.4093 	 -62.2661
| 27> C 	 -132.773 	 63.8455 	 -61.3661
| 28> H 	 -131.591 	 61.714 	 -63.6672
| 29> C 	 -130.457 	 64.1008 	 -62.5993
| 30> H 	 -130.657 	 65.186 	 -62.4355
| 31> H 	 -130.24 	 63.9229 	 -63.6629
| 32> C 	 -129.211 	 63.7441 	 -61.7895
| 33> H 	 -128.865 	 62.7727 	 -62.0433
| 34> H 	 -129.466 	 63.6017 	 -60.7295
| 35> C 	 -128.098 	 64.7577 	 -61.9882
| 36> H 	 -127.816 	 65.0672 	 -63.0048
| 37> H 	 -127.181 	 64.5132 	 -61.4293
| 38> H 	 -128.519 	 65.6955 	 -61.6793
| 39> H 	 -133.325 	 67.395 	 -58.0539
| 40> H 	 -133.821 	 60.7402 	 -62.6719
| 41> *
| 42>
| 43>                          ****END OF INPUT****

CARTESIAN COORDINATES (ANGSTROEM)
---------------------------------
  S    -133.088000   65.096200  -58.923800
  C    -133.160000   66.854200  -58.915500
  C    -132.905000   67.347900  -60.175000
  C    -132.815000   66.367500  -61.175100
  C    -132.921000   65.101400  -60.644600
  H    -132.774000   66.558500  -62.209400
  C    -132.735000   68.805800  -60.522000
  H    -133.528000   69.423100  -60.048300
  H    -133.082000   68.968500  -61.575300
  C    -131.327000   69.307200  -60.572900
  H    -130.791000   68.499100  -61.160700
  H    -131.318000   70.128300  -61.296000
  C    -130.752000   69.763700  -59.293300
  H    -129.755000   70.089600  -59.441300
  H    -131.460000   70.470500  -58.926000
  H    -130.684000   69.035300  -58.566600
  S    -134.171000   62.733000  -61.351800
  C    -133.284000   61.662200  -62.465300
  C    -132.114000   62.171900  -62.877800
  C    -131.792000   63.409300  -62.266100
  C    -132.773000   63.845500  -61.366100
  H    -131.591000   61.714000  -63.667200
  C    -130.457000   64.100800  -62.599300
  H    -130.657000   65.186000  -62.435500
  H    -130.240000   63.922900  -63.662900
  C    -129.211000   63.744100  -61.789500
  H    -128.865000   62.772700  -62.043300
  H    -129.466000   63.601700  -60.729500
  C    -128.098000   64.757700  -61.988200
  H    -127.816000   65.067200  -63.004800
  H    -127.181000   64.513200  -61.429300
  H    -128.519000   65.695500  -61.679300
  H    -133.325000   67.395000  -58.053900
  H    -133.821000   60.740200  -62.671900

 Total Charge           Charge          ....    0
 Multiplicity           Mult            ....    1
 Number of Electrons    NEL             ....  134
 Basis Dimension        Dim             ....  322

ORBITAL ENERGIES
----------------

  NO   OCC          E(Eh)            E(eV)
   0   2.0000     -88.965345     -2420.8701
   1   2.0000     -88.960720     -2420.7443
   2   2.0000     -10.327273      -281.0194
   3   2.0000     -10.325180      -280.9624
   4   2.0000     -10.317391      -280.7505
   5   2.0000     -10.307846      -280.4907
   6   2.0000     -10.305727      -280.4331
   7   2.0000     -10.296203      -280.1739
   8   2.0000     -10.294857      -280.1373
   9   2.0000     -10.289287      -279.9857
  10   2.0000     -10.288579      -279.9665
  11   2.0000     -10.287383      -279.9339
  12   2.0000     -10.284620      -279.8587
  13   2.0000     -10.281508      -279.7741
  14   2.0000     -10.276271      -279.6315
  15   2.0000     -10.262207      -279.2488
  16   2.0000      -8.080470      -219.8808
  17   2.0000      -8.075139      -219.7357
  18   2.0000      -6.038846      -164.3253
  19   2.0000      -6.034958      -164.2196
  20   2.0000      -6.033566      -164.1817
  21   2.0000      -6.031331      -164.1209
  22   2.0000      -6.029776      -164.0785
  23   2.0000      -6.025925      -163.9738
  24   2.0000      -1.007201       -27.4073
  25   2.0000      -0.983798       -26.7705
  26   2.0000      -0.921012       -25.0620
  27   2.0000      -0.907237       -24.6872
  28   2.0000      -0.872198       -23.7337
  29   2.0000      -0.855232       -23.2721
  30   2.0000      -0.848963       -23.1015
  31   2.0000      -0.815574       -22.1929
  32   2.0000      -0.788915       -21.4675
  33   2.0000      -0.772019       -21.0077
  34   2.0000      -0.709158       -19.2972
  35   2.0000      -0.697688       -18.9850
  36   2.0000      -0.695021       -18.9125
  37   2.0000      -0.663662       -18.0592
  38   2.0000      -0.648460       -17.6455
  39   2.0000      -0.623274       -16.9601
  40   2.0000      -0.600489       -16.3401
  41   2.0000      -0.572295       -15.5729
  42   2.0000      -0.563198       -15.3254
  43   2.0000      -0.554353       -15.0847
  44   2.0000      -0.547831       -14.9072
  45   2.0000      -0.528741       -14.3878
  46   2.0000      -0.524249       -14.2655
  47   2.0000      -0.509460       -13.8631
  48   2.0000      -0.506747       -13.7893
  49   2.0000      -0.500703       -13.6248
  50   2.0000      -0.490559       -13.3488
  51   2.0000      -0.481849       -13.1118
  52   2.0000      -0.469473       -12.7750
  53   2.0000      -0.463946       -12.6246
  54   2.0000      -0.456670       -12.4266
  55   2.0000      -0.450354       -12.2548
  56   2.0000      -0.447282       -12.1712
  57   2.0000      -0.440078       -11.9751
  58   2.0000      -0.434915       -11.8346
  59   2.0000      -0.422804       -11.5051
  60   2.0000      -0.413638       -11.2557
  61   2.0000      -0.409288       -11.1373
  62   2.0000      -0.408433       -11.1140
  63   2.0000      -0.341572        -9.2946
  64   2.0000      -0.333379        -9.0717
  65   2.0000      -0.329724        -8.9723
  66   2.0000      -0.296609        -8.0711
  67   0.0000       0.031074         0.8456
  68   0.0000       0.069218         1.8835
  69   0.0000       0.106547         2.8993
  70   0.0000       0.116126         3.1600
  71   0.0000       0.125798         3.4231

MULLIKEN ATOMIC CHARGES
-----------------------
   0 S :    0.113493
   1 C :   -0.094653
   2 C :   -0.067577
   3 C :    0.050111
   4 C :   -0.155573
   5 H :    0.003685
   6 C :    0.010036
   7 H :    0.027247
   8 H :    0.012846
   9 C :   -0.067458
  10 H :    0.020345
  11 H :    0.019517
  12 C :    0.055607
  13 H :    0.026284
  14 H :    0.015467
  15 H :    0.004530
  16 S :    0.080662
  17 C :   -0.096968
  18 C :    0.006412
  19 C :   -0.031524
  20 C :   -0.161215
  21 H :    0.005482
  22 C :    0.044975
  23 H :    0.014578
  24 H :    0.027465
  25 C :   -0.019039
  26 H :    0.007282
  27 H :    0.032482
  28 C :   -0.041961
  29 H :    0.021340
  30 H :    0.044172
  31 H :    0.014249
  32 H :    0.014640
  33 H :    0.063059
Sum of atomic charges:   -0.0000000

LOEWDIN ATOMIC CHARGES
----------------------
   0 S :    0.414888
   1 C :   -0.182149
   2 C :   -0.061206
   3 C :   -0.057567
   4 C :   -0.198116
   5 H :    0.027585
   6 C :   -0.044885
   7 H :    0.030219
   8 H :    0.034969
   9 C :   -0.043774
  10 H :    0.028291
  11 H :    0.023738
  12 C :   -0.052554
  13 H :    0.026429
  14 H :    0.026921
  15 H :    0.015446
  16 S :    0.369608
  17 C :   -0.158311
  18 C :   -0.069411
  19 C :   -0.050573
  20 C :   -0.192545
  21 H :    0.028951
  22 C :   -0.031385
  23 H :    0.029842
  24 H :    0.031760
  25 C :   -0.038851
  26 H :    0.014614
  27 H :    0.030616
  28 C :   -0.068356
  29 H :    0.026088
  30 H :    0.030949
  31 H :    0.022034
  32 H :    0.010528
  33 H :    0.026204

  Mayer bond orders larger than 0.100000
B(  0-S ,  1-C ) :   1.1303 B(  0-S ,  4-C ) :   1.1783 B(  1-C ,  2-C ) :   1.5970
B(  1-C , 32-H ) :   0.9868 B(  2-C ,  3-C ) :   1.2504 B(  2-C ,  6-C ) :   1.0291
B(  3-C ,  4-C ) :   1.5586 B(  3-C ,  5-H ) :   1.0033 B(  4-C , 20-C ) :   1.0114
B(  6-C ,  7-H ) :   0.9408 B(  6-C ,  8-H ) :   0.9359 B(  6-C ,  9-C ) :   1.0733
B(  9-C , 10-H ) :   0.9424 B(  9-C , 11-H ) :   0.9523 B(  9-C , 12-C ) :   1.0857
B( 12-C , 13-H ) :   0.9667 B( 12-C , 14-H ) :   0.9672 B( 12-C , 15-H ) :   0.9698
B( 16-S , 17-C ) :   1.1470 B( 16-S , 20-C ) :   1.1388 B( 17-C , 18-C ) :   1.6075
B( 17-C , 20-C ) :   0.1002 B( 17-C , 33-H ) :   0.9703 B( 18-C , 19-C ) :   1.2226
B( 18-C , 21-H ) :   1.0041 B( 19-C , 20-C ) :   1.6122 B( 19-C , 22-C ) :   1.0387
B( 22-C , 23-H ) :   0.9342 B( 22-C , 24-H ) :   0.9319 B( 22-C , 25-C ) :   1.0673
B( 25-C , 26-H ) :   0.9496 B( 25-C , 27-H ) :   0.9524 B( 25-C , 28-C ) :   1.0773
B( 28-C , 29-H ) :   0.9732 B( 28-C , 30-H ) :   0.9731 B( 28-C , 31-H ) :   0.9725

Dispersion correction           -0.014433529
FINAL SINGLE POINT ENERGY     -1339.872632710968

DIPOLE MOMENT
-------------
                                X             Y             Z
Electronic contribution:    -22.17209     -19.26415       5.24294
Nuclear contribution   :     22.55469      19.59661      -5.63069
                        -----------------------------------------
Total Dipole Moment    :      0.38259       0.33247      -0.38775
                        -----------------------------------------
Magnitude (a.u.)       :      0.63817
Magnitude (Debye)      :      1.62210

Rotational constants in cm-1:     0.018377     0.009276     0.007000
Rotational constants in MHz :   550.935661   278.097346   209.856969

                             ****ORCA TERMINATED NORMALLY****
TOTAL RUN TIME: 0 days 0 hours 0 minutes 22 seconds 136 msec
