                         Program Version 4.2.1 -  RELEASE  -
|  1> ! wB97X-D3 SP def2-SVP
|  2> %pal
|  3> nprocs 24
|  4> end
|  5>
|  6> * xyz 0 1
|  7> S 	 -54.9634 	 7.86443 	 -31.3274
|  8> C 	 -56.4514 	 6.95348 	 -31.174
|  9> C 	 -56.7798 	 6.21179 	 -32.3348
| 10> C 	 -55.8803 	 6.59876 	 -33.3897
| 11> C 	 -54.9047 	 7.50898 	 -33.0458
| 12> H 	 -55.9218 	 6.24014 	 -34.4166
| 13> C 	 -57.9081 	 5.26249 	 -32.4191
| 14> H 	 -58.302 	 5.29055 	 -33.4117
| 15> H 	 -58.6992 	 5.67684 	 -31.7809
| 16> C 	 -57.6234 	 3.82193 	 -31.9403
| 17> H 	 -57.015 	 3.32074 	 -32.6684
| 18> H 	 -57.1156 	 3.7249 	 -30.9162
| 19> C 	 -58.813 	 2.94122 	 -31.9387
| 20> H 	 -59.6439 	 3.26389 	 -31.3656
| 21> H 	 -59.1491 	 2.78121 	 -33.0254
| 22> H 	 -58.6353 	 1.92805 	 -31.6111
| 23> S 	 -53.2496 	 9.68912 	 -33.466
| 24> C 	 -52.0304 	 9.70221 	 -34.8076
| 25> C 	 -52.092 	 8.44192 	 -35.3881
| 26> C 	 -53.1004 	 7.51281 	 -34.9071
| 27> C 	 -53.792 	 8.03286 	 -33.8199
| 28> H 	 -51.5475 	 8.28059 	 -36.3113
| 29> C 	 -53.2883 	 6.14916 	 -35.4716
| 30> H 	 -52.672 	 6.0809 	 -36.358
| 31> H 	 -54.2959 	 6.00492 	 -35.8143
| 32> C 	 -52.8879 	 4.95982 	 -34.5726
| 33> H 	 -53.4525 	 5.01759 	 -33.6624
| 34> H 	 -51.814 	 4.98079 	 -34.187
| 35> C 	 -52.966 	 3.71486 	 -35.4649
| 36> H 	 -52.1344 	 3.72174 	 -36.1967
| 37> H 	 -53.959 	 3.5426 	 -35.9758
| 38> H 	 -52.8229 	 2.79298 	 -34.9256
| 39> H 	 -56.9781 	 7.0002 	 -30.2299
| 40> H 	 -51.3564 	 10.5717 	 -35.0528
| 41> *
| 42>
| 43>                          ****END OF INPUT****

CARTESIAN COORDINATES (ANGSTROEM)
---------------------------------
  S    -54.963400    7.864430  -31.327400
  C    -56.451400    6.953480  -31.174000
  C    -56.779800    6.211790  -32.334800
  C    -55.880300    6.598760  -33.389700
  C    -54.904700    7.508980  -33.045800
  H    -55.921800    6.240140  -34.416600
  C    -57.908100    5.262490  -32.419100
  H    -58.302000    5.290550  -33.411700
  H    -58.699200    5.676840  -31.780900
  C    -57.623400    3.821930  -31.940300
  H    -57.015000    3.320740  -32.668400
  H    -57.115600    3.724900  -30.916200
  C    -58.813000    2.941220  -31.938700
  H    -59.643900    3.263890  -31.365600
  H    -59.149100    2.781210  -33.025400
  H    -58.635300    1.928050  -31.611100
  S    -53.249600    9.689120  -33.466000
  C    -52.030400    9.702210  -34.807600
  C    -52.092000    8.441920  -35.388100
  C    -53.100400    7.512810  -34.907100
  C    -53.792000    8.032860  -33.819900
  H    -51.547500    8.280590  -36.311300
  C    -53.288300    6.149160  -35.471600
  H    -52.672000    6.080900  -36.358000
  H    -54.295900    6.004920  -35.814300
  C    -52.887900    4.959820  -34.572600
  H    -53.452500    5.017590  -33.662400
  H    -51.814000    4.980790  -34.187000
  C    -52.966000    3.714860  -35.464900
  H    -52.134400    3.721740  -36.196700
  H    -53.959000    3.542600  -35.975800
  H    -52.822900    2.792980  -34.925600
  H    -56.978100    7.000200  -30.229900
  H    -51.356400   10.571700  -35.052800

 Total Charge           Charge          ....    0
 Multiplicity           Mult            ....    1
 Number of Electrons    NEL             ....  134
 Basis Dimension        Dim             ....  322

ORBITAL ENERGIES
----------------

  NO   OCC          E(Eh)            E(eV)
   0   2.0000     -88.966082     -2420.8902
   1   2.0000     -88.962019     -2420.7796
   2   2.0000     -10.329806      -281.0883
   3   2.0000     -10.329576      -281.0821
   4   2.0000     -10.329467      -281.0791
   5   2.0000     -10.316764      -280.7334
   6   2.0000     -10.307233      -280.4741
   7   2.0000     -10.303695      -280.3778
   8   2.0000     -10.298681      -280.2413
   9   2.0000     -10.297356      -280.2053
  10   2.0000     -10.293474      -280.0997
  11   2.0000     -10.289816      -280.0001
  12   2.0000     -10.288788      -279.9721
  13   2.0000     -10.288752      -279.9712
  14   2.0000     -10.283330      -279.8236
  15   2.0000     -10.276759      -279.6448
  16   2.0000      -8.080805      -219.8899
  17   2.0000      -8.075509      -219.7458
  18   2.0000      -6.039212      -164.3353
  19   2.0000      -6.035376      -164.2309
  20   2.0000      -6.034247      -164.2002
  21   2.0000      -6.031615      -164.1286
  22   2.0000      -6.030062      -164.0863
  23   2.0000      -6.026214      -163.9816
  24   2.0000      -1.002560       -27.2810
  25   2.0000      -0.976254       -26.5652
  26   2.0000      -0.918641       -24.9975
  27   2.0000      -0.909774       -24.7562
  28   2.0000      -0.870692       -23.6927
  29   2.0000      -0.853948       -23.2371
  30   2.0000      -0.843486       -22.9524
  31   2.0000      -0.816885       -22.2286
  32   2.0000      -0.780336       -21.2340
  33   2.0000      -0.767601       -20.8875
  34   2.0000      -0.707202       -19.2439
  35   2.0000      -0.700628       -19.0651
  36   2.0000      -0.691255       -18.8100
  37   2.0000      -0.664108       -18.0713
  38   2.0000      -0.643285       -17.5047
  39   2.0000      -0.621165       -16.9028
  40   2.0000      -0.595303       -16.1990
  41   2.0000      -0.575966       -15.6728
  42   2.0000      -0.565644       -15.3920
  43   2.0000      -0.557218       -15.1627
  44   2.0000      -0.527188       -14.3455
  45   2.0000      -0.522002       -14.2044
  46   2.0000      -0.519582       -14.1385
  47   2.0000      -0.515102       -14.0166
  48   2.0000      -0.511958       -13.9311
  49   2.0000      -0.494725       -13.4621
  50   2.0000      -0.490083       -13.3358
  51   2.0000      -0.484975       -13.1969
  52   2.0000      -0.471757       -12.8372
  53   2.0000      -0.460910       -12.5420
  54   2.0000      -0.456040       -12.4095
  55   2.0000      -0.449586       -12.2339
  56   2.0000      -0.443176       -12.0594
  57   2.0000      -0.435810       -11.8590
  58   2.0000      -0.432189       -11.7605
  59   2.0000      -0.428468       -11.6592
  60   2.0000      -0.419426       -11.4132
  61   2.0000      -0.413358       -11.2481
  62   2.0000      -0.411522       -11.1981
  63   2.0000      -0.351985        -9.5780
  64   2.0000      -0.332036        -9.0352
  65   2.0000      -0.326370        -8.8810
  66   2.0000      -0.285316        -7.7638
  67   0.0000       0.019571         0.5326
  68   0.0000       0.074833         2.0363
  69   0.0000       0.101157         2.7526
  70   0.0000       0.115650         3.1470
  71   0.0000       0.129941         3.5359

MULLIKEN ATOMIC CHARGES
-----------------------
   0 S :    0.105035
   1 C :   -0.128770
   2 C :   -0.072949
   3 C :    0.001507
   4 C :   -0.126074
   5 H :    0.001008
   6 C :    0.086658
   7 H :    0.014821
   8 H :    0.024159
   9 C :   -0.066663
  10 H :    0.022329
  11 H :    0.045389
  12 C :   -0.047704
  13 H :    0.021234
  14 H :    0.024714
  15 H :    0.028478
  16 S :    0.074682
  17 C :   -0.122385
  18 C :   -0.019265
  19 C :   -0.041540
  20 C :   -0.120088
  21 H :    0.021911
  22 C :    0.055730
  23 H :    0.002301
  24 H :    0.025929
  25 C :   -0.069421
  26 H :    0.041730
  27 H :    0.038117
  28 C :   -0.061593
  29 H :    0.038932
  30 H :    0.033842
  31 H :    0.025663
  32 H :    0.051759
  33 H :    0.090526
Sum of atomic charges:   -0.0000000

LOEWDIN ATOMIC CHARGES
----------------------
   0 S :    0.404794
   1 C :   -0.191040
   2 C :   -0.056962
   3 C :   -0.066111
   4 C :   -0.190321
   5 H :    0.029846
   6 C :   -0.031977
   7 H :    0.029411
   8 H :    0.036520
   9 C :   -0.044499
  10 H :    0.024249
  11 H :    0.034837
  12 C :   -0.068323
  13 H :    0.014500
  14 H :    0.030561
  15 H :    0.025798
  16 S :    0.362986
  17 C :   -0.178118
  18 C :   -0.070802
  19 C :   -0.059988
  20 C :   -0.186050
  21 H :    0.029358
  22 C :   -0.032560
  23 H :    0.028540
  24 H :    0.026669
  25 C :   -0.038787
  26 H :    0.021135
  27 H :    0.035490
  28 C :   -0.071296
  29 H :    0.029707
  30 H :    0.027946
  31 H :    0.022127
  32 H :    0.023560
  33 H :    0.048799

  Mayer bond orders larger than 0.100000
B(  0-S ,  1-C ) :   1.1525 B(  0-S ,  4-C ) :   1.1501 B(  1-C ,  2-C ) :   1.5742
B(  1-C ,  4-C ) :   0.1030 B(  1-C , 32-H ) :   0.9725 B(  2-C ,  3-C ) :   1.2462
B(  2-C ,  6-C ) :   1.0379 B(  3-C ,  4-C ) :   1.5699 B(  3-C ,  5-H ) :   0.9947
B(  4-C , 20-C ) :   1.0562 B(  6-C ,  7-H ) :   0.9325 B(  6-C ,  8-H ) :   0.9361
B(  6-C ,  9-C ) :   1.0612 B(  9-C , 10-H ) :   0.9517 B(  9-C , 11-H ) :   0.9553
B(  9-C , 12-C ) :   1.0922 B( 12-C , 13-H ) :   0.9740 B( 12-C , 14-H ) :   0.9710
B( 12-C , 15-H ) :   0.9706 B( 16-S , 17-C ) :   1.1277 B( 16-S , 20-C ) :   1.1293
B( 17-C , 18-C ) :   1.6124 B( 17-C , 20-C ) :   0.1002 B( 17-C , 33-H ) :   0.9630
B( 18-C , 19-C ) :   1.2456 B( 18-C , 21-H ) :   0.9788 B( 19-C , 20-C ) :   1.5843
B( 19-C , 22-C ) :   1.0515 B( 22-C , 23-H ) :   0.9267 B( 22-C , 24-H ) :   0.9288
B( 22-C , 25-C ) :   1.0567 B( 25-C , 26-H ) :   0.9579 B( 25-C , 27-H ) :   0.9524
B( 25-C , 28-C ) :   1.0720 B( 28-C , 29-H ) :   0.9747 B( 28-C , 30-H ) :   0.9735
B( 28-C , 31-H ) :   0.9728

Dispersion correction           -0.014083540
FINAL SINGLE POINT ENERGY     -1339.881023039567

DIPOLE MOMENT
-------------
                                X             Y             Z
Electronic contribution:      9.73966      30.01632       7.38639
Nuclear contribution   :     -9.89858     -30.67966      -7.74035
                        -----------------------------------------
Total Dipole Moment    :     -0.15892      -0.66334      -0.35395
                        -----------------------------------------
Magnitude (a.u.)       :      0.76848
Magnitude (Debye)      :      1.95331

Rotational constants in cm-1:     0.019842     0.008627     0.006408
Rotational constants in MHz :   594.849278   258.639119   192.114400

                             ****ORCA TERMINATED NORMALLY****
TOTAL RUN TIME: 0 days 0 hours 0 minutes 20 seconds 459 msec
