                         Program Version 4.2.1 -  RELEASE  -
|  1> ! wB97X-D3 SP def2-SVP
|  2> %pal
|  3> nprocs 24
|  4> end
|  5>
|  6> * xyz 0 1
|  7> S 	 -62.2358 	 3.08623 	 -17.9835
|  8> C 	 -62.771 	 3.06433 	 -16.3156
|  9> C 	 -63.4437 	 1.86711 	 -16.0754
| 10> C 	 -63.3186 	 0.921401 	 -17.0649
| 11> C 	 -62.6862 	 1.45939 	 -18.1699
| 12> H 	 -63.6883 	 -0.124193 	 -16.983
| 13> C 	 -64.2814 	 1.6213 	 -14.7634
| 14> H 	 -64.5468 	 0.551009 	 -14.7814
| 15> H 	 -65.2462 	 2.04286 	 -14.9328
| 16> C 	 -63.6167 	 2.05009 	 -13.4487
| 17> H 	 -63.752 	 3.13092 	 -13.36
| 18> H 	 -64.2166 	 1.62463 	 -12.6722
| 19> C 	 -62.1534 	 1.68581 	 -13.2269
| 20> H 	 -61.5722 	 2.0472 	 -14.0962
| 21> H 	 -61.6654 	 2.06517 	 -12.323
| 22> H 	 -62.0701 	 0.572881 	 -13.1213
| 23> S 	 -60.4483 	 0.690092 	 -19.679
| 24> C 	 -60.7159 	 -0.159115 	 -21.155
| 25> C 	 -61.9794 	 -0.663411 	 -21.2785
| 26> C 	 -62.8106 	 -0.227218 	 -20.1612
| 27> C 	 -62.1553 	 0.735794 	 -19.3373
| 28> H 	 -62.2277 	 -1.30052 	 -22.1235
| 29> C 	 -64.2646 	 -0.582177 	 -20.0383
| 30> H 	 -64.6427 	 -0.724036 	 -21.0688
| 31> H 	 -64.7943 	 0.227828 	 -19.5666
| 32> C 	 -64.3445 	 -1.93959 	 -19.188
| 33> H 	 -65.4277 	 -2.31476 	 -19.0796
| 34> H 	 -63.9461 	 -1.8283 	 -18.1674
| 35> C 	 -63.6275 	 -3.05158 	 -19.9453
| 36> H 	 -63.7536 	 -4.03705 	 -19.4567
| 37> H 	 -62.5612 	 -2.96757 	 -19.7608
| 38> H 	 -63.627 	 -2.96894 	 -21.0221
| 39> H 	 -62.6721 	 3.82891 	 -15.6469
| 40> H 	 -59.8637 	 -0.375007 	 -21.776
| 41> *
| 42>
| 43>                          ****END OF INPUT****

CARTESIAN COORDINATES (ANGSTROEM)
---------------------------------
  S    -62.235800    3.086230  -17.983500
  C    -62.771000    3.064330  -16.315600
  C    -63.443700    1.867110  -16.075400
  C    -63.318600    0.921401  -17.064900
  C    -62.686200    1.459390  -18.169900
  H    -63.688300   -0.124193  -16.983000
  C    -64.281400    1.621300  -14.763400
  H    -64.546800    0.551009  -14.781400
  H    -65.246200    2.042860  -14.932800
  C    -63.616700    2.050090  -13.448700
  H    -63.752000    3.130920  -13.360000
  H    -64.216600    1.624630  -12.672200
  C    -62.153400    1.685810  -13.226900
  H    -61.572200    2.047200  -14.096200
  H    -61.665400    2.065170  -12.323000
  H    -62.070100    0.572881  -13.121300
  S    -60.448300    0.690092  -19.679000
  C    -60.715900   -0.159115  -21.155000
  C    -61.979400   -0.663411  -21.278500
  C    -62.810600   -0.227218  -20.161200
  C    -62.155300    0.735794  -19.337300
  H    -62.227700   -1.300520  -22.123500
  C    -64.264600   -0.582177  -20.038300
  H    -64.642700   -0.724036  -21.068800
  H    -64.794300    0.227828  -19.566600
  C    -64.344500   -1.939590  -19.188000
  H    -65.427700   -2.314760  -19.079600
  H    -63.946100   -1.828300  -18.167400
  C    -63.627500   -3.051580  -19.945300
  H    -63.753600   -4.037050  -19.456700
  H    -62.561200   -2.967570  -19.760800
  H    -63.627000   -2.968940  -21.022100
  H    -62.672100    3.828910  -15.646900
  H    -59.863700   -0.375007  -21.776000

 Total Charge           Charge          ....    0
 Multiplicity           Mult            ....    1
 Number of Electrons    NEL             ....  134
 Basis Dimension        Dim             ....  322

ORBITAL ENERGIES
----------------

  NO   OCC          E(Eh)            E(eV)
   0   2.0000     -88.969359     -2420.9793
   1   2.0000     -88.961880     -2420.7758
   2   2.0000     -10.325614      -280.9742
   3   2.0000     -10.324661      -280.9483
   4   2.0000     -10.311860      -280.6000
   5   2.0000     -10.306621      -280.4574
   6   2.0000     -10.305682      -280.4319
   7   2.0000     -10.298704      -280.2420
   8   2.0000     -10.298626      -280.2399
   9   2.0000     -10.296200      -280.1739
  10   2.0000     -10.293946      -280.1125
  11   2.0000     -10.293901      -280.1113
  12   2.0000     -10.292412      -280.0708
  13   2.0000     -10.286299      -279.9044
  14   2.0000     -10.279727      -279.7256
  15   2.0000     -10.274127      -279.5732
  16   2.0000      -8.084749      -219.9972
  17   2.0000      -8.077398      -219.7972
  18   2.0000      -6.042946      -164.4369
  19   2.0000      -6.039143      -164.3334
  20   2.0000      -6.035817      -164.2429
  21   2.0000      -6.035778      -164.2419
  22   2.0000      -6.031914      -164.1367
  23   2.0000      -6.028130      -164.0338
  24   2.0000      -1.012453       -27.5503
  25   2.0000      -0.987325       -26.8665
  26   2.0000      -0.909129       -24.7387
  27   2.0000      -0.906148       -24.6575
  28   2.0000      -0.865339       -23.5471
  29   2.0000      -0.853866       -23.2349
  30   2.0000      -0.842084       -22.9143
  31   2.0000      -0.812671       -22.1139
  32   2.0000      -0.786805       -21.4101
  33   2.0000      -0.769805       -20.9475
  34   2.0000      -0.706237       -19.2177
  35   2.0000      -0.701433       -19.0870
  36   2.0000      -0.689805       -18.7706
  37   2.0000      -0.658858       -17.9284
  38   2.0000      -0.641260       -17.4496
  39   2.0000      -0.614180       -16.7127
  40   2.0000      -0.590149       -16.0588
  41   2.0000      -0.575112       -15.6496
  42   2.0000      -0.559080       -15.2133
  43   2.0000      -0.551893       -15.0178
  44   2.0000      -0.545349       -14.8397
  45   2.0000      -0.539449       -14.6792
  46   2.0000      -0.519829       -14.1453
  47   2.0000      -0.511318       -13.9137
  48   2.0000      -0.493673       -13.4335
  49   2.0000      -0.489921       -13.3314
  50   2.0000      -0.486012       -13.2251
  51   2.0000      -0.480555       -13.0766
  52   2.0000      -0.469666       -12.7803
  53   2.0000      -0.465240       -12.6598
  54   2.0000      -0.462640       -12.5891
  55   2.0000      -0.450978       -12.2717
  56   2.0000      -0.445061       -12.1107
  57   2.0000      -0.441916       -12.0251
  58   2.0000      -0.438220       -11.9246
  59   2.0000      -0.425753       -11.5853
  60   2.0000      -0.415009       -11.2930
  61   2.0000      -0.412819       -11.2334
  62   2.0000      -0.403050       -10.9676
  63   2.0000      -0.345883        -9.4120
  64   2.0000      -0.333527        -9.0757
  65   2.0000      -0.323813        -8.8114
  66   2.0000      -0.289983        -7.8908
  67   0.0000       0.026850         0.7306
  68   0.0000       0.072744         1.9795
  69   0.0000       0.113724         3.0946
  70   0.0000       0.115942         3.1549
  71   0.0000       0.137046         3.7292

MULLIKEN ATOMIC CHARGES
-----------------------
   0 S :    0.131365
   1 C :   -0.099201
   2 C :   -0.118898
   3 C :    0.024783
   4 C :   -0.165739
   5 H :    0.017639
   6 C :    0.095511
   7 H :    0.005946
   8 H :    0.036366
   9 C :   -0.072003
  10 H :    0.027562
  11 H :    0.024310
  12 C :   -0.060292
  13 H :    0.045699
  14 H :    0.036990
  15 H :    0.032716
  16 S :    0.113768
  17 C :   -0.097643
  18 C :   -0.025109
  19 C :   -0.065153
  20 C :   -0.137589
  21 H :    0.025502
  22 C :    0.060441
  23 H :    0.036870
  24 H :    0.035377
  25 C :   -0.101069
  26 H :    0.044177
  27 H :    0.040442
  28 C :   -0.048400
  29 H :    0.036086
  30 H :    0.026355
  31 H :    0.028486
  32 H :    0.010798
  33 H :    0.053906
Sum of atomic charges:   -0.0000000

LOEWDIN ATOMIC CHARGES
----------------------
   0 S :    0.445367
   1 C :   -0.192452
   2 C :   -0.058097
   3 C :   -0.071991
   4 C :   -0.207957
   5 H :    0.039222
   6 C :   -0.025545
   7 H :    0.025551
   8 H :    0.032297
   9 C :   -0.045660
  10 H :    0.022611
  11 H :    0.024138
  12 C :   -0.071680
  13 H :    0.029047
  14 H :    0.027617
  15 H :    0.029481
  16 S :    0.415114
  17 C :   -0.188232
  18 C :   -0.074953
  19 C :   -0.049308
  20 C :   -0.214622
  21 H :    0.034179
  22 C :   -0.030006
  23 H :    0.033740
  24 H :    0.028456
  25 C :   -0.039449
  26 H :    0.028138
  27 H :    0.022023
  28 C :   -0.079370
  29 H :    0.032481
  30 H :    0.027425
  31 H :    0.022229
  32 H :    0.005936
  33 H :    0.024271

  Mayer bond orders larger than 0.100000
B(  0-S ,  1-C ) :   1.1500 B(  0-S ,  4-C ) :   1.1985 B(  1-C ,  2-C ) :   1.5558
B(  1-C ,  4-C ) :   0.1037 B(  1-C , 32-H ) :   0.9857 B(  2-C ,  3-C ) :   1.3169
B(  2-C ,  6-C ) :   0.9944 B(  3-C ,  4-C ) :   1.5092 B(  3-C ,  5-H ) :   0.9813
B(  4-C , 20-C ) :   1.0241 B(  6-C ,  7-H ) :   0.9400 B(  6-C ,  8-H ) :   0.9381
B(  6-C ,  9-C ) :   1.0705 B(  9-C , 10-H ) :   0.9516 B(  9-C , 11-H ) :   0.9542
B(  9-C , 12-C ) :   1.0833 B( 12-C , 13-H ) :   0.9681 B( 12-C , 14-H ) :   0.9742
B( 12-C , 15-H ) :   0.9752 B( 16-S , 17-C ) :   1.1679 B( 16-S , 20-C ) :   1.1502
B( 17-C , 18-C ) :   1.6017 B( 17-C , 33-H ) :   0.9681 B( 18-C , 19-C ) :   1.2278
B( 18-C , 21-H ) :   0.9931 B( 19-C , 20-C ) :   1.5705 B( 19-C , 22-C ) :   1.0449
B( 22-C , 23-H ) :   0.9494 B( 22-C , 24-H ) :   0.9372 B( 22-C , 25-C ) :   1.0468
B( 25-C , 26-H ) :   0.9621 B( 25-C , 27-H ) :   0.9525 B( 25-C , 28-C ) :   1.0776
B( 28-C , 29-H ) :   0.9665 B( 28-C , 30-H ) :   0.9611 B( 28-C , 31-H ) :   0.9742

Dispersion correction           -0.015278644
FINAL SINGLE POINT ENERGY     -1339.868321286071

DIPOLE MOMENT
-------------
                                X             Y             Z
Electronic contribution:     12.25651      13.82750     -14.13431
Nuclear contribution   :    -12.56497     -14.19808      14.39145
                        -----------------------------------------
Total Dipole Moment    :     -0.30845      -0.37058       0.25714
                        -----------------------------------------
Magnitude (a.u.)       :      0.54643
Magnitude (Debye)      :      1.38893

Rotational constants in cm-1:     0.021984     0.008421     0.006967
Rotational constants in MHz :   659.054103   252.444020   208.869770

                             ****ORCA TERMINATED NORMALLY****
TOTAL RUN TIME: 0 days 0 hours 0 minutes 22 seconds 471 msec
