                         Program Version 4.2.1 -  RELEASE  -
|  1> ! wB97X-D3 SP def2-SVP
|  2> %pal
|  3> nprocs 24
|  4> end
|  5>
|  6> * xyz 0 1
|  7> S 	 -107.806 	 51.6305 	 -68.6629
|  8> C 	 -108.959 	 51.0063 	 -69.7969
|  9> C 	 -108.355 	 50.8988 	 -71.0366
| 10> C 	 -106.94 	 51.1203 	 -70.9919
| 11> C 	 -106.454 	 51.3963 	 -69.7167
| 12> H 	 -106.252 	 50.9386 	 -71.8082
| 13> C 	 -109.123 	 50.6871 	 -72.3589
| 14> H 	 -110.256 	 50.5397 	 -72.1331
| 15> H 	 -108.748 	 49.7366 	 -72.7003
| 16> C 	 -108.735 	 51.7081 	 -73.4607
| 17> H 	 -109.345 	 52.497 	 -73.1065
| 18> H 	 -107.641 	 51.9757 	 -73.3708
| 19> C 	 -109.077 	 51.2445 	 -74.8886
| 20> H 	 -110.039 	 50.7587 	 -74.8899
| 21> H 	 -109.048 	 52.0626 	 -75.5399
| 22> H 	 -108.415 	 50.4334 	 -75.2008
| 23> S 	 -104.636 	 49.8835 	 -68.3215
| 24> C 	 -103.014 	 50.4116 	 -68.1188
| 25> C 	 -102.712 	 51.5037 	 -68.9674
| 26> C 	 -103.866 	 52.0411 	 -69.5805
| 27> C 	 -105.037 	 51.3696 	 -69.234
| 28> H 	 -101.722 	 51.7929 	 -69.1323
| 29> C 	 -103.715 	 53.2078 	 -70.5602
| 30> H 	 -104.559 	 53.0661 	 -71.2469
| 31> H 	 -102.896 	 52.9645 	 -71.192
| 32> C 	 -103.528 	 54.6275 	 -69.9562
| 33> H 	 -102.448 	 54.8533 	 -69.9621
| 34> H 	 -103.803 	 54.4587 	 -68.9668
| 35> C 	 -104.321 	 55.6954 	 -70.6204
| 36> H 	 -103.94 	 55.9161 	 -71.6224
| 37> H 	 -104.356 	 56.6045 	 -70.009
| 38> H 	 -105.363 	 55.4759 	 -70.718
| 39> H 	 -110.051 	 50.9089 	 -69.6674
| 40> H 	 -102.118 	 49.9665 	 -67.7579
| 41> *
| 42>
| 43>                          ****END OF INPUT****

CARTESIAN COORDINATES (ANGSTROEM)
---------------------------------
  S    -107.806000   51.630500  -68.662900
  C    -108.959000   51.006300  -69.796900
  C    -108.355000   50.898800  -71.036600
  C    -106.940000   51.120300  -70.991900
  C    -106.454000   51.396300  -69.716700
  H    -106.252000   50.938600  -71.808200
  C    -109.123000   50.687100  -72.358900
  H    -110.256000   50.539700  -72.133100
  H    -108.748000   49.736600  -72.700300
  C    -108.735000   51.708100  -73.460700
  H    -109.345000   52.497000  -73.106500
  H    -107.641000   51.975700  -73.370800
  C    -109.077000   51.244500  -74.888600
  H    -110.039000   50.758700  -74.889900
  H    -109.048000   52.062600  -75.539900
  H    -108.415000   50.433400  -75.200800
  S    -104.636000   49.883500  -68.321500
  C    -103.014000   50.411600  -68.118800
  C    -102.712000   51.503700  -68.967400
  C    -103.866000   52.041100  -69.580500
  C    -105.037000   51.369600  -69.234000
  H    -101.722000   51.792900  -69.132300
  C    -103.715000   53.207800  -70.560200
  H    -104.559000   53.066100  -71.246900
  H    -102.896000   52.964500  -71.192000
  C    -103.528000   54.627500  -69.956200
  H    -102.448000   54.853300  -69.962100
  H    -103.803000   54.458700  -68.966800
  C    -104.321000   55.695400  -70.620400
  H    -103.940000   55.916100  -71.622400
  H    -104.356000   56.604500  -70.009000
  H    -105.363000   55.475900  -70.718000
  H    -110.051000   50.908900  -69.667400
  H    -102.118000   49.966500  -67.757900

 Total Charge           Charge          ....    0
 Multiplicity           Mult            ....    1
 Number of Electrons    NEL             ....  134
 Basis Dimension        Dim             ....  322

ORBITAL ENERGIES
----------------

  NO   OCC          E(Eh)            E(eV)
   0   2.0000     -88.969407     -2420.9806
   1   2.0000     -88.963584     -2420.8222
   2   2.0000     -10.332196      -281.1533
   3   2.0000     -10.332113      -281.1511
   4   2.0000     -10.314789      -280.6797
   5   2.0000     -10.313897      -280.6554
   6   2.0000     -10.304498      -280.3997
   7   2.0000     -10.301545      -280.3193
   8   2.0000     -10.298936      -280.2483
   9   2.0000     -10.295440      -280.1532
  10   2.0000     -10.289120      -279.9812
  11   2.0000     -10.287729      -279.9433
  12   2.0000     -10.286384      -279.9067
  13   2.0000     -10.279711      -279.7252
  14   2.0000     -10.276265      -279.6314
  15   2.0000     -10.272438      -279.5272
  16   2.0000      -8.083560      -219.9649
  17   2.0000      -8.078856      -219.8369
  18   2.0000      -6.042049      -164.4125
  19   2.0000      -6.038207      -164.3080
  20   2.0000      -6.037402      -164.2861
  21   2.0000      -6.034289      -164.2014
  22   2.0000      -6.033183      -164.1713
  23   2.0000      -6.029631      -164.0746
  24   2.0000      -1.005158       -27.3517
  25   2.0000      -0.985060       -26.8048
  26   2.0000      -0.909968       -24.7615
  27   2.0000      -0.908620       -24.7248
  28   2.0000      -0.865478       -23.5509
  29   2.0000      -0.855020       -23.2663
  30   2.0000      -0.844658       -22.9843
  31   2.0000      -0.813340       -22.1321
  32   2.0000      -0.783179       -21.3114
  33   2.0000      -0.773106       -21.0373
  34   2.0000      -0.709207       -19.2985
  35   2.0000      -0.700525       -19.0623
  36   2.0000      -0.690883       -18.7999
  37   2.0000      -0.662082       -18.0162
  38   2.0000      -0.638909       -17.3856
  39   2.0000      -0.619925       -16.8690
  40   2.0000      -0.591073       -16.0839
  41   2.0000      -0.570948       -15.5363
  42   2.0000      -0.562639       -15.3102
  43   2.0000      -0.558596       -15.2002
  44   2.0000      -0.532545       -14.4913
  45   2.0000      -0.528237       -14.3741
  46   2.0000      -0.520582       -14.1658
  47   2.0000      -0.504649       -13.7322
  48   2.0000      -0.503523       -13.7016
  49   2.0000      -0.498101       -13.5540
  50   2.0000      -0.496659       -13.5148
  51   2.0000      -0.482575       -13.1315
  52   2.0000      -0.474373       -12.9084
  53   2.0000      -0.465187       -12.6584
  54   2.0000      -0.462740       -12.5918
  55   2.0000      -0.448652       -12.2085
  56   2.0000      -0.439445       -11.9579
  57   2.0000      -0.434590       -11.8258
  58   2.0000      -0.429004       -11.6738
  59   2.0000      -0.422815       -11.5054
  60   2.0000      -0.421359       -11.4658
  61   2.0000      -0.415881       -11.3167
  62   2.0000      -0.412923       -11.2362
  63   2.0000      -0.337027        -9.1710
  64   2.0000      -0.331755        -9.0275
  65   2.0000      -0.319064        -8.6822
  66   2.0000      -0.302920        -8.2429
  67   0.0000       0.033056         0.8995
  68   0.0000       0.058885         1.6024
  69   0.0000       0.105625         2.8742
  70   0.0000       0.114442         3.1141
  71   0.0000       0.137832         3.7506

MULLIKEN ATOMIC CHARGES
-----------------------
   0 S :    0.117692
   1 C :   -0.131910
   2 C :   -0.104244
   3 C :    0.045668
   4 C :   -0.183491
   5 H :    0.018175
   6 C :    0.041766
   7 H :    0.041827
   8 H :    0.017656
   9 C :   -0.102306
  10 H :    0.028827
  11 H :    0.047285
  12 C :   -0.008955
  13 H :    0.023945
  14 H :    0.033474
  15 H :    0.031057
  16 S :    0.127707
  17 C :   -0.049449
  18 C :   -0.060130
  19 C :   -0.054189
  20 C :   -0.168848
  21 H :   -0.001633
  22 C :    0.080608
  23 H :    0.009336
  24 H :    0.013444
  25 C :   -0.011557
  26 H :    0.030071
  27 H :    0.019697
  28 C :   -0.044675
  29 H :    0.032179
  30 H :    0.030867
  31 H :    0.027615
  32 H :    0.057623
  33 H :    0.044868
Sum of atomic charges:    0.0000000

LOEWDIN ATOMIC CHARGES
----------------------
   0 S :    0.422070
   1 C :   -0.212588
   2 C :   -0.067255
   3 C :   -0.066382
   4 C :   -0.210027
   5 H :    0.029440
   6 C :   -0.036025
   7 H :    0.037755
   8 H :    0.021766
   9 C :   -0.041192
  10 H :    0.021755
  11 H :    0.031746
  12 C :   -0.057371
  13 H :    0.025490
  14 H :    0.021049
  15 H :    0.028087
  16 S :    0.423612
  17 C :   -0.194800
  18 C :   -0.067991
  19 C :   -0.051951
  20 C :   -0.196714
  21 H :    0.020096
  22 C :   -0.028981
  23 H :    0.027975
  24 H :    0.026024
  25 C :   -0.035077
  26 H :    0.028851
  27 H :    0.018686
  28 C :   -0.063438
  29 H :    0.026430
  30 H :    0.029850
  31 H :    0.024130
  32 H :    0.036559
  33 H :    0.028419

  Mayer bond orders larger than 0.100000
B(  0-S ,  1-C ) :   1.1442 B(  0-S ,  4-C ) :   1.1741 B(  1-C ,  2-C ) :   1.6037
B(  1-C , 32-H ) :   0.9660 B(  2-C ,  3-C ) :   1.2495 B(  2-C ,  6-C ) :   1.0116
B(  3-C ,  4-C ) :   1.5610 B(  3-C ,  5-H ) :   0.9882 B(  4-C , 20-C ) :   0.9989
B(  6-C ,  7-H ) :   0.9486 B(  6-C ,  8-H ) :   0.9371 B(  6-C ,  9-C ) :   1.0366
B(  9-C , 10-H ) :   0.9603 B(  9-C , 11-H ) :   0.9558 B(  9-C , 12-C ) :   1.0794
B( 12-C , 13-H ) :   0.9734 B( 12-C , 14-H ) :   0.9747 B( 12-C , 15-H ) :   0.9737
B( 16-S , 17-C ) :   1.1737 B( 16-S , 20-C ) :   1.1455 B( 17-C , 18-C ) :   1.5895
B( 17-C , 20-C ) :   0.1047 B( 17-C , 33-H ) :   0.9640 B( 18-C , 19-C ) :   1.2608
B( 18-C , 21-H ) :   0.9966 B( 19-C , 20-C ) :   1.5858 B( 19-C , 22-C ) :   1.0456
B( 22-C , 23-H ) :   0.9377 B( 22-C , 24-H ) :   0.9316 B( 22-C , 25-C ) :   1.0288
B( 25-C , 26-H ) :   0.9504 B( 25-C , 27-H ) :   0.9621 B( 25-C , 28-C ) :   1.1005
B( 28-C , 29-H ) :   0.9747 B( 28-C , 30-H ) :   0.9708 B( 28-C , 31-H ) :   0.9738

Dispersion correction           -0.013670479
FINAL SINGLE POINT ENERGY     -1339.852891697907

DIPOLE MOMENT
-------------
                                X             Y             Z
Electronic contribution:      1.93108     -13.96349      23.63235
Nuclear contribution   :     -1.77856      14.09169     -24.35133
                        -----------------------------------------
Total Dipole Moment    :      0.15252       0.12821      -0.71897
                        -----------------------------------------
Magnitude (a.u.)       :      0.74607
Magnitude (Debye)      :      1.89636

Rotational constants in cm-1:     0.016740     0.008390     0.006823
Rotational constants in MHz :   501.851816   251.524698   204.541793

                             ****ORCA TERMINATED NORMALLY****
TOTAL RUN TIME: 0 days 0 hours 0 minutes 21 seconds 119 msec
