                         Program Version 4.2.1 -  RELEASE  -
|  1> ! wB97X-D3 SP def2-SVP
|  2> %pal
|  3> nprocs 24
|  4> end
|  5>
|  6> * xyz 0 1
|  7> S 	 -40.1828 	 17.0074 	 29.1197
|  8> C 	 -41.0251 	 18.0551 	 28.0055
|  9> C 	 -42.3977 	 17.8388 	 28.084
| 10> C 	 -42.7551 	 16.6701 	 28.8751
| 11> C 	 -41.6792 	 16.1222 	 29.5553
| 12> H 	 -43.736 	 16.2029 	 29.1158
| 13> C 	 -43.3715 	 18.6887 	 27.3524
| 14> H 	 -44.3536 	 18.1709 	 27.4792
| 15> H 	 -43.2201 	 18.4761 	 26.2872
| 16> C 	 -43.306 	 20.1696 	 27.6231
| 17> H 	 -42.3284 	 20.4938 	 27.3614
| 18> H 	 -44.0027 	 20.6556 	 27.0526
| 19> C 	 -43.4812 	 20.5994 	 29.0825
| 20> H 	 -42.7677 	 20.0319 	 29.6307
| 21> H 	 -43.2269 	 21.6681 	 29.3885
| 22> H 	 -44.4047 	 20.4482 	 29.5397
| 23> S 	 -42.004 	 13.4483 	 30.1399
| 24> C 	 -41.8664 	 12.9076 	 31.8369
| 25> C 	 -41.59 	 13.9569 	 32.6413
| 26> C 	 -41.5407 	 15.225 	 32.0014
| 27> C 	 -41.714 	 15.1016 	 30.6369
| 28> H 	 -41.388 	 13.7378 	 33.6788
| 29> C 	 -41.2787 	 16.5051 	 32.6894
| 30> H 	 -40.6705 	 17.1279 	 31.9735
| 31> H 	 -40.8223 	 16.296 	 33.6386
| 32> C 	 -42.5405 	 17.3521 	 32.8882
| 33> H 	 -43.3451 	 16.941 	 33.4882
| 34> H 	 -42.9452 	 17.3381 	 31.8017
| 35> C 	 -42.2809 	 18.7417 	 33.5692
| 36> H 	 -43.2351 	 19.3132 	 33.6919
| 37> H 	 -41.6557 	 19.2771 	 32.8686
| 38> H 	 -41.8518 	 18.6419 	 34.567
| 39> H 	 -40.6385 	 18.981 	 27.4711
| 40> H 	 -41.8541 	 11.866 	 32.2182
| 41> *
| 42>
| 43>                          ****END OF INPUT****

CARTESIAN COORDINATES (ANGSTROEM)
---------------------------------
  S    -40.182800   17.007400   29.119700
  C    -41.025100   18.055100   28.005500
  C    -42.397700   17.838800   28.084000
  C    -42.755100   16.670100   28.875100
  C    -41.679200   16.122200   29.555300
  H    -43.736000   16.202900   29.115800
  C    -43.371500   18.688700   27.352400
  H    -44.353600   18.170900   27.479200
  H    -43.220100   18.476100   26.287200
  C    -43.306000   20.169600   27.623100
  H    -42.328400   20.493800   27.361400
  H    -44.002700   20.655600   27.052600
  C    -43.481200   20.599400   29.082500
  H    -42.767700   20.031900   29.630700
  H    -43.226900   21.668100   29.388500
  H    -44.404700   20.448200   29.539700
  S    -42.004000   13.448300   30.139900
  C    -41.866400   12.907600   31.836900
  C    -41.590000   13.956900   32.641300
  C    -41.540700   15.225000   32.001400
  C    -41.714000   15.101600   30.636900
  H    -41.388000   13.737800   33.678800
  C    -41.278700   16.505100   32.689400
  H    -40.670500   17.127900   31.973500
  H    -40.822300   16.296000   33.638600
  C    -42.540500   17.352100   32.888200
  H    -43.345100   16.941000   33.488200
  H    -42.945200   17.338100   31.801700
  C    -42.280900   18.741700   33.569200
  H    -43.235100   19.313200   33.691900
  H    -41.655700   19.277100   32.868600
  H    -41.851800   18.641900   34.567000
  H    -40.638500   18.981000   27.471100
  H    -41.854100   11.866000   32.218200

 Total Charge           Charge          ....    0
 Multiplicity           Mult            ....    1
 Number of Electrons    NEL             ....  134
 Basis Dimension        Dim             ....  322

ORBITAL ENERGIES
----------------

  NO   OCC          E(Eh)            E(eV)
   0   2.0000     -88.969529     -2420.9840
   1   2.0000     -88.965734     -2420.8807
   2   2.0000     -10.336293      -281.2648
   3   2.0000     -10.327728      -281.0318
   4   2.0000     -10.321037      -280.8497
   5   2.0000     -10.318949      -280.7929
   6   2.0000     -10.305273      -280.4207
   7   2.0000     -10.304275      -280.3936
   8   2.0000     -10.300686      -280.2959
   9   2.0000     -10.292044      -280.0607
  10   2.0000     -10.290505      -280.0189
  11   2.0000     -10.288804      -279.9726
  12   2.0000     -10.287532      -279.9380
  13   2.0000     -10.281560      -279.7755
  14   2.0000     -10.280246      -279.7397
  15   2.0000     -10.270775      -279.4820
  16   2.0000      -8.082978      -219.9490
  17   2.0000      -8.079895      -219.8651
  18   2.0000      -6.041635      -164.4012
  19   2.0000      -6.038509      -164.3162
  20   2.0000      -6.037495      -164.2886
  21   2.0000      -6.034514      -164.2075
  22   2.0000      -6.033813      -164.1884
  23   2.0000      -6.030545      -164.0995
  24   2.0000      -1.004620       -27.3371
  25   2.0000      -0.983732       -26.7687
  26   2.0000      -0.919047       -25.0085
  27   2.0000      -0.907806       -24.7026
  28   2.0000      -0.869330       -23.6557
  29   2.0000      -0.848565       -23.0906
  30   2.0000      -0.844506       -22.9802
  31   2.0000      -0.819065       -22.2879
  32   2.0000      -0.782895       -21.3036
  33   2.0000      -0.769464       -20.9382
  34   2.0000      -0.714384       -19.4394
  35   2.0000      -0.703335       -19.1387
  36   2.0000      -0.684956       -18.6386
  37   2.0000      -0.662375       -18.0241
  38   2.0000      -0.636708       -17.3257
  39   2.0000      -0.607175       -16.5221
  40   2.0000      -0.591585       -16.0978
  41   2.0000      -0.584961       -15.9176
  42   2.0000      -0.568405       -15.4671
  43   2.0000      -0.549847       -14.9621
  44   2.0000      -0.542803       -14.7704
  45   2.0000      -0.518024       -14.0962
  46   2.0000      -0.516049       -14.0424
  47   2.0000      -0.513623       -13.9764
  48   2.0000      -0.509925       -13.8758
  49   2.0000      -0.493335       -13.4243
  50   2.0000      -0.485001       -13.1975
  51   2.0000      -0.483379       -13.1534
  52   2.0000      -0.469671       -12.7804
  53   2.0000      -0.466178       -12.6854
  54   2.0000      -0.459559       -12.5052
  55   2.0000      -0.450707       -12.2644
  56   2.0000      -0.444563       -12.0972
  57   2.0000      -0.440686       -11.9917
  58   2.0000      -0.430503       -11.7146
  59   2.0000      -0.420779       -11.4500
  60   2.0000      -0.419905       -11.4262
  61   2.0000      -0.414889       -11.2897
  62   2.0000      -0.405726       -11.0404
  63   2.0000      -0.340257        -9.2589
  64   2.0000      -0.335425        -9.1274
  65   2.0000      -0.323664        -8.8074
  66   2.0000      -0.302993        -8.2449
  67   0.0000       0.035183         0.9574
  68   0.0000       0.056424         1.5354
  69   0.0000       0.111811         3.0425
  70   0.0000       0.115748         3.1497
  71   0.0000       0.127845         3.4788

MULLIKEN ATOMIC CHARGES
-----------------------
   0 S :    0.112177
   1 C :   -0.133864
   2 C :   -0.144063
   3 C :    0.062560
   4 C :   -0.180187
   5 H :    0.034176
   6 C :    0.052292
   7 H :    0.017774
   8 H :    0.042365
   9 C :    0.021292
  10 H :    0.009207
  11 H :    0.012429
  12 C :   -0.058509
  13 H :    0.023942
  14 H :    0.034226
  15 H :    0.017369
  16 S :    0.106840
  17 C :   -0.099339
  18 C :   -0.043032
  19 C :   -0.003501
  20 C :   -0.202759
  21 H :    0.015574
  22 C :    0.113904
  23 H :    0.028043
  24 H :    0.009765
  25 C :   -0.134089
  26 H :    0.024193
  27 H :    0.043613
  28 C :   -0.039097
  29 H :    0.041149
  30 H :    0.032081
  31 H :    0.038475
  32 H :    0.078840
  33 H :    0.066152
Sum of atomic charges:   -0.0000000

LOEWDIN ATOMIC CHARGES
----------------------
   0 S :    0.397695
   1 C :   -0.215079
   2 C :   -0.067346
   3 C :   -0.063707
   4 C :   -0.187382
   5 H :    0.042198
   6 C :   -0.040762
   7 H :    0.033331
   8 H :    0.040762
   9 C :   -0.023972
  10 H :    0.021208
  11 H :    0.015304
  12 C :   -0.066130
  13 H :    0.021301
  14 H :    0.034890
  15 H :    0.014001
  16 S :    0.392377
  17 C :   -0.179029
  18 C :   -0.071658
  19 C :   -0.054725
  20 C :   -0.203063
  21 H :    0.032697
  22 C :   -0.033983
  23 H :    0.033703
  24 H :    0.023805
  25 C :   -0.048152
  26 H :    0.016800
  27 H :    0.034545
  28 C :   -0.066670
  29 H :    0.031967
  30 H :    0.022059
  31 H :    0.026247
  32 H :    0.046400
  33 H :    0.040370

  Mayer bond orders larger than 0.100000
B(  0-S ,  1-C ) :   1.1333 B(  0-S ,  4-C ) :   1.1421 B(  1-C ,  2-C ) :   1.6145
B(  1-C , 32-H ) :   0.9577 B(  2-C ,  3-C ) :   1.2186 B(  2-C ,  6-C ) :   1.0158
B(  3-C ,  4-C ) :   1.6002 B(  3-C ,  5-H ) :   0.9800 B(  4-C , 20-C ) :   1.0014
B(  6-C ,  7-H ) :   0.9407 B(  6-C ,  8-H ) :   0.9347 B(  6-C ,  9-C ) :   1.0726
B(  9-C , 10-H ) :   0.9513 B(  9-C , 11-H ) :   0.9519 B(  9-C , 12-C ) :   1.0701
B( 12-C , 13-H ) :   0.9722 B( 12-C , 14-H ) :   0.9745 B( 12-C , 15-H ) :   0.9778
B( 16-S , 17-C ) :   1.1320 B( 16-S , 20-C ) :   1.1452 B( 17-C , 18-C ) :   1.6494
B( 17-C , 33-H ) :   0.9598 B( 18-C , 19-C ) :   1.2226 B( 18-C , 21-H ) :   0.9882
B( 19-C , 20-C ) :   1.5999 B( 19-C , 22-C ) :   1.0613 B( 22-C , 23-H ) :   0.9200
B( 22-C , 24-H ) :   0.9235 B( 22-C , 25-C ) :   1.0521 B( 25-C , 26-H ) :   0.9584
B( 25-C , 27-H ) :   0.9561 B( 25-C , 28-C ) :   1.0709 B( 28-C , 29-H ) :   0.9758
B( 28-C , 30-H ) :   0.9770 B( 28-C , 31-H ) :   0.9723

Dispersion correction           -0.015538257
FINAL SINGLE POINT ENERGY     -1339.868847731283

DIPOLE MOMENT
-------------
                                X             Y             Z
Electronic contribution:     10.46861     -24.54094      -7.25912
Nuclear contribution   :    -10.77014      24.91171       7.50362
                        -----------------------------------------
Total Dipole Moment    :     -0.30153       0.37078       0.24451
                        -----------------------------------------
Magnitude (a.u.)       :      0.53682
Magnitude (Debye)      :      1.36450

Rotational constants in cm-1:     0.019677     0.009312     0.007460
Rotational constants in MHz :   589.888162   279.154211   223.631839

                             ****ORCA TERMINATED NORMALLY****
TOTAL RUN TIME: 0 days 0 hours 0 minutes 22 seconds 715 msec
