                         Program Version 4.2.1 -  RELEASE  -
|  1> ! wB97X-D3 SP def2-SVP
|  2> %pal
|  3> nprocs 24
|  4> end
|  5>
|  6> * xyz 0 1
|  7> S 	 33.9028 	 -31.4072 	 -129.446
|  8> C 	 34.6662 	 -29.8625 	 -129.751
|  9> C 	 35.7985 	 -30.0869 	 -130.49
| 10> C 	 36.005 	 -31.4773 	 -130.826
| 11> C 	 35.0023 	 -32.2795 	 -130.322
| 12> H 	 36.73 	 -31.9493 	 -131.473
| 13> C 	 36.8844 	 -29.0616 	 -130.714
| 14> H 	 36.6351 	 -28.1157 	 -130.147
| 15> H 	 36.7927 	 -28.8068 	 -131.747
| 16> C 	 38.267 	 -29.5814 	 -130.157
| 17> H 	 38.1858 	 -29.6784 	 -129.048
| 18> H 	 38.2914 	 -30.5685 	 -130.585
| 19> C 	 39.5125 	 -28.8017 	 -130.479
| 20> H 	 39.4554 	 -28.6836 	 -131.539
| 21> H 	 39.5561 	 -27.8856 	 -129.825
| 22> H 	 40.4023 	 -29.4232 	 -130.321
| 23> S 	 33.4527 	 -33.8748 	 -131.913
| 24> C 	 33.7939 	 -35.5788 	 -132.019
| 25> C 	 34.893 	 -35.8961 	 -131.242
| 26> C 	 35.4315 	 -34.781 	 -130.461
| 27> C 	 34.7552 	 -33.6361 	 -130.786
| 28> H 	 35.3157 	 -36.8747 	 -131.133
| 29> C 	 36.5815 	 -34.9296 	 -129.424
| 30> H 	 36.3353 	 -35.8842 	 -128.926
| 31> H 	 36.4451 	 -34.1998 	 -128.596
| 32> C 	 38.0264 	 -34.852 	 -129.854
| 33> H 	 38.1942 	 -33.9456 	 -130.357
| 34> H 	 38.196 	 -35.6724 	 -130.516
| 35> C 	 39.0711 	 -35.0247 	 -128.89
| 36> H 	 40.0722 	 -35.2064 	 -129.348
| 37> H 	 38.7887 	 -35.84 	 -128.141
| 38> H 	 39.1947 	 -34.1566 	 -128.256
| 39> H 	 34.3208 	 -28.9184 	 -129.319
| 40> H 	 33.3215 	 -36.3087 	 -132.67
| 41> *
| 42>
| 43>                          ****END OF INPUT****

CARTESIAN COORDINATES (ANGSTROEM)
---------------------------------
  S     33.902800  -31.407200  -129.446000
  C     34.666200  -29.862500  -129.751000
  C     35.798500  -30.086900  -130.490000
  C     36.005000  -31.477300  -130.826000
  C     35.002300  -32.279500  -130.322000
  H     36.730000  -31.949300  -131.473000
  C     36.884400  -29.061600  -130.714000
  H     36.635100  -28.115700  -130.147000
  H     36.792700  -28.806800  -131.747000
  C     38.267000  -29.581400  -130.157000
  H     38.185800  -29.678400  -129.048000
  H     38.291400  -30.568500  -130.585000
  C     39.512500  -28.801700  -130.479000
  H     39.455400  -28.683600  -131.539000
  H     39.556100  -27.885600  -129.825000
  H     40.402300  -29.423200  -130.321000
  S     33.452700  -33.874800  -131.913000
  C     33.793900  -35.578800  -132.019000
  C     34.893000  -35.896100  -131.242000
  C     35.431500  -34.781000  -130.461000
  C     34.755200  -33.636100  -130.786000
  H     35.315700  -36.874700  -131.133000
  C     36.581500  -34.929600  -129.424000
  H     36.335300  -35.884200  -128.926000
  H     36.445100  -34.199800  -128.596000
  C     38.026400  -34.852000  -129.854000
  H     38.194200  -33.945600  -130.357000
  H     38.196000  -35.672400  -130.516000
  C     39.071100  -35.024700  -128.890000
  H     40.072200  -35.206400  -129.348000
  H     38.788700  -35.840000  -128.141000
  H     39.194700  -34.156600  -128.256000
  H     34.320800  -28.918400  -129.319000
  H     33.321500  -36.308700  -132.670000

 Total Charge           Charge          ....    0
 Multiplicity           Mult            ....    1
 Number of Electrons    NEL             ....  134
 Basis Dimension        Dim             ....  322

ORBITAL ENERGIES
----------------

  NO   OCC          E(Eh)            E(eV)
   0   2.0000     -88.965852     -2420.8839
   1   2.0000     -88.961718     -2420.7714
   2   2.0000     -10.322275      -280.8834
   3   2.0000     -10.318538      -280.7817
   4   2.0000     -10.317886      -280.7640
   5   2.0000     -10.313551      -280.6460
   6   2.0000     -10.304794      -280.4077
   7   2.0000     -10.301047      -280.3057
   8   2.0000     -10.297235      -280.2020
   9   2.0000     -10.294535      -280.1285
  10   2.0000     -10.292769      -280.0805
  11   2.0000     -10.291536      -280.0469
  12   2.0000     -10.287195      -279.9288
  13   2.0000     -10.280067      -279.7348
  14   2.0000     -10.278254      -279.6855
  15   2.0000     -10.271982      -279.5148
  16   2.0000      -8.080925      -219.8932
  17   2.0000      -8.078536      -219.8281
  18   2.0000      -6.039479      -164.3426
  19   2.0000      -6.036823      -164.2703
  20   2.0000      -6.035392      -164.2314
  21   2.0000      -6.032556      -164.1542
  22   2.0000      -6.031597      -164.1281
  23   2.0000      -6.029576      -164.0731
  24   2.0000      -1.016211       -27.6525
  25   2.0000      -0.987559       -26.8728
  26   2.0000      -0.920229       -25.0407
  27   2.0000      -0.912087       -24.8191
  28   2.0000      -0.872469       -23.7411
  29   2.0000      -0.856924       -23.3181
  30   2.0000      -0.847993       -23.0751
  31   2.0000      -0.814947       -22.1758
  32   2.0000      -0.783913       -21.3313
  33   2.0000      -0.774220       -21.0676
  34   2.0000      -0.704798       -19.1785
  35   2.0000      -0.694710       -18.9040
  36   2.0000      -0.687581       -18.7100
  37   2.0000      -0.661605       -18.0032
  38   2.0000      -0.646609       -17.5951
  39   2.0000      -0.616408       -16.7733
  40   2.0000      -0.597015       -16.2456
  41   2.0000      -0.577290       -15.7089
  42   2.0000      -0.567859       -15.4522
  43   2.0000      -0.563676       -15.3384
  44   2.0000      -0.532486       -14.4897
  45   2.0000      -0.526100       -14.3159
  46   2.0000      -0.518040       -14.0966
  47   2.0000      -0.517939       -14.0938
  48   2.0000      -0.511522       -13.9192
  49   2.0000      -0.506140       -13.7728
  50   2.0000      -0.495615       -13.4864
  51   2.0000      -0.479260       -13.0413
  52   2.0000      -0.472226       -12.8499
  53   2.0000      -0.466141       -12.6843
  54   2.0000      -0.456983       -12.4351
  55   2.0000      -0.453060       -12.3284
  56   2.0000      -0.449094       -12.2205
  57   2.0000      -0.432126       -11.7587
  58   2.0000      -0.428924       -11.6716
  59   2.0000      -0.422728       -11.5030
  60   2.0000      -0.417764       -11.3679
  61   2.0000      -0.407324       -11.0838
  62   2.0000      -0.406054       -11.0493
  63   2.0000      -0.338486        -9.2107
  64   2.0000      -0.331853        -9.0302
  65   2.0000      -0.324579        -8.8322
  66   2.0000      -0.308229        -8.3874
  67   0.0000       0.046014         1.2521
  68   0.0000       0.066493         1.8094
  69   0.0000       0.117152         3.1879
  70   0.0000       0.123857         3.3703
  71   0.0000       0.129255         3.5172

MULLIKEN ATOMIC CHARGES
-----------------------
   0 S :    0.112784
   1 C :   -0.134822
   2 C :   -0.079521
   3 C :    0.017948
   4 C :   -0.166498
   5 H :    0.023781
   6 C :    0.066769
   7 H :    0.019798
   8 H :    0.031686
   9 C :   -0.122698
  10 H :    0.039165
  11 H :    0.021715
  12 C :   -0.010703
  13 H :    0.023273
  14 H :    0.049416
  15 H :    0.034571
  16 S :    0.127430
  17 C :   -0.087290
  18 C :   -0.025127
  19 C :   -0.038000
  20 C :   -0.181066
  21 H :    0.007230
  22 C :    0.050118
  23 H :    0.019539
  24 H :    0.026946
  25 C :    0.007202
  26 H :    0.008823
  27 H :    0.010605
  28 C :   -0.062802
  29 H :    0.044219
  30 H :    0.027378
  31 H :    0.019728
  32 H :    0.056820
  33 H :    0.061581
Sum of atomic charges:   -0.0000000

LOEWDIN ATOMIC CHARGES
----------------------
   0 S :    0.445554
   1 C :   -0.201972
   2 C :   -0.063447
   3 C :   -0.068508
   4 C :   -0.229418
   5 H :    0.030634
   6 C :   -0.033298
   7 H :    0.029546
   8 H :    0.027085
   9 C :   -0.042755
  10 H :    0.029579
  11 H :    0.017388
  12 C :   -0.066395
  13 H :    0.023336
  14 H :    0.034434
  15 H :    0.030384
  16 S :    0.416369
  17 C :   -0.193297
  18 C :   -0.066377
  19 C :   -0.055929
  20 C :   -0.201780
  21 H :    0.024775
  22 C :   -0.030504
  23 H :    0.031852
  24 H :    0.032955
  25 C :   -0.048524
  26 H :    0.019398
  27 H :    0.023554
  28 C :   -0.066266
  29 H :    0.034527
  30 H :    0.030766
  31 H :    0.018826
  32 H :    0.033525
  33 H :    0.033982

  Mayer bond orders larger than 0.100000
B(  0-S ,  1-C ) :   1.1384 B(  0-S ,  4-C ) :   1.1950 B(  1-C ,  2-C ) :   1.6060
B(  1-C , 32-H ) :   0.9729 B(  2-C ,  3-C ) :   1.2300 B(  2-C ,  6-C ) :   1.0210
B(  3-C ,  4-C ) :   1.5659 B(  3-C ,  5-H ) :   0.9849 B(  4-C , 20-C ) :   0.9932
B(  6-C ,  7-H ) :   0.9493 B(  6-C ,  8-H ) :   0.9332 B(  6-C ,  9-C ) :   1.0483
B(  9-C , 10-H ) :   0.9565 B(  9-C , 11-H ) :   0.9559 B(  9-C , 12-C ) :   1.0898
B( 12-C , 13-H ) :   0.9725 B( 12-C , 14-H ) :   0.9736 B( 12-C , 15-H ) :   0.9702
B( 16-S , 17-C ) :   1.1396 B( 16-S , 20-C ) :   1.1495 B( 17-C , 18-C ) :   1.6240
B( 17-C , 33-H ) :   0.9679 B( 18-C , 19-C ) :   1.2344 B( 18-C , 21-H ) :   0.9868
B( 19-C , 20-C ) :   1.6391 B( 19-C , 22-C ) :   1.0350 B( 22-C , 23-H ) :   0.9276
B( 22-C , 24-H ) :   0.9322 B( 22-C , 25-C ) :   1.0779 B( 25-C , 26-H ) :   0.9418
B( 25-C , 27-H ) :   0.9449 B( 25-C , 28-C ) :   1.1055 B( 28-C , 29-H ) :   0.9702
B( 28-C , 30-H ) :   0.9674 B( 28-C , 31-H ) :   0.9690

Dispersion correction           -0.014193133
FINAL SINGLE POINT ENERGY     -1339.871071985918

DIPOLE MOMENT
-------------
                                X             Y             Z
Electronic contribution:    -30.31680      -3.82246      -5.65002
Nuclear contribution   :     30.93185       3.80991       5.64365
                        -----------------------------------------
Total Dipole Moment    :      0.61505      -0.01256      -0.00637
                        -----------------------------------------
Magnitude (a.u.)       :      0.61521
Magnitude (Debye)      :      1.56374

Rotational constants in cm-1:     0.016439     0.009720     0.006975
Rotational constants in MHz :   492.830907   291.402212   209.109066

                             ****ORCA TERMINATED NORMALLY****
TOTAL RUN TIME: 0 days 0 hours 0 minutes 21 seconds 683 msec
