                         Program Version 4.2.1 -  RELEASE  -
|  1> ! wB97X-D3 SP def2-SVP
|  2> %pal
|  3> nprocs 24
|  4> end
|  5>
|  6> * xyz 0 1
|  7> S 	 -132.755 	 12.8062 	 -6.84543
|  8> C 	 -130.995 	 12.9165 	 -6.80901
|  9> C 	 -130.425 	 11.703 	 -7.23402
| 10> C 	 -131.443 	 10.8341 	 -7.81444
| 11> C 	 -132.745 	 11.2615 	 -7.68675
| 12> H 	 -131.318 	 9.89467 	 -8.35634
| 13> C 	 -128.957 	 11.4177 	 -7.19309
| 14> H 	 -128.314 	 12.0622 	 -7.84053
| 15> H 	 -128.833 	 10.3855 	 -7.49399
| 16> C 	 -128.3 	 11.3467 	 -5.78206
| 17> H 	 -127.234 	 11.373 	 -6.06535
| 18> H 	 -128.369 	 12.3171 	 -5.32909
| 19> C 	 -128.738 	 10.1908 	 -4.81667
| 20> H 	 -128.447 	 9.20853 	 -5.12654
| 21> H 	 -128.095 	 10.1816 	 -3.91723
| 22> H 	 -129.752 	 10.2662 	 -4.44456
| 23> S 	 -134.857 	 11.8088 	 -9.17529
| 24> C 	 -136.062 	 10.6033 	 -9.51849
| 25> C 	 -135.656 	 9.32646 	 -9.11245
| 26> C 	 -134.421 	 9.35917 	 -8.36173
| 27> C 	 -133.952 	 10.6673 	 -8.26167
| 28> H 	 -136.251 	 8.49628 	 -9.37254
| 29> C 	 -133.713 	 8.10817 	 -7.91468
| 30> H 	 -133.225 	 8.19195 	 -6.91603
| 31> H 	 -132.926 	 8.01253 	 -8.61125
| 32> C 	 -134.548 	 6.83361 	 -8.01727
| 33> H 	 -135.084 	 6.66337 	 -8.91361
| 34> H 	 -135.277 	 6.85871 	 -7.23898
| 35> C 	 -133.575 	 5.59559 	 -7.73754
| 36> H 	 -132.685 	 5.73444 	 -8.32238
| 37> H 	 -133.967 	 4.61409 	 -8.02807
| 38> H 	 -133.269 	 5.63336 	 -6.65223
| 39> H 	 -130.248 	 13.5283 	 -6.2921
| 40> H 	 -137.029 	 10.7295 	 -10.042
| 41> *
| 42>
| 43>                          ****END OF INPUT****

CARTESIAN COORDINATES (ANGSTROEM)
---------------------------------
  S    -132.755000   12.806200   -6.845430
  C    -130.995000   12.916500   -6.809010
  C    -130.425000   11.703000   -7.234020
  C    -131.443000   10.834100   -7.814440
  C    -132.745000   11.261500   -7.686750
  H    -131.318000    9.894670   -8.356340
  C    -128.957000   11.417700   -7.193090
  H    -128.314000   12.062200   -7.840530
  H    -128.833000   10.385500   -7.493990
  C    -128.300000   11.346700   -5.782060
  H    -127.234000   11.373000   -6.065350
  H    -128.369000   12.317100   -5.329090
  C    -128.738000   10.190800   -4.816670
  H    -128.447000    9.208530   -5.126540
  H    -128.095000   10.181600   -3.917230
  H    -129.752000   10.266200   -4.444560
  S    -134.857000   11.808800   -9.175290
  C    -136.062000   10.603300   -9.518490
  C    -135.656000    9.326460   -9.112450
  C    -134.421000    9.359170   -8.361730
  C    -133.952000   10.667300   -8.261670
  H    -136.251000    8.496280   -9.372540
  C    -133.713000    8.108170   -7.914680
  H    -133.225000    8.191950   -6.916030
  H    -132.926000    8.012530   -8.611250
  C    -134.548000    6.833610   -8.017270
  H    -135.084000    6.663370   -8.913610
  H    -135.277000    6.858710   -7.238980
  C    -133.575000    5.595590   -7.737540
  H    -132.685000    5.734440   -8.322380
  H    -133.967000    4.614090   -8.028070
  H    -133.269000    5.633360   -6.652230
  H    -130.248000   13.528300   -6.292100
  H    -137.029000   10.729500  -10.042000

 Total Charge           Charge          ....    0
 Multiplicity           Mult            ....    1
 Number of Electrons    NEL             ....  134
 Basis Dimension        Dim             ....  322

ORBITAL ENERGIES
----------------

  NO   OCC          E(Eh)            E(eV)
   0   2.0000     -88.967810     -2420.9372
   1   2.0000     -88.966502     -2420.9016
   2   2.0000     -10.328342      -281.0485
   3   2.0000     -10.323792      -280.9247
   4   2.0000     -10.317576      -280.7555
   5   2.0000     -10.315412      -280.6966
   6   2.0000     -10.306943      -280.4662
   7   2.0000     -10.303099      -280.3616
   8   2.0000     -10.294536      -280.1286
   9   2.0000     -10.293745      -280.1070
  10   2.0000     -10.293439      -280.0987
  11   2.0000     -10.293231      -280.0931
  12   2.0000     -10.292628      -280.0767
  13   2.0000     -10.286768      -279.9172
  14   2.0000     -10.285406      -279.8801
  15   2.0000     -10.282608      -279.8040
  16   2.0000      -8.081849      -219.9183
  17   2.0000      -8.081612      -219.9118
  18   2.0000      -6.040348      -164.3662
  19   2.0000      -6.040256      -164.3637
  20   2.0000      -6.036251      -164.2547
  21   2.0000      -6.036163      -164.2523
  22   2.0000      -6.032662      -164.1571
  23   2.0000      -6.032235      -164.1455
  24   2.0000      -1.007237       -27.4083
  25   2.0000      -0.980059       -26.6688
  26   2.0000      -0.914198       -24.8766
  27   2.0000      -0.908071       -24.7099
  28   2.0000      -0.865774       -23.5589
  29   2.0000      -0.849305       -23.1108
  30   2.0000      -0.839515       -22.8444
  31   2.0000      -0.813737       -22.1429
  32   2.0000      -0.784397       -21.3445
  33   2.0000      -0.771904       -21.0046
  34   2.0000      -0.715890       -19.4804
  35   2.0000      -0.708807       -19.2876
  36   2.0000      -0.695981       -18.9386
  37   2.0000      -0.656871       -17.8744
  38   2.0000      -0.631000       -17.1704
  39   2.0000      -0.610563       -16.6143
  40   2.0000      -0.596166       -16.2225
  41   2.0000      -0.575948       -15.6723
  42   2.0000      -0.572558       -15.5801
  43   2.0000      -0.551692       -15.0123
  44   2.0000      -0.539605       -14.6834
  45   2.0000      -0.523647       -14.2492
  46   2.0000      -0.514525       -14.0009
  47   2.0000      -0.508544       -13.8382
  48   2.0000      -0.498587       -13.5672
  49   2.0000      -0.493711       -13.4346
  50   2.0000      -0.488477       -13.2921
  51   2.0000      -0.477246       -12.9865
  52   2.0000      -0.468250       -12.7417
  53   2.0000      -0.464414       -12.6373
  54   2.0000      -0.456867       -12.4320
  55   2.0000      -0.453455       -12.3391
  56   2.0000      -0.447254       -12.1704
  57   2.0000      -0.439861       -11.9692
  58   2.0000      -0.436173       -11.8689
  59   2.0000      -0.431878       -11.7520
  60   2.0000      -0.421505       -11.4697
  61   2.0000      -0.418992       -11.4014
  62   2.0000      -0.409936       -11.1549
  63   2.0000      -0.347338        -9.4516
  64   2.0000      -0.329974        -8.9790
  65   2.0000      -0.324696        -8.8354
  66   2.0000      -0.290280        -7.8989
  67   0.0000       0.028687         0.7806
  68   0.0000       0.071147         1.9360
  69   0.0000       0.111985         3.0473
  70   0.0000       0.114305         3.1104
  71   0.0000       0.128836         3.5058

MULLIKEN ATOMIC CHARGES
-----------------------
   0 S :    0.116692
   1 C :   -0.094997
   2 C :   -0.113769
   3 C :    0.030714
   4 C :   -0.158715
   5 H :    0.008366
   6 C :    0.044300
   7 H :    0.052385
   8 H :    0.011469
   9 C :   -0.081118
  10 H :    0.022170
  11 H :    0.012682
  12 C :   -0.030325
  13 H :    0.021667
  14 H :    0.024339
  15 H :    0.055432
  16 S :    0.126803
  17 C :   -0.093151
  18 C :   -0.054162
  19 C :   -0.016500
  20 C :   -0.160685
  21 H :    0.005969
  22 C :    0.054621
  23 H :    0.046033
  24 H :    0.028509
  25 C :   -0.075788
  26 H :    0.030835
  27 H :    0.028771
  28 C :   -0.055301
  29 H :    0.020339
  30 H :    0.038278
  31 H :    0.041395
  32 H :    0.049804
  33 H :    0.062934
Sum of atomic charges:   -0.0000000

LOEWDIN ATOMIC CHARGES
----------------------
   0 S :    0.399710
   1 C :   -0.206027
   2 C :   -0.065088
   3 C :   -0.068352
   4 C :   -0.198734
   5 H :    0.030632
   6 C :   -0.040773
   7 H :    0.039883
   8 H :    0.028958
   9 C :   -0.040690
  10 H :    0.028519
  11 H :    0.013641
  12 C :   -0.069827
  13 H :    0.023343
  14 H :    0.034283
  15 H :    0.031706
  16 S :    0.434587
  17 C :   -0.198065
  18 C :   -0.068507
  19 C :   -0.050991
  20 C :   -0.210368
  21 H :    0.023647
  22 C :   -0.031315
  23 H :    0.041606
  24 H :    0.026657
  25 C :   -0.032243
  26 H :    0.017510
  27 H :    0.021420
  28 C :   -0.064164
  29 H :    0.018208
  30 H :    0.025285
  31 H :    0.032299
  32 H :    0.036978
  33 H :    0.036271

  Mayer bond orders larger than 0.100000
B(  0-S ,  1-C ) :   1.1284 B(  0-S ,  4-C ) :   1.1373 B(  1-C ,  2-C ) :   1.6152
B(  1-C , 32-H ) :   0.9604 B(  2-C ,  3-C ) :   1.2232 B(  2-C ,  6-C ) :   1.0293
B(  3-C ,  4-C ) :   1.5953 B(  3-C ,  5-H ) :   0.9884 B(  4-C , 20-C ) :   1.0299
B(  6-C ,  7-H ) :   0.9434 B(  6-C ,  8-H ) :   0.9400 B(  6-C ,  9-C ) :   1.0680
B(  9-C , 10-H ) :   0.9539 B(  9-C , 11-H ) :   0.9584 B(  9-C , 12-C ) :   1.0672
B( 12-C , 13-H ) :   0.9728 B( 12-C , 14-H ) :   0.9689 B( 12-C , 15-H ) :   0.9765
B( 16-S , 17-C ) :   1.1595 B( 16-S , 20-C ) :   1.1629 B( 17-C , 18-C ) :   1.6021
B( 17-C , 33-H ) :   0.9604 B( 18-C , 19-C ) :   1.2413 B( 18-C , 21-H ) :   0.9931
B( 19-C , 20-C ) :   1.5894 B( 19-C , 22-C ) :   1.0311 B( 22-C , 23-H ) :   0.9336
B( 22-C , 24-H ) :   0.9247 B( 22-C , 25-C ) :   1.0781 B( 25-C , 26-H ) :   0.9487
B( 25-C , 27-H ) :   0.9594 B( 25-C , 28-C ) :   1.0728 B( 28-C , 29-H ) :   0.9780
B( 28-C , 30-H ) :   0.9766 B( 28-C , 31-H ) :   0.9764

Dispersion correction           -0.013598059
FINAL SINGLE POINT ENERGY     -1339.861503714961

DIPOLE MOMENT
-------------
                                X             Y             Z
Electronic contribution:    -16.86807      23.31282      -8.51694
Nuclear contribution   :     17.29217     -24.00453       8.50071
                        -----------------------------------------
Total Dipole Moment    :      0.42410      -0.69171      -0.01624
                        -----------------------------------------
Magnitude (a.u.)       :      0.81154
Magnitude (Debye)      :      2.06276

Rotational constants in cm-1:     0.017405     0.008729     0.006164
Rotational constants in MHz :   521.800414   261.690254   184.800864

                             ****ORCA TERMINATED NORMALLY****
TOTAL RUN TIME: 0 days 0 hours 0 minutes 21 seconds 85 msec
