                         Program Version 4.2.1 -  RELEASE  -
|  1> ! wB97X-D3 SP def2-SVP
|  2> %pal
|  3> nprocs 24
|  4> end
|  5>
|  6> * xyz 0 1
|  7> S 	 -66.9051 	 21.8669 	 -117.927
|  8> C 	 -65.3151 	 22.5625 	 -118.31
|  9> C 	 -64.4608 	 22.4709 	 -117.268
| 10> C 	 -65.1098 	 21.9211 	 -116.115
| 11> C 	 -66.39 	 21.5474 	 -116.274
| 12> H 	 -64.6445 	 21.7686 	 -115.149
| 13> C 	 -63.0591 	 22.9774 	 -117.39
| 14> H 	 -63.0391 	 24.0478 	 -117.602
| 15> H 	 -62.6231 	 22.6642 	 -118.302
| 16> C 	 -62.1745 	 22.6464 	 -116.176
| 17> H 	 -62.5339 	 23.2493 	 -115.392
| 18> H 	 -62.4523 	 21.5855 	 -115.797
| 19> C 	 -60.5677 	 22.7792 	 -116.413
| 20> H 	 -60.1502 	 23.7652 	 -116.556
| 21> H 	 -59.9589 	 22.3355 	 -115.603
| 22> H 	 -60.235 	 22.305 	 -117.314
| 23> S 	 -68.1219 	 19.724 	 -115.394
| 24> C 	 -68.732 	 19.786 	 -113.721
| 25> C 	 -68.3385 	 20.8684 	 -113.045
| 26> C 	 -67.4698 	 21.6377 	 -113.885
| 27> C 	 -67.2753 	 21.148 	 -115.21
| 28> H 	 -68.5461 	 21.1818 	 -112.037
| 29> C 	 -66.762 	 22.8077 	 -113.262
| 30> H 	 -65.7796 	 23.0437 	 -113.826
| 31> H 	 -66.4447 	 22.6108 	 -112.266
| 32> C 	 -67.6043 	 24.0012 	 -113.108
| 33> H 	 -68.3899 	 23.9228 	 -112.376
| 34> H 	 -68.1213 	 24.1415 	 -114.048
| 35> C 	 -66.8568 	 25.4056 	 -113.009
| 36> H 	 -66.2532 	 25.6702 	 -113.895
| 37> H 	 -66.2335 	 25.5354 	 -112.107
| 38> H 	 -67.5269 	 26.2027 	 -113.013
| 39> H 	 -65.0223 	 23.0077 	 -119.284
| 40> H 	 -69.4009 	 19.0334 	 -113.288
| 41> *
| 42>
| 43>                          ****END OF INPUT****

CARTESIAN COORDINATES (ANGSTROEM)
---------------------------------
  S    -66.905100   21.866900  -117.927000
  C    -65.315100   22.562500  -118.310000
  C    -64.460800   22.470900  -117.268000
  C    -65.109800   21.921100  -116.115000
  C    -66.390000   21.547400  -116.274000
  H    -64.644500   21.768600  -115.149000
  C    -63.059100   22.977400  -117.390000
  H    -63.039100   24.047800  -117.602000
  H    -62.623100   22.664200  -118.302000
  C    -62.174500   22.646400  -116.176000
  H    -62.533900   23.249300  -115.392000
  H    -62.452300   21.585500  -115.797000
  C    -60.567700   22.779200  -116.413000
  H    -60.150200   23.765200  -116.556000
  H    -59.958900   22.335500  -115.603000
  H    -60.235000   22.305000  -117.314000
  S    -68.121900   19.724000  -115.394000
  C    -68.732000   19.786000  -113.721000
  C    -68.338500   20.868400  -113.045000
  C    -67.469800   21.637700  -113.885000
  C    -67.275300   21.148000  -115.210000
  H    -68.546100   21.181800  -112.037000
  C    -66.762000   22.807700  -113.262000
  H    -65.779600   23.043700  -113.826000
  H    -66.444700   22.610800  -112.266000
  C    -67.604300   24.001200  -113.108000
  H    -68.389900   23.922800  -112.376000
  H    -68.121300   24.141500  -114.048000
  C    -66.856800   25.405600  -113.009000
  H    -66.253200   25.670200  -113.895000
  H    -66.233500   25.535400  -112.107000
  H    -67.526900   26.202700  -113.013000
  H    -65.022300   23.007700  -119.284000
  H    -69.400900   19.033400  -113.288000

 Total Charge           Charge          ....    0
 Multiplicity           Mult            ....    1
 Number of Electrons    NEL             ....  134
 Basis Dimension        Dim             ....  322

ORBITAL ENERGIES
----------------

  NO   OCC          E(Eh)            E(eV)
   0   2.0000     -88.965320     -2420.8694
   1   2.0000     -88.964769     -2420.8544
   2   2.0000     -10.325733      -280.9775
   3   2.0000     -10.323551      -280.9181
   4   2.0000     -10.317510      -280.7537
   5   2.0000     -10.314172      -280.6629
   6   2.0000     -10.302727      -280.3515
   7   2.0000     -10.300506      -280.2910
   8   2.0000     -10.298415      -280.2341
   9   2.0000     -10.292872      -280.0833
  10   2.0000     -10.291073      -280.0343
  11   2.0000     -10.290256      -280.0121
  12   2.0000     -10.286393      -279.9070
  13   2.0000     -10.284501      -279.8555
  14   2.0000     -10.279630      -279.7230
  15   2.0000     -10.275674      -279.6153
  16   2.0000      -8.081361      -219.9050
  17   2.0000      -8.079130      -219.8443
  18   2.0000      -6.039785      -164.3509
  19   2.0000      -6.037740      -164.2953
  20   2.0000      -6.035670      -164.2389
  21   2.0000      -6.033798      -164.1880
  22   2.0000      -6.032131      -164.1426
  23   2.0000      -6.029688      -164.0761
  24   2.0000      -1.014812       -27.6144
  25   2.0000      -0.990370       -26.9493
  26   2.0000      -0.914532       -24.8857
  27   2.0000      -0.909966       -24.7614
  28   2.0000      -0.877352       -23.8740
  29   2.0000      -0.847192       -23.0533
  30   2.0000      -0.839930       -22.8556
  31   2.0000      -0.820779       -22.3345
  32   2.0000      -0.785843       -21.3839
  33   2.0000      -0.771995       -21.0071
  34   2.0000      -0.722954       -19.6726
  35   2.0000      -0.697628       -18.9834
  36   2.0000      -0.689608       -18.7652
  37   2.0000      -0.668062       -18.1789
  38   2.0000      -0.644221       -17.5301
  39   2.0000      -0.624234       -16.9863
  40   2.0000      -0.602024       -16.3819
  41   2.0000      -0.571500       -15.5513
  42   2.0000      -0.561148       -15.2696
  43   2.0000      -0.557843       -15.1797
  44   2.0000      -0.524772       -14.2798
  45   2.0000      -0.521166       -14.1817
  46   2.0000      -0.513179       -13.9643
  47   2.0000      -0.509498       -13.8641
  48   2.0000      -0.502796       -13.6818
  49   2.0000      -0.497529       -13.5385
  50   2.0000      -0.493300       -13.4234
  51   2.0000      -0.484313       -13.1788
  52   2.0000      -0.480014       -13.0619
  53   2.0000      -0.468615       -12.7517
  54   2.0000      -0.456523       -12.4226
  55   2.0000      -0.454883       -12.3780
  56   2.0000      -0.447949       -12.1893
  57   2.0000      -0.440995       -12.0001
  58   2.0000      -0.433674       -11.8009
  59   2.0000      -0.424511       -11.5515
  60   2.0000      -0.418574       -11.3900
  61   2.0000      -0.414358       -11.2753
  62   2.0000      -0.404992       -11.0204
  63   2.0000      -0.357495        -9.7279
  64   2.0000      -0.332612        -9.0508
  65   2.0000      -0.326285        -8.8787
  66   2.0000      -0.292303        -7.9540
  67   0.0000       0.033597         0.9142
  68   0.0000       0.072117         1.9624
  69   0.0000       0.110014         2.9936
  70   0.0000       0.120164         3.2698
  71   0.0000       0.133607         3.6356

MULLIKEN ATOMIC CHARGES
-----------------------
   0 S :    0.105663
   1 C :   -0.144200
   2 C :   -0.063421
   3 C :   -0.019282
   4 C :   -0.099322
   5 H :    0.019422
   6 C :    0.096297
   7 H :    0.031001
   8 H :    0.006654
   9 C :   -0.103202
  10 H :    0.026991
  11 H :    0.049923
  12 C :   -0.040041
  13 H :    0.027741
  14 H :    0.040464
  15 H :    0.023164
  16 S :    0.109326
  17 C :   -0.088589
  18 C :    0.007034
  19 C :   -0.074476
  20 C :   -0.150285
  21 H :    0.019309
  22 C :    0.074166
  23 H :    0.026629
  24 H :    0.008882
  25 C :   -0.075972
  26 H :    0.024080
  27 H :    0.023729
  28 C :   -0.049132
  29 H :    0.033166
  30 H :    0.029276
  31 H :    0.012580
  32 H :    0.053411
  33 H :    0.059015
Sum of atomic charges:    0.0000000

LOEWDIN ATOMIC CHARGES
----------------------
   0 S :    0.382801
   1 C :   -0.184482
   2 C :   -0.064627
   3 C :   -0.064658
   4 C :   -0.191925
   5 H :    0.030679
   6 C :   -0.034883
   7 H :    0.036295
   8 H :    0.025317
   9 C :   -0.037691
  10 H :    0.016820
  11 H :    0.034837
  12 C :   -0.070786
  13 H :    0.024042
  14 H :    0.032051
  15 H :    0.022128
  16 S :    0.433807
  17 C :   -0.173239
  18 C :   -0.062839
  19 C :   -0.051602
  20 C :   -0.229831
  21 H :    0.036498
  22 C :   -0.044502
  23 H :    0.038409
  24 H :    0.023440
  25 C :   -0.040373
  26 H :    0.019214
  27 H :    0.026072
  28 C :   -0.065808
  29 H :    0.029555
  30 H :    0.021642
  31 H :    0.016239
  32 H :    0.036101
  33 H :    0.031299

  Mayer bond orders larger than 0.100000
B(  0-S ,  1-C ) :   1.1219 B(  0-S ,  4-C ) :   1.1280 B(  1-C ,  2-C ) :   1.6517
B(  1-C , 32-H ) :   0.9659 B(  2-C ,  3-C ) :   1.2123 B(  2-C ,  6-C ) :   1.0157
B(  3-C ,  4-C ) :   1.6130 B(  3-C ,  5-H ) :   0.9918 B(  4-C , 20-C ) :   1.0167
B(  6-C ,  7-H ) :   0.9289 B(  6-C ,  8-H ) :   0.9330 B(  6-C ,  9-C ) :   1.0654
B(  9-C , 10-H ) :   0.9535 B(  9-C , 11-H ) :   0.9598 B(  9-C , 12-C ) :   1.0545
B( 12-C , 13-H ) :   0.9783 B( 12-C , 14-H ) :   0.9794 B( 12-C , 15-H ) :   0.9786
B( 16-S , 17-C ) :   1.1551 B( 16-S , 20-C ) :   1.1583 B( 17-C , 18-C ) :   1.5950
B( 17-C , 33-H ) :   0.9637 B( 18-C , 19-C ) :   1.2603 B( 18-C , 21-H ) :   0.9947
B( 19-C , 20-C ) :   1.5678 B( 19-C , 22-C ) :   1.0567 B( 22-C , 23-H ) :   0.9347
B( 22-C , 24-H ) :   0.9256 B( 22-C , 25-C ) :   1.0581 B( 25-C , 26-H ) :   0.9567
B( 25-C , 27-H ) :   0.9541 B( 25-C , 28-C ) :   1.0818 B( 28-C , 29-H ) :   0.9747
B( 28-C , 30-H ) :   0.9769 B( 28-C , 31-H ) :   0.9746

Dispersion correction           -0.013853668
FINAL SINGLE POINT ENERGY     -1339.857064095881

DIPOLE MOMENT
-------------
                                X             Y             Z
Electronic contribution:    -20.96414     -18.64929     -11.32353
Nuclear contribution   :     21.44393      19.05051      11.69032
                        -----------------------------------------
Total Dipole Moment    :      0.47978       0.40122       0.36679
                        -----------------------------------------
Magnitude (a.u.)       :      0.72505
Magnitude (Debye)      :      1.84293

Rotational constants in cm-1:     0.016666     0.008735     0.007073
Rotational constants in MHz :   499.633637   261.876115   212.028947

                             ****ORCA TERMINATED NORMALLY****
TOTAL RUN TIME: 0 days 0 hours 0 minutes 21 seconds 908 msec
