                         Program Version 4.2.1 -  RELEASE  -
|  1> ! wB97X-D3 SP def2-SVP
|  2> %pal
|  3> nprocs 24
|  4> end
|  5>
|  6> * xyz 0 1
|  7> S 	 40.8382 	 -12.4681 	 -124.823
|  8> C 	 40.8965 	 -12.7671 	 -123.064
|  9> C 	 41.2088 	 -14.0736 	 -122.726
| 10> C 	 41.2925 	 -14.8902 	 -123.897
| 11> C 	 40.9728 	 -14.204 	 -125.082
| 12> H 	 41.6035 	 -16.0151 	 -123.97
| 13> C 	 41.6076 	 -14.6986 	 -121.394
| 14> H 	 41.4535 	 -15.8 	 -121.396
| 15> H 	 40.9069 	 -14.3425 	 -120.661
| 16> C 	 43.0205 	 -14.3443 	 -120.928
| 17> H 	 43.0965 	 -13.2404 	 -120.767
| 18> H 	 43.0528 	 -14.7467 	 -119.92
| 19> C 	 44.0941 	 -14.8597 	 -121.803
| 20> H 	 44.0391 	 -14.5159 	 -122.807
| 21> H 	 45.1085 	 -14.5655 	 -121.498
| 22> H 	 44.019 	 -15.9638 	 -121.896
| 23> S 	 39.3498 	 -15.4809 	 -126.98
| 24> C 	 40.0824 	 -16.1296 	 -128.414
| 25> C 	 41.4791 	 -16.0849 	 -128.259
| 26> C 	 41.948 	 -15.2622 	 -127.216
| 27> C 	 40.909 	 -14.8561 	 -126.399
| 28> H 	 42.0622 	 -16.6447 	 -128.897
| 29> C 	 43.4845 	 -15.0693 	 -126.972
| 30> H 	 43.6502 	 -14.6936 	 -125.997
| 31> H 	 44.0296 	 -14.3462 	 -127.534
| 32> C 	 44.2757 	 -16.4018 	 -127.066
| 33> H 	 44.4779 	 -16.6259 	 -128.106
| 34> H 	 43.5981 	 -17.2364 	 -126.649
| 35> C 	 45.6143 	 -16.637 	 -126.354
| 36> H 	 45.4416 	 -16.5561 	 -125.283
| 37> H 	 46.4795 	 -16.0266 	 -126.62
| 38> H 	 45.8367 	 -17.6454 	 -126.581
| 39> H 	 41.0747 	 -11.988 	 -122.34
| 40> H 	 39.5796 	 -16.6394 	 -129.272
| 41> *
| 42>
| 43>                          ****END OF INPUT****

CARTESIAN COORDINATES (ANGSTROEM)
---------------------------------
  S     40.838200  -12.468100  -124.823000
  C     40.896500  -12.767100  -123.064000
  C     41.208800  -14.073600  -122.726000
  C     41.292500  -14.890200  -123.897000
  C     40.972800  -14.204000  -125.082000
  H     41.603500  -16.015100  -123.970000
  C     41.607600  -14.698600  -121.394000
  H     41.453500  -15.800000  -121.396000
  H     40.906900  -14.342500  -120.661000
  C     43.020500  -14.344300  -120.928000
  H     43.096500  -13.240400  -120.767000
  H     43.052800  -14.746700  -119.920000
  C     44.094100  -14.859700  -121.803000
  H     44.039100  -14.515900  -122.807000
  H     45.108500  -14.565500  -121.498000
  H     44.019000  -15.963800  -121.896000
  S     39.349800  -15.480900  -126.980000
  C     40.082400  -16.129600  -128.414000
  C     41.479100  -16.084900  -128.259000
  C     41.948000  -15.262200  -127.216000
  C     40.909000  -14.856100  -126.399000
  H     42.062200  -16.644700  -128.897000
  C     43.484500  -15.069300  -126.972000
  H     43.650200  -14.693600  -125.997000
  H     44.029600  -14.346200  -127.534000
  C     44.275700  -16.401800  -127.066000
  H     44.477900  -16.625900  -128.106000
  H     43.598100  -17.236400  -126.649000
  C     45.614300  -16.637000  -126.354000
  H     45.441600  -16.556100  -125.283000
  H     46.479500  -16.026600  -126.620000
  H     45.836700  -17.645400  -126.581000
  H     41.074700  -11.988000  -122.340000
  H     39.579600  -16.639400  -129.272000

 Total Charge           Charge          ....    0
 Multiplicity           Mult            ....    1
 Number of Electrons    NEL             ....  134
 Basis Dimension        Dim             ....  322

ORBITAL ENERGIES
----------------

  NO   OCC          E(Eh)            E(eV)
   0   2.0000     -88.970870     -2421.0205
   1   2.0000     -88.965235     -2420.8671
   2   2.0000     -10.329949      -281.0922
   3   2.0000     -10.326472      -280.9976
   4   2.0000     -10.320891      -280.8457
   5   2.0000     -10.316180      -280.7175
   6   2.0000     -10.305958      -280.4394
   7   2.0000     -10.303275      -280.3664
   8   2.0000     -10.302467      -280.3444
   9   2.0000     -10.294800      -280.1357
  10   2.0000     -10.291277      -280.0399
  11   2.0000     -10.289757      -279.9985
  12   2.0000     -10.288154      -279.9549
  13   2.0000     -10.286157      -279.9006
  14   2.0000     -10.277015      -279.6518
  15   2.0000     -10.275503      -279.6107
  16   2.0000      -8.084509      -219.9907
  17   2.0000      -8.079663      -219.8588
  18   2.0000      -6.043006      -164.4386
  19   2.0000      -6.039375      -164.3398
  20   2.0000      -6.038101      -164.3051
  21   2.0000      -6.035132      -164.2243
  22   2.0000      -6.034227      -164.1997
  23   2.0000      -6.030482      -164.0977
  24   2.0000      -1.000611       -27.2280
  25   2.0000      -0.979919       -26.6650
  26   2.0000      -0.916949       -24.9515
  27   2.0000      -0.903453       -24.5842
  28   2.0000      -0.864939       -23.5362
  29   2.0000      -0.850390       -23.1403
  30   2.0000      -0.845948       -23.0194
  31   2.0000      -0.806852       -21.9556
  32   2.0000      -0.790157       -21.5013
  33   2.0000      -0.778154       -21.1747
  34   2.0000      -0.705039       -19.1851
  35   2.0000      -0.695366       -18.9219
  36   2.0000      -0.693435       -18.8693
  37   2.0000      -0.653721       -17.7887
  38   2.0000      -0.633190       -17.2300
  39   2.0000      -0.610087       -16.6013
  40   2.0000      -0.597451       -16.2575
  41   2.0000      -0.574698       -15.6383
  42   2.0000      -0.564952       -15.3731
  43   2.0000      -0.554646       -15.0927
  44   2.0000      -0.540353       -14.7037
  45   2.0000      -0.526641       -14.3306
  46   2.0000      -0.515906       -14.0385
  47   2.0000      -0.507863       -13.8196
  48   2.0000      -0.505232       -13.7480
  49   2.0000      -0.492673       -13.4063
  50   2.0000      -0.484611       -13.1869
  51   2.0000      -0.476996       -12.9797
  52   2.0000      -0.471578       -12.8323
  53   2.0000      -0.467866       -12.7313
  54   2.0000      -0.463002       -12.5989
  55   2.0000      -0.449107       -12.2208
  56   2.0000      -0.442144       -12.0313
  57   2.0000      -0.438620       -11.9355
  58   2.0000      -0.427278       -11.6268
  59   2.0000      -0.424171       -11.5423
  60   2.0000      -0.420345       -11.4382
  61   2.0000      -0.417368       -11.3572
  62   2.0000      -0.414301       -11.2737
  63   2.0000      -0.335593        -9.1319
  64   2.0000      -0.328959        -8.9514
  65   2.0000      -0.314950        -8.5702
  66   2.0000      -0.311012        -8.4631
  67   0.0000       0.039414         1.0725
  68   0.0000       0.048557         1.3213
  69   0.0000       0.103951         2.8287
  70   0.0000       0.117975         3.2103
  71   0.0000       0.123694         3.3659

MULLIKEN ATOMIC CHARGES
-----------------------
   0 S :    0.122569
   1 C :   -0.110215
   2 C :   -0.093441
   3 C :   -0.000227
   4 C :   -0.190395
   5 H :    0.054580
   6 C :    0.049669
   7 H :    0.032727
   8 H :    0.023959
   9 C :   -0.052930
  10 H :    0.027395
  11 H :    0.026762
  12 C :   -0.033887
  13 H :    0.030803
  14 H :    0.033653
  15 H :    0.024497
  16 S :    0.121096
  17 C :   -0.110951
  18 C :   -0.024899
  19 C :    0.001606
  20 C :   -0.195207
  21 H :   -0.011605
  22 C :    0.168751
  23 H :   -0.005001
  24 H :    0.025148
  25 C :   -0.183916
  26 H :    0.032605
  27 H :    0.043825
  28 C :   -0.018663
  29 H :    0.028453
  30 H :    0.035743
  31 H :    0.026033
  32 H :    0.043887
  33 H :    0.077575
Sum of atomic charges:    0.0000000

LOEWDIN ATOMIC CHARGES
----------------------
   0 S :    0.398170
   1 C :   -0.191173
   2 C :   -0.062975
   3 C :   -0.067530
   4 C :   -0.202242
   5 H :    0.049535
   6 C :   -0.030717
   7 H :    0.033987
   8 H :    0.030877
   9 C :   -0.041925
  10 H :    0.026808
  11 H :    0.025093
  12 C :   -0.068109
  13 H :    0.022223
  14 H :    0.029601
  15 H :    0.027905
  16 S :    0.409027
  17 C :   -0.198346
  18 C :   -0.064535
  19 C :   -0.048383
  20 C :   -0.199464
  21 H :    0.014798
  22 C :   -0.025526
  23 H :    0.021869
  24 H :    0.029340
  25 C :   -0.047843
  26 H :    0.017543
  27 H :    0.033717
  28 C :   -0.061431
  29 H :    0.023766
  30 H :    0.023756
  31 H :    0.025823
  32 H :    0.023918
  33 H :    0.042444

  Mayer bond orders larger than 0.100000
B(  0-S ,  1-C ) :   1.1340 B(  0-S ,  4-C ) :   1.1517 B(  1-C ,  2-C ) :   1.6282
B(  1-C , 32-H ) :   0.9611 B(  2-C ,  3-C ) :   1.2406 B(  2-C ,  6-C ) :   1.0140
B(  3-C ,  4-C ) :   1.5849 B(  3-C ,  5-H ) :   0.9746 B(  4-C , 20-C ) :   1.0169
B(  6-C ,  7-H ) :   0.9458 B(  6-C ,  8-H ) :   0.9313 B(  6-C ,  9-C ) :   1.0827
B(  9-C , 10-H ) :   0.9516 B(  9-C , 11-H ) :   0.9510 B(  9-C , 12-C ) :   1.0834
B( 12-C , 13-H ) :   0.9714 B( 12-C , 14-H ) :   0.9685 B( 12-C , 15-H ) :   0.9699
B( 16-S , 17-C ) :   1.1631 B( 16-S , 20-C ) :   1.1540 B( 17-C , 18-C ) :   1.5856
B( 17-C , 20-C ) :   0.1051 B( 17-C , 33-H ) :   0.9628 B( 18-C , 19-C ) :   1.2553
B( 18-C , 21-H ) :   0.9994 B( 19-C , 20-C ) :   1.5959 B( 19-C , 22-C ) :   1.0290
B( 22-C , 23-H ) :   0.9304 B( 22-C , 24-H ) :   0.9321 B( 22-C , 25-C ) :   1.0505
B( 25-C , 26-H ) :   0.9533 B( 25-C , 27-H ) :   0.9612 B( 25-C , 28-C ) :   1.0880
B( 28-C , 29-H ) :   0.9734 B( 28-C , 30-H ) :   0.9747 B( 28-C , 31-H ) :   0.9722

Dispersion correction           -0.015173486
FINAL SINGLE POINT ENERGY     -1339.863569992381

DIPOLE MOMENT
-------------
                                X             Y             Z
Electronic contribution:    -25.75344      10.46755     -11.85683
Nuclear contribution   :     26.45804     -10.86221      12.12852
                        -----------------------------------------
Total Dipole Moment    :      0.70460      -0.39466       0.27170
                        -----------------------------------------
Magnitude (a.u.)       :      0.85208
Magnitude (Debye)      :      2.16581

Rotational constants in cm-1:     0.016526     0.009946     0.007188
Rotational constants in MHz :   495.427318   298.186774   215.479225

                             ****ORCA TERMINATED NORMALLY****
TOTAL RUN TIME: 0 days 0 hours 0 minutes 22 seconds 112 msec
