                         Program Version 4.2.1 -  RELEASE  -
|  1> ! wB97X-D3 SP def2-SVP
|  2> %pal
|  3> nprocs 24
|  4> end
|  5>
|  6> * xyz 0 1
|  7> S 	 -99.1387 	 9.23712 	 3.34063
|  8> C 	 -99.2773 	 8.59362 	 1.76262
|  9> C 	 -98.5052 	 7.43392 	 1.61517
| 10> C 	 -97.5293 	 7.31785 	 2.65197
| 11> C 	 -97.7327 	 8.19194 	 3.65356
| 12> H 	 -96.8237 	 6.53297 	 2.77087
| 13> C 	 -98.5092 	 6.52175 	 0.389361
| 14> H 	 -99.564 	 6.41073 	 0.113201
| 15> H 	 -98.1925 	 5.50175 	 0.695146
| 16> C 	 -97.5448 	 6.90535 	 -0.727608
| 17> H 	 -97.6173 	 8.02938 	 -0.813988
| 18> H 	 -96.4754 	 6.67034 	 -0.581227
| 19> C 	 -97.7619 	 6.2205 	 -2.00545
| 20> H 	 -98.7071 	 6.26186 	 -2.34557
| 21> H 	 -97.0071 	 6.65987 	 -2.67194
| 22> H 	 -97.5056 	 5.17882 	 -1.75822
| 23> S 	 -97.7762 	 9.13606 	 6.25636
| 24> C 	 -96.3483 	 9.09928 	 7.23345
| 25> C 	 -95.1957 	 8.74068 	 6.57104
| 26> C 	 -95.5499 	 8.26976 	 5.26252
| 27> C 	 -96.9243 	 8.44055 	 4.86525
| 28> H 	 -94.2647 	 8.67195 	 7.06598
| 29> C 	 -94.428 	 7.69948 	 4.37048
| 30> H 	 -93.4592 	 8.07962 	 4.50519
| 31> H 	 -94.6642 	 8.03484 	 3.34608
| 32> C 	 -94.2294 	 6.12771 	 4.33469
| 33> H 	 -93.3799 	 5.87586 	 3.74758
| 34> H 	 -95.1612 	 5.60668 	 3.90401
| 35> C 	 -94.0497 	 5.52237 	 5.75979
| 36> H 	 -93.1219 	 5.87723 	 6.19154
| 37> H 	 -93.9273 	 4.43302 	 5.78048
| 38> H 	 -94.8645 	 5.71809 	 6.47219
| 39> H 	 -99.8231 	 9.05869 	 0.950908
| 40> H 	 -96.3222 	 9.39962 	 8.25183
| 41> *
| 42>
| 43>                          ****END OF INPUT****

CARTESIAN COORDINATES (ANGSTROEM)
---------------------------------
  S    -99.138700    9.237120    3.340630
  C    -99.277300    8.593620    1.762620
  C    -98.505200    7.433920    1.615170
  C    -97.529300    7.317850    2.651970
  C    -97.732700    8.191940    3.653560
  H    -96.823700    6.532970    2.770870
  C    -98.509200    6.521750    0.389361
  H    -99.564000    6.410730    0.113201
  H    -98.192500    5.501750    0.695146
  C    -97.544800    6.905350   -0.727608
  H    -97.617300    8.029380   -0.813988
  H    -96.475400    6.670340   -0.581227
  C    -97.761900    6.220500   -2.005450
  H    -98.707100    6.261860   -2.345570
  H    -97.007100    6.659870   -2.671940
  H    -97.505600    5.178820   -1.758220
  S    -97.776200    9.136060    6.256360
  C    -96.348300    9.099280    7.233450
  C    -95.195700    8.740680    6.571040
  C    -95.549900    8.269760    5.262520
  C    -96.924300    8.440550    4.865250
  H    -94.264700    8.671950    7.065980
  C    -94.428000    7.699480    4.370480
  H    -93.459200    8.079620    4.505190
  H    -94.664200    8.034840    3.346080
  C    -94.229400    6.127710    4.334690
  H    -93.379900    5.875860    3.747580
  H    -95.161200    5.606680    3.904010
  C    -94.049700    5.522370    5.759790
  H    -93.121900    5.877230    6.191540
  H    -93.927300    4.433020    5.780480
  H    -94.864500    5.718090    6.472190
  H    -99.823100    9.058690    0.950908
  H    -96.322200    9.399620    8.251830

 Total Charge           Charge          ....    0
 Multiplicity           Mult            ....    1
 Number of Electrons    NEL             ....  134
 Basis Dimension        Dim             ....  322

ORBITAL ENERGIES
----------------

  NO   OCC          E(Eh)            E(eV)
   0   2.0000     -88.966974     -2420.9144
   1   2.0000     -88.966152     -2420.8921
   2   2.0000     -10.336886      -281.2810
   3   2.0000     -10.331771      -281.1418
   4   2.0000     -10.314294      -280.6662
   5   2.0000     -10.313642      -280.6485
   6   2.0000     -10.313364      -280.6409
   7   2.0000     -10.302815      -280.3539
   8   2.0000     -10.295825      -280.1636
   9   2.0000     -10.294562      -280.1293
  10   2.0000     -10.293120      -280.0900
  11   2.0000     -10.291221      -280.0384
  12   2.0000     -10.289579      -279.9937
  13   2.0000     -10.285035      -279.8700
  14   2.0000     -10.276110      -279.6272
  15   2.0000     -10.268169      -279.4111
  16   2.0000      -8.081705      -219.9144
  17   2.0000      -8.081390      -219.9058
  18   2.0000      -6.040204      -164.3623
  19   2.0000      -6.039948      -164.3553
  20   2.0000      -6.036216      -164.2538
  21   2.0000      -6.035998      -164.2479
  22   2.0000      -6.032491      -164.1524
  23   2.0000      -6.031896      -164.1362
  24   2.0000      -1.007062       -27.4036
  25   2.0000      -0.984249       -26.7828
  26   2.0000      -0.918913       -25.0049
  27   2.0000      -0.898464       -24.4484
  28   2.0000      -0.872566       -23.7437
  29   2.0000      -0.858331       -23.3564
  30   2.0000      -0.843395       -22.9499
  31   2.0000      -0.819943       -22.3118
  32   2.0000      -0.783153       -21.3107
  33   2.0000      -0.768838       -20.9211
  34   2.0000      -0.705600       -19.2004
  35   2.0000      -0.693138       -18.8613
  36   2.0000      -0.687812       -18.7163
  37   2.0000      -0.666139       -18.1266
  38   2.0000      -0.643904       -17.5215
  39   2.0000      -0.623465       -16.9654
  40   2.0000      -0.593654       -16.1542
  41   2.0000      -0.578540       -15.7429
  42   2.0000      -0.567614       -15.4456
  43   2.0000      -0.550709       -14.9855
  44   2.0000      -0.542742       -14.7688
  45   2.0000      -0.537557       -14.6277
  46   2.0000      -0.518639       -14.1129
  47   2.0000      -0.508616       -13.8402
  48   2.0000      -0.504340       -13.7238
  49   2.0000      -0.494854       -13.4657
  50   2.0000      -0.490773       -13.3546
  51   2.0000      -0.476381       -12.9630
  52   2.0000      -0.473840       -12.8939
  53   2.0000      -0.470138       -12.7931
  54   2.0000      -0.459154       -12.4942
  55   2.0000      -0.452340       -12.3088
  56   2.0000      -0.443358       -12.0644
  57   2.0000      -0.435808       -11.8589
  58   2.0000      -0.431692       -11.7469
  59   2.0000      -0.422809       -11.5052
  60   2.0000      -0.419613       -11.4182
  61   2.0000      -0.411410       -11.1950
  62   2.0000      -0.404823       -11.0158
  63   2.0000      -0.360787        -9.8175
  64   2.0000      -0.336983        -9.1698
  65   2.0000      -0.327380        -8.9085
  66   2.0000      -0.278260        -7.5718
  67   0.0000       0.022504         0.6124
  68   0.0000       0.066759         1.8166
  69   0.0000       0.103648         2.8204
  70   0.0000       0.117845         3.2067
  71   0.0000       0.134439         3.6583

MULLIKEN ATOMIC CHARGES
-----------------------
   0 S :    0.108970
   1 C :   -0.125675
   2 C :   -0.089638
   3 C :    0.004349
   4 C :   -0.076190
   5 H :   -0.015351
   6 C :    0.059088
   7 H :    0.031676
   8 H :    0.018153
   9 C :   -0.109754
  10 H :    0.026770
  11 H :    0.029782
  12 C :    0.020334
  13 H :    0.005616
  14 H :    0.040265
  15 H :    0.019901
  16 S :    0.092430
  17 C :   -0.075266
  18 C :   -0.004700
  19 C :   -0.063839
  20 C :   -0.122657
  21 H :    0.013119
  22 C :    0.056028
  23 H :    0.010161
  24 H :    0.028999
  25 C :   -0.079844
  26 H :    0.031669
  27 H :    0.045065
  28 C :   -0.077131
  29 H :    0.015933
  30 H :    0.029843
  31 H :    0.050394
  32 H :    0.055774
  33 H :    0.045729
Sum of atomic charges:   -0.0000000

LOEWDIN ATOMIC CHARGES
----------------------
   0 S :    0.401671
   1 C :   -0.206889
   2 C :   -0.058069
   3 C :   -0.061444
   4 C :   -0.173788
   5 H :    0.026976
   6 C :   -0.038343
   7 H :    0.032691
   8 H :    0.031921
   9 C :   -0.049904
  10 H :    0.021194
  11 H :    0.029620
  12 C :   -0.050629
  13 H :    0.003189
  14 H :    0.035219
  15 H :    0.028628
  16 S :    0.403311
  17 C :   -0.179705
  18 C :   -0.065724
  19 C :   -0.051997
  20 C :   -0.189888
  21 H :    0.030457
  22 C :   -0.034073
  23 H :    0.021544
  24 H :    0.032831
  25 C :   -0.035108
  26 H :    0.019916
  27 H :    0.025852
  28 C :   -0.075386
  29 H :    0.017950
  30 H :    0.025930
  31 H :    0.029297
  32 H :    0.030504
  33 H :    0.022248

  Mayer bond orders larger than 0.100000
B(  0-S ,  1-C ) :   1.1483 B(  0-S ,  4-C ) :   1.1273 B(  1-C ,  2-C ) :   1.5987
B(  1-C , 32-H ) :   0.9703 B(  2-C ,  3-C ) :   1.2193 B(  2-C ,  6-C ) :   1.0403
B(  3-C ,  4-C ) :   1.6015 B(  3-C ,  5-H ) :   1.0035 B(  4-C , 20-C ) :   1.0543
B(  6-C ,  7-H ) :   0.9447 B(  6-C ,  8-H ) :   0.9307 B(  6-C ,  9-C ) :   1.0575
B(  9-C , 10-H ) :   0.9574 B(  9-C , 11-H ) :   0.9571 B(  9-C , 12-C ) :   1.0787
B( 12-C , 13-H ) :   0.9765 B( 12-C , 14-H ) :   0.9717 B( 12-C , 15-H ) :   0.9711
B( 16-S , 17-C ) :   1.1726 B( 16-S , 20-C ) :   1.1320 B( 17-C , 18-C ) :   1.5959
B( 17-C , 33-H ) :   0.9660 B( 18-C , 19-C ) :   1.2519 B( 18-C , 21-H ) :   0.9974
B( 19-C , 20-C ) :   1.5631 B( 19-C , 22-C ) :   1.0351 B( 22-C , 23-H ) :   0.9457
B( 22-C , 24-H ) :   0.9383 B( 22-C , 25-C ) :   1.0633 B( 25-C , 26-H ) :   0.9574
B( 25-C , 27-H ) :   0.9535 B( 25-C , 28-C ) :   1.0728 B( 28-C , 29-H ) :   0.9754
B( 28-C , 30-H ) :   0.9746 B( 28-C , 31-H ) :   0.9741

Dispersion correction           -0.014236458
FINAL SINGLE POINT ENERGY     -1339.857300242883

DIPOLE MOMENT
-------------
                                X             Y             Z
Electronic contribution:    -15.45727      18.39069      17.84273
Nuclear contribution   :     15.96175     -18.74836     -18.16122
                        -----------------------------------------
Total Dipole Moment    :      0.50448      -0.35768      -0.31848
                        -----------------------------------------
Magnitude (a.u.)       :      0.69561
Magnitude (Debye)      :      1.76809

Rotational constants in cm-1:     0.019624     0.008442     0.006205
Rotational constants in MHz :   588.301809   253.093433   186.021434

                             ****ORCA TERMINATED NORMALLY****
TOTAL RUN TIME: 0 days 0 hours 0 minutes 21 seconds 429 msec
