                         Program Version 4.2.1 -  RELEASE  -
|  1> ! wB97X-D3 SP def2-SVP
|  2> %pal
|  3> nprocs 24
|  4> end
|  5>
|  6> * xyz 0 1
|  7> S 	 -65.7423 	 6.57973 	 -101.602
|  8> C 	 -64.7799 	 7.88032 	 -100.965
|  9> C 	 -65.5191 	 9.065 	 -100.881
| 10> C 	 -66.9086 	 8.8969 	 -101.237
| 11> C 	 -67.1622 	 7.62592 	 -101.693
| 12> H 	 -67.6475 	 9.69461 	 -101.268
| 13> C 	 -64.9533 	 10.335 	 -100.26
| 14> H 	 -63.9459 	 10.4574 	 -100.53
| 15> H 	 -65.1192 	 10.1804 	 -99.2002
| 16> C 	 -65.6819 	 11.6614 	 -100.495
| 17> H 	 -66.7217 	 11.8489 	 -100.133
| 18> H 	 -65.0601 	 12.3657 	 -99.9152
| 19> C 	 -65.5576 	 12.2761 	 -101.918
| 20> H 	 -66.468 	 11.9673 	 -102.54
| 21> H 	 -65.8279 	 13.2837 	 -101.797
| 22> H 	 -64.5197 	 12.3036 	 -102.432
| 23> S 	 -68.3654 	 6.76849 	 -103.956
| 24> C 	 -70.0982 	 6.42069 	 -104.001
| 25> C 	 -70.6074 	 6.68447 	 -102.702
| 26> C 	 -69.6738 	 7.18414 	 -101.725
| 27> C 	 -68.3942 	 7.12034 	 -102.221
| 28> H 	 -71.7026 	 6.66991 	 -102.538
| 29> C 	 -70.0349 	 7.63253 	 -100.309
| 30> H 	 -69.6095 	 8.60201 	 -100.099
| 31> H 	 -69.5057 	 6.98558 	 -99.6242
| 32> C 	 -71.507 	 7.73099 	 -99.9703
| 33> H 	 -71.9786 	 6.79236 	 -100.214
| 34> H 	 -72.1222 	 8.47049 	 -100.574
| 35> C 	 -71.8385 	 8.00499 	 -98.4567
| 36> H 	 -72.8565 	 7.7409 	 -98.2185
| 37> H 	 -71.5852 	 8.9996 	 -98.2455
| 38> H 	 -71.3454 	 7.34592 	 -97.7345
| 39> H 	 -63.7281 	 7.7502 	 -100.793
| 40> H 	 -70.6965 	 6.04339 	 -104.844
| 41> *
| 42>
| 43>                          ****END OF INPUT****

CARTESIAN COORDINATES (ANGSTROEM)
---------------------------------
  S    -65.742300    6.579730  -101.602000
  C    -64.779900    7.880320  -100.965000
  C    -65.519100    9.065000  -100.881000
  C    -66.908600    8.896900  -101.237000
  C    -67.162200    7.625920  -101.693000
  H    -67.647500    9.694610  -101.268000
  C    -64.953300   10.335000  -100.260000
  H    -63.945900   10.457400  -100.530000
  H    -65.119200   10.180400  -99.200200
  C    -65.681900   11.661400  -100.495000
  H    -66.721700   11.848900  -100.133000
  H    -65.060100   12.365700  -99.915200
  C    -65.557600   12.276100  -101.918000
  H    -66.468000   11.967300  -102.540000
  H    -65.827900   13.283700  -101.797000
  H    -64.519700   12.303600  -102.432000
  S    -68.365400    6.768490  -103.956000
  C    -70.098200    6.420690  -104.001000
  C    -70.607400    6.684470  -102.702000
  C    -69.673800    7.184140  -101.725000
  C    -68.394200    7.120340  -102.221000
  H    -71.702600    6.669910  -102.538000
  C    -70.034900    7.632530  -100.309000
  H    -69.609500    8.602010  -100.099000
  H    -69.505700    6.985580  -99.624200
  C    -71.507000    7.730990  -99.970300
  H    -71.978600    6.792360  -100.214000
  H    -72.122200    8.470490  -100.574000
  C    -71.838500    8.004990  -98.456700
  H    -72.856500    7.740900  -98.218500
  H    -71.585200    8.999600  -98.245500
  H    -71.345400    7.345920  -97.734500
  H    -63.728100    7.750200  -100.793000
  H    -70.696500    6.043390  -104.844000

 Total Charge           Charge          ....    0
 Multiplicity           Mult            ....    1
 Number of Electrons    NEL             ....  134
 Basis Dimension        Dim             ....  322

ORBITAL ENERGIES
----------------

  NO   OCC          E(Eh)            E(eV)
   0   2.0000     -88.963636     -2420.8236
   1   2.0000     -88.963158     -2420.8106
   2   2.0000     -10.325025      -280.9582
   3   2.0000     -10.323751      -280.9235
   4   2.0000     -10.320465      -280.8341
   5   2.0000     -10.310948      -280.5751
   6   2.0000     -10.304991      -280.4131
   7   2.0000     -10.302705      -280.3509
   8   2.0000     -10.299026      -280.2507
   9   2.0000     -10.295959      -280.1673
  10   2.0000     -10.294773      -280.1350
  11   2.0000     -10.292525      -280.0738
  12   2.0000     -10.292271      -280.0669
  13   2.0000     -10.289845      -280.0009
  14   2.0000     -10.284341      -279.8511
  15   2.0000     -10.276989      -279.6511
  16   2.0000      -8.078400      -219.8244
  17   2.0000      -8.077204      -219.7919
  18   2.0000      -6.036863      -164.2714
  19   2.0000      -6.035848      -164.2438
  20   2.0000      -6.032861      -164.1625
  21   2.0000      -6.031731      -164.1317
  22   2.0000      -6.029265      -164.0646
  23   2.0000      -6.027922      -164.0281
  24   2.0000      -1.003373       -27.3032
  25   2.0000      -0.976960       -26.5844
  26   2.0000      -0.910275       -24.7698
  27   2.0000      -0.907112       -24.6838
  28   2.0000      -0.868230       -23.6257
  29   2.0000      -0.848287       -23.0831
  30   2.0000      -0.842419       -22.9234
  31   2.0000      -0.812059       -22.0972
  32   2.0000      -0.785764       -21.3817
  33   2.0000      -0.773296       -21.0425
  34   2.0000      -0.708686       -19.2843
  35   2.0000      -0.702072       -19.1044
  36   2.0000      -0.687020       -18.6948
  37   2.0000      -0.649008       -17.6604
  38   2.0000      -0.640717       -17.4348
  39   2.0000      -0.621538       -16.9129
  40   2.0000      -0.597536       -16.2598
  41   2.0000      -0.567463       -15.4414
  42   2.0000      -0.564940       -15.3728
  43   2.0000      -0.552153       -15.0248
  44   2.0000      -0.529036       -14.3958
  45   2.0000      -0.528138       -14.3714
  46   2.0000      -0.521760       -14.1978
  47   2.0000      -0.516566       -14.0565
  48   2.0000      -0.502871       -13.6838
  49   2.0000      -0.496127       -13.5003
  50   2.0000      -0.488131       -13.2827
  51   2.0000      -0.482250       -13.1227
  52   2.0000      -0.470361       -12.7992
  53   2.0000      -0.466718       -12.7000
  54   2.0000      -0.454793       -12.3756
  55   2.0000      -0.444473       -12.0947
  56   2.0000      -0.442303       -12.0357
  57   2.0000      -0.438598       -11.9349
  58   2.0000      -0.431773       -11.7492
  59   2.0000      -0.425147       -11.5688
  60   2.0000      -0.422926       -11.5084
  61   2.0000      -0.414233       -11.2719
  62   2.0000      -0.401054       -10.9132
  63   2.0000      -0.341165        -9.2836
  64   2.0000      -0.327614        -8.9148
  65   2.0000      -0.323780        -8.8105
  66   2.0000      -0.293624        -7.9899
  67   0.0000       0.032347         0.8802
  68   0.0000       0.064845         1.7645
  69   0.0000       0.116875         3.1803
  70   0.0000       0.122888         3.3439
  71   0.0000       0.129126         3.5137

MULLIKEN ATOMIC CHARGES
-----------------------
   0 S :    0.115011
   1 C :   -0.131019
   2 C :   -0.095242
   3 C :    0.036647
   4 C :   -0.173637
   5 H :    0.021866
   6 C :    0.116547
   7 H :    0.018755
   8 H :    0.047189
   9 C :   -0.131961
  10 H :    0.039238
  11 H :    0.027994
  12 C :   -0.070438
  13 H :    0.038572
  14 H :    0.012545
  15 H :    0.057719
  16 S :    0.105909
  17 C :   -0.102754
  18 C :   -0.065336
  19 C :   -0.036134
  20 C :   -0.151391
  21 H :    0.030945
  22 C :    0.125049
  23 H :    0.013087
  24 H :    0.036557
  25 C :   -0.132256
  26 H :    0.024938
  27 H :    0.042378
  28 C :   -0.016657
  29 H :    0.026908
  30 H :    0.027042
  31 H :    0.022585
  32 H :    0.046977
  33 H :    0.072368
Sum of atomic charges:   -0.0000000

LOEWDIN ATOMIC CHARGES
----------------------
   0 S :    0.406096
   1 C :   -0.203814
   2 C :   -0.058795
   3 C :   -0.058323
   4 C :   -0.193866
   5 H :    0.033259
   6 C :   -0.027833
   7 H :    0.026269
   8 H :    0.041907
   9 C :   -0.052687
  10 H :    0.030039
  11 H :    0.029542
  12 C :   -0.085355
  13 H :    0.033090
  14 H :    0.016568
  15 H :    0.039636
  16 S :    0.399073
  17 C :   -0.192844
  18 C :   -0.077667
  19 C :   -0.053293
  20 C :   -0.198998
  21 H :    0.031797
  22 C :   -0.029548
  23 H :    0.029072
  24 H :    0.038917
  25 C :   -0.045977
  26 H :    0.017658
  27 H :    0.031344
  28 C :   -0.058629
  29 H :    0.027679
  30 H :    0.016388
  31 H :    0.026215
  32 H :    0.024059
  33 H :    0.039025

  Mayer bond orders larger than 0.100000
B(  0-S ,  1-C ) :   1.1390 B(  0-S ,  4-C ) :   1.1564 B(  1-C ,  2-C ) :   1.6042
B(  1-C , 32-H ) :   0.9763 B(  2-C ,  3-C ) :   1.2423 B(  2-C ,  6-C ) :   1.0159
B(  3-C ,  4-C ) :   1.5790 B(  3-C ,  5-H ) :   0.9860 B(  4-C , 20-C ) :   1.0235
B(  6-C ,  7-H ) :   0.9394 B(  6-C ,  8-H ) :   0.9340 B(  6-C ,  9-C ) :   1.0850
B(  9-C , 10-H ) :   0.9489 B(  9-C , 11-H ) :   0.9562 B(  9-C , 12-C ) :   1.0784
B( 12-C , 13-H ) :   0.9717 B( 12-C , 14-H ) :   0.9706 B( 12-C , 15-H ) :   0.9719
B( 16-S , 17-C ) :   1.1512 B( 16-S , 20-C ) :   1.1520 B( 17-C , 18-C ) :   1.5905
B( 17-C , 20-C ) :   0.1102 B( 17-C , 33-H ) :   0.9654 B( 18-C , 19-C ) :   1.2569
B( 18-C , 21-H ) :   0.9734 B( 19-C , 20-C ) :   1.5992 B( 19-C , 22-C ) :   1.0311
B( 22-C , 23-H ) :   0.9249 B( 22-C , 24-H ) :   0.9278 B( 22-C , 25-C ) :   1.0758
B( 25-C , 26-H ) :   0.9484 B( 25-C , 27-H ) :   0.9562 B( 25-C , 28-C ) :   1.0815
B( 28-C , 29-H ) :   0.9740 B( 28-C , 30-H ) :   0.9788 B( 28-C , 31-H ) :   0.9737

Dispersion correction           -0.013764932
FINAL SINGLE POINT ENERGY     -1339.864598804599

DIPOLE MOMENT
-------------
                                X             Y             Z
Electronic contribution:      8.91316     -20.35434     -15.91371
Nuclear contribution   :     -9.15932      20.98522      16.41069
                        -----------------------------------------
Total Dipole Moment    :     -0.24616       0.63088       0.49698
                        -----------------------------------------
Magnitude (a.u.)       :      0.84000
Magnitude (Debye)      :      2.13510

Rotational constants in cm-1:     0.015721     0.008789     0.007067
Rotational constants in MHz :   471.301460   263.488809   211.853313

                             ****ORCA TERMINATED NORMALLY****
TOTAL RUN TIME: 0 days 0 hours 0 minutes 21 seconds 116 msec
