                         Program Version 4.2.1 -  RELEASE  -
|  1> ! wB97X-D3 SP def2-SVP
|  2> %pal
|  3> nprocs 24
|  4> end
|  5>
|  6> * xyz 0 1
|  7> S 	 -94.1278 	 53.2736 	 -99.368
|  8> C 	 -93.8899 	 53.6707 	 -97.7056
|  9> C 	 -93.318 	 52.6282 	 -97.0242
| 10> C 	 -93.2517 	 51.4623 	 -97.8721
| 11> C 	 -93.7377 	 51.5857 	 -99.125
| 12> H 	 -92.7333 	 50.5661 	 -97.6087
| 13> C 	 -92.6031 	 52.7043 	 -95.6445
| 14> H 	 -92.6067 	 51.6424 	 -95.1854
| 15> H 	 -93.1739 	 53.3823 	 -94.9203
| 16> C 	 -91.2019 	 53.2753 	 -95.6461
| 17> H 	 -90.5572 	 52.624 	 -96.3881
| 18> H 	 -90.9626 	 54.2582 	 -96.0166
| 19> C 	 -90.6848 	 53.1126 	 -94.216
| 20> H 	 -91.429 	 53.4667 	 -93.5406
| 21> H 	 -90.428 	 52.0523 	 -94.0099
| 22> H 	 -89.8263 	 53.6648 	 -94.0928
| 23> S 	 -93.0004 	 50.7849 	 -101.504
| 24> C 	 -93.2964 	 49.1261 	 -102.068
| 25> C 	 -94.1375 	 48.4948 	 -101.194
| 26> C 	 -94.4625 	 49.3193 	 -100.02
| 27> C 	 -93.9054 	 50.5795 	 -100.094
| 28> H 	 -94.53 	 47.4881 	 -101.435
| 29> C 	 -95.4901 	 48.8287 	 -98.9832
| 30> H 	 -96.3996 	 49.0386 	 -99.5694
| 31> H 	 -95.4306 	 49.5339 	 -98.1597
| 32> C 	 -95.2812 	 47.3811 	 -98.4111
| 33> H 	 -94.2034 	 47.1745 	 -98.4255
| 34> H 	 -95.8828 	 46.8119 	 -99.0584
| 35> C 	 -95.7684 	 47.1502 	 -96.9756
| 36> H 	 -95.1536 	 47.7637 	 -96.3012
| 37> H 	 -95.6687 	 46.1351 	 -96.6216
| 38> H 	 -96.7261 	 47.5193 	 -96.8065
| 39> H 	 -93.9685 	 54.6648 	 -97.2339
| 40> H 	 -93.022 	 48.6747 	 -102.994
| 41> *
| 42>
| 43>                          ****END OF INPUT****

CARTESIAN COORDINATES (ANGSTROEM)
---------------------------------
  S    -94.127800   53.273600  -99.368000
  C    -93.889900   53.670700  -97.705600
  C    -93.318000   52.628200  -97.024200
  C    -93.251700   51.462300  -97.872100
  C    -93.737700   51.585700  -99.125000
  H    -92.733300   50.566100  -97.608700
  C    -92.603100   52.704300  -95.644500
  H    -92.606700   51.642400  -95.185400
  H    -93.173900   53.382300  -94.920300
  C    -91.201900   53.275300  -95.646100
  H    -90.557200   52.624000  -96.388100
  H    -90.962600   54.258200  -96.016600
  C    -90.684800   53.112600  -94.216000
  H    -91.429000   53.466700  -93.540600
  H    -90.428000   52.052300  -94.009900
  H    -89.826300   53.664800  -94.092800
  S    -93.000400   50.784900  -101.504000
  C    -93.296400   49.126100  -102.068000
  C    -94.137500   48.494800  -101.194000
  C    -94.462500   49.319300  -100.020000
  C    -93.905400   50.579500  -100.094000
  H    -94.530000   47.488100  -101.435000
  C    -95.490100   48.828700  -98.983200
  H    -96.399600   49.038600  -99.569400
  H    -95.430600   49.533900  -98.159700
  C    -95.281200   47.381100  -98.411100
  H    -94.203400   47.174500  -98.425500
  H    -95.882800   46.811900  -99.058400
  C    -95.768400   47.150200  -96.975600
  H    -95.153600   47.763700  -96.301200
  H    -95.668700   46.135100  -96.621600
  H    -96.726100   47.519300  -96.806500
  H    -93.968500   54.664800  -97.233900
  H    -93.022000   48.674700  -102.994000

 Total Charge           Charge          ....    0
 Multiplicity           Mult            ....    1
 Number of Electrons    NEL             ....  134
 Basis Dimension        Dim             ....  322

ORBITAL ENERGIES
----------------

  NO   OCC          E(Eh)            E(eV)
   0   2.0000     -88.962452     -2420.7914
   1   2.0000     -88.961249     -2420.7587
   2   2.0000     -10.321243      -280.8553
   3   2.0000     -10.317710      -280.7592
   4   2.0000     -10.316793      -280.7342
   5   2.0000     -10.313462      -280.6436
   6   2.0000     -10.308903      -280.5195
   7   2.0000     -10.306512      -280.4544
   8   2.0000     -10.300308      -280.2856
   9   2.0000     -10.297973      -280.2221
  10   2.0000     -10.292048      -280.0609
  11   2.0000     -10.291965      -280.0586
  12   2.0000     -10.287695      -279.9424
  13   2.0000     -10.286900      -279.9208
  14   2.0000     -10.273241      -279.5491
  15   2.0000     -10.271061      -279.4898
  16   2.0000      -8.077941      -219.8120
  17   2.0000      -8.077088      -219.7887
  18   2.0000      -6.036554      -164.2630
  19   2.0000      -6.035751      -164.2411
  20   2.0000      -6.032374      -164.1492
  21   2.0000      -6.031348      -164.1213
  22   2.0000      -6.028501      -164.0438
  23   2.0000      -6.027684      -164.0216
  24   2.0000      -1.015464       -27.6322
  25   2.0000      -0.987160       -26.8620
  26   2.0000      -0.913088       -24.8464
  27   2.0000      -0.903988       -24.5988
  28   2.0000      -0.880440       -23.9580
  29   2.0000      -0.850670       -23.1479
  30   2.0000      -0.844242       -22.9730
  31   2.0000      -0.819980       -22.3128
  32   2.0000      -0.777927       -21.1685
  33   2.0000      -0.770034       -20.9537
  34   2.0000      -0.709814       -19.3150
  35   2.0000      -0.699907       -19.0454
  36   2.0000      -0.696605       -18.9556
  37   2.0000      -0.659226       -17.9384
  38   2.0000      -0.641502       -17.4561
  39   2.0000      -0.620443       -16.8831
  40   2.0000      -0.587870       -15.9968
  41   2.0000      -0.573142       -15.5960
  42   2.0000      -0.572127       -15.5684
  43   2.0000      -0.558875       -15.2078
  44   2.0000      -0.532251       -14.4833
  45   2.0000      -0.528673       -14.3859
  46   2.0000      -0.519878       -14.1466
  47   2.0000      -0.515320       -14.0226
  48   2.0000      -0.512696       -13.9512
  49   2.0000      -0.493909       -13.4400
  50   2.0000      -0.490469       -13.3463
  51   2.0000      -0.476344       -12.9620
  52   2.0000      -0.468491       -12.7483
  53   2.0000      -0.464402       -12.6370
  54   2.0000      -0.458083       -12.4651
  55   2.0000      -0.455579       -12.3969
  56   2.0000      -0.447754       -12.1840
  57   2.0000      -0.441278       -12.0078
  58   2.0000      -0.437983       -11.9181
  59   2.0000      -0.417283       -11.3549
  60   2.0000      -0.414750       -11.2859
  61   2.0000      -0.412037       -11.2121
  62   2.0000      -0.405926       -11.0458
  63   2.0000      -0.352056        -9.5799
  64   2.0000      -0.327829        -8.9207
  65   2.0000      -0.322990        -8.7890
  66   2.0000      -0.297310        -8.0902
  67   0.0000       0.036877         1.0035
  68   0.0000       0.069931         1.9029
  69   0.0000       0.111653         3.0382
  70   0.0000       0.121856         3.3159
  71   0.0000       0.128273         3.4905

MULLIKEN ATOMIC CHARGES
-----------------------
   0 S :    0.108694
   1 C :   -0.117030
   2 C :   -0.066130
   3 C :    0.031996
   4 C :   -0.151841
   5 H :    0.000797
   6 C :   -0.008186
   7 H :    0.046376
   8 H :    0.036206
   9 C :   -0.099067
  10 H :    0.033100
  11 H :    0.031400
  12 C :    0.003190
  13 H :    0.020446
  14 H :    0.036623
  15 H :    0.011398
  16 S :    0.098040
  17 C :   -0.074747
  18 C :   -0.047487
  19 C :   -0.080631
  20 C :   -0.129802
  21 H :    0.034524
  22 C :    0.049357
  23 H :    0.055541
  24 H :    0.018542
  25 C :   -0.058977
  26 H :    0.043692
  27 H :    0.025314
  28 C :   -0.028039
  29 H :    0.019694
  30 H :    0.037313
  31 H :    0.018211
  32 H :    0.054846
  33 H :    0.046640
Sum of atomic charges:    0.0000000

LOEWDIN ATOMIC CHARGES
----------------------
   0 S :    0.408578
   1 C :   -0.202408
   2 C :   -0.072040
   3 C :   -0.059876
   4 C :   -0.201455
   5 H :    0.026358
   6 C :   -0.039506
   7 H :    0.041311
   8 H :    0.033860
   9 C :   -0.049308
  10 H :    0.031291
  11 H :    0.021576
  12 C :   -0.054167
  13 H :    0.020243
  14 H :    0.031283
  15 H :    0.013848
  16 S :    0.418170
  17 C :   -0.174786
  18 C :   -0.073728
  19 C :   -0.052964
  20 C :   -0.225801
  21 H :    0.037453
  22 C :   -0.032033
  23 H :    0.041844
  24 H :    0.025057
  25 C :   -0.035222
  26 H :    0.030814
  27 H :    0.017718
  28 C :   -0.059649
  29 H :    0.025855
  30 H :    0.027511
  31 H :    0.016305
  32 H :    0.036598
  33 H :    0.027270

  Mayer bond orders larger than 0.100000
B(  0-S ,  1-C ) :   1.1458 B(  0-S ,  4-C ) :   1.1288 B(  1-C ,  2-C ) :   1.6233
B(  1-C , 32-H ) :   0.9644 B(  2-C ,  3-C ) :   1.2385 B(  2-C ,  6-C ) :   1.0106
B(  3-C ,  4-C ) :   1.5973 B(  3-C ,  5-H ) :   1.0026 B(  4-C , 20-C ) :   1.0169
B(  6-C ,  7-H ) :   0.9471 B(  6-C ,  8-H ) :   0.9420 B(  6-C ,  9-C ) :   1.0545
B(  9-C , 10-H ) :   0.9525 B(  9-C , 11-H ) :   0.9607 B(  9-C , 12-C ) :   1.0745
B( 12-C , 13-H ) :   0.9723 B( 12-C , 14-H ) :   0.9753 B( 12-C , 15-H ) :   0.9715
B( 16-S , 17-C ) :   1.1389 B( 16-S , 20-C ) :   1.1427 B( 17-C , 18-C ) :   1.6407
B( 17-C , 33-H ) :   0.9703 B( 18-C , 19-C ) :   1.2028 B( 18-C , 21-H ) :   0.9842
B( 19-C , 20-C ) :   1.6214 B( 19-C , 22-C ) :   1.0310 B( 22-C , 23-H ) :   0.9400
B( 22-C , 24-H ) :   0.9390 B( 22-C , 25-C ) :   1.0335 B( 25-C , 26-H ) :   0.9659
B( 25-C , 27-H ) :   0.9518 B( 25-C , 28-C ) :   1.0988 B( 28-C , 29-H ) :   0.9718
B( 28-C , 30-H ) :   0.9751 B( 28-C , 31-H ) :   0.9734

Dispersion correction           -0.013591275
FINAL SINGLE POINT ENERGY     -1339.858045866896

DIPOLE MOMENT
-------------
                                X             Y             Z
Electronic contribution:     -2.10002      10.37545     -26.15747
Nuclear contribution   :      2.17654     -10.75975      26.65011
                        -----------------------------------------
Total Dipole Moment    :      0.07652      -0.38430       0.49264
                        -----------------------------------------
Magnitude (a.u.)       :      0.62947
Magnitude (Debye)      :      1.59999

Rotational constants in cm-1:     0.017115     0.008250     0.006499
Rotational constants in MHz :   513.092680   247.319446   194.843898

                             ****ORCA TERMINATED NORMALLY****
TOTAL RUN TIME: 0 days 0 hours 0 minutes 21 seconds 55 msec
