                         Program Version 4.2.1 -  RELEASE  -
|  1> ! wB97X-D3 SP def2-SVP
|  2> %pal
|  3> nprocs 24
|  4> end
|  5>
|  6> * xyz 0 1
|  7> S 	 -48.7975 	 -44.042 	 -78.2529
|  8> C 	 -49.2346 	 -42.3815 	 -77.9196
|  9> C 	 -48.261 	 -41.7103 	 -77.2532
| 10> C 	 -47.1417 	 -42.585 	 -76.9972
| 11> C 	 -47.2177 	 -43.7884 	 -77.597
| 12> H 	 -46.1999 	 -42.2758 	 -76.4411
| 13> C 	 -48.3809 	 -40.3052 	 -76.7643
| 14> H 	 -48.2207 	 -40.2027 	 -75.682
| 15> H 	 -49.3938 	 -39.9355 	 -76.7737
| 16> C 	 -47.5372 	 -39.3011 	 -77.6
| 17> H 	 -46.5577 	 -39.5423 	 -77.7452
| 18> H 	 -48.0855 	 -39.3247 	 -78.5748
| 19> C 	 -47.5965 	 -37.8073 	 -77.1394
| 20> H 	 -48.6266 	 -37.556 	 -77.0556
| 21> H 	 -47.1491 	 -37.6625 	 -76.1479
| 22> H 	 -47.2305 	 -37.0493 	 -77.7833
| 23> S 	 -46.2433 	 -45.7766 	 -75.8819
| 24> C 	 -44.602 	 -46.1812 	 -76.1659
| 25> C 	 -44.1511 	 -45.8636 	 -77.4208
| 26> C 	 -45.0637 	 -45.0592 	 -78.1306
| 27> C 	 -46.2201 	 -44.8619 	 -77.4325
| 28> H 	 -43.2685 	 -46.3004 	 -77.8141
| 29> C 	 -44.7448 	 -44.3594 	 -79.438
| 30> H 	 -43.6941 	 -44.1146 	 -79.4146
| 31> H 	 -45.3614 	 -43.4352 	 -79.4342
| 32> C 	 -45.0815 	 -45.2595 	 -80.6805
| 33> H 	 -46.1676 	 -45.528 	 -80.4761
| 34> H 	 -44.4028 	 -46.1529 	 -80.5699
| 35> C 	 -44.8783 	 -44.8002 	 -82.0717
| 36> H 	 -45.3462 	 -43.8292 	 -82.2504
| 37> H 	 -45.329 	 -45.384 	 -82.772
| 38> H 	 -43.8539 	 -44.7864 	 -82.2711
| 39> H 	 -50.1091 	 -41.9276 	 -78.0193
| 40> H 	 -43.9414 	 -46.7848 	 -75.5259
| 41> *
| 42>
| 43>                          ****END OF INPUT****

CARTESIAN COORDINATES (ANGSTROEM)
---------------------------------
  S    -48.797500  -44.042000  -78.252900
  C    -49.234600  -42.381500  -77.919600
  C    -48.261000  -41.710300  -77.253200
  C    -47.141700  -42.585000  -76.997200
  C    -47.217700  -43.788400  -77.597000
  H    -46.199900  -42.275800  -76.441100
  C    -48.380900  -40.305200  -76.764300
  H    -48.220700  -40.202700  -75.682000
  H    -49.393800  -39.935500  -76.773700
  C    -47.537200  -39.301100  -77.600000
  H    -46.557700  -39.542300  -77.745200
  H    -48.085500  -39.324700  -78.574800
  C    -47.596500  -37.807300  -77.139400
  H    -48.626600  -37.556000  -77.055600
  H    -47.149100  -37.662500  -76.147900
  H    -47.230500  -37.049300  -77.783300
  S    -46.243300  -45.776600  -75.881900
  C    -44.602000  -46.181200  -76.165900
  C    -44.151100  -45.863600  -77.420800
  C    -45.063700  -45.059200  -78.130600
  C    -46.220100  -44.861900  -77.432500
  H    -43.268500  -46.300400  -77.814100
  C    -44.744800  -44.359400  -79.438000
  H    -43.694100  -44.114600  -79.414600
  H    -45.361400  -43.435200  -79.434200
  C    -45.081500  -45.259500  -80.680500
  H    -46.167600  -45.528000  -80.476100
  H    -44.402800  -46.152900  -80.569900
  C    -44.878300  -44.800200  -82.071700
  H    -45.346200  -43.829200  -82.250400
  H    -45.329000  -45.384000  -82.772000
  H    -43.853900  -44.786400  -82.271100
  H    -50.109100  -41.927600  -78.019300
  H    -43.941400  -46.784800  -75.525900

 Total Charge           Charge          ....    0
 Multiplicity           Mult            ....    1
 Number of Electrons    NEL             ....  134
 Basis Dimension        Dim             ....  322

ORBITAL ENERGIES
----------------

  NO   OCC          E(Eh)            E(eV)
   0   2.0000     -88.965846     -2420.8837
   1   2.0000     -88.964386     -2420.8440
   2   2.0000     -10.322387      -280.8864
   3   2.0000     -10.321850      -280.8718
   4   2.0000     -10.315971      -280.7118
   5   2.0000     -10.301976      -280.3310
   6   2.0000     -10.298099      -280.2255
   7   2.0000     -10.297527      -280.2100
   8   2.0000     -10.294139      -280.1178
   9   2.0000     -10.293639      -280.1041
  10   2.0000     -10.290912      -280.0299
  11   2.0000     -10.289099      -279.9806
  12   2.0000     -10.285600      -279.8854
  13   2.0000     -10.285280      -279.8767
  14   2.0000     -10.273973      -279.5690
  15   2.0000     -10.261526      -279.2303
  16   2.0000      -8.080635      -219.8852
  17   2.0000      -8.079531      -219.8552
  18   2.0000      -6.039072      -164.3315
  19   2.0000      -6.038087      -164.3047
  20   2.0000      -6.035337      -164.2299
  21   2.0000      -6.034033      -164.1944
  22   2.0000      -6.031251      -164.1187
  23   2.0000      -6.030172      -164.0893
  24   2.0000      -1.010461       -27.4960
  25   2.0000      -0.989659       -26.9300
  26   2.0000      -0.911499       -24.8031
  27   2.0000      -0.906953       -24.6794
  28   2.0000      -0.870228       -23.6801
  29   2.0000      -0.858899       -23.3718
  30   2.0000      -0.846031       -23.0217
  31   2.0000      -0.816960       -22.2306
  32   2.0000      -0.788165       -21.4471
  33   2.0000      -0.777042       -21.1444
  34   2.0000      -0.709015       -19.2933
  35   2.0000      -0.702070       -19.1043
  36   2.0000      -0.687792       -18.7158
  37   2.0000      -0.662661       -18.0319
  38   2.0000      -0.643875       -17.5207
  39   2.0000      -0.617362       -16.7993
  40   2.0000      -0.591367       -16.0919
  41   2.0000      -0.575894       -15.6709
  42   2.0000      -0.568312       -15.4646
  43   2.0000      -0.562456       -15.3052
  44   2.0000      -0.527005       -14.3405
  45   2.0000      -0.522629       -14.2215
  46   2.0000      -0.519720       -14.1423
  47   2.0000      -0.514146       -13.9906
  48   2.0000      -0.505254       -13.7487
  49   2.0000      -0.500459       -13.6182
  50   2.0000      -0.494597       -13.4587
  51   2.0000      -0.487056       -13.2535
  52   2.0000      -0.469605       -12.7786
  53   2.0000      -0.461570       -12.5600
  54   2.0000      -0.459150       -12.4941
  55   2.0000      -0.452676       -12.3179
  56   2.0000      -0.448581       -12.2065
  57   2.0000      -0.433099       -11.7852
  58   2.0000      -0.432387       -11.7658
  59   2.0000      -0.428173       -11.6512
  60   2.0000      -0.418114       -11.3775
  61   2.0000      -0.414287       -11.2733
  62   2.0000      -0.408600       -11.1186
  63   2.0000      -0.337891        -9.1945
  64   2.0000      -0.328091        -8.9278
  65   2.0000      -0.321928        -8.7601
  66   2.0000      -0.313723        -8.5368
  67   0.0000       0.048500         1.3198
  68   0.0000       0.054296         1.4775
  69   0.0000       0.113771         3.0959
  70   0.0000       0.121044         3.2938
  71   0.0000       0.127546         3.4707

MULLIKEN ATOMIC CHARGES
-----------------------
   0 S :    0.108596
   1 C :   -0.032753
   2 C :   -0.090765
   3 C :    0.021550
   4 C :   -0.179735
   5 H :    0.038773
   6 C :    0.065581
   7 H :    0.028933
   8 H :    0.001929
   9 C :   -0.062595
  10 H :    0.019590
  11 H :    0.030431
  12 C :   -0.032682
  13 H :    0.008759
  14 H :    0.030727
  15 H :    0.031282
  16 S :    0.124698
  17 C :   -0.087934
  18 C :   -0.030536
  19 C :   -0.021439
  20 C :   -0.184988
  21 H :    0.004142
  22 C :    0.093170
  23 H :    0.015388
  24 H :    0.039401
  25 C :   -0.141799
  26 H :    0.035681
  27 H :    0.027506
  28 C :    0.063695
  29 H :    0.018817
  30 H :    0.009917
  31 H :    0.014189
  32 H :   -0.024573
  33 H :    0.057045
Sum of atomic charges:    0.0000000

LOEWDIN ATOMIC CHARGES
----------------------
   0 S :    0.407630
   1 C :   -0.170343
   2 C :   -0.059927
   3 C :   -0.059980
   4 C :   -0.210975
   5 H :    0.043488
   6 C :   -0.034161
   7 H :    0.031663
   8 H :    0.026954
   9 C :   -0.027296
  10 H :    0.007356
  11 H :    0.032019
  12 C :   -0.065251
  13 H :    0.018859
  14 H :    0.025200
  15 H :    0.023441
  16 S :    0.400556
  17 C :   -0.187145
  18 C :   -0.074906
  19 C :   -0.045859
  20 C :   -0.192345
  21 H :    0.025919
  22 C :   -0.026872
  23 H :    0.023564
  24 H :    0.034372
  25 C :   -0.044960
  26 H :    0.028972
  27 H :    0.026476
  28 C :   -0.056127
  29 H :    0.028100
  30 H :    0.018753
  31 H :    0.019853
  32 H :   -0.000087
  33 H :    0.033061

  Mayer bond orders larger than 0.100000
B(  0-S ,  1-C ) :   1.1283 B(  0-S ,  4-C ) :   1.1373 B(  1-C ,  2-C ) :   1.6476
B(  1-C , 32-H ) :   0.9743 B(  2-C ,  3-C ) :   1.2138 B(  2-C ,  6-C ) :   1.0379
B(  3-C ,  4-C ) :   1.6229 B(  3-C ,  5-H ) :   0.9856 B(  4-C , 20-C ) :   0.9847
B(  6-C ,  7-H ) :   0.9398 B(  6-C ,  8-H ) :   0.9360 B(  6-C ,  9-C ) :   1.0400
B(  9-C , 10-H ) :   0.9707 B(  9-C , 11-H ) :   0.9556 B(  9-C , 12-C ) :   1.0770
B( 12-C , 13-H ) :   0.9731 B( 12-C , 14-H ) :   0.9760 B( 12-C , 15-H ) :   0.9764
B( 16-S , 17-C ) :   1.1649 B( 16-S , 20-C ) :   1.1227 B( 17-C , 18-C ) :   1.6279
B( 17-C , 33-H ) :   0.9573 B( 18-C , 19-C ) :   1.2360 B( 18-C , 21-H ) :   0.9930
B( 19-C , 20-C ) :   1.6399 B( 19-C , 22-C ) :   1.0356 B( 22-C , 23-H ) :   0.9336
B( 22-C , 24-H ) :   0.9260 B( 22-C , 25-C ) :   1.0571 B( 25-C , 26-H ) :   0.9543
B( 25-C , 27-H ) :   0.9580 B( 25-C , 28-C ) :   1.0981 B( 28-C , 29-H ) :   0.9650
B( 28-C , 30-H ) :   0.9639 B( 28-C , 31-H ) :   0.9687

Dispersion correction           -0.014024729
FINAL SINGLE POINT ENERGY     -1339.855023306789

DIPOLE MOMENT
-------------
                                X             Y             Z
Electronic contribution:     -6.93721     -20.36856      12.85669
Nuclear contribution   :      7.27452      20.79172     -12.93798
                        -----------------------------------------
Total Dipole Moment    :      0.33730       0.42316      -0.08129
                        -----------------------------------------
Magnitude (a.u.)       :      0.54721
Magnitude (Debye)      :      1.39091

Rotational constants in cm-1:     0.017144     0.007989     0.006956
Rotational constants in MHz :   513.978868   239.509698   208.542795

                             ****ORCA TERMINATED NORMALLY****
TOTAL RUN TIME: 0 days 0 hours 0 minutes 21 seconds 199 msec
