                         Program Version 4.2.1 -  RELEASE  -
|  1> ! wB97X-D3 SP def2-SVP
|  2> %pal
|  3> nprocs 24
|  4> end
|  5>
|  6> * xyz 0 1
|  7> S 	 -105.879 	 60.7121 	 -96.2624
|  8> C 	 -107.309 	 60.8101 	 -97.2775
|  9> C 	 -106.981 	 61.2405 	 -98.5479
| 10> C 	 -105.65 	 61.7756 	 -98.5863
| 11> C 	 -104.887 	 61.4449 	 -97.4948
| 12> H 	 -105.244 	 62.3161 	 -99.4365
| 13> C 	 -108.01 	 61.3646 	 -99.6224
| 14> H 	 -108.645 	 60.5087 	 -99.5654
| 15> H 	 -107.483 	 61.4258 	 -100.522
| 16> C 	 -108.945 	 62.6556 	 -99.5588
| 17> H 	 -109.82 	 62.6005 	 -100.298
| 18> H 	 -109.332 	 62.8041 	 -98.5778
| 19> C 	 -108.138 	 63.9573 	 -99.8363
| 20> H 	 -107.333 	 64.1135 	 -99.0309
| 21> H 	 -107.606 	 63.8719 	 -100.752
| 22> H 	 -108.745 	 64.8913 	 -99.957
| 23> S 	 -103.287 	 63.6629 	 -97.8562
| 24> C 	 -101.756 	 63.7733 	 -97.0872
| 25> C 	 -101.39 	 62.5793 	 -96.6542
| 26> C 	 -102.389 	 61.5371 	 -96.7145
| 27> C 	 -103.561 	 61.9905 	 -97.3032
| 28> H 	 -100.348 	 62.4051 	 -96.3339
| 29> C 	 -102.11 	 60.091 	 -96.2737
| 30> H 	 -102.958 	 59.4829 	 -96.4692
| 31> H 	 -102.014 	 60.1029 	 -95.2702
| 32> C 	 -100.879 	 59.4698 	 -96.806
| 33> H 	 -99.9694 	 59.9738 	 -96.4771
| 34> H 	 -100.961 	 59.5262 	 -97.8929
| 35> C 	 -100.718 	 58.0048 	 -96.3409
| 36> H 	 -99.8637 	 57.5808 	 -96.8805
| 37> H 	 -101.666 	 57.5065 	 -96.5475
| 38> H 	 -100.497 	 57.8527 	 -95.2619
| 39> H 	 -108.3 	 60.5747 	 -96.9817
| 40> H 	 -101.107 	 64.6362 	 -97.1213
| 41> *
| 42>
| 43>                          ****END OF INPUT****

CARTESIAN COORDINATES (ANGSTROEM)
---------------------------------
  S    -105.879000   60.712100  -96.262400
  C    -107.309000   60.810100  -97.277500
  C    -106.981000   61.240500  -98.547900
  C    -105.650000   61.775600  -98.586300
  C    -104.887000   61.444900  -97.494800
  H    -105.244000   62.316100  -99.436500
  C    -108.010000   61.364600  -99.622400
  H    -108.645000   60.508700  -99.565400
  H    -107.483000   61.425800  -100.522000
  C    -108.945000   62.655600  -99.558800
  H    -109.820000   62.600500  -100.298000
  H    -109.332000   62.804100  -98.577800
  C    -108.138000   63.957300  -99.836300
  H    -107.333000   64.113500  -99.030900
  H    -107.606000   63.871900  -100.752000
  H    -108.745000   64.891300  -99.957000
  S    -103.287000   63.662900  -97.856200
  C    -101.756000   63.773300  -97.087200
  C    -101.390000   62.579300  -96.654200
  C    -102.389000   61.537100  -96.714500
  C    -103.561000   61.990500  -97.303200
  H    -100.348000   62.405100  -96.333900
  C    -102.110000   60.091000  -96.273700
  H    -102.958000   59.482900  -96.469200
  H    -102.014000   60.102900  -95.270200
  C    -100.879000   59.469800  -96.806000
  H    -99.969400   59.973800  -96.477100
  H    -100.961000   59.526200  -97.892900
  C    -100.718000   58.004800  -96.340900
  H    -99.863700   57.580800  -96.880500
  H    -101.666000   57.506500  -96.547500
  H    -100.497000   57.852700  -95.261900
  H    -108.300000   60.574700  -96.981700
  H    -101.107000   64.636200  -97.121300

 Total Charge           Charge          ....    0
 Multiplicity           Mult            ....    1
 Number of Electrons    NEL             ....  134
 Basis Dimension        Dim             ....  322

ORBITAL ENERGIES
----------------

  NO   OCC          E(Eh)            E(eV)
   0   2.0000     -88.969849     -2420.9927
   1   2.0000     -88.958448     -2420.6824
   2   2.0000     -10.328542      -281.0539
   3   2.0000     -10.327575      -281.0276
   4   2.0000     -10.312948      -280.6296
   5   2.0000     -10.309458      -280.5346
   6   2.0000     -10.303102      -280.3617
   7   2.0000     -10.299991      -280.2770
   8   2.0000     -10.295325      -280.1500
   9   2.0000     -10.293625      -280.1038
  10   2.0000     -10.288871      -279.9744
  11   2.0000     -10.288376      -279.9609
  12   2.0000     -10.281974      -279.7867
  13   2.0000     -10.280983      -279.7598
  14   2.0000     -10.280457      -279.7455
  15   2.0000     -10.275903      -279.6215
  16   2.0000      -8.084168      -219.9814
  17   2.0000      -8.073722      -219.6971
  18   2.0000      -6.042812      -164.4333
  19   2.0000      -6.038703      -164.3215
  20   2.0000      -6.034835      -164.2162
  21   2.0000      -6.032373      -164.1492
  22   2.0000      -6.028277      -164.0378
  23   2.0000      -6.024158      -163.9257
  24   2.0000      -1.009986       -27.4831
  25   2.0000      -0.988690       -26.9036
  26   2.0000      -0.918108       -24.9830
  27   2.0000      -0.909930       -24.7605
  28   2.0000      -0.873312       -23.7640
  29   2.0000      -0.848453       -23.0876
  30   2.0000      -0.842033       -22.9129
  31   2.0000      -0.815595       -22.1935
  32   2.0000      -0.784963       -21.3599
  33   2.0000      -0.772931       -21.0325
  34   2.0000      -0.708231       -19.2720
  35   2.0000      -0.700973       -19.0744
  36   2.0000      -0.698565       -19.0089
  37   2.0000      -0.660077       -17.9616
  38   2.0000      -0.636844       -17.3294
  39   2.0000      -0.613976       -16.7071
  40   2.0000      -0.602459       -16.3938
  41   2.0000      -0.576640       -15.6912
  42   2.0000      -0.574278       -15.6269
  43   2.0000      -0.550346       -14.9757
  44   2.0000      -0.538440       -14.6517
  45   2.0000      -0.528937       -14.3931
  46   2.0000      -0.516476       -14.0540
  47   2.0000      -0.513906       -13.9841
  48   2.0000      -0.510348       -13.8873
  49   2.0000      -0.495578       -13.4854
  50   2.0000      -0.492933       -13.4134
  51   2.0000      -0.473259       -12.8780
  52   2.0000      -0.472147       -12.8478
  53   2.0000      -0.467009       -12.7080
  54   2.0000      -0.464003       -12.6262
  55   2.0000      -0.444877       -12.1057
  56   2.0000      -0.441009       -12.0005
  57   2.0000      -0.437176       -11.8962
  58   2.0000      -0.433641       -11.8000
  59   2.0000      -0.427807       -11.6412
  60   2.0000      -0.422935       -11.5086
  61   2.0000      -0.420235       -11.4352
  62   2.0000      -0.408285       -11.1100
  63   2.0000      -0.357014        -9.7148
  64   2.0000      -0.331387        -9.0175
  65   2.0000      -0.325377        -8.8539
  66   2.0000      -0.288579        -7.8526
  67   0.0000       0.029036         0.7901
  68   0.0000       0.072013         1.9596
  69   0.0000       0.099330         2.7029
  70   0.0000       0.121673         3.3109
  71   0.0000       0.133004         3.6192

MULLIKEN ATOMIC CHARGES
-----------------------
   0 S :    0.119856
   1 C :   -0.119344
   2 C :   -0.093288
   3 C :   -0.038281
   4 C :   -0.086938
   5 H :    0.021324
   6 C :    0.117061
   7 H :    0.025941
   8 H :    0.008836
   9 C :   -0.070562
  10 H :    0.046387
  11 H :    0.025535
  12 C :   -0.103596
  13 H :    0.056022
  14 H :    0.016003
  15 H :    0.045230
  16 S :    0.076811
  17 C :   -0.068325
  18 C :   -0.041397
  19 C :   -0.064940
  20 C :   -0.158255
  21 H :    0.022888
  22 C :    0.170643
  23 H :   -0.001882
  24 H :   -0.007027
  25 C :   -0.107317
  26 H :    0.028878
  27 H :    0.035725
  28 C :   -0.056019
  29 H :    0.039684
  30 H :    0.031309
  31 H :    0.036175
  32 H :    0.037013
  33 H :    0.055848
Sum of atomic charges:   -0.0000000

LOEWDIN ATOMIC CHARGES
----------------------
   0 S :    0.411341
   1 C :   -0.184985
   2 C :   -0.060782
   3 C :   -0.068035
   4 C :   -0.198431
   5 H :    0.028351
   6 C :   -0.021642
   7 H :    0.030672
   8 H :    0.022579
   9 C :   -0.035184
  10 H :    0.031468
  11 H :    0.017174
  12 C :   -0.078960
  13 H :    0.036170
  14 H :    0.012817
  15 H :    0.031172
  16 S :    0.395435
  17 C :   -0.187407
  18 C :   -0.080214
  19 C :   -0.053128
  20 C :   -0.180433
  21 H :    0.033447
  22 C :   -0.023905
  23 H :    0.022124
  24 H :    0.017654
  25 C :   -0.038619
  26 H :    0.021857
  27 H :    0.026654
  28 C :   -0.064197
  29 H :    0.029223
  30 H :    0.024137
  31 H :    0.027733
  32 H :    0.022086
  33 H :    0.033827

  Mayer bond orders larger than 0.100000
B(  0-S ,  1-C ) :   1.1404 B(  0-S ,  4-C ) :   1.1360 B(  1-C ,  2-C ) :   1.5939
B(  1-C , 32-H ) :   0.9735 B(  2-C ,  3-C ) :   1.2339 B(  2-C ,  6-C ) :   1.0412
B(  3-C ,  4-C ) :   1.5476 B(  3-C ,  5-H ) :   0.9923 B(  4-C , 20-C ) :   1.0751
B(  6-C ,  7-H ) :   0.9354 B(  6-C ,  8-H ) :   0.9379 B(  6-C ,  9-C ) :   1.0577
B(  9-C , 10-H ) :   0.9586 B(  9-C , 11-H ) :   0.9599 B(  9-C , 12-C ) :   1.0656
B( 12-C , 13-H ) :   0.9733 B( 12-C , 14-H ) :   0.9773 B( 12-C , 15-H ) :   0.9742
B( 16-S , 17-C ) :   1.1389 B( 16-S , 20-C ) :   1.1197 B( 17-C , 18-C ) :   1.6430
B( 17-C , 33-H ) :   0.9658 B( 18-C , 19-C ) :   1.2185 B( 18-C , 21-H ) :   0.9846
B( 19-C , 20-C ) :   1.6043 B( 19-C , 22-C ) :   1.0388 B( 22-C , 23-H ) :   0.9280
B( 22-C , 24-H ) :   0.9112 B( 22-C , 25-C ) :   1.0800 B( 25-C , 26-H ) :   0.9466
B( 25-C , 27-H ) :   0.9572 B( 25-C , 28-C ) :   1.0880 B( 28-C , 29-H ) :   0.9742
B( 28-C , 30-H ) :   0.9747 B( 28-C , 31-H ) :   0.9743

Dispersion correction           -0.014127580
FINAL SINGLE POINT ENERGY     -1339.873766090910

DIPOLE MOMENT
-------------
                                X             Y             Z
Electronic contribution:      0.69311       6.83788       6.55508
Nuclear contribution   :     -0.63764      -6.95665      -6.70985
                        -----------------------------------------
Total Dipole Moment    :      0.05547      -0.11877      -0.15477
                        -----------------------------------------
Magnitude (a.u.)       :      0.20283
Magnitude (Debye)      :      0.51554

Rotational constants in cm-1:     0.022416     0.007815     0.006353
Rotational constants in MHz :   672.002665   234.298825   190.448031

                             ****ORCA TERMINATED NORMALLY****
TOTAL RUN TIME: 0 days 0 hours 0 minutes 21 seconds 272 msec
