                         Program Version 4.2.1 -  RELEASE  -
|  1> ! wB97X-D3 SP def2-SVP
|  2> %pal
|  3> nprocs 24
|  4> end
|  5>
|  6> * xyz 0 1
|  7> S 	 -31.4294 	 -30.5394 	 -95.2113
|  8> C 	 -33.1385 	 -30.6401 	 -95.4055
|  9> C 	 -33.7924 	 -29.9004 	 -94.4437
| 10> C 	 -32.8511 	 -29.4295 	 -93.4585
| 11> C 	 -31.4915 	 -29.5773 	 -93.8317
| 12> H 	 -33.1823 	 -28.8346 	 -92.6156
| 13> C 	 -35.3555 	 -29.9362 	 -94.2362
| 14> H 	 -35.9798 	 -29.7121 	 -95.0635
| 15> H 	 -35.5934 	 -29.06 	 -93.5726
| 16> C 	 -35.8666 	 -31.1522 	 -93.5598
| 17> H 	 -35.4205 	 -31.1683 	 -92.5466
| 18> H 	 -36.9637 	 -30.9167 	 -93.4494
| 19> C 	 -35.5441 	 -32.4447 	 -94.3134
| 20> H 	 -35.8665 	 -33.2385 	 -93.6341
| 21> H 	 -35.9977 	 -32.5308 	 -95.2716
| 22> H 	 -34.4848 	 -32.6165 	 -94.5219
| 23> S 	 -29.1833 	 -30.4596 	 -92.6213
| 24> C 	 -28.2751 	 -29.3631 	 -91.4992
| 25> C 	 -28.8621 	 -28.0897 	 -91.5117
| 26> C 	 -30.0206 	 -28.0245 	 -92.3654
| 27> C 	 -30.3748 	 -29.2041 	 -92.9936
| 28> H 	 -28.4609 	 -27.3475 	 -90.9732
| 29> C 	 -30.8116 	 -26.7207 	 -92.5142
| 30> H 	 -31.6116 	 -26.8934 	 -93.1412
| 31> H 	 -30.1788 	 -25.9831 	 -92.8943
| 32> C 	 -31.3811 	 -26.2457 	 -91.1988
| 33> H 	 -30.6797 	 -26.161 	 -90.4196
| 34> H 	 -32.0306 	 -27.0158 	 -90.8698
| 35> C 	 -32.2126 	 -24.9992 	 -91.2245
| 36> H 	 -32.5556 	 -24.7131 	 -90.2187
| 37> H 	 -33.0496 	 -25.0702 	 -91.954
| 38> H 	 -31.6725 	 -24.1426 	 -91.5238
| 39> H 	 -33.686 	 -31.1526 	 -96.1441
| 40> H 	 -27.4587 	 -29.6889 	 -90.8724
| 41> *
| 42>
| 43>                          ****END OF INPUT****

CARTESIAN COORDINATES (ANGSTROEM)
---------------------------------
  S    -31.429400  -30.539400  -95.211300
  C    -33.138500  -30.640100  -95.405500
  C    -33.792400  -29.900400  -94.443700
  C    -32.851100  -29.429500  -93.458500
  C    -31.491500  -29.577300  -93.831700
  H    -33.182300  -28.834600  -92.615600
  C    -35.355500  -29.936200  -94.236200
  H    -35.979800  -29.712100  -95.063500
  H    -35.593400  -29.060000  -93.572600
  C    -35.866600  -31.152200  -93.559800
  H    -35.420500  -31.168300  -92.546600
  H    -36.963700  -30.916700  -93.449400
  C    -35.544100  -32.444700  -94.313400
  H    -35.866500  -33.238500  -93.634100
  H    -35.997700  -32.530800  -95.271600
  H    -34.484800  -32.616500  -94.521900
  S    -29.183300  -30.459600  -92.621300
  C    -28.275100  -29.363100  -91.499200
  C    -28.862100  -28.089700  -91.511700
  C    -30.020600  -28.024500  -92.365400
  C    -30.374800  -29.204100  -92.993600
  H    -28.460900  -27.347500  -90.973200
  C    -30.811600  -26.720700  -92.514200
  H    -31.611600  -26.893400  -93.141200
  H    -30.178800  -25.983100  -92.894300
  C    -31.381100  -26.245700  -91.198800
  H    -30.679700  -26.161000  -90.419600
  H    -32.030600  -27.015800  -90.869800
  C    -32.212600  -24.999200  -91.224500
  H    -32.555600  -24.713100  -90.218700
  H    -33.049600  -25.070200  -91.954000
  H    -31.672500  -24.142600  -91.523800
  H    -33.686000  -31.152600  -96.144100
  H    -27.458700  -29.688900  -90.872400

 Total Charge           Charge          ....    0
 Multiplicity           Mult            ....    1
 Number of Electrons    NEL             ....  134
 Basis Dimension        Dim             ....  322

ORBITAL ENERGIES
----------------

  NO   OCC          E(Eh)            E(eV)
   0   2.0000     -88.970935     -2421.0222
   1   2.0000     -88.963276     -2420.8138
   2   2.0000     -10.330157      -281.0979
   3   2.0000     -10.329669      -281.0846
   4   2.0000     -10.326862      -281.0082
   5   2.0000     -10.309888      -280.5463
   6   2.0000     -10.304936      -280.4116
   7   2.0000     -10.303396      -280.3697
   8   2.0000     -10.297902      -280.2202
   9   2.0000     -10.293311      -280.0952
  10   2.0000     -10.292737      -280.0796
  11   2.0000     -10.289010      -279.9782
  12   2.0000     -10.277475      -279.6643
  13   2.0000     -10.274451      -279.5820
  14   2.0000     -10.273418      -279.5539
  15   2.0000     -10.272440      -279.5273
  16   2.0000      -8.086844      -220.0542
  17   2.0000      -8.076994      -219.7862
  18   2.0000      -6.045205      -164.4984
  19   2.0000      -6.040965      -164.3830
  20   2.0000      -6.037898      -164.2996
  21   2.0000      -6.035638      -164.2381
  22   2.0000      -6.031631      -164.1290
  23   2.0000      -6.027663      -164.0211
  24   2.0000      -1.012012       -27.5382
  25   2.0000      -0.981316       -26.7030
  26   2.0000      -0.918209       -24.9857
  27   2.0000      -0.914900       -24.8957
  28   2.0000      -0.872133       -23.7320
  29   2.0000      -0.850624       -23.1467
  30   2.0000      -0.843252       -22.9460
  31   2.0000      -0.813597       -22.1391
  32   2.0000      -0.791799       -21.5459
  33   2.0000      -0.777769       -21.1642
  34   2.0000      -0.709324       -19.3017
  35   2.0000      -0.702317       -19.1110
  36   2.0000      -0.691032       -18.8039
  37   2.0000      -0.669648       -18.2221
  38   2.0000      -0.642757       -17.4903
  39   2.0000      -0.622162       -16.9299
  40   2.0000      -0.597924       -16.2703
  41   2.0000      -0.581557       -15.8250
  42   2.0000      -0.574381       -15.6297
  43   2.0000      -0.547085       -14.8869
  44   2.0000      -0.543781       -14.7970
  45   2.0000      -0.531802       -14.4711
  46   2.0000      -0.521516       -14.1912
  47   2.0000      -0.519033       -14.1236
  48   2.0000      -0.508834       -13.8461
  49   2.0000      -0.506085       -13.7713
  50   2.0000      -0.486283       -13.2324
  51   2.0000      -0.482290       -13.1238
  52   2.0000      -0.472628       -12.8609
  53   2.0000      -0.470673       -12.8077
  54   2.0000      -0.459480       -12.5031
  55   2.0000      -0.450015       -12.2455
  56   2.0000      -0.443057       -12.0562
  57   2.0000      -0.435464       -11.8496
  58   2.0000      -0.434430       -11.8215
  59   2.0000      -0.419589       -11.4176
  60   2.0000      -0.417832       -11.3698
  61   2.0000      -0.415756       -11.3133
  62   2.0000      -0.411065       -11.1857
  63   2.0000      -0.349111        -9.4998
  64   2.0000      -0.334056        -9.0901
  65   2.0000      -0.328934        -8.9507
  66   2.0000      -0.292807        -7.9677
  67   0.0000       0.028358         0.7717
  68   0.0000       0.069209         1.8833
  69   0.0000       0.111558         3.0357
  70   0.0000       0.117259         3.1908
  71   0.0000       0.130987         3.5643

MULLIKEN ATOMIC CHARGES
-----------------------
   0 S :    0.136350
   1 C :   -0.100322
   2 C :   -0.095292
   3 C :    0.015103
   4 C :   -0.152059
   5 H :    0.012526
   6 C :    0.037253
   7 H :    0.019189
   8 H :    0.019326
   9 C :   -0.067281
  10 H :    0.031359
  11 H :    0.041127
  12 C :   -0.048999
  13 H :    0.037543
  14 H :    0.020303
  15 H :    0.045559
  16 S :    0.081294
  17 C :   -0.096431
  18 C :    0.026131
  19 C :   -0.068620
  20 C :   -0.130287
  21 H :   -0.025691
  22 C :    0.170830
  23 H :   -0.004846
  24 H :    0.011797
  25 C :   -0.078672
  26 H :    0.008752
  27 H :    0.011296
  28 C :   -0.022939
  29 H :    0.031332
  30 H :    0.028233
  31 H :    0.009841
  32 H :    0.031938
  33 H :    0.064359
Sum of atomic charges:   -0.0000000

LOEWDIN ATOMIC CHARGES
----------------------
   0 S :    0.457133
   1 C :   -0.201946
   2 C :   -0.062442
   3 C :   -0.062004
   4 C :   -0.225472
   5 H :    0.026214
   6 C :   -0.037062
   7 H :    0.022417
   8 H :    0.033095
   9 C :   -0.044063
  10 H :    0.027657
  11 H :    0.033686
  12 C :   -0.068119
  13 H :    0.031298
  14 H :    0.018371
  15 H :    0.029346
  16 S :    0.366888
  17 C :   -0.155905
  18 C :   -0.050744
  19 C :   -0.046089
  20 C :   -0.189783
  21 H :    0.010612
  22 C :   -0.011947
  23 H :    0.018331
  24 H :    0.023399
  25 C :   -0.039709
  26 H :    0.014936
  27 H :    0.020026
  28 C :   -0.061920
  29 H :    0.030344
  30 H :    0.027114
  31 H :    0.015600
  32 H :    0.020881
  33 H :    0.029859

  Mayer bond orders larger than 0.100000
B(  0-S ,  1-C ) :   1.1609 B(  0-S ,  4-C ) :   1.1781 B(  1-C ,  2-C ) :   1.5744
B(  1-C , 32-H ) :   0.9682 B(  2-C ,  3-C ) :   1.2946 B(  2-C ,  6-C ) :   1.0216
B(  3-C ,  4-C ) :   1.5051 B(  3-C ,  5-H ) :   0.9863 B(  4-C , 20-C ) :   1.0541
B(  6-C ,  7-H ) :   0.9468 B(  6-C ,  8-H ) :   0.9387 B(  6-C ,  9-C ) :   1.0814
B(  9-C , 10-H ) :   0.9515 B(  9-C , 11-H ) :   0.9507 B(  9-C , 12-C ) :   1.0810
B( 12-C , 13-H ) :   0.9717 B( 12-C , 14-H ) :   0.9736 B( 12-C , 15-H ) :   0.9663
B( 16-S , 17-C ) :   1.1442 B( 16-S , 20-C ) :   1.1163 B( 17-C , 18-C ) :   1.6049
B( 17-C , 33-H ) :   0.9705 B( 18-C , 19-C ) :   1.2175 B( 18-C , 21-H ) :   1.0110
B( 19-C , 20-C ) :   1.6204 B( 19-C , 22-C ) :   1.0525 B( 22-C , 23-H ) :   0.9231
B( 22-C , 24-H ) :   0.9259 B( 22-C , 25-C ) :   1.0655 B( 25-C , 26-H ) :   0.9517
B( 25-C , 27-H ) :   0.9488 B( 25-C , 28-C ) :   1.1024 B( 28-C , 29-H ) :   0.9707
B( 28-C , 30-H ) :   0.9713 B( 28-C , 31-H ) :   0.9701

Dispersion correction           -0.014339062
FINAL SINGLE POINT ENERGY     -1339.864534386105

DIPOLE MOMENT
-------------
                                X             Y             Z
Electronic contribution:     21.79290     -10.98368      -7.88514
Nuclear contribution   :    -22.22741      11.33711       8.20521
                        -----------------------------------------
Total Dipole Moment    :     -0.43451       0.35343       0.32007
                        -----------------------------------------
Magnitude (a.u.)       :      0.64510
Magnitude (Debye)      :      1.63972

Rotational constants in cm-1:     0.018488     0.008736     0.006672
Rotational constants in MHz :   554.267800   261.895437   200.030025

                             ****ORCA TERMINATED NORMALLY****
TOTAL RUN TIME: 0 days 0 hours 0 minutes 21 seconds 615 msec
