                         Program Version 4.2.1 -  RELEASE  -
|  1> ! wB97X-D3 SP def2-SVP
|  2> %pal
|  3> nprocs 24
|  4> end
|  5>
|  6> * xyz 0 1
|  7> S 	 -108.253 	 69.6435 	 -6.80345
|  8> C 	 -108.133 	 70.2535 	 -8.42923
|  9> C 	 -108.407 	 69.2394 	 -9.34873
| 10> C 	 -108.857 	 68.0432 	 -8.71083
| 11> C 	 -109.13 	 68.1739 	 -7.36024
| 12> H 	 -109.065 	 67.0572 	 -9.19631
| 13> C 	 -108.224 	 69.4417 	 -10.879
| 14> H 	 -108.094 	 70.5031 	 -10.9996
| 15> H 	 -109.287 	 69.2662 	 -11.2084
| 16> C 	 -107.162 	 68.5666 	 -11.5514
| 17> H 	 -106.227 	 68.6046 	 -10.9213
| 18> H 	 -107.462 	 67.5282 	 -11.6353
| 19> C 	 -106.802 	 69.1353 	 -12.9534
| 20> H 	 -106.107 	 68.4677 	 -13.44
| 21> H 	 -107.648 	 69.3215 	 -13.6356
| 22> H 	 -106.334 	 70.1308 	 -12.8476
| 23> S 	 -108.991 	 67.1808 	 -4.76551
| 24> C 	 -110.141 	 66.0229 	 -4.24548
| 25> C 	 -110.972 	 65.6677 	 -5.23204
| 26> C 	 -110.835 	 66.464 	 -6.4704
| 27> C 	 -109.674 	 67.2022 	 -6.38771
| 28> H 	 -111.773 	 64.9749 	 -4.94413
| 29> C 	 -111.715 	 66.1565 	 -7.66529
| 30> H 	 -112.336 	 65.2765 	 -7.41088
| 31> H 	 -111.148 	 65.902 	 -8.5744
| 32> C 	 -112.78 	 67.2665 	 -7.85242
| 33> H 	 -113.281 	 67.5288 	 -6.87484
| 34> H 	 -113.505 	 66.8907 	 -8.47658
| 35> C 	 -112.206 	 68.5872 	 -8.50231
| 36> H 	 -111.556 	 69.0834 	 -7.85721
| 37> H 	 -113.077 	 69.2395 	 -8.74157
| 38> H 	 -111.739 	 68.4079 	 -9.51625
| 39> H 	 -107.784 	 71.09 	 -8.91678
| 40> H 	 -110.266 	 65.7169 	 -3.23221
| 41> *
| 42>
| 43>                          ****END OF INPUT****

CARTESIAN COORDINATES (ANGSTROEM)
---------------------------------
  S    -108.253000   69.643500   -6.803450
  C    -108.133000   70.253500   -8.429230
  C    -108.407000   69.239400   -9.348730
  C    -108.857000   68.043200   -8.710830
  C    -109.130000   68.173900   -7.360240
  H    -109.065000   67.057200   -9.196310
  C    -108.224000   69.441700  -10.879000
  H    -108.094000   70.503100  -10.999600
  H    -109.287000   69.266200  -11.208400
  C    -107.162000   68.566600  -11.551400
  H    -106.227000   68.604600  -10.921300
  H    -107.462000   67.528200  -11.635300
  C    -106.802000   69.135300  -12.953400
  H    -106.107000   68.467700  -13.440000
  H    -107.648000   69.321500  -13.635600
  H    -106.334000   70.130800  -12.847600
  S    -108.991000   67.180800   -4.765510
  C    -110.141000   66.022900   -4.245480
  C    -110.972000   65.667700   -5.232040
  C    -110.835000   66.464000   -6.470400
  C    -109.674000   67.202200   -6.387710
  H    -111.773000   64.974900   -4.944130
  C    -111.715000   66.156500   -7.665290
  H    -112.336000   65.276500   -7.410880
  H    -111.148000   65.902000   -8.574400
  C    -112.780000   67.266500   -7.852420
  H    -113.281000   67.528800   -6.874840
  H    -113.505000   66.890700   -8.476580
  C    -112.206000   68.587200   -8.502310
  H    -111.556000   69.083400   -7.857210
  H    -113.077000   69.239500   -8.741570
  H    -111.739000   68.407900   -9.516250
  H    -107.784000   71.090000   -8.916780
  H    -110.266000   65.716900   -3.232210

 Total Charge           Charge          ....    0
 Multiplicity           Mult            ....    1
 Number of Electrons    NEL             ....  134
 Basis Dimension        Dim             ....  322

ORBITAL ENERGIES
----------------

  NO   OCC          E(Eh)            E(eV)
   0   2.0000     -88.966282     -2420.8956
   1   2.0000     -88.962981     -2420.8058
   2   2.0000     -10.334443      -281.2145
   3   2.0000     -10.330539      -281.1083
   4   2.0000     -10.308679      -280.5134
   5   2.0000     -10.308552      -280.5099
   6   2.0000     -10.306494      -280.4540
   7   2.0000     -10.299990      -280.2770
   8   2.0000     -10.298341      -280.2321
   9   2.0000     -10.297777      -280.2168
  10   2.0000     -10.297159      -280.2000
  11   2.0000     -10.296494      -280.1818
  12   2.0000     -10.292242      -280.0661
  13   2.0000     -10.285246      -279.8758
  14   2.0000     -10.283049      -279.8160
  15   2.0000     -10.272587      -279.5313
  16   2.0000      -8.079905      -219.8654
  17   2.0000      -8.078714      -219.8330
  18   2.0000      -6.038641      -164.3198
  19   2.0000      -6.037373      -164.2853
  20   2.0000      -6.034790      -164.2150
  21   2.0000      -6.033142      -164.1701
  22   2.0000      -6.030244      -164.0913
  23   2.0000      -6.029196      -164.0628
  24   2.0000      -1.006566       -27.3900
  25   2.0000      -0.983869       -26.7724
  26   2.0000      -0.907518       -24.6948
  27   2.0000      -0.905871       -24.6500
  28   2.0000      -0.869541       -23.6614
  29   2.0000      -0.844824       -22.9888
  30   2.0000      -0.839106       -22.8332
  31   2.0000      -0.819674       -22.3045
  32   2.0000      -0.780926       -21.2501
  33   2.0000      -0.771256       -20.9870
  34   2.0000      -0.712478       -19.3875
  35   2.0000      -0.698761       -19.0142
  36   2.0000      -0.692620       -18.8471
  37   2.0000      -0.657383       -17.8883
  38   2.0000      -0.635521       -17.2934
  39   2.0000      -0.615743       -16.7552
  40   2.0000      -0.596912       -16.2428
  41   2.0000      -0.563394       -15.3307
  42   2.0000      -0.562267       -15.3001
  43   2.0000      -0.550796       -14.9879
  44   2.0000      -0.536404       -14.5963
  45   2.0000      -0.523939       -14.2571
  46   2.0000      -0.516404       -14.0521
  47   2.0000      -0.510023       -13.8784
  48   2.0000      -0.497784       -13.5454
  49   2.0000      -0.496719       -13.5164
  50   2.0000      -0.491456       -13.3732
  51   2.0000      -0.479460       -13.0468
  52   2.0000      -0.474304       -12.9065
  53   2.0000      -0.466470       -12.6933
  54   2.0000      -0.457870       -12.4593
  55   2.0000      -0.447163       -12.1679
  56   2.0000      -0.444862       -12.1053
  57   2.0000      -0.439417       -11.9571
  58   2.0000      -0.429556       -11.6888
  59   2.0000      -0.424989       -11.5645
  60   2.0000      -0.419340       -11.4108
  61   2.0000      -0.412505       -11.2248
  62   2.0000      -0.408195       -11.1076
  63   2.0000      -0.356319        -9.6959
  64   2.0000      -0.330919        -9.0048
  65   2.0000      -0.322611        -8.7787
  66   2.0000      -0.288030        -7.8377
  67   0.0000       0.022723         0.6183
  68   0.0000       0.076125         2.0715
  69   0.0000       0.099045         2.6952
  70   0.0000       0.118771         3.2319
  71   0.0000       0.137743         3.7482

MULLIKEN ATOMIC CHARGES
-----------------------
   0 S :    0.099406
   1 C :   -0.033033
   2 C :   -0.161825
   3 C :    0.019324
   4 C :   -0.153708
   5 H :    0.028449
   6 C :    0.070086
   7 H :    0.004981
   8 H :    0.041500
   9 C :   -0.067273
  10 H :    0.047693
  11 H :    0.037924
  12 C :   -0.063935
  13 H :    0.036427
  14 H :    0.034781
  15 H :    0.033641
  16 S :    0.094387
  17 C :   -0.075334
  18 C :   -0.032929
  19 C :   -0.050619
  20 C :   -0.135582
  21 H :    0.024806
  22 C :    0.044264
  23 H :    0.024165
  24 H :    0.040720
  25 C :   -0.062461
  26 H :    0.040073
  27 H :    0.009355
  28 C :   -0.053118
  29 H :    0.048206
  30 H :    0.030373
  31 H :    0.032065
  32 H :   -0.001758
  33 H :    0.048949
Sum of atomic charges:   -0.0000000

LOEWDIN ATOMIC CHARGES
----------------------
   0 S :    0.383947
   1 C :   -0.198165
   2 C :   -0.063120
   3 C :   -0.067788
   4 C :   -0.172163
   5 H :    0.035543
   6 C :   -0.033084
   7 H :    0.023741
   8 H :    0.038058
   9 C :   -0.040418
  10 H :    0.035682
  11 H :    0.024597
  12 C :   -0.068435
  13 H :    0.024305
  14 H :    0.026237
  15 H :    0.027234
  16 S :    0.402188
  17 C :   -0.189059
  18 C :   -0.076840
  19 C :   -0.051217
  20 C :   -0.192357
  21 H :    0.034236
  22 C :   -0.032572
  23 H :    0.035729
  24 H :    0.031086
  25 C :   -0.030555
  26 H :    0.033376
  27 H :    0.008665
  28 C :   -0.063426
  29 H :    0.016439
  30 H :    0.027282
  31 H :    0.026894
  32 H :    0.015404
  33 H :    0.028558

  Mayer bond orders larger than 0.100000
B(  0-S ,  1-C ) :   1.1235 B(  0-S ,  4-C ) :   1.1229 B(  1-C ,  2-C ) :   1.6247
B(  1-C ,  4-C ) :   0.1013 B(  1-C , 32-H ) :   0.9657 B(  2-C ,  3-C ) :   1.2353
B(  2-C ,  6-C ) :   1.0141 B(  3-C ,  4-C ) :   1.5813 B(  3-C ,  5-H ) :   0.9864
B(  4-C , 20-C ) :   1.0600 B(  6-C ,  7-H ) :   0.9422 B(  6-C ,  8-H ) :   0.9378
B(  6-C ,  9-C ) :   1.0487 B(  9-C , 10-H ) :   0.9584 B(  9-C , 11-H ) :   0.9542
B(  9-C , 12-C ) :   1.0812 B( 12-C , 13-H ) :   0.9763 B( 12-C , 14-H ) :   0.9758
B( 12-C , 15-H ) :   0.9764 B( 16-S , 17-C ) :   1.1389 B( 16-S , 20-C ) :   1.1224
B( 17-C , 18-C ) :   1.6704 B( 17-C , 33-H ) :   0.9656 B( 18-C , 19-C ) :   1.2014
B( 18-C , 21-H ) :   0.9789 B( 19-C , 20-C ) :   1.6237 B( 19-C , 22-C ) :   1.0311
B( 22-C , 23-H ) :   0.9343 B( 22-C , 24-H ) :   0.9487 B( 22-C , 25-C ) :   1.0688
B( 25-C , 26-H ) :   0.9543 B( 25-C , 27-H ) :   0.9563 B( 25-C , 28-C ) :   1.0776
B( 28-C , 29-H ) :   0.9758 B( 28-C , 30-H ) :   0.9728 B( 28-C , 31-H ) :   0.9713

Dispersion correction           -0.015369830
FINAL SINGLE POINT ENERGY     -1339.860548438857

DIPOLE MOMENT
-------------
                                X             Y             Z
Electronic contribution:      6.79400      -0.80080      27.46474
Nuclear contribution   :     -7.14112       0.49808     -28.04251
                        -----------------------------------------
Total Dipole Moment    :     -0.34712      -0.30272      -0.57778
                        -----------------------------------------
Magnitude (a.u.)       :      0.73889
Magnitude (Debye)      :      1.87811

Rotational constants in cm-1:     0.022110     0.008140     0.006918
Rotational constants in MHz :   662.846962   244.019679   207.389464

                             ****ORCA TERMINATED NORMALLY****
TOTAL RUN TIME: 0 days 0 hours 0 minutes 21 seconds 23 msec
