                         Program Version 4.2.1 -  RELEASE  -
|  1> ! wB97X-D3 SP def2-SVP
|  2> %pal
|  3> nprocs 24
|  4> end
|  5>
|  6> * xyz 0 1
|  7> S 	 -69.8078 	 20.1303 	 -71.4766
|  8> C 	 -68.2165 	 20.0603 	 -70.7806
|  9> C 	 -67.2061 	 19.83 	 -71.6969
| 10> C 	 -67.7637 	 19.5595 	 -72.984
| 11> C 	 -69.1634 	 19.6631 	 -73.0872
| 12> H 	 -67.2005 	 19.2843 	 -73.8591
| 13> C 	 -65.7263 	 19.9289 	 -71.3612
| 14> H 	 -65.1505 	 19.7133 	 -72.257
| 15> H 	 -65.4799 	 19.2442 	 -70.6202
| 16> C 	 -65.2347 	 21.261 	 -70.8798
| 17> H 	 -65.1977 	 22.0045 	 -71.6522
| 18> H 	 -65.975 	 21.6787 	 -70.122
| 19> C 	 -63.8617 	 21.2594 	 -70.2579
| 20> H 	 -63.1885 	 21.9485 	 -70.8142
| 21> H 	 -63.7429 	 21.6691 	 -69.2262
| 22> H 	 -63.3295 	 20.2483 	 -70.1553
| 23> S 	 -71.274 	 18.2649 	 -74.28
| 24> C 	 -71.5444 	 18.5965 	 -76.05
| 25> C 	 -70.6448 	 19.4788 	 -76.5631
| 26> C 	 -69.7656 	 20.0736 	 -75.5826
| 27> C 	 -69.9711 	 19.5009 	 -74.3176
| 28> H 	 -70.7274 	 19.7604 	 -77.5948
| 29> C 	 -68.9563 	 21.3073 	 -75.8822
| 30> H 	 -68.6175 	 21.5666 	 -74.935
| 31> H 	 -69.7152 	 22.1838 	 -76.129
| 32> C 	 -67.8121 	 21.1878 	 -76.9207
| 33> H 	 -67.3434 	 22.162 	 -77.1785
| 34> H 	 -68.3435 	 20.8455 	 -77.8454
| 35> C 	 -66.7296 	 20.0928 	 -76.7158
| 36> H 	 -67.1587 	 19.0295 	 -76.4942
| 37> H 	 -66.1937 	 20.4368 	 -75.8079
| 38> H 	 -65.9351 	 20.0106 	 -77.4523
| 39> H 	 -67.9896 	 20.5089 	 -69.7499
| 40> H 	 -72.3982 	 18.2377 	 -76.5425
| 41> *
| 42>
| 43>                          ****END OF INPUT****

CARTESIAN COORDINATES (ANGSTROEM)
---------------------------------
  S    -69.807800   20.130300  -71.476600
  C    -68.216500   20.060300  -70.780600
  C    -67.206100   19.830000  -71.696900
  C    -67.763700   19.559500  -72.984000
  C    -69.163400   19.663100  -73.087200
  H    -67.200500   19.284300  -73.859100
  C    -65.726300   19.928900  -71.361200
  H    -65.150500   19.713300  -72.257000
  H    -65.479900   19.244200  -70.620200
  C    -65.234700   21.261000  -70.879800
  H    -65.197700   22.004500  -71.652200
  H    -65.975000   21.678700  -70.122000
  C    -63.861700   21.259400  -70.257900
  H    -63.188500   21.948500  -70.814200
  H    -63.742900   21.669100  -69.226200
  H    -63.329500   20.248300  -70.155300
  S    -71.274000   18.264900  -74.280000
  C    -71.544400   18.596500  -76.050000
  C    -70.644800   19.478800  -76.563100
  C    -69.765600   20.073600  -75.582600
  C    -69.971100   19.500900  -74.317600
  H    -70.727400   19.760400  -77.594800
  C    -68.956300   21.307300  -75.882200
  H    -68.617500   21.566600  -74.935000
  H    -69.715200   22.183800  -76.129000
  C    -67.812100   21.187800  -76.920700
  H    -67.343400   22.162000  -77.178500
  H    -68.343500   20.845500  -77.845400
  C    -66.729600   20.092800  -76.715800
  H    -67.158700   19.029500  -76.494200
  H    -66.193700   20.436800  -75.807900
  H    -65.935100   20.010600  -77.452300
  H    -67.989600   20.508900  -69.749900
  H    -72.398200   18.237700  -76.542500

 Total Charge           Charge          ....    0
 Multiplicity           Mult            ....    1
 Number of Electrons    NEL             ....  134
 Basis Dimension        Dim             ....  322

ORBITAL ENERGIES
----------------

  NO   OCC          E(Eh)            E(eV)
   0   2.0000     -88.968601     -2420.9587
   1   2.0000     -88.964789     -2420.8550
   2   2.0000     -10.335251      -281.2365
   3   2.0000     -10.334960      -281.2286
   4   2.0000     -10.319071      -280.7962
   5   2.0000     -10.318878      -280.7909
   6   2.0000     -10.309070      -280.5241
   7   2.0000     -10.302342      -280.3410
   8   2.0000     -10.298882      -280.2468
   9   2.0000     -10.298540      -280.2375
  10   2.0000     -10.297643      -280.2131
  11   2.0000     -10.295053      -280.1426
  12   2.0000     -10.290682      -280.0237
  13   2.0000     -10.288027      -279.9514
  14   2.0000     -10.287719      -279.9431
  15   2.0000     -10.287073      -279.9255
  16   2.0000      -8.082587      -219.9384
  17   2.0000      -8.078111      -219.8166
  18   2.0000      -6.041092      -164.3865
  19   2.0000      -6.037194      -164.2804
  20   2.0000      -6.036712      -164.2673
  21   2.0000      -6.033401      -164.1772
  22   2.0000      -6.033042      -164.1674
  23   2.0000      -6.028625      -164.0472
  24   2.0000      -0.996538       -27.1172
  25   2.0000      -0.976568       -26.5738
  26   2.0000      -0.917615       -24.9696
  27   2.0000      -0.903294       -24.5799
  28   2.0000      -0.866535       -23.5796
  29   2.0000      -0.849148       -23.1065
  30   2.0000      -0.843656       -22.9570
  31   2.0000      -0.814375       -22.1603
  32   2.0000      -0.783276       -21.3140
  33   2.0000      -0.770280       -20.9604
  34   2.0000      -0.704162       -19.1612
  35   2.0000      -0.700052       -19.0494
  36   2.0000      -0.694599       -18.9010
  37   2.0000      -0.657199       -17.8833
  38   2.0000      -0.637365       -17.3436
  39   2.0000      -0.617635       -16.8067
  40   2.0000      -0.595442       -16.2028
  41   2.0000      -0.574391       -15.6300
  42   2.0000      -0.561064       -15.2673
  43   2.0000      -0.547733       -14.9046
  44   2.0000      -0.541683       -14.7399
  45   2.0000      -0.523387       -14.2421
  46   2.0000      -0.518418       -14.1069
  47   2.0000      -0.509626       -13.8676
  48   2.0000      -0.501089       -13.6353
  49   2.0000      -0.493017       -13.4157
  50   2.0000      -0.484255       -13.1772
  51   2.0000      -0.477587       -12.9958
  52   2.0000      -0.467416       -12.7190
  53   2.0000      -0.459866       -12.5136
  54   2.0000      -0.458099       -12.4655
  55   2.0000      -0.448687       -12.2094
  56   2.0000      -0.446219       -12.1422
  57   2.0000      -0.442292       -12.0354
  58   2.0000      -0.435778       -11.8581
  59   2.0000      -0.431032       -11.7290
  60   2.0000      -0.424286       -11.5454
  61   2.0000      -0.405511       -11.0345
  62   2.0000      -0.402697       -10.9579
  63   2.0000      -0.344320        -9.3694
  64   2.0000      -0.332416        -9.0455
  65   2.0000      -0.329046        -8.9538
  66   2.0000      -0.294488        -8.0134
  67   0.0000       0.025505         0.6940
  68   0.0000       0.063380         1.7247
  69   0.0000       0.103429         2.8145
  70   0.0000       0.116687         3.1752
  71   0.0000       0.118352         3.2205

MULLIKEN ATOMIC CHARGES
-----------------------
   0 S :    0.113237
   1 C :   -0.150015
   2 C :   -0.101445
   3 C :    0.048416
   4 C :   -0.171199
   5 H :   -0.006006
   6 C :    0.135215
   7 H :    0.018916
   8 H :    0.020249
   9 C :   -0.079341
  10 H :    0.024805
  11 H :    0.029714
  12 C :   -0.098711
  13 H :    0.034020
  14 H :    0.036461
  15 H :    0.041234
  16 S :    0.084948
  17 C :   -0.079013
  18 C :   -0.011585
  19 C :   -0.053869
  20 C :   -0.154397
  21 H :    0.020843
  22 C :    0.072199
  23 H :    0.003858
  24 H :    0.061103
  25 C :   -0.077079
  26 H :    0.043476
  27 H :    0.027635
  28 C :   -0.098039
  29 H :    0.068442
  30 H :    0.030099
  31 H :    0.042344
  32 H :    0.079778
  33 H :    0.043707
Sum of atomic charges:   -0.0000000

LOEWDIN ATOMIC CHARGES
----------------------
   0 S :    0.396388
   1 C :   -0.208229
   2 C :   -0.067119
   3 C :   -0.053186
   4 C :   -0.191706
   5 H :    0.027595
   6 C :   -0.023624
   7 H :    0.032281
   8 H :    0.025752
   9 C :   -0.047755
  10 H :    0.022914
  11 H :    0.028036
  12 C :   -0.084760
  13 H :    0.029332
  14 H :    0.030852
  15 H :    0.032420
  16 S :    0.351749
  17 C :   -0.146848
  18 C :   -0.063807
  19 C :   -0.054776
  20 C :   -0.181174
  21 H :    0.031584
  22 C :   -0.033741
  23 H :    0.016806
  24 H :    0.053425
  25 C :   -0.046691
  26 H :    0.030772
  27 H :    0.023497
  28 C :   -0.080322
  29 H :    0.039765
  30 H :    0.022763
  31 H :    0.027068
  32 H :    0.042217
  33 H :    0.018520

  Mayer bond orders larger than 0.100000
B(  0-S ,  1-C ) :   1.1557 B(  0-S ,  4-C ) :   1.1438 B(  1-C ,  2-C ) :   1.6007
B(  1-C , 32-H ) :   0.9499 B(  2-C ,  3-C ) :   1.2663 B(  2-C ,  6-C ) :   1.0192
B(  3-C ,  4-C ) :   1.5549 B(  3-C ,  5-H ) :   0.9936 B(  4-C , 20-C ) :   1.0311
B(  6-C ,  7-H ) :   0.9362 B(  6-C ,  8-H ) :   0.9333 B(  6-C ,  9-C ) :   1.0738
B(  9-C , 10-H ) :   0.9610 B(  9-C , 11-H ) :   0.9590 B(  9-C , 12-C ) :   1.0534
B( 12-C , 13-H ) :   0.9810 B( 12-C , 14-H ) :   0.9755 B( 12-C , 15-H ) :   0.9767
B( 16-S , 17-C ) :   1.1179 B( 16-S , 20-C ) :   1.1249 B( 17-C , 18-C ) :   1.6656
B( 17-C , 33-H ) :   0.9730 B( 18-C , 19-C ) :   1.1863 B( 18-C , 21-H ) :   0.9866
B( 19-C , 20-C ) :   1.6195 B( 19-C , 22-C ) :   1.0387 B( 22-C , 23-H ) :   0.9296
B( 22-C , 24-H ) :   0.9391 B( 22-C , 25-C ) :   1.0465 B( 25-C , 26-H ) :   0.9578
B( 25-C , 27-H ) :   0.9596 B( 25-C , 28-C ) :   1.0681 B( 28-C , 29-H ) :   0.9669
B( 28-C , 30-H ) :   0.9706 B( 28-C , 31-H ) :   0.9719

Dispersion correction           -0.014646351
FINAL SINGLE POINT ENERGY     -1339.862972384850

DIPOLE MOMENT
-------------
                                X             Y             Z
Electronic contribution:    -28.67362     -10.76528       3.81987
Nuclear contribution   :     29.25891      11.21928      -4.15339
                        -----------------------------------------
Total Dipole Moment    :      0.58529       0.45400      -0.33351
                        -----------------------------------------
Magnitude (a.u.)       :      0.81235
Magnitude (Debye)      :      2.06483

Rotational constants in cm-1:     0.020105     0.008287     0.006340
Rotational constants in MHz :   602.719756   248.430430   190.066575

                             ****ORCA TERMINATED NORMALLY****
TOTAL RUN TIME: 0 days 0 hours 0 minutes 21 seconds 611 msec
