                         Program Version 4.2.1 -  RELEASE  -
|  1> ! wB97X-D3 SP def2-SVP
|  2> %pal
|  3> nprocs 24
|  4> end
|  5>
|  6> * xyz 0 1
|  7> S 	 -71.8499 	 19.2861 	 -71.4055
|  8> C 	 -71.743 	 17.7818 	 -72.4356
|  9> C 	 -71.1091 	 16.735 	 -71.8156
| 10> C 	 -70.7992 	 17.1006 	 -70.4695
| 11> C 	 -71.2919 	 18.3236 	 -70.0236
| 12> H 	 -70.3915 	 16.4559 	 -69.6938
| 13> C 	 -70.7291 	 15.3662 	 -72.2958
| 14> H 	 -70.96 	 14.663 	 -71.5088
| 15> H 	 -69.6377 	 15.3002 	 -72.2879
| 16> C 	 -71.3899 	 14.9387 	 -73.5648
| 17> H 	 -72.4658 	 15.0234 	 -73.5685
| 18> H 	 -71.2956 	 15.7162 	 -74.3776
| 19> C 	 -70.9374 	 13.5747 	 -74.1276
| 20> H 	 -69.8927 	 13.4503 	 -74.3535
| 21> H 	 -71.0759 	 12.7814 	 -73.3017
| 22> H 	 -71.4732 	 13.3733 	 -75.0043
| 23> S 	 -71.2643 	 20.753 	 -68.5604
| 24> C 	 -71.3162 	 20.692 	 -66.8083
| 25> C 	 -71.2219 	 19.4261 	 -66.318
| 26> C 	 -71.1232 	 18.4561 	 -67.3965
| 27> C 	 -71.1685 	 18.9834 	 -68.6885
| 28> H 	 -71.378 	 19.2541 	 -65.2478
| 29> C 	 -71.292 	 16.9758 	 -66.9574
| 30> H 	 -71.8922 	 16.454 	 -67.7305
| 31> H 	 -71.9307 	 17.0226 	 -66.124
| 32> C 	 -69.9924 	 16.2463 	 -66.5942
| 33> H 	 -70.1536 	 15.2007 	 -66.7961
| 34> H 	 -69.792 	 16.3987 	 -65.55
| 35> C 	 -68.7542 	 16.6902 	 -67.3868
| 36> H 	 -68.4988 	 16.1349 	 -68.2889
| 37> H 	 -67.9159 	 16.427 	 -66.8395
| 38> H 	 -68.6179 	 17.6875 	 -67.5092
| 39> H 	 -71.9437 	 17.6979 	 -73.4667
| 40> H 	 -71.3019 	 21.4401 	 -66.0518
| 41> *
| 42>
| 43>                          ****END OF INPUT****

CARTESIAN COORDINATES (ANGSTROEM)
---------------------------------
  S    -71.849900   19.286100  -71.405500
  C    -71.743000   17.781800  -72.435600
  C    -71.109100   16.735000  -71.815600
  C    -70.799200   17.100600  -70.469500
  C    -71.291900   18.323600  -70.023600
  H    -70.391500   16.455900  -69.693800
  C    -70.729100   15.366200  -72.295800
  H    -70.960000   14.663000  -71.508800
  H    -69.637700   15.300200  -72.287900
  C    -71.389900   14.938700  -73.564800
  H    -72.465800   15.023400  -73.568500
  H    -71.295600   15.716200  -74.377600
  C    -70.937400   13.574700  -74.127600
  H    -69.892700   13.450300  -74.353500
  H    -71.075900   12.781400  -73.301700
  H    -71.473200   13.373300  -75.004300
  S    -71.264300   20.753000  -68.560400
  C    -71.316200   20.692000  -66.808300
  C    -71.221900   19.426100  -66.318000
  C    -71.123200   18.456100  -67.396500
  C    -71.168500   18.983400  -68.688500
  H    -71.378000   19.254100  -65.247800
  C    -71.292000   16.975800  -66.957400
  H    -71.892200   16.454000  -67.730500
  H    -71.930700   17.022600  -66.124000
  C    -69.992400   16.246300  -66.594200
  H    -70.153600   15.200700  -66.796100
  H    -69.792000   16.398700  -65.550000
  C    -68.754200   16.690200  -67.386800
  H    -68.498800   16.134900  -68.288900
  H    -67.915900   16.427000  -66.839500
  H    -68.617900   17.687500  -67.509200
  H    -71.943700   17.697900  -73.466700
  H    -71.301900   21.440100  -66.051800

 Total Charge           Charge          ....    0
 Multiplicity           Mult            ....    1
 Number of Electrons    NEL             ....  134
 Basis Dimension        Dim             ....  322

ORBITAL ENERGIES
----------------

  NO   OCC          E(Eh)            E(eV)
   0   2.0000     -88.968713     -2420.9618
   1   2.0000     -88.966894     -2420.9123
   2   2.0000     -10.337629      -281.3012
   3   2.0000     -10.335675      -281.2480
   4   2.0000     -10.315173      -280.6901
   5   2.0000     -10.314507      -280.6720
   6   2.0000     -10.306779      -280.4617
   7   2.0000     -10.302426      -280.3433
   8   2.0000     -10.295763      -280.1620
   9   2.0000     -10.294182      -280.1189
  10   2.0000     -10.292590      -280.0756
  11   2.0000     -10.291775      -280.0534
  12   2.0000     -10.287943      -279.9492
  13   2.0000     -10.285016      -279.8695
  14   2.0000     -10.283298      -279.8228
  15   2.0000     -10.259800      -279.1833
  16   2.0000      -8.082700      -219.9414
  17   2.0000      -8.080060      -219.8696
  18   2.0000      -6.041516      -164.3980
  19   2.0000      -6.038892      -164.3266
  20   2.0000      -6.037363      -164.2850
  21   2.0000      -6.035112      -164.2237
  22   2.0000      -6.033137      -164.1700
  23   2.0000      -6.030250      -164.0914
  24   2.0000      -0.999794       -27.2058
  25   2.0000      -0.979554       -26.6550
  26   2.0000      -0.918200       -24.9855
  27   2.0000      -0.907812       -24.7028
  28   2.0000      -0.868764       -23.6403
  29   2.0000      -0.847608       -23.0646
  30   2.0000      -0.843919       -22.9642
  31   2.0000      -0.816078       -22.2066
  32   2.0000      -0.789049       -21.4711
  33   2.0000      -0.782366       -21.2893
  34   2.0000      -0.722183       -19.6516
  35   2.0000      -0.707983       -19.2652
  36   2.0000      -0.689424       -18.7602
  37   2.0000      -0.659995       -17.9594
  38   2.0000      -0.637208       -17.3393
  39   2.0000      -0.614961       -16.7339
  40   2.0000      -0.587205       -15.9786
  41   2.0000      -0.575373       -15.6567
  42   2.0000      -0.559716       -15.2307
  43   2.0000      -0.558072       -15.1859
  44   2.0000      -0.548039       -14.9129
  45   2.0000      -0.535617       -14.5749
  46   2.0000      -0.521615       -14.1939
  47   2.0000      -0.510453       -13.8901
  48   2.0000      -0.499598       -13.5947
  49   2.0000      -0.495368       -13.4797
  50   2.0000      -0.486811       -13.2468
  51   2.0000      -0.482162       -13.1203
  52   2.0000      -0.474142       -12.9021
  53   2.0000      -0.463611       -12.6155
  54   2.0000      -0.459236       -12.4964
  55   2.0000      -0.456191       -12.4136
  56   2.0000      -0.450407       -12.2562
  57   2.0000      -0.441631       -12.0174
  58   2.0000      -0.432580       -11.7711
  59   2.0000      -0.428934       -11.6719
  60   2.0000      -0.412971       -11.2375
  61   2.0000      -0.410633       -11.1739
  62   2.0000      -0.405636       -11.0379
  63   2.0000      -0.358590        -9.7577
  64   2.0000      -0.333851        -9.0845
  65   2.0000      -0.327145        -8.9021
  66   2.0000      -0.286033        -7.7834
  67   0.0000       0.020446         0.5564
  68   0.0000       0.076381         2.0784
  69   0.0000       0.094902         2.5824
  70   0.0000       0.121777         3.3137
  71   0.0000       0.132769         3.6128

MULLIKEN ATOMIC CHARGES
-----------------------
   0 S :    0.082040
   1 C :   -0.102893
   2 C :   -0.076567
   3 C :    0.002580
   4 C :   -0.113337
   5 H :   -0.005320
   6 C :    0.114816
   7 H :    0.022282
   8 H :    0.038346
   9 C :   -0.112995
  10 H :    0.025161
  11 H :    0.020826
  12 C :   -0.016611
  13 H :    0.027723
  14 H :    0.031762
  15 H :    0.027909
  16 S :    0.094167
  17 C :   -0.052439
  18 C :   -0.056719
  19 C :   -0.104354
  20 C :   -0.105236
  21 H :    0.033720
  22 C :    0.064606
  23 H :    0.034114
  24 H :    0.010699
  25 C :   -0.045132
  26 H :    0.027972
  27 H :    0.027168
  28 C :   -0.001881
  29 H :    0.027334
  30 H :   -0.004455
  31 H :    0.026012
  32 H :    0.018976
  33 H :    0.039723
Sum of atomic charges:   -0.0000000

LOEWDIN ATOMIC CHARGES
----------------------
   0 S :    0.357083
   1 C :   -0.171572
   2 C :   -0.054330
   3 C :   -0.066082
   4 C :   -0.166733
   5 H :    0.026974
   6 C :   -0.031336
   7 H :    0.033589
   8 H :    0.040959
   9 C :   -0.052817
  10 H :    0.026724
  11 H :    0.025975
  12 C :   -0.059741
  13 H :    0.022633
  14 H :    0.032759
  15 H :    0.020977
  16 S :    0.387177
  17 C :   -0.177980
  18 C :   -0.077224
  19 C :   -0.053651
  20 C :   -0.190509
  21 H :    0.037616
  22 C :   -0.030740
  23 H :    0.030980
  24 H :    0.022667
  25 C :   -0.032614
  26 H :    0.027600
  27 H :    0.023642
  28 C :   -0.062825
  29 H :    0.027574
  30 H :    0.022486
  31 H :    0.015347
  32 H :    0.015927
  33 H :    0.029466

  Mayer bond orders larger than 0.100000
B(  0-S ,  1-C ) :   1.0995 B(  0-S ,  4-C ) :   1.1197 B(  1-C ,  2-C ) :   1.6696
B(  1-C , 32-H ) :   0.9642 B(  2-C ,  3-C ) :   1.2049 B(  2-C ,  6-C ) :   1.0099
B(  3-C ,  4-C ) :   1.6109 B(  3-C ,  5-H ) :   0.9815 B(  4-C , 20-C ) :   1.0616
B(  6-C ,  7-H ) :   0.9329 B(  6-C ,  8-H ) :   0.9279 B(  6-C ,  9-C ) :   1.0683
B(  9-C , 10-H ) :   0.9519 B(  9-C , 11-H ) :   0.9440 B(  9-C , 12-C ) :   1.0858
B( 12-C , 13-H ) :   0.9758 B( 12-C , 14-H ) :   0.9732 B( 12-C , 15-H ) :   0.9720
B( 16-S , 17-C ) :   1.1382 B( 16-S , 20-C ) :   1.1094 B( 17-C , 18-C ) :   1.6620
B( 17-C , 33-H ) :   0.9608 B( 18-C , 19-C ) :   1.2223 B( 18-C , 21-H ) :   0.9827
B( 19-C , 20-C ) :   1.6165 B( 19-C , 22-C ) :   1.0381 B( 22-C , 23-H ) :   0.9366
B( 22-C , 24-H ) :   0.9439 B( 22-C , 25-C ) :   1.0616 B( 25-C , 26-H ) :   0.9560
B( 25-C , 27-H ) :   0.9577 B( 25-C , 28-C ) :   1.1020 B( 28-C , 29-H ) :   0.9665
B( 28-C , 30-H ) :   0.9596 B( 28-C , 31-H ) :   0.9636

Dispersion correction           -0.014457279
FINAL SINGLE POINT ENERGY     -1339.848609836201

DIPOLE MOMENT
-------------
                                X             Y             Z
Electronic contribution:     -7.73071      28.58311       2.52882
Nuclear contribution   :      7.94547     -29.35075      -2.20405
                        -----------------------------------------
Total Dipole Moment    :      0.21477      -0.76764       0.32477
                        -----------------------------------------
Magnitude (a.u.)       :      0.86074
Magnitude (Debye)      :      2.18782

Rotational constants in cm-1:     0.021950     0.007976     0.006135
Rotational constants in MHz :   658.042791   239.121988   183.919901

                             ****ORCA TERMINATED NORMALLY****
TOTAL RUN TIME: 0 days 0 hours 0 minutes 23 seconds 124 msec
