                         Program Version 4.2.1 -  RELEASE  -
|  1> ! wB97X-D3 SP def2-SVP
|  2> %pal
|  3> nprocs 24
|  4> end
|  5>
|  6> * xyz 0 1
|  7> S 	 -71.4403 	 8.32868 	 17.4475
|  8> C 	 -70.1887 	 9.29881 	 16.6784
|  9> C 	 -68.9211 	 8.70388 	 16.8308
| 10> C 	 -69.0574 	 7.42343 	 17.4699
| 11> C 	 -70.2858 	 7.05436 	 17.9339
| 12> H 	 -68.2837 	 6.63047 	 17.593
| 13> C 	 -67.5543 	 9.13755 	 16.3377
| 14> H 	 -66.8043 	 8.46882 	 16.8151
| 15> H 	 -67.412 	 10.1506 	 16.7714
| 16> C 	 -67.3579 	 8.99051 	 14.7983
| 17> H 	 -67.5973 	 7.98153 	 14.4175
| 18> H 	 -67.8641 	 9.80737 	 14.2747
| 19> C 	 -65.8993 	 9.07381 	 14.4496
| 20> H 	 -65.4193 	 9.84873 	 15.0768
| 21> H 	 -65.4177 	 8.12081 	 14.5902
| 22> H 	 -65.7844 	 9.40511 	 13.3968
| 23> S 	 -72.3842 	 5.76669 	 18.9962
| 24> C 	 -72.2415 	 4.05388 	 19.2754
| 25> C 	 -71.0898 	 3.53924 	 18.7481
| 26> C 	 -70.1512 	 4.54825 	 18.3246
| 27> C 	 -70.757 	 5.75289 	 18.3803
| 28> H 	 -70.8371 	 2.4753 	 18.7889
| 29> C 	 -68.7518 	 4.10514 	 17.7637
| 30> H 	 -68.4021 	 4.73575 	 16.916
| 31> H 	 -68.8983 	 3.11101 	 17.2827
| 32> C 	 -67.4952 	 4.07529 	 18.7738
| 33> H 	 -67.6391 	 3.20849 	 19.412
| 34> H 	 -67.6136 	 4.93068 	 19.3596
| 35> C 	 -66.0551 	 3.90395 	 18.1607
| 36> H 	 -65.3237 	 3.79047 	 18.926
| 37> H 	 -65.7274 	 4.66871 	 17.504
| 38> H 	 -66.044 	 2.97981 	 17.6421
| 39> H 	 -70.5002 	 10.1724 	 16.1221
| 40> H 	 -73.1586 	 3.55638 	 19.5897
| 41> *
| 42>
| 43>                          ****END OF INPUT****

CARTESIAN COORDINATES (ANGSTROEM)
---------------------------------
  S    -71.440300    8.328680   17.447500
  C    -70.188700    9.298810   16.678400
  C    -68.921100    8.703880   16.830800
  C    -69.057400    7.423430   17.469900
  C    -70.285800    7.054360   17.933900
  H    -68.283700    6.630470   17.593000
  C    -67.554300    9.137550   16.337700
  H    -66.804300    8.468820   16.815100
  H    -67.412000   10.150600   16.771400
  C    -67.357900    8.990510   14.798300
  H    -67.597300    7.981530   14.417500
  H    -67.864100    9.807370   14.274700
  C    -65.899300    9.073810   14.449600
  H    -65.419300    9.848730   15.076800
  H    -65.417700    8.120810   14.590200
  H    -65.784400    9.405110   13.396800
  S    -72.384200    5.766690   18.996200
  C    -72.241500    4.053880   19.275400
  C    -71.089800    3.539240   18.748100
  C    -70.151200    4.548250   18.324600
  C    -70.757000    5.752890   18.380300
  H    -70.837100    2.475300   18.788900
  C    -68.751800    4.105140   17.763700
  H    -68.402100    4.735750   16.916000
  H    -68.898300    3.111010   17.282700
  C    -67.495200    4.075290   18.773800
  H    -67.639100    3.208490   19.412000
  H    -67.613600    4.930680   19.359600
  C    -66.055100    3.903950   18.160700
  H    -65.323700    3.790470   18.926000
  H    -65.727400    4.668710   17.504000
  H    -66.044000    2.979810   17.642100
  H    -70.500200   10.172400   16.122100
  H    -73.158600    3.556380   19.589700

 Total Charge           Charge          ....    0
 Multiplicity           Mult            ....    1
 Number of Electrons    NEL             ....  134
 Basis Dimension        Dim             ....  322

ORBITAL ENERGIES
----------------

  NO   OCC          E(Eh)            E(eV)
   0   2.0000     -88.964576     -2420.8492
   1   2.0000     -88.960366     -2420.7346
   2   2.0000     -10.326140      -280.9885
   3   2.0000     -10.324864      -280.9538
   4   2.0000     -10.318904      -280.7917
   5   2.0000     -10.316361      -280.7225
   6   2.0000     -10.309458      -280.5346
   7   2.0000     -10.306642      -280.4580
   8   2.0000     -10.306095      -280.4431
   9   2.0000     -10.299600      -280.2664
  10   2.0000     -10.297192      -280.2008
  11   2.0000     -10.292623      -280.0765
  12   2.0000     -10.291157      -280.0366
  13   2.0000     -10.288829      -279.9733
  14   2.0000     -10.278675      -279.6970
  15   2.0000     -10.276912      -279.6490
  16   2.0000      -8.080380      -219.8783
  17   2.0000      -8.074708      -219.7240
  18   2.0000      -6.038829      -164.3249
  19   2.0000      -6.034997      -164.2206
  20   2.0000      -6.033377      -164.1765
  21   2.0000      -6.030878      -164.1085
  22   2.0000      -6.029263      -164.0646
  23   2.0000      -6.025343      -163.9579
  24   2.0000      -1.010726       -27.5032
  25   2.0000      -0.980649       -26.6848
  26   2.0000      -0.912078       -24.8189
  27   2.0000      -0.898457       -24.4483
  28   2.0000      -0.871003       -23.7012
  29   2.0000      -0.857637       -23.3375
  30   2.0000      -0.844871       -22.9901
  31   2.0000      -0.812098       -22.0983
  32   2.0000      -0.787354       -21.4250
  33   2.0000      -0.768369       -20.9084
  34   2.0000      -0.710288       -19.3279
  35   2.0000      -0.697466       -18.9790
  36   2.0000      -0.689345       -18.7580
  37   2.0000      -0.671030       -18.2597
  38   2.0000      -0.639762       -17.4088
  39   2.0000      -0.615865       -16.7585
  40   2.0000      -0.598347       -16.2818
  41   2.0000      -0.574957       -15.6454
  42   2.0000      -0.564096       -15.3498
  43   2.0000      -0.555767       -15.1232
  44   2.0000      -0.528127       -14.3711
  45   2.0000      -0.522898       -14.2288
  46   2.0000      -0.518720       -14.1151
  47   2.0000      -0.514394       -13.9974
  48   2.0000      -0.498773       -13.5723
  49   2.0000      -0.494508       -13.4562
  50   2.0000      -0.492970       -13.4144
  51   2.0000      -0.485171       -13.2022
  52   2.0000      -0.472993       -12.8708
  53   2.0000      -0.465844       -12.6763
  54   2.0000      -0.458890       -12.4870
  55   2.0000      -0.455432       -12.3929
  56   2.0000      -0.441033       -12.0011
  57   2.0000      -0.435556       -11.8521
  58   2.0000      -0.433696       -11.8015
  59   2.0000      -0.428705       -11.6657
  60   2.0000      -0.423688       -11.5291
  61   2.0000      -0.416192       -11.3252
  62   2.0000      -0.409503       -11.1431
  63   2.0000      -0.362527        -9.8649
  64   2.0000      -0.337353        -9.1798
  65   2.0000      -0.325238        -8.8502
  66   2.0000      -0.282727        -7.6934
  67   0.0000       0.023431         0.6376
  68   0.0000       0.075611         2.0575
  69   0.0000       0.097842         2.6624
  70   0.0000       0.116493         3.1699
  71   0.0000       0.126254         3.4355

MULLIKEN ATOMIC CHARGES
-----------------------
   0 S :    0.065064
   1 C :   -0.136676
   2 C :   -0.049554
   3 C :   -0.054029
   4 C :   -0.073353
   5 H :    0.008606
   6 C :    0.040449
   7 H :    0.024473
   8 H :    0.047689
   9 C :   -0.059029
  10 H :    0.037866
  11 H :    0.035798
  12 C :   -0.065792
  13 H :    0.028347
  14 H :    0.035099
  15 H :    0.036740
  16 S :    0.095222
  17 C :   -0.090969
  18 C :   -0.017902
  19 C :   -0.066185
  20 C :   -0.106793
  21 H :    0.024622
  22 C :   -0.009005
  23 H :    0.032641
  24 H :    0.031150
  25 C :   -0.053551
  26 H :    0.028008
  27 H :    0.027600
  28 C :   -0.016054
  29 H :    0.031282
  30 H :    0.026197
  31 H :    0.022151
  32 H :    0.056070
  33 H :    0.063819
Sum of atomic charges:   -0.0000000

LOEWDIN ATOMIC CHARGES
----------------------
   0 S :    0.370583
   1 C :   -0.188196
   2 C :   -0.063093
   3 C :   -0.076694
   4 C :   -0.180014
   5 H :    0.034041
   6 C :   -0.035363
   7 H :    0.032525
   8 H :    0.039428
   9 C :   -0.040815
  10 H :    0.032083
  11 H :    0.025104
  12 C :   -0.068806
  13 H :    0.023757
  14 H :    0.020823
  15 H :    0.029994
  16 S :    0.404278
  17 C :   -0.184339
  18 C :   -0.064126
  19 C :   -0.062998
  20 C :   -0.184019
  21 H :    0.033952
  22 C :   -0.035560
  23 H :    0.028051
  24 H :    0.032280
  25 C :   -0.031096
  26 H :    0.025346
  27 H :    0.014113
  28 C :   -0.056192
  29 H :    0.028071
  30 H :    0.018680
  31 H :    0.023637
  32 H :    0.026751
  33 H :    0.027814

  Mayer bond orders larger than 0.100000
B(  0-S ,  1-C ) :   1.1462 B(  0-S ,  4-C ) :   1.1168 B(  1-C ,  2-C ) :   1.5802
B(  1-C , 32-H ) :   0.9775 B(  2-C ,  3-C ) :   1.2386 B(  2-C ,  6-C ) :   1.0195
B(  3-C ,  4-C ) :   1.6282 B(  3-C ,  5-H ) :   0.9750 B(  4-C , 20-C ) :   1.0546
B(  6-C ,  7-H ) :   0.9474 B(  6-C ,  8-H ) :   0.9316 B(  6-C ,  9-C ) :   1.0649
B(  9-C , 10-H ) :   0.9609 B(  9-C , 11-H ) :   0.9565 B(  9-C , 12-C ) :   1.0825
B( 12-C , 13-H ) :   0.9717 B( 12-C , 14-H ) :   0.9793 B( 12-C , 15-H ) :   0.9733
B( 16-S , 17-C ) :   1.1391 B( 16-S , 20-C ) :   1.1350 B( 17-C , 18-C ) :   1.6284
B( 17-C , 33-H ) :   0.9690 B( 18-C , 19-C ) :   1.2213 B( 18-C , 21-H ) :   0.9838
B( 19-C , 20-C ) :   1.6502 B( 19-C , 22-C ) :   1.0213 B( 22-C , 23-H ) :   0.9465
B( 22-C , 24-H ) :   0.9399 B( 22-C , 25-C ) :   1.0380 B( 25-C , 26-H ) :   0.9571
B( 25-C , 27-H ) :   0.9619 B( 25-C , 28-C ) :   1.0773 B( 28-C , 29-H ) :   0.9733
B( 28-C , 30-H ) :   0.9776 B( 28-C , 31-H ) :   0.9747

Dispersion correction           -0.013703202
FINAL SINGLE POINT ENERGY     -1339.870470870711

DIPOLE MOMENT
-------------
                                X             Y             Z
Electronic contribution:    -32.14706       3.53947      11.09016
Nuclear contribution   :     32.81917      -3.88529     -11.44298
                        -----------------------------------------
Total Dipole Moment    :      0.67211      -0.34583      -0.35281
                        -----------------------------------------
Magnitude (a.u.)       :      0.83415
Magnitude (Debye)      :      2.12024

Rotational constants in cm-1:     0.016719     0.009479     0.006316
Rotational constants in MHz :   501.235358   284.178538   189.351384

                             ****ORCA TERMINATED NORMALLY****
TOTAL RUN TIME: 0 days 0 hours 0 minutes 20 seconds 294 msec
