                         Program Version 4.2.1 -  RELEASE  -
|  1> ! wB97X-D3 SP def2-SVP
|  2> %pal
|  3> nprocs 24
|  4> end
|  5>
|  6> * xyz 0 1
|  7> S 	 -73.5786 	 -44.341 	 -91.7061
|  8> C 	 -73.3931 	 -42.6188 	 -91.6932
|  9> C 	 -73.4047 	 -42.0151 	 -92.9794
| 10> C 	 -73.438 	 -42.9909 	 -94.0212
| 11> C 	 -73.651 	 -44.2994 	 -93.5925
| 12> H 	 -73.5082 	 -42.7064 	 -94.9793
| 13> C 	 -73.2217 	 -40.5282 	 -93.3108
| 14> H 	 -73.9452 	 -40.0629 	 -92.6828
| 15> H 	 -73.4454 	 -40.3193 	 -94.366
| 16> C 	 -71.8753 	 -39.9907 	 -92.9963
| 17> H 	 -71.9395 	 -38.9073 	 -93.076
| 18> H 	 -71.7349 	 -40.1825 	 -91.9415
| 19> C 	 -70.7492 	 -40.5928 	 -93.8315
| 20> H 	 -69.8061 	 -40.1137 	 -93.6263
| 21> H 	 -70.7096 	 -41.5767 	 -93.4836
| 22> H 	 -70.8974 	 -40.5362 	 -94.8859
| 23> S 	 -72.9694 	 -46.8955 	 -93.9359
| 24> C 	 -73.1322 	 -47.6363 	 -95.554
| 25> C 	 -73.8667 	 -46.8234 	 -96.3771
| 26> C 	 -74.1166 	 -45.5466 	 -95.8149
| 27> C 	 -73.6803 	 -45.4446 	 -94.5038
| 28> H 	 -74.0919 	 -47.2855 	 -97.2763
| 29> C 	 -74.9053 	 -44.5312 	 -96.5789
| 30> H 	 -75.2314 	 -44.8524 	 -97.5364
| 31> H 	 -74.2921 	 -43.6456 	 -96.6956
| 32> C 	 -76.2594 	 -44.1921 	 -95.8281
| 33> H 	 -76.8067 	 -43.409 	 -96.3859
| 34> H 	 -76.102 	 -43.7838 	 -94.8429
| 35> C 	 -77.1852 	 -45.5161 	 -95.8018
| 36> H 	 -76.7718 	 -46.4022 	 -95.2616
| 37> H 	 -77.3433 	 -45.8669 	 -96.8003
| 38> H 	 -78.1994 	 -45.2855 	 -95.3632
| 39> H 	 -73.3154 	 -42.0228 	 -90.7821
| 40> H 	 -72.7941 	 -48.545 	 -95.9325
| 41> *
| 42>
| 43>                          ****END OF INPUT****

CARTESIAN COORDINATES (ANGSTROEM)
---------------------------------
  S    -73.578600  -44.341000  -91.706100
  C    -73.393100  -42.618800  -91.693200
  C    -73.404700  -42.015100  -92.979400
  C    -73.438000  -42.990900  -94.021200
  C    -73.651000  -44.299400  -93.592500
  H    -73.508200  -42.706400  -94.979300
  C    -73.221700  -40.528200  -93.310800
  H    -73.945200  -40.062900  -92.682800
  H    -73.445400  -40.319300  -94.366000
  C    -71.875300  -39.990700  -92.996300
  H    -71.939500  -38.907300  -93.076000
  H    -71.734900  -40.182500  -91.941500
  C    -70.749200  -40.592800  -93.831500
  H    -69.806100  -40.113700  -93.626300
  H    -70.709600  -41.576700  -93.483600
  H    -70.897400  -40.536200  -94.885900
  S    -72.969400  -46.895500  -93.935900
  C    -73.132200  -47.636300  -95.554000
  C    -73.866700  -46.823400  -96.377100
  C    -74.116600  -45.546600  -95.814900
  C    -73.680300  -45.444600  -94.503800
  H    -74.091900  -47.285500  -97.276300
  C    -74.905300  -44.531200  -96.578900
  H    -75.231400  -44.852400  -97.536400
  H    -74.292100  -43.645600  -96.695600
  C    -76.259400  -44.192100  -95.828100
  H    -76.806700  -43.409000  -96.385900
  H    -76.102000  -43.783800  -94.842900
  C    -77.185200  -45.516100  -95.801800
  H    -76.771800  -46.402200  -95.261600
  H    -77.343300  -45.866900  -96.800300
  H    -78.199400  -45.285500  -95.363200
  H    -73.315400  -42.022800  -90.782100
  H    -72.794100  -48.545000  -95.932500

 Total Charge           Charge          ....    0
 Multiplicity           Mult            ....    1
 Number of Electrons    NEL             ....  134
 Basis Dimension        Dim             ....  322

ORBITAL ENERGIES
----------------

  NO   OCC          E(Eh)            E(eV)
   0   2.0000     -88.974294     -2421.1136
   1   2.0000     -88.966514     -2420.9019
   2   2.0000     -10.342075      -281.4222
   3   2.0000     -10.327244      -281.0186
   4   2.0000     -10.319878      -280.8181
   5   2.0000     -10.311310      -280.5850
   6   2.0000     -10.303541      -280.3736
   7   2.0000     -10.301519      -280.3186
   8   2.0000     -10.290890      -280.0294
   9   2.0000     -10.290256      -280.0121
  10   2.0000     -10.288638      -279.9681
  11   2.0000     -10.287952      -279.9494
  12   2.0000     -10.286907      -279.9210
  13   2.0000     -10.280821      -279.7554
  14   2.0000     -10.279360      -279.7156
  15   2.0000     -10.265881      -279.3488
  16   2.0000      -8.086818      -220.0535
  17   2.0000      -8.081311      -219.9037
  18   2.0000      -6.045591      -164.5089
  19   2.0000      -6.041749      -164.4043
  20   2.0000      -6.039886      -164.3536
  21   2.0000      -6.037335      -164.2842
  22   2.0000      -6.035854      -164.2439
  23   2.0000      -6.031958      -164.1379
  24   2.0000      -1.005501       -27.3611
  25   2.0000      -0.976749       -26.5787
  26   2.0000      -0.917649       -24.9705
  27   2.0000      -0.902196       -24.5500
  28   2.0000      -0.874088       -23.7851
  29   2.0000      -0.851381       -23.1673
  30   2.0000      -0.836252       -22.7556
  31   2.0000      -0.815936       -22.2027
  32   2.0000      -0.782952       -21.3052
  33   2.0000      -0.770015       -20.9532
  34   2.0000      -0.712975       -19.4010
  35   2.0000      -0.700399       -19.0588
  36   2.0000      -0.692110       -18.8333
  37   2.0000      -0.669651       -18.2221
  38   2.0000      -0.641444       -17.4546
  39   2.0000      -0.620190       -16.8762
  40   2.0000      -0.591818       -16.1042
  41   2.0000      -0.581102       -15.8126
  42   2.0000      -0.560768       -15.2593
  43   2.0000      -0.553229       -15.0541
  44   2.0000      -0.541552       -14.7364
  45   2.0000      -0.537106       -14.6154
  46   2.0000      -0.512689       -13.9510
  47   2.0000      -0.509564       -13.8660
  48   2.0000      -0.499248       -13.5852
  49   2.0000      -0.492732       -13.4079
  50   2.0000      -0.486413       -13.2360
  51   2.0000      -0.478874       -13.0308
  52   2.0000      -0.471427       -12.8282
  53   2.0000      -0.465745       -12.6736
  54   2.0000      -0.462426       -12.5832
  55   2.0000      -0.447263       -12.1706
  56   2.0000      -0.440112       -11.9761
  57   2.0000      -0.437228       -11.8976
  58   2.0000      -0.428022       -11.6471
  59   2.0000      -0.426167       -11.5966
  60   2.0000      -0.422213       -11.4890
  61   2.0000      -0.420776       -11.4499
  62   2.0000      -0.412034       -11.2120
  63   2.0000      -0.361048        -9.8246
  64   2.0000      -0.337409        -9.1814
  65   2.0000      -0.325302        -8.8519
  66   2.0000      -0.278501        -7.5784
  67   0.0000       0.017142         0.4665
  68   0.0000       0.071210         1.9377
  69   0.0000       0.093673         2.5490
  70   0.0000       0.121898         3.3170
  71   0.0000       0.124363         3.3841

MULLIKEN ATOMIC CHARGES
-----------------------
   0 S :    0.109128
   1 C :   -0.129744
   2 C :   -0.129270
   3 C :    0.071280
   4 C :   -0.106640
   5 H :   -0.054652
   6 C :    0.089295
   7 H :    0.022317
   8 H :    0.019860
   9 C :   -0.067847
  10 H :    0.023485
  11 H :    0.013240
  12 C :   -0.007967
  13 H :    0.028071
  14 H :    0.034249
  15 H :    0.022284
  16 S :    0.104820
  17 C :   -0.070857
  18 C :   -0.023204
  19 C :   -0.037778
  20 C :   -0.134637
  21 H :   -0.009233
  22 C :    0.086996
  23 H :    0.007276
  24 H :    0.034056
  25 C :   -0.081026
  26 H :    0.030495
  27 H :    0.048746
  28 C :   -0.089095
  29 H :    0.055882
  30 H :    0.017304
  31 H :    0.043826
  32 H :    0.055789
  33 H :    0.023552
Sum of atomic charges:   -0.0000000

LOEWDIN ATOMIC CHARGES
----------------------
   0 S :    0.364689
   1 C :   -0.207705
   2 C :   -0.058614
   3 C :   -0.043924
   4 C :   -0.149313
   5 H :    0.007446
   6 C :   -0.028147
   7 H :    0.030379
   8 H :    0.028390
   9 C :   -0.039010
  10 H :    0.020393
  11 H :    0.020655
  12 C :   -0.054104
  13 H :    0.026778
  14 H :    0.024364
  15 H :    0.020719
  16 S :    0.408142
  17 C :   -0.165942
  18 C :   -0.058769
  19 C :   -0.059881
  20 C :   -0.201319
  21 H :    0.023781
  22 C :   -0.025804
  23 H :    0.024290
  24 H :    0.026851
  25 C :   -0.030435
  26 H :    0.023390
  27 H :    0.020439
  28 C :   -0.073389
  29 H :    0.031868
  30 H :    0.015414
  31 H :    0.031079
  32 H :    0.029562
  33 H :    0.017728

  Mayer bond orders larger than 0.100000
B(  0-S ,  1-C ) :   1.1446 B(  0-S ,  4-C ) :   1.1083 B(  1-C ,  2-C ) :   1.5941
B(  1-C ,  4-C ) :   0.1001 B(  1-C , 32-H ) :   0.9594 B(  2-C ,  3-C ) :   1.2617
B(  2-C ,  6-C ) :   1.0159 B(  3-C ,  4-C ) :   1.5570 B(  3-C ,  5-H ) :   0.9976
B(  4-C , 20-C ) :   1.0861 B(  6-C ,  7-H ) :   0.9275 B(  6-C ,  8-H ) :   0.9430
B(  6-C ,  9-C ) :   1.0928 B(  9-C , 10-H ) :   0.9523 B(  9-C , 11-H ) :   0.9529
B(  9-C , 12-C ) :   1.0700 B( 12-C , 13-H ) :   0.9719 B( 12-C , 14-H ) :   0.9740
B( 12-C , 15-H ) :   0.9761 B( 16-S , 17-C ) :   1.1390 B( 16-S , 20-C ) :   1.1387
B( 17-C , 18-C ) :   1.6384 B( 17-C , 33-H ) :   0.9716 B( 18-C , 19-C ) :   1.2232
B( 18-C , 21-H ) :   1.0051 B( 19-C , 20-C ) :   1.5656 B( 19-C , 22-C ) :   1.0496
B( 22-C , 23-H ) :   0.9380 B( 22-C , 24-H ) :   0.9278 B( 22-C , 25-C ) :   1.0647
B( 25-C , 26-H ) :   0.9603 B( 25-C , 27-H ) :   0.9598 B( 25-C , 28-C ) :   1.0522
B( 28-C , 29-H ) :   0.9777 B( 28-C , 30-H ) :   0.9778 B( 28-C , 31-H ) :   0.9778

Dispersion correction           -0.015541005
FINAL SINGLE POINT ENERGY     -1339.857818950015

DIPOLE MOMENT
-------------
                                X             Y             Z
Electronic contribution:      4.67749     -18.33900      11.22000
Nuclear contribution   :     -4.76246      18.78335     -11.70731
                        -----------------------------------------
Total Dipole Moment    :     -0.08497       0.44435      -0.48731
                        -----------------------------------------
Magnitude (a.u.)       :      0.66493
Magnitude (Debye)      :      1.69012

Rotational constants in cm-1:     0.020447     0.008676     0.007767
Rotational constants in MHz :   612.974209   260.104340   232.839295

                             ****ORCA TERMINATED NORMALLY****
TOTAL RUN TIME: 0 days 0 hours 0 minutes 21 seconds 618 msec
