                         Program Version 4.2.1 -  RELEASE  -
|  1> ! wB97X-D3 SP def2-SVP
|  2> %pal
|  3> nprocs 24
|  4> end
|  5>
|  6> * xyz 0 1
|  7> S 	 -93.598 	 -30.7171 	 -72.5568
|  8> C 	 -93.6119 	 -32.0858 	 -73.5657
|  9> C 	 -92.4966 	 -32.245 	 -74.3308
| 10> C 	 -91.5546 	 -31.2021 	 -73.979
| 11> C 	 -92.0606 	 -30.2221 	 -73.1025
| 12> H 	 -90.4755 	 -31.0685 	 -74.226
| 13> C 	 -92.2009 	 -33.3002 	 -75.4023
| 14> H 	 -92.7372 	 -34.1595 	 -75.1029
| 15> H 	 -91.2377 	 -33.7111 	 -75.3775
| 16> C 	 -92.6663 	 -32.7737 	 -76.7437
| 17> H 	 -92.6307 	 -33.708 	 -77.3329
| 18> H 	 -93.7285 	 -32.4825 	 -76.7041
| 19> C 	 -91.6516 	 -31.6391 	 -77.2486
| 20> H 	 -90.6789 	 -31.932 	 -77.3446
| 21> H 	 -91.9522 	 -31.2699 	 -78.2039
| 22> H 	 -91.8215 	 -30.7428 	 -76.5263
| 23> S 	 -91.4448 	 -28.5133 	 -71.0052
| 24> C 	 -90.8505 	 -26.934 	 -71.34
| 25> C 	 -90.6761 	 -26.6995 	 -72.6976
| 26> C 	 -91.0438 	 -27.858 	 -73.4568
| 27> C 	 -91.5047 	 -28.9352 	 -72.7101
| 28> H 	 -90.2312 	 -25.7647 	 -73.0294
| 29> C 	 -91.0604 	 -27.7711 	 -74.9979
| 30> H 	 -91.2685 	 -28.7508 	 -75.3612
| 31> H 	 -89.9936 	 -27.8186 	 -75.3451
| 32> C 	 -91.9874 	 -26.7796 	 -75.5845
| 33> H 	 -91.8258 	 -25.7428 	 -75.1249
| 34> H 	 -92.9376 	 -27.088 	 -75.259
| 35> C 	 -91.7789 	 -26.8221 	 -77.0879
| 36> H 	 -92.0022 	 -27.8057 	 -77.4439
| 37> H 	 -90.7343 	 -26.7234 	 -77.3405
| 38> H 	 -92.3768 	 -26.0225 	 -77.5656
| 39> H 	 -94.4718 	 -32.7949 	 -73.6039
| 40> H 	 -90.6905 	 -26.2451 	 -70.5729
| 41> *
| 42>
| 43>                          ****END OF INPUT****

CARTESIAN COORDINATES (ANGSTROEM)
---------------------------------
  S    -93.598000  -30.717100  -72.556800
  C    -93.611900  -32.085800  -73.565700
  C    -92.496600  -32.245000  -74.330800
  C    -91.554600  -31.202100  -73.979000
  C    -92.060600  -30.222100  -73.102500
  H    -90.475500  -31.068500  -74.226000
  C    -92.200900  -33.300200  -75.402300
  H    -92.737200  -34.159500  -75.102900
  H    -91.237700  -33.711100  -75.377500
  C    -92.666300  -32.773700  -76.743700
  H    -92.630700  -33.708000  -77.332900
  H    -93.728500  -32.482500  -76.704100
  C    -91.651600  -31.639100  -77.248600
  H    -90.678900  -31.932000  -77.344600
  H    -91.952200  -31.269900  -78.203900
  H    -91.821500  -30.742800  -76.526300
  S    -91.444800  -28.513300  -71.005200
  C    -90.850500  -26.934000  -71.340000
  C    -90.676100  -26.699500  -72.697600
  C    -91.043800  -27.858000  -73.456800
  C    -91.504700  -28.935200  -72.710100
  H    -90.231200  -25.764700  -73.029400
  C    -91.060400  -27.771100  -74.997900
  H    -91.268500  -28.750800  -75.361200
  H    -89.993600  -27.818600  -75.345100
  C    -91.987400  -26.779600  -75.584500
  H    -91.825800  -25.742800  -75.124900
  H    -92.937600  -27.088000  -75.259000
  C    -91.778900  -26.822100  -77.087900
  H    -92.002200  -27.805700  -77.443900
  H    -90.734300  -26.723400  -77.340500
  H    -92.376800  -26.022500  -77.565600
  H    -94.471800  -32.794900  -73.603900
  H    -90.690500  -26.245100  -70.572900

 Total Charge           Charge          ....    0
 Multiplicity           Mult            ....    1
 Number of Electrons    NEL             ....  134
 Basis Dimension        Dim             ....  322

ORBITAL ENERGIES
----------------

  NO   OCC          E(Eh)            E(eV)
   0   2.0000     -88.963451     -2420.8186
   1   2.0000     -88.962740     -2420.7992
   2   2.0000     -10.325590      -280.9736
   3   2.0000     -10.324644      -280.9479
   4   2.0000     -10.312838      -280.6266
   5   2.0000     -10.311036      -280.5775
   6   2.0000     -10.303386      -280.3694
   7   2.0000     -10.301352      -280.3140
   8   2.0000     -10.297263      -280.2028
   9   2.0000     -10.294470      -280.1268
  10   2.0000     -10.294415      -280.1253
  11   2.0000     -10.285619      -279.8859
  12   2.0000     -10.283035      -279.8156
  13   2.0000     -10.281927      -279.7855
  14   2.0000     -10.281086      -279.7626
  15   2.0000     -10.274746      -279.5900
  16   2.0000      -8.079971      -219.8672
  17   2.0000      -8.078149      -219.8176
  18   2.0000      -6.038264      -164.3095
  19   2.0000      -6.036553      -164.2630
  20   2.0000      -6.034121      -164.1968
  21   2.0000      -6.032477      -164.1520
  22   2.0000      -6.030962      -164.1108
  23   2.0000      -6.029083      -164.0597
  24   2.0000      -1.010873       -27.5073
  25   2.0000      -0.988265       -26.8920
  26   2.0000      -0.917289       -24.9607
  27   2.0000      -0.915277       -24.9060
  28   2.0000      -0.868491       -23.6329
  29   2.0000      -0.849736       -23.1225
  30   2.0000      -0.838406       -22.8142
  31   2.0000      -0.811901       -22.0930
  32   2.0000      -0.788901       -21.4671
  33   2.0000      -0.772207       -21.0128
  34   2.0000      -0.707277       -19.2460
  35   2.0000      -0.704604       -19.1733
  36   2.0000      -0.696485       -18.9523
  37   2.0000      -0.660989       -17.9864
  38   2.0000      -0.643524       -17.5112
  39   2.0000      -0.614659       -16.7257
  40   2.0000      -0.599743       -16.3198
  41   2.0000      -0.578690       -15.7470
  42   2.0000      -0.560768       -15.2593
  43   2.0000      -0.546830       -14.8800
  44   2.0000      -0.539880       -14.6909
  45   2.0000      -0.531812       -14.4713
  46   2.0000      -0.518300       -14.1037
  47   2.0000      -0.510290       -13.8857
  48   2.0000      -0.500673       -13.6240
  49   2.0000      -0.499072       -13.5804
  50   2.0000      -0.488402       -13.2901
  51   2.0000      -0.484071       -13.1722
  52   2.0000      -0.468211       -12.7407
  53   2.0000      -0.463669       -12.6171
  54   2.0000      -0.457231       -12.4419
  55   2.0000      -0.452529       -12.3140
  56   2.0000      -0.447269       -12.1708
  57   2.0000      -0.446837       -12.1591
  58   2.0000      -0.435779       -11.8582
  59   2.0000      -0.424885       -11.5617
  60   2.0000      -0.416559       -11.3351
  61   2.0000      -0.408352       -11.1118
  62   2.0000      -0.405291       -11.0285
  63   2.0000      -0.344153        -9.3649
  64   2.0000      -0.331968        -9.0333
  65   2.0000      -0.326879        -8.8948
  66   2.0000      -0.293467        -7.9856
  67   0.0000       0.035875         0.9762
  68   0.0000       0.075275         2.0483
  69   0.0000       0.119438         3.2501
  70   0.0000       0.125931         3.4268
  71   0.0000       0.129965         3.5365

MULLIKEN ATOMIC CHARGES
-----------------------
   0 S :    0.127599
   1 C :   -0.131703
   2 C :   -0.115697
   3 C :    0.004189
   4 C :   -0.177951
   5 H :    0.031158
   6 C :    0.122260
   7 H :   -0.001576
   8 H :    0.013889
   9 C :   -0.074345
  10 H :    0.030531
  11 H :    0.037853
  12 C :   -0.047515
  13 H :    0.021183
  14 H :    0.023724
  15 H :    0.076595
  16 S :    0.102921
  17 C :   -0.074272
  18 C :   -0.037033
  19 C :   -0.050585
  20 C :   -0.152373
  21 H :    0.026835
  22 C :    0.083244
  23 H :   -0.047636
  24 H :    0.021361
  25 C :   -0.041805
  26 H :    0.036151
  27 H :    0.023495
  28 C :    0.001234
  29 H :    0.014640
  30 H :    0.017373
  31 H :    0.042260
  32 H :    0.055403
  33 H :    0.038595
Sum of atomic charges:   -0.0000000

LOEWDIN ATOMIC CHARGES
----------------------
   0 S :    0.444236
   1 C :   -0.218313
   2 C :   -0.064049
   3 C :   -0.070828
   4 C :   -0.219113
   5 H :    0.036654
   6 C :   -0.027310
   7 H :    0.024524
   8 H :    0.025744
   9 C :   -0.032671
  10 H :    0.024379
  11 H :    0.029060
  12 C :   -0.059125
  13 H :    0.011378
  14 H :    0.020602
  15 H :    0.041507
  16 S :    0.411540
  17 C :   -0.176969
  18 C :   -0.073097
  19 C :   -0.049883
  20 C :   -0.209585
  21 H :    0.035283
  22 C :   -0.041466
  23 H :    0.018664
  24 H :    0.034103
  25 C :   -0.037175
  26 H :    0.028889
  27 H :    0.023157
  28 C :   -0.056788
  29 H :    0.022714
  30 H :    0.023785
  31 H :    0.029808
  32 H :    0.034571
  33 H :    0.015775

  Mayer bond orders larger than 0.100000
B(  0-S ,  1-C ) :   1.1600 B(  0-S ,  4-C ) :   1.1751 B(  1-C ,  2-C ) :   1.6229
B(  1-C , 32-H ) :   0.9578 B(  2-C ,  3-C ) :   1.2360 B(  2-C ,  6-C ) :   1.0130
B(  3-C ,  4-C ) :   1.5611 B(  3-C ,  5-H ) :   0.9897 B(  4-C , 20-C ) :   1.0272
B(  6-C ,  7-H ) :   0.9285 B(  6-C ,  8-H ) :   0.9413 B(  6-C ,  9-C ) :   1.0685
B(  9-C , 10-H ) :   0.9573 B(  9-C , 11-H ) :   0.9580 B(  9-C , 12-C ) :   1.0655
B( 12-C , 13-H ) :   0.9756 B( 12-C , 14-H ) :   0.9713 B( 12-C , 15-H ) :   0.9669
B( 16-S , 17-C ) :   1.1776 B( 16-S , 20-C ) :   1.1354 B( 17-C , 18-C ) :   1.5848
B( 17-C , 33-H ) :   0.9744 B( 18-C , 19-C ) :   1.2405 B( 18-C , 21-H ) :   0.9954
B( 19-C , 20-C ) :   1.5970 B( 19-C , 22-C ) :   1.0361 B( 22-C , 23-H ) :   0.9142
B( 22-C , 24-H ) :   0.9217 B( 22-C , 25-C ) :   1.0551 B( 25-C , 26-H ) :   0.9557
B( 25-C , 27-H ) :   0.9470 B( 25-C , 28-C ) :   1.0792 B( 28-C , 29-H ) :   0.9691
B( 28-C , 30-H ) :   0.9727 B( 28-C , 31-H ) :   0.9725

Dispersion correction           -0.015378551
FINAL SINGLE POINT ENERGY     -1339.866235961878

DIPOLE MOMENT
-------------
                                X             Y             Z
Electronic contribution:     -3.48837       0.04096      29.68192
Nuclear contribution   :      3.63249      -0.13062     -30.29463
                        -----------------------------------------
Total Dipole Moment    :      0.14411      -0.08966      -0.61271
                        -----------------------------------------
Magnitude (a.u.)       :      0.63578
Magnitude (Debye)      :      1.61604

Rotational constants in cm-1:     0.017539     0.010426     0.007261
Rotational constants in MHz :   525.809867   312.552384   217.665507

                             ****ORCA TERMINATED NORMALLY****
TOTAL RUN TIME: 0 days 0 hours 0 minutes 22 seconds 937 msec
