                         Program Version 4.2.1 -  RELEASE  -
|  1> ! wB97X-D3 SP def2-SVP
|  2> %pal
|  3> nprocs 24
|  4> end
|  5>
|  6> * xyz 0 1
|  7> S 	 -105.23 	 1.20607 	 -108.887
|  8> C 	 -106.837 	 1.87044 	 -108.787
|  9> C 	 -107.531 	 1.6153 	 -109.929
| 10> C 	 -106.829 	 0.742231 	 -110.81
| 11> C 	 -105.595 	 0.427664 	 -110.341
| 12> H 	 -107.171 	 0.377881 	 -111.805
| 13> C 	 -108.865 	 2.25751 	 -110.259
| 14> H 	 -109.265 	 2.41461 	 -109.255
| 15> H 	 -109.559 	 1.4768 	 -110.647
| 16> C 	 -108.908 	 3.44806 	 -111.235
| 17> H 	 -108.409 	 4.35298 	 -110.792
| 18> H 	 -108.389 	 3.17207 	 -112.203
| 19> C 	 -110.34 	 4.00509 	 -111.441
| 20> H 	 -110.545 	 4.54217 	 -110.524
| 21> H 	 -110.341 	 4.72422 	 -112.273
| 22> H 	 -111.12 	 3.32922 	 -111.537
| 23> S 	 -102.991 	 0.345247 	 -111.234
| 24> C 	 -102.425 	 -1.11798 	 -112.007
| 25> C 	 -103.465 	 -2.02045 	 -112.282
| 26> C 	 -104.712 	 -1.65728 	 -111.66
| 27> C 	 -104.581 	 -0.379262 	 -111
| 28> H 	 -103.329 	 -2.93604 	 -112.821
| 29> C 	 -105.822 	 -2.64039 	 -111.609
| 30> H 	 -106.102 	 -2.81574 	 -112.655
| 31> H 	 -106.712 	 -2.21426 	 -111.169
| 32> C 	 -105.56 	 -3.88745 	 -110.706
| 33> H 	 -104.621 	 -4.38893 	 -111.053
| 34> H 	 -106.389 	 -4.61007 	 -110.859
| 35> C 	 -105.363 	 -3.46414 	 -109.288
| 36> H 	 -104.572 	 -2.6922 	 -109.224
| 37> H 	 -105.233 	 -4.32427 	 -108.664
| 38> H 	 -106.155 	 -2.83017 	 -108.961
| 39> H 	 -107.147 	 2.54422 	 -107.978
| 40> H 	 -101.423 	 -1.29341 	 -112.386
| 41> *
| 42>
| 43>                          ****END OF INPUT****

CARTESIAN COORDINATES (ANGSTROEM)
---------------------------------
  S    -105.230000    1.206070  -108.887000
  C    -106.837000    1.870440  -108.787000
  C    -107.531000    1.615300  -109.929000
  C    -106.829000    0.742231  -110.810000
  C    -105.595000    0.427664  -110.341000
  H    -107.171000    0.377881  -111.805000
  C    -108.865000    2.257510  -110.259000
  H    -109.265000    2.414610  -109.255000
  H    -109.559000    1.476800  -110.647000
  C    -108.908000    3.448060  -111.235000
  H    -108.409000    4.352980  -110.792000
  H    -108.389000    3.172070  -112.203000
  C    -110.340000    4.005090  -111.441000
  H    -110.545000    4.542170  -110.524000
  H    -110.341000    4.724220  -112.273000
  H    -111.120000    3.329220  -111.537000
  S    -102.991000    0.345247  -111.234000
  C    -102.425000   -1.117980  -112.007000
  C    -103.465000   -2.020450  -112.282000
  C    -104.712000   -1.657280  -111.660000
  C    -104.581000   -0.379262  -111.000000
  H    -103.329000   -2.936040  -112.821000
  C    -105.822000   -2.640390  -111.609000
  H    -106.102000   -2.815740  -112.655000
  H    -106.712000   -2.214260  -111.169000
  C    -105.560000   -3.887450  -110.706000
  H    -104.621000   -4.388930  -111.053000
  H    -106.389000   -4.610070  -110.859000
  C    -105.363000   -3.464140  -109.288000
  H    -104.572000   -2.692200  -109.224000
  H    -105.233000   -4.324270  -108.664000
  H    -106.155000   -2.830170  -108.961000
  H    -107.147000    2.544220  -107.978000
  H    -101.423000   -1.293410  -112.386000

 Total Charge           Charge          ....    0
 Multiplicity           Mult            ....    1
 Number of Electrons    NEL             ....  134
 Basis Dimension        Dim             ....  322

ORBITAL ENERGIES
----------------

  NO   OCC          E(Eh)            E(eV)
   0   2.0000     -88.970528     -2421.0112
   1   2.0000     -88.963870     -2420.8300
   2   2.0000     -10.330305      -281.1019
   3   2.0000     -10.320582      -280.8373
   4   2.0000     -10.319519      -280.8084
   5   2.0000     -10.310975      -280.5759
   6   2.0000     -10.306820      -280.4628
   7   2.0000     -10.298055      -280.2243
   8   2.0000     -10.297886      -280.2197
   9   2.0000     -10.295104      -280.1440
  10   2.0000     -10.294331      -280.1230
  11   2.0000     -10.291141      -280.0362
  12   2.0000     -10.289019      -279.9784
  13   2.0000     -10.288823      -279.9731
  14   2.0000     -10.275042      -279.5981
  15   2.0000     -10.265239      -279.3314
  16   2.0000      -8.084714      -219.9963
  17   2.0000      -8.080191      -219.8732
  18   2.0000      -6.043172      -164.4431
  19   2.0000      -6.039334      -164.3386
  20   2.0000      -6.038545      -164.3172
  21   2.0000      -6.035538      -164.2353
  22   2.0000      -6.034529      -164.2079
  23   2.0000      -6.030965      -164.1109
  24   2.0000      -1.014134       -27.5960
  25   2.0000      -0.982195       -26.7269
  26   2.0000      -0.913315       -24.8526
  27   2.0000      -0.909069       -24.7370
  28   2.0000      -0.869584       -23.6626
  29   2.0000      -0.852016       -23.1845
  30   2.0000      -0.847232       -23.0544
  31   2.0000      -0.813260       -22.1299
  32   2.0000      -0.784138       -21.3375
  33   2.0000      -0.769389       -20.9361
  34   2.0000      -0.706038       -19.2123
  35   2.0000      -0.696606       -18.9556
  36   2.0000      -0.691359       -18.8128
  37   2.0000      -0.656961       -17.8768
  38   2.0000      -0.641659       -17.4604
  39   2.0000      -0.618514       -16.8306
  40   2.0000      -0.596407       -16.2290
  41   2.0000      -0.568630       -15.4732
  42   2.0000      -0.561164       -15.2701
  43   2.0000      -0.555048       -15.1036
  44   2.0000      -0.537131       -14.6161
  45   2.0000      -0.526508       -14.3270
  46   2.0000      -0.516440       -14.0530
  47   2.0000      -0.511851       -13.9282
  48   2.0000      -0.504286       -13.7223
  49   2.0000      -0.499152       -13.5826
  50   2.0000      -0.492258       -13.3950
  51   2.0000      -0.472924       -12.8689
  52   2.0000      -0.466944       -12.7062
  53   2.0000      -0.461478       -12.5575
  54   2.0000      -0.457757       -12.4562
  55   2.0000      -0.451781       -12.2936
  56   2.0000      -0.445122       -12.1124
  57   2.0000      -0.441406       -12.0113
  58   2.0000      -0.438184       -11.9236
  59   2.0000      -0.421162       -11.4604
  60   2.0000      -0.419110       -11.4046
  61   2.0000      -0.415035       -11.2937
  62   2.0000      -0.409797       -11.1512
  63   2.0000      -0.346794        -9.4368
  64   2.0000      -0.332534        -9.0487
  65   2.0000      -0.330189        -8.9849
  66   2.0000      -0.288523        -7.8511
  67   0.0000       0.029833         0.8118
  68   0.0000       0.073759         2.0071
  69   0.0000       0.107569         2.9271
  70   0.0000       0.119627         3.2552
  71   0.0000       0.133412         3.6303

MULLIKEN ATOMIC CHARGES
-----------------------
   0 S :    0.110324
   1 C :   -0.134785
   2 C :   -0.085448
   3 C :    0.027741
   4 C :   -0.159379
   5 H :    0.022453
   6 C :    0.050002
   7 H :    0.013160
   8 H :    0.024378
   9 C :   -0.083538
  10 H :    0.038339
  11 H :    0.045848
  12 C :   -0.023468
  13 H :    0.022567
  14 H :    0.040415
  15 H :    0.015884
  16 S :    0.119478
  17 C :   -0.088601
  18 C :   -0.034500
  19 C :   -0.061299
  20 C :   -0.157513
  21 H :    0.016917
  22 C :    0.060653
  23 H :    0.034429
  24 H :    0.010034
  25 C :   -0.076562
  26 H :    0.028714
  27 H :    0.037611
  28 C :   -0.019367
  29 H :    0.040686
  30 H :    0.039584
  31 H :    0.012587
  32 H :    0.054075
  33 H :    0.058583
Sum of atomic charges:    0.0000000

LOEWDIN ATOMIC CHARGES
----------------------
   0 S :    0.429692
   1 C :   -0.203642
   2 C :   -0.065809
   3 C :   -0.069117
   4 C :   -0.216505
   5 H :    0.038615
   6 C :   -0.041001
   7 H :    0.029261
   8 H :    0.032391
   9 C :   -0.042002
  10 H :    0.031791
  11 H :    0.029384
  12 C :   -0.059752
  13 H :    0.026469
  14 H :    0.031141
  15 H :    0.010719
  16 S :    0.407852
  17 C :   -0.190754
  18 C :   -0.062998
  19 C :   -0.054474
  20 C :   -0.201343
  21 H :    0.028015
  22 C :   -0.039768
  23 H :    0.035148
  24 H :    0.026031
  25 C :   -0.037180
  26 H :    0.022447
  27 H :    0.026394
  28 C :   -0.065617
  29 H :    0.035476
  30 H :    0.025684
  31 H :    0.022040
  32 H :    0.031828
  33 H :    0.029585

  Mayer bond orders larger than 0.100000
B(  0-S ,  1-C ) :   1.1298 B(  0-S ,  4-C ) :   1.1734 B(  1-C ,  2-C ) :   1.6219
B(  1-C , 32-H ) :   0.9687 B(  2-C ,  3-C ) :   1.2330 B(  2-C ,  6-C ) :   1.0190
B(  3-C ,  4-C ) :   1.5737 B(  3-C ,  5-H ) :   0.9951 B(  4-C , 20-C ) :   1.0253
B(  6-C ,  7-H ) :   0.9403 B(  6-C ,  8-H ) :   0.9365 B(  6-C ,  9-C ) :   1.0580
B(  9-C , 10-H ) :   0.9594 B(  9-C , 11-H ) :   0.9575 B(  9-C , 12-C ) :   1.0637
B( 12-C , 13-H ) :   0.9783 B( 12-C , 14-H ) :   0.9758 B( 12-C , 15-H ) :   0.9789
B( 16-S , 17-C ) :   1.1488 B( 16-S , 20-C ) :   1.1580 B( 17-C , 18-C ) :   1.5965
B( 17-C , 20-C ) :   0.1054 B( 17-C , 33-H ) :   0.9677 B( 18-C , 19-C ) :   1.2526
B( 18-C , 21-H ) :   0.9878 B( 19-C , 20-C ) :   1.5465 B( 19-C , 22-C ) :   1.0634
B( 22-C , 23-H ) :   0.9266 B( 22-C , 24-H ) :   0.9332 B( 22-C , 25-C ) :   1.0576
B( 25-C , 26-H ) :   0.9562 B( 25-C , 27-H ) :   0.9558 B( 25-C , 28-C ) :   1.0731
B( 28-C , 29-H ) :   0.9666 B( 28-C , 30-H ) :   0.9706 B( 28-C , 31-H ) :   0.9700

Dispersion correction           -0.014701967
FINAL SINGLE POINT ENERGY     -1339.883512759987

DIPOLE MOMENT
-------------
                                X             Y             Z
Electronic contribution:     21.58120       3.65861       3.19687
Nuclear contribution   :    -22.05215      -3.76027      -3.45853
                        -----------------------------------------
Total Dipole Moment    :     -0.47095      -0.10166      -0.26167
                        -----------------------------------------
Magnitude (a.u.)       :      0.54826
Magnitude (Debye)      :      1.39358

Rotational constants in cm-1:     0.021566     0.007534     0.006940
Rotational constants in MHz :   646.536730   225.874602   208.066736

                             ****ORCA TERMINATED NORMALLY****
TOTAL RUN TIME: 0 days 0 hours 0 minutes 21 seconds 698 msec
