                         Program Version 4.2.1 -  RELEASE  -
|  1> ! wB97X-D3 SP def2-SVP
|  2> %pal
|  3> nprocs 24
|  4> end
|  5>
|  6> * xyz 0 1
|  7> S 	 -112.06 	 16.3217 	 -10.4117
|  8> C 	 -111.171 	 15.5652 	 -9.1281
|  9> C 	 -111.776 	 14.4717 	 -8.56418
| 10> C 	 -113.105 	 14.3321 	 -9.07831
| 11> C 	 -113.399 	 15.235 	 -10.0863
| 12> H 	 -113.872 	 13.6219 	 -8.82546
| 13> C 	 -111.194 	 13.5853 	 -7.46371
| 14> H 	 -111.914 	 13.6899 	 -6.72651
| 15> H 	 -110.406 	 14.1425 	 -6.91578
| 16> C 	 -110.776 	 12.1129 	 -7.70717
| 17> H 	 -110.049 	 12.0492 	 -8.45015
| 18> H 	 -110.122 	 11.9377 	 -6.82468
| 19> C 	 -111.986 	 11.205 	 -7.85989
| 20> H 	 -112.538 	 11.3692 	 -8.81283
| 21> H 	 -111.539 	 10.1692 	 -7.81146
| 22> H 	 -112.716 	 11.2003 	 -7.06465
| 23> S 	 -114.13 	 15.0773 	 -12.6794
| 24> C 	 -115.823 	 14.7684 	 -13.0676
| 25> C 	 -116.656 	 14.7984 	 -12.0096
| 26> C 	 -115.919 	 14.8939 	 -10.7714
| 27> C 	 -114.565 	 15.1066 	 -10.9892
| 28> H 	 -117.735 	 14.6336 	 -12.1139
| 29> C 	 -116.57 	 14.6198 	 -9.44813
| 30> H 	 -115.859 	 14.975 	 -8.67527
| 31> H 	 -116.398 	 13.5466 	 -9.38742
| 32> C 	 -117.993 	 15.1508 	 -9.26962
| 33> H 	 -118.319 	 14.8366 	 -8.29146
| 34> H 	 -118.717 	 14.7953 	 -9.99748
| 35> C 	 -118.127 	 16.6462 	 -9.32285
| 36> H 	 -119.179 	 17.0184 	 -9.12254
| 37> H 	 -117.611 	 17.1447 	 -10.1442
| 38> H 	 -117.585 	 17.1437 	 -8.46101
| 39> H 	 -110.217 	 15.7981 	 -8.6861
| 40> H 	 -116.272 	 14.6589 	 -14.0453
| 41> *
| 42>
| 43>                          ****END OF INPUT****

CARTESIAN COORDINATES (ANGSTROEM)
---------------------------------
  S    -112.060000   16.321700  -10.411700
  C    -111.171000   15.565200   -9.128100
  C    -111.776000   14.471700   -8.564180
  C    -113.105000   14.332100   -9.078310
  C    -113.399000   15.235000  -10.086300
  H    -113.872000   13.621900   -8.825460
  C    -111.194000   13.585300   -7.463710
  H    -111.914000   13.689900   -6.726510
  H    -110.406000   14.142500   -6.915780
  C    -110.776000   12.112900   -7.707170
  H    -110.049000   12.049200   -8.450150
  H    -110.122000   11.937700   -6.824680
  C    -111.986000   11.205000   -7.859890
  H    -112.538000   11.369200   -8.812830
  H    -111.539000   10.169200   -7.811460
  H    -112.716000   11.200300   -7.064650
  S    -114.130000   15.077300  -12.679400
  C    -115.823000   14.768400  -13.067600
  C    -116.656000   14.798400  -12.009600
  C    -115.919000   14.893900  -10.771400
  C    -114.565000   15.106600  -10.989200
  H    -117.735000   14.633600  -12.113900
  C    -116.570000   14.619800   -9.448130
  H    -115.859000   14.975000   -8.675270
  H    -116.398000   13.546600   -9.387420
  C    -117.993000   15.150800   -9.269620
  H    -118.319000   14.836600   -8.291460
  H    -118.717000   14.795300   -9.997480
  C    -118.127000   16.646200   -9.322850
  H    -119.179000   17.018400   -9.122540
  H    -117.611000   17.144700  -10.144200
  H    -117.585000   17.143700   -8.461010
  H    -110.217000   15.798100   -8.686100
  H    -116.272000   14.658900  -14.045300

 Total Charge           Charge          ....    0
 Multiplicity           Mult            ....    1
 Number of Electrons    NEL             ....  134
 Basis Dimension        Dim             ....  322

ORBITAL ENERGIES
----------------

  NO   OCC          E(Eh)            E(eV)
   0   2.0000     -88.970719     -2421.0163
   1   2.0000     -88.963472     -2420.8191
   2   2.0000     -10.328320      -281.0479
   3   2.0000     -10.322965      -280.9022
   4   2.0000     -10.310653      -280.5671
   5   2.0000     -10.307714      -280.4872
   6   2.0000     -10.300378      -280.2875
   7   2.0000     -10.298532      -280.2373
   8   2.0000     -10.293751      -280.1072
   9   2.0000     -10.291638      -280.0497
  10   2.0000     -10.290141      -280.0090
  11   2.0000     -10.289550      -279.9929
  12   2.0000     -10.288526      -279.9650
  13   2.0000     -10.287883      -279.9475
  14   2.0000     -10.285963      -279.8953
  15   2.0000     -10.280786      -279.7544
  16   2.0000      -8.085204      -220.0096
  17   2.0000      -8.078178      -219.8184
  18   2.0000      -6.043772      -164.4594
  19   2.0000      -6.039821      -164.3519
  20   2.0000      -6.036810      -164.2700
  21   2.0000      -6.035838      -164.2435
  22   2.0000      -6.032882      -164.1631
  23   2.0000      -6.028613      -164.0469
  24   2.0000      -1.006782       -27.3959
  25   2.0000      -0.984214       -26.7818
  26   2.0000      -0.914026       -24.8719
  27   2.0000      -0.910522       -24.7766
  28   2.0000      -0.869958       -23.6728
  29   2.0000      -0.853279       -23.2189
  30   2.0000      -0.846035       -23.0218
  31   2.0000      -0.817571       -22.2472
  32   2.0000      -0.785060       -21.3626
  33   2.0000      -0.771360       -20.9898
  34   2.0000      -0.713667       -19.4199
  35   2.0000      -0.705910       -19.2088
  36   2.0000      -0.694662       -18.9027
  37   2.0000      -0.657427       -17.8895
  38   2.0000      -0.637754       -17.3542
  39   2.0000      -0.615552       -16.7500
  40   2.0000      -0.593923       -16.1615
  41   2.0000      -0.569483       -15.4964
  42   2.0000      -0.558693       -15.2028
  43   2.0000      -0.544562       -14.8183
  44   2.0000      -0.540118       -14.6974
  45   2.0000      -0.531396       -14.4600
  46   2.0000      -0.519838       -14.1455
  47   2.0000      -0.515700       -14.0329
  48   2.0000      -0.499825       -13.6009
  49   2.0000      -0.493819       -13.4375
  50   2.0000      -0.488058       -13.2807
  51   2.0000      -0.483156       -13.1473
  52   2.0000      -0.474112       -12.9013
  53   2.0000      -0.459506       -12.5038
  54   2.0000      -0.457339       -12.4448
  55   2.0000      -0.450710       -12.2644
  56   2.0000      -0.447165       -12.1680
  57   2.0000      -0.442595       -12.0436
  58   2.0000      -0.438572       -11.9342
  59   2.0000      -0.422808       -11.5052
  60   2.0000      -0.418326       -11.3832
  61   2.0000      -0.412420       -11.2225
  62   2.0000      -0.410200       -11.1621
  63   2.0000      -0.352241        -9.5850
  64   2.0000      -0.332296        -9.0422
  65   2.0000      -0.326159        -8.8752
  66   2.0000      -0.286713        -7.8019
  67   0.0000       0.037226         1.0130
  68   0.0000       0.071597         1.9482
  69   0.0000       0.111236         3.0269
  70   0.0000       0.122256         3.3267
  71   0.0000       0.135929         3.6988

MULLIKEN ATOMIC CHARGES
-----------------------
   0 S :    0.125780
   1 C :   -0.091750
   2 C :   -0.094995
   3 C :    0.015836
   4 C :   -0.145539
   5 H :    0.002622
   6 C :    0.055869
   7 H :    0.005320
   8 H :    0.005324
   9 C :   -0.007870
  10 H :    0.016413
  11 H :    0.025436
  12 C :   -0.064340
  13 H :    0.057227
  14 H :    0.039544
  15 H :    0.028061
  16 S :    0.102126
  17 C :   -0.071768
  18 C :   -0.045867
  19 C :   -0.082395
  20 C :   -0.159487
  21 H :    0.027311
  22 C :    0.050077
  23 H :    0.027467
  24 H :    0.049228
  25 C :   -0.013249
  26 H :    0.023358
  27 H :    0.031448
  28 C :   -0.094726
  29 H :    0.044924
  30 H :    0.047875
  31 H :    0.020254
  32 H :    0.026822
  33 H :    0.043667
Sum of atomic charges:   -0.0000000

LOEWDIN ATOMIC CHARGES
----------------------
   0 S :    0.408951
   1 C :   -0.203904
   2 C :   -0.061338
   3 C :   -0.063816
   4 C :   -0.193387
   5 H :    0.026017
   6 C :   -0.037316
   7 H :    0.022705
   8 H :    0.031474
   9 C :   -0.033691
  10 H :    0.019033
  11 H :    0.033459
  12 C :   -0.070327
  13 H :    0.033989
  14 H :    0.035874
  15 H :    0.022251
  16 S :    0.392855
  17 C :   -0.178659
  18 C :   -0.073848
  19 C :   -0.060206
  20 C :   -0.200580
  21 H :    0.036507
  22 C :   -0.037670
  23 H :    0.034988
  24 H :    0.038452
  25 C :   -0.041018
  26 H :    0.027765
  27 H :    0.024214
  28 C :   -0.078318
  29 H :    0.034460
  30 H :    0.027503
  31 H :    0.027941
  32 H :    0.027194
  33 H :    0.028445

  Mayer bond orders larger than 0.100000
B(  0-S ,  1-C ) :   1.1243 B(  0-S ,  4-C ) :   1.1418 B(  1-C ,  2-C ) :   1.6528
B(  1-C , 32-H ) :   0.9571 B(  2-C ,  3-C ) :   1.2252 B(  2-C ,  6-C ) :   1.0063
B(  3-C ,  4-C ) :   1.5784 B(  3-C ,  5-H ) :   0.9905 B(  4-C , 20-C ) :   1.0241
B(  6-C ,  7-H ) :   0.9352 B(  6-C ,  8-H ) :   0.9353 B(  6-C ,  9-C ) :   1.0614
B(  9-C , 10-H ) :   0.9558 B(  9-C , 11-H ) :   0.9512 B(  9-C , 12-C ) :   1.0719
B( 12-C , 13-H ) :   0.9719 B( 12-C , 14-H ) :   0.9716 B( 12-C , 15-H ) :   0.9771
B( 16-S , 17-C ) :   1.1310 B( 16-S , 20-C ) :   1.1256 B( 17-C , 18-C ) :   1.6745
B( 17-C , 33-H ) :   0.9590 B( 18-C , 19-C ) :   1.2006 B( 18-C , 21-H ) :   0.9834
B( 19-C , 20-C ) :   1.6390 B( 19-C , 22-C ) :   1.0326 B( 22-C , 23-H ) :   0.9265
B( 22-C , 24-H ) :   0.9296 B( 22-C , 25-C ) :   1.0641 B( 25-C , 26-H ) :   0.9485
B( 25-C , 27-H ) :   0.9528 B( 25-C , 28-C ) :   1.0809 B( 28-C , 29-H ) :   0.9730
B( 28-C , 30-H ) :   0.9731 B( 28-C , 31-H ) :   0.9690

Dispersion correction           -0.014342245
FINAL SINGLE POINT ENERGY     -1339.864558036581

DIPOLE MOMENT
-------------
                                X             Y             Z
Electronic contribution:      9.12634      11.52516     -19.05604
Nuclear contribution   :     -9.35786     -12.02547      19.62334
                        -----------------------------------------
Total Dipole Moment    :     -0.23153      -0.50031       0.56730
                        -----------------------------------------
Magnitude (a.u.)       :      0.79104
Magnitude (Debye)      :      2.01066

Rotational constants in cm-1:     0.018563     0.008325     0.007247
Rotational constants in MHz :   556.506547   249.570396   217.264434

                             ****ORCA TERMINATED NORMALLY****
TOTAL RUN TIME: 0 days 0 hours 0 minutes 21 seconds 674 msec
