                         Program Version 4.2.1 -  RELEASE  -
|  1> ! wB97X-D3 SP def2-SVP
|  2> %pal
|  3> nprocs 24
|  4> end
|  5>
|  6> * xyz 0 1
|  7> S 	 -54.2197 	 6.96877 	 22.583
|  8> C 	 -53.7774 	 7.21728 	 20.9522
|  9> C 	 -54.8581 	 7.48422 	 20.1716
| 10> C 	 -56.047 	 7.34365 	 20.9146
| 11> C 	 -55.8836 	 7.0453 	 22.2454
| 12> H 	 -57.0312 	 7.48278 	 20.5158
| 13> C 	 -54.8467 	 7.81023 	 18.7042
| 14> H 	 -54.5884 	 6.90626 	 18.1045
| 15> H 	 -54.0704 	 8.54881 	 18.6282
| 16> C 	 -56.1528 	 8.38071 	 18.0536
| 17> H 	 -56.8348 	 7.56167 	 17.9952
| 18> H 	 -56.7522 	 9.02123 	 18.7286
| 19> C 	 -55.9465 	 9.08491 	 16.6961
| 20> H 	 -55.9456 	 8.39691 	 15.9088
| 21> H 	 -56.7372 	 9.81352 	 16.4923
| 22> H 	 -54.9481 	 9.59102 	 16.6776
| 23> S 	 -57.5426 	 8.64674 	 23.8244
| 24> C 	 -58.8941 	 7.9708 	 24.6494
| 25> C 	 -58.8921 	 6.59496 	 24.609
| 26> C 	 -57.8109 	 6.08824 	 23.8654
| 27> C 	 -56.9402 	 7.09081 	 23.318
| 28> H 	 -59.7254 	 5.97098 	 25.0473
| 29> C 	 -57.5423 	 4.57032 	 23.7838
| 30> H 	 -58.0625 	 4.23322 	 24.6641
| 31> H 	 -56.4727 	 4.53377 	 24.0291
| 32> C 	 -57.7786 	 3.68172 	 22.5038
| 33> H 	 -57.3967 	 2.66161 	 22.7496
| 34> H 	 -57.1213 	 4.19897 	 21.7505
| 35> C 	 -59.2377 	 3.82828 	 22.0025
| 36> H 	 -59.9952 	 3.36139 	 22.672
| 37> H 	 -59.4179 	 3.35202 	 20.9896
| 38> H 	 -59.4361 	 4.88205 	 21.9107
| 39> H 	 -52.7888 	 7.36579 	 20.6605
| 40> H 	 -59.7055 	 8.46273 	 25.2925
| 41> *
| 42>
| 43>                          ****END OF INPUT****

CARTESIAN COORDINATES (ANGSTROEM)
---------------------------------
  S    -54.219700    6.968770   22.583000
  C    -53.777400    7.217280   20.952200
  C    -54.858100    7.484220   20.171600
  C    -56.047000    7.343650   20.914600
  C    -55.883600    7.045300   22.245400
  H    -57.031200    7.482780   20.515800
  C    -54.846700    7.810230   18.704200
  H    -54.588400    6.906260   18.104500
  H    -54.070400    8.548810   18.628200
  C    -56.152800    8.380710   18.053600
  H    -56.834800    7.561670   17.995200
  H    -56.752200    9.021230   18.728600
  C    -55.946500    9.084910   16.696100
  H    -55.945600    8.396910   15.908800
  H    -56.737200    9.813520   16.492300
  H    -54.948100    9.591020   16.677600
  S    -57.542600    8.646740   23.824400
  C    -58.894100    7.970800   24.649400
  C    -58.892100    6.594960   24.609000
  C    -57.810900    6.088240   23.865400
  C    -56.940200    7.090810   23.318000
  H    -59.725400    5.970980   25.047300
  C    -57.542300    4.570320   23.783800
  H    -58.062500    4.233220   24.664100
  H    -56.472700    4.533770   24.029100
  C    -57.778600    3.681720   22.503800
  H    -57.396700    2.661610   22.749600
  H    -57.121300    4.198970   21.750500
  C    -59.237700    3.828280   22.002500
  H    -59.995200    3.361390   22.672000
  H    -59.417900    3.352020   20.989600
  H    -59.436100    4.882050   21.910700
  H    -52.788800    7.365790   20.660500
  H    -59.705500    8.462730   25.292500

 Total Charge           Charge          ....    0
 Multiplicity           Mult            ....    1
 Number of Electrons    NEL             ....  134
 Basis Dimension        Dim             ....  322

ORBITAL ENERGIES
----------------

  NO   OCC          E(Eh)            E(eV)
   0   2.0000     -88.969080     -2420.9717
   1   2.0000     -88.964688     -2420.8522
   2   2.0000     -10.330267      -281.1008
   3   2.0000     -10.326752      -281.0052
   4   2.0000     -10.320476      -280.8344
   5   2.0000     -10.306238      -280.4470
   6   2.0000     -10.304439      -280.3980
   7   2.0000     -10.295915      -280.1661
   8   2.0000     -10.295749      -280.1616
   9   2.0000     -10.295460      -280.1537
  10   2.0000     -10.293840      -280.1096
  11   2.0000     -10.289000      -279.9779
  12   2.0000     -10.287441      -279.9355
  13   2.0000     -10.287104      -279.9263
  14   2.0000     -10.280814      -279.7552
  15   2.0000     -10.280518      -279.7471
  16   2.0000      -8.083821      -219.9719
  17   2.0000      -8.081088      -219.8976
  18   2.0000      -6.042227      -164.4174
  19   2.0000      -6.039343      -164.3389
  20   2.0000      -6.038053      -164.3038
  21   2.0000      -6.035217      -164.2266
  22   2.0000      -6.034956      -164.2195
  23   2.0000      -6.032159      -164.1434
  24   2.0000      -1.014411       -27.6035
  25   2.0000      -0.991438       -26.9784
  26   2.0000      -0.910418       -24.7737
  27   2.0000      -0.897294       -24.4166
  28   2.0000      -0.869119       -23.6499
  29   2.0000      -0.851154       -23.1611
  30   2.0000      -0.843425       -22.9508
  31   2.0000      -0.815897       -22.2017
  32   2.0000      -0.782857       -21.3026
  33   2.0000      -0.768445       -20.9105
  34   2.0000      -0.714834       -19.4516
  35   2.0000      -0.699195       -19.0261
  36   2.0000      -0.680681       -18.5223
  37   2.0000      -0.654065       -17.7980
  38   2.0000      -0.645024       -17.5520
  39   2.0000      -0.621822       -16.9206
  40   2.0000      -0.582621       -15.8539
  41   2.0000      -0.572330       -15.5739
  42   2.0000      -0.566449       -15.4139
  43   2.0000      -0.545010       -14.8305
  44   2.0000      -0.535990       -14.5850
  45   2.0000      -0.525505       -14.2997
  46   2.0000      -0.512616       -13.9490
  47   2.0000      -0.507505       -13.8099
  48   2.0000      -0.504298       -13.7227
  49   2.0000      -0.498416       -13.5626
  50   2.0000      -0.481175       -13.0934
  51   2.0000      -0.477577       -12.9955
  52   2.0000      -0.472905       -12.8684
  53   2.0000      -0.470574       -12.8050
  54   2.0000      -0.464288       -12.6339
  55   2.0000      -0.453442       -12.3388
  56   2.0000      -0.441586       -12.0162
  57   2.0000      -0.429266       -11.6809
  58   2.0000      -0.427264       -11.6265
  59   2.0000      -0.426106       -11.5949
  60   2.0000      -0.421114       -11.4591
  61   2.0000      -0.418815       -11.3965
  62   2.0000      -0.410314       -11.1652
  63   2.0000      -0.339015        -9.2251
  64   2.0000      -0.329968        -8.9789
  65   2.0000      -0.322772        -8.7831
  66   2.0000      -0.308447        -8.3933
  67   0.0000       0.045059         1.2261
  68   0.0000       0.052552         1.4300
  69   0.0000       0.123819         3.3693
  70   0.0000       0.125439         3.4134
  71   0.0000       0.138094         3.7577

MULLIKEN ATOMIC CHARGES
-----------------------
   0 S :    0.123265
   1 C :   -0.103730
   2 C :   -0.087640
   3 C :    0.027428
   4 C :   -0.154423
   5 H :    0.000164
   6 C :    0.071697
   7 H :    0.055550
   8 H :    0.022289
   9 C :   -0.116568
  10 H :    0.022314
  11 H :    0.031086
  12 C :   -0.013456
  13 H :    0.020749
  14 H :    0.038837
  15 H :    0.034534
  16 S :    0.133509
  17 C :   -0.115248
  18 C :   -0.064077
  19 C :   -0.069366
  20 C :   -0.170904
  21 H :    0.043429
  22 C :    0.046885
  23 H :    0.009422
  24 H :    0.033034
  25 C :   -0.050688
  26 H :    0.047494
  27 H :    0.045935
  28 C :   -0.078323
  29 H :    0.033823
  30 H :    0.041366
  31 H :    0.039970
  32 H :    0.021332
  33 H :    0.080310
Sum of atomic charges:    0.0000000

LOEWDIN ATOMIC CHARGES
----------------------
   0 S :    0.451561
   1 C :   -0.197988
   2 C :   -0.067349
   3 C :   -0.061600
   4 C :   -0.223734
   5 H :    0.026773
   6 C :   -0.029356
   7 H :    0.041998
   8 H :    0.027113
   9 C :   -0.048221
  10 H :    0.018917
  11 H :    0.024526
  12 C :   -0.058802
  13 H :    0.016740
  14 H :    0.031417
  15 H :    0.031477
  16 S :    0.438153
  17 C :   -0.213210
  18 C :   -0.093146
  19 C :   -0.054919
  20 C :   -0.220309
  21 H :    0.044023
  22 C :   -0.038066
  23 H :    0.022448
  24 H :    0.034814
  25 C :   -0.039897
  26 H :    0.030514
  27 H :    0.034053
  28 C :   -0.075184
  29 H :    0.025009
  30 H :    0.030491
  31 H :    0.025150
  32 H :    0.015559
  33 H :    0.051045

  Mayer bond orders larger than 0.100000
B(  0-S ,  1-C ) :   1.1706 B(  0-S ,  4-C ) :   1.1877 B(  1-C ,  2-C ) :   1.5826
B(  1-C , 32-H ) :   0.9816 B(  2-C ,  3-C ) :   1.2848 B(  2-C ,  6-C ) :   1.0046
B(  3-C ,  4-C ) :   1.5443 B(  3-C ,  5-H ) :   1.0039 B(  4-C , 20-C ) :   0.9798
B(  6-C ,  7-H ) :   0.9381 B(  6-C ,  8-H ) :   0.9389 B(  6-C ,  9-C ) :   1.0745
B(  9-C , 10-H ) :   0.9482 B(  9-C , 11-H ) :   0.9620 B(  9-C , 12-C ) :   1.0701
B( 12-C , 13-H ) :   0.9760 B( 12-C , 14-H ) :   0.9757 B( 12-C , 15-H ) :   0.9778
B( 16-S , 17-C ) :   1.1893 B( 16-S , 20-C ) :   1.1624 B( 17-C , 18-C ) :   1.5710
B( 17-C , 20-C ) :   0.1060 B( 17-C , 33-H ) :   0.9510 B( 18-C , 19-C ) :   1.3105
B( 18-C , 21-H ) :   0.9756 B( 19-C , 20-C ) :   1.5463 B( 19-C , 22-C ) :   1.0083
B( 22-C , 23-H ) :   0.9409 B( 22-C , 24-H ) :   0.9403 B( 22-C , 25-C ) :   1.0537
B( 25-C , 26-H ) :   0.9552 B( 25-C , 27-H ) :   0.9547 B( 25-C , 28-C ) :   1.0663
B( 28-C , 29-H ) :   0.9774 B( 28-C , 30-H ) :   0.9759 B( 28-C , 31-H ) :   0.9738

Dispersion correction           -0.014383230
FINAL SINGLE POINT ENERGY     -1339.873177990837

DIPOLE MOMENT
-------------
                                X             Y             Z
Electronic contribution:      8.28428       8.76867      20.55224
Nuclear contribution   :     -8.52065      -8.85753     -20.97188
                        -----------------------------------------
Total Dipole Moment    :     -0.23637      -0.08886      -0.41964
                        -----------------------------------------
Magnitude (a.u.)       :      0.48976
Magnitude (Debye)      :      1.24488

Rotational constants in cm-1:     0.017671     0.007952     0.007565
Rotational constants in MHz :   529.754042   238.384327   226.800028

                             ****ORCA TERMINATED NORMALLY****
TOTAL RUN TIME: 0 days 0 hours 0 minutes 21 seconds 292 msec
