                         Program Version 4.2.1 -  RELEASE  -
|  1> ! wB97X-D3 SP def2-SVP
|  2> %pal
|  3> nprocs 24
|  4> end
|  5>
|  6> * xyz 0 1
|  7> S 	 -16.9025 	 -27.4073 	 -97.5246
|  8> C 	 -15.8904 	 -28.8247 	 -97.6274
|  9> C 	 -16.6128 	 -29.8682 	 -98.2582
| 10> C 	 -18.0216 	 -29.6216 	 -98.3401
| 11> C 	 -18.38 	 -28.3312 	 -97.8627
| 12> H 	 -18.7932 	 -30.2208 	 -98.6888
| 13> C 	 -15.9834 	 -31.1985 	 -98.6572
| 14> H 	 -16.4135 	 -31.9156 	 -98.0034
| 15> H 	 -14.9472 	 -31.1312 	 -98.2658
| 16> C 	 -15.9656 	 -31.4763 	 -100.172
| 17> H 	 -15.6439 	 -32.4984 	 -100.282
| 18> H 	 -16.9897 	 -31.6338 	 -100.619
| 19> C 	 -15.2071 	 -30.4905 	 -100.972
| 20> H 	 -15.4197 	 -29.43 	 -100.641
| 21> H 	 -14.1749 	 -30.6415 	 -100.808
| 22> H 	 -15.4242 	 -30.6645 	 -102.017
| 23> S 	 -20.7708 	 -28.0661 	 -96.5528
| 24> C 	 -22.0229 	 -27.153 	 -97.3038
| 25> C 	 -21.6199 	 -26.5128 	 -98.4296
| 26> C 	 -20.2127 	 -26.6784 	 -98.7123
| 27> C 	 -19.6783 	 -27.6701 	 -97.8908
| 28> H 	 -22.3292 	 -25.8219 	 -98.809
| 29> C 	 -19.5127 	 -25.8313 	 -99.7919
| 30> H 	 -20.0435 	 -26.0483 	 -100.712
| 31> H 	 -18.4448 	 -26.2036 	 -99.8398
| 32> C 	 -19.5859 	 -24.3002 	 -99.4264
| 33> H 	 -20.539 	 -24.1086 	 -98.9617
| 34> H 	 -19.4487 	 -23.7058 	 -100.318
| 35> C 	 -18.5552 	 -24.0189 	 -98.3245
| 36> H 	 -18.7621 	 -24.6434 	 -97.3615
| 37> H 	 -18.6275 	 -23.0221 	 -98.1252
| 38> H 	 -17.5593 	 -24.1792 	 -98.6761
| 39> H 	 -14.8236 	 -28.8425 	 -97.4281
| 40> H 	 -23.061 	 -27.0786 	 -96.9149
| 41> *
| 42>
| 43>                          ****END OF INPUT****

CARTESIAN COORDINATES (ANGSTROEM)
---------------------------------
  S    -16.902500  -27.407300  -97.524600
  C    -15.890400  -28.824700  -97.627400
  C    -16.612800  -29.868200  -98.258200
  C    -18.021600  -29.621600  -98.340100
  C    -18.380000  -28.331200  -97.862700
  H    -18.793200  -30.220800  -98.688800
  C    -15.983400  -31.198500  -98.657200
  H    -16.413500  -31.915600  -98.003400
  H    -14.947200  -31.131200  -98.265800
  C    -15.965600  -31.476300  -100.172000
  H    -15.643900  -32.498400  -100.282000
  H    -16.989700  -31.633800  -100.619000
  C    -15.207100  -30.490500  -100.972000
  H    -15.419700  -29.430000  -100.641000
  H    -14.174900  -30.641500  -100.808000
  H    -15.424200  -30.664500  -102.017000
  S    -20.770800  -28.066100  -96.552800
  C    -22.022900  -27.153000  -97.303800
  C    -21.619900  -26.512800  -98.429600
  C    -20.212700  -26.678400  -98.712300
  C    -19.678300  -27.670100  -97.890800
  H    -22.329200  -25.821900  -98.809000
  C    -19.512700  -25.831300  -99.791900
  H    -20.043500  -26.048300  -100.712000
  H    -18.444800  -26.203600  -99.839800
  C    -19.585900  -24.300200  -99.426400
  H    -20.539000  -24.108600  -98.961700
  H    -19.448700  -23.705800  -100.318000
  C    -18.555200  -24.018900  -98.324500
  H    -18.762100  -24.643400  -97.361500
  H    -18.627500  -23.022100  -98.125200
  H    -17.559300  -24.179200  -98.676100
  H    -14.823600  -28.842500  -97.428100
  H    -23.061000  -27.078600  -96.914900

 Total Charge           Charge          ....    0
 Multiplicity           Mult            ....    1
 Number of Electrons    NEL             ....  134
 Basis Dimension        Dim             ....  322

ORBITAL ENERGIES
----------------

  NO   OCC          E(Eh)            E(eV)
   0   2.0000     -88.965019     -2420.8612
   1   2.0000     -88.962374     -2420.7893
   2   2.0000     -10.331375      -281.1310
   3   2.0000     -10.325533      -280.9720
   4   2.0000     -10.317080      -280.7420
   5   2.0000     -10.313650      -280.6487
   6   2.0000     -10.307798      -280.4894
   7   2.0000     -10.304446      -280.3982
   8   2.0000     -10.295734      -280.1612
   9   2.0000     -10.294799      -280.1357
  10   2.0000     -10.290386      -280.0156
  11   2.0000     -10.287019      -279.9240
  12   2.0000     -10.285881      -279.8931
  13   2.0000     -10.285864      -279.8926
  14   2.0000     -10.272183      -279.5203
  15   2.0000     -10.269177      -279.4385
  16   2.0000      -8.078905      -219.8382
  17   2.0000      -8.077527      -219.8007
  18   2.0000      -6.037343      -164.2845
  19   2.0000      -6.035994      -164.2478
  20   2.0000      -6.033497      -164.1798
  21   2.0000      -6.032110      -164.1421
  22   2.0000      -6.029827      -164.0799
  23   2.0000      -6.028172      -164.0349
  24   2.0000      -1.001427       -27.2502
  25   2.0000      -0.979345       -26.6493
  26   2.0000      -0.912367       -24.8268
  27   2.0000      -0.904698       -24.6181
  28   2.0000      -0.867624       -23.6092
  29   2.0000      -0.847321       -23.0568
  30   2.0000      -0.844934       -22.9918
  31   2.0000      -0.813856       -22.1462
  32   2.0000      -0.782174       -21.2840
  33   2.0000      -0.767613       -20.8878
  34   2.0000      -0.708304       -19.2739
  35   2.0000      -0.697740       -18.9865
  36   2.0000      -0.687361       -18.7040
  37   2.0000      -0.653153       -17.7732
  38   2.0000      -0.642527       -17.4840
  39   2.0000      -0.614618       -16.7246
  40   2.0000      -0.593560       -16.1516
  41   2.0000      -0.567072       -15.4308
  42   2.0000      -0.559084       -15.2135
  43   2.0000      -0.556350       -15.1390
  44   2.0000      -0.538207       -14.6453
  45   2.0000      -0.533901       -14.5282
  46   2.0000      -0.518595       -14.1117
  47   2.0000      -0.516994       -14.0681
  48   2.0000      -0.500233       -13.6120
  49   2.0000      -0.488442       -13.2912
  50   2.0000      -0.487814       -13.2741
  51   2.0000      -0.475432       -12.9372
  52   2.0000      -0.466065       -12.6823
  53   2.0000      -0.458028       -12.4636
  54   2.0000      -0.455738       -12.4013
  55   2.0000      -0.445761       -12.1298
  56   2.0000      -0.445666       -12.1272
  57   2.0000      -0.442262       -12.0346
  58   2.0000      -0.430528       -11.7153
  59   2.0000      -0.429119       -11.6769
  60   2.0000      -0.419014       -11.4020
  61   2.0000      -0.416841       -11.3428
  62   2.0000      -0.403093       -10.9687
  63   2.0000      -0.332805        -9.0561
  64   2.0000      -0.330194        -8.9850
  65   2.0000      -0.321804        -8.7567
  66   2.0000      -0.299124        -8.1396
  67   0.0000       0.037446         1.0190
  68   0.0000       0.056281         1.5315
  69   0.0000       0.105959         2.8833
  70   0.0000       0.113367         3.0849
  71   0.0000       0.134968         3.6727

MULLIKEN ATOMIC CHARGES
-----------------------
   0 S :    0.107640
   1 C :   -0.112694
   2 C :   -0.130150
   3 C :    0.091884
   4 C :   -0.178735
   5 H :   -0.010561
   6 C :    0.077502
   7 H :    0.031037
   8 H :    0.008117
   9 C :   -0.070910
  10 H :    0.017456
  11 H :    0.025275
  12 C :   -0.022485
  13 H :    0.052639
  14 H :    0.016545
  15 H :    0.035616
  16 S :    0.112922
  17 C :   -0.106432
  18 C :   -0.029111
  19 C :   -0.039550
  20 C :   -0.202089
  21 H :    0.011112
  22 C :    0.070686
  23 H :    0.034035
  24 H :    0.035594
  25 C :   -0.067005
  26 H :    0.028100
  27 H :    0.034717
  28 C :   -0.038207
  29 H :    0.060644
  30 H :    0.010495
  31 H :    0.023250
  32 H :    0.055427
  33 H :    0.067234
Sum of atomic charges:   -0.0000000

LOEWDIN ATOMIC CHARGES
----------------------
   0 S :    0.406582
   1 C :   -0.206300
   2 C :   -0.062584
   3 C :   -0.044500
   4 C :   -0.192013
   5 H :    0.022514
   6 C :   -0.031383
   7 H :    0.028848
   8 H :    0.030300
   9 C :   -0.048814
  10 H :    0.022944
  11 H :    0.026776
  12 C :   -0.062545
  13 H :    0.037176
  14 H :    0.018865
  15 H :    0.029162
  16 S :    0.405411
  17 C :   -0.193327
  18 C :   -0.079716
  19 C :   -0.046828
  20 C :   -0.207505
  21 H :    0.027156
  22 C :   -0.029462
  23 H :    0.029469
  24 H :    0.030596
  25 C :   -0.031085
  26 H :    0.022024
  27 H :    0.023279
  28 C :   -0.060024
  29 H :    0.040510
  30 H :    0.010627
  31 H :    0.017999
  32 H :    0.029000
  33 H :    0.036852

  Mayer bond orders larger than 0.100000
B(  0-S ,  1-C ) :   1.1518 B(  0-S ,  4-C ) :   1.1556 B(  1-C ,  2-C ) :   1.5679
B(  1-C ,  4-C ) :   0.1085 B(  1-C , 32-H ) :   0.9681 B(  2-C ,  3-C ) :   1.2421
B(  2-C ,  6-C ) :   1.0212 B(  3-C ,  4-C ) :   1.5602 B(  3-C ,  5-H ) :   1.0058
B(  4-C , 20-C ) :   1.0272 B(  6-C ,  7-H ) :   0.9425 B(  6-C ,  8-H ) :   0.9409
B(  6-C ,  9-C ) :   1.0629 B(  9-C , 10-H ) :   0.9509 B(  9-C , 11-H ) :   0.9568
B(  9-C , 12-C ) :   1.0721 B( 12-C , 13-H ) :   0.9728 B( 12-C , 14-H ) :   0.9723
B( 12-C , 15-H ) :   0.9703 B( 16-S , 17-C ) :   1.1500 B( 16-S , 20-C ) :   1.1415
B( 17-C , 18-C ) :   1.6522 B( 17-C , 33-H ) :   0.9585 B( 18-C , 19-C ) :   1.2016
B( 18-C , 21-H ) :   0.9877 B( 19-C , 20-C ) :   1.6080 B( 19-C , 22-C ) :   1.0362
B( 22-C , 23-H ) :   0.9354 B( 22-C , 24-H ) :   0.9386 B( 22-C , 25-C ) :   1.0557
B( 25-C , 26-H ) :   0.9605 B( 25-C , 27-H ) :   0.9573 B( 25-C , 28-C ) :   1.0700
B( 28-C , 29-H ) :   0.9727 B( 28-C , 30-H ) :   0.9705 B( 28-C , 31-H ) :   0.9754

Dispersion correction           -0.015451308
FINAL SINGLE POINT ENERGY     -1339.867057119559

DIPOLE MOMENT
-------------
                                X             Y             Z
Electronic contribution:    -10.09614      -0.76857      15.42630
Nuclear contribution   :     10.11423       0.75437     -15.87243
                        -----------------------------------------
Total Dipole Moment    :      0.01809      -0.01420      -0.44612
                        -----------------------------------------
Magnitude (a.u.)       :      0.44672
Magnitude (Debye)      :      1.13546

Rotational constants in cm-1:     0.021585     0.008233     0.007275
Rotational constants in MHz :   647.096249   246.817725   218.089689

                             ****ORCA TERMINATED NORMALLY****
TOTAL RUN TIME: 0 days 0 hours 0 minutes 21 seconds 848 msec
