                         Program Version 4.2.1 -  RELEASE  -
|  1> ! wB97X-D3 SP def2-SVP
|  2> %pal
|  3> nprocs 24
|  4> end
|  5>
|  6> * xyz 0 1
|  7> S 	 18.7867 	 -24.355 	 -118.245
|  8> C 	 20.4933 	 -24.5635 	 -118.551
|  9> C 	 21.2283 	 -23.8112 	 -117.67
| 10> C 	 20.405 	 -23.0339 	 -116.797
| 11> C 	 19.1204 	 -23.1667 	 -117.051
| 12> H 	 20.6503 	 -22.4918 	 -115.915
| 13> C 	 22.6899 	 -23.6884 	 -117.699
| 14> H 	 22.9999 	 -23.5144 	 -116.67
| 15> H 	 22.9648 	 -22.7619 	 -118.289
| 16> C 	 23.4874 	 -24.9102 	 -118.168
| 17> H 	 23.1433 	 -25.683 	 -117.495
| 18> H 	 23.2662 	 -25.2628 	 -119.203
| 19> C 	 24.9829 	 -24.6811 	 -117.976
| 20> H 	 25.2463 	 -24.7137 	 -116.881
| 21> H 	 25.4734 	 -25.5989 	 -118.38
| 22> H 	 25.3033 	 -23.7524 	 -118.442
| 23> S 	 17.055 	 -23.6205 	 -115.387
| 24> C 	 16.0022 	 -22.3663 	 -115.055
| 25> C 	 16.3561 	 -21.162 	 -115.615
| 26> C 	 17.5469 	 -21.2838 	 -116.308
| 27> C 	 18.0159 	 -22.5768 	 -116.375
| 28> H 	 15.6651 	 -20.3301 	 -115.507
| 29> C 	 18.2057 	 -20.1809 	 -117.064
| 30> H 	 17.9434 	 -20.2346 	 -118.128
| 31> H 	 19.2419 	 -20.3379 	 -117.125
| 32> C 	 17.8559 	 -18.8303 	 -116.504
| 33> H 	 18.107 	 -18.7519 	 -115.48
| 34> H 	 16.7836 	 -18.538 	 -116.55
| 35> C 	 18.6613 	 -17.6955 	 -117.198
| 36> H 	 18.3448 	 -16.6636 	 -116.948
| 37> H 	 18.6079 	 -17.8566 	 -118.298
| 38> H 	 19.7431 	 -17.8337 	 -117.067
| 39> H 	 20.871 	 -25.1775 	 -119.306
| 40> H 	 15.1143 	 -22.5616 	 -114.497
| 41> *
| 42>
| 43>                          ****END OF INPUT****

CARTESIAN COORDINATES (ANGSTROEM)
---------------------------------
  S     18.786700  -24.355000  -118.245000
  C     20.493300  -24.563500  -118.551000
  C     21.228300  -23.811200  -117.670000
  C     20.405000  -23.033900  -116.797000
  C     19.120400  -23.166700  -117.051000
  H     20.650300  -22.491800  -115.915000
  C     22.689900  -23.688400  -117.699000
  H     22.999900  -23.514400  -116.670000
  H     22.964800  -22.761900  -118.289000
  C     23.487400  -24.910200  -118.168000
  H     23.143300  -25.683000  -117.495000
  H     23.266200  -25.262800  -119.203000
  C     24.982900  -24.681100  -117.976000
  H     25.246300  -24.713700  -116.881000
  H     25.473400  -25.598900  -118.380000
  H     25.303300  -23.752400  -118.442000
  S     17.055000  -23.620500  -115.387000
  C     16.002200  -22.366300  -115.055000
  C     16.356100  -21.162000  -115.615000
  C     17.546900  -21.283800  -116.308000
  C     18.015900  -22.576800  -116.375000
  H     15.665100  -20.330100  -115.507000
  C     18.205700  -20.180900  -117.064000
  H     17.943400  -20.234600  -118.128000
  H     19.241900  -20.337900  -117.125000
  C     17.855900  -18.830300  -116.504000
  H     18.107000  -18.751900  -115.480000
  H     16.783600  -18.538000  -116.550000
  C     18.661300  -17.695500  -117.198000
  H     18.344800  -16.663600  -116.948000
  H     18.607900  -17.856600  -118.298000
  H     19.743100  -17.833700  -117.067000
  H     20.871000  -25.177500  -119.306000
  H     15.114300  -22.561600  -114.497000

 Total Charge           Charge          ....    0
 Multiplicity           Mult            ....    1
 Number of Electrons    NEL             ....  134
 Basis Dimension        Dim             ....  322

ORBITAL ENERGIES
----------------

  NO   OCC          E(Eh)            E(eV)
   0   2.0000     -88.961506     -2420.7657
   1   2.0000     -88.958281     -2420.6779
   2   2.0000     -10.313363      -280.6409
   3   2.0000     -10.310875      -280.5732
   4   2.0000     -10.305038      -280.4143
   5   2.0000     -10.304805      -280.4080
   6   2.0000     -10.294851      -280.1371
   7   2.0000     -10.294271      -280.1213
   8   2.0000     -10.289727      -279.9977
   9   2.0000     -10.287032      -279.9244
  10   2.0000     -10.286184      -279.9013
  11   2.0000     -10.284697      -279.8608
  12   2.0000     -10.282462      -279.8000
  13   2.0000     -10.281997      -279.7874
  14   2.0000     -10.281515      -279.7742
  15   2.0000     -10.280273      -279.7404
  16   2.0000      -8.078532      -219.8280
  17   2.0000      -8.074329      -219.7137
  18   2.0000      -6.036532      -164.2624
  19   2.0000      -6.032696      -164.1580
  20   2.0000      -6.032673      -164.1574
  21   2.0000      -6.029740      -164.0776
  22   2.0000      -6.028769      -164.0511
  23   2.0000      -6.025027      -163.9493
  24   2.0000      -1.022003       -27.8101
  25   2.0000      -0.996702       -27.1217
  26   2.0000      -0.918487       -24.9933
  27   2.0000      -0.916544       -24.9404
  28   2.0000      -0.874787       -23.8042
  29   2.0000      -0.855353       -23.2753
  30   2.0000      -0.850984       -23.1565
  31   2.0000      -0.819008       -22.2863
  32   2.0000      -0.782672       -21.2976
  33   2.0000      -0.767691       -20.8899
  34   2.0000      -0.709522       -19.3071
  35   2.0000      -0.708013       -19.2660
  36   2.0000      -0.694205       -18.8903
  37   2.0000      -0.656327       -17.8596
  38   2.0000      -0.648903       -17.6575
  39   2.0000      -0.616988       -16.7891
  40   2.0000      -0.605597       -16.4791
  41   2.0000      -0.574606       -15.6358
  42   2.0000      -0.569655       -15.5011
  43   2.0000      -0.564720       -15.3668
  44   2.0000      -0.535734       -14.5781
  45   2.0000      -0.527457       -14.3528
  46   2.0000      -0.522082       -14.2066
  47   2.0000      -0.512706       -13.9514
  48   2.0000      -0.505713       -13.7612
  49   2.0000      -0.497186       -13.5291
  50   2.0000      -0.489301       -13.3146
  51   2.0000      -0.481445       -13.1008
  52   2.0000      -0.474390       -12.9088
  53   2.0000      -0.461298       -12.5526
  54   2.0000      -0.456971       -12.4348
  55   2.0000      -0.454130       -12.3575
  56   2.0000      -0.449590       -12.2340
  57   2.0000      -0.440795       -11.9947
  58   2.0000      -0.428305       -11.6548
  59   2.0000      -0.424454       -11.5500
  60   2.0000      -0.421534       -11.4705
  61   2.0000      -0.418285       -11.3821
  62   2.0000      -0.416490       -11.3333
  63   2.0000      -0.341131        -9.2827
  64   2.0000      -0.333569        -9.0769
  65   2.0000      -0.323449        -8.8015
  66   2.0000      -0.298527        -8.1233
  67   0.0000       0.045665         1.2426
  68   0.0000       0.068650         1.8681
  69   0.0000       0.125602         3.4178
  70   0.0000       0.129861         3.5337
  71   0.0000       0.131387         3.5752

MULLIKEN ATOMIC CHARGES
-----------------------
   0 S :    0.107227
   1 C :   -0.108257
   2 C :   -0.069626
   3 C :    0.054382
   4 C :   -0.173738
   5 H :    0.003018
   6 C :    0.051860
   7 H :    0.016225
   8 H :    0.049279
   9 C :   -0.114544
  10 H :    0.027963
  11 H :    0.039410
  12 C :   -0.044363
  13 H :    0.037417
  14 H :    0.038757
  15 H :    0.039827
  16 S :    0.133041
  17 C :   -0.083187
  18 C :   -0.062345
  19 C :    0.001032
  20 C :   -0.190199
  21 H :    0.020713
  22 C :    0.126367
  23 H :    0.033343
  24 H :   -0.004091
  25 C :   -0.094177
  26 H :    0.023095
  27 H :    0.037315
  28 C :   -0.050979
  29 H :    0.044527
  30 H :    0.019557
  31 H :    0.024544
  32 H :    0.023666
  33 H :    0.042939
Sum of atomic charges:   -0.0000000

LOEWDIN ATOMIC CHARGES
----------------------
   0 S :    0.410936
   1 C :   -0.188095
   2 C :   -0.063618
   3 C :   -0.062650
   4 C :   -0.201173
   5 H :    0.032470
   6 C :   -0.039821
   7 H :    0.030658
   8 H :    0.039078
   9 C :   -0.047614
  10 H :    0.025488
  11 H :    0.023302
  12 C :   -0.066607
  13 H :    0.030855
  14 H :    0.032107
  15 H :    0.024173
  16 S :    0.453376
  17 C :   -0.199599
  18 C :   -0.078514
  19 C :   -0.051720
  20 C :   -0.218722
  21 H :    0.036073
  22 C :   -0.028872
  23 H :    0.039531
  24 H :    0.024108
  25 C :   -0.040785
  26 H :    0.019177
  27 H :    0.027175
  28 C :   -0.071739
  29 H :    0.028001
  30 H :    0.024446
  31 H :    0.023471
  32 H :    0.014704
  33 H :    0.020400

  Mayer bond orders larger than 0.100000
B(  0-S ,  1-C ) :   1.1215 B(  0-S ,  4-C ) :   1.1500 B(  1-C ,  2-C ) :   1.6242
B(  1-C , 32-H ) :   0.9823 B(  2-C ,  3-C ) :   1.1936 B(  2-C ,  6-C ) :   1.0330
B(  3-C ,  4-C ) :   1.6418 B(  3-C ,  5-H ) :   0.9991 B(  4-C , 20-C ) :   0.9986
B(  6-C ,  7-H ) :   0.9391 B(  6-C ,  8-H ) :   0.9246 B(  6-C ,  9-C ) :   1.0689
B(  9-C , 10-H ) :   0.9572 B(  9-C , 11-H ) :   0.9498 B(  9-C , 12-C ) :   1.0893
B( 12-C , 13-H ) :   0.9734 B( 12-C , 14-H ) :   0.9725 B( 12-C , 15-H ) :   0.9744
B( 16-S , 17-C ) :   1.2040 B( 16-S , 20-C ) :   1.1703 B( 17-C , 18-C ) :   1.5604
B( 17-C , 20-C ) :   0.1081 B( 17-C , 33-H ) :   0.9665 B( 18-C , 19-C ) :   1.2605
B( 18-C , 21-H ) :   1.0008 B( 19-C , 20-C ) :   1.5790 B( 19-C , 22-C ) :   1.0506
B( 22-C , 23-H ) :   0.9110 B( 22-C , 24-H ) :   0.9212 B( 22-C , 25-C ) :   1.0747
B( 25-C , 26-H ) :   0.9598 B( 25-C , 27-H ) :   0.9460 B( 25-C , 28-C ) :   1.0824
B( 28-C , 29-H ) :   0.9744 B( 28-C , 30-H ) :   0.9713 B( 28-C , 31-H ) :   0.9736

Dispersion correction           -0.013465249
FINAL SINGLE POINT ENERGY     -1339.883528405925

DIPOLE MOMENT
-------------
                                X             Y             Z
Electronic contribution:    -20.98084     -15.00882       4.45718
Nuclear contribution   :     21.31710      15.29523      -4.41780
                        -----------------------------------------
Total Dipole Moment    :      0.33626       0.28640       0.03938
                        -----------------------------------------
Magnitude (a.u.)       :      0.44345
Magnitude (Debye)      :      1.12716

Rotational constants in cm-1:     0.020131     0.007562     0.006060
Rotational constants in MHz :   603.503164   226.689295   181.683494

                             ****ORCA TERMINATED NORMALLY****
TOTAL RUN TIME: 0 days 0 hours 0 minutes 20 seconds 170 msec
