                         Program Version 4.2.1 -  RELEASE  -
|  1> ! wB97X-D3 SP def2-SVP
|  2> %pal
|  3> nprocs 24
|  4> end
|  5>
|  6> * xyz 0 1
|  7> S 	 -82.5773 	 -0.312512 	 -112.699
|  8> C 	 -81.9755 	 1.34913 	 -113
|  9> C 	 -82.8304 	 2.07878 	 -113.823
| 10> C 	 -84.0417 	 1.30814 	 -114.092
| 11> C 	 -84.1038 	 0.0275191 	 -113.603
| 12> H 	 -84.9608 	 1.65202 	 -114.702
| 13> C 	 -82.6914 	 3.51426 	 -114.271
| 14> H 	 -82.8808 	 3.62914 	 -115.342
| 15> H 	 -81.6272 	 3.65242 	 -114.19
| 16> C 	 -83.4362 	 4.55122 	 -113.429
| 17> H 	 -83.3446 	 5.57701 	 -113.855
| 18> H 	 -84.4587 	 4.28026 	 -113.654
| 19> C 	 -83.194 	 4.68946 	 -111.912
| 20> H 	 -83.8149 	 5.36654 	 -111.341
| 21> H 	 -83.4153 	 3.7869 	 -111.447
| 22> H 	 -82.1101 	 4.83124 	 -111.717
| 23> S 	 -86.2342 	 -1.20469 	 -112.393
| 24> C 	 -87.2109 	 -2.30884 	 -113.317
| 25> C 	 -86.6982 	 -2.52784 	 -114.578
| 26> C 	 -85.5703 	 -1.74057 	 -114.778
| 27> C 	 -85.1897 	 -0.950912 	 -113.749
| 28> H 	 -87.1846 	 -3.22663 	 -115.279
| 29> C 	 -84.6524 	 -1.88852 	 -115.978
| 30> H 	 -84.7906 	 -2.90712 	 -116.386
| 31> H 	 -83.6144 	 -1.87918 	 -115.695
| 32> C 	 -84.9024 	 -0.775571 	 -117.066
| 33> H 	 -84.5222 	 0.213734 	 -116.778
| 34> H 	 -85.9649 	 -0.590494 	 -117.124
| 35> C 	 -84.4279 	 -1.07924 	 -118.482
| 36> H 	 -84.8979 	 -0.317586 	 -119.043
| 37> H 	 -84.868 	 -2.08925 	 -118.813
| 38> H 	 -83.3247 	 -1.09611 	 -118.498
| 39> H 	 -80.9799 	 1.7431 	 -112.741
| 40> H 	 -88.0736 	 -2.83532 	 -112.989
| 41> *
| 42>
| 43>                          ****END OF INPUT****

CARTESIAN COORDINATES (ANGSTROEM)
---------------------------------
  S    -82.577300   -0.312512  -112.699000
  C    -81.975500    1.349130  -113.000000
  C    -82.830400    2.078780  -113.823000
  C    -84.041700    1.308140  -114.092000
  C    -84.103800    0.027519  -113.603000
  H    -84.960800    1.652020  -114.702000
  C    -82.691400    3.514260  -114.271000
  H    -82.880800    3.629140  -115.342000
  H    -81.627200    3.652420  -114.190000
  C    -83.436200    4.551220  -113.429000
  H    -83.344600    5.577010  -113.855000
  H    -84.458700    4.280260  -113.654000
  C    -83.194000    4.689460  -111.912000
  H    -83.814900    5.366540  -111.341000
  H    -83.415300    3.786900  -111.447000
  H    -82.110100    4.831240  -111.717000
  S    -86.234200   -1.204690  -112.393000
  C    -87.210900   -2.308840  -113.317000
  C    -86.698200   -2.527840  -114.578000
  C    -85.570300   -1.740570  -114.778000
  C    -85.189700   -0.950912  -113.749000
  H    -87.184600   -3.226630  -115.279000
  C    -84.652400   -1.888520  -115.978000
  H    -84.790600   -2.907120  -116.386000
  H    -83.614400   -1.879180  -115.695000
  C    -84.902400   -0.775571  -117.066000
  H    -84.522200    0.213734  -116.778000
  H    -85.964900   -0.590494  -117.124000
  C    -84.427900   -1.079240  -118.482000
  H    -84.897900   -0.317586  -119.043000
  H    -84.868000   -2.089250  -118.813000
  H    -83.324700   -1.096110  -118.498000
  H    -80.979900    1.743100  -112.741000
  H    -88.073600   -2.835320  -112.989000

 Total Charge           Charge          ....    0
 Multiplicity           Mult            ....    1
 Number of Electrons    NEL             ....  134
 Basis Dimension        Dim             ....  322

ORBITAL ENERGIES
----------------

  NO   OCC          E(Eh)            E(eV)
   0   2.0000     -88.967285     -2420.9229
   1   2.0000     -88.965446     -2420.8729
   2   2.0000     -10.334248      -281.2092
   3   2.0000     -10.325236      -280.9640
   4   2.0000     -10.319675      -280.8126
   5   2.0000     -10.315591      -280.7015
   6   2.0000     -10.308076      -280.4970
   7   2.0000     -10.303636      -280.3762
   8   2.0000     -10.295408      -280.1523
   9   2.0000     -10.295142      -280.1450
  10   2.0000     -10.293133      -280.0904
  11   2.0000     -10.289979      -280.0046
  12   2.0000     -10.287463      -279.9361
  13   2.0000     -10.280841      -279.7559
  14   2.0000     -10.278763      -279.6994
  15   2.0000     -10.273505      -279.5563
  16   2.0000      -8.080837      -219.8908
  17   2.0000      -8.080366      -219.8779
  18   2.0000      -6.039207      -164.3352
  19   2.0000      -6.039135      -164.3332
  20   2.0000      -6.035168      -164.2253
  21   2.0000      -6.035116      -164.2239
  22   2.0000      -6.031778      -164.1330
  23   2.0000      -6.030926      -164.1098
  24   2.0000      -1.010725       -27.5032
  25   2.0000      -0.979843       -26.6629
  26   2.0000      -0.911162       -24.7940
  27   2.0000      -0.902116       -24.5478
  28   2.0000      -0.869196       -23.6520
  29   2.0000      -0.853594       -23.2275
  30   2.0000      -0.840692       -22.8764
  31   2.0000      -0.817060       -22.2333
  32   2.0000      -0.786092       -21.3907
  33   2.0000      -0.771044       -20.9812
  34   2.0000      -0.708874       -19.2894
  35   2.0000      -0.698307       -19.0019
  36   2.0000      -0.688541       -18.7362
  37   2.0000      -0.666313       -18.1313
  38   2.0000      -0.638384       -17.3713
  39   2.0000      -0.612343       -16.6627
  40   2.0000      -0.596286       -16.2258
  41   2.0000      -0.568001       -15.4561
  42   2.0000      -0.554403       -15.0861
  43   2.0000      -0.551072       -14.9954
  44   2.0000      -0.543122       -14.7791
  45   2.0000      -0.531356       -14.4589
  46   2.0000      -0.518110       -14.0985
  47   2.0000      -0.510164       -13.8823
  48   2.0000      -0.507236       -13.8026
  49   2.0000      -0.492076       -13.3901
  50   2.0000      -0.485162       -13.2019
  51   2.0000      -0.476440       -12.9646
  52   2.0000      -0.471464       -12.8292
  53   2.0000      -0.463379       -12.6092
  54   2.0000      -0.459238       -12.4965
  55   2.0000      -0.450838       -12.2679
  56   2.0000      -0.445974       -12.1356
  57   2.0000      -0.433629       -11.7996
  58   2.0000      -0.432938       -11.7808
  59   2.0000      -0.419439       -11.4135
  60   2.0000      -0.416310       -11.3284
  61   2.0000      -0.413938       -11.2638
  62   2.0000      -0.409093       -11.1320
  63   2.0000      -0.340041        -9.2530
  64   2.0000      -0.330014        -8.9801
  65   2.0000      -0.326538        -8.8856
  66   2.0000      -0.310396        -8.4463
  67   0.0000       0.041516         1.1297
  68   0.0000       0.053501         1.4558
  69   0.0000       0.109637         2.9834
  70   0.0000       0.120763         3.2861
  71   0.0000       0.127327         3.4647

MULLIKEN ATOMIC CHARGES
-----------------------
   0 S :    0.097657
   1 C :   -0.117215
   2 C :   -0.121955
   3 C :    0.028873
   4 C :   -0.166310
   5 H :    0.048487
   6 C :    0.089738
   7 H :    0.037918
   8 H :    0.003814
   9 C :   -0.074767
  10 H :    0.034868
  11 H :    0.017875
  12 C :   -0.018191
  13 H :    0.035754
  14 H :    0.016623
  15 H :    0.027933
  16 S :    0.121903
  17 C :   -0.077613
  18 C :   -0.057477
  19 C :   -0.004992
  20 C :   -0.189620
  21 H :    0.030814
  22 C :    0.083920
  23 H :    0.013795
  24 H :    0.028321
  25 C :   -0.101608
  26 H :    0.025019
  27 H :    0.015035
  28 C :   -0.036620
  29 H :    0.030256
  30 H :    0.033980
  31 H :    0.044272
  32 H :    0.057327
  33 H :    0.042185
Sum of atomic charges:   -0.0000000

LOEWDIN ATOMIC CHARGES
----------------------
   0 S :    0.361792
   1 C :   -0.182665
   2 C :   -0.066348
   3 C :   -0.065421
   4 C :   -0.183234
   5 H :    0.045295
   6 C :   -0.032318
   7 H :    0.038433
   8 H :    0.023786
   9 C :   -0.041949
  10 H :    0.028305
  11 H :    0.021114
  12 C :   -0.064510
  13 H :    0.030800
  14 H :    0.017999
  15 H :    0.028791
  16 S :    0.425941
  17 C :   -0.176764
  18 C :   -0.076092
  19 C :   -0.058491
  20 C :   -0.214447
  21 H :    0.040415
  22 C :   -0.025880
  23 H :    0.028576
  24 H :    0.027360
  25 C :   -0.044349
  26 H :    0.022222
  27 H :    0.017721
  28 C :   -0.063728
  29 H :    0.022284
  30 H :    0.029854
  31 H :    0.027239
  32 H :    0.034359
  33 H :    0.023908

  Mayer bond orders larger than 0.100000
B(  0-S ,  1-C ) :   1.1277 B(  0-S ,  4-C ) :   1.1089 B(  1-C ,  2-C ) :   1.6446
B(  1-C , 32-H ) :   0.9581 B(  2-C ,  3-C ) :   1.1931 B(  2-C ,  6-C ) :   1.0270
B(  3-C ,  4-C ) :   1.6597 B(  3-C ,  5-H ) :   0.9658 B(  4-C , 20-C ) :   1.0024
B(  6-C ,  7-H ) :   0.9404 B(  6-C ,  8-H ) :   0.9316 B(  6-C ,  9-C ) :   1.0606
B(  9-C , 10-H ) :   0.9569 B(  9-C , 11-H ) :   0.9558 B(  9-C , 12-C ) :   1.0726
B( 12-C , 13-H ) :   0.9730 B( 12-C , 14-H ) :   0.9704 B( 12-C , 15-H ) :   0.9743
B( 16-S , 17-C ) :   1.1785 B( 16-S , 20-C ) :   1.1429 B( 17-C , 18-C ) :   1.5885
B( 17-C , 33-H ) :   0.9689 B( 18-C , 19-C ) :   1.2613 B( 18-C , 21-H ) :   0.9902
B( 19-C , 20-C ) :   1.6188 B( 19-C , 22-C ) :   1.0352 B( 22-C , 23-H ) :   0.9449
B( 22-C , 24-H ) :   0.9346 B( 22-C , 25-C ) :   1.0448 B( 25-C , 26-H ) :   0.9470
B( 25-C , 27-H ) :   0.9620 B( 25-C , 28-C ) :   1.0878 B( 28-C , 29-H ) :   0.9741
B( 28-C , 30-H ) :   0.9752 B( 28-C , 31-H ) :   0.9751

Dispersion correction           -0.014911458
FINAL SINGLE POINT ENERGY     -1339.875487436128

DIPOLE MOMENT
-------------
                                X             Y             Z
Electronic contribution:     -3.40551     -15.25691      16.31777
Nuclear contribution   :      3.28110      15.49677     -16.75799
                        -----------------------------------------
Total Dipole Moment    :     -0.12441       0.23986      -0.44022
                        -----------------------------------------
Magnitude (a.u.)       :      0.51653
Magnitude (Debye)      :      1.31292

Rotational constants in cm-1:     0.018202     0.008701     0.007177
Rotational constants in MHz :   545.684328   260.839626   215.162444

                             ****ORCA TERMINATED NORMALLY****
TOTAL RUN TIME: 0 days 0 hours 0 minutes 21 seconds 849 msec
