                         Program Version 4.2.1 -  RELEASE  -
|  1> ! wB97X-D3 SP def2-SVP
|  2> %pal
|  3> nprocs 24
|  4> end
|  5>
|  6> * xyz 0 1
|  7> S 	 -32.8675 	 -38.395 	 -93.7936
|  8> C 	 -33.4448 	 -36.8165 	 -94.2309
|  9> C 	 -33.0758 	 -35.8391 	 -93.3474
| 10> C 	 -32.0947 	 -36.3658 	 -92.4738
| 11> C 	 -31.8693 	 -37.6883 	 -92.5389
| 12> H 	 -31.5205 	 -35.7605 	 -91.7969
| 13> C 	 -33.3773 	 -34.3585 	 -93.2908
| 14> H 	 -33.2724 	 -34.0352 	 -92.245
| 15> H 	 -34.4268 	 -34.3011 	 -93.6243
| 16> C 	 -32.4848 	 -33.551 	 -94.1769
| 17> H 	 -32.7647 	 -32.5135 	 -94.0529
| 18> H 	 -31.4815 	 -33.6835 	 -93.9472
| 19> C 	 -32.6239 	 -33.8288 	 -95.6075
| 20> H 	 -33.5354 	 -34.2582 	 -95.9005
| 21> H 	 -32.6655 	 -32.797 	 -96.1822
| 22> H 	 -31.7731 	 -34.3424 	 -96.1522
| 23> S 	 -30.173 	 -39.7649 	 -92.834
| 24> C 	 -29.0505 	 -40.1909 	 -91.6447
| 25> C 	 -29.1643 	 -39.3857 	 -90.5473
| 26> C 	 -30.19 	 -38.4024 	 -90.574
| 27> C 	 -30.8102 	 -38.4285 	 -91.8356
| 28> H 	 -28.5069 	 -39.5227 	 -89.6479
| 29> C 	 -30.5219 	 -37.3831 	 -89.4631
| 30> H 	 -30.9806 	 -37.9579 	 -88.6533
| 31> H 	 -31.3092 	 -36.8443 	 -89.8984
| 32> C 	 -29.3431 	 -36.5383 	 -88.9978
| 33> H 	 -28.9521 	 -35.9114 	 -89.8353
| 34> H 	 -28.5318 	 -37.2716 	 -88.646
| 35> C 	 -29.7332 	 -35.5588 	 -87.8324
| 36> H 	 -30.2847 	 -34.666 	 -88.2919
| 37> H 	 -28.8325 	 -35.1837 	 -87.3832
| 38> H 	 -30.3909 	 -36.0671 	 -87.0975
| 39> H 	 -34.1298 	 -36.6159 	 -94.9749
| 40> H 	 -28.4027 	 -41.0852 	 -91.7122
| 41> *
| 42>
| 43>                          ****END OF INPUT****

CARTESIAN COORDINATES (ANGSTROEM)
---------------------------------
  S    -32.867500  -38.395000  -93.793600
  C    -33.444800  -36.816500  -94.230900
  C    -33.075800  -35.839100  -93.347400
  C    -32.094700  -36.365800  -92.473800
  C    -31.869300  -37.688300  -92.538900
  H    -31.520500  -35.760500  -91.796900
  C    -33.377300  -34.358500  -93.290800
  H    -33.272400  -34.035200  -92.245000
  H    -34.426800  -34.301100  -93.624300
  C    -32.484800  -33.551000  -94.176900
  H    -32.764700  -32.513500  -94.052900
  H    -31.481500  -33.683500  -93.947200
  C    -32.623900  -33.828800  -95.607500
  H    -33.535400  -34.258200  -95.900500
  H    -32.665500  -32.797000  -96.182200
  H    -31.773100  -34.342400  -96.152200
  S    -30.173000  -39.764900  -92.834000
  C    -29.050500  -40.190900  -91.644700
  C    -29.164300  -39.385700  -90.547300
  C    -30.190000  -38.402400  -90.574000
  C    -30.810200  -38.428500  -91.835600
  H    -28.506900  -39.522700  -89.647900
  C    -30.521900  -37.383100  -89.463100
  H    -30.980600  -37.957900  -88.653300
  H    -31.309200  -36.844300  -89.898400
  C    -29.343100  -36.538300  -88.997800
  H    -28.952100  -35.911400  -89.835300
  H    -28.531800  -37.271600  -88.646000
  C    -29.733200  -35.558800  -87.832400
  H    -30.284700  -34.666000  -88.291900
  H    -28.832500  -35.183700  -87.383200
  H    -30.390900  -36.067100  -87.097500
  H    -34.129800  -36.615900  -94.974900
  H    -28.402700  -41.085200  -91.712200

 Total Charge           Charge          ....    0
 Multiplicity           Mult            ....    1
 Number of Electrons    NEL             ....  134
 Basis Dimension        Dim             ....  322

ORBITAL ENERGIES
----------------

  NO   OCC          E(Eh)            E(eV)
   0   2.0000     -88.965708     -2420.8800
   1   2.0000     -88.960987     -2420.7515
   2   2.0000     -10.329648      -281.0840
   3   2.0000     -10.324202      -280.9358
   4   2.0000     -10.312432      -280.6155
   5   2.0000     -10.306246      -280.4472
   6   2.0000     -10.305959      -280.4394
   7   2.0000     -10.300127      -280.2807
   8   2.0000     -10.294096      -280.1166
   9   2.0000     -10.293908      -280.1115
  10   2.0000     -10.292689      -280.0783
  11   2.0000     -10.291434      -280.0442
  12   2.0000     -10.289211      -279.9837
  13   2.0000     -10.282605      -279.8039
  14   2.0000     -10.279327      -279.7147
  15   2.0000     -10.275279      -279.6046
  16   2.0000      -8.080649      -219.8856
  17   2.0000      -8.076666      -219.7773
  18   2.0000      -6.039254      -164.3365
  19   2.0000      -6.035241      -164.2273
  20   2.0000      -6.035042      -164.2218
  21   2.0000      -6.031185      -164.1169
  22   2.0000      -6.031001      -164.1119
  23   2.0000      -6.027540      -164.0177
  24   2.0000      -1.011087       -27.5131
  25   2.0000      -0.989185       -26.9171
  26   2.0000      -0.926743       -25.2180
  27   2.0000      -0.908843       -24.7309
  28   2.0000      -0.870276       -23.6814
  29   2.0000      -0.855350       -23.2753
  30   2.0000      -0.845562       -23.0089
  31   2.0000      -0.812153       -22.0998
  32   2.0000      -0.785318       -21.3696
  33   2.0000      -0.776832       -21.1387
  34   2.0000      -0.705388       -19.1946
  35   2.0000      -0.698764       -19.0143
  36   2.0000      -0.696823       -18.9615
  37   2.0000      -0.656237       -17.8571
  38   2.0000      -0.640010       -17.4156
  39   2.0000      -0.626304       -17.0426
  40   2.0000      -0.596814       -16.2401
  41   2.0000      -0.570890       -15.5347
  42   2.0000      -0.566459       -15.4141
  43   2.0000      -0.556601       -15.1459
  44   2.0000      -0.543065       -14.7775
  45   2.0000      -0.529156       -14.3991
  46   2.0000      -0.524999       -14.2859
  47   2.0000      -0.512801       -13.9540
  48   2.0000      -0.500978       -13.6323
  49   2.0000      -0.496752       -13.5173
  50   2.0000      -0.490361       -13.3434
  51   2.0000      -0.482447       -13.1280
  52   2.0000      -0.468692       -12.7538
  53   2.0000      -0.467589       -12.7237
  54   2.0000      -0.453902       -12.3513
  55   2.0000      -0.448296       -12.1988
  56   2.0000      -0.445498       -12.1226
  57   2.0000      -0.442103       -12.0302
  58   2.0000      -0.438363       -11.9285
  59   2.0000      -0.430572       -11.7165
  60   2.0000      -0.420749       -11.4492
  61   2.0000      -0.413929       -11.2636
  62   2.0000      -0.403966       -10.9925
  63   2.0000      -0.356489        -9.7006
  64   2.0000      -0.332284        -9.0419
  65   2.0000      -0.329753        -8.9730
  66   2.0000      -0.285462        -7.7678
  67   0.0000       0.028474         0.7748
  68   0.0000       0.084014         2.2861
  69   0.0000       0.102319         2.7843
  70   0.0000       0.123334         3.3561
  71   0.0000       0.127721         3.4755

MULLIKEN ATOMIC CHARGES
-----------------------
   0 S :    0.112671
   1 C :   -0.096499
   2 C :   -0.085388
   3 C :   -0.014209
   4 C :   -0.100294
   5 H :    0.000071
   6 C :    0.056680
   7 H :    0.029443
   8 H :    0.029040
   9 C :    0.023964
  10 H :    0.029189
  11 H :    0.011112
  12 C :   -0.096067
  13 H :    0.008282
  14 H :    0.028757
  15 H :    0.052838
  16 S :    0.089464
  17 C :   -0.085420
  18 C :   -0.066670
  19 C :   -0.051547
  20 C :   -0.167755
  21 H :    0.028115
  22 C :    0.125805
  23 H :    0.032655
  24 H :   -0.007741
  25 C :   -0.125594
  26 H :    0.045126
  27 H :    0.045241
  28 C :   -0.054289
  29 H :    0.042496
  30 H :    0.038728
  31 H :    0.041041
  32 H :    0.011384
  33 H :    0.069370
Sum of atomic charges:    0.0000000

LOEWDIN ATOMIC CHARGES
----------------------
   0 S :    0.402028
   1 C :   -0.184797
   2 C :   -0.061187
   3 C :   -0.067369
   4 C :   -0.194989
   5 H :    0.024087
   6 C :   -0.025943
   7 H :    0.034364
   8 H :    0.032563
   9 C :   -0.042008
  10 H :    0.028765
  11 H :    0.020965
  12 C :   -0.072965
  13 H :    0.010284
  14 H :    0.037711
  15 H :    0.035632
  16 S :    0.410999
  17 C :   -0.209558
  18 C :   -0.085256
  19 C :   -0.054816
  20 C :   -0.177542
  21 H :    0.034599
  22 C :   -0.028563
  23 H :    0.035821
  24 H :    0.019243
  25 C :   -0.045361
  26 H :    0.030460
  27 H :    0.030272
  28 C :   -0.069046
  29 H :    0.033224
  30 H :    0.023471
  31 H :    0.027087
  32 H :    0.009555
  33 H :    0.038271

  Mayer bond orders larger than 0.100000
B(  0-S ,  1-C ) :   1.1326 B(  0-S ,  4-C ) :   1.1269 B(  1-C ,  2-C ) :   1.6276
B(  1-C , 32-H ) :   0.9706 B(  2-C ,  3-C ) :   1.2279 B(  2-C ,  6-C ) :   1.0211
B(  3-C ,  4-C ) :   1.6124 B(  3-C ,  5-H ) :   0.9885 B(  4-C , 20-C ) :   1.0428
B(  6-C ,  7-H ) :   0.9381 B(  6-C ,  8-H ) :   0.9355 B(  6-C ,  9-C ) :   1.0956
B(  9-C , 10-H ) :   0.9553 B(  9-C , 11-H ) :   0.9473 B(  9-C , 12-C ) :   1.0710
B( 12-C , 13-H ) :   0.9754 B( 12-C , 14-H ) :   0.9735 B( 12-C , 15-H ) :   0.9738
B( 16-S , 17-C ) :   1.1635 B( 16-S , 20-C ) :   1.1499 B( 17-C , 18-C ) :   1.5982
B( 17-C , 33-H ) :   0.9640 B( 18-C , 19-C ) :   1.2560 B( 18-C , 21-H ) :   0.9798
B( 19-C , 20-C ) :   1.5760 B( 19-C , 22-C ) :   1.0273 B( 22-C , 23-H ) :   0.9225
B( 22-C , 24-H ) :   0.9296 B( 22-C , 25-C ) :   1.0637 B( 25-C , 26-H ) :   0.9567
B( 25-C , 27-H ) :   0.9545 B( 25-C , 28-C ) :   1.0736 B( 28-C , 29-H ) :   0.9763
B( 28-C , 30-H ) :   0.9754 B( 28-C , 31-H ) :   0.9757

Dispersion correction           -0.013898918
FINAL SINGLE POINT ENERGY     -1339.870169711609

DIPOLE MOMENT
-------------
                                X             Y             Z
Electronic contribution:     -1.94505     -25.68806      -9.40625
Nuclear contribution   :      2.05245      26.30457       9.76220
                        -----------------------------------------
Total Dipole Moment    :      0.10739       0.61651       0.35595
                        -----------------------------------------
Magnitude (a.u.)       :      0.71994
Magnitude (Debye)      :      1.82995

Rotational constants in cm-1:     0.017197     0.009155     0.006575
Rotational constants in MHz :   515.564238   274.470531   197.105495

                             ****ORCA TERMINATED NORMALLY****
TOTAL RUN TIME: 0 days 0 hours 0 minutes 21 seconds 610 msec
