                         Program Version 4.2.1 -  RELEASE  -
|  1> ! wB97X-D3 SP def2-SVP
|  2> %pal
|  3> nprocs 24
|  4> end
|  5>
|  6> * xyz 0 1
|  7> S 	 -134.062 	 66.9923 	 -58.2934
|  8> C 	 -134.195 	 65.5154 	 -59.2101
|  9> C 	 -135.544 	 65.1938 	 -59.3551
| 10> C 	 -136.405 	 66.0618 	 -58.6449
| 11> C 	 -135.779 	 67.1143 	 -57.9847
| 12> H 	 -137.479 	 65.8727 	 -58.3587
| 13> C 	 -136.132 	 64.0512 	 -60.0071
| 14> H 	 -135.314 	 63.5392 	 -60.5121
| 15> H 	 -136.858 	 64.3334 	 -60.7519
| 16> C 	 -136.724 	 62.9249 	 -59.1274
| 17> H 	 -137.479 	 63.3133 	 -58.494
| 18> H 	 -137.189 	 62.0366 	 -59.6647
| 19> C 	 -135.61 	 62.4244 	 -58.1552
| 20> H 	 -134.775 	 61.9236 	 -58.7491
| 21> H 	 -135.253 	 63.2411 	 -57.5093
| 22> H 	 -135.958 	 61.6531 	 -57.5013
| 23> S 	 -136.01 	 68.0776 	 -55.3944
| 24> C 	 -137.344 	 69.0231 	 -55.0017
| 25> C 	 -138.112 	 69.2827 	 -56.1045
| 26> C 	 -137.639 	 68.7141 	 -57.3386
| 27> C 	 -136.481 	 68.0557 	 -57.0885
| 28> H 	 -139.119 	 69.6888 	 -56.0343
| 29> C 	 -138.393 	 68.656 	 -58.6257
| 30> H 	 -137.751 	 68.4026 	 -59.4787
| 31> H 	 -138.788 	 69.6627 	 -58.8343
| 32> C 	 -139.757 	 67.9069 	 -58.6045
| 33> H 	 -140.386 	 68.2771 	 -57.7738
| 34> H 	 -139.624 	 66.8199 	 -58.5107
| 35> C 	 -140.528 	 68.0429 	 -59.9487
| 36> H 	 -139.823 	 67.7577 	 -60.7956
| 37> H 	 -140.82 	 69.0926 	 -60.1175
| 38> H 	 -141.371 	 67.3147 	 -59.9518
| 39> H 	 -133.404 	 64.8675 	 -59.5821
| 40> H 	 -137.603 	 69.2452 	 -53.966
| 41> *
| 42>
| 43>                          ****END OF INPUT****

CARTESIAN COORDINATES (ANGSTROEM)
---------------------------------
  S    -134.062000   66.992300  -58.293400
  C    -134.195000   65.515400  -59.210100
  C    -135.544000   65.193800  -59.355100
  C    -136.405000   66.061800  -58.644900
  C    -135.779000   67.114300  -57.984700
  H    -137.479000   65.872700  -58.358700
  C    -136.132000   64.051200  -60.007100
  H    -135.314000   63.539200  -60.512100
  H    -136.858000   64.333400  -60.751900
  C    -136.724000   62.924900  -59.127400
  H    -137.479000   63.313300  -58.494000
  H    -137.189000   62.036600  -59.664700
  C    -135.610000   62.424400  -58.155200
  H    -134.775000   61.923600  -58.749100
  H    -135.253000   63.241100  -57.509300
  H    -135.958000   61.653100  -57.501300
  S    -136.010000   68.077600  -55.394400
  C    -137.344000   69.023100  -55.001700
  C    -138.112000   69.282700  -56.104500
  C    -137.639000   68.714100  -57.338600
  C    -136.481000   68.055700  -57.088500
  H    -139.119000   69.688800  -56.034300
  C    -138.393000   68.656000  -58.625700
  H    -137.751000   68.402600  -59.478700
  H    -138.788000   69.662700  -58.834300
  C    -139.757000   67.906900  -58.604500
  H    -140.386000   68.277100  -57.773800
  H    -139.624000   66.819900  -58.510700
  C    -140.528000   68.042900  -59.948700
  H    -139.823000   67.757700  -60.795600
  H    -140.820000   69.092600  -60.117500
  H    -141.371000   67.314700  -59.951800
  H    -133.404000   64.867500  -59.582100
  H    -137.603000   69.245200  -53.966000

 Total Charge           Charge          ....    0
 Multiplicity           Mult            ....    1
 Number of Electrons    NEL             ....  134
 Basis Dimension        Dim             ....  322

ORBITAL ENERGIES
----------------

  NO   OCC          E(Eh)            E(eV)
   0   2.0000     -88.967609     -2420.9317
   1   2.0000     -88.965073     -2420.8627
   2   2.0000     -10.328807      -281.0611
   3   2.0000     -10.324313      -280.9388
   4   2.0000     -10.317050      -280.7412
   5   2.0000     -10.315659      -280.7033
   6   2.0000     -10.301958      -280.3305
   7   2.0000     -10.295819      -280.1635
   8   2.0000     -10.295813      -280.1633
   9   2.0000     -10.295537      -280.1558
  10   2.0000     -10.293617      -280.1036
  11   2.0000     -10.292088      -280.0619
  12   2.0000     -10.290896      -280.0295
  13   2.0000     -10.289803      -279.9998
  14   2.0000     -10.283905      -279.8393
  15   2.0000     -10.277316      -279.6600
  16   2.0000      -8.082045      -219.9236
  17   2.0000      -8.081371      -219.9053
  18   2.0000      -6.040551      -164.3717
  19   2.0000      -6.039748      -164.3499
  20   2.0000      -6.036450      -164.2602
  21   2.0000      -6.035705      -164.2399
  22   2.0000      -6.032955      -164.1651
  23   2.0000      -6.032117      -164.1422
  24   2.0000      -1.013531       -27.5796
  25   2.0000      -0.991532       -26.9810
  26   2.0000      -0.916131       -24.9292
  27   2.0000      -0.912706       -24.8360
  28   2.0000      -0.869685       -23.6653
  29   2.0000      -0.853960       -23.2374
  30   2.0000      -0.843183       -22.9442
  31   2.0000      -0.811147       -22.0724
  32   2.0000      -0.782639       -21.2967
  33   2.0000      -0.772520       -21.0213
  34   2.0000      -0.704515       -19.1708
  35   2.0000      -0.697123       -18.9697
  36   2.0000      -0.695648       -18.9295
  37   2.0000      -0.661857       -18.0100
  38   2.0000      -0.636006       -17.3066
  39   2.0000      -0.620470       -16.8839
  40   2.0000      -0.605093       -16.4654
  41   2.0000      -0.570670       -15.5287
  42   2.0000      -0.568103       -15.4589
  43   2.0000      -0.553832       -15.0705
  44   2.0000      -0.538367       -14.6497
  45   2.0000      -0.526153       -14.3174
  46   2.0000      -0.519777       -14.1439
  47   2.0000      -0.516452       -14.0534
  48   2.0000      -0.503286       -13.6951
  49   2.0000      -0.496856       -13.5201
  50   2.0000      -0.487989       -13.2789
  51   2.0000      -0.478309       -13.0154
  52   2.0000      -0.470206       -12.7950
  53   2.0000      -0.460961       -12.5434
  54   2.0000      -0.454871       -12.3777
  55   2.0000      -0.450974       -12.2716
  56   2.0000      -0.441569       -12.0157
  57   2.0000      -0.437854       -11.9146
  58   2.0000      -0.432948       -11.7811
  59   2.0000      -0.430169       -11.7055
  60   2.0000      -0.420407       -11.4398
  61   2.0000      -0.419203       -11.4071
  62   2.0000      -0.415003       -11.2928
  63   2.0000      -0.345876        -9.4118
  64   2.0000      -0.332415        -9.0455
  65   2.0000      -0.327134        -8.9018
  66   2.0000      -0.297551        -8.0968
  67   0.0000       0.034702         0.9443
  68   0.0000       0.071553         1.9471
  69   0.0000       0.116792         3.1781
  70   0.0000       0.119982         3.2649
  71   0.0000       0.127561         3.4711

MULLIKEN ATOMIC CHARGES
-----------------------
   0 S :    0.114352
   1 C :   -0.110132
   2 C :   -0.102539
   3 C :   -0.010659
   4 C :   -0.166163
   5 H :    0.039040
   6 C :    0.098749
   7 H :    0.002317
   8 H :    0.035290
   9 C :   -0.079548
  10 H :    0.019147
  11 H :    0.045966
  12 C :   -0.093111
  13 H :    0.031792
  14 H :    0.058513
  15 H :    0.025677
  16 S :    0.119728
  17 C :   -0.086605
  18 C :   -0.040629
  19 C :   -0.006368
  20 C :   -0.163308
  21 H :    0.016296
  22 C :    0.056775
  23 H :    0.043446
  24 H :    0.016161
  25 C :   -0.099837
  26 H :    0.038501
  27 H :    0.028976
  28 C :   -0.074687
  29 H :    0.038760
  30 H :    0.039096
  31 H :    0.048951
  32 H :    0.051171
  33 H :    0.064881
Sum of atomic charges:    0.0000000

LOEWDIN ATOMIC CHARGES
----------------------
   0 S :    0.412768
   1 C :   -0.201464
   2 C :   -0.072236
   3 C :   -0.071860
   4 C :   -0.199310
   5 H :    0.039752
   6 C :   -0.036785
   7 H :    0.027595
   8 H :    0.032497
   9 C :   -0.037876
  10 H :    0.012878
  11 H :    0.033518
  12 C :   -0.071329
  13 H :    0.027159
  14 H :    0.030896
  15 H :    0.018815
  16 S :    0.429155
  17 C :   -0.201535
  18 C :   -0.075048
  19 C :   -0.053273
  20 C :   -0.195480
  21 H :    0.028459
  22 C :   -0.036806
  23 H :    0.035849
  24 H :    0.034798
  25 C :   -0.040300
  26 H :    0.025695
  27 H :    0.017691
  28 C :   -0.070174
  29 H :    0.031928
  30 H :    0.023517
  31 H :    0.031491
  32 H :    0.035017
  33 H :    0.033995

  Mayer bond orders larger than 0.100000
B(  0-S ,  1-C ) :   1.1416 B(  0-S ,  4-C ) :   1.1594 B(  1-C ,  2-C ) :   1.5774
B(  1-C , 32-H ) :   0.9662 B(  2-C ,  3-C ) :   1.2503 B(  2-C ,  6-C ) :   1.0533
B(  3-C ,  4-C ) :   1.5619 B(  3-C ,  5-H ) :   0.9781 B(  4-C , 20-C ) :   1.0178
B(  6-C ,  7-H ) :   0.9333 B(  6-C ,  8-H ) :   0.9332 B(  6-C ,  9-C ) :   1.0593
B(  9-C , 10-H ) :   0.9562 B(  9-C , 11-H ) :   0.9587 B(  9-C , 12-C ) :   1.0710
B( 12-C , 13-H ) :   0.9768 B( 12-C , 14-H ) :   0.9727 B( 12-C , 15-H ) :   0.9748
B( 16-S , 17-C ) :   1.1701 B( 16-S , 20-C ) :   1.1468 B( 17-C , 18-C ) :   1.6018
B( 17-C , 33-H ) :   0.9676 B( 18-C , 19-C ) :   1.2298 B( 18-C , 21-H ) :   0.9866
B( 19-C , 20-C ) :   1.6178 B( 19-C , 22-C ) :   1.0693 B( 22-C , 23-H ) :   0.9291
B( 22-C , 24-H ) :   0.9212 B( 22-C , 25-C ) :   1.0544 B( 25-C , 26-H ) :   0.9531
B( 25-C , 27-H ) :   0.9519 B( 25-C , 28-C ) :   1.0794 B( 28-C , 29-H ) :   0.9736
B( 28-C , 30-H ) :   0.9751 B( 28-C , 31-H ) :   0.9747

Dispersion correction           -0.015001085
FINAL SINGLE POINT ENERGY     -1339.884189668533

DIPOLE MOMENT
-------------
                                X             Y             Z
Electronic contribution:     18.65655      14.42619      13.33124
Nuclear contribution   :    -19.36831     -14.77557     -13.42360
                        -----------------------------------------
Total Dipole Moment    :     -0.71176      -0.34938      -0.09235
                        -----------------------------------------
Magnitude (a.u.)       :      0.79825
Magnitude (Debye)      :      2.02899

Rotational constants in cm-1:     0.016500     0.009956     0.007582
Rotational constants in MHz :   494.662928   298.463442   227.312372

                             ****ORCA TERMINATED NORMALLY****
TOTAL RUN TIME: 0 days 0 hours 0 minutes 22 seconds 342 msec
