                         Program Version 4.2.1 -  RELEASE  -
|  1> ! wB97X-D3 SP def2-SVP
|  2> %pal
|  3> nprocs 24
|  4> end
|  5>
|  6> * xyz 0 1
|  7> S 	 -4.11264 	 -18.9158 	 -105.948
|  8> C 	 -4.42256 	 -20.2902 	 -104.911
|  9> C 	 -4.67511 	 -19.8403 	 -103.628
| 10> C 	 -4.748 	 -18.3918 	 -103.54
| 11> C 	 -4.60554 	 -17.7502 	 -104.759
| 12> H 	 -4.90933 	 -17.7128 	 -102.679
| 13> C 	 -4.77619 	 -20.8267 	 -102.457
| 14> H 	 -4.78221 	 -21.8392 	 -102.935
| 15> H 	 -5.75157 	 -20.6544 	 -102.002
| 16> C 	 -3.6846 	 -20.6973 	 -101.455
| 17> H 	 -2.70833 	 -21.0732 	 -101.837
| 18> H 	 -3.534 	 -19.6665 	 -101.196
| 19> C 	 -3.94831 	 -21.4678 	 -100.175
| 20> H 	 -4.02351 	 -22.5028 	 -100.303
| 21> H 	 -3.18783 	 -21.2938 	 -99.4165
| 22> H 	 -4.93903 	 -21.1823 	 -99.7514
| 23> S 	 -2.64975 	 -15.7554 	 -105.003
| 24> C 	 -3.11789 	 -14.1279 	 -105.224
| 25> C 	 -4.4865 	 -13.9936 	 -105.094
| 26> C 	 -5.17362 	 -15.2103 	 -104.963
| 27> C 	 -4.31659 	 -16.3314 	 -104.988
| 28> H 	 -4.80492 	 -12.9382 	 -105.024
| 29> C 	 -6.65486 	 -15.2271 	 -104.807
| 30> H 	 -6.94939 	 -16.1732 	 -105.268
| 31> H 	 -7.08955 	 -14.3212 	 -105.316
| 32> C 	 -7.28925 	 -15.1925 	 -103.356
| 33> H 	 -6.97744 	 -15.9568 	 -102.595
| 34> H 	 -8.33942 	 -15.4006 	 -103.369
| 35> C 	 -6.83461 	 -13.8915 	 -102.723
| 36> H 	 -5.85773 	 -13.9763 	 -102.318
| 37> H 	 -7.42686 	 -13.6618 	 -101.83
| 38> H 	 -6.87553 	 -13.053 	 -103.459
| 39> H 	 -4.41334 	 -21.3038 	 -105.175
| 40> H 	 -2.45526 	 -13.2186 	 -105.322
| 41> *
| 42>
| 43>                          ****END OF INPUT****

CARTESIAN COORDINATES (ANGSTROEM)
---------------------------------
  S     -4.112640  -18.915800  -105.948000
  C     -4.422560  -20.290200  -104.911000
  C     -4.675110  -19.840300  -103.628000
  C     -4.748000  -18.391800  -103.540000
  C     -4.605540  -17.750200  -104.759000
  H     -4.909330  -17.712800  -102.679000
  C     -4.776190  -20.826700  -102.457000
  H     -4.782210  -21.839200  -102.935000
  H     -5.751570  -20.654400  -102.002000
  C     -3.684600  -20.697300  -101.455000
  H     -2.708330  -21.073200  -101.837000
  H     -3.534000  -19.666500  -101.196000
  C     -3.948310  -21.467800  -100.175000
  H     -4.023510  -22.502800  -100.303000
  H     -3.187830  -21.293800  -99.416500
  H     -4.939030  -21.182300  -99.751400
  S     -2.649750  -15.755400  -105.003000
  C     -3.117890  -14.127900  -105.224000
  C     -4.486500  -13.993600  -105.094000
  C     -5.173620  -15.210300  -104.963000
  C     -4.316590  -16.331400  -104.988000
  H     -4.804920  -12.938200  -105.024000
  C     -6.654860  -15.227100  -104.807000
  H     -6.949390  -16.173200  -105.268000
  H     -7.089550  -14.321200  -105.316000
  C     -7.289250  -15.192500  -103.356000
  H     -6.977440  -15.956800  -102.595000
  H     -8.339420  -15.400600  -103.369000
  C     -6.834610  -13.891500  -102.723000
  H     -5.857730  -13.976300  -102.318000
  H     -7.426860  -13.661800  -101.830000
  H     -6.875530  -13.053000  -103.459000
  H     -4.413340  -21.303800  -105.175000
  H     -2.455260  -13.218600  -105.322000

 Total Charge           Charge          ....    0
 Multiplicity           Mult            ....    1
 Number of Electrons    NEL             ....  134
 Basis Dimension        Dim             ....  322

ORBITAL ENERGIES
----------------

  NO   OCC          E(Eh)            E(eV)
   0   2.0000     -88.966592     -2420.9040
   1   2.0000     -88.962377     -2420.7893
   2   2.0000     -10.328803      -281.0610
   3   2.0000     -10.328188      -281.0443
   4   2.0000     -10.316961      -280.7388
   5   2.0000     -10.313577      -280.6467
   6   2.0000     -10.305520      -280.4275
   7   2.0000     -10.302851      -280.3548
   8   2.0000     -10.302425      -280.3432
   9   2.0000     -10.294837      -280.1368
  10   2.0000     -10.294317      -280.1226
  11   2.0000     -10.289476      -279.9909
  12   2.0000     -10.288218      -279.9566
  13   2.0000     -10.284010      -279.8421
  14   2.0000     -10.274215      -279.5756
  15   2.0000     -10.273961      -279.5687
  16   2.0000      -8.081577      -219.9109
  17   2.0000      -8.077544      -219.8011
  18   2.0000      -6.039977      -164.3561
  19   2.0000      -6.036084      -164.2502
  20   2.0000      -6.035992      -164.2477
  21   2.0000      -6.032482      -164.1522
  22   2.0000      -6.031896      -164.1362
  23   2.0000      -6.028300      -164.0384
  24   2.0000      -1.008220       -27.4351
  25   2.0000      -0.987201       -26.8631
  26   2.0000      -0.918108       -24.9830
  27   2.0000      -0.908046       -24.7092
  28   2.0000      -0.872294       -23.7363
  29   2.0000      -0.850833       -23.1523
  30   2.0000      -0.843752       -22.9596
  31   2.0000      -0.816782       -22.2258
  32   2.0000      -0.782074       -21.2813
  33   2.0000      -0.769330       -20.9345
  34   2.0000      -0.712210       -19.3802
  35   2.0000      -0.699454       -19.0331
  36   2.0000      -0.690158       -18.7802
  37   2.0000      -0.653035       -17.7700
  38   2.0000      -0.648697       -17.6520
  39   2.0000      -0.614547       -16.7227
  40   2.0000      -0.586277       -15.9534
  41   2.0000      -0.573062       -15.5938
  42   2.0000      -0.568022       -15.4567
  43   2.0000      -0.555411       -15.1135
  44   2.0000      -0.541827       -14.7439
  45   2.0000      -0.529210       -14.4005
  46   2.0000      -0.518277       -14.1030
  47   2.0000      -0.512978       -13.9588
  48   2.0000      -0.508995       -13.8505
  49   2.0000      -0.499667       -13.5966
  50   2.0000      -0.484822       -13.1927
  51   2.0000      -0.479480       -13.0473
  52   2.0000      -0.473301       -12.8792
  53   2.0000      -0.468978       -12.7615
  54   2.0000      -0.454655       -12.3718
  55   2.0000      -0.448491       -12.2041
  56   2.0000      -0.440877       -11.9969
  57   2.0000      -0.438019       -11.9191
  58   2.0000      -0.431045       -11.7293
  59   2.0000      -0.426502       -11.6057
  60   2.0000      -0.420367       -11.4388
  61   2.0000      -0.412875       -11.2349
  62   2.0000      -0.408265       -11.1094
  63   2.0000      -0.338960        -9.2236
  64   2.0000      -0.327429        -8.9098
  65   2.0000      -0.324021        -8.8171
  66   2.0000      -0.305298        -8.3076
  67   0.0000       0.036198         0.9850
  68   0.0000       0.054605         1.4859
  69   0.0000       0.116799         3.1783
  70   0.0000       0.125754         3.4219
  71   0.0000       0.132437         3.6038

MULLIKEN ATOMIC CHARGES
-----------------------
   0 S :    0.101270
   1 C :   -0.086104
   2 C :   -0.108763
   3 C :    0.035712
   4 C :   -0.181604
   5 H :    0.030094
   6 C :    0.080332
   7 H :    0.019836
   8 H :    0.027970
   9 C :   -0.062697
  10 H :    0.030042
  11 H :    0.025629
  12 C :   -0.033129
  13 H :    0.015920
  14 H :    0.035829
  15 H :    0.019833
  16 S :    0.128667
  17 C :   -0.120359
  18 C :   -0.066940
  19 C :   -0.005873
  20 C :   -0.164617
  21 H :    0.027964
  22 C :    0.036643
  23 H :    0.035750
  24 H :    0.044065
  25 C :   -0.058154
  26 H :    0.022340
  27 H :    0.029637
  28 C :   -0.057479
  29 H :    0.036143
  30 H :    0.026866
  31 H :    0.027738
  32 H :    0.031154
  33 H :    0.076286
Sum of atomic charges:    0.0000000

LOEWDIN ATOMIC CHARGES
----------------------
   0 S :    0.413339
   1 C :   -0.185780
   2 C :   -0.062495
   3 C :   -0.059754
   4 C :   -0.208811
   5 H :    0.037171
   6 C :   -0.029765
   7 H :    0.033250
   8 H :    0.029661
   9 C :   -0.042687
  10 H :    0.030243
  11 H :    0.022596
  12 C :   -0.061863
  13 H :    0.015224
  14 H :    0.027758
  15 H :    0.025001
  16 S :    0.427722
  17 C :   -0.210065
  18 C :   -0.086751
  19 C :   -0.057113
  20 C :   -0.209939
  21 H :    0.037517
  22 C :   -0.031947
  23 H :    0.033587
  24 H :    0.038877
  25 C :   -0.041904
  26 H :    0.027689
  27 H :    0.020735
  28 C :   -0.067620
  29 H :    0.022989
  30 H :    0.025847
  31 H :    0.021439
  32 H :    0.020586
  33 H :    0.045262

  Mayer bond orders larger than 0.100000
B(  0-S ,  1-C ) :   1.1450 B(  0-S ,  4-C ) :   1.1574 B(  1-C ,  2-C ) :   1.6092
B(  1-C , 32-H ) :   0.9772 B(  2-C ,  3-C ) :   1.2229 B(  2-C ,  6-C ) :   1.0214
B(  3-C ,  4-C ) :   1.5850 B(  3-C ,  5-H ) :   0.9868 B(  4-C , 20-C ) :   1.0137
B(  6-C ,  7-H ) :   0.9378 B(  6-C ,  8-H ) :   0.9375 B(  6-C ,  9-C ) :   1.0744
B(  9-C , 10-H ) :   0.9485 B(  9-C , 11-H ) :   0.9567 B(  9-C , 12-C ) :   1.0878
B( 12-C , 13-H ) :   0.9738 B( 12-C , 14-H ) :   0.9736 B( 12-C , 15-H ) :   0.9728
B( 16-S , 17-C ) :   1.1794 B( 16-S , 20-C ) :   1.1564 B( 17-C , 18-C ) :   1.5943
B( 17-C , 20-C ) :   0.1047 B( 17-C , 33-H ) :   0.9557 B( 18-C , 19-C ) :   1.2620
B( 18-C , 21-H ) :   0.9892 B( 19-C , 20-C ) :   1.5562 B( 19-C , 22-C ) :   1.0490
B( 22-C , 23-H ) :   0.9242 B( 22-C , 24-H ) :   0.9461 B( 22-C , 25-C ) :   1.0646
B( 25-C , 26-H ) :   0.9534 B( 25-C , 27-H ) :   0.9616 B( 25-C , 28-C ) :   1.0676
B( 28-C , 29-H ) :   0.9727 B( 28-C , 30-H ) :   0.9696 B( 28-C , 31-H ) :   0.9762

Dispersion correction           -0.014340161
FINAL SINGLE POINT ENERGY     -1339.873384453439

DIPOLE MOMENT
-------------
                                X             Y             Z
Electronic contribution:     12.27544       2.94565     -21.96462
Nuclear contribution   :    -12.46579      -2.94794      22.60660
                        -----------------------------------------
Total Dipole Moment    :     -0.19035      -0.00229       0.64198
                        -----------------------------------------
Magnitude (a.u.)       :      0.66961
Magnitude (Debye)      :      1.70200

Rotational constants in cm-1:     0.019111     0.008019     0.006947
Rotational constants in MHz :   572.935471   240.397510   208.277266

                             ****ORCA TERMINATED NORMALLY****
TOTAL RUN TIME: 0 days 0 hours 0 minutes 21 seconds 542 msec
