                         Program Version 4.2.1 -  RELEASE  -
|  1> ! wB97X-D3 SP def2-SVP
|  2> %pal
|  3> nprocs 24
|  4> end
|  5>
|  6> * xyz 0 1
|  7> S 	 -49.8781 	 13.965 	 26.4379
|  8> C 	 -49.9731 	 12.1953 	 26.4764
|  9> C 	 -48.7246 	 11.553 	 26.3701
| 10> C 	 -47.6777 	 12.5077 	 26.1189
| 11> C 	 -48.0814 	 13.8078 	 26.2679
| 12> H 	 -46.6346 	 12.3059 	 25.9631
| 13> C 	 -48.4201 	 10.0565 	 26.275
| 14> H 	 -49.2956 	 9.4911 	 26.7945
| 15> H 	 -47.493 	 9.7153 	 26.8045
| 16> C 	 -48.4045 	 9.5478 	 24.7939
| 17> H 	 -49.0695 	 10.1125 	 24.1002
| 18> H 	 -47.3535 	 9.83788 	 24.5645
| 19> C 	 -48.6168 	 8.0881 	 24.477
| 20> H 	 -47.7601 	 7.46723 	 24.8147
| 21> H 	 -49.4978 	 7.61062 	 24.945
| 22> H 	 -48.7796 	 7.86668 	 23.4322
| 23> S 	 -47.2124 	 16.1836 	 27.2807
| 24> C 	 -45.733 	 16.8565 	 26.627
| 25> C 	 -45.2539 	 16.0347 	 25.6018
| 26> C 	 -46.18 	 15.051 	 25.1819
| 27> C 	 -47.2674 	 14.9526 	 26.0348
| 28> H 	 -44.2699 	 16.2963 	 25.1491
| 29> C 	 -45.9186 	 14.1728 	 23.981
| 30> H 	 -46.7588 	 13.5838 	 23.7315
| 31> H 	 -45.1375 	 13.4993 	 24.3959
| 32> C 	 -45.7072 	 14.8255 	 22.6183
| 33> H 	 -44.8483 	 15.4529 	 22.6731
| 34> H 	 -46.6091 	 15.369 	 22.2259
| 35> C 	 -45.3779 	 13.753 	 21.5525
| 36> H 	 -44.2266 	 13.7864 	 21.3512
| 37> H 	 -45.9049 	 14.0018 	 20.616
| 38> H 	 -45.6702 	 12.7134 	 21.8124
| 39> H 	 -50.9022 	 11.7087 	 26.4815
| 40> H 	 -45.2341 	 17.6463 	 27.1166
| 41> *
| 42>
| 43>                          ****END OF INPUT****

CARTESIAN COORDINATES (ANGSTROEM)
---------------------------------
  S    -49.878100   13.965000   26.437900
  C    -49.973100   12.195300   26.476400
  C    -48.724600   11.553000   26.370100
  C    -47.677700   12.507700   26.118900
  C    -48.081400   13.807800   26.267900
  H    -46.634600   12.305900   25.963100
  C    -48.420100   10.056500   26.275000
  H    -49.295600    9.491100   26.794500
  H    -47.493000    9.715300   26.804500
  C    -48.404500    9.547800   24.793900
  H    -49.069500   10.112500   24.100200
  H    -47.353500    9.837880   24.564500
  C    -48.616800    8.088100   24.477000
  H    -47.760100    7.467230   24.814700
  H    -49.497800    7.610620   24.945000
  H    -48.779600    7.866680   23.432200
  S    -47.212400   16.183600   27.280700
  C    -45.733000   16.856500   26.627000
  C    -45.253900   16.034700   25.601800
  C    -46.180000   15.051000   25.181900
  C    -47.267400   14.952600   26.034800
  H    -44.269900   16.296300   25.149100
  C    -45.918600   14.172800   23.981000
  H    -46.758800   13.583800   23.731500
  H    -45.137500   13.499300   24.395900
  C    -45.707200   14.825500   22.618300
  H    -44.848300   15.452900   22.673100
  H    -46.609100   15.369000   22.225900
  C    -45.377900   13.753000   21.552500
  H    -44.226600   13.786400   21.351200
  H    -45.904900   14.001800   20.616000
  H    -45.670200   12.713400   21.812400
  H    -50.902200   11.708700   26.481500
  H    -45.234100   17.646300   27.116600

 Total Charge           Charge          ....    0
 Multiplicity           Mult            ....    1
 Number of Electrons    NEL             ....  134
 Basis Dimension        Dim             ....  322

ORBITAL ENERGIES
----------------

  NO   OCC          E(Eh)            E(eV)
   0   2.0000     -88.966842     -2420.9108
   1   2.0000     -88.962222     -2420.7851
   2   2.0000     -10.327497      -281.0255
   3   2.0000     -10.319560      -280.8095
   4   2.0000     -10.317357      -280.7496
   5   2.0000     -10.317273      -280.7473
   6   2.0000     -10.309188      -280.5273
   7   2.0000     -10.308250      -280.5017
   8   2.0000     -10.301351      -280.3140
   9   2.0000     -10.298373      -280.2330
  10   2.0000     -10.293620      -280.1036
  11   2.0000     -10.293227      -280.0929
  12   2.0000     -10.289192      -279.9832
  13   2.0000     -10.288931      -279.9760
  14   2.0000     -10.288599      -279.9670
  15   2.0000     -10.281466      -279.7729
  16   2.0000      -8.080451      -219.8803
  17   2.0000      -8.077287      -219.7942
  18   2.0000      -6.038984      -164.3291
  19   2.0000      -6.035643      -164.2382
  20   2.0000      -6.035365      -164.2306
  21   2.0000      -6.031684      -164.1305
  22   2.0000      -6.031021      -164.1124
  23   2.0000      -6.028255      -164.0372
  24   2.0000      -1.005292       -27.3554
  25   2.0000      -0.976931       -26.5836
  26   2.0000      -0.911767       -24.8105
  27   2.0000      -0.905077       -24.6284
  28   2.0000      -0.870515       -23.6879
  29   2.0000      -0.853648       -23.2290
  30   2.0000      -0.845850       -23.0167
  31   2.0000      -0.810874       -22.0650
  32   2.0000      -0.780629       -21.2420
  33   2.0000      -0.768898       -20.9228
  34   2.0000      -0.703323       -19.1384
  35   2.0000      -0.697991       -18.9933
  36   2.0000      -0.693169       -18.8621
  37   2.0000      -0.658462       -17.9177
  38   2.0000      -0.644571       -17.5397
  39   2.0000      -0.619153       -16.8480
  40   2.0000      -0.602803       -16.4031
  41   2.0000      -0.570335       -15.5196
  42   2.0000      -0.568357       -15.4658
  43   2.0000      -0.547897       -14.9090
  44   2.0000      -0.527539       -14.3551
  45   2.0000      -0.521826       -14.1996
  46   2.0000      -0.520468       -14.1626
  47   2.0000      -0.510667       -13.8960
  48   2.0000      -0.509177       -13.8554
  49   2.0000      -0.494036       -13.4434
  50   2.0000      -0.488525       -13.2934
  51   2.0000      -0.484394       -13.1810
  52   2.0000      -0.473537       -12.8856
  53   2.0000      -0.464086       -12.6284
  54   2.0000      -0.455433       -12.3930
  55   2.0000      -0.445683       -12.1277
  56   2.0000      -0.442637       -12.0448
  57   2.0000      -0.435253       -11.8438
  58   2.0000      -0.432250       -11.7621
  59   2.0000      -0.425712       -11.5842
  60   2.0000      -0.421709       -11.4753
  61   2.0000      -0.407534       -11.0896
  62   2.0000      -0.405788       -11.0420
  63   2.0000      -0.348302        -9.4778
  64   2.0000      -0.331934        -9.0324
  65   2.0000      -0.329359        -8.9623
  66   2.0000      -0.284713        -7.7474
  67   0.0000       0.025297         0.6884
  68   0.0000       0.065156         1.7730
  69   0.0000       0.104856         2.8533
  70   0.0000       0.116413         3.1678
  71   0.0000       0.127771         3.4768

MULLIKEN ATOMIC CHARGES
-----------------------
   0 S :    0.097132
   1 C :   -0.103559
   2 C :   -0.050675
   3 C :    0.003547
   4 C :   -0.128893
   5 H :    0.012817
   6 C :    0.007165
   7 H :    0.032532
   8 H :    0.050614
   9 C :   -0.087101
  10 H :    0.043880
  11 H :    0.025612
  12 C :   -0.047835
  13 H :    0.030862
  14 H :    0.028349
  15 H :    0.033799
  16 S :    0.093701
  17 C :   -0.087992
  18 C :   -0.051754
  19 C :   -0.062084
  20 C :   -0.113794
  21 H :    0.036518
  22 C :    0.025089
  23 H :    0.026191
  24 H :    0.048911
  25 C :   -0.045734
  26 H :    0.019766
  27 H :    0.053110
  28 C :   -0.097879
  29 H :    0.047182
  30 H :    0.038972
  31 H :    0.038225
  32 H :    0.033128
  33 H :    0.050198
Sum of atomic charges:   -0.0000000

LOEWDIN ATOMIC CHARGES
----------------------
   0 S :    0.368199
   1 C :   -0.175356
   2 C :   -0.057165
   3 C :   -0.053340
   4 C :   -0.172107
   5 H :    0.031153
   6 C :   -0.040133
   7 H :    0.033142
   8 H :    0.036144
   9 C :   -0.051334
  10 H :    0.030298
  11 H :    0.026521
  12 C :   -0.075101
  13 H :    0.027479
  14 H :    0.026274
  15 H :    0.028156
  16 S :    0.404219
  17 C :   -0.175448
  18 C :   -0.073096
  19 C :   -0.058367
  20 C :   -0.207314
  21 H :    0.037678
  22 C :   -0.039785
  23 H :    0.026961
  24 H :    0.038741
  25 C :   -0.037379
  26 H :    0.015339
  27 H :    0.037045
  28 C :   -0.075065
  29 H :    0.036606
  30 H :    0.027118
  31 H :    0.024301
  32 H :    0.015356
  33 H :    0.020262

  Mayer bond orders larger than 0.100000
B(  0-S ,  1-C ) :   1.1367 B(  0-S ,  4-C ) :   1.1144 B(  1-C ,  2-C ) :   1.6211
B(  1-C , 32-H ) :   0.9734 B(  2-C ,  3-C ) :   1.2026 B(  2-C ,  6-C ) :   1.0362
B(  3-C ,  4-C ) :   1.6241 B(  3-C ,  5-H ) :   0.9905 B(  4-C , 20-C ) :   1.0371
B(  6-C ,  7-H ) :   0.9458 B(  6-C ,  8-H ) :   0.9490 B(  6-C ,  9-C ) :   1.0270
B(  9-C , 10-H ) :   0.9630 B(  9-C , 11-H ) :   0.9560 B(  9-C , 12-C ) :   1.0881
B( 12-C , 13-H ) :   0.9732 B( 12-C , 14-H ) :   0.9723 B( 12-C , 15-H ) :   0.9741
B( 16-S , 17-C ) :   1.1686 B( 16-S , 20-C ) :   1.1373 B( 17-C , 18-C ) :   1.5815
B( 17-C , 20-C ) :   0.1005 B( 17-C , 33-H ) :   0.9767 B( 18-C , 19-C ) :   1.2524
B( 18-C , 21-H ) :   0.9863 B( 19-C , 20-C ) :   1.5824 B( 19-C , 22-C ) :   1.0270
B( 22-C , 23-H ) :   0.9370 B( 22-C , 24-H ) :   0.9368 B( 22-C , 25-C ) :   1.0594
B( 25-C , 26-H ) :   0.9597 B( 25-C , 27-H ) :   0.9619 B( 25-C , 28-C ) :   1.0615
B( 28-C , 29-H ) :   0.9801 B( 28-C , 30-H ) :   0.9803 B( 28-C , 31-H ) :   0.9758

Dispersion correction           -0.013883434
FINAL SINGLE POINT ENERGY     -1339.859847815330

DIPOLE MOMENT
-------------
                                X             Y             Z
Electronic contribution:     -9.45476      23.21091      20.90913
Nuclear contribution   :      9.92401     -23.71263     -21.37809
                        -----------------------------------------
Total Dipole Moment    :      0.46925      -0.50173      -0.46896
                        -----------------------------------------
Magnitude (a.u.)       :      0.83177
Magnitude (Debye)      :      2.11420

Rotational constants in cm-1:     0.016544     0.009061     0.006519
Rotational constants in MHz :   495.973448   271.644862   195.440618

                             ****ORCA TERMINATED NORMALLY****
TOTAL RUN TIME: 0 days 0 hours 0 minutes 20 seconds 421 msec
