                         Program Version 4.2.1 -  RELEASE  -
|  1> ! wB97X-D3 SP def2-SVP
|  2> %pal
|  3> nprocs 24
|  4> end
|  5>
|  6> * xyz 0 1
|  7> S 	 -41.6606 	 -50.0538 	 -70.8271
|  8> C 	 -40.0096 	 -49.5763 	 -70.4104
|  9> C 	 -39.9037 	 -49.2451 	 -69.081
| 10> C 	 -41.1785 	 -49.3908 	 -68.4267
| 11> C 	 -42.2731 	 -49.7639 	 -69.1967
| 12> H 	 -41.401 	 -49.2668 	 -67.3823
| 13> C 	 -38.5528 	 -48.8499 	 -68.3966
| 14> H 	 -37.825 	 -48.3615 	 -69.0037
| 15> H 	 -38.0199 	 -49.7177 	 -68.0768
| 16> C 	 -38.749 	 -47.9902 	 -67.1558
| 17> H 	 -39.475 	 -47.1072 	 -67.3206
| 18> H 	 -39.1675 	 -48.585 	 -66.2962
| 19> C 	 -37.4605 	 -47.2563 	 -66.6808
| 20> H 	 -37.7257 	 -46.4183 	 -66.0335
| 21> H 	 -36.703 	 -47.8583 	 -66.2873
| 22> H 	 -36.9186 	 -46.8273 	 -67.5552
| 23> S 	 -44.6999 	 -50.5881 	 -70.0778
| 24> C 	 -46.056 	 -50.6097 	 -69.0263
| 25> C 	 -45.7048 	 -50.111 	 -67.8114
| 26> C 	 -44.367 	 -49.8393 	 -67.6363
| 27> C 	 -43.6598 	 -49.9477 	 -68.8162
| 28> H 	 -46.426 	 -49.9965 	 -67.0388
| 29> C 	 -43.7992 	 -49.3162 	 -66.273
| 30> H 	 -44.6251 	 -49.081 	 -65.5514
| 31> H 	 -43.3407 	 -48.3579 	 -66.4038
| 32> C 	 -42.9752 	 -50.2767 	 -65.4491
| 33> H 	 -42.2604 	 -50.7828 	 -66.1092
| 34> H 	 -43.5713 	 -51.1245 	 -65.0671
| 35> C 	 -42.1087 	 -49.5978 	 -64.384
| 36> H 	 -41.6324 	 -48.6649 	 -64.783
| 37> H 	 -41.213 	 -50.1751 	 -64.0211
| 38> H 	 -42.7443 	 -49.3317 	 -63.5621
| 39> H 	 -39.1675 	 -49.6844 	 -71.0252
| 40> H 	 -47.0175 	 -50.7086 	 -69.2926
| 41> *
| 42>
| 43>                          ****END OF INPUT****

CARTESIAN COORDINATES (ANGSTROEM)
---------------------------------
  S    -41.660600  -50.053800  -70.827100
  C    -40.009600  -49.576300  -70.410400
  C    -39.903700  -49.245100  -69.081000
  C    -41.178500  -49.390800  -68.426700
  C    -42.273100  -49.763900  -69.196700
  H    -41.401000  -49.266800  -67.382300
  C    -38.552800  -48.849900  -68.396600
  H    -37.825000  -48.361500  -69.003700
  H    -38.019900  -49.717700  -68.076800
  C    -38.749000  -47.990200  -67.155800
  H    -39.475000  -47.107200  -67.320600
  H    -39.167500  -48.585000  -66.296200
  C    -37.460500  -47.256300  -66.680800
  H    -37.725700  -46.418300  -66.033500
  H    -36.703000  -47.858300  -66.287300
  H    -36.918600  -46.827300  -67.555200
  S    -44.699900  -50.588100  -70.077800
  C    -46.056000  -50.609700  -69.026300
  C    -45.704800  -50.111000  -67.811400
  C    -44.367000  -49.839300  -67.636300
  C    -43.659800  -49.947700  -68.816200
  H    -46.426000  -49.996500  -67.038800
  C    -43.799200  -49.316200  -66.273000
  H    -44.625100  -49.081000  -65.551400
  H    -43.340700  -48.357900  -66.403800
  C    -42.975200  -50.276700  -65.449100
  H    -42.260400  -50.782800  -66.109200
  H    -43.571300  -51.124500  -65.067100
  C    -42.108700  -49.597800  -64.384000
  H    -41.632400  -48.664900  -64.783000
  H    -41.213000  -50.175100  -64.021100
  H    -42.744300  -49.331700  -63.562100
  H    -39.167500  -49.684400  -71.025200
  H    -47.017500  -50.708600  -69.292600

 Total Charge           Charge          ....    0
 Multiplicity           Mult            ....    1
 Number of Electrons    NEL             ....  134
 Basis Dimension        Dim             ....  322

ORBITAL ENERGIES
----------------

  NO   OCC          E(Eh)            E(eV)
   0   2.0000     -88.967538     -2420.9298
   1   2.0000     -88.964988     -2420.8604
   2   2.0000     -10.333668      -281.1934
   3   2.0000     -10.331688      -281.1395
   4   2.0000     -10.312225      -280.6099
   5   2.0000     -10.308182      -280.4999
   6   2.0000     -10.305335      -280.4224
   7   2.0000     -10.303749      -280.3793
   8   2.0000     -10.298199      -280.2282
   9   2.0000     -10.297678      -280.2141
  10   2.0000     -10.295297      -280.1493
  11   2.0000     -10.294474      -280.1269
  12   2.0000     -10.287545      -279.9383
  13   2.0000     -10.285841      -279.8919
  14   2.0000     -10.285500      -279.8827
  15   2.0000     -10.278618      -279.6954
  16   2.0000      -8.082880      -219.9463
  17   2.0000      -8.079049      -219.8421
  18   2.0000      -6.041361      -164.3938
  19   2.0000      -6.037822      -164.2975
  20   2.0000      -6.037258      -164.2821
  21   2.0000      -6.033696      -164.1852
  22   2.0000      -6.033626      -164.1833
  23   2.0000      -6.029608      -164.0740
  24   2.0000      -1.014708       -27.6116
  25   2.0000      -0.986574       -26.8460
  26   2.0000      -0.912982       -24.8435
  27   2.0000      -0.910250       -24.7692
  28   2.0000      -0.875812       -23.8320
  29   2.0000      -0.857191       -23.3253
  30   2.0000      -0.839407       -22.8414
  31   2.0000      -0.818858       -22.2823
  32   2.0000      -0.786044       -21.3893
  33   2.0000      -0.779987       -21.2245
  34   2.0000      -0.715879       -19.4801
  35   2.0000      -0.697822       -18.9887
  36   2.0000      -0.693195       -18.8628
  37   2.0000      -0.671798       -18.2805
  38   2.0000      -0.647573       -17.6214
  39   2.0000      -0.619100       -16.8466
  40   2.0000      -0.606132       -16.4937
  41   2.0000      -0.569972       -15.5097
  42   2.0000      -0.567319       -15.4375
  43   2.0000      -0.564268       -15.3545
  44   2.0000      -0.529351       -14.4044
  45   2.0000      -0.525531       -14.3004
  46   2.0000      -0.519512       -14.1366
  47   2.0000      -0.515604       -14.0303
  48   2.0000      -0.507429       -13.8079
  49   2.0000      -0.503640       -13.7048
  50   2.0000      -0.496312       -13.5053
  51   2.0000      -0.489329       -13.3153
  52   2.0000      -0.474961       -12.9244
  53   2.0000      -0.470321       -12.7981
  54   2.0000      -0.459520       -12.5042
  55   2.0000      -0.448685       -12.2093
  56   2.0000      -0.441369       -12.0103
  57   2.0000      -0.438267       -11.9259
  58   2.0000      -0.436429       -11.8758
  59   2.0000      -0.427530       -11.6337
  60   2.0000      -0.419164       -11.4060
  61   2.0000      -0.410104       -11.1595
  62   2.0000      -0.404677       -11.0118
  63   2.0000      -0.366913        -9.9842
  64   2.0000      -0.341942        -9.3047
  65   2.0000      -0.328719        -8.9449
  66   2.0000      -0.282696        -7.6926
  67   0.0000       0.015624         0.4252
  68   0.0000       0.091209         2.4819
  69   0.0000       0.096403         2.6233
  70   0.0000       0.121081         3.2948
  71   0.0000       0.132632         3.6091

MULLIKEN ATOMIC CHARGES
-----------------------
   0 S :    0.087624
   1 C :   -0.096304
   2 C :   -0.054717
   3 C :   -0.004766
   4 C :   -0.094145
   5 H :   -0.030299
   6 C :    0.121514
   7 H :    0.010567
   8 H :    0.032232
   9 C :   -0.167188
  10 H :    0.048322
  11 H :    0.048380
  12 C :   -0.033938
  13 H :    0.042249
  14 H :    0.019901
  15 H :    0.020619
  16 S :    0.096991
  17 C :   -0.013897
  18 C :   -0.035367
  19 C :   -0.042728
  20 C :   -0.112095
  21 H :    0.000254
  22 C :    0.027825
  23 H :    0.019845
  24 H :    0.036352
  25 C :   -0.073858
  26 H :    0.024951
  27 H :    0.034557
  28 C :   -0.067179
  29 H :    0.033745
  30 H :    0.048275
  31 H :    0.032456
  32 H :    0.029044
  33 H :    0.010777
Sum of atomic charges:   -0.0000000

LOEWDIN ATOMIC CHARGES
----------------------
   0 S :    0.381794
   1 C :   -0.178402
   2 C :   -0.055336
   3 C :   -0.070485
   4 C :   -0.182340
   5 H :    0.024011
   6 C :   -0.026863
   7 H :    0.025874
   8 H :    0.032793
   9 C :   -0.051870
  10 H :    0.033598
  11 H :    0.026440
  12 C :   -0.067192
  13 H :    0.030298
  14 H :    0.013740
  15 H :    0.027341
  16 S :    0.421959
  17 C :   -0.175766
  18 C :   -0.064219
  19 C :   -0.058166
  20 C :   -0.181065
  21 H :    0.027150
  22 C :   -0.033361
  23 H :    0.035580
  24 H :    0.026444
  25 C :   -0.052635
  26 H :    0.020028
  27 H :    0.029340
  28 C :   -0.069824
  29 H :    0.027135
  30 H :    0.034750
  31 H :    0.021133
  32 H :    0.020478
  33 H :    0.007636

  Mayer bond orders larger than 0.100000
B(  0-S ,  1-C ) :   1.1306 B(  0-S ,  4-C ) :   1.1235 B(  1-C ,  2-C ) :   1.6323
B(  1-C , 32-H ) :   0.9738 B(  2-C ,  3-C ) :   1.2353 B(  2-C ,  6-C ) :   1.0074
B(  3-C ,  4-C ) :   1.5837 B(  3-C ,  5-H ) :   0.9888 B(  4-C , 20-C ) :   1.0951
B(  6-C ,  7-H ) :   0.9485 B(  6-C ,  8-H ) :   0.9302 B(  6-C ,  9-C ) :   1.0646
B(  9-C , 10-H ) :   0.9654 B(  9-C , 11-H ) :   0.9446 B(  9-C , 12-C ) :   1.0782
B( 12-C , 13-H ) :   0.9770 B( 12-C , 14-H ) :   0.9748 B( 12-C , 15-H ) :   0.9714
B( 16-S , 17-C ) :   1.1614 B( 16-S , 20-C ) :   1.1492 B( 17-C , 18-C ) :   1.5842
B( 17-C , 20-C ) :   0.1046 B( 17-C , 33-H ) :   0.9761 B( 18-C , 19-C ) :   1.3018
B( 18-C , 21-H ) :   0.9901 B( 19-C , 20-C ) :   1.5577 B( 19-C , 22-C ) :   1.0208
B( 22-C , 23-H ) :   0.9358 B( 22-C , 24-H ) :   0.9455 B( 22-C , 25-C ) :   1.0509
B( 25-C , 26-H ) :   0.9610 B( 25-C , 27-H ) :   0.9496 B( 25-C , 28-C ) :   1.0682
B( 28-C , 29-H ) :   0.9715 B( 28-C , 30-H ) :   0.9751 B( 28-C , 31-H ) :   0.9756

Dispersion correction           -0.014424970
FINAL SINGLE POINT ENERGY     -1339.869452802776

DIPOLE MOMENT
-------------
                                X             Y             Z
Electronic contribution:    -18.51751     -10.20749     -27.57629
Nuclear contribution   :     18.77768      10.38384      28.26748
                        -----------------------------------------
Total Dipole Moment    :      0.26017       0.17635       0.69119
                        -----------------------------------------
Magnitude (a.u.)       :      0.75930
Magnitude (Debye)      :      1.92998

Rotational constants in cm-1:     0.018456     0.009503     0.006499
Rotational constants in MHz :   553.290241   284.903006   194.840665

                             ****ORCA TERMINATED NORMALLY****
TOTAL RUN TIME: 0 days 0 hours 0 minutes 21 seconds 130 msec
