                         Program Version 4.2.1 -  RELEASE  -
|  1> ! wB97X-D3 SP def2-SVP
|  2> %pal
|  3> nprocs 24
|  4> end
|  5>
|  6> * xyz 0 1
|  7> S 	 -50.0311 	 13.3091 	 25.9186
|  8> C 	 -50.528 	 11.6516 	 25.7595
|  9> C 	 -49.4446 	 10.7831 	 25.6385
| 10> C 	 -48.1951 	 11.5042 	 25.4797
| 11> C 	 -48.3263 	 12.8993 	 25.5168
| 12> H 	 -47.302 	 10.9743 	 25.2486
| 13> C 	 -49.5735 	 9.26082 	 25.5732
| 14> H 	 -50.605 	 8.94439 	 25.7239
| 15> H 	 -48.9194 	 8.89953 	 26.3195
| 16> C 	 -49.3402 	 8.4914 	 24.2029
| 17> H 	 -50.0806 	 8.86941 	 23.4835
| 18> H 	 -48.3252 	 8.54199 	 23.7223
| 19> C 	 -49.4911 	 6.94302 	 24.3387
| 20> H 	 -50.4032 	 6.65057 	 24.8494
| 21> H 	 -49.5588 	 6.46228 	 23.3406
| 22> H 	 -48.6871 	 6.47379 	 24.8446
| 23> S 	 -46.9478 	 15.1427 	 26.3947
| 24> C 	 -45.7164 	 15.6901 	 25.3848
| 25> C 	 -45.7493 	 15.1634 	 24.1191
| 26> C 	 -46.6448 	 14.1396 	 23.9494
| 27> C 	 -47.3571 	 13.9017 	 25.1638
| 28> H 	 -45.0774 	 15.6166 	 23.4143
| 29> C 	 -46.7607 	 13.3261 	 22.6836
| 30> H 	 -47.707 	 12.7742 	 22.586
| 31> H 	 -45.9552 	 12.6251 	 22.7335
| 32> C 	 -46.6918 	 14.0919 	 21.351
| 33> H 	 -45.6207 	 14.3017 	 21.0673
| 34> H 	 -47.2088 	 15.0063 	 21.5245
| 35> C 	 -47.4215 	 13.4097 	 20.2512
| 36> H 	 -47.1041 	 12.3859 	 20.1066
| 37> H 	 -47.1538 	 13.9507 	 19.3439
| 38> H 	 -48.3903 	 13.3297 	 20.3559
| 39> H 	 -51.5445 	 11.2618 	 25.7755
| 40> H 	 -44.9975 	 16.4321 	 25.6421
| 41> *
| 42>
| 43>                          ****END OF INPUT****

CARTESIAN COORDINATES (ANGSTROEM)
---------------------------------
  S    -50.031100   13.309100   25.918600
  C    -50.528000   11.651600   25.759500
  C    -49.444600   10.783100   25.638500
  C    -48.195100   11.504200   25.479700
  C    -48.326300   12.899300   25.516800
  H    -47.302000   10.974300   25.248600
  C    -49.573500    9.260820   25.573200
  H    -50.605000    8.944390   25.723900
  H    -48.919400    8.899530   26.319500
  C    -49.340200    8.491400   24.202900
  H    -50.080600    8.869410   23.483500
  H    -48.325200    8.541990   23.722300
  C    -49.491100    6.943020   24.338700
  H    -50.403200    6.650570   24.849400
  H    -49.558800    6.462280   23.340600
  H    -48.687100    6.473790   24.844600
  S    -46.947800   15.142700   26.394700
  C    -45.716400   15.690100   25.384800
  C    -45.749300   15.163400   24.119100
  C    -46.644800   14.139600   23.949400
  C    -47.357100   13.901700   25.163800
  H    -45.077400   15.616600   23.414300
  C    -46.760700   13.326100   22.683600
  H    -47.707000   12.774200   22.586000
  H    -45.955200   12.625100   22.733500
  C    -46.691800   14.091900   21.351000
  H    -45.620700   14.301700   21.067300
  H    -47.208800   15.006300   21.524500
  C    -47.421500   13.409700   20.251200
  H    -47.104100   12.385900   20.106600
  H    -47.153800   13.950700   19.343900
  H    -48.390300   13.329700   20.355900
  H    -51.544500   11.261800   25.775500
  H    -44.997500   16.432100   25.642100

 Total Charge           Charge          ....    0
 Multiplicity           Mult            ....    1
 Number of Electrons    NEL             ....  134
 Basis Dimension        Dim             ....  322

ORBITAL ENERGIES
----------------

  NO   OCC          E(Eh)            E(eV)
   0   2.0000     -88.966874     -2420.9117
   1   2.0000     -88.963550     -2420.8213
   2   2.0000     -10.331454      -281.1332
   3   2.0000     -10.326581      -281.0006
   4   2.0000     -10.313645      -280.6486
   5   2.0000     -10.308048      -280.4962
   6   2.0000     -10.304622      -280.4030
   7   2.0000     -10.301833      -280.3271
   8   2.0000     -10.296911      -280.1932
   9   2.0000     -10.295984      -280.1680
  10   2.0000     -10.295659      -280.1591
  11   2.0000     -10.287038      -279.9245
  12   2.0000     -10.283327      -279.8236
  13   2.0000     -10.282573      -279.8030
  14   2.0000     -10.278799      -279.7003
  15   2.0000     -10.262434      -279.2550
  16   2.0000      -8.082247      -219.9291
  17   2.0000      -8.077819      -219.8086
  18   2.0000      -6.040398      -164.3676
  19   2.0000      -6.036778      -164.2691
  20   2.0000      -6.036457      -164.2603
  21   2.0000      -6.033232      -164.1726
  22   2.0000      -6.032423      -164.1506
  23   2.0000      -6.028436      -164.0421
  24   2.0000      -1.004758       -27.3409
  25   2.0000      -0.980076       -26.6692
  26   2.0000      -0.917576       -24.9685
  27   2.0000      -0.901810       -24.5395
  28   2.0000      -0.867123       -23.5956
  29   2.0000      -0.862854       -23.4795
  30   2.0000      -0.843945       -22.9649
  31   2.0000      -0.811987       -22.0953
  32   2.0000      -0.787991       -21.4423
  33   2.0000      -0.769091       -20.9280
  34   2.0000      -0.708761       -19.2864
  35   2.0000      -0.700489       -19.0613
  36   2.0000      -0.696269       -18.9464
  37   2.0000      -0.651054       -17.7161
  38   2.0000      -0.635859       -17.3026
  39   2.0000      -0.622631       -16.9427
  40   2.0000      -0.602941       -16.4069
  41   2.0000      -0.579436       -15.7672
  42   2.0000      -0.567969       -15.4552
  43   2.0000      -0.561652       -15.2833
  44   2.0000      -0.526420       -14.3246
  45   2.0000      -0.523409       -14.2427
  46   2.0000      -0.518126       -14.0989
  47   2.0000      -0.507560       -13.8114
  48   2.0000      -0.502837       -13.6829
  49   2.0000      -0.496806       -13.5188
  50   2.0000      -0.495332       -13.4787
  51   2.0000      -0.484319       -13.1790
  52   2.0000      -0.475624       -12.9424
  53   2.0000      -0.463228       -12.6051
  54   2.0000      -0.459188       -12.4951
  55   2.0000      -0.451015       -12.2727
  56   2.0000      -0.447600       -12.1798
  57   2.0000      -0.436787       -11.8856
  58   2.0000      -0.430612       -11.7175
  59   2.0000      -0.423227       -11.5166
  60   2.0000      -0.421005       -11.4561
  61   2.0000      -0.418362       -11.3842
  62   2.0000      -0.415781       -11.3140
  63   2.0000      -0.340056        -9.2534
  64   2.0000      -0.334996        -9.1157
  65   2.0000      -0.326263        -8.8781
  66   2.0000      -0.284718        -7.7476
  67   0.0000       0.032898         0.8952
  68   0.0000       0.055780         1.5178
  69   0.0000       0.115663         3.1473
  70   0.0000       0.123681         3.3655
  71   0.0000       0.132738         3.6120

MULLIKEN ATOMIC CHARGES
-----------------------
   0 S :    0.106006
   1 C :   -0.116325
   2 C :   -0.107686
   3 C :    0.059476
   4 C :   -0.151260
   5 H :    0.000710
   6 C :    0.081079
   7 H :    0.016495
   8 H :    0.030114
   9 C :   -0.100150
  10 H :    0.036988
  11 H :    0.036618
  12 C :   -0.062374
  13 H :    0.021352
  14 H :    0.037733
  15 H :    0.029572
  16 S :    0.124705
  17 C :   -0.067782
  18 C :   -0.062182
  19 C :    0.016358
  20 C :   -0.201044
  21 H :    0.009952
  22 C :    0.087496
  23 H :    0.028704
  24 H :    0.032790
  25 C :   -0.101876
  26 H :    0.036074
  27 H :    0.026370
  28 C :    0.018958
  29 H :    0.013252
  30 H :    0.029480
  31 H :    0.001953
  32 H :    0.047274
  33 H :    0.041171
Sum of atomic charges:   -0.0000000

LOEWDIN ATOMIC CHARGES
----------------------
   0 S :    0.385087
   1 C :   -0.201420
   2 C :   -0.067624
   3 C :   -0.050307
   4 C :   -0.184635
   5 H :    0.026373
   6 C :   -0.027588
   7 H :    0.031921
   8 H :    0.027340
   9 C :   -0.043179
  10 H :    0.024824
  11 H :    0.025609
  12 C :   -0.068527
  13 H :    0.018905
  14 H :    0.032380
  15 H :    0.018965
  16 S :    0.423559
  17 C :   -0.193980
  18 C :   -0.080707
  19 C :   -0.042060
  20 C :   -0.199047
  21 H :    0.031200
  22 C :   -0.029145
  23 H :    0.035060
  24 H :    0.031399
  25 C :   -0.039169
  26 H :    0.027008
  27 H :    0.022652
  28 C :   -0.050044
  29 H :    0.024482
  30 H :    0.033442
  31 H :    0.003321
  32 H :    0.030493
  33 H :    0.023415

  Mayer bond orders larger than 0.100000
B(  0-S ,  1-C ) :   1.1387 B(  0-S ,  4-C ) :   1.1269 B(  1-C ,  2-C ) :   1.6219
B(  1-C , 32-H ) :   0.9630 B(  2-C ,  3-C ) :   1.2257 B(  2-C ,  6-C ) :   1.0347
B(  3-C ,  4-C ) :   1.5724 B(  3-C ,  5-H ) :   1.0026 B(  4-C , 20-C ) :   1.0685
B(  6-C ,  7-H ) :   0.9447 B(  6-C ,  8-H ) :   0.9397 B(  6-C ,  9-C ) :   1.0451
B(  9-C , 10-H ) :   0.9607 B(  9-C , 11-H ) :   0.9586 B(  9-C , 12-C ) :   1.0739
B( 12-C , 13-H ) :   0.9753 B( 12-C , 14-H ) :   0.9745 B( 12-C , 15-H ) :   0.9786
B( 16-S , 17-C ) :   1.1853 B( 16-S , 20-C ) :   1.1487 B( 17-C , 18-C ) :   1.5823
B( 17-C , 20-C ) :   0.1138 B( 17-C , 33-H ) :   0.9655 B( 18-C , 19-C ) :   1.2655
B( 18-C , 21-H ) :   0.9977 B( 19-C , 20-C ) :   1.5341 B( 19-C , 22-C ) :   1.0420
B( 22-C , 23-H ) :   0.9390 B( 22-C , 24-H ) :   0.9219 B( 22-C , 25-C ) :   1.0634
B( 25-C , 26-H ) :   0.9474 B( 25-C , 27-H ) :   0.9589 B( 25-C , 28-C ) :   1.1078
B( 28-C , 29-H ) :   0.9670 B( 28-C , 30-H ) :   0.9685 B( 28-C , 31-H ) :   0.9687

Dispersion correction           -0.013398635
FINAL SINGLE POINT ENERGY     -1339.858735931619

DIPOLE MOMENT
-------------
                                X             Y             Z
Electronic contribution:     -0.72773      22.78522      21.96467
Nuclear contribution   :      0.96671     -23.22895     -22.54638
                        -----------------------------------------
Total Dipole Moment    :      0.23898      -0.44372      -0.58171
                        -----------------------------------------
Magnitude (a.u.)       :      0.76967
Magnitude (Debye)      :      1.95635

Rotational constants in cm-1:     0.016785     0.008249     0.006346
Rotational constants in MHz :   503.215253   247.296837   190.245394

                             ****ORCA TERMINATED NORMALLY****
TOTAL RUN TIME: 0 days 0 hours 0 minutes 21 seconds 39 msec
