                         Program Version 4.2.1 -  RELEASE  -
|  1> ! wB97X-D3 SP def2-SVP
|  2> %pal
|  3> nprocs 24
|  4> end
|  5>
|  6> * xyz 0 1
|  7> S 	 -89.2918 	 -43.5331 	 -83.9728
|  8> C 	 -90.8285 	 -42.6961 	 -83.79
|  9> C 	 -91.7144 	 -43.4995 	 -83.0802
| 10> C 	 -91.0661 	 -44.6655 	 -82.6017
| 11> C 	 -89.7111 	 -44.7304 	 -82.7976
| 12> H 	 -91.5533 	 -45.402 	 -81.9684
| 13> C 	 -93.1684 	 -43.2386 	 -82.8363
| 14> H 	 -93.2307 	 -42.1672 	 -82.6121
| 15> H 	 -93.5602 	 -43.7861 	 -81.9627
| 16> C 	 -94.0623 	 -43.6605 	 -84.059
| 17> H 	 -93.6832 	 -43.1383 	 -84.9681
| 18> H 	 -93.8641 	 -44.7348 	 -84.3463
| 19> C 	 -95.5631 	 -43.3126 	 -84.0403
| 20> H 	 -95.8352 	 -42.3163 	 -83.7638
| 21> H 	 -96.1101 	 -43.7116 	 -84.9177
| 22> H 	 -95.9504 	 -43.9301 	 -83.171
| 23> S 	 -87.6066 	 -46.3945 	 -83.5654
| 24> C 	 -86.9537 	 -47.5134 	 -82.3471
| 25> C 	 -87.5767 	 -47.3578 	 -81.1535
| 26> C 	 -88.4321 	 -46.2281 	 -81.1441
| 27> C 	 -88.7326 	 -45.7377 	 -82.3849
| 28> H 	 -87.3467 	 -48.0638 	 -80.2925
| 29> C 	 -89.1529 	 -45.8409 	 -79.8283
| 30> H 	 -89.3979 	 -46.6739 	 -79.1431
| 31> H 	 -90.1316 	 -45.4945 	 -80.0783
| 32> C 	 -88.353 	 -44.7614 	 -79.0524
| 33> H 	 -87.4082 	 -45.124 	 -78.6371
| 34> H 	 -89.0396 	 -44.4331 	 -78.2482
| 35> C 	 -87.8078 	 -43.5218 	 -79.7867
| 36> H 	 -87.2116 	 -42.918 	 -79.0392
| 37> H 	 -88.5718 	 -42.8572 	 -80.0681
| 38> H 	 -87.0724 	 -43.5905 	 -80.637
| 39> H 	 -91.0082 	 -41.7465 	 -84.2933
| 40> H 	 -86.3407 	 -48.3631 	 -82.557
| 41> *
| 42>
| 43>                          ****END OF INPUT****

CARTESIAN COORDINATES (ANGSTROEM)
---------------------------------
  S    -89.291800  -43.533100  -83.972800
  C    -90.828500  -42.696100  -83.790000
  C    -91.714400  -43.499500  -83.080200
  C    -91.066100  -44.665500  -82.601700
  C    -89.711100  -44.730400  -82.797600
  H    -91.553300  -45.402000  -81.968400
  C    -93.168400  -43.238600  -82.836300
  H    -93.230700  -42.167200  -82.612100
  H    -93.560200  -43.786100  -81.962700
  C    -94.062300  -43.660500  -84.059000
  H    -93.683200  -43.138300  -84.968100
  H    -93.864100  -44.734800  -84.346300
  C    -95.563100  -43.312600  -84.040300
  H    -95.835200  -42.316300  -83.763800
  H    -96.110100  -43.711600  -84.917700
  H    -95.950400  -43.930100  -83.171000
  S    -87.606600  -46.394500  -83.565400
  C    -86.953700  -47.513400  -82.347100
  C    -87.576700  -47.357800  -81.153500
  C    -88.432100  -46.228100  -81.144100
  C    -88.732600  -45.737700  -82.384900
  H    -87.346700  -48.063800  -80.292500
  C    -89.152900  -45.840900  -79.828300
  H    -89.397900  -46.673900  -79.143100
  H    -90.131600  -45.494500  -80.078300
  C    -88.353000  -44.761400  -79.052400
  H    -87.408200  -45.124000  -78.637100
  H    -89.039600  -44.433100  -78.248200
  C    -87.807800  -43.521800  -79.786700
  H    -87.211600  -42.918000  -79.039200
  H    -88.571800  -42.857200  -80.068100
  H    -87.072400  -43.590500  -80.637000
  H    -91.008200  -41.746500  -84.293300
  H    -86.340700  -48.363100  -82.557000

 Total Charge           Charge          ....    0
 Multiplicity           Mult            ....    1
 Number of Electrons    NEL             ....  134
 Basis Dimension        Dim             ....  322

ORBITAL ENERGIES
----------------

  NO   OCC          E(Eh)            E(eV)
   0   2.0000     -88.964858     -2420.8569
   1   2.0000     -88.963213     -2420.8121
   2   2.0000     -10.328799      -281.0609
   3   2.0000     -10.328202      -281.0447
   4   2.0000     -10.318023      -280.7677
   5   2.0000     -10.314642      -280.6757
   6   2.0000     -10.303324      -280.3677
   7   2.0000     -10.301169      -280.3091
   8   2.0000     -10.299038      -280.2511
   9   2.0000     -10.295875      -280.1650
  10   2.0000     -10.295553      -280.1562
  11   2.0000     -10.292038      -280.0606
  12   2.0000     -10.291892      -280.0566
  13   2.0000     -10.287868      -279.9471
  14   2.0000     -10.284885      -279.8659
  15   2.0000     -10.272570      -279.5308
  16   2.0000      -8.079255      -219.8477
  17   2.0000      -8.078530      -219.8280
  18   2.0000      -6.037875      -164.2989
  19   2.0000      -6.036950      -164.2738
  20   2.0000      -6.033928      -164.1915
  21   2.0000      -6.033044      -164.1675
  22   2.0000      -6.029790      -164.0789
  23   2.0000      -6.029250      -164.0642
  24   2.0000      -1.010808       -27.5055
  25   2.0000      -0.988135       -26.8885
  26   2.0000      -0.908722       -24.7276
  27   2.0000      -0.899563       -24.4784
  28   2.0000      -0.869115       -23.6498
  29   2.0000      -0.848644       -23.0928
  30   2.0000      -0.841458       -22.8972
  31   2.0000      -0.817357       -22.2414
  32   2.0000      -0.783442       -21.3185
  33   2.0000      -0.774079       -21.0638
  34   2.0000      -0.703799       -19.1514
  35   2.0000      -0.698132       -18.9971
  36   2.0000      -0.687684       -18.7128
  37   2.0000      -0.658061       -17.9068
  38   2.0000      -0.644390       -17.5347
  39   2.0000      -0.621864       -16.9218
  40   2.0000      -0.596420       -16.2294
  41   2.0000      -0.568970       -15.4825
  42   2.0000      -0.552681       -15.0392
  43   2.0000      -0.542967       -14.7749
  44   2.0000      -0.538601       -14.6561
  45   2.0000      -0.527647       -14.3580
  46   2.0000      -0.517560       -14.0835
  47   2.0000      -0.511624       -13.9220
  48   2.0000      -0.505766       -13.7626
  49   2.0000      -0.499624       -13.5955
  50   2.0000      -0.495502       -13.4833
  51   2.0000      -0.474465       -12.9108
  52   2.0000      -0.467540       -12.7224
  53   2.0000      -0.464223       -12.6322
  54   2.0000      -0.455684       -12.3998
  55   2.0000      -0.451109       -12.2753
  56   2.0000      -0.443662       -12.0727
  57   2.0000      -0.439404       -11.9568
  58   2.0000      -0.433103       -11.7853
  59   2.0000      -0.422134       -11.4868
  60   2.0000      -0.409480       -11.1425
  61   2.0000      -0.405786       -11.0420
  62   2.0000      -0.402759       -10.9596
  63   2.0000      -0.351353        -9.5608
  64   2.0000      -0.333554        -9.0765
  65   2.0000      -0.328509        -8.9392
  66   2.0000      -0.291323        -7.9273
  67   0.0000       0.027444         0.7468
  68   0.0000       0.067636         1.8405
  69   0.0000       0.099645         2.7115
  70   0.0000       0.122192         3.3250
  71   0.0000       0.136380         3.7111

MULLIKEN ATOMIC CHARGES
-----------------------
   0 S :    0.094438
   1 C :   -0.132215
   2 C :   -0.081153
   3 C :    0.027735
   4 C :   -0.140352
   5 H :    0.014776
   6 C :    0.079043
   7 H :    0.031714
   8 H :    0.024539
   9 C :   -0.114212
  10 H :    0.024286
  11 H :    0.038814
  12 C :   -0.038479
  13 H :    0.033228
  14 H :    0.050170
  15 H :    0.020155
  16 S :    0.091570
  17 C :   -0.076480
  18 C :   -0.050123
  19 C :   -0.059992
  20 C :   -0.132768
  21 H :    0.049500
  22 C :    0.098267
  23 H :    0.028831
  24 H :   -0.002639
  25 C :   -0.078259
  26 H :    0.031276
  27 H :    0.035540
  28 C :   -0.074166
  29 H :    0.025617
  30 H :    0.022919
  31 H :    0.051947
  32 H :    0.055971
  33 H :    0.050504
Sum of atomic charges:    0.0000000

LOEWDIN ATOMIC CHARGES
----------------------
   0 S :    0.407210
   1 C :   -0.189774
   2 C :   -0.063801
   3 C :   -0.066380
   4 C :   -0.191992
   5 H :    0.029061
   6 C :   -0.031702
   7 H :    0.034659
   8 H :    0.029833
   9 C :   -0.050631
  10 H :    0.021739
  11 H :    0.032175
  12 C :   -0.073228
  13 H :    0.021257
  14 H :    0.034765
  15 H :    0.027573
  16 S :    0.381166
  17 C :   -0.172426
  18 C :   -0.074290
  19 C :   -0.058315
  20 C :   -0.190915
  21 H :    0.047116
  22 C :   -0.030940
  23 H :    0.034318
  24 H :    0.020159
  25 C :   -0.041573
  26 H :    0.025360
  27 H :    0.029811
  28 C :   -0.076359
  29 H :    0.031812
  30 H :    0.014117
  31 H :    0.033748
  32 H :    0.029724
  33 H :    0.026727

  Mayer bond orders larger than 0.100000
B(  0-S ,  1-C ) :   1.1478 B(  0-S ,  4-C ) :   1.1549 B(  1-C ,  2-C ) :   1.5720
B(  1-C ,  4-C ) :   0.1061 B(  1-C , 32-H ) :   0.9755 B(  2-C ,  3-C ) :   1.2651
B(  2-C ,  6-C ) :   1.0324 B(  3-C ,  4-C ) :   1.5670 B(  3-C ,  5-H ) :   0.9884
B(  4-C , 20-C ) :   1.0357 B(  6-C ,  7-H ) :   0.9371 B(  6-C ,  8-H ) :   0.9414
B(  6-C ,  9-C ) :   1.0481 B(  9-C , 10-H ) :   0.9589 B(  9-C , 11-H ) :   0.9556
B(  9-C , 12-C ) :   1.0751 B( 12-C , 13-H ) :   0.9755 B( 12-C , 14-H ) :   0.9728
B( 12-C , 15-H ) :   0.9727 B( 16-S , 17-C ) :   1.1309 B( 16-S , 20-C ) :   1.1227
B( 17-C , 18-C ) :   1.6537 B( 17-C , 33-H ) :   0.9653 B( 18-C , 19-C ) :   1.2148
B( 18-C , 21-H ) :   0.9765 B( 19-C , 20-C ) :   1.6292 B( 19-C , 22-C ) :   1.0353
B( 22-C , 23-H ) :   0.9438 B( 22-C , 24-H ) :   0.9326 B( 22-C , 25-C ) :   1.0593
B( 25-C , 26-H ) :   0.9623 B( 25-C , 27-H ) :   0.9542 B( 25-C , 28-C ) :   1.0806
B( 28-C , 29-H ) :   0.9719 B( 28-C , 30-H ) :   0.9760 B( 28-C , 31-H ) :   0.9712

Dispersion correction           -0.014727810
FINAL SINGLE POINT ENERGY     -1339.871602220782

DIPOLE MOMENT
-------------
                                X             Y             Z
Electronic contribution:     18.81728      -7.36142     -12.61574
Nuclear contribution   :    -19.32416       7.28271      13.06385
                        -----------------------------------------
Total Dipole Moment    :     -0.50689      -0.07871       0.44811
                        -----------------------------------------
Magnitude (a.u.)       :      0.68113
Magnitude (Debye)      :      1.73129

Rotational constants in cm-1:     0.022173     0.007602     0.006911
Rotational constants in MHz :   664.736937   227.906482   207.190335

                             ****ORCA TERMINATED NORMALLY****
TOTAL RUN TIME: 0 days 0 hours 0 minutes 21 seconds 691 msec
