                         Program Version 4.2.1 -  RELEASE  -
|  1> ! wB97X-D3 SP def2-SVP
|  2> %pal
|  3> nprocs 24
|  4> end
|  5>
|  6> * xyz 0 1
|  7> S 	 -47.9226 	 12.6823 	 33.3005
|  8> C 	 -46.4503 	 12.9514 	 32.4907
|  9> C 	 -46.6273 	 13.2223 	 31.161
| 10> C 	 -48.0185 	 13.2164 	 30.7661
| 11> C 	 -48.8509 	 13.0593 	 31.874
| 12> H 	 -48.476 	 13.5536 	 29.8719
| 13> C 	 -45.5392 	 13.4302 	 30.0949
| 14> H 	 -45.7898 	 12.8896 	 29.1608
| 15> H 	 -44.7019 	 12.9383 	 30.5806
| 16> C 	 -45.1191 	 14.8822 	 29.931
| 17> H 	 -45.005 	 15.2258 	 30.8997
| 18> H 	 -44.2148 	 14.9433 	 29.3148
| 19> C 	 -46.2705 	 15.7082 	 29.4596
| 20> H 	 -46.0644 	 16.8397 	 29.4374
| 21> H 	 -46.6532 	 15.5369 	 28.4698
| 22> H 	 -47.1385 	 15.535 	 30.1166
| 23> S 	 -51.065 	 11.5166 	 32.5261
| 24> C 	 -52.5633 	 12.1835 	 32.4294
| 25> C 	 -52.5384 	 13.5172 	 32.3871
| 26> C 	 -51.1747 	 14.0788 	 32.1167
| 27> C 	 -50.3116 	 13.0435 	 32.0282
| 28> H 	 -53.4524 	 14.0219 	 32.5795
| 29> C 	 -50.9419 	 15.5339 	 32.0573
| 30> H 	 -49.8789 	 15.6012 	 32.0359
| 31> H 	 -51.2513 	 16.0442 	 32.9236
| 32> C 	 -51.5496 	 16.3416 	 30.8445
| 33> H 	 -50.9914 	 17.2974 	 30.7968
| 34> H 	 -52.6225 	 16.5873 	 30.9855
| 35> C 	 -51.1946 	 15.6035 	 29.5279
| 36> H 	 -50.1705 	 15.4761 	 29.351
| 37> H 	 -51.6324 	 16.0668 	 28.638
| 38> H 	 -51.486 	 14.5781 	 29.5456
| 39> H 	 -45.4806 	 12.7569 	 32.8709
| 40> H 	 -53.4461 	 11.705 	 32.7278
| 41> *
| 42>
| 43>                          ****END OF INPUT****

CARTESIAN COORDINATES (ANGSTROEM)
---------------------------------
  S    -47.922600   12.682300   33.300500
  C    -46.450300   12.951400   32.490700
  C    -46.627300   13.222300   31.161000
  C    -48.018500   13.216400   30.766100
  C    -48.850900   13.059300   31.874000
  H    -48.476000   13.553600   29.871900
  C    -45.539200   13.430200   30.094900
  H    -45.789800   12.889600   29.160800
  H    -44.701900   12.938300   30.580600
  C    -45.119100   14.882200   29.931000
  H    -45.005000   15.225800   30.899700
  H    -44.214800   14.943300   29.314800
  C    -46.270500   15.708200   29.459600
  H    -46.064400   16.839700   29.437400
  H    -46.653200   15.536900   28.469800
  H    -47.138500   15.535000   30.116600
  S    -51.065000   11.516600   32.526100
  C    -52.563300   12.183500   32.429400
  C    -52.538400   13.517200   32.387100
  C    -51.174700   14.078800   32.116700
  C    -50.311600   13.043500   32.028200
  H    -53.452400   14.021900   32.579500
  C    -50.941900   15.533900   32.057300
  H    -49.878900   15.601200   32.035900
  H    -51.251300   16.044200   32.923600
  C    -51.549600   16.341600   30.844500
  H    -50.991400   17.297400   30.796800
  H    -52.622500   16.587300   30.985500
  C    -51.194600   15.603500   29.527900
  H    -50.170500   15.476100   29.351000
  H    -51.632400   16.066800   28.638000
  H    -51.486000   14.578100   29.545600
  H    -45.480600   12.756900   32.870900
  H    -53.446100   11.705000   32.727800

 Total Charge           Charge          ....    0
 Multiplicity           Mult            ....    1
 Number of Electrons    NEL             ....  134
 Basis Dimension        Dim             ....  322

ORBITAL ENERGIES
----------------

  NO   OCC          E(Eh)            E(eV)
   0   2.0000     -88.965415     -2420.8720
   1   2.0000     -88.958634     -2420.6875
   2   2.0000     -10.328776      -281.0603
   3   2.0000     -10.323706      -280.9223
   4   2.0000     -10.307907      -280.4924
   5   2.0000     -10.305204      -280.4189
   6   2.0000     -10.300938      -280.3028
   7   2.0000     -10.300127      -280.2807
   8   2.0000     -10.295303      -280.1494
   9   2.0000     -10.294466      -280.1266
  10   2.0000     -10.291107      -280.0353
  11   2.0000     -10.285380      -279.8794
  12   2.0000     -10.285237      -279.8755
  13   2.0000     -10.278977      -279.7052
  14   2.0000     -10.275426      -279.6086
  15   2.0000     -10.267861      -279.4027
  16   2.0000      -8.081200      -219.9006
  17   2.0000      -8.075944      -219.7576
  18   2.0000      -6.039624      -164.3465
  19   2.0000      -6.035496      -164.2342
  20   2.0000      -6.034451      -164.2058
  21   2.0000      -6.032051      -164.1405
  22   2.0000      -6.030351      -164.0942
  23   2.0000      -6.026261      -163.9829
  24   2.0000      -1.015676       -27.6380
  25   2.0000      -0.994145       -27.0521
  26   2.0000      -0.919993       -25.0343
  27   2.0000      -0.912634       -24.8340
  28   2.0000      -0.873997       -23.7827
  29   2.0000      -0.848471       -23.0881
  30   2.0000      -0.844686       -22.9851
  31   2.0000      -0.819486       -22.2993
  32   2.0000      -0.789118       -21.4730
  33   2.0000      -0.775727       -21.1086
  34   2.0000      -0.711683       -19.3659
  35   2.0000      -0.700164       -19.0524
  36   2.0000      -0.697457       -18.9788
  37   2.0000      -0.657847       -17.9009
  38   2.0000      -0.648308       -17.6414
  39   2.0000      -0.614617       -16.7246
  40   2.0000      -0.597708       -16.2645
  41   2.0000      -0.582133       -15.8406
  42   2.0000      -0.557287       -15.1646
  43   2.0000      -0.546349       -14.8669
  44   2.0000      -0.545007       -14.8304
  45   2.0000      -0.540415       -14.7055
  46   2.0000      -0.520878       -14.1738
  47   2.0000      -0.517150       -14.0724
  48   2.0000      -0.505616       -13.7585
  49   2.0000      -0.501098       -13.6356
  50   2.0000      -0.489934       -13.3318
  51   2.0000      -0.484586       -13.1863
  52   2.0000      -0.470335       -12.7985
  53   2.0000      -0.466559       -12.6957
  54   2.0000      -0.461685       -12.5631
  55   2.0000      -0.442668       -12.0456
  56   2.0000      -0.441640       -12.0176
  57   2.0000      -0.433304       -11.7908
  58   2.0000      -0.430841       -11.7238
  59   2.0000      -0.427358       -11.6290
  60   2.0000      -0.423630       -11.5276
  61   2.0000      -0.419468       -11.4143
  62   2.0000      -0.413101       -11.2410
  63   2.0000      -0.340890        -9.2761
  64   2.0000      -0.333068        -9.0632
  65   2.0000      -0.320796        -8.7293
  66   2.0000      -0.308094        -8.3837
  67   0.0000       0.044726         1.2171
  68   0.0000       0.063356         1.7240
  69   0.0000       0.110329         3.0022
  70   0.0000       0.120041         3.2665
  71   0.0000       0.129233         3.5166

MULLIKEN ATOMIC CHARGES
-----------------------
   0 S :    0.121318
   1 C :   -0.083141
   2 C :   -0.161472
   3 C :    0.081498
   4 C :   -0.207694
   5 H :   -0.000958
   6 C :    0.060113
   7 H :    0.043067
   8 H :    0.011218
   9 C :    0.028521
  10 H :    0.004470
  11 H :    0.040270
  12 C :   -0.105180
  13 H :    0.038347
  14 H :    0.016069
  15 H :    0.041173
  16 S :    0.109910
  17 C :   -0.036195
  18 C :   -0.044010
  19 C :   -0.024849
  20 C :   -0.184432
  21 H :    0.001917
  22 C :    0.110367
  23 H :    0.013754
  24 H :    0.024373
  25 C :   -0.080705
  26 H :    0.038318
  27 H :    0.044081
  28 C :   -0.037055
  29 H :    0.007918
  30 H :    0.033445
  31 H :    0.030356
  32 H :    0.029688
  33 H :    0.035500
Sum of atomic charges:   -0.0000000

LOEWDIN ATOMIC CHARGES
----------------------
   0 S :    0.429896
   1 C :   -0.210895
   2 C :   -0.065049
   3 C :   -0.058967
   4 C :   -0.192012
   5 H :    0.025041
   6 C :   -0.028132
   7 H :    0.033175
   8 H :    0.028019
   9 C :   -0.034150
  10 H :    0.020791
  11 H :    0.027900
  12 C :   -0.075639
  13 H :    0.032003
  14 H :    0.014456
  15 H :    0.027821
  16 S :    0.423757
  17 C :   -0.204600
  18 C :   -0.070473
  19 C :   -0.041826
  20 C :   -0.202993
  21 H :    0.023255
  22 C :   -0.029274
  23 H :    0.028795
  24 H :    0.030421
  25 C :   -0.032261
  26 H :    0.030481
  27 H :    0.026052
  28 C :   -0.067726
  29 H :    0.016470
  30 H :    0.027359
  31 H :    0.022663
  32 H :    0.022624
  33 H :    0.023017

  Mayer bond orders larger than 0.100000
B(  0-S ,  1-C ) :   1.1434 B(  0-S ,  4-C ) :   1.1736 B(  1-C ,  2-C ) :   1.6389
B(  1-C , 32-H ) :   0.9634 B(  2-C ,  3-C ) :   1.2162 B(  2-C ,  6-C ) :   1.0077
B(  3-C ,  4-C ) :   1.5968 B(  3-C ,  5-H ) :   0.9962 B(  4-C , 20-C ) :   0.9986
B(  6-C ,  7-H ) :   0.9506 B(  6-C ,  8-H ) :   0.9342 B(  6-C ,  9-C ) :   1.0744
B(  9-C , 10-H ) :   0.9414 B(  9-C , 11-H ) :   0.9562 B(  9-C , 12-C ) :   1.0803
B( 12-C , 13-H ) :   0.9714 B( 12-C , 14-H ) :   0.9744 B( 12-C , 15-H ) :   0.9678
B( 16-S , 17-C ) :   1.1537 B( 16-S , 20-C ) :   1.1302 B( 17-C , 18-C ) :   1.6684
B( 17-C , 33-H ) :   0.9638 B( 18-C , 19-C ) :   1.1567 B( 18-C , 21-H ) :   0.9966
B( 19-C , 20-C ) :   1.6437 B( 19-C , 22-C ) :   1.0658 B( 22-C , 23-H ) :   0.9200
B( 22-C , 24-H ) :   0.9299 B( 22-C , 25-C ) :   1.0653 B( 25-C , 26-H ) :   0.9573
B( 25-C , 27-H ) :   0.9592 B( 25-C , 28-C ) :   1.0711 B( 28-C , 29-H ) :   0.9731
B( 28-C , 30-H ) :   0.9719 B( 28-C , 31-H ) :   0.9698

Dispersion correction           -0.015850787
FINAL SINGLE POINT ENERGY     -1339.860359978597

DIPOLE MOMENT
-------------
                                X             Y             Z
Electronic contribution:     -6.17255     -20.81971      17.49192
Nuclear contribution   :      6.16973      21.25292     -17.60997
                        -----------------------------------------
Total Dipole Moment    :     -0.00282       0.43321      -0.11806
                        -----------------------------------------
Magnitude (a.u.)       :      0.44902
Magnitude (Debye)      :      1.14131

Rotational constants in cm-1:     0.019693     0.009995     0.007399
Rotational constants in MHz :   590.372457   299.654352   221.805963

                             ****ORCA TERMINATED NORMALLY****
TOTAL RUN TIME: 0 days 0 hours 0 minutes 23 seconds 20 msec
