                         Program Version 4.2.1 -  RELEASE  -
|  1> ! wB97X-D3 SP def2-SVP
|  2> %pal
|  3> nprocs 24
|  4> end
|  5>
|  6> * xyz 0 1
|  7> S 	 -102.316 	 22.3652 	 -112.543
|  8> C 	 -102.147 	 21.7926 	 -114.126
|  9> C 	 -103.383 	 21.7059 	 -114.767
| 10> C 	 -104.459 	 22.0369 	 -113.889
| 11> C 	 -104.053 	 22.4836 	 -112.659
| 12> H 	 -105.519 	 21.9383 	 -113.989
| 13> C 	 -103.614 	 21.1857 	 -116.182
| 14> H 	 -102.97 	 21.8151 	 -116.867
| 15> H 	 -104.622 	 21.5039 	 -116.338
| 16> C 	 -103.369 	 19.7076 	 -116.301
| 17> H 	 -103.381 	 19.5789 	 -117.333
| 18> H 	 -102.365 	 19.2885 	 -115.928
| 19> C 	 -104.486 	 18.8794 	 -115.61
| 20> H 	 -105.49 	 19.261 	 -115.848
| 21> H 	 -104.233 	 17.9841 	 -116.137
| 22> H 	 -104.516 	 18.7272 	 -114.561
| 23> S 	 -104.168 	 22.3012 	 -109.958
| 24> C 	 -105.534 	 22.8819 	 -109.017
| 25> C 	 -106.44 	 23.5986 	 -109.855
| 26> C 	 -106.009 	 23.5707 	 -111.203
| 27> C 	 -104.803 	 22.905 	 -111.424
| 28> H 	 -107.301 	 24.0768 	 -109.36
| 29> C 	 -106.887 	 24.1415 	 -112.259
| 30> H 	 -106.378 	 24.0795 	 -113.209
| 31> H 	 -107.009 	 25.1892 	 -111.935
| 32> C 	 -108.268 	 23.4167 	 -112.411
| 33> H 	 -108.834 	 23.3659 	 -111.499
| 34> H 	 -108.043 	 22.3566 	 -112.59
| 35> C 	 -109.108 	 24.0473 	 -113.445
| 36> H 	 -108.726 	 23.9663 	 -114.416
| 37> H 	 -109.386 	 25.0756 	 -113.211
| 38> H 	 -110.111 	 23.5007 	 -113.385
| 39> H 	 -101.212 	 21.6949 	 -114.606
| 40> H 	 -105.594 	 22.8278 	 -107.93
| 41> *
| 42>
| 43>                          ****END OF INPUT****

CARTESIAN COORDINATES (ANGSTROEM)
---------------------------------
  S    -102.316000   22.365200  -112.543000
  C    -102.147000   21.792600  -114.126000
  C    -103.383000   21.705900  -114.767000
  C    -104.459000   22.036900  -113.889000
  C    -104.053000   22.483600  -112.659000
  H    -105.519000   21.938300  -113.989000
  C    -103.614000   21.185700  -116.182000
  H    -102.970000   21.815100  -116.867000
  H    -104.622000   21.503900  -116.338000
  C    -103.369000   19.707600  -116.301000
  H    -103.381000   19.578900  -117.333000
  H    -102.365000   19.288500  -115.928000
  C    -104.486000   18.879400  -115.610000
  H    -105.490000   19.261000  -115.848000
  H    -104.233000   17.984100  -116.137000
  H    -104.516000   18.727200  -114.561000
  S    -104.168000   22.301200  -109.958000
  C    -105.534000   22.881900  -109.017000
  C    -106.440000   23.598600  -109.855000
  C    -106.009000   23.570700  -111.203000
  C    -104.803000   22.905000  -111.424000
  H    -107.301000   24.076800  -109.360000
  C    -106.887000   24.141500  -112.259000
  H    -106.378000   24.079500  -113.209000
  H    -107.009000   25.189200  -111.935000
  C    -108.268000   23.416700  -112.411000
  H    -108.834000   23.365900  -111.499000
  H    -108.043000   22.356600  -112.590000
  C    -109.108000   24.047300  -113.445000
  H    -108.726000   23.966300  -114.416000
  H    -109.386000   25.075600  -113.211000
  H    -110.111000   23.500700  -113.385000
  H    -101.212000   21.694900  -114.606000
  H    -105.594000   22.827800  -107.930000

 Total Charge           Charge          ....    0
 Multiplicity           Mult            ....    1
 Number of Electrons    NEL             ....  134
 Basis Dimension        Dim             ....  322

ORBITAL ENERGIES
----------------

  NO   OCC          E(Eh)            E(eV)
   0   2.0000     -88.965040     -2420.8618
   1   2.0000     -88.962546     -2420.7939
   2   2.0000     -10.329965      -281.0926
   3   2.0000     -10.327264      -281.0191
   4   2.0000     -10.321542      -280.8634
   5   2.0000     -10.305595      -280.4295
   6   2.0000     -10.300529      -280.2916
   7   2.0000     -10.299638      -280.2674
   8   2.0000     -10.298724      -280.2425
   9   2.0000     -10.290922      -280.0302
  10   2.0000     -10.289885      -280.0020
  11   2.0000     -10.289028      -279.9787
  12   2.0000     -10.287286      -279.9313
  13   2.0000     -10.283696      -279.8336
  14   2.0000     -10.276157      -279.6284
  15   2.0000     -10.272719      -279.5349
  16   2.0000      -8.080279      -219.8756
  17   2.0000      -8.078558      -219.8287
  18   2.0000      -6.038719      -164.3219
  19   2.0000      -6.036867      -164.2715
  20   2.0000      -6.034530      -164.2079
  21   2.0000      -6.032774      -164.1601
  22   2.0000      -6.031257      -164.1189
  23   2.0000      -6.029569      -164.0729
  24   2.0000      -1.010538       -27.4981
  25   2.0000      -0.987767       -26.8785
  26   2.0000      -0.916242       -24.9322
  27   2.0000      -0.912685       -24.8354
  28   2.0000      -0.865563       -23.5532
  29   2.0000      -0.858832       -23.3700
  30   2.0000      -0.848164       -23.0797
  31   2.0000      -0.816754       -22.2250
  32   2.0000      -0.780505       -21.2386
  33   2.0000      -0.768564       -20.9137
  34   2.0000      -0.707434       -19.2502
  35   2.0000      -0.702377       -19.1127
  36   2.0000      -0.690791       -18.7974
  37   2.0000      -0.665574       -18.1112
  38   2.0000      -0.646539       -17.5932
  39   2.0000      -0.613123       -16.6839
  40   2.0000      -0.592048       -16.1105
  41   2.0000      -0.571565       -15.5531
  42   2.0000      -0.568144       -15.4600
  43   2.0000      -0.553461       -15.0604
  44   2.0000      -0.542598       -14.7648
  45   2.0000      -0.526132       -14.3168
  46   2.0000      -0.521876       -14.2010
  47   2.0000      -0.516291       -14.0490
  48   2.0000      -0.508528       -13.8378
  49   2.0000      -0.502312       -13.6686
  50   2.0000      -0.495392       -13.4803
  51   2.0000      -0.482267       -13.1232
  52   2.0000      -0.475883       -12.9494
  53   2.0000      -0.466529       -12.6949
  54   2.0000      -0.457564       -12.4509
  55   2.0000      -0.447218       -12.1694
  56   2.0000      -0.445245       -12.1157
  57   2.0000      -0.437655       -11.9092
  58   2.0000      -0.430440       -11.7129
  59   2.0000      -0.422874       -11.5070
  60   2.0000      -0.420540       -11.4435
  61   2.0000      -0.413461       -11.2508
  62   2.0000      -0.401732       -10.9317
  63   2.0000      -0.353029        -9.6064
  64   2.0000      -0.332035        -9.0351
  65   2.0000      -0.324941        -8.8421
  66   2.0000      -0.285718        -7.7748
  67   0.0000       0.030992         0.8433
  68   0.0000       0.074281         2.0213
  69   0.0000       0.113315         3.0834
  70   0.0000       0.120028         3.2661
  71   0.0000       0.130657         3.5554

MULLIKEN ATOMIC CHARGES
-----------------------
   0 S :    0.105174
   1 C :   -0.098098
   2 C :   -0.118657
   3 C :    0.027788
   4 C :   -0.149826
   5 H :   -0.002852
   6 C :    0.073401
   7 H :    0.035256
   8 H :    0.011750
   9 C :   -0.047658
  10 H :    0.017323
  11 H :    0.045284
  12 C :   -0.048670
  13 H :    0.022042
  14 H :    0.031446
  15 H :    0.047200
  16 S :    0.102565
  17 C :   -0.113236
  18 C :   -0.055190
  19 C :   -0.050199
  20 C :   -0.112943
  21 H :    0.036322
  22 C :    0.061556
  23 H :    0.013654
  24 H :    0.032845
  25 C :   -0.082427
  26 H :    0.018349
  27 H :    0.026490
  28 C :   -0.016533
  29 H :    0.025120
  30 H :    0.029032
  31 H :    0.033872
  32 H :    0.035946
  33 H :    0.063873
Sum of atomic charges:    0.0000000

LOEWDIN ATOMIC CHARGES
----------------------
   0 S :    0.429696
   1 C :   -0.211016
   2 C :   -0.061445
   3 C :   -0.076192
   4 C :   -0.188491
   5 H :    0.027784
   6 C :   -0.034721
   7 H :    0.035150
   8 H :    0.025331
   9 C :   -0.034770
  10 H :    0.015638
  11 H :    0.036559
  12 C :   -0.061521
  13 H :    0.023251
  14 H :    0.029744
  15 H :    0.023564
  16 S :    0.424862
  17 C :   -0.188818
  18 C :   -0.071739
  19 C :   -0.066130
  20 C :   -0.215842
  21 H :    0.039271
  22 C :   -0.031660
  23 H :    0.024820
  24 H :    0.035359
  25 C :   -0.042299
  26 H :    0.020387
  27 H :    0.025420
  28 C :   -0.061926
  29 H :    0.015931
  30 H :    0.026583
  31 H :    0.036945
  32 H :    0.020959
  33 H :    0.029317

  Mayer bond orders larger than 0.100000
B(  0-S ,  1-C ) :   1.1635 B(  0-S ,  4-C ) :   1.1733 B(  1-C ,  2-C ) :   1.5801
B(  1-C ,  4-C ) :   0.1020 B(  1-C , 32-H ) :   0.9768 B(  2-C ,  3-C ) :   1.2478
B(  2-C ,  6-C ) :   1.0086 B(  3-C ,  4-C ) :   1.5831 B(  3-C ,  5-H ) :   0.9926
B(  4-C , 20-C ) :   0.9909 B(  6-C ,  7-H ) :   0.9362 B(  6-C ,  8-H ) :   0.9421
B(  6-C ,  9-C ) :   1.0748 B(  9-C , 10-H ) :   0.9574 B(  9-C , 11-H ) :   0.9554
B(  9-C , 12-C ) :   1.0517 B( 12-C , 13-H ) :   0.9769 B( 12-C , 14-H ) :   0.9777
B( 12-C , 15-H ) :   0.9794 B( 16-S , 17-C ) :   1.1780 B( 16-S , 20-C ) :   1.1566
B( 17-C , 18-C ) :   1.5669 B( 17-C , 20-C ) :   0.1065 B( 17-C , 33-H ) :   0.9684
B( 18-C , 19-C ) :   1.2556 B( 18-C , 21-H ) :   0.9918 B( 19-C , 20-C ) :   1.5723
B( 19-C , 22-C ) :   1.0586 B( 22-C , 23-H ) :   0.9358 B( 22-C , 24-H ) :   0.9257
B( 22-C , 25-C ) :   1.0602 B( 25-C , 26-H ) :   0.9516 B( 25-C , 27-H ) :   0.9501
B( 25-C , 28-C ) :   1.1002 B( 28-C , 29-H ) :   0.9738 B( 28-C , 30-H ) :   0.9694
B( 28-C , 31-H ) :   0.9695

Dispersion correction           -0.014223358
FINAL SINGLE POINT ENERGY     -1339.866619491223

DIPOLE MOMENT
-------------
                                X             Y             Z
Electronic contribution:     18.79299       4.70732      19.53058
Nuclear contribution   :    -19.26799      -4.76869     -19.89363
                        -----------------------------------------
Total Dipole Moment    :     -0.47500      -0.06137      -0.36306
                        -----------------------------------------
Magnitude (a.u.)       :      0.60100
Magnitude (Debye)      :      1.52763

Rotational constants in cm-1:     0.017587     0.009153     0.006810
Rotational constants in MHz :   527.241971   274.399001   204.163340

                             ****ORCA TERMINATED NORMALLY****
TOTAL RUN TIME: 0 days 0 hours 0 minutes 21 seconds 688 msec
