                         Program Version 4.2.1 -  RELEASE  -
|  1> ! wB97X-D3 SP def2-SVP
|  2> %pal
|  3> nprocs 24
|  4> end
|  5>
|  6> * xyz 0 1
|  7> S 	 -111.477 	 72.859 	 -9.21731
|  8> C 	 -110.394 	 74.1369 	 -9.68749
|  9> C 	 -109.15 	 73.7032 	 -10.1519
| 10> C 	 -109.016 	 72.3223 	 -9.88304
| 11> C 	 -110.211 	 71.6489 	 -9.56037
| 12> H 	 -108.091 	 71.7127 	 -10.0588
| 13> C 	 -108.02 	 74.6013 	 -10.714
| 14> H 	 -108.372 	 75.6676 	 -10.664
| 15> H 	 -107.905 	 74.4428 	 -11.753
| 16> C 	 -106.691 	 74.3829 	 -9.93781
| 17> H 	 -106.824 	 74.983 	 -9.0403
| 18> H 	 -106.618 	 73.2952 	 -9.73929
| 19> C 	 -105.427 	 74.7411 	 -10.7483
| 20> H 	 -105.326 	 75.8143 	 -10.9225
| 21> H 	 -104.59 	 74.3593 	 -10.2145
| 22> H 	 -105.39 	 74.2006 	 -11.7213
| 23> S 	 -111.373 	 69.9564 	 -7.71161
| 24> C 	 -111.005 	 68.2395 	 -7.63853
| 25> C 	 -110.173 	 67.9504 	 -8.6574
| 26> C 	 -109.838 	 69.0147 	 -9.60038
| 27> C 	 -110.34 	 70.2731 	 -9.12876
| 28> H 	 -109.886 	 66.8889 	 -8.86611
| 29> C 	 -108.929 	 68.8566 	 -10.7952
| 30> H 	 -108.51 	 67.8503 	 -10.7429
| 31> H 	 -108.098 	 69.497 	 -10.5651
| 32> C 	 -109.562 	 69.2093 	 -12.119
| 33> H 	 -108.843 	 69.357 	 -12.9387
| 34> H 	 -110.067 	 70.1193 	 -12.1971
| 35> C 	 -110.519 	 68.1036 	 -12.5629
| 36> H 	 -110.047 	 67.1694 	 -12.4576
| 37> H 	 -110.859 	 68.0779 	 -13.5725
| 38> H 	 -111.361 	 68.0362 	 -11.8261
| 39> H 	 -110.476 	 75.2057 	 -9.48887
| 40> H 	 -111.263 	 67.5486 	 -6.86747
| 41> *
| 42>
| 43>                          ****END OF INPUT****

CARTESIAN COORDINATES (ANGSTROEM)
---------------------------------
  S    -111.477000   72.859000   -9.217310
  C    -110.394000   74.136900   -9.687490
  C    -109.150000   73.703200  -10.151900
  C    -109.016000   72.322300   -9.883040
  C    -110.211000   71.648900   -9.560370
  H    -108.091000   71.712700  -10.058800
  C    -108.020000   74.601300  -10.714000
  H    -108.372000   75.667600  -10.664000
  H    -107.905000   74.442800  -11.753000
  C    -106.691000   74.382900   -9.937810
  H    -106.824000   74.983000   -9.040300
  H    -106.618000   73.295200   -9.739290
  C    -105.427000   74.741100  -10.748300
  H    -105.326000   75.814300  -10.922500
  H    -104.590000   74.359300  -10.214500
  H    -105.390000   74.200600  -11.721300
  S    -111.373000   69.956400   -7.711610
  C    -111.005000   68.239500   -7.638530
  C    -110.173000   67.950400   -8.657400
  C    -109.838000   69.014700   -9.600380
  C    -110.340000   70.273100   -9.128760
  H    -109.886000   66.888900   -8.866110
  C    -108.929000   68.856600  -10.795200
  H    -108.510000   67.850300  -10.742900
  H    -108.098000   69.497000  -10.565100
  C    -109.562000   69.209300  -12.119000
  H    -108.843000   69.357000  -12.938700
  H    -110.067000   70.119300  -12.197100
  C    -110.519000   68.103600  -12.562900
  H    -110.047000   67.169400  -12.457600
  H    -110.859000   68.077900  -13.572500
  H    -111.361000   68.036200  -11.826100
  H    -110.476000   75.205700   -9.488870
  H    -111.263000   67.548600   -6.867470

 Total Charge           Charge          ....    0
 Multiplicity           Mult            ....    1
 Number of Electrons    NEL             ....  134
 Basis Dimension        Dim             ....  322

ORBITAL ENERGIES
----------------

  NO   OCC          E(Eh)            E(eV)
   0   2.0000     -88.972185     -2421.0562
   1   2.0000     -88.961696     -2420.7708
   2   2.0000     -10.335352      -281.2392
   3   2.0000     -10.334247      -281.2092
   4   2.0000     -10.316463      -280.7252
   5   2.0000     -10.314932      -280.6836
   6   2.0000     -10.310195      -280.5547
   7   2.0000     -10.304443      -280.3981
   8   2.0000     -10.302296      -280.3397
   9   2.0000     -10.297734      -280.2156
  10   2.0000     -10.296382      -280.1788
  11   2.0000     -10.292761      -280.0803
  12   2.0000     -10.292460      -280.0721
  13   2.0000     -10.281485      -279.7734
  14   2.0000     -10.278931      -279.7039
  15   2.0000     -10.266388      -279.3626
  16   2.0000      -8.086146      -220.0352
  17   2.0000      -8.075993      -219.7589
  18   2.0000      -6.044750      -164.4860
  19   2.0000      -6.040773      -164.3778
  20   2.0000      -6.036812      -164.2700
  21   2.0000      -6.034661      -164.2115
  22   2.0000      -6.030466      -164.0973
  23   2.0000      -6.026671      -163.9941
  24   2.0000      -1.002186       -27.2709
  25   2.0000      -0.979969       -26.6663
  26   2.0000      -0.914002       -24.8713
  27   2.0000      -0.909652       -24.7529
  28   2.0000      -0.870650       -23.6916
  29   2.0000      -0.849974       -23.1290
  30   2.0000      -0.841117       -22.8880
  31   2.0000      -0.814243       -22.1567
  32   2.0000      -0.783236       -21.3129
  33   2.0000      -0.772089       -21.0096
  34   2.0000      -0.717056       -19.5121
  35   2.0000      -0.701734       -19.0951
  36   2.0000      -0.692269       -18.8376
  37   2.0000      -0.657206       -17.8835
  38   2.0000      -0.636141       -17.3103
  39   2.0000      -0.619921       -16.8689
  40   2.0000      -0.591803       -16.1038
  41   2.0000      -0.567246       -15.4356
  42   2.0000      -0.563174       -15.3247
  43   2.0000      -0.561280       -15.2732
  44   2.0000      -0.546541       -14.8721
  45   2.0000      -0.525584       -14.3019
  46   2.0000      -0.512624       -13.9492
  47   2.0000      -0.508767       -13.8443
  48   2.0000      -0.505682       -13.7603
  49   2.0000      -0.490961       -13.3597
  50   2.0000      -0.486081       -13.2269
  51   2.0000      -0.483375       -13.1533
  52   2.0000      -0.475093       -12.9279
  53   2.0000      -0.464750       -12.6465
  54   2.0000      -0.458774       -12.4839
  55   2.0000      -0.451520       -12.2865
  56   2.0000      -0.444326       -12.0907
  57   2.0000      -0.437562       -11.9067
  58   2.0000      -0.432752       -11.7758
  59   2.0000      -0.426757       -11.6127
  60   2.0000      -0.424989       -11.5645
  61   2.0000      -0.416500       -11.3335
  62   2.0000      -0.407231       -11.0813
  63   2.0000      -0.353244        -9.6123
  64   2.0000      -0.334677        -9.1070
  65   2.0000      -0.324905        -8.8411
  66   2.0000      -0.282765        -7.6944
  67   0.0000       0.015353         0.4178
  68   0.0000       0.075731         2.0608
  69   0.0000       0.101625         2.7653
  70   0.0000       0.120785         3.2867
  71   0.0000       0.131480         3.5778

MULLIKEN ATOMIC CHARGES
-----------------------
   0 S :    0.118246
   1 C :   -0.116479
   2 C :   -0.097644
   3 C :   -0.021129
   4 C :   -0.135028
   5 H :    0.036897
   6 C :    0.087851
   7 H :    0.021482
   8 H :    0.025170
   9 C :   -0.112202
  10 H :    0.043671
  11 H :    0.040899
  12 C :   -0.039452
  13 H :    0.039701
  14 H :    0.028915
  15 H :    0.032276
  16 S :    0.081263
  17 C :   -0.071534
  18 C :   -0.042814
  19 C :   -0.081369
  20 C :   -0.145793
  21 H :    0.031344
  22 C :    0.085226
  23 H :    0.016096
  24 H :    0.026681
  25 C :   -0.027173
  26 H :    0.016237
  27 H :    0.025985
  28 C :   -0.038299
  29 H :   -0.002755
  30 H :    0.028791
  31 H :    0.038903
  32 H :    0.051281
  33 H :    0.054757
Sum of atomic charges:   -0.0000000

LOEWDIN ATOMIC CHARGES
----------------------
   0 S :    0.403657
   1 C :   -0.202762
   2 C :   -0.064836
   3 C :   -0.062188
   4 C :   -0.192876
   5 H :    0.035042
   6 C :   -0.027794
   7 H :    0.032037
   8 H :    0.023622
   9 C :   -0.038996
  10 H :    0.029238
  11 H :    0.027516
  12 C :   -0.065895
  13 H :    0.025292
  14 H :    0.023175
  15 H :    0.029420
  16 S :    0.384104
  17 C :   -0.183226
  18 C :   -0.082186
  19 C :   -0.055114
  20 C :   -0.185240
  21 H :    0.035177
  22 C :   -0.028803
  23 H :    0.032663
  24 H :    0.030360
  25 C :   -0.037286
  26 H :    0.025757
  27 H :    0.020757
  28 C :   -0.063124
  29 H :    0.013639
  30 H :    0.021814
  31 H :    0.031990
  32 H :    0.032252
  33 H :    0.032815

  Mayer bond orders larger than 0.100000
B(  0-S ,  1-C ) :   1.1543 B(  0-S ,  4-C ) :   1.1277 B(  1-C ,  2-C ) :   1.5987
B(  1-C , 32-H ) :   0.9555 B(  2-C ,  3-C ) :   1.2719 B(  2-C ,  6-C ) :   1.0178
B(  3-C ,  4-C ) :   1.5602 B(  3-C ,  5-H ) :   0.9657 B(  4-C , 20-C ) :   1.0996
B(  6-C ,  7-H ) :   0.9426 B(  6-C ,  8-H ) :   0.9398 B(  6-C ,  9-C ) :   1.0442
B(  9-C , 10-H ) :   0.9574 B(  9-C , 11-H ) :   0.9616 B(  9-C , 12-C ) :   1.0826
B( 12-C , 13-H ) :   0.9758 B( 12-C , 14-H ) :   0.9741 B( 12-C , 15-H ) :   0.9735
B( 16-S , 17-C ) :   1.1341 B( 16-S , 20-C ) :   1.1367 B( 17-C , 18-C ) :   1.6277
B( 17-C , 33-H ) :   0.9695 B( 18-C , 19-C ) :   1.2498 B( 18-C , 21-H ) :   0.9731
B( 19-C , 20-C ) :   1.5494 B( 19-C , 22-C ) :   1.0330 B( 22-C , 23-H ) :   0.9349
B( 22-C , 24-H ) :   0.9329 B( 22-C , 25-C ) :   1.0651 B( 25-C , 26-H ) :   0.9512
B( 25-C , 27-H ) :   0.9577 B( 25-C , 28-C ) :   1.0708 B( 28-C , 29-H ) :   0.9716
B( 28-C , 30-H ) :   0.9746 B( 28-C , 31-H ) :   0.9757

Dispersion correction           -0.014245853
FINAL SINGLE POINT ENERGY     -1339.867089811571

DIPOLE MOMENT
-------------
                                X             Y             Z
Electronic contribution:    -20.74135      -1.07698      17.34021
Nuclear contribution   :     21.48020       1.06874     -17.61857
                        -----------------------------------------
Total Dipole Moment    :      0.73884      -0.00824      -0.27837
                        -----------------------------------------
Magnitude (a.u.)       :      0.78958
Magnitude (Debye)      :      2.00696

Rotational constants in cm-1:     0.018449     0.008415     0.006992
Rotational constants in MHz :   553.090626   252.280643   209.613966

                             ****ORCA TERMINATED NORMALLY****
TOTAL RUN TIME: 0 days 0 hours 0 minutes 21 seconds 758 msec
