                         Program Version 4.2.1 -  RELEASE  -
|  1> ! wB97X-D3 SP def2-SVP
|  2> %pal
|  3> nprocs 24
|  4> end
|  5>
|  6> * xyz 0 1
|  7> S 	 -108.122 	 61.6643 	 -98.6399
|  8> C 	 -106.571 	 61.9074 	 -97.8521
|  9> C 	 -105.935 	 60.6943 	 -97.5659
| 10> C 	 -106.608 	 59.6459 	 -98.1557
| 11> C 	 -107.72 	 60.0113 	 -98.9073
| 12> H 	 -106.497 	 58.611 	 -98.1881
| 13> C 	 -104.678 	 60.5488 	 -96.7574
| 14> H 	 -104.592 	 59.6906 	 -96.1531
| 15> H 	 -104.653 	 61.449 	 -96.0641
| 16> C 	 -103.388 	 60.4654 	 -97.6039
| 17> H 	 -103.471 	 59.7773 	 -98.529
| 18> H 	 -103.326 	 61.4273 	 -98.1797
| 19> C 	 -102.114 	 60.1771 	 -96.7985
| 20> H 	 -101.138 	 60.2747 	 -97.3202
| 21> H 	 -102.049 	 60.814 	 -95.9361
| 22> H 	 -102.055 	 59.2145 	 -96.3812
| 23> S 	 -109.04 	 57.5943 	 -98.736
| 24> C 	 -110.012 	 57.0816 	 -100.097
| 25> C 	 -109.953 	 57.9626 	 -101.164
| 26> C 	 -109.231 	 59.1485 	 -100.797
| 27> C 	 -108.61 	 59.0777 	 -99.5641
| 28> H 	 -110.523 	 57.8547 	 -102.075
| 29> C 	 -109.173 	 60.3421 	 -101.811
| 30> H 	 -108.647 	 61.2173 	 -101.401
| 31> H 	 -110.208 	 60.6533 	 -101.934
| 32> C 	 -108.532 	 60.0199 	 -103.156
| 33> H 	 -108.502 	 58.9523 	 -103.407
| 34> H 	 -107.397 	 60.2847 	 -103.216
| 35> C 	 -109.209 	 60.7267 	 -104.314
| 36> H 	 -109.266 	 61.7728 	 -104.136
| 37> H 	 -110.224 	 60.374 	 -104.402
| 38> H 	 -108.772 	 60.5653 	 -105.271
| 39> H 	 -106.238 	 62.7118 	 -97.2583
| 40> H 	 -110.513 	 56.1235 	 -100.176
| 41> *
| 42>
| 43>                          ****END OF INPUT****

CARTESIAN COORDINATES (ANGSTROEM)
---------------------------------
  S    -108.122000   61.664300  -98.639900
  C    -106.571000   61.907400  -97.852100
  C    -105.935000   60.694300  -97.565900
  C    -106.608000   59.645900  -98.155700
  C    -107.720000   60.011300  -98.907300
  H    -106.497000   58.611000  -98.188100
  C    -104.678000   60.548800  -96.757400
  H    -104.592000   59.690600  -96.153100
  H    -104.653000   61.449000  -96.064100
  C    -103.388000   60.465400  -97.603900
  H    -103.471000   59.777300  -98.529000
  H    -103.326000   61.427300  -98.179700
  C    -102.114000   60.177100  -96.798500
  H    -101.138000   60.274700  -97.320200
  H    -102.049000   60.814000  -95.936100
  H    -102.055000   59.214500  -96.381200
  S    -109.040000   57.594300  -98.736000
  C    -110.012000   57.081600  -100.097000
  C    -109.953000   57.962600  -101.164000
  C    -109.231000   59.148500  -100.797000
  C    -108.610000   59.077700  -99.564100
  H    -110.523000   57.854700  -102.075000
  C    -109.173000   60.342100  -101.811000
  H    -108.647000   61.217300  -101.401000
  H    -110.208000   60.653300  -101.934000
  C    -108.532000   60.019900  -103.156000
  H    -108.502000   58.952300  -103.407000
  H    -107.397000   60.284700  -103.216000
  C    -109.209000   60.726700  -104.314000
  H    -109.266000   61.772800  -104.136000
  H    -110.224000   60.374000  -104.402000
  H    -108.772000   60.565300  -105.271000
  H    -106.238000   62.711800  -97.258300
  H    -110.513000   56.123500  -100.176000

 Total Charge           Charge          ....    0
 Multiplicity           Mult            ....    1
 Number of Electrons    NEL             ....  134
 Basis Dimension        Dim             ....  322

ORBITAL ENERGIES
----------------

  NO   OCC          E(Eh)            E(eV)
   0   2.0000     -88.972468     -2421.0639
   1   2.0000     -88.969095     -2420.9721
   2   2.0000     -10.325301      -280.9657
   3   2.0000     -10.324549      -280.9453
   4   2.0000     -10.320553      -280.8365
   5   2.0000     -10.309648      -280.5398
   6   2.0000     -10.305371      -280.4234
   7   2.0000     -10.300359      -280.2870
   8   2.0000     -10.296637      -280.1857
   9   2.0000     -10.295760      -280.1619
  10   2.0000     -10.295442      -280.1532
  11   2.0000     -10.294116      -280.1171
  12   2.0000     -10.289073      -279.9799
  13   2.0000     -10.283418      -279.8260
  14   2.0000     -10.276055      -279.6257
  15   2.0000     -10.268053      -279.4079
  16   2.0000      -8.086725      -220.0510
  17   2.0000      -8.083608      -219.9662
  18   2.0000      -6.045060      -164.4944
  19   2.0000      -6.042151      -164.4153
  20   2.0000      -6.041412      -164.3952
  21   2.0000      -6.038191      -164.3075
  22   2.0000      -6.037574      -164.2907
  23   2.0000      -6.034311      -164.2019
  24   2.0000      -1.011607       -27.5272
  25   2.0000      -0.987121       -26.8609
  26   2.0000      -0.911950       -24.8154
  27   2.0000      -0.906636       -24.6708
  28   2.0000      -0.870928       -23.6992
  29   2.0000      -0.856116       -23.2961
  30   2.0000      -0.847173       -23.0527
  31   2.0000      -0.815231       -22.1836
  32   2.0000      -0.786274       -21.3956
  33   2.0000      -0.773460       -21.0469
  34   2.0000      -0.706180       -19.2161
  35   2.0000      -0.700567       -19.0634
  36   2.0000      -0.692389       -18.8409
  37   2.0000      -0.671339       -18.2681
  38   2.0000      -0.641036       -17.4435
  39   2.0000      -0.616221       -16.7682
  40   2.0000      -0.599904       -16.3242
  41   2.0000      -0.578362       -15.7380
  42   2.0000      -0.554522       -15.0893
  43   2.0000      -0.549585       -14.9550
  44   2.0000      -0.528857       -14.3909
  45   2.0000      -0.523466       -14.2442
  46   2.0000      -0.520158       -14.1542
  47   2.0000      -0.510725       -13.8975
  48   2.0000      -0.509492       -13.8640
  49   2.0000      -0.499833       -13.6011
  50   2.0000      -0.492660       -13.4059
  51   2.0000      -0.475380       -12.9357
  52   2.0000      -0.468267       -12.7422
  53   2.0000      -0.462879       -12.5956
  54   2.0000      -0.461395       -12.5552
  55   2.0000      -0.454583       -12.3698
  56   2.0000      -0.450263       -12.2523
  57   2.0000      -0.442367       -12.0374
  58   2.0000      -0.438054       -11.9200
  59   2.0000      -0.433616       -11.7993
  60   2.0000      -0.417977       -11.3737
  61   2.0000      -0.407933       -11.1004
  62   2.0000      -0.403746       -10.9865
  63   2.0000      -0.348340        -9.4788
  64   2.0000      -0.336369        -9.1531
  65   2.0000      -0.332641        -9.0516
  66   2.0000      -0.288652        -7.8546
  67   0.0000       0.026868         0.7311
  68   0.0000       0.069969         1.9039
  69   0.0000       0.102839         2.7984
  70   0.0000       0.120145         3.2693
  71   0.0000       0.123787         3.3684

MULLIKEN ATOMIC CHARGES
-----------------------
   0 S :    0.131580
   1 C :   -0.081349
   2 C :   -0.079025
   3 C :    0.022405
   4 C :   -0.148862
   5 H :   -0.021101
   6 C :    0.081778
   7 H :    0.014692
   8 H :    0.029523
   9 C :   -0.112527
  10 H :    0.042916
  11 H :    0.024884
  12 C :   -0.017897
  13 H :    0.039035
  14 H :    0.017542
  15 H :    0.017942
  16 S :    0.111553
  17 C :   -0.091404
  18 C :   -0.024690
  19 C :   -0.060872
  20 C :   -0.155396
  21 H :    0.024221
  22 C :    0.084231
  23 H :    0.028816
  24 H :    0.034891
  25 C :   -0.111933
  26 H :    0.031781
  27 H :    0.044212
  28 C :   -0.031964
  29 H :    0.025237
  30 H :    0.017457
  31 H :    0.025556
  32 H :    0.026617
  33 H :    0.060156
Sum of atomic charges:   -0.0000000

LOEWDIN ATOMIC CHARGES
----------------------
   0 S :    0.435449
   1 C :   -0.200965
   2 C :   -0.055857
   3 C :   -0.061962
   4 C :   -0.195112
   5 H :    0.015981
   6 C :   -0.028830
   7 H :    0.024143
   8 H :    0.036348
   9 C :   -0.051221
  10 H :    0.033331
  11 H :    0.025553
  12 C :   -0.070386
  13 H :    0.034791
  14 H :    0.022811
  15 H :    0.018588
  16 S :    0.408884
  17 C :   -0.181910
  18 C :   -0.068336
  19 C :   -0.052908
  20 C :   -0.204764
  21 H :    0.033186
  22 C :   -0.031747
  23 H :    0.026045
  24 H :    0.032221
  25 C :   -0.050749
  26 H :    0.021396
  27 H :    0.035176
  28 C :   -0.061241
  29 H :    0.019957
  30 H :    0.020379
  31 H :    0.022481
  32 H :    0.019018
  33 H :    0.030249

  Mayer bond orders larger than 0.100000
B(  0-S ,  1-C ) :   1.1477 B(  0-S ,  4-C ) :   1.1680 B(  1-C ,  2-C ) :   1.5822
B(  1-C ,  4-C ) :   0.1056 B(  1-C , 32-H ) :   0.9626 B(  2-C ,  3-C ) :   1.2459
B(  2-C ,  6-C ) :   1.0371 B(  3-C ,  4-C ) :   1.5387 B(  3-C ,  5-H ) :   1.0178
B(  4-C , 20-C ) :   1.0590 B(  6-C ,  7-H ) :   0.9460 B(  6-C ,  8-H ) :   0.9327
B(  6-C ,  9-C ) :   1.0458 B(  9-C , 10-H ) :   0.9593 B(  9-C , 11-H ) :   0.9525
B(  9-C , 12-C ) :   1.0718 B( 12-C , 13-H ) :   0.9737 B( 12-C , 14-H ) :   0.9721
B( 12-C , 15-H ) :   0.9727 B( 16-S , 17-C ) :   1.1553 B( 16-S , 20-C ) :   1.1234
B( 17-C , 18-C ) :   1.6134 B( 17-C , 33-H ) :   0.9652 B( 18-C , 19-C ) :   1.2408
B( 18-C , 21-H ) :   0.9874 B( 19-C , 20-C ) :   1.6041 B( 19-C , 22-C ) :   1.0347
B( 22-C , 23-H ) :   0.9278 B( 22-C , 24-H ) :   0.9477 B( 22-C , 25-C ) :   1.0357
B( 25-C , 26-H ) :   0.9678 B( 25-C , 27-H ) :   0.9555 B( 25-C , 28-C ) :   1.0780
B( 28-C , 29-H ) :   0.9760 B( 28-C , 30-H ) :   0.9741 B( 28-C , 31-H ) :   0.9721

Dispersion correction           -0.013468634
FINAL SINGLE POINT ENERGY     -1339.869698397833

DIPOLE MOMENT
-------------
                                X             Y             Z
Electronic contribution:    -16.68403      -5.03143      10.02033
Nuclear contribution   :     16.82007       4.92621     -10.15815
                        -----------------------------------------
Total Dipole Moment    :      0.13604      -0.10522      -0.13782
                        -----------------------------------------
Magnitude (a.u.)       :      0.22039
Magnitude (Debye)      :      0.56019

Rotational constants in cm-1:     0.019645     0.007252     0.006374
Rotational constants in MHz :   588.936849   217.421405   191.094168

                             ****ORCA TERMINATED NORMALLY****
TOTAL RUN TIME: 0 days 0 hours 0 minutes 20 seconds 915 msec
