                         Program Version 4.2.1 -  RELEASE  -
|  1> ! wB97X-D3 SP def2-SVP
|  2> %pal
|  3> nprocs 24
|  4> end
|  5>
|  6> * xyz 0 1
|  7> S 	 -75.4609 	 0.556412 	 -61.0357
|  8> C 	 -75.7198 	 2.04447 	 -61.9274
|  9> C 	 -75.6678 	 1.90407 	 -63.2993
| 10> C 	 -75.3378 	 0.569551 	 -63.6658
| 11> C 	 -75.2893 	 -0.337642 	 -62.5654
| 12> H 	 -75.2587 	 0.17731 	 -64.6233
| 13> C 	 -76.1542 	 2.89091 	 -64.3036
| 14> H 	 -76.1851 	 2.4296 	 -65.2405
| 15> H 	 -75.2855 	 3.64563 	 -64.3466
| 16> C 	 -77.5077 	 3.53822 	 -64.0859
| 17> H 	 -78.3405 	 2.74882 	 -64.2168
| 18> H 	 -77.599 	 3.89602 	 -63.0647
| 19> C 	 -77.8517 	 4.6665 	 -64.9856
| 20> H 	 -78.0971 	 4.37027 	 -65.9846
| 21> H 	 -78.7584 	 5.34789 	 -64.6831
| 22> H 	 -77.0117 	 5.33121 	 -65.0975
| 23> S 	 -74.3113 	 -2.4443 	 -64.0664
| 24> C 	 -74.2273 	 -4.08543 	 -63.3006
| 25> C 	 -74.6855 	 -4.02722 	 -62.0005
| 26> C 	 -75.1863 	 -2.76554 	 -61.5516
| 27> C 	 -75.0989 	 -1.78727 	 -62.5827
| 28> H 	 -74.7139 	 -4.97219 	 -61.4633
| 29> C 	 -75.9198 	 -2.5302 	 -60.2525
| 30> H 	 -75.3834 	 -1.7364 	 -59.7799
| 31> H 	 -75.707 	 -3.41516 	 -59.6051
| 32> C 	 -77.4749 	 -2.24814 	 -60.4843
| 33> H 	 -77.9186 	 -3.19393 	 -60.9275
| 34> H 	 -77.7052 	 -1.46093 	 -61.1676
| 35> C 	 -78.1401 	 -1.88006 	 -59.1174
| 36> H 	 -77.6945 	 -0.951491 	 -58.7966
| 37> H 	 -77.9409 	 -2.52244 	 -58.2913
| 38> H 	 -79.2261 	 -1.70308 	 -59.1615
| 39> H 	 -76.1017 	 2.94709 	 -61.4949
| 40> H 	 -73.982 	 -5.01724 	 -63.7412
| 41> *
| 42>
| 43>                          ****END OF INPUT****

CARTESIAN COORDINATES (ANGSTROEM)
---------------------------------
  S    -75.460900    0.556412  -61.035700
  C    -75.719800    2.044470  -61.927400
  C    -75.667800    1.904070  -63.299300
  C    -75.337800    0.569551  -63.665800
  C    -75.289300   -0.337642  -62.565400
  H    -75.258700    0.177310  -64.623300
  C    -76.154200    2.890910  -64.303600
  H    -76.185100    2.429600  -65.240500
  H    -75.285500    3.645630  -64.346600
  C    -77.507700    3.538220  -64.085900
  H    -78.340500    2.748820  -64.216800
  H    -77.599000    3.896020  -63.064700
  C    -77.851700    4.666500  -64.985600
  H    -78.097100    4.370270  -65.984600
  H    -78.758400    5.347890  -64.683100
  H    -77.011700    5.331210  -65.097500
  S    -74.311300   -2.444300  -64.066400
  C    -74.227300   -4.085430  -63.300600
  C    -74.685500   -4.027220  -62.000500
  C    -75.186300   -2.765540  -61.551600
  C    -75.098900   -1.787270  -62.582700
  H    -74.713900   -4.972190  -61.463300
  C    -75.919800   -2.530200  -60.252500
  H    -75.383400   -1.736400  -59.779900
  H    -75.707000   -3.415160  -59.605100
  C    -77.474900   -2.248140  -60.484300
  H    -77.918600   -3.193930  -60.927500
  H    -77.705200   -1.460930  -61.167600
  C    -78.140100   -1.880060  -59.117400
  H    -77.694500   -0.951491  -58.796600
  H    -77.940900   -2.522440  -58.291300
  H    -79.226100   -1.703080  -59.161500
  H    -76.101700    2.947090  -61.494900
  H    -73.982000   -5.017240  -63.741200

 Total Charge           Charge          ....    0
 Multiplicity           Mult            ....    1
 Number of Electrons    NEL             ....  134
 Basis Dimension        Dim             ....  322

ORBITAL ENERGIES
----------------

  NO   OCC          E(Eh)            E(eV)
   0   2.0000     -88.971984     -2421.0508
   1   2.0000     -88.967715     -2420.9346
   2   2.0000     -10.338543      -281.3261
   3   2.0000     -10.335816      -281.2518
   4   2.0000     -10.320528      -280.8359
   5   2.0000     -10.310371      -280.5595
   6   2.0000     -10.309058      -280.5237
   7   2.0000     -10.301154      -280.3086
   8   2.0000     -10.298972      -280.2493
   9   2.0000     -10.296787      -280.1898
  10   2.0000     -10.295791      -280.1627
  11   2.0000     -10.294504      -280.1277
  12   2.0000     -10.294290      -280.1219
  13   2.0000     -10.292447      -280.0717
  14   2.0000     -10.281165      -279.7647
  15   2.0000     -10.273429      -279.5542
  16   2.0000      -8.085166      -220.0086
  17   2.0000      -8.080400      -219.8789
  18   2.0000      -6.043818      -164.4607
  19   2.0000      -6.039889      -164.3537
  20   2.0000      -6.039212      -164.3353
  21   2.0000      -6.035895      -164.2451
  22   2.0000      -6.035289      -164.2286
  23   2.0000      -6.030883      -164.1087
  24   2.0000      -0.998491       -27.1703
  25   2.0000      -0.975121       -26.5344
  26   2.0000      -0.918515       -24.9941
  27   2.0000      -0.899620       -24.4799
  28   2.0000      -0.869524       -23.6609
  29   2.0000      -0.855919       -23.2907
  30   2.0000      -0.843120       -22.9425
  31   2.0000      -0.812142       -22.0995
  32   2.0000      -0.783700       -21.3256
  33   2.0000      -0.768210       -20.9040
  34   2.0000      -0.712718       -19.3940
  35   2.0000      -0.704929       -19.1821
  36   2.0000      -0.696556       -18.9543
  37   2.0000      -0.664152       -18.0725
  38   2.0000      -0.639204       -17.3936
  39   2.0000      -0.609799       -16.5935
  40   2.0000      -0.588045       -16.0015
  41   2.0000      -0.580356       -15.7923
  42   2.0000      -0.561085       -15.2679
  43   2.0000      -0.558682       -15.2025
  44   2.0000      -0.524868       -14.2824
  45   2.0000      -0.519823       -14.1451
  46   2.0000      -0.519070       -14.1246
  47   2.0000      -0.514324       -13.9955
  48   2.0000      -0.510540       -13.8925
  49   2.0000      -0.503454       -13.6997
  50   2.0000      -0.483291       -13.1510
  51   2.0000      -0.478732       -13.0270
  52   2.0000      -0.470722       -12.8090
  53   2.0000      -0.469774       -12.7832
  54   2.0000      -0.454752       -12.3744
  55   2.0000      -0.449464       -12.2306
  56   2.0000      -0.443847       -12.0777
  57   2.0000      -0.437412       -11.9026
  58   2.0000      -0.431533       -11.7426
  59   2.0000      -0.425390       -11.5754
  60   2.0000      -0.421470       -11.4688
  61   2.0000      -0.418364       -11.3843
  62   2.0000      -0.412121       -11.2144
  63   2.0000      -0.358443        -9.7537
  64   2.0000      -0.332589        -9.0502
  65   2.0000      -0.330904        -9.0044
  66   2.0000      -0.275969        -7.5095
  67   0.0000       0.008624         0.2347
  68   0.0000       0.083390         2.2692
  69   0.0000       0.099702         2.7130
  70   0.0000       0.110778         3.0144
  71   0.0000       0.130703         3.5566

MULLIKEN ATOMIC CHARGES
-----------------------
   0 S :    0.091248
   1 C :   -0.109496
   2 C :   -0.069443
   3 C :    0.025309
   4 C :   -0.134628
   5 H :   -0.009426
   6 C :    0.074703
   7 H :    0.005528
   8 H :    0.049198
   9 C :   -0.070290
  10 H :    0.043484
  11 H :    0.023676
  12 C :   -0.060524
  13 H :    0.021862
  14 H :    0.047707
  15 H :    0.019635
  16 S :    0.072264
  17 C :   -0.069781
  18 C :   -0.039762
  19 C :   -0.062947
  20 C :   -0.120066
  21 H :    0.020926
  22 C :    0.039469
  23 H :    0.035875
  24 H :    0.029079
  25 C :   -0.061970
  26 H :    0.041979
  27 H :    0.045003
  28 C :   -0.033773
  29 H :    0.013960
  30 H :    0.020239
  31 H :    0.038576
  32 H :    0.038160
  33 H :    0.044223
Sum of atomic charges:    0.0000000

LOEWDIN ATOMIC CHARGES
----------------------
   0 S :    0.411604
   1 C :   -0.198628
   2 C :   -0.059224
   3 C :   -0.058854
   4 C :   -0.175303
   5 H :    0.013869
   6 C :   -0.032031
   7 H :    0.022546
   8 H :    0.045631
   9 C :   -0.047070
  10 H :    0.037151
  11 H :    0.020907
  12 C :   -0.072834
  13 H :    0.018912
  14 H :    0.041135
  15 H :    0.020193
  16 S :    0.360992
  17 C :   -0.163206
  18 C :   -0.069635
  19 C :   -0.058824
  20 C :   -0.175436
  21 H :    0.033697
  22 C :   -0.038375
  23 H :    0.016449
  24 H :    0.037588
  25 C :   -0.029978
  26 H :    0.031242
  27 H :    0.020894
  28 C :   -0.068896
  29 H :    0.021788
  30 H :    0.018377
  31 H :    0.028350
  32 H :    0.021167
  33 H :    0.025802

  Mayer bond orders larger than 0.100000
B(  0-S ,  1-C ) :   1.1319 B(  0-S ,  4-C ) :   1.1392 B(  1-C ,  2-C ) :   1.6127
B(  1-C , 32-H ) :   0.9632 B(  2-C ,  3-C ) :   1.2630 B(  2-C ,  6-C ) :   1.0227
B(  3-C ,  4-C ) :   1.5330 B(  3-C ,  5-H ) :   0.9930 B(  4-C , 20-C ) :   1.1144
B(  6-C ,  7-H ) :   0.9436 B(  6-C ,  8-H ) :   0.9229 B(  6-C ,  9-C ) :   1.0695
B(  9-C , 10-H ) :   0.9517 B(  9-C , 11-H ) :   0.9535 B(  9-C , 12-C ) :   1.0851
B( 12-C , 13-H ) :   0.9742 B( 12-C , 14-H ) :   0.9723 B( 12-C , 15-H ) :   0.9715
B( 16-S , 17-C ) :   1.1214 B( 16-S , 20-C ) :   1.1229 B( 17-C , 18-C ) :   1.6426
B( 17-C , 33-H ) :   0.9675 B( 18-C , 19-C ) :   1.2440 B( 18-C , 21-H ) :   0.9830
B( 19-C , 20-C ) :   1.5414 B( 19-C , 22-C ) :   1.0392 B( 22-C , 23-H ) :   0.9289
B( 22-C , 24-H ) :   0.9335 B( 22-C , 25-C ) :   1.0402 B( 25-C , 26-H ) :   0.9579
B( 25-C , 27-H ) :   0.9606 B( 25-C , 28-C ) :   1.0707 B( 28-C , 29-H ) :   0.9723
B( 28-C , 30-H ) :   0.9770 B( 28-C , 31-H ) :   0.9757

Dispersion correction           -0.014191130
FINAL SINGLE POINT ENERGY     -1339.867892642250

DIPOLE MOMENT
-------------
                                X             Y             Z
Electronic contribution:     17.23404     -12.51614      -2.38921
Nuclear contribution   :    -17.63128      12.54344       2.39932
                        -----------------------------------------
Total Dipole Moment    :     -0.39724       0.02730       0.01011
                        -----------------------------------------
Magnitude (a.u.)       :      0.39831
Magnitude (Debye)      :      1.01242

Rotational constants in cm-1:     0.020209     0.008102     0.006425
Rotational constants in MHz :   605.850788   242.889840   192.607941

                             ****ORCA TERMINATED NORMALLY****
TOTAL RUN TIME: 0 days 0 hours 0 minutes 22 seconds 310 msec
