                         Program Version 4.2.1 -  RELEASE  -
|  1> ! wB97X-D3 SP def2-SVP
|  2> %pal
|  3> nprocs 24
|  4> end
|  5>
|  6> * xyz 0 1
|  7> S 	 -142.259 	 9.83452 	 -11.6034
|  8> C 	 -140.526 	 9.58175 	 -11.9489
|  9> C 	 -139.811 	 9.15932 	 -10.8531
| 10> C 	 -140.631 	 9.1236 	 -9.71529
| 11> C 	 -141.939 	 9.38069 	 -9.9764
| 12> H 	 -140.36 	 8.88049 	 -8.71832
| 13> C 	 -138.342 	 8.71672 	 -10.8028
| 14> H 	 -138.121 	 7.90219 	 -11.4553
| 15> H 	 -138.212 	 8.34266 	 -9.79872
| 16> C 	 -137.309 	 9.90802 	 -11.0983
| 17> H 	 -137.487 	 10.4726 	 -11.967
| 18> H 	 -137.36 	 10.5568 	 -10.2142
| 19> C 	 -135.864 	 9.31919 	 -11.3499
| 20> H 	 -135.495 	 9.00782 	 -10.363
| 21> H 	 -135.867 	 8.45032 	 -12.0446
| 22> H 	 -135.341 	 10.2447 	 -11.5834
| 23> S 	 -143.681 	 7.58338 	 -8.95968
| 24> C 	 -144.822 	 8.0737 	 -7.80574
| 25> C 	 -144.647 	 9.33629 	 -7.43241
| 26> C 	 -143.649 	 9.98786 	 -8.18356
| 27> C 	 -143.045 	 9.1639 	 -9.07646
| 28> H 	 -145.202 	 9.77953 	 -6.59601
| 29> C 	 -143.258 	 11.4857 	 -7.94504
| 30> H 	 -143.455 	 12.0246 	 -8.90832
| 31> H 	 -142.165 	 11.586 	 -7.71998
| 32> C 	 -144.059 	 12.2976 	 -6.87656
| 33> H 	 -143.787 	 11.9495 	 -5.86052
| 34> H 	 -145.122 	 12.1667 	 -6.85186
| 35> C 	 -143.735 	 13.7903 	 -7.04102
| 36> H 	 -144.261 	 14.3213 	 -6.2404
| 37> H 	 -144.013 	 14.1961 	 -8.02501
| 38> H 	 -142.665 	 13.8912 	 -6.95572
| 39> H 	 -140.149 	 9.68893 	 -12.9751
| 40> H 	 -145.571 	 7.48938 	 -7.30837
| 41> *
| 42>
| 43>                          ****END OF INPUT****

CARTESIAN COORDINATES (ANGSTROEM)
---------------------------------
  S    -142.259000    9.834520  -11.603400
  C    -140.526000    9.581750  -11.948900
  C    -139.811000    9.159320  -10.853100
  C    -140.631000    9.123600   -9.715290
  C    -141.939000    9.380690   -9.976400
  H    -140.360000    8.880490   -8.718320
  C    -138.342000    8.716720  -10.802800
  H    -138.121000    7.902190  -11.455300
  H    -138.212000    8.342660   -9.798720
  C    -137.309000    9.908020  -11.098300
  H    -137.487000   10.472600  -11.967000
  H    -137.360000   10.556800  -10.214200
  C    -135.864000    9.319190  -11.349900
  H    -135.495000    9.007820  -10.363000
  H    -135.867000    8.450320  -12.044600
  H    -135.341000   10.244700  -11.583400
  S    -143.681000    7.583380   -8.959680
  C    -144.822000    8.073700   -7.805740
  C    -144.647000    9.336290   -7.432410
  C    -143.649000    9.987860   -8.183560
  C    -143.045000    9.163900   -9.076460
  H    -145.202000    9.779530   -6.596010
  C    -143.258000   11.485700   -7.945040
  H    -143.455000   12.024600   -8.908320
  H    -142.165000   11.586000   -7.719980
  C    -144.059000   12.297600   -6.876560
  H    -143.787000   11.949500   -5.860520
  H    -145.122000   12.166700   -6.851860
  C    -143.735000   13.790300   -7.041020
  H    -144.261000   14.321300   -6.240400
  H    -144.013000   14.196100   -8.025010
  H    -142.665000   13.891200   -6.955720
  H    -140.149000    9.688930  -12.975100
  H    -145.571000    7.489380   -7.308370

 Total Charge           Charge          ....    0
 Multiplicity           Mult            ....    1
 Number of Electrons    NEL             ....  134
 Basis Dimension        Dim             ....  322

ORBITAL ENERGIES
----------------

  NO   OCC          E(Eh)            E(eV)
   0   2.0000     -88.964539     -2420.8482
   1   2.0000     -88.960264     -2420.7319
   2   2.0000     -10.317458      -280.7523
   3   2.0000     -10.313323      -280.6398
   4   2.0000     -10.310347      -280.5588
   5   2.0000     -10.302085      -280.3340
   6   2.0000     -10.298495      -280.2363
   7   2.0000     -10.298044      -280.2240
   8   2.0000     -10.294820      -280.1363
   9   2.0000     -10.293624      -280.1037
  10   2.0000     -10.289168      -279.9825
  11   2.0000     -10.286779      -279.9175
  12   2.0000     -10.284931      -279.8672
  13   2.0000     -10.284402      -279.8528
  14   2.0000     -10.281092      -279.7627
  15   2.0000     -10.277934      -279.6768
  16   2.0000      -8.079488      -219.8540
  17   2.0000      -8.077009      -219.7866
  18   2.0000      -6.037821      -164.2975
  19   2.0000      -6.035301      -164.2289
  20   2.0000      -6.034075      -164.1955
  21   2.0000      -6.031310      -164.1203
  22   2.0000      -6.030319      -164.0933
  23   2.0000      -6.027786      -164.0244
  24   2.0000      -1.018527       -27.7155
  25   2.0000      -0.991619       -26.9833
  26   2.0000      -0.904061       -24.6008
  27   2.0000      -0.901816       -24.5397
  28   2.0000      -0.870708       -23.6932
  29   2.0000      -0.851052       -23.1583
  30   2.0000      -0.849312       -23.1109
  31   2.0000      -0.813800       -22.1446
  32   2.0000      -0.779773       -21.2187
  33   2.0000      -0.766816       -20.8661
  34   2.0000      -0.702766       -19.1232
  35   2.0000      -0.701016       -19.0756
  36   2.0000      -0.696838       -18.9619
  37   2.0000      -0.651081       -17.7168
  38   2.0000      -0.646177       -17.5834
  39   2.0000      -0.619210       -16.8496
  40   2.0000      -0.599629       -16.3167
  41   2.0000      -0.568406       -15.4671
  42   2.0000      -0.561363       -15.2755
  43   2.0000      -0.560208       -15.2440
  44   2.0000      -0.530940       -14.4476
  45   2.0000      -0.524580       -14.2745
  46   2.0000      -0.514466       -13.9993
  47   2.0000      -0.509710       -13.8699
  48   2.0000      -0.503847       -13.7104
  49   2.0000      -0.494599       -13.4587
  50   2.0000      -0.482897       -13.1403
  51   2.0000      -0.476543       -12.9674
  52   2.0000      -0.473282       -12.8787
  53   2.0000      -0.464590       -12.6421
  54   2.0000      -0.461520       -12.5586
  55   2.0000      -0.449514       -12.2319
  56   2.0000      -0.443406       -12.0657
  57   2.0000      -0.439743       -11.9660
  58   2.0000      -0.433062       -11.7842
  59   2.0000      -0.431257       -11.7351
  60   2.0000      -0.422670       -11.5014
  61   2.0000      -0.414406       -11.2766
  62   2.0000      -0.409678       -11.1479
  63   2.0000      -0.338409        -9.2086
  64   2.0000      -0.329381        -8.9629
  65   2.0000      -0.317551        -8.6410
  66   2.0000      -0.312213        -8.4958
  67   0.0000       0.050755         1.3811
  68   0.0000       0.063332         1.7234
  69   0.0000       0.113326         3.0837
  70   0.0000       0.127904         3.4804
  71   0.0000       0.141124         3.8402

MULLIKEN ATOMIC CHARGES
-----------------------
   0 S :    0.117630
   1 C :   -0.149820
   2 C :   -0.049561
   3 C :    0.047250
   4 C :   -0.185978
   5 H :   -0.005773
   6 C :    0.094456
   7 H :    0.025355
   8 H :    0.013537
   9 C :   -0.104549
  10 H :    0.029802
  11 H :    0.037787
  12 C :   -0.056244
  13 H :    0.027492
  14 H :    0.052280
  15 H :    0.041011
  16 S :    0.134151
  17 C :   -0.052754
  18 C :   -0.068118
  19 C :   -0.003051
  20 C :   -0.198612
  21 H :    0.018862
  22 C :    0.041424
  23 H :    0.036034
  24 H :    0.046276
  25 C :   -0.095694
  26 H :    0.024454
  27 H :    0.026608
  28 C :   -0.029638
  29 H :    0.036229
  30 H :    0.036294
  31 H :    0.025138
  32 H :    0.050218
  33 H :    0.037506
Sum of atomic charges:    0.0000000

LOEWDIN ATOMIC CHARGES
----------------------
   0 S :    0.407977
   1 C :   -0.186027
   2 C :   -0.063371
   3 C :   -0.058702
   4 C :   -0.203853
   5 H :    0.027636
   6 C :   -0.021982
   7 H :    0.025107
   8 H :    0.027810
   9 C :   -0.030137
  10 H :    0.013861
  11 H :    0.026766
  12 C :   -0.068572
  13 H :    0.023245
  14 H :    0.030413
  15 H :    0.029862
  16 S :    0.446933
  17 C :   -0.198958
  18 C :   -0.082415
  19 C :   -0.059442
  20 C :   -0.226213
  21 H :    0.034583
  22 C :   -0.033868
  23 H :    0.036016
  24 H :    0.037309
  25 C :   -0.047285
  26 H :    0.022726
  27 H :    0.016948
  28 C :   -0.058768
  29 H :    0.028219
  30 H :    0.026032
  31 H :    0.022464
  32 H :    0.026514
  33 H :    0.029169

  Mayer bond orders larger than 0.100000
B(  0-S ,  1-C ) :   1.1367 B(  0-S ,  4-C ) :   1.1641 B(  1-C ,  2-C ) :   1.6158
B(  1-C , 32-H ) :   0.9698 B(  2-C ,  3-C ) :   1.2321 B(  2-C ,  6-C ) :   1.0080
B(  3-C ,  4-C ) :   1.6106 B(  3-C ,  5-H ) :   1.0002 B(  4-C , 20-C ) :   0.9942
B(  6-C ,  7-H ) :   0.9457 B(  6-C ,  8-H ) :   0.9422 B(  6-C ,  9-C ) :   1.0493
B(  9-C , 10-H ) :   0.9714 B(  9-C , 11-H ) :   0.9594 B(  9-C , 12-C ) :   1.0645
B( 12-C , 13-H ) :   0.9783 B( 12-C , 14-H ) :   0.9761 B( 12-C , 15-H ) :   0.9771
B( 16-S , 17-C ) :   1.1634 B( 16-S , 20-C ) :   1.1621 B( 17-C , 18-C ) :   1.6127
B( 17-C , 33-H ) :   0.9584 B( 18-C , 19-C ) :   1.2704 B( 18-C , 21-H ) :   0.9861
B( 19-C , 20-C ) :   1.6242 B( 19-C , 22-C ) :   1.0113 B( 22-C , 23-H ) :   0.9406
B( 22-C , 24-H ) :   0.9362 B( 22-C , 25-C ) :   1.0704 B( 25-C , 26-H ) :   0.9498
B( 25-C , 27-H ) :   0.9539 B( 25-C , 28-C ) :   1.0829 B( 28-C , 29-H ) :   0.9719
B( 28-C , 30-H ) :   0.9760 B( 28-C , 31-H ) :   0.9744

Dispersion correction           -0.013344208
FINAL SINGLE POINT ENERGY     -1339.875632279209

DIPOLE MOMENT
-------------
                                X             Y             Z
Electronic contribution:    -17.35911     -15.51793      -7.19939
Nuclear contribution   :     17.69843      15.71522       7.53014
                        -----------------------------------------
Total Dipole Moment    :      0.33932       0.19728       0.33075
                        -----------------------------------------
Magnitude (a.u.)       :      0.51328
Magnitude (Debye)      :      1.30465

Rotational constants in cm-1:     0.019449     0.007151     0.006079
Rotational constants in MHz :   583.058175   214.375055   182.232958

                             ****ORCA TERMINATED NORMALLY****
TOTAL RUN TIME: 0 days 0 hours 0 minutes 20 seconds 759 msec
