                         Program Version 4.2.1 -  RELEASE  -
|  1> ! wB97X-D3 SP def2-SVP
|  2> %pal
|  3> nprocs 24
|  4> end
|  5>
|  6> * xyz 0 1
|  7> S 	 -34.8459 	 -32.8554 	 -92.1213
|  8> C 	 -36.2569 	 -32.7024 	 -91.1392
|  9> C 	 -36.0357 	 -32.1607 	 -89.9045
| 10> C 	 -34.6264 	 -32.0249 	 -89.7038
| 11> C 	 -33.8408 	 -32.1597 	 -90.8042
| 12> H 	 -34.103 	 -31.7019 	 -88.7686
| 13> C 	 -36.9978 	 -31.9214 	 -88.8069
| 14> H 	 -37.0805 	 -32.96 	 -88.4825
| 15> H 	 -37.8427 	 -31.6422 	 -89.3459
| 16> C 	 -36.5833 	 -31.0638 	 -87.592
| 17> H 	 -36.1116 	 -30.084 	 -87.9061
| 18> H 	 -37.5417 	 -30.7042 	 -87.1964
| 19> C 	 -35.8248 	 -31.7302 	 -86.4332
| 20> H 	 -34.8399 	 -31.9152 	 -86.7595
| 21> H 	 -35.6664 	 -31.0533 	 -85.5838
| 22> H 	 -36.2773 	 -32.655 	 -86.16
| 23> S 	 -31.4334 	 -32.7211 	 -92.1345
| 24> C 	 -30.003 	 -31.7541 	 -91.8411
| 25> C 	 -30.3367 	 -30.6794 	 -91.0027
| 26> C 	 -31.6162 	 -30.8006 	 -90.3743
| 27> C 	 -32.3524 	 -31.836 	 -90.9237
| 28> H 	 -29.5937 	 -29.945 	 -90.7313
| 29> C 	 -32.1466 	 -29.7047 	 -89.4181
| 30> H 	 -33.1962 	 -29.8119 	 -89.5338
| 31> H 	 -31.9311 	 -28.7635 	 -90.0094
| 32> C 	 -31.8377 	 -29.7266 	 -87.868
| 33> H 	 -32.2519 	 -30.5695 	 -87.3332
| 34> H 	 -32.2379 	 -28.7526 	 -87.4027
| 35> C 	 -30.3328 	 -29.8359 	 -87.6038
| 36> H 	 -29.6359 	 -29.1115 	 -88.1081
| 37> H 	 -29.9985 	 -30.8995 	 -87.843
| 38> H 	 -30.1099 	 -29.7024 	 -86.5111
| 39> H 	 -37.2645 	 -32.941 	 -91.5243
| 40> H 	 -29.0546 	 -31.9743 	 -92.3573
| 41> *
| 42>
| 43>                          ****END OF INPUT****

CARTESIAN COORDINATES (ANGSTROEM)
---------------------------------
  S    -34.845900  -32.855400  -92.121300
  C    -36.256900  -32.702400  -91.139200
  C    -36.035700  -32.160700  -89.904500
  C    -34.626400  -32.024900  -89.703800
  C    -33.840800  -32.159700  -90.804200
  H    -34.103000  -31.701900  -88.768600
  C    -36.997800  -31.921400  -88.806900
  H    -37.080500  -32.960000  -88.482500
  H    -37.842700  -31.642200  -89.345900
  C    -36.583300  -31.063800  -87.592000
  H    -36.111600  -30.084000  -87.906100
  H    -37.541700  -30.704200  -87.196400
  C    -35.824800  -31.730200  -86.433200
  H    -34.839900  -31.915200  -86.759500
  H    -35.666400  -31.053300  -85.583800
  H    -36.277300  -32.655000  -86.160000
  S    -31.433400  -32.721100  -92.134500
  C    -30.003000  -31.754100  -91.841100
  C    -30.336700  -30.679400  -91.002700
  C    -31.616200  -30.800600  -90.374300
  C    -32.352400  -31.836000  -90.923700
  H    -29.593700  -29.945000  -90.731300
  C    -32.146600  -29.704700  -89.418100
  H    -33.196200  -29.811900  -89.533800
  H    -31.931100  -28.763500  -90.009400
  C    -31.837700  -29.726600  -87.868000
  H    -32.251900  -30.569500  -87.333200
  H    -32.237900  -28.752600  -87.402700
  C    -30.332800  -29.835900  -87.603800
  H    -29.635900  -29.111500  -88.108100
  H    -29.998500  -30.899500  -87.843000
  H    -30.109900  -29.702400  -86.511100
  H    -37.264500  -32.941000  -91.524300
  H    -29.054600  -31.974300  -92.357300

 Total Charge           Charge          ....    0
 Multiplicity           Mult            ....    1
 Number of Electrons    NEL             ....  134
 Basis Dimension        Dim             ....  322

ORBITAL ENERGIES
----------------

  NO   OCC          E(Eh)            E(eV)
   0   2.0000     -88.964925     -2420.8587
   1   2.0000     -88.963458     -2420.8188
   2   2.0000     -10.333605      -281.1917
   3   2.0000     -10.332713      -281.1674
   4   2.0000     -10.323376      -280.9133
   5   2.0000     -10.309569      -280.5376
   6   2.0000     -10.306390      -280.4511
   7   2.0000     -10.303376      -280.3691
   8   2.0000     -10.297933      -280.2210
   9   2.0000     -10.297550      -280.2106
  10   2.0000     -10.296598      -280.1847
  11   2.0000     -10.296427      -280.1800
  12   2.0000     -10.290328      -280.0141
  13   2.0000     -10.289597      -279.9942
  14   2.0000     -10.287981      -279.9502
  15   2.0000     -10.280203      -279.7386
  16   2.0000      -8.079615      -219.8575
  17   2.0000      -8.077875      -219.8101
  18   2.0000      -6.038116      -164.3055
  19   2.0000      -6.036599      -164.2642
  20   2.0000      -6.034089      -164.1959
  21   2.0000      -6.032556      -164.1542
  22   2.0000      -6.030440      -164.0966
  23   2.0000      -6.028314      -164.0388
  24   2.0000      -1.002842       -27.2887
  25   2.0000      -0.984932       -26.8014
  26   2.0000      -0.915361       -24.9083
  27   2.0000      -0.901386       -24.5280
  28   2.0000      -0.865493       -23.5513
  29   2.0000      -0.851950       -23.1827
  30   2.0000      -0.844754       -22.9869
  31   2.0000      -0.817406       -22.2427
  32   2.0000      -0.784536       -21.3483
  33   2.0000      -0.773061       -21.0360
  34   2.0000      -0.710967       -19.3464
  35   2.0000      -0.698143       -18.9974
  36   2.0000      -0.686664       -18.6851
  37   2.0000      -0.661493       -18.0001
  38   2.0000      -0.635260       -17.2863
  39   2.0000      -0.619705       -16.8630
  40   2.0000      -0.587053       -15.9745
  41   2.0000      -0.575192       -15.6518
  42   2.0000      -0.555774       -15.1234
  43   2.0000      -0.549170       -14.9437
  44   2.0000      -0.539673       -14.6852
  45   2.0000      -0.529980       -14.4215
  46   2.0000      -0.525374       -14.2962
  47   2.0000      -0.511354       -13.9146
  48   2.0000      -0.501199       -13.6383
  49   2.0000      -0.494932       -13.4678
  50   2.0000      -0.486444       -13.2368
  51   2.0000      -0.480436       -13.0733
  52   2.0000      -0.475964       -12.9516
  53   2.0000      -0.466604       -12.6969
  54   2.0000      -0.456814       -12.4305
  55   2.0000      -0.447687       -12.1822
  56   2.0000      -0.440669       -11.9912
  57   2.0000      -0.437845       -11.9144
  58   2.0000      -0.434807       -11.8317
  59   2.0000      -0.428915       -11.6714
  60   2.0000      -0.422285       -11.4910
  61   2.0000      -0.412916       -11.2360
  62   2.0000      -0.411537       -11.1985
  63   2.0000      -0.353078        -9.6077
  64   2.0000      -0.331856        -9.0303
  65   2.0000      -0.324922        -8.8416
  66   2.0000      -0.286307        -7.7908
  67   0.0000       0.027825         0.7572
  68   0.0000       0.078663         2.1405
  69   0.0000       0.106655         2.9022
  70   0.0000       0.112752         3.0681
  71   0.0000       0.133655         3.6369

MULLIKEN ATOMIC CHARGES
-----------------------
   0 S :    0.101413
   1 C :   -0.143483
   2 C :   -0.105098
   3 C :   -0.016325
   4 C :   -0.109935
   5 H :    0.014228
   6 C :    0.107644
   7 H :    0.046255
   8 H :    0.015019
   9 C :   -0.103793
  10 H :    0.036789
  11 H :    0.027335
  12 C :    0.000230
  13 H :    0.007328
  14 H :    0.039204
  15 H :    0.031933
  16 S :    0.094027
  17 C :   -0.112368
  18 C :   -0.022830
  19 C :   -0.077361
  20 C :   -0.138981
  21 H :    0.021255
  22 C :    0.043290
  23 H :    0.012175
  24 H :    0.048749
  25 C :   -0.043093
  26 H :    0.038735
  27 H :    0.049056
  28 C :   -0.116911
  29 H :    0.041421
  30 H :    0.052758
  31 H :    0.036219
  32 H :    0.050217
  33 H :    0.074898
Sum of atomic charges:    0.0000000

LOEWDIN ATOMIC CHARGES
----------------------
   0 S :    0.384007
   1 C :   -0.213019
   2 C :   -0.064532
   3 C :   -0.077997
   4 C :   -0.173057
   5 H :    0.034561
   6 C :   -0.030147
   7 H :    0.046808
   8 H :    0.027027
   9 C :   -0.047191
  10 H :    0.030257
  11 H :    0.028500
  12 C :   -0.056137
  13 H :    0.014193
  14 H :    0.034411
  15 H :    0.024169
  16 S :    0.397702
  17 C :   -0.186617
  18 C :   -0.068877
  19 C :   -0.063943
  20 C :   -0.188845
  21 H :    0.029020
  22 C :   -0.037414
  23 H :    0.022381
  24 H :    0.045211
  25 C :   -0.040023
  26 H :    0.025221
  27 H :    0.036059
  28 C :   -0.084749
  29 H :    0.024936
  30 H :    0.033957
  31 H :    0.027666
  32 H :    0.030933
  33 H :    0.035531

  Mayer bond orders larger than 0.100000
B(  0-S ,  1-C ) :   1.1303 B(  0-S ,  4-C ) :   1.1273 B(  1-C ,  2-C ) :   1.6364
B(  1-C , 32-H ) :   0.9621 B(  2-C ,  3-C ) :   1.2148 B(  2-C ,  6-C ) :   0.9959
B(  3-C ,  4-C ) :   1.6229 B(  3-C ,  5-H ) :   0.9709 B(  4-C , 20-C ) :   1.0266
B(  6-C ,  7-H ) :   0.9347 B(  6-C ,  8-H ) :   0.9325 B(  6-C ,  9-C ) :   1.0666
B(  9-C , 10-H ) :   0.9574 B(  9-C , 11-H ) :   0.9518 B(  9-C , 12-C ) :   1.0740
B( 12-C , 13-H ) :   0.9772 B( 12-C , 14-H ) :   0.9675 B( 12-C , 15-H ) :   0.9692
B( 16-S , 17-C ) :   1.1572 B( 16-S , 20-C ) :   1.1465 B( 17-C , 18-C ) :   1.5860
B( 17-C , 33-H ) :   0.9696 B( 18-C , 19-C ) :   1.2541 B( 18-C , 21-H ) :   0.9880
B( 19-C , 20-C ) :   1.5928 B( 19-C , 22-C ) :   1.0096 B( 22-C , 23-H ) :   0.9333
B( 22-C , 24-H ) :   0.9446 B( 22-C , 25-C ) :   1.0556 B( 25-C , 26-H ) :   0.9517
B( 25-C , 27-H ) :   0.9557 B( 25-C , 28-C ) :   1.0764 B( 28-C , 29-H ) :   0.9764
B( 28-C , 30-H ) :   0.9707 B( 28-C , 31-H ) :   0.9734

Dispersion correction           -0.015162490
FINAL SINGLE POINT ENERGY     -1339.863707644920

DIPOLE MOMENT
-------------
                                X             Y             Z
Electronic contribution:      3.11216     -13.13742     -28.05752
Nuclear contribution   :     -3.25450      13.56776      28.73545
                        -----------------------------------------
Total Dipole Moment    :     -0.14235       0.43034       0.67794
                        -----------------------------------------
Magnitude (a.u.)       :      0.81551
Magnitude (Debye)      :      2.07286

Rotational constants in cm-1:     0.016463     0.010781     0.006868
Rotational constants in MHz :   493.559057   323.217064   205.893175

                             ****ORCA TERMINATED NORMALLY****
TOTAL RUN TIME: 0 days 0 hours 0 minutes 22 seconds 365 msec
