                         Program Version 4.2.1 -  RELEASE  -
|  1> ! wB97X-D3 SP def2-SVP
|  2> %pal
|  3> nprocs 24
|  4> end
|  5>
|  6> * xyz 0 1
|  7> S 	 -57.1746 	 8.51552 	 -94.1705
|  8> C 	 -55.5095 	 8.01967 	 -94.1751
|  9> C 	 -54.5724 	 9.06739 	 -94.4367
| 10> C 	 -55.3041 	 10.2272 	 -94.758
| 11> C 	 -56.6784 	 10.1005 	 -94.6993
| 12> H 	 -54.8279 	 11.0974 	 -95.2053
| 13> C 	 -53.0381 	 8.90105 	 -94.5978
| 14> H 	 -52.654 	 8.45322 	 -93.734
| 15> H 	 -52.5249 	 9.78834 	 -94.5462
| 16> C 	 -52.5095 	 8.3085 	 -95.8924
| 17> H 	 -52.9948 	 7.38804 	 -95.9535
| 18> H 	 -52.8606 	 8.86574 	 -96.8013
| 19> C 	 -50.9821 	 8.23244 	 -96.0492
| 20> H 	 -50.5846 	 7.91181 	 -95.075
| 21> H 	 -50.7392 	 7.5904 	 -96.8984
| 22> H 	 -50.5781 	 9.18037 	 -96.2677
| 23> S 	 -59.3818 	 10.7801 	 -94.2576
| 24> C 	 -60.0139 	 12.3594 	 -94.7474
| 25> C 	 -58.9425 	 13.1314 	 -95.1621
| 26> C 	 -57.7311 	 12.4017 	 -95.4103
| 27> C 	 -57.7514 	 11.1157 	 -94.9253
| 28> H 	 -59.1988 	 14.144 	 -95.3425
| 29> C 	 -56.4807 	 13.0868 	 -95.8541
| 30> H 	 -56.6908 	 13.734 	 -96.686
| 31> H 	 -55.8978 	 12.3858 	 -96.3886
| 32> C 	 -55.717 	 13.7877 	 -94.858
| 33> H 	 -55.6082 	 13.1168 	 -94.0466
| 34> H 	 -56.2766 	 14.6144 	 -94.3716
| 35> C 	 -54.3845 	 14.4311 	 -95.3194
| 36> H 	 -54.5754 	 14.9526 	 -96.2902
| 37> H 	 -53.6227 	 13.567 	 -95.4466
| 38> H 	 -53.9753 	 15.2319 	 -94.6363
| 39> H 	 -55.1634 	 7.08538 	 -93.8353
| 40> H 	 -60.8851 	 12.8664 	 -94.3974
| 41> *
| 42>
| 43>                          ****END OF INPUT****

CARTESIAN COORDINATES (ANGSTROEM)
---------------------------------
  S    -57.174600    8.515520  -94.170500
  C    -55.509500    8.019670  -94.175100
  C    -54.572400    9.067390  -94.436700
  C    -55.304100   10.227200  -94.758000
  C    -56.678400   10.100500  -94.699300
  H    -54.827900   11.097400  -95.205300
  C    -53.038100    8.901050  -94.597800
  H    -52.654000    8.453220  -93.734000
  H    -52.524900    9.788340  -94.546200
  C    -52.509500    8.308500  -95.892400
  H    -52.994800    7.388040  -95.953500
  H    -52.860600    8.865740  -96.801300
  C    -50.982100    8.232440  -96.049200
  H    -50.584600    7.911810  -95.075000
  H    -50.739200    7.590400  -96.898400
  H    -50.578100    9.180370  -96.267700
  S    -59.381800   10.780100  -94.257600
  C    -60.013900   12.359400  -94.747400
  C    -58.942500   13.131400  -95.162100
  C    -57.731100   12.401700  -95.410300
  C    -57.751400   11.115700  -94.925300
  H    -59.198800   14.144000  -95.342500
  C    -56.480700   13.086800  -95.854100
  H    -56.690800   13.734000  -96.686000
  H    -55.897800   12.385800  -96.388600
  C    -55.717000   13.787700  -94.858000
  H    -55.608200   13.116800  -94.046600
  H    -56.276600   14.614400  -94.371600
  C    -54.384500   14.431100  -95.319400
  H    -54.575400   14.952600  -96.290200
  H    -53.622700   13.567000  -95.446600
  H    -53.975300   15.231900  -94.636300
  H    -55.163400    7.085380  -93.835300
  H    -60.885100   12.866400  -94.397400

 Total Charge           Charge          ....    0
 Multiplicity           Mult            ....    1
 Number of Electrons    NEL             ....  134
 Basis Dimension        Dim             ....  322

ORBITAL ENERGIES
----------------

  NO   OCC          E(Eh)            E(eV)
   0   2.0000     -88.975578     -2421.1486
   1   2.0000     -88.964487     -2420.8468
   2   2.0000     -10.336305      -281.2652
   3   2.0000     -10.335876      -281.2535
   4   2.0000     -10.316583      -280.7285
   5   2.0000     -10.316019      -280.7132
   6   2.0000     -10.309563      -280.5375
   7   2.0000     -10.302139      -280.3355
   8   2.0000     -10.296258      -280.1754
   9   2.0000     -10.295830      -280.1638
  10   2.0000     -10.293470      -280.0995
  11   2.0000     -10.286134      -279.8999
  12   2.0000     -10.282955      -279.8134
  13   2.0000     -10.280259      -279.7401
  14   2.0000     -10.278915      -279.7035
  15   2.0000     -10.278599      -279.6949
  16   2.0000      -8.090152      -220.1442
  17   2.0000      -8.078235      -219.8200
  18   2.0000      -6.048551      -164.5894
  19   2.0000      -6.044724      -164.4853
  20   2.0000      -6.041013      -164.3843
  21   2.0000      -6.037037      -164.2761
  22   2.0000      -6.032912      -164.1639
  23   2.0000      -6.028726      -164.0500
  24   2.0000      -1.007761       -27.4226
  25   2.0000      -0.984129       -26.7795
  26   2.0000      -0.923278       -25.1237
  27   2.0000      -0.916187       -24.9307
  28   2.0000      -0.868374       -23.6296
  29   2.0000      -0.857240       -23.3267
  30   2.0000      -0.843605       -22.9557
  31   2.0000      -0.818386       -22.2694
  32   2.0000      -0.788547       -21.4574
  33   2.0000      -0.776164       -21.1205
  34   2.0000      -0.707060       -19.2401
  35   2.0000      -0.705905       -19.2086
  36   2.0000      -0.698472       -19.0064
  37   2.0000      -0.666897       -18.1472
  38   2.0000      -0.643509       -17.5108
  39   2.0000      -0.628746       -17.1090
  40   2.0000      -0.600022       -16.3274
  41   2.0000      -0.575374       -15.6567
  42   2.0000      -0.569371       -15.4934
  43   2.0000      -0.560190       -15.2435
  44   2.0000      -0.534132       -14.5345
  45   2.0000      -0.530741       -14.4422
  46   2.0000      -0.521384       -14.1876
  47   2.0000      -0.512309       -13.9406
  48   2.0000      -0.503081       -13.6895
  49   2.0000      -0.495345       -13.4790
  50   2.0000      -0.492551       -13.4030
  51   2.0000      -0.491239       -13.3673
  52   2.0000      -0.473995       -12.8981
  53   2.0000      -0.464225       -12.6322
  54   2.0000      -0.459164       -12.4945
  55   2.0000      -0.455012       -12.3815
  56   2.0000      -0.450505       -12.2589
  57   2.0000      -0.446487       -12.1495
  58   2.0000      -0.435667       -11.8551
  59   2.0000      -0.430237       -11.7073
  60   2.0000      -0.414056       -11.2670
  61   2.0000      -0.408592       -11.1184
  62   2.0000      -0.402985       -10.9658
  63   2.0000      -0.361063        -9.8250
  64   2.0000      -0.342463        -9.3189
  65   2.0000      -0.328566        -8.9407
  66   2.0000      -0.283845        -7.7238
  67   0.0000       0.015831         0.4308
  68   0.0000       0.079303         2.1579
  69   0.0000       0.086392         2.3508
  70   0.0000       0.116774         3.1776
  71   0.0000       0.127024         3.4565

MULLIKEN ATOMIC CHARGES
-----------------------
   0 S :    0.125791
   1 C :   -0.092705
   2 C :   -0.097654
   3 C :   -0.007211
   4 C :   -0.112530
   5 H :    0.005711
   6 C :    0.124310
   7 H :    0.008212
   8 H :   -0.019179
   9 C :   -0.071843
  10 H :    0.009156
  11 H :    0.028442
  12 C :   -0.024455
  13 H :    0.029864
  14 H :    0.044519
  15 H :    0.023042
  16 S :    0.063039
  17 C :   -0.068041
  18 C :   -0.047411
  19 C :   -0.081721
  20 C :   -0.072711
  21 H :    0.013154
  22 C :    0.093823
  23 H :   -0.002286
  24 H :   -0.000423
  25 C :   -0.041181
  26 H :    0.014590
  27 H :    0.017763
  28 C :   -0.082860
  29 H :    0.037973
  30 H :    0.043937
  31 H :    0.052802
  32 H :    0.028323
  33 H :    0.057763
Sum of atomic charges:    0.0000000

LOEWDIN ATOMIC CHARGES
----------------------
   0 S :    0.427899
   1 C :   -0.191097
   2 C :   -0.050577
   3 C :   -0.068138
   4 C :   -0.187540
   5 H :    0.031860
   6 C :   -0.027438
   7 H :    0.025627
   8 H :    0.018875
   9 C :   -0.037492
  10 H :    0.011328
  11 H :    0.029478
  12 C :   -0.056844
  13 H :    0.025912
  14 H :    0.033957
  15 H :    0.018217
  16 S :    0.364864
  17 C :   -0.181902
  18 C :   -0.058410
  19 C :   -0.062026
  20 C :   -0.168126
  21 H :    0.026957
  22 C :   -0.039475
  23 H :    0.027187
  24 H :    0.023401
  25 C :   -0.049710
  26 H :    0.018738
  27 H :    0.027815
  28 C :   -0.072165
  29 H :    0.028120
  30 H :    0.030696
  31 H :    0.034538
  32 H :    0.014502
  33 H :    0.030969

  Mayer bond orders larger than 0.100000
B(  0-S ,  1-C ) :   1.1662 B(  0-S ,  4-C ) :   1.1537 B(  1-C ,  2-C ) :   1.5766
B(  1-C ,  4-C ) :   0.1067 B(  1-C , 32-H ) :   0.9694 B(  2-C ,  3-C ) :   1.2873
B(  2-C ,  6-C ) :   1.0294 B(  3-C ,  4-C ) :   1.5508 B(  3-C ,  5-H ) :   0.9802
B(  4-C , 20-C ) :   1.0519 B(  6-C ,  7-H ) :   0.9267 B(  6-C ,  8-H ) :   0.9297
B(  6-C ,  9-C ) :   1.0589 B(  9-C , 10-H ) :   0.9583 B(  9-C , 11-H ) :   0.9544
B(  9-C , 12-C ) :   1.0758 B( 12-C , 13-H ) :   0.9765 B( 12-C , 14-H ) :   0.9726
B( 12-C , 15-H ) :   0.9754 B( 16-S , 17-C ) :   1.1296 B( 16-S , 20-C ) :   1.1218
B( 17-C , 18-C ) :   1.6499 B( 17-C , 33-H ) :   0.9626 B( 18-C , 19-C ) :   1.2165
B( 18-C , 21-H ) :   0.9919 B( 19-C , 20-C ) :   1.6179 B( 19-C , 22-C ) :   1.0646
B( 22-C , 23-H ) :   0.9029 B( 22-C , 24-H ) :   0.9191 B( 22-C , 25-C ) :   1.0737
B( 25-C , 26-H ) :   0.9495 B( 25-C , 27-H ) :   0.9434 B( 25-C , 28-C ) :   1.0682
B( 28-C , 29-H ) :   0.9723 B( 28-C , 30-H ) :   0.9748 B( 28-C , 31-H ) :   0.9746

Dispersion correction           -0.014032249
FINAL SINGLE POINT ENERGY     -1339.850308617583

DIPOLE MOMENT
-------------
                                X             Y             Z
Electronic contribution:    -30.41862      -9.61634       7.81126
Nuclear contribution   :     31.07932      10.03339      -7.87299
                        -----------------------------------------
Total Dipole Moment    :      0.66071       0.41705      -0.06174
                        -----------------------------------------
Magnitude (a.u.)       :      0.78375
Magnitude (Debye)      :      1.99215

Rotational constants in cm-1:     0.019061     0.008642     0.006189
Rotational constants in MHz :   571.434971   259.077787   185.543308

                             ****ORCA TERMINATED NORMALLY****
TOTAL RUN TIME: 0 days 0 hours 0 minutes 20 seconds 636 msec
