                         Program Version 4.2.1 -  RELEASE  -
|  1> ! wB97X-D3 SP def2-SVP
|  2> %pal
|  3> nprocs 24
|  4> end
|  5>
|  6> * xyz 0 1
|  7> S 	 -65.2585 	 10.6886 	 -18.3672
|  8> C 	 -65.9795 	 10.3566 	 -16.8224
|  9> C 	 -65.1477 	 9.52513 	 -16.0412
| 10> C 	 -63.9074 	 9.23668 	 -16.7088
| 11> C 	 -63.9508 	 9.64537 	 -18.0487
| 12> H 	 -63.0884 	 8.60229 	 -16.4837
| 13> C 	 -65.5052 	 9.13371 	 -14.6326
| 14> H 	 -64.8454 	 8.33057 	 -14.2207
| 15> H 	 -66.4704 	 8.697 	 -14.5957
| 16> C 	 -65.3925 	 10.3958 	 -13.6582
| 17> H 	 -64.2965 	 10.5279 	 -13.5691
| 18> H 	 -65.7917 	 11.3329 	 -14.1377
| 19> C 	 -66.1026 	 10.0998 	 -12.3157
| 20> H 	 -66.3309 	 11.1179 	 -11.8338
| 21> H 	 -67.0902 	 9.69771 	 -12.4189
| 22> H 	 -65.5175 	 9.43882 	 -11.7116
| 23> S 	 -63.859 	 7.78616 	 -20.1319
| 24> C 	 -62.3464 	 7.46226 	 -20.9343
| 25> C 	 -61.4386 	 8.4066 	 -20.5783
| 26> C 	 -61.8769 	 9.20379 	 -19.4871
| 27> C 	 -63.1705 	 9.00438 	 -19.0829
| 28> H 	 -60.4904 	 8.41674 	 -21.097
| 29> C 	 -60.9726 	 10.2218 	 -18.8541
| 30> H 	 -61.6223 	 10.8202 	 -18.1632
| 31> H 	 -60.6095 	 10.8888 	 -19.575
| 32> C 	 -59.6948 	 9.54851 	 -18.1965
| 33> H 	 -59.2549 	 10.3522 	 -17.6871
| 34> H 	 -59.0352 	 9.11081 	 -18.9256
| 35> C 	 -60.0083 	 8.35322 	 -17.262
| 36> H 	 -59.1283 	 7.82692 	 -16.8782
| 37> H 	 -60.4856 	 7.52909 	 -17.7748
| 38> H 	 -60.6624 	 8.54221 	 -16.4478
| 39> H 	 -66.9193 	 10.7713 	 -16.4577
| 40> H 	 -62.1218 	 6.87021 	 -21.8245
| 41> *
| 42>
| 43>                          ****END OF INPUT****

CARTESIAN COORDINATES (ANGSTROEM)
---------------------------------
  S    -65.258500   10.688600  -18.367200
  C    -65.979500   10.356600  -16.822400
  C    -65.147700    9.525130  -16.041200
  C    -63.907400    9.236680  -16.708800
  C    -63.950800    9.645370  -18.048700
  H    -63.088400    8.602290  -16.483700
  C    -65.505200    9.133710  -14.632600
  H    -64.845400    8.330570  -14.220700
  H    -66.470400    8.697000  -14.595700
  C    -65.392500   10.395800  -13.658200
  H    -64.296500   10.527900  -13.569100
  H    -65.791700   11.332900  -14.137700
  C    -66.102600   10.099800  -12.315700
  H    -66.330900   11.117900  -11.833800
  H    -67.090200    9.697710  -12.418900
  H    -65.517500    9.438820  -11.711600
  S    -63.859000    7.786160  -20.131900
  C    -62.346400    7.462260  -20.934300
  C    -61.438600    8.406600  -20.578300
  C    -61.876900    9.203790  -19.487100
  C    -63.170500    9.004380  -19.082900
  H    -60.490400    8.416740  -21.097000
  C    -60.972600   10.221800  -18.854100
  H    -61.622300   10.820200  -18.163200
  H    -60.609500   10.888800  -19.575000
  C    -59.694800    9.548510  -18.196500
  H    -59.254900   10.352200  -17.687100
  H    -59.035200    9.110810  -18.925600
  C    -60.008300    8.353220  -17.262000
  H    -59.128300    7.826920  -16.878200
  H    -60.485600    7.529090  -17.774800
  H    -60.662400    8.542210  -16.447800
  H    -66.919300   10.771300  -16.457700
  H    -62.121800    6.870210  -21.824500

 Total Charge           Charge          ....    0
 Multiplicity           Mult            ....    1
 Number of Electrons    NEL             ....  134
 Basis Dimension        Dim             ....  322

ORBITAL ENERGIES
----------------

  NO   OCC          E(Eh)            E(eV)
   0   2.0000     -88.969764     -2420.9904
   1   2.0000     -88.960366     -2420.7346
   2   2.0000     -10.323530      -280.9175
   3   2.0000     -10.319902      -280.8188
   4   2.0000     -10.315523      -280.6996
   5   2.0000     -10.312834      -280.6265
   6   2.0000     -10.307107      -280.4706
   7   2.0000     -10.295896      -280.1656
   8   2.0000     -10.295059      -280.1428
   9   2.0000     -10.293748      -280.1071
  10   2.0000     -10.292900      -280.0840
  11   2.0000     -10.286411      -279.9075
  12   2.0000     -10.285537      -279.8837
  13   2.0000     -10.284988      -279.8688
  14   2.0000     -10.282509      -279.8013
  15   2.0000     -10.269677      -279.4521
  16   2.0000      -8.085154      -220.0082
  17   2.0000      -8.075281      -219.7396
  18   2.0000      -6.043452      -164.4507
  19   2.0000      -6.039409      -164.3407
  20   2.0000      -6.036265      -164.2551
  21   2.0000      -6.033911      -164.1911
  22   2.0000      -6.029722      -164.0771
  23   2.0000      -6.025916      -163.9735
  24   2.0000      -1.011277       -27.5182
  25   2.0000      -0.987979       -26.8843
  26   2.0000      -0.906744       -24.6737
  27   2.0000      -0.902611       -24.5613
  28   2.0000      -0.870095       -23.6765
  29   2.0000      -0.849757       -23.1231
  30   2.0000      -0.841272       -22.8922
  31   2.0000      -0.817033       -22.2326
  32   2.0000      -0.780865       -21.2484
  33   2.0000      -0.770491       -20.9661
  34   2.0000      -0.707164       -19.2429
  35   2.0000      -0.700381       -19.0583
  36   2.0000      -0.697025       -18.9670
  37   2.0000      -0.655048       -17.8248
  38   2.0000      -0.649324       -17.6690
  39   2.0000      -0.612848       -16.6764
  40   2.0000      -0.590690       -16.0735
  41   2.0000      -0.576808       -15.6958
  42   2.0000      -0.558219       -15.1899
  43   2.0000      -0.550170       -14.9709
  44   2.0000      -0.537387       -14.6230
  45   2.0000      -0.525372       -14.2961
  46   2.0000      -0.515764       -14.0346
  47   2.0000      -0.509907       -13.8753
  48   2.0000      -0.506881       -13.7929
  49   2.0000      -0.502782       -13.6814
  50   2.0000      -0.487694       -13.2708
  51   2.0000      -0.480040       -13.0626
  52   2.0000      -0.469968       -12.7885
  53   2.0000      -0.462460       -12.5842
  54   2.0000      -0.456457       -12.4208
  55   2.0000      -0.448578       -12.2064
  56   2.0000      -0.444852       -12.1050
  57   2.0000      -0.438781       -11.9398
  58   2.0000      -0.432191       -11.7605
  59   2.0000      -0.423041       -11.5115
  60   2.0000      -0.421793       -11.4776
  61   2.0000      -0.416995       -11.3470
  62   2.0000      -0.408301       -11.1104
  63   2.0000      -0.340685        -9.2705
  64   2.0000      -0.324868        -8.8401
  65   2.0000      -0.322271        -8.7694
  66   2.0000      -0.300809        -8.1854
  67   0.0000       0.036431         0.9913
  68   0.0000       0.059737         1.6255
  69   0.0000       0.113564         3.0902
  70   0.0000       0.127161         3.4602
  71   0.0000       0.131687         3.5834

MULLIKEN ATOMIC CHARGES
-----------------------
   0 S :    0.141731
   1 C :   -0.122898
   2 C :   -0.091030
   3 C :    0.086213
   4 C :   -0.223945
   5 H :   -0.002753
   6 C :    0.054753
   7 H :    0.029266
   8 H :    0.021986
   9 C :   -0.113110
  10 H :    0.039264
  11 H :    0.041362
  12 C :   -0.038113
  13 H :    0.042620
  14 H :    0.025937
  15 H :    0.036635
  16 S :    0.107339
  17 C :   -0.085351
  18 C :   -0.046544
  19 C :   -0.056589
  20 C :   -0.149616
  21 H :    0.018180
  22 C :    0.087389
  23 H :    0.033489
  24 H :    0.017699
  25 C :   -0.046786
  26 H :    0.026395
  27 H :    0.031422
  28 C :   -0.055940
  29 H :    0.025926
  30 H :    0.028971
  31 H :    0.022708
  32 H :    0.052898
  33 H :    0.060491
Sum of atomic charges:    0.0000000

LOEWDIN ATOMIC CHARGES
----------------------
   0 S :    0.443460
   1 C :   -0.207025
   2 C :   -0.056975
   3 C :   -0.048946
   4 C :   -0.218417
   5 H :    0.026226
   6 C :   -0.036012
   7 H :    0.033914
   8 H :    0.022737
   9 C :   -0.039216
  10 H :    0.028584
  11 H :    0.025885
  12 C :   -0.070069
  13 H :    0.037942
  14 H :    0.020575
  15 H :    0.022632
  16 S :    0.405404
  17 C :   -0.189567
  18 C :   -0.077002
  19 C :   -0.060193
  20 C :   -0.208645
  21 H :    0.031500
  22 C :   -0.026445
  23 H :    0.033656
  24 H :    0.023994
  25 C :   -0.025639
  26 H :    0.018787
  27 H :    0.023858
  28 C :   -0.071680
  29 H :    0.028122
  30 H :    0.026531
  31 H :    0.014847
  32 H :    0.029127
  33 H :    0.038050

  Mayer bond orders larger than 0.100000
B(  0-S ,  1-C ) :   1.1534 B(  0-S ,  4-C ) :   1.1824 B(  1-C ,  2-C ) :   1.5656
B(  1-C ,  4-C ) :   0.1016 B(  1-C , 32-H ) :   0.9701 B(  2-C ,  3-C ) :   1.2650
B(  2-C ,  6-C ) :   1.0345 B(  3-C ,  4-C ) :   1.5339 B(  3-C ,  5-H ) :   0.9885
B(  4-C , 20-C ) :   1.0294 B(  6-C ,  7-H ) :   0.9463 B(  6-C ,  8-H ) :   0.9448
B(  6-C ,  9-C ) :   1.0354 B(  9-C , 10-H ) :   0.9587 B(  9-C , 11-H ) :   0.9686
B(  9-C , 12-C ) :   1.0653 B( 12-C , 13-H ) :   0.9746 B( 12-C , 14-H ) :   0.9769
B( 12-C , 15-H ) :   0.9760 B( 16-S , 17-C ) :   1.1572 B( 16-S , 20-C ) :   1.1181
B( 17-C , 18-C ) :   1.6294 B( 17-C , 33-H ) :   0.9585 B( 18-C , 19-C ) :   1.2284
B( 18-C , 21-H ) :   0.9917 B( 19-C , 20-C ) :   1.6137 B( 19-C , 22-C ) :   1.0546
B( 22-C , 23-H ) :   0.9316 B( 22-C , 24-H ) :   0.9330 B( 22-C , 25-C ) :   1.0586
B( 25-C , 26-H ) :   0.9607 B( 25-C , 27-H ) :   0.9572 B( 25-C , 28-C ) :   1.0766
B( 28-C , 29-H ) :   0.9707 B( 28-C , 30-H ) :   0.9674 B( 28-C , 31-H ) :   0.9756

Dispersion correction           -0.015101542
FINAL SINGLE POINT ENERGY     -1339.866052743939

DIPOLE MOMENT
-------------
                                X             Y             Z
Electronic contribution:     -9.55368      -1.22172     -23.83967
Nuclear contribution   :      9.83564       1.23836      24.17291
                        -----------------------------------------
Total Dipole Moment    :      0.28196       0.01664       0.33323
                        -----------------------------------------
Magnitude (a.u.)       :      0.43683
Magnitude (Debye)      :      1.11034

Rotational constants in cm-1:     0.022178     0.007822     0.006642
Rotational constants in MHz :   664.866059   234.486191   199.116870

                             ****ORCA TERMINATED NORMALLY****
TOTAL RUN TIME: 0 days 0 hours 0 minutes 20 seconds 788 msec
