                         Program Version 4.2.1 -  RELEASE  -
|  1> ! wB97X-D3 SP def2-SVP
|  2> %pal
|  3> nprocs 24
|  4> end
|  5>
|  6> * xyz 0 1
|  7> S 	 -134.264 	 30.5908 	 -16.0359
|  8> C 	 -132.916 	 29.4951 	 -16.3217
|  9> C 	 -133.356 	 28.336 	 -17.0113
| 10> C 	 -134.88 	 28.2593 	 -17.0664
| 11> C 	 -135.501 	 29.4219 	 -16.5698
| 12> H 	 -135.42 	 27.5216 	 -17.5667
| 13> C 	 -132.46 	 27.2705 	 -17.5471
| 14> H 	 -133.053 	 26.6592 	 -18.2352
| 15> H 	 -132.249 	 26.5595 	 -16.7535
| 16> C 	 -131.199 	 27.7021 	 -18.2361
| 17> H 	 -131.484 	 28.24 	 -19.156
| 18> H 	 -130.666 	 28.4689 	 -17.626
| 19> C 	 -130.309 	 26.5229 	 -18.6791
| 20> H 	 -130.03 	 26.0439 	 -17.7798
| 21> H 	 -130.765 	 25.8513 	 -19.4629
| 22> H 	 -129.418 	 27.0495 	 -19.1139
| 23> S 	 -137.368 	 31.2115 	 -17.264
| 24> C 	 -139.042 	 31.0826 	 -16.5742
| 25> C 	 -139.165 	 30.0351 	 -15.7215
| 26> C 	 -137.931 	 29.2729 	 -15.5982
| 27> C 	 -136.898 	 29.7664 	 -16.4457
| 28> H 	 -140.129 	 29.7166 	 -15.2875
| 29> C 	 -137.965 	 28.087 	 -14.7321
| 30> H 	 -139.035 	 27.9233 	 -14.4497
| 31> H 	 -137.49 	 28.328 	 -13.7624
| 32> C 	 -137.392 	 26.7722 	 -15.3012
| 33> H 	 -136.367 	 26.9946 	 -15.6064
| 34> H 	 -137.887 	 26.5447 	 -16.216
| 35> C 	 -137.292 	 25.6987 	 -14.2115
| 36> H 	 -136.843 	 24.7865 	 -14.6
| 37> H 	 -138.305 	 25.3383 	 -13.9044
| 38> H 	 -136.754 	 26.0355 	 -13.3171
| 39> H 	 -131.944 	 29.8048 	 -16.0985
| 40> H 	 -139.924 	 31.637 	 -16.8676
| 41> *
| 42>
| 43>                          ****END OF INPUT****

CARTESIAN COORDINATES (ANGSTROEM)
---------------------------------
  S    -134.264000   30.590800  -16.035900
  C    -132.916000   29.495100  -16.321700
  C    -133.356000   28.336000  -17.011300
  C    -134.880000   28.259300  -17.066400
  C    -135.501000   29.421900  -16.569800
  H    -135.420000   27.521600  -17.566700
  C    -132.460000   27.270500  -17.547100
  H    -133.053000   26.659200  -18.235200
  H    -132.249000   26.559500  -16.753500
  C    -131.199000   27.702100  -18.236100
  H    -131.484000   28.240000  -19.156000
  H    -130.666000   28.468900  -17.626000
  C    -130.309000   26.522900  -18.679100
  H    -130.030000   26.043900  -17.779800
  H    -130.765000   25.851300  -19.462900
  H    -129.418000   27.049500  -19.113900
  S    -137.368000   31.211500  -17.264000
  C    -139.042000   31.082600  -16.574200
  C    -139.165000   30.035100  -15.721500
  C    -137.931000   29.272900  -15.598200
  C    -136.898000   29.766400  -16.445700
  H    -140.129000   29.716600  -15.287500
  C    -137.965000   28.087000  -14.732100
  H    -139.035000   27.923300  -14.449700
  H    -137.490000   28.328000  -13.762400
  C    -137.392000   26.772200  -15.301200
  H    -136.367000   26.994600  -15.606400
  H    -137.887000   26.544700  -16.216000
  C    -137.292000   25.698700  -14.211500
  H    -136.843000   24.786500  -14.600000
  H    -138.305000   25.338300  -13.904400
  H    -136.754000   26.035500  -13.317100
  H    -131.944000   29.804800  -16.098500
  H    -139.924000   31.637000  -16.867600

 Total Charge           Charge          ....    0
 Multiplicity           Mult            ....    1
 Number of Electrons    NEL             ....  134
 Basis Dimension        Dim             ....  322

ORBITAL ENERGIES
----------------

  NO   OCC          E(Eh)            E(eV)
   0   2.0000     -88.967536     -2420.9297
   1   2.0000     -88.962553     -2420.7941
   2   2.0000     -10.336155      -281.2611
   3   2.0000     -10.328639      -281.0566
   4   2.0000     -10.319200      -280.7997
   5   2.0000     -10.316566      -280.7280
   6   2.0000     -10.314625      -280.6752
   7   2.0000     -10.306016      -280.4409
   8   2.0000     -10.303727      -280.3787
   9   2.0000     -10.296185      -280.1734
  10   2.0000     -10.289173      -279.9826
  11   2.0000     -10.289139      -279.9817
  12   2.0000     -10.288481      -279.9638
  13   2.0000     -10.285452      -279.8814
  14   2.0000     -10.280186      -279.7381
  15   2.0000     -10.280081      -279.7352
  16   2.0000      -8.081627      -219.9122
  17   2.0000      -8.076730      -219.7790
  18   2.0000      -6.040340      -164.3660
  19   2.0000      -6.036225      -164.2540
  20   2.0000      -6.035481      -164.2338
  21   2.0000      -6.032194      -164.1443
  22   2.0000      -6.031176      -164.1166
  23   2.0000      -6.027392      -164.0137
  24   2.0000      -0.999335       -27.1933
  25   2.0000      -0.971144       -26.4262
  26   2.0000      -0.915963       -24.9246
  27   2.0000      -0.907799       -24.7025
  28   2.0000      -0.872413       -23.7396
  29   2.0000      -0.846318       -23.0295
  30   2.0000      -0.843255       -22.9461
  31   2.0000      -0.817729       -22.2515
  32   2.0000      -0.777357       -21.1530
  33   2.0000      -0.762666       -20.7532
  34   2.0000      -0.712982       -19.4012
  35   2.0000      -0.701162       -19.0796
  36   2.0000      -0.690067       -18.7777
  37   2.0000      -0.660217       -17.9654
  38   2.0000      -0.649419       -17.6716
  39   2.0000      -0.610948       -16.6247
  40   2.0000      -0.592628       -16.1262
  41   2.0000      -0.572686       -15.5836
  42   2.0000      -0.563340       -15.3293
  43   2.0000      -0.560593       -15.2545
  44   2.0000      -0.528291       -14.3755
  45   2.0000      -0.522794       -14.2259
  46   2.0000      -0.512595       -13.9484
  47   2.0000      -0.508785       -13.8447
  48   2.0000      -0.505871       -13.7655
  49   2.0000      -0.503642       -13.7048
  50   2.0000      -0.498408       -13.5624
  51   2.0000      -0.480177       -13.0663
  52   2.0000      -0.470536       -12.8039
  53   2.0000      -0.464818       -12.6483
  54   2.0000      -0.451452       -12.2846
  55   2.0000      -0.449542       -12.2327
  56   2.0000      -0.446506       -12.1500
  57   2.0000      -0.436152       -11.8683
  58   2.0000      -0.433084       -11.7848
  59   2.0000      -0.424321       -11.5464
  60   2.0000      -0.418362       -11.3842
  61   2.0000      -0.413131       -11.2419
  62   2.0000      -0.407678       -11.0935
  63   2.0000      -0.346263        -9.4223
  64   2.0000      -0.327525        -8.9124
  65   2.0000      -0.320427        -8.7193
  66   2.0000      -0.291590        -7.9346
  67   0.0000       0.033442         0.9100
  68   0.0000       0.055515         1.5106
  69   0.0000       0.099350         2.7034
  70   0.0000       0.118175         3.2157
  71   0.0000       0.125950         3.4273

MULLIKEN ATOMIC CHARGES
-----------------------
   0 S :    0.100706
   1 C :   -0.111030
   2 C :   -0.103323
   3 C :    0.076092
   4 C :   -0.159698
   5 H :    0.002379
   6 C :    0.083483
   7 H :    0.009555
   8 H :    0.032780
   9 C :   -0.123381
  10 H :    0.031747
  11 H :    0.033406
  12 C :   -0.044492
  13 H :    0.027408
  14 H :    0.053900
  15 H :    0.042279
  16 S :    0.102813
  17 C :   -0.081499
  18 C :   -0.040861
  19 C :   -0.025541
  20 C :   -0.172466
  21 H :    0.036230
  22 C :    0.053139
  23 H :    0.012206
  24 H :    0.036436
  25 C :   -0.075319
  26 H :    0.035925
  27 H :    0.022446
  28 C :   -0.039595
  29 H :    0.028693
  30 H :    0.024177
  31 H :    0.039676
  32 H :    0.037348
  33 H :    0.054380
Sum of atomic charges:   -0.0000000

LOEWDIN ATOMIC CHARGES
----------------------
   0 S :    0.386651
   1 C :   -0.188730
   2 C :   -0.048715
   3 C :   -0.052610
   4 C :   -0.185872
   5 H :    0.019873
   6 C :   -0.046537
   7 H :    0.030274
   8 H :    0.032790
   9 C :   -0.046528
  10 H :    0.026880
  11 H :    0.024378
  12 C :   -0.063550
  13 H :    0.017517
  14 H :    0.034749
  15 H :    0.035717
  16 S :    0.396480
  17 C :   -0.167861
  18 C :   -0.069136
  19 C :   -0.049605
  20 C :   -0.217034
  21 H :    0.039066
  22 C :   -0.039026
  23 H :    0.029447
  24 H :    0.037514
  25 C :   -0.041115
  26 H :    0.026309
  27 H :    0.019404
  28 C :   -0.064623
  29 H :    0.025015
  30 H :    0.024316
  31 H :    0.029151
  32 H :    0.013954
  33 H :    0.031460

  Mayer bond orders larger than 0.100000
B(  0-S ,  1-C ) :   1.1310 B(  0-S ,  4-C ) :   1.1411 B(  1-C ,  2-C ) :   1.6035
B(  1-C , 32-H ) :   0.9812 B(  2-C ,  3-C ) :   1.2032 B(  2-C ,  6-C ) :   1.0333
B(  3-C ,  4-C ) :   1.5977 B(  3-C ,  5-H ) :   0.9875 B(  4-C , 20-C ) :   1.0412
B(  6-C ,  7-H ) :   0.9359 B(  6-C ,  8-H ) :   0.9281 B(  6-C ,  9-C ) :   1.0652
B(  9-C , 10-H ) :   0.9550 B(  9-C , 11-H ) :   0.9559 B(  9-C , 12-C ) :   1.0781
B( 12-C , 13-H ) :   0.9760 B( 12-C , 14-H ) :   0.9742 B( 12-C , 15-H ) :   0.9734
B( 16-S , 17-C ) :   1.1280 B( 16-S , 20-C ) :   1.1379 B( 17-C , 18-C ) :   1.6536
B( 17-C , 33-H ) :   0.9620 B( 18-C , 19-C ) :   1.2332 B( 18-C , 21-H ) :   0.9758
B( 19-C , 20-C ) :   1.5748 B( 19-C , 22-C ) :   1.0578 B( 22-C , 23-H ) :   0.9351
B( 22-C , 24-H ) :   0.9153 B( 22-C , 25-C ) :   1.0642 B( 25-C , 26-H ) :   0.9417
B( 25-C , 27-H ) :   0.9569 B( 25-C , 28-C ) :   1.0830 B( 28-C , 29-H ) :   0.9730
B( 28-C , 30-H ) :   0.9749 B( 28-C , 31-H ) :   0.9732

Dispersion correction           -0.013840000
FINAL SINGLE POINT ENERGY     -1339.869318820936

DIPOLE MOMENT
-------------
                                X             Y             Z
Electronic contribution:    -10.58814      25.80609      -0.92565
Nuclear contribution   :     10.60087     -26.42563       0.90187
                        -----------------------------------------
Total Dipole Moment    :      0.01272      -0.61954      -0.02379
                        -----------------------------------------
Magnitude (a.u.)       :      0.62013
Magnitude (Debye)      :      1.57625

Rotational constants in cm-1:     0.020353     0.007813     0.006217
Rotational constants in MHz :   610.153901   234.235130   186.386479

                             ****ORCA TERMINATED NORMALLY****
TOTAL RUN TIME: 0 days 0 hours 0 minutes 22 seconds 381 msec
