                         Program Version 4.2.1 -  RELEASE  -
|  1> ! wB97X-D3 SP def2-SVP
|  2> %pal
|  3> nprocs 24
|  4> end
|  5>
|  6> * xyz 0 1
|  7> S 	 -54.9687 	 -1.93115 	 -30.6795
|  8> C 	 -55.929 	 -0.793057 	 -31.5407
|  9> C 	 -56.6426 	 0.0267982 	 -30.6274
| 10> C 	 -56.6794 	 -0.553298 	 -29.3039
| 11> C 	 -55.9363 	 -1.70873 	 -29.2314
| 12> H 	 -57.1054 	 -0.196692 	 -28.407
| 13> C 	 -57.4297 	 1.27642 	 -31.0275
| 14> H 	 -56.997 	 1.64978 	 -31.964
| 15> H 	 -57.229 	 1.97283 	 -30.2618
| 16> C 	 -58.8773 	 1.09251 	 -31.2577
| 17> H 	 -59.0812 	 0.71458 	 -32.2379
| 18> H 	 -59.3644 	 0.340786 	 -30.6193
| 19> C 	 -59.6247 	 2.42831 	 -31.0722
| 20> H 	 -60.6607 	 2.12293 	 -30.9096
| 21> H 	 -59.3249 	 3.13885 	 -30.3318
| 22> H 	 -59.6521 	 2.92905 	 -32.0398
| 23> S 	 -57.087 	 -3.30821 	 -27.5529
| 24> C 	 -56.1915 	 -4.1216 	 -26.2496
| 25> C 	 -54.8711 	 -3.68853 	 -26.1454
| 26> C 	 -54.6218 	 -2.70413 	 -27.1377
| 27> C 	 -55.6725 	 -2.55189 	 -28.0502
| 28> H 	 -54.2352 	 -4.05895 	 -25.3651
| 29> C 	 -53.2677 	 -2.10076 	 -27.2447
| 30> H 	 -53.0481 	 -1.56298 	 -28.2364
| 31> H 	 -52.6189 	 -2.95821 	 -27.1927
| 32> C 	 -52.8847 	 -1.18742 	 -26.0651
| 33> H 	 -53.2519 	 -1.49668 	 -25.0549
| 34> H 	 -53.2974 	 -0.16723 	 -26.3746
| 35> C 	 -51.3624 	 -1.13137 	 -26.1381
| 36> H 	 -51.1559 	 -0.611907 	 -27.0733
| 37> H 	 -50.8435 	 -2.07431 	 -25.9904
| 38> H 	 -51.0071 	 -0.483368 	 -25.3886
| 39> H 	 -55.7078 	 -0.455183 	 -32.5372
| 40> H 	 -56.5879 	 -4.89013 	 -25.6372
| 41> *
| 42>
| 43>                          ****END OF INPUT****

CARTESIAN COORDINATES (ANGSTROEM)
---------------------------------
  S    -54.968700   -1.931150  -30.679500
  C    -55.929000   -0.793057  -31.540700
  C    -56.642600    0.026798  -30.627400
  C    -56.679400   -0.553298  -29.303900
  C    -55.936300   -1.708730  -29.231400
  H    -57.105400   -0.196692  -28.407000
  C    -57.429700    1.276420  -31.027500
  H    -56.997000    1.649780  -31.964000
  H    -57.229000    1.972830  -30.261800
  C    -58.877300    1.092510  -31.257700
  H    -59.081200    0.714580  -32.237900
  H    -59.364400    0.340786  -30.619300
  C    -59.624700    2.428310  -31.072200
  H    -60.660700    2.122930  -30.909600
  H    -59.324900    3.138850  -30.331800
  H    -59.652100    2.929050  -32.039800
  S    -57.087000   -3.308210  -27.552900
  C    -56.191500   -4.121600  -26.249600
  C    -54.871100   -3.688530  -26.145400
  C    -54.621800   -2.704130  -27.137700
  C    -55.672500   -2.551890  -28.050200
  H    -54.235200   -4.058950  -25.365100
  C    -53.267700   -2.100760  -27.244700
  H    -53.048100   -1.562980  -28.236400
  H    -52.618900   -2.958210  -27.192700
  C    -52.884700   -1.187420  -26.065100
  H    -53.251900   -1.496680  -25.054900
  H    -53.297400   -0.167230  -26.374600
  C    -51.362400   -1.131370  -26.138100
  H    -51.155900   -0.611907  -27.073300
  H    -50.843500   -2.074310  -25.990400
  H    -51.007100   -0.483368  -25.388600
  H    -55.707800   -0.455183  -32.537200
  H    -56.587900   -4.890130  -25.637200

 Total Charge           Charge          ....    0
 Multiplicity           Mult            ....    1
 Number of Electrons    NEL             ....  134
 Basis Dimension        Dim             ....  322

ORBITAL ENERGIES
----------------

  NO   OCC          E(Eh)            E(eV)
   0   2.0000     -88.963919     -2420.8313
   1   2.0000     -88.963199     -2420.8117
   2   2.0000     -10.327394      -281.0227
   3   2.0000     -10.318387      -280.7776
   4   2.0000     -10.313605      -280.6475
   5   2.0000     -10.311322      -280.5853
   6   2.0000     -10.305271      -280.4207
   7   2.0000     -10.299069      -280.2519
   8   2.0000     -10.293755      -280.1073
   9   2.0000     -10.293032      -280.0876
  10   2.0000     -10.291992      -280.0593
  11   2.0000     -10.287575      -279.9392
  12   2.0000     -10.285100      -279.8718
  13   2.0000     -10.279899      -279.7303
  14   2.0000     -10.273575      -279.5582
  15   2.0000     -10.270765      -279.4817
  16   2.0000      -8.079482      -219.8539
  17   2.0000      -8.078187      -219.8186
  18   2.0000      -6.037858      -164.2985
  19   2.0000      -6.036554      -164.2630
  20   2.0000      -6.033820      -164.1886
  21   2.0000      -6.032822      -164.1614
  22   2.0000      -6.030380      -164.0950
  23   2.0000      -6.028924      -164.0554
  24   2.0000      -1.009372       -27.4664
  25   2.0000      -0.984369       -26.7860
  26   2.0000      -0.916894       -24.9500
  27   2.0000      -0.913538       -24.8586
  28   2.0000      -0.871846       -23.7241
  29   2.0000      -0.850691       -23.1485
  30   2.0000      -0.846425       -23.0324
  31   2.0000      -0.815847       -22.2003
  32   2.0000      -0.779044       -21.1989
  33   2.0000      -0.762364       -20.7450
  34   2.0000      -0.703589       -19.1456
  35   2.0000      -0.697523       -18.9806
  36   2.0000      -0.686407       -18.6781
  37   2.0000      -0.668224       -18.1833
  38   2.0000      -0.647157       -17.6100
  39   2.0000      -0.617412       -16.8006
  40   2.0000      -0.597659       -16.2631
  41   2.0000      -0.570675       -15.5289
  42   2.0000      -0.567652       -15.4466
  43   2.0000      -0.560208       -15.2440
  44   2.0000      -0.529246       -14.4015
  45   2.0000      -0.522074       -14.2063
  46   2.0000      -0.519312       -14.1312
  47   2.0000      -0.515627       -14.0309
  48   2.0000      -0.508261       -13.8305
  49   2.0000      -0.500299       -13.6138
  50   2.0000      -0.484353       -13.1799
  51   2.0000      -0.474272       -12.9056
  52   2.0000      -0.468069       -12.7368
  53   2.0000      -0.463667       -12.6170
  54   2.0000      -0.456533       -12.4229
  55   2.0000      -0.454291       -12.3619
  56   2.0000      -0.450597       -12.2614
  57   2.0000      -0.439082       -11.9480
  58   2.0000      -0.436444       -11.8762
  59   2.0000      -0.424588       -11.5536
  60   2.0000      -0.412834       -11.2338
  61   2.0000      -0.411545       -11.1987
  62   2.0000      -0.410043       -11.1578
  63   2.0000      -0.341022        -9.2797
  64   2.0000      -0.333057        -9.0629
  65   2.0000      -0.318170        -8.6578
  66   2.0000      -0.292346        -7.9551
  67   0.0000       0.041018         1.1162
  68   0.0000       0.058920         1.6033
  69   0.0000       0.098834         2.6894
  70   0.0000       0.123867         3.3706
  71   0.0000       0.127835         3.4786

MULLIKEN ATOMIC CHARGES
-----------------------
   0 S :    0.113218
   1 C :   -0.092252
   2 C :   -0.131529
   3 C :    0.067539
   4 C :   -0.173572
   5 H :    0.000524
   6 C :    0.104541
   7 H :    0.016668
   8 H :    0.014976
   9 C :   -0.055756
  10 H :    0.017156
  11 H :    0.030110
  12 C :   -0.057935
  13 H :    0.027839
  14 H :    0.037754
  15 H :    0.028149
  16 S :    0.115063
  17 C :   -0.084471
  18 C :   -0.032358
  19 C :    0.020433
  20 C :   -0.180648
  21 H :    0.020007
  22 C :    0.019026
  23 H :    0.038407
  24 H :    0.021208
  25 C :   -0.119799
  26 H :    0.044298
  27 H :    0.043792
  28 C :   -0.014725
  29 H :    0.027388
  30 H :    0.037661
  31 H :    0.012693
  32 H :    0.045230
  33 H :    0.039365
Sum of atomic charges:    0.0000000

LOEWDIN ATOMIC CHARGES
----------------------
   0 S :    0.416050
   1 C :   -0.212839
   2 C :   -0.051471
   3 C :   -0.060400
   4 C :   -0.195853
   5 H :    0.026780
   6 C :   -0.030374
   7 H :    0.032359
   8 H :    0.024866
   9 C :   -0.039318
  10 H :    0.023908
  11 H :    0.024186
  12 C :   -0.065047
  13 H :    0.028941
  14 H :    0.021044
  15 H :    0.025975
  16 S :    0.436353
  17 C :   -0.173365
  18 C :   -0.061950
  19 C :   -0.060736
  20 C :   -0.228577
  21 H :    0.033101
  22 C :   -0.040980
  23 H :    0.034663
  24 H :    0.026409
  25 C :   -0.041453
  26 H :    0.024462
  27 H :    0.034691
  28 C :   -0.062250
  29 H :    0.029285
  30 H :    0.024618
  31 H :    0.016098
  32 H :    0.023171
  33 H :    0.017655

  Mayer bond orders larger than 0.100000
B(  0-S ,  1-C ) :   1.1487 B(  0-S ,  4-C ) :   1.1587 B(  1-C ,  2-C ) :   1.5968
B(  1-C ,  4-C ) :   0.1007 B(  1-C , 32-H ) :   0.9667 B(  2-C ,  3-C ) :   1.2197
B(  2-C ,  6-C ) :   1.0342 B(  3-C ,  4-C ) :   1.5878 B(  3-C ,  5-H ) :   1.0026
B(  4-C , 20-C ) :   0.9841 B(  6-C ,  7-H ) :   0.9334 B(  6-C ,  8-H ) :   0.9426
B(  6-C ,  9-C ) :   1.0663 B(  9-C , 10-H ) :   0.9490 B(  9-C , 11-H ) :   0.9677
B(  9-C , 12-C ) :   1.0685 B( 12-C , 13-H ) :   0.9757 B( 12-C , 14-H ) :   0.9814
B( 12-C , 15-H ) :   0.9776 B( 16-S , 17-C ) :   1.1595 B( 16-S , 20-C ) :   1.1660
B( 17-C , 18-C ) :   1.6052 B( 17-C , 20-C ) :   0.1009 B( 17-C , 33-H ) :   0.9724
B( 18-C , 19-C ) :   1.2307 B( 18-C , 21-H ) :   0.9942 B( 19-C , 20-C ) :   1.5811
B( 19-C , 22-C ) :   1.0375 B( 22-C , 23-H ) :   0.9380 B( 22-C , 24-H ) :   0.9464
B( 22-C , 25-C ) :   1.0427 B( 25-C , 26-H ) :   0.9639 B( 25-C , 27-H ) :   0.9526
B( 25-C , 28-C ) :   1.0789 B( 28-C , 29-H ) :   0.9687 B( 28-C , 30-H ) :   0.9770
B( 28-C , 31-H ) :   0.9705

Dispersion correction           -0.013568909
FINAL SINGLE POINT ENERGY     -1339.855523066926

DIPOLE MOMENT
-------------
                                X             Y             Z
Electronic contribution:     -2.69957     -18.38910      -1.87338
Nuclear contribution   :      2.83179      18.82863       2.09739
                        -----------------------------------------
Total Dipole Moment    :      0.13222       0.43953       0.22401
                        -----------------------------------------
Magnitude (a.u.)       :      0.51073
Magnitude (Debye)      :      1.29818

Rotational constants in cm-1:     0.020416     0.007279     0.006470
Rotational constants in MHz :   612.048123   218.222334   193.955780

                             ****ORCA TERMINATED NORMALLY****
TOTAL RUN TIME: 0 days 0 hours 0 minutes 20 seconds 774 msec
