                         Program Version 4.2.1 -  RELEASE  -
|  1> ! wB97X-D3 SP def2-SVP
|  2> %pal
|  3> nprocs 24
|  4> end
|  5>
|  6> * xyz 0 1
|  7> S 	 -48.774 	 14.2885 	 -108.494
|  8> C 	 -49.1599 	 12.6206 	 -108.312
|  9> C 	 -49.8498 	 12.3996 	 -107.127
| 10> C 	 -49.5532 	 13.4341 	 -106.196
| 11> C 	 -48.9879 	 14.5811 	 -106.79
| 12> H 	 -49.7033 	 13.4212 	 -105.196
| 13> C 	 -50.5045 	 11.1501 	 -106.591
| 14> H 	 -50.3197 	 11.1716 	 -105.458
| 15> H 	 -49.9337 	 10.3076 	 -107.064
| 16> C 	 -52.0076 	 11.1459 	 -106.953
| 17> H 	 -52.1702 	 11.1927 	 -108.088
| 18> H 	 -52.4039 	 10.1447 	 -106.799
| 19> C 	 -52.8 	 12.2982 	 -106.285
| 20> H 	 -52.5212 	 13.2734 	 -106.627
| 21> H 	 -53.8673 	 12.3303 	 -106.482
| 22> H 	 -52.6478 	 12.31 	 -105.202
| 23> S 	 -46.6955 	 15.8746 	 -106.041
| 24> C 	 -46.8152 	 17.4535 	 -105.28
| 25> C 	 -48.123 	 17.8204 	 -105.008
| 26> C 	 -49.0881 	 16.8637 	 -105.547
| 27> C 	 -48.4359 	 15.7702 	 -106.095
| 28> H 	 -48.2327 	 18.8381 	 -104.548
| 29> C 	 -50.5826 	 17.0544 	 -105.452
| 30> H 	 -50.955 	 16.0872 	 -105.776
| 31> H 	 -50.8734 	 17.8273 	 -106.163
| 32> C 	 -51.2186 	 17.5068 	 -104.144
| 33> H 	 -51.2681 	 18.6645 	 -104.114
| 34> H 	 -50.651 	 17.1346 	 -103.359
| 35> C 	 -52.6934 	 17.0101 	 -104.03
| 36> H 	 -53.2144 	 17.5739 	 -103.236
| 37> H 	 -52.8434 	 15.9043 	 -103.832
| 38> H 	 -53.2661 	 17.2224 	 -104.934
| 39> H 	 -49.38 	 11.9204 	 -109.136
| 40> H 	 -45.9062 	 17.9862 	 -105.041
| 41> *
| 42>
| 43>                          ****END OF INPUT****

CARTESIAN COORDINATES (ANGSTROEM)
---------------------------------
  S    -48.774000   14.288500  -108.494000
  C    -49.159900   12.620600  -108.312000
  C    -49.849800   12.399600  -107.127000
  C    -49.553200   13.434100  -106.196000
  C    -48.987900   14.581100  -106.790000
  H    -49.703300   13.421200  -105.196000
  C    -50.504500   11.150100  -106.591000
  H    -50.319700   11.171600  -105.458000
  H    -49.933700   10.307600  -107.064000
  C    -52.007600   11.145900  -106.953000
  H    -52.170200   11.192700  -108.088000
  H    -52.403900   10.144700  -106.799000
  C    -52.800000   12.298200  -106.285000
  H    -52.521200   13.273400  -106.627000
  H    -53.867300   12.330300  -106.482000
  H    -52.647800   12.310000  -105.202000
  S    -46.695500   15.874600  -106.041000
  C    -46.815200   17.453500  -105.280000
  C    -48.123000   17.820400  -105.008000
  C    -49.088100   16.863700  -105.547000
  C    -48.435900   15.770200  -106.095000
  H    -48.232700   18.838100  -104.548000
  C    -50.582600   17.054400  -105.452000
  H    -50.955000   16.087200  -105.776000
  H    -50.873400   17.827300  -106.163000
  C    -51.218600   17.506800  -104.144000
  H    -51.268100   18.664500  -104.114000
  H    -50.651000   17.134600  -103.359000
  C    -52.693400   17.010100  -104.030000
  H    -53.214400   17.573900  -103.236000
  H    -52.843400   15.904300  -103.832000
  H    -53.266100   17.222400  -104.934000
  H    -49.380000   11.920400  -109.136000
  H    -45.906200   17.986200  -105.041000

 Total Charge           Charge          ....    0
 Multiplicity           Mult            ....    1
 Number of Electrons    NEL             ....  134
 Basis Dimension        Dim             ....  322

ORBITAL ENERGIES
----------------

  NO   OCC          E(Eh)            E(eV)
   0   2.0000     -88.965741     -2420.8809
   1   2.0000     -88.962416     -2420.7904
   2   2.0000     -10.327562      -281.0272
   3   2.0000     -10.325339      -280.9667
   4   2.0000     -10.317215      -280.7457
   5   2.0000     -10.311498      -280.5901
   6   2.0000     -10.307915      -280.4926
   7   2.0000     -10.303524      -280.3731
   8   2.0000     -10.300247      -280.2840
   9   2.0000     -10.297854      -280.2189
  10   2.0000     -10.297464      -280.2082
  11   2.0000     -10.291253      -280.0392
  12   2.0000     -10.287033      -279.9244
  13   2.0000     -10.285770      -279.8900
  14   2.0000     -10.285762      -279.8898
  15   2.0000     -10.278560      -279.6938
  16   2.0000      -8.080877      -219.8918
  17   2.0000      -8.077496      -219.7998
  18   2.0000      -6.039347      -164.3390
  19   2.0000      -6.035916      -164.2456
  20   2.0000      -6.035341      -164.2300
  21   2.0000      -6.032044      -164.1403
  22   2.0000      -6.031629      -164.1290
  23   2.0000      -6.028238      -164.0367
  24   2.0000      -1.005109       -27.3504
  25   2.0000      -0.983447       -26.7610
  26   2.0000      -0.909873       -24.7589
  27   2.0000      -0.908284       -24.7157
  28   2.0000      -0.863268       -23.4907
  29   2.0000      -0.847992       -23.0750
  30   2.0000      -0.844898       -22.9908
  31   2.0000      -0.811651       -22.0861
  32   2.0000      -0.781792       -21.2736
  33   2.0000      -0.770542       -20.9675
  34   2.0000      -0.705823       -19.2064
  35   2.0000      -0.702675       -19.1208
  36   2.0000      -0.693148       -18.8615
  37   2.0000      -0.653490       -17.7824
  38   2.0000      -0.642283       -17.4774
  39   2.0000      -0.610722       -16.6186
  40   2.0000      -0.592285       -16.1169
  41   2.0000      -0.571776       -15.5588
  42   2.0000      -0.566124       -15.4050
  43   2.0000      -0.552619       -15.0375
  44   2.0000      -0.537685       -14.6311
  45   2.0000      -0.523324       -14.2404
  46   2.0000      -0.514076       -13.9887
  47   2.0000      -0.505701       -13.7608
  48   2.0000      -0.499429       -13.5901
  49   2.0000      -0.485608       -13.2141
  50   2.0000      -0.483858       -13.1665
  51   2.0000      -0.480271       -13.0689
  52   2.0000      -0.473199       -12.8764
  53   2.0000      -0.465570       -12.6688
  54   2.0000      -0.459682       -12.5086
  55   2.0000      -0.446244       -12.1429
  56   2.0000      -0.444116       -12.0850
  57   2.0000      -0.434766       -11.8306
  58   2.0000      -0.431595       -11.7443
  59   2.0000      -0.428142       -11.6503
  60   2.0000      -0.424579       -11.5534
  61   2.0000      -0.421185       -11.4610
  62   2.0000      -0.409900       -11.1539
  63   2.0000      -0.336530        -9.1574
  64   2.0000      -0.325895        -8.8680
  65   2.0000      -0.322689        -8.7808
  66   2.0000      -0.303807        -8.2670
  67   0.0000       0.036370         0.9897
  68   0.0000       0.061611         1.6765
  69   0.0000       0.114529         3.1165
  70   0.0000       0.120634         3.2826
  71   0.0000       0.123769         3.3679

MULLIKEN ATOMIC CHARGES
-----------------------
   0 S :    0.128278
   1 C :   -0.107563
   2 C :   -0.105857
   3 C :    0.075096
   4 C :   -0.187521
   5 H :   -0.033818
   6 C :    0.012000
   7 H :    0.051166
   8 H :    0.042154
   9 C :   -0.065438
  10 H :    0.032489
  11 H :    0.028069
  12 C :   -0.045612
  13 H :    0.034669
  14 H :    0.033075
  15 H :    0.028204
  16 S :    0.113077
  17 C :   -0.108323
  18 C :   -0.047963
  19 C :   -0.034497
  20 C :   -0.179535
  21 H :    0.042947
  22 C :    0.093778
  23 H :    0.021121
  24 H :    0.036904
  25 C :   -0.061977
  26 H :    0.042278
  27 H :    0.021551
  28 C :   -0.086599
  29 H :    0.035243
  30 H :    0.046606
  31 H :    0.030030
  32 H :    0.057456
  33 H :    0.058513
Sum of atomic charges:   -0.0000000

LOEWDIN ATOMIC CHARGES
----------------------
   0 S :    0.425159
   1 C :   -0.217524
   2 C :   -0.064466
   3 C :   -0.046449
   4 C :   -0.204628
   5 H :    0.009857
   6 C :   -0.036303
   7 H :    0.040341
   8 H :    0.038451
   9 C :   -0.045715
  10 H :    0.031984
  11 H :    0.021360
  12 C :   -0.068883
  13 H :    0.024858
  14 H :    0.028837
  15 H :    0.024363
  16 S :    0.404590
  17 C :   -0.177431
  18 C :   -0.082175
  19 C :   -0.049816
  20 C :   -0.209880
  21 H :    0.043315
  22 C :   -0.035911
  23 H :    0.028902
  24 H :    0.037603
  25 C :   -0.036124
  26 H :    0.035073
  27 H :    0.013665
  28 C :   -0.072043
  29 H :    0.027226
  30 H :    0.031152
  31 H :    0.023333
  32 H :    0.032119
  33 H :    0.025161

  Mayer bond orders larger than 0.100000
B(  0-S ,  1-C ) :   1.1560 B(  0-S ,  4-C ) :   1.1705 B(  1-C ,  2-C ) :   1.6060
B(  1-C , 32-H ) :   0.9521 B(  2-C ,  3-C ) :   1.2383 B(  2-C ,  6-C ) :   1.0088
B(  3-C ,  4-C ) :   1.5584 B(  3-C ,  5-H ) :   1.0072 B(  4-C , 20-C ) :   1.0051
B(  6-C ,  7-H ) :   0.9545 B(  6-C ,  8-H ) :   0.9442 B(  6-C ,  9-C ) :   1.0572
B(  9-C , 10-H ) :   0.9557 B(  9-C , 11-H ) :   0.9600 B(  9-C , 12-C ) :   1.0614
B( 12-C , 13-H ) :   0.9715 B( 12-C , 14-H ) :   0.9726 B( 12-C , 15-H ) :   0.9770
B( 16-S , 17-C ) :   1.1537 B( 16-S , 20-C ) :   1.1474 B( 17-C , 18-C ) :   1.6364
B( 17-C , 33-H ) :   0.9680 B( 18-C , 19-C ) :   1.1881 B( 18-C , 21-H ) :   0.9837
B( 19-C , 20-C ) :   1.6308 B( 19-C , 22-C ) :   1.0532 B( 22-C , 23-H ) :   0.9338
B( 22-C , 24-H ) :   0.9183 B( 22-C , 25-C ) :   1.0602 B( 25-C , 26-H ) :   0.9497
B( 25-C , 27-H ) :   0.9632 B( 25-C , 28-C ) :   1.0825 B( 28-C , 29-H ) :   0.9759
B( 28-C , 30-H ) :   0.9750 B( 28-C , 31-H ) :   0.9750

Dispersion correction           -0.014692409
FINAL SINGLE POINT ENERGY     -1339.865766689853

DIPOLE MOMENT
-------------
                                X             Y             Z
Electronic contribution:     27.04652       3.84702     -11.13523
Nuclear contribution   :    -27.58372      -3.84514      11.42705
                        -----------------------------------------
Total Dipole Moment    :     -0.53720       0.00188       0.29183
                        -----------------------------------------
Magnitude (a.u.)       :      0.61135
Magnitude (Debye)      :      1.55393

Rotational constants in cm-1:     0.016788     0.009972     0.006901
Rotational constants in MHz :   503.282517   298.944621   206.890481

                             ****ORCA TERMINATED NORMALLY****
TOTAL RUN TIME: 0 days 0 hours 0 minutes 21 seconds 970 msec
