                         Program Version 4.2.1 -  RELEASE  -
|  1> ! wB97X-D3 SP def2-SVP
|  2> %pal
|  3> nprocs 24
|  4> end
|  5>
|  6> * xyz 0 1
|  7> S 	 -125.697 	 65.1705 	 -36.1299
|  8> C 	 -125.421 	 64.0556 	 -37.4983
|  9> C 	 -124.125 	 64.2318 	 -37.9977
| 10> C 	 -123.466 	 65.3955 	 -37.4083
| 11> C 	 -124.208 	 66.0509 	 -36.5289
| 12> H 	 -122.467 	 65.7397 	 -37.6568
| 13> C 	 -123.461 	 63.4098 	 -39.074
| 14> H 	 -123.868 	 62.4099 	 -38.9865
| 15> H 	 -122.374 	 63.1198 	 -38.9299
| 16> C 	 -123.688 	 63.8742 	 -40.5221
| 17> H 	 -123.565 	 63.0846 	 -41.2325
| 18> H 	 -124.71 	 64.1021 	 -40.6742
| 19> C 	 -122.866 	 65.0994 	 -40.9086
| 20> H 	 -122.117 	 65.1074 	 -40.2607
| 21> H 	 -122.524 	 65.0807 	 -41.9808
| 22> H 	 -123.519 	 65.9644 	 -41.0071
| 23> S 	 -124.383 	 67.6003 	 -34.2678
| 24> C 	 -123.69 	 69.2399 	 -34.2522
| 25> C 	 -123.496 	 69.6606 	 -35.5601
| 26> C 	 -123.742 	 68.5802 	 -36.5433
| 27> C 	 -124.008 	 67.3511 	 -35.924
| 28> H 	 -123.105 	 70.6297 	 -35.7447
| 29> C 	 -123.527 	 68.7466 	 -38.096
| 30> H 	 -124.523 	 68.7632 	 -38.4759
| 31> H 	 -123.037 	 67.7956 	 -38.6249
| 32> C 	 -122.734 	 69.9559 	 -38.6339
| 33> H 	 -121.627 	 69.8824 	 -38.4419
| 34> H 	 -123.058 	 70.8474 	 -38.0363
| 35> C 	 -122.988 	 70.2217 	 -40.1295
| 36> H 	 -124.052 	 70.4288 	 -40.3566
| 37> H 	 -122.614 	 69.3105 	 -40.6487
| 38> H 	 -122.447 	 71.1366 	 -40.424
| 39> H 	 -126.087 	 63.3138 	 -37.7617
| 40> H 	 -123.378 	 69.7624 	 -33.3839
| 41> *
| 42>
| 43>                          ****END OF INPUT****

CARTESIAN COORDINATES (ANGSTROEM)
---------------------------------
  S    -125.697000   65.170500  -36.129900
  C    -125.421000   64.055600  -37.498300
  C    -124.125000   64.231800  -37.997700
  C    -123.466000   65.395500  -37.408300
  C    -124.208000   66.050900  -36.528900
  H    -122.467000   65.739700  -37.656800
  C    -123.461000   63.409800  -39.074000
  H    -123.868000   62.409900  -38.986500
  H    -122.374000   63.119800  -38.929900
  C    -123.688000   63.874200  -40.522100
  H    -123.565000   63.084600  -41.232500
  H    -124.710000   64.102100  -40.674200
  C    -122.866000   65.099400  -40.908600
  H    -122.117000   65.107400  -40.260700
  H    -122.524000   65.080700  -41.980800
  H    -123.519000   65.964400  -41.007100
  S    -124.383000   67.600300  -34.267800
  C    -123.690000   69.239900  -34.252200
  C    -123.496000   69.660600  -35.560100
  C    -123.742000   68.580200  -36.543300
  C    -124.008000   67.351100  -35.924000
  H    -123.105000   70.629700  -35.744700
  C    -123.527000   68.746600  -38.096000
  H    -124.523000   68.763200  -38.475900
  H    -123.037000   67.795600  -38.624900
  C    -122.734000   69.955900  -38.633900
  H    -121.627000   69.882400  -38.441900
  H    -123.058000   70.847400  -38.036300
  C    -122.988000   70.221700  -40.129500
  H    -124.052000   70.428800  -40.356600
  H    -122.614000   69.310500  -40.648700
  H    -122.447000   71.136600  -40.424000
  H    -126.087000   63.313800  -37.761700
  H    -123.378000   69.762400  -33.383900

 Total Charge           Charge          ....    0
 Multiplicity           Mult            ....    1
 Number of Electrons    NEL             ....  134
 Basis Dimension        Dim             ....  322

ORBITAL ENERGIES
----------------

  NO   OCC          E(Eh)            E(eV)
   0   2.0000     -88.962785     -2420.8004
   1   2.0000     -88.962122     -2420.7824
   2   2.0000     -10.326156      -280.9890
   3   2.0000     -10.325922      -280.9826
   4   2.0000     -10.319859      -280.8176
   5   2.0000     -10.316312      -280.7211
   6   2.0000     -10.315096      -280.6880
   7   2.0000     -10.309364      -280.5321
   8   2.0000     -10.301749      -280.3248
   9   2.0000     -10.301203      -280.3100
  10   2.0000     -10.296270      -280.1757
  11   2.0000     -10.294557      -280.1291
  12   2.0000     -10.291754      -280.0529
  13   2.0000     -10.286195      -279.9016
  14   2.0000     -10.278036      -279.6796
  15   2.0000     -10.269256      -279.4407
  16   2.0000      -8.077931      -219.8117
  17   2.0000      -8.076455      -219.7715
  18   2.0000      -6.036530      -164.2623
  19   2.0000      -6.035151      -164.2248
  20   2.0000      -6.032456      -164.1515
  21   2.0000      -6.031230      -164.1181
  22   2.0000      -6.028494      -164.0437
  23   2.0000      -6.026830      -163.9984
  24   2.0000      -1.005847       -27.3705
  25   2.0000      -0.978915       -26.6376
  26   2.0000      -0.913609       -24.8606
  27   2.0000      -0.900309       -24.4986
  28   2.0000      -0.872373       -23.7385
  29   2.0000      -0.848210       -23.0810
  30   2.0000      -0.839271       -22.8377
  31   2.0000      -0.822837       -22.3905
  32   2.0000      -0.782075       -21.2813
  33   2.0000      -0.767805       -20.8930
  34   2.0000      -0.707712       -19.2578
  35   2.0000      -0.702706       -19.1216
  36   2.0000      -0.694906       -18.9094
  37   2.0000      -0.656082       -17.8529
  38   2.0000      -0.648158       -17.6373
  39   2.0000      -0.619645       -16.8614
  40   2.0000      -0.594174       -16.1683
  41   2.0000      -0.577328       -15.7099
  42   2.0000      -0.563594       -15.3362
  43   2.0000      -0.559278       -15.2187
  44   2.0000      -0.538443       -14.6518
  45   2.0000      -0.527123       -14.3438
  46   2.0000      -0.521131       -14.1807
  47   2.0000      -0.511601       -13.9214
  48   2.0000      -0.508101       -13.8261
  49   2.0000      -0.497343       -13.5334
  50   2.0000      -0.491727       -13.3806
  51   2.0000      -0.477945       -13.0056
  52   2.0000      -0.471709       -12.8359
  53   2.0000      -0.464813       -12.6482
  54   2.0000      -0.454478       -12.3670
  55   2.0000      -0.450601       -12.2615
  56   2.0000      -0.444281       -12.0895
  57   2.0000      -0.435105       -11.8398
  58   2.0000      -0.432364       -11.7652
  59   2.0000      -0.420561       -11.4440
  60   2.0000      -0.412773       -11.2321
  61   2.0000      -0.411484       -11.1970
  62   2.0000      -0.407580       -11.0908
  63   2.0000      -0.352087        -9.5808
  64   2.0000      -0.332503        -9.0479
  65   2.0000      -0.322928        -8.7873
  66   2.0000      -0.289650        -7.8818
  67   0.0000       0.027852         0.7579
  68   0.0000       0.061364         1.6698
  69   0.0000       0.096660         2.6303
  70   0.0000       0.113479         3.0879
  71   0.0000       0.127189         3.4610

MULLIKEN ATOMIC CHARGES
-----------------------
   0 S :    0.086384
   1 C :   -0.089630
   2 C :   -0.068388
   3 C :    0.011309
   4 C :   -0.104830
   5 H :    0.019487
   6 C :    0.015893
   7 H :    0.012857
   8 H :    0.043606
   9 C :   -0.043632
  10 H :    0.018340
  11 H :    0.006267
  12 C :   -0.006488
  13 H :    0.002119
  14 H :    0.027741
  15 H :    0.034989
  16 S :    0.089895
  17 C :   -0.081575
  18 C :   -0.028205
  19 C :   -0.020425
  20 C :   -0.146386
  21 H :    0.017108
  22 C :    0.023862
  23 H :    0.033344
  24 H :    0.050077
  25 C :   -0.120785
  26 H :    0.045008
  27 H :    0.029932
  28 C :   -0.058329
  29 H :    0.040230
  30 H :    0.043552
  31 H :    0.041081
  32 H :    0.021976
  33 H :    0.053615
Sum of atomic charges:    0.0000000

LOEWDIN ATOMIC CHARGES
----------------------
   0 S :    0.366461
   1 C :   -0.166190
   2 C :   -0.051712
   3 C :   -0.062312
   4 C :   -0.172467
   5 H :    0.033916
   6 C :   -0.044732
   7 H :    0.031337
   8 H :    0.039587
   9 C :   -0.037087
  10 H :    0.020909
  11 H :    0.019162
  12 C :   -0.058003
  13 H :    0.000218
  14 H :    0.035350
  15 H :    0.030460
  16 S :    0.397292
  17 C :   -0.168533
  18 C :   -0.064065
  19 C :   -0.049634
  20 C :   -0.209831
  21 H :    0.025812
  22 C :   -0.043191
  23 H :    0.029907
  24 H :    0.043338
  25 C :   -0.054479
  26 H :    0.029153
  27 H :    0.020642
  28 C :   -0.067198
  29 H :    0.027987
  30 H :    0.029744
  31 H :    0.030040
  32 H :    0.012079
  33 H :    0.026039

  Mayer bond orders larger than 0.100000
B(  0-S ,  1-C ) :   1.1192 B(  0-S ,  4-C ) :   1.1119 B(  1-C ,  2-C ) :   1.6395
B(  1-C , 32-H ) :   0.9828 B(  2-C ,  3-C ) :   1.1775 B(  2-C ,  6-C ) :   1.0280
B(  3-C ,  4-C ) :   1.6584 B(  3-C ,  5-H ) :   0.9955 B(  4-C , 20-C ) :   1.0358
B(  6-C ,  7-H ) :   0.9305 B(  6-C ,  8-H ) :   0.9459 B(  6-C ,  9-C ) :   1.0856
B(  9-C , 10-H ) :   0.9555 B(  9-C , 11-H ) :   0.9541 B(  9-C , 12-C ) :   1.0684
B( 12-C , 13-H ) :   0.9804 B( 12-C , 14-H ) :   0.9709 B( 12-C , 15-H ) :   0.9750
B( 16-S , 17-C ) :   1.1416 B( 16-S , 20-C ) :   1.1337 B( 17-C , 18-C ) :   1.6237
B( 17-C , 33-H ) :   0.9740 B( 18-C , 19-C ) :   1.2108 B( 18-C , 21-H ) :   0.9924
B( 19-C , 20-C ) :   1.5995 B( 19-C , 22-C ) :   1.0134 B( 22-C , 23-H ) :   0.9314
B( 22-C , 24-H ) :   0.9429 B( 22-C , 25-C ) :   1.0616 B( 25-C , 26-H ) :   0.9573
B( 25-C , 27-H ) :   0.9484 B( 25-C , 28-C ) :   1.0804 B( 28-C , 29-H ) :   0.9753
B( 28-C , 30-H ) :   0.9753 B( 28-C , 31-H ) :   0.9730

Dispersion correction           -0.014512139
FINAL SINGLE POINT ENERGY     -1339.844075211939

DIPOLE MOMENT
-------------
                                X             Y             Z
Electronic contribution:    -11.71682      -4.68031      30.10912
Nuclear contribution   :     12.09776       4.81768     -30.80599
                        -----------------------------------------
Total Dipole Moment    :      0.38094       0.13737      -0.69687
                        -----------------------------------------
Magnitude (a.u.)       :      0.80598
Magnitude (Debye)      :      2.04864

Rotational constants in cm-1:     0.015771     0.010558     0.006743
Rotational constants in MHz :   472.803563   316.506385   202.138374

                             ****ORCA TERMINATED NORMALLY****
TOTAL RUN TIME: 0 days 0 hours 0 minutes 20 seconds 809 msec
