                         Program Version 4.2.1 -  RELEASE  -
|  1> ! wB97X-D3 SP def2-SVP
|  2> %pal
|  3> nprocs 24
|  4> end
|  5>
|  6> * xyz 0 1
|  7> S 	 -75.8437 	 -2.03339 	 13.3552
|  8> C 	 -75.835 	 -0.697784 	 12.2132
|  9> C 	 -75.6717 	 0.504785 	 12.9022
| 10> C 	 -75.5432 	 0.30314 	 14.3023
| 11> C 	 -75.6583 	 -1.0084 	 14.7862
| 12> H 	 -75.2279 	 1.08711 	 15.0096
| 13> C 	 -75.6543 	 1.93026 	 12.3138
| 14> H 	 -76.4197 	 2.55857 	 12.7096
| 15> H 	 -75.9753 	 1.82261 	 11.2627
| 16> C 	 -74.2402 	 2.49658 	 12.4034
| 17> H 	 -74.0146 	 2.61499 	 13.4481
| 18> H 	 -73.619 	 1.73254 	 12.0489
| 19> C 	 -73.9277 	 3.73827 	 11.5815
| 20> H 	 -72.8899 	 3.96678 	 11.751
| 21> H 	 -73.9834 	 3.52085 	 10.482
| 22> H 	 -74.5274 	 4.60167 	 11.8126
| 23> S 	 -73.6286 	 -2.26705 	 16.2119
| 24> C 	 -73.6941 	 -2.4317 	 17.9143
| 25> C 	 -74.7373 	 -1.71338 	 18.4317
| 26> C 	 -75.4063 	 -0.932463 	 17.4475
| 27> C 	 -75.1755 	 -1.42723 	 16.1525
| 28> H 	 -74.8541 	 -1.72664 	 19.4679
| 29> C 	 -76.5866 	 -0.0426026 	 17.7638
| 30> H 	 -77.4349 	 -0.68619 	 17.7951
| 31> H 	 -76.7018 	 0.619406 	 16.914
| 32> C 	 -76.5813 	 0.766729 	 19.0467
| 33> H 	 -76.2643 	 0.0536298 	 19.8594
| 34> H 	 -77.5736 	 1.07885 	 19.2064
| 35> C 	 -75.5126 	 1.97598 	 19.048
| 36> H 	 -75.6884 	 2.59441 	 18.1532
| 37> H 	 -74.4959 	 1.70995 	 19.0792
| 38> H 	 -75.6612 	 2.77883 	 19.7701
| 39> H 	 -76.0487 	 -0.724717 	 11.1439
| 40> H 	 -72.9674 	 -2.95638 	 18.6009
| 41> *
| 42>
| 43>                          ****END OF INPUT****

CARTESIAN COORDINATES (ANGSTROEM)
---------------------------------
  S    -75.843700   -2.033390   13.355200
  C    -75.835000   -0.697784   12.213200
  C    -75.671700    0.504785   12.902200
  C    -75.543200    0.303140   14.302300
  C    -75.658300   -1.008400   14.786200
  H    -75.227900    1.087110   15.009600
  C    -75.654300    1.930260   12.313800
  H    -76.419700    2.558570   12.709600
  H    -75.975300    1.822610   11.262700
  C    -74.240200    2.496580   12.403400
  H    -74.014600    2.614990   13.448100
  H    -73.619000    1.732540   12.048900
  C    -73.927700    3.738270   11.581500
  H    -72.889900    3.966780   11.751000
  H    -73.983400    3.520850   10.482000
  H    -74.527400    4.601670   11.812600
  S    -73.628600   -2.267050   16.211900
  C    -73.694100   -2.431700   17.914300
  C    -74.737300   -1.713380   18.431700
  C    -75.406300   -0.932463   17.447500
  C    -75.175500   -1.427230   16.152500
  H    -74.854100   -1.726640   19.467900
  C    -76.586600   -0.042603   17.763800
  H    -77.434900   -0.686190   17.795100
  H    -76.701800    0.619406   16.914000
  C    -76.581300    0.766729   19.046700
  H    -76.264300    0.053630   19.859400
  H    -77.573600    1.078850   19.206400
  C    -75.512600    1.975980   19.048000
  H    -75.688400    2.594410   18.153200
  H    -74.495900    1.709950   19.079200
  H    -75.661200    2.778830   19.770100
  H    -76.048700   -0.724717   11.143900
  H    -72.967400   -2.956380   18.600900

 Total Charge           Charge          ....    0
 Multiplicity           Mult            ....    1
 Number of Electrons    NEL             ....  134
 Basis Dimension        Dim             ....  322

ORBITAL ENERGIES
----------------

  NO   OCC          E(Eh)            E(eV)
   0   2.0000     -88.970711     -2421.0161
   1   2.0000     -88.961352     -2420.7614
   2   2.0000     -10.337299      -281.2922
   3   2.0000     -10.331859      -281.1442
   4   2.0000     -10.322267      -280.8832
   5   2.0000     -10.314885      -280.6823
   6   2.0000     -10.304973      -280.4126
   7   2.0000     -10.304108      -280.3890
   8   2.0000     -10.296427      -280.1800
   9   2.0000     -10.293561      -280.1020
  10   2.0000     -10.292089      -280.0620
  11   2.0000     -10.285988      -279.8960
  12   2.0000     -10.283453      -279.8270
  13   2.0000     -10.279398      -279.7166
  14   2.0000     -10.278992      -279.7056
  15   2.0000     -10.278876      -279.7024
  16   2.0000      -8.084360      -219.9866
  17   2.0000      -8.076672      -219.7774
  18   2.0000      -6.043051      -164.4398
  19   2.0000      -6.038801      -164.3241
  20   2.0000      -6.035192      -164.2259
  21   2.0000      -6.035173      -164.2254
  22   2.0000      -6.031132      -164.1154
  23   2.0000      -6.027323      -164.0118
  24   2.0000      -1.005508       -27.3613
  25   2.0000      -0.985875       -26.8270
  26   2.0000      -0.913197       -24.8494
  27   2.0000      -0.907810       -24.7028
  28   2.0000      -0.867482       -23.6054
  29   2.0000      -0.846703       -23.0400
  30   2.0000      -0.840948       -22.8834
  31   2.0000      -0.814228       -22.1563
  32   2.0000      -0.784670       -21.3520
  33   2.0000      -0.776796       -21.1377
  34   2.0000      -0.711245       -19.3540
  35   2.0000      -0.702008       -19.1026
  36   2.0000      -0.694329       -18.8937
  37   2.0000      -0.650196       -17.6927
  38   2.0000      -0.638846       -17.3839
  39   2.0000      -0.620148       -16.8751
  40   2.0000      -0.594144       -16.1675
  41   2.0000      -0.575839       -15.6694
  42   2.0000      -0.564655       -15.3651
  43   2.0000      -0.553965       -15.0741
  44   2.0000      -0.540845       -14.7172
  45   2.0000      -0.528246       -14.3743
  46   2.0000      -0.513188       -13.9646
  47   2.0000      -0.510234       -13.8842
  48   2.0000      -0.503906       -13.7120
  49   2.0000      -0.499817       -13.6007
  50   2.0000      -0.488260       -13.2862
  51   2.0000      -0.480817       -13.0837
  52   2.0000      -0.472200       -12.8492
  53   2.0000      -0.465195       -12.6586
  54   2.0000      -0.460430       -12.5289
  55   2.0000      -0.448084       -12.1930
  56   2.0000      -0.441280       -12.0078
  57   2.0000      -0.437574       -11.9070
  58   2.0000      -0.436677       -11.8826
  59   2.0000      -0.423727       -11.5302
  60   2.0000      -0.420616       -11.4456
  61   2.0000      -0.415416       -11.3041
  62   2.0000      -0.414123       -11.2688
  63   2.0000      -0.345634        -9.4052
  64   2.0000      -0.329369        -8.9626
  65   2.0000      -0.324585        -8.8324
  66   2.0000      -0.295062        -8.0291
  67   0.0000       0.026811         0.7296
  68   0.0000       0.063787         1.7357
  69   0.0000       0.112227         3.0538
  70   0.0000       0.123650         3.3647
  71   0.0000       0.132414         3.6032

MULLIKEN ATOMIC CHARGES
-----------------------
   0 S :    0.108313
   1 C :   -0.115300
   2 C :   -0.115641
   3 C :    0.011486
   4 C :   -0.150577
   5 H :    0.033640
   6 C :    0.087192
   7 H :    0.029648
   8 H :    0.003528
   9 C :   -0.068771
  10 H :    0.026038
  11 H :    0.019414
  12 C :   -0.028499
  13 H :    0.029773
  14 H :    0.033851
  15 H :    0.031907
  16 S :    0.109150
  17 C :   -0.102430
  18 C :   -0.025932
  19 C :   -0.050920
  20 C :   -0.139919
  21 H :   -0.001436
  22 C :    0.058576
  23 H :    0.040573
  24 H :    0.011567
  25 C :   -0.048005
  26 H :    0.032788
  27 H :    0.024952
  28 C :   -0.059060
  29 H :    0.016421
  30 H :    0.038467
  31 H :    0.028126
  32 H :    0.057782
  33 H :    0.073298
Sum of atomic charges:   -0.0000000

LOEWDIN ATOMIC CHARGES
----------------------
   0 S :    0.406423
   1 C :   -0.195786
   2 C :   -0.065881
   3 C :   -0.061883
   4 C :   -0.204547
   5 H :    0.032161
   6 C :   -0.026512
   7 H :    0.025176
   8 H :    0.026562
   9 C :   -0.037859
  10 H :    0.021704
  11 H :    0.022672
  12 C :   -0.062658
  13 H :    0.027140
  14 H :    0.030810
  15 H :    0.021331
  16 S :    0.417662
  17 C :   -0.203308
  18 C :   -0.076175
  19 C :   -0.053053
  20 C :   -0.193122
  21 H :    0.020832
  22 C :   -0.033867
  23 H :    0.036490
  24 H :    0.025572
  25 C :   -0.029797
  26 H :    0.027395
  27 H :    0.021170
  28 C :   -0.071999
  29 H :    0.025121
  30 H :    0.020267
  31 H :    0.027257
  32 H :    0.035888
  33 H :    0.044815

  Mayer bond orders larger than 0.100000
B(  0-S ,  1-C ) :   1.1522 B(  0-S ,  4-C ) :   1.1522 B(  1-C ,  2-C ) :   1.5864
B(  1-C ,  4-C ) :   0.1005 B(  1-C , 32-H ) :   0.9629 B(  2-C ,  3-C ) :   1.2816
B(  2-C ,  6-C ) :   1.0224 B(  3-C ,  4-C ) :   1.5467 B(  3-C ,  5-H ) :   0.9767
B(  4-C , 20-C ) :   1.0222 B(  6-C ,  7-H ) :   0.9444 B(  6-C ,  8-H ) :   0.9381
B(  6-C ,  9-C ) :   1.0543 B(  9-C , 10-H ) :   0.9567 B(  9-C , 11-H ) :   0.9512
B(  9-C , 12-C ) :   1.0949 B( 12-C , 13-H ) :   0.9721 B( 12-C , 14-H ) :   0.9733
B( 12-C , 15-H ) :   0.9745 B( 16-S , 17-C ) :   1.1685 B( 16-S , 20-C ) :   1.1487
B( 17-C , 18-C ) :   1.6133 B( 17-C , 33-H ) :   0.9580 B( 18-C , 19-C ) :   1.2282
B( 18-C , 21-H ) :   0.9984 B( 19-C , 20-C ) :   1.5679 B( 19-C , 22-C ) :   1.0452
B( 22-C , 23-H ) :   0.9360 B( 22-C , 24-H ) :   0.9329 B( 22-C , 25-C ) :   1.0850
B( 25-C , 26-H ) :   0.9546 B( 25-C , 27-H ) :   0.9553 B( 25-C , 28-C ) :   1.0559
B( 28-C , 29-H ) :   0.9749 B( 28-C , 30-H ) :   0.9811 B( 28-C , 31-H ) :   0.9781

Dispersion correction           -0.013868743
FINAL SINGLE POINT ENERGY     -1339.856994817816

DIPOLE MOMENT
-------------
                                X             Y             Z
Electronic contribution:      1.50473     -27.34330      -3.13307
Nuclear contribution   :     -1.52679      28.04844       3.26558
                        -----------------------------------------
Total Dipole Moment    :     -0.02206       0.70514       0.13252
                        -----------------------------------------
Magnitude (a.u.)       :      0.71783
Magnitude (Debye)      :      1.82457

Rotational constants in cm-1:     0.017159     0.008404     0.006728
Rotational constants in MHz :   514.400244   251.943337   201.709935

                             ****ORCA TERMINATED NORMALLY****
TOTAL RUN TIME: 0 days 0 hours 0 minutes 21 seconds 256 msec
