                         Program Version 4.2.1 -  RELEASE  -
|  1> ! wB97X-D3 SP def2-SVP
|  2> %pal
|  3> nprocs 24
|  4> end
|  5>
|  6> * xyz 0 1
|  7> S 	 -127.577 	 2.55769 	 4.90156
|  8> C 	 -125.947 	 2.05448 	 4.73206
|  9> C 	 -125.203 	 2.04279 	 5.90685
| 10> C 	 -126.068 	 2.30629 	 7.03341
| 11> C 	 -127.384 	 2.51412 	 6.66461
| 12> H 	 -125.873 	 2.4928 	 8.05623
| 13> C 	 -123.698 	 1.83188 	 6.05824
| 14> H 	 -123.704 	 0.698928 	 6.05537
| 15> H 	 -123.315 	 1.97928 	 7.08332
| 16> C 	 -122.747 	 2.33239 	 5.01605
| 17> H 	 -122.85 	 1.82275 	 4.11211
| 18> H 	 -122.92 	 3.40278 	 4.94296
| 19> C 	 -121.315 	 2.23999 	 5.44032
| 20> H 	 -120.73 	 2.71247 	 4.74941
| 21> H 	 -121.118 	 2.67343 	 6.3947
| 22> H 	 -120.898 	 1.20708 	 5.63009
| 23> S 	 -129.317 	 4.36087 	 7.23494
| 24> C 	 -130.64 	 3.98387 	 8.30286
| 25> C 	 -130.368 	 2.81828 	 9.06269
| 26> C 	 -129.168 	 2.15918 	 8.57638
| 27> C 	 -128.533 	 2.82141 	 7.53392
| 28> H 	 -131.103 	 2.5002 	 9.72234
| 29> C 	 -128.735 	 0.880379 	 9.17862
| 30> H 	 -129.386 	 0.5483 	 9.93661
| 31> H 	 -127.901 	 1.20682 	 9.75428
| 32> C 	 -128.177 	 -0.251152 	 8.30577
| 33> H 	 -127.913 	 -1.08824 	 8.9576
| 34> H 	 -127.158 	 -0.0361876 	 7.96605
| 35> C 	 -129.135 	 -0.708561 	 7.18961
| 36> H 	 -130.043 	 -1.18369 	 7.54818
| 37> H 	 -128.617 	 -1.47804 	 6.54857
| 38> H 	 -129.504 	 0.136763 	 6.69308
| 39> H 	 -125.43 	 1.83259 	 3.81768
| 40> H 	 -131.516 	 4.6804 	 8.3816
| 41> *
| 42>
| 43>                          ****END OF INPUT****

CARTESIAN COORDINATES (ANGSTROEM)
---------------------------------
  S    -127.577000    2.557690    4.901560
  C    -125.947000    2.054480    4.732060
  C    -125.203000    2.042790    5.906850
  C    -126.068000    2.306290    7.033410
  C    -127.384000    2.514120    6.664610
  H    -125.873000    2.492800    8.056230
  C    -123.698000    1.831880    6.058240
  H    -123.704000    0.698928    6.055370
  H    -123.315000    1.979280    7.083320
  C    -122.747000    2.332390    5.016050
  H    -122.850000    1.822750    4.112110
  H    -122.920000    3.402780    4.942960
  C    -121.315000    2.239990    5.440320
  H    -120.730000    2.712470    4.749410
  H    -121.118000    2.673430    6.394700
  H    -120.898000    1.207080    5.630090
  S    -129.317000    4.360870    7.234940
  C    -130.640000    3.983870    8.302860
  C    -130.368000    2.818280    9.062690
  C    -129.168000    2.159180    8.576380
  C    -128.533000    2.821410    7.533920
  H    -131.103000    2.500200    9.722340
  C    -128.735000    0.880379    9.178620
  H    -129.386000    0.548300    9.936610
  H    -127.901000    1.206820    9.754280
  C    -128.177000   -0.251152    8.305770
  H    -127.913000   -1.088240    8.957600
  H    -127.158000   -0.036188    7.966050
  C    -129.135000   -0.708561    7.189610
  H    -130.043000   -1.183690    7.548180
  H    -128.617000   -1.478040    6.548570
  H    -129.504000    0.136763    6.693080
  H    -125.430000    1.832590    3.817680
  H    -131.516000    4.680400    8.381600

 Total Charge           Charge          ....    0
 Multiplicity           Mult            ....    1
 Number of Electrons    NEL             ....  134
 Basis Dimension        Dim             ....  322

ORBITAL ENERGIES
----------------

  NO   OCC          E(Eh)            E(eV)
   0   2.0000     -88.968219     -2420.9483
   1   2.0000     -88.960671     -2420.7429
   2   2.0000     -10.328621      -281.0561
   3   2.0000     -10.322930      -280.9012
   4   2.0000     -10.322582      -280.8917
   5   2.0000     -10.309038      -280.5232
   6   2.0000     -10.306041      -280.4416
   7   2.0000     -10.305720      -280.4329
   8   2.0000     -10.297278      -280.2032
   9   2.0000     -10.295204      -280.1467
  10   2.0000     -10.292522      -280.0738
  11   2.0000     -10.281794      -279.7818
  12   2.0000     -10.280654      -279.7508
  13   2.0000     -10.278702      -279.6977
  14   2.0000     -10.271634      -279.5054
  15   2.0000     -10.267342      -279.3886
  16   2.0000      -8.082772      -219.9434
  17   2.0000      -8.075741      -219.7521
  18   2.0000      -6.041183      -164.3890
  19   2.0000      -6.037459      -164.2876
  20   2.0000      -6.034179      -164.1984
  21   2.0000      -6.033482      -164.1794
  22   2.0000      -6.030125      -164.0881
  23   2.0000      -6.026645      -163.9933
  24   2.0000      -1.003327       -27.3019
  25   2.0000      -0.980996       -26.6942
  26   2.0000      -0.920541       -25.0492
  27   2.0000      -0.908144       -24.7119
  28   2.0000      -0.867390       -23.6029
  29   2.0000      -0.854403       -23.2495
  30   2.0000      -0.843914       -22.9641
  31   2.0000      -0.813899       -22.1473
  32   2.0000      -0.785018       -21.3614
  33   2.0000      -0.772183       -21.0122
  34   2.0000      -0.712231       -19.3808
  35   2.0000      -0.706263       -19.2184
  36   2.0000      -0.683886       -18.6095
  37   2.0000      -0.665999       -18.1227
  38   2.0000      -0.644806       -17.5461
  39   2.0000      -0.609691       -16.5905
  40   2.0000      -0.586428       -15.9575
  41   2.0000      -0.581279       -15.8174
  42   2.0000      -0.569297       -15.4914
  43   2.0000      -0.550480       -14.9793
  44   2.0000      -0.544458       -14.8154
  45   2.0000      -0.533462       -14.5162
  46   2.0000      -0.522246       -14.2110
  47   2.0000      -0.503880       -13.7113
  48   2.0000      -0.495490       -13.4830
  49   2.0000      -0.492051       -13.3894
  50   2.0000      -0.489831       -13.3290
  51   2.0000      -0.480967       -13.0878
  52   2.0000      -0.477697       -12.9988
  53   2.0000      -0.469684       -12.7807
  54   2.0000      -0.453546       -12.3416
  55   2.0000      -0.449397       -12.2287
  56   2.0000      -0.439968       -11.9721
  57   2.0000      -0.437261       -11.8985
  58   2.0000      -0.431004       -11.7282
  59   2.0000      -0.430073       -11.7029
  60   2.0000      -0.423896       -11.5348
  61   2.0000      -0.415222       -11.2988
  62   2.0000      -0.405369       -11.0307
  63   2.0000      -0.340085        -9.2542
  64   2.0000      -0.325528        -8.8581
  65   2.0000      -0.323766        -8.8101
  66   2.0000      -0.290060        -7.8929
  67   0.0000       0.032043         0.8719
  68   0.0000       0.065660         1.7867
  69   0.0000       0.109519         2.9802
  70   0.0000       0.123627         3.3641
  71   0.0000       0.131304         3.5730

MULLIKEN ATOMIC CHARGES
-----------------------
   0 S :    0.135836
   1 C :   -0.106957
   2 C :   -0.075958
   3 C :    0.052234
   4 C :   -0.171883
   5 H :    0.000759
   6 C :    0.025386
   7 H :    0.040475
   8 H :    0.018324
   9 C :   -0.021744
  10 H :    0.024241
  11 H :    0.035409
  12 C :   -0.024799
  13 H :    0.016253
  14 H :    0.013048
  15 H :    0.023701
  16 S :    0.098055
  17 C :   -0.128366
  18 C :   -0.011541
  19 C :   -0.047618
  20 C :   -0.177996
  21 H :    0.002839
  22 C :    0.102692
  23 H :   -0.000736
  24 H :    0.021152
  25 C :   -0.057278
  26 H :    0.013026
  27 H :    0.025812
  28 C :   -0.022379
  29 H :    0.017172
  30 H :    0.042334
  31 H :    0.027258
  32 H :    0.031464
  33 H :    0.079784
Sum of atomic charges:   -0.0000000

LOEWDIN ATOMIC CHARGES
----------------------
   0 S :    0.417489
   1 C :   -0.212710
   2 C :   -0.058354
   3 C :   -0.055448
   4 C :   -0.187430
   5 H :    0.027485
   6 C :   -0.044047
   7 H :    0.044723
   8 H :    0.032074
   9 C :   -0.036332
  10 H :    0.019364
  11 H :    0.032247
  12 C :   -0.056433
  13 H :    0.015278
  14 H :    0.020542
  15 H :    0.028806
  16 S :    0.403931
  17 C :   -0.189635
  18 C :   -0.066840
  19 C :   -0.050310
  20 C :   -0.211691
  21 H :    0.021724
  22 C :   -0.035811
  23 H :    0.024290
  24 H :    0.038957
  25 C :   -0.042675
  26 H :    0.024589
  27 H :    0.024692
  28 C :   -0.062802
  29 H :    0.022542
  30 H :    0.034181
  31 H :    0.016868
  32 H :    0.023450
  33 H :    0.037287

  Mayer bond orders larger than 0.100000
B(  0-S ,  1-C ) :   1.1430 B(  0-S ,  4-C ) :   1.1443 B(  1-C ,  2-C ) :   1.6257
B(  1-C , 32-H ) :   0.9642 B(  2-C ,  3-C ) :   1.2145 B(  2-C ,  6-C ) :   1.0039
B(  3-C ,  4-C ) :   1.5964 B(  3-C ,  5-H ) :   0.9974 B(  4-C , 20-C ) :   1.0301
B(  6-C ,  7-H ) :   0.9217 B(  6-C ,  8-H ) :   0.9517 B(  6-C ,  9-C ) :   1.0729
B(  9-C , 10-H ) :   0.9421 B(  9-C , 11-H ) :   0.9561 B(  9-C , 12-C ) :   1.1024
B( 12-C , 13-H ) :   0.9710 B( 12-C , 14-H ) :   0.9702 B( 12-C , 15-H ) :   0.9709
B( 16-S , 17-C ) :   1.1754 B( 16-S , 20-C ) :   1.1385 B( 17-C , 18-C ) :   1.5818
B( 17-C , 33-H ) :   0.9621 B( 18-C , 19-C ) :   1.2225 B( 18-C , 21-H ) :   1.0060
B( 19-C , 20-C ) :   1.5916 B( 19-C , 22-C ) :   1.0444 B( 22-C , 23-H ) :   0.9314
B( 22-C , 24-H ) :   0.9138 B( 22-C , 25-C ) :   1.0868 B( 25-C , 26-H ) :   0.9436
B( 25-C , 27-H ) :   0.9456 B( 25-C , 28-C ) :   1.0732 B( 28-C , 29-H ) :   0.9735
B( 28-C , 30-H ) :   0.9753 B( 28-C , 31-H ) :   0.9753

Dispersion correction           -0.015155952
FINAL SINGLE POINT ENERGY     -1339.858328339317

DIPOLE MOMENT
-------------
                                X             Y             Z
Electronic contribution:    -19.08667      15.65867      -3.23987
Nuclear contribution   :     19.55242     -15.93686       3.56550
                        -----------------------------------------
Total Dipole Moment    :      0.46575      -0.27819       0.32563
                        -----------------------------------------
Magnitude (a.u.)       :      0.63273
Magnitude (Debye)      :      1.60828

Rotational constants in cm-1:     0.023463     0.007645     0.006832
Rotational constants in MHz :   703.390574   229.187098   204.831808

                             ****ORCA TERMINATED NORMALLY****
TOTAL RUN TIME: 0 days 0 hours 0 minutes 22 seconds 219 msec
