                         Program Version 4.2.1 -  RELEASE  -
|  1> ! wB97X-D3 SP def2-SVP
|  2> %pal
|  3> nprocs 24
|  4> end
|  5>
|  6> * xyz 0 1
|  7> S 	 -112.01 	 52.7174 	 -94.7567
|  8> C 	 -112.225 	 53.7545 	 -96.2645
|  9> C 	 -112.297 	 55.0887 	 -95.8982
| 10> C 	 -112.332 	 55.2838 	 -94.4998
| 11> C 	 -112.161 	 54.1365 	 -93.6873
| 12> H 	 -112.484 	 56.2167 	 -93.9651
| 13> C 	 -112.411 	 56.2341 	 -96.8527
| 14> H 	 -112.326 	 55.7445 	 -97.8622
| 15> H 	 -111.562 	 56.8658 	 -96.7214
| 16> C 	 -113.648 	 56.9971 	 -96.7183
| 17> H 	 -114.499 	 56.3144 	 -96.6552
| 18> H 	 -113.594 	 57.4968 	 -95.7782
| 19> C 	 -113.836 	 58.0007 	 -97.9192
| 20> H 	 -114.383 	 57.6401 	 -98.7907
| 21> H 	 -114.488 	 58.8435 	 -97.6548
| 22> H 	 -112.844 	 58.2717 	 -98.2485
| 23> S 	 -110.327 	 54.6926 	 -91.742
| 24> C 	 -110.618 	 54.2094 	 -90.1056
| 25> C 	 -111.863 	 53.5451 	 -90.0044
| 26> C 	 -112.601 	 53.4328 	 -91.2532
| 27> C 	 -111.926 	 54.1166 	 -92.256
| 28> H 	 -112.258 	 53.2306 	 -89.074
| 29> C 	 -113.736 	 52.4985 	 -91.356
| 30> H 	 -114.249 	 52.3907 	 -92.348
| 31> H 	 -114.476 	 52.9754 	 -90.696
| 32> C 	 -113.31 	 51.0605 	 -90.8598
| 33> H 	 -113.176 	 51.1247 	 -89.7763
| 34> H 	 -112.392 	 50.7602 	 -91.3646
| 35> C 	 -114.498 	 50.1618 	 -91.2457
| 36> H 	 -115.459 	 50.4288 	 -90.7178
| 37> H 	 -114.233 	 49.1336 	 -90.956
| 38> H 	 -114.7 	 50.027 	 -92.2906
| 39> H 	 -112.243 	 53.4407 	 -97.291
| 40> H 	 -110.115 	 54.523 	 -89.2553
| 41> *
| 42>
| 43>                          ****END OF INPUT****

CARTESIAN COORDINATES (ANGSTROEM)
---------------------------------
  S    -112.010000   52.717400  -94.756700
  C    -112.225000   53.754500  -96.264500
  C    -112.297000   55.088700  -95.898200
  C    -112.332000   55.283800  -94.499800
  C    -112.161000   54.136500  -93.687300
  H    -112.484000   56.216700  -93.965100
  C    -112.411000   56.234100  -96.852700
  H    -112.326000   55.744500  -97.862200
  H    -111.562000   56.865800  -96.721400
  C    -113.648000   56.997100  -96.718300
  H    -114.499000   56.314400  -96.655200
  H    -113.594000   57.496800  -95.778200
  C    -113.836000   58.000700  -97.919200
  H    -114.383000   57.640100  -98.790700
  H    -114.488000   58.843500  -97.654800
  H    -112.844000   58.271700  -98.248500
  S    -110.327000   54.692600  -91.742000
  C    -110.618000   54.209400  -90.105600
  C    -111.863000   53.545100  -90.004400
  C    -112.601000   53.432800  -91.253200
  C    -111.926000   54.116600  -92.256000
  H    -112.258000   53.230600  -89.074000
  C    -113.736000   52.498500  -91.356000
  H    -114.249000   52.390700  -92.348000
  H    -114.476000   52.975400  -90.696000
  C    -113.310000   51.060500  -90.859800
  H    -113.176000   51.124700  -89.776300
  H    -112.392000   50.760200  -91.364600
  C    -114.498000   50.161800  -91.245700
  H    -115.459000   50.428800  -90.717800
  H    -114.233000   49.133600  -90.956000
  H    -114.700000   50.027000  -92.290600
  H    -112.243000   53.440700  -97.291000
  H    -110.115000   54.523000  -89.255300

 Total Charge           Charge          ....    0
 Multiplicity           Mult            ....    1
 Number of Electrons    NEL             ....  134
 Basis Dimension        Dim             ....  322

ORBITAL ENERGIES
----------------

  NO   OCC          E(Eh)            E(eV)
   0   2.0000     -88.965741     -2420.8809
   1   2.0000     -88.965332     -2420.8698
   2   2.0000     -10.331333      -281.1299
   3   2.0000     -10.324361      -280.9401
   4   2.0000     -10.319792      -280.8158
   5   2.0000     -10.316819      -280.7349
   6   2.0000     -10.304398      -280.3969
   7   2.0000     -10.297928      -280.2209
   8   2.0000     -10.295362      -280.1510
   9   2.0000     -10.293954      -280.1127
  10   2.0000     -10.293585      -280.1027
  11   2.0000     -10.292937      -280.0851
  12   2.0000     -10.286091      -279.8988
  13   2.0000     -10.281752      -279.7807
  14   2.0000     -10.280405      -279.7441
  15   2.0000     -10.280218      -279.7390
  16   2.0000      -8.080183      -219.8730
  17   2.0000      -8.077787      -219.8078
  18   2.0000      -6.038792      -164.3239
  19   2.0000      -6.036519      -164.2620
  20   2.0000      -6.034671      -164.2118
  21   2.0000      -6.032603      -164.1555
  22   2.0000      -6.030901      -164.1092
  23   2.0000      -6.028455      -164.0426
  24   2.0000      -0.998203       -27.1625
  25   2.0000      -0.974824       -26.5263
  26   2.0000      -0.919423       -25.0188
  27   2.0000      -0.911161       -24.7940
  28   2.0000      -0.865910       -23.5626
  29   2.0000      -0.849899       -23.1269
  30   2.0000      -0.837445       -22.7880
  31   2.0000      -0.807174       -21.9643
  32   2.0000      -0.780592       -21.2410
  33   2.0000      -0.770157       -20.9570
  34   2.0000      -0.710813       -19.3422
  35   2.0000      -0.704396       -19.1676
  36   2.0000      -0.696209       -18.9448
  37   2.0000      -0.665691       -18.1144
  38   2.0000      -0.634181       -17.2570
  39   2.0000      -0.613290       -16.6885
  40   2.0000      -0.597459       -16.2577
  41   2.0000      -0.579927       -15.7806
  42   2.0000      -0.567148       -15.4329
  43   2.0000      -0.558641       -15.2014
  44   2.0000      -0.529303       -14.4031
  45   2.0000      -0.522563       -14.2197
  46   2.0000      -0.518624       -14.1125
  47   2.0000      -0.508038       -13.8244
  48   2.0000      -0.506884       -13.7930
  49   2.0000      -0.498109       -13.5542
  50   2.0000      -0.488796       -13.3008
  51   2.0000      -0.474194       -12.9035
  52   2.0000      -0.466052       -12.6819
  53   2.0000      -0.465033       -12.6542
  54   2.0000      -0.456065       -12.4101
  55   2.0000      -0.446966       -12.1626
  56   2.0000      -0.443461       -12.0672
  57   2.0000      -0.438195       -11.9239
  58   2.0000      -0.435598       -11.8532
  59   2.0000      -0.429625       -11.6907
  60   2.0000      -0.421724       -11.4757
  61   2.0000      -0.411164       -11.1884
  62   2.0000      -0.409052       -11.1309
  63   2.0000      -0.331833        -9.0296
  64   2.0000      -0.325439        -8.8556
  65   2.0000      -0.323278        -8.7968
  66   2.0000      -0.302224        -8.2239
  67   0.0000       0.031194         0.8488
  68   0.0000       0.058424         1.5898
  69   0.0000       0.103632         2.8200
  70   0.0000       0.116343         3.1658
  71   0.0000       0.120444         3.2774

MULLIKEN ATOMIC CHARGES
-----------------------
   0 S :    0.090760
   1 C :   -0.120632
   2 C :   -0.085769
   3 C :    0.010613
   4 C :   -0.154145
   5 H :    0.015672
   6 C :    0.087316
   7 H :    0.014246
   8 H :    0.030752
   9 C :   -0.071673
  10 H :    0.031362
  11 H :    0.026675
  12 C :   -0.039921
  13 H :    0.031836
  14 H :    0.033787
  15 H :    0.027926
  16 S :    0.121020
  17 C :   -0.059750
  18 C :   -0.049147
  19 C :   -0.002555
  20 C :   -0.183535
  21 H :    0.006451
  22 C :    0.019414
  23 H :    0.039746
  24 H :    0.036112
  25 C :   -0.073166
  26 H :    0.038878
  27 H :    0.049035
  28 C :   -0.054544
  29 H :    0.039934
  30 H :    0.024820
  31 H :    0.036711
  32 H :    0.041971
  33 H :    0.039802
Sum of atomic charges:    0.0000000

LOEWDIN ATOMIC CHARGES
----------------------
   0 S :    0.355171
   1 C :   -0.171076
   2 C :   -0.062664
   3 C :   -0.065029
   4 C :   -0.186813
   5 H :    0.030470
   6 C :   -0.032863
   7 H :    0.031671
   8 H :    0.029711
   9 C :   -0.038039
  10 H :    0.026953
  11 H :    0.021054
  12 C :   -0.064697
  13 H :    0.027185
  14 H :    0.029065
  15 H :    0.022594
  16 S :    0.412082
  17 C :   -0.181069
  18 C :   -0.062318
  19 C :   -0.048062
  20 C :   -0.207123
  21 H :    0.019609
  22 C :   -0.040775
  23 H :    0.034350
  24 H :    0.037226
  25 C :   -0.026642
  26 H :    0.025991
  27 H :    0.030005
  28 C :   -0.072299
  29 H :    0.032458
  30 H :    0.025003
  31 H :    0.023926
  32 H :    0.026976
  33 H :    0.017969

  Mayer bond orders larger than 0.100000
B(  0-S ,  1-C ) :   1.1165 B(  0-S ,  4-C ) :   1.1275 B(  1-C ,  2-C ) :   1.6215
B(  1-C ,  4-C ) :   0.1042 B(  1-C , 32-H ) :   0.9665 B(  2-C ,  3-C ) :   1.2214
B(  2-C ,  6-C ) :   1.0302 B(  3-C ,  4-C ) :   1.5785 B(  3-C ,  5-H ) :   0.9936
B(  4-C , 20-C ) :   1.0524 B(  6-C ,  7-H ) :   0.9394 B(  6-C ,  8-H ) :   0.9218
B(  6-C ,  9-C ) :   1.0750 B(  9-C , 10-H ) :   0.9581 B(  9-C , 11-H ) :   0.9515
B(  9-C , 12-C ) :   1.0696 B( 12-C , 13-H ) :   0.9764 B( 12-C , 14-H ) :   0.9754
B( 12-C , 15-H ) :   0.9761 B( 16-S , 17-C ) :   1.1597 B( 16-S , 20-C ) :   1.1326
B( 17-C , 18-C ) :   1.6048 B( 17-C , 33-H ) :   0.9734 B( 18-C , 19-C ) :   1.2229
B( 18-C , 21-H ) :   0.9888 B( 19-C , 20-C ) :   1.5871 B( 19-C , 22-C ) :   1.0537
B( 22-C , 23-H ) :   0.9478 B( 22-C , 24-H ) :   0.9196 B( 22-C , 25-C ) :   1.0485
B( 25-C , 26-H ) :   0.9478 B( 25-C , 27-H ) :   0.9601 B( 25-C , 28-C ) :   1.0889
B( 28-C , 29-H ) :   0.9718 B( 28-C , 30-H ) :   0.9712 B( 28-C , 31-H ) :   0.9747

Dispersion correction           -0.013895011
FINAL SINGLE POINT ENERGY     -1339.866293807692

DIPOLE MOMENT
-------------
                                X             Y             Z
Electronic contribution:     16.06674      -2.11123       6.85621
Nuclear contribution   :    -16.43219       2.23809      -6.76917
                        -----------------------------------------
Total Dipole Moment    :     -0.36545       0.12686       0.08704
                        -----------------------------------------
Magnitude (a.u.)       :      0.39651
Magnitude (Debye)      :      1.00785

Rotational constants in cm-1:     0.021455     0.007278     0.006268
Rotational constants in MHz :   643.192629   218.191115   187.904257

                             ****ORCA TERMINATED NORMALLY****
TOTAL RUN TIME: 0 days 0 hours 0 minutes 21 seconds 171 msec
