                         Program Version 4.2.1 -  RELEASE  -
|  1> ! wB97X-D3 SP def2-SVP
|  2> %pal
|  3> nprocs 24
|  4> end
|  5>
|  6> * xyz 0 1
|  7> S 	 -82.6799 	 -43.0652 	 -93.7631
|  8> C 	 -82.0426 	 -41.4876 	 -93.9654
|  9> C 	 -82.9879 	 -40.5054 	 -94.0163
| 10> C 	 -84.2865 	 -41.0762 	 -93.8372
| 11> C 	 -84.2937 	 -42.4099 	 -93.5087
| 12> H 	 -85.1943 	 -40.5848 	 -93.8677
| 13> C 	 -82.6687 	 -39.038 	 -94.1155
| 14> H 	 -81.6644 	 -38.9269 	 -93.7206
| 15> H 	 -83.4453 	 -38.495 	 -93.5006
| 16> C 	 -82.7108 	 -38.4362 	 -95.5831
| 17> H 	 -82.1546 	 -39.0617 	 -96.2694
| 18> H 	 -83.6963 	 -38.4892 	 -96.0455
| 19> C 	 -82.3563 	 -36.9427 	 -95.7978
| 20> H 	 -81.2889 	 -36.813 	 -95.5847
| 21> H 	 -82.5445 	 -36.5881 	 -96.8475
| 22> H 	 -82.9197 	 -36.3646 	 -95.1208
| 23> S 	 -86.4765 	 -43.9781 	 -94.3976
| 24> C 	 -87.5807 	 -44.6617 	 -93.229
| 25> C 	 -87.2268 	 -44.3073 	 -91.9546
| 26> C 	 -86.0948 	 -43.4128 	 -91.9668
| 27> C 	 -85.4706 	 -43.2437 	 -93.1877
| 28> H 	 -87.9314 	 -44.6616 	 -91.2097
| 29> C 	 -85.6112 	 -42.8433 	 -90.6415
| 30> H 	 -86.4528 	 -42.3862 	 -90.066
| 31> H 	 -85.0831 	 -41.9676 	 -90.8338
| 32> C 	 -84.7 	 -43.7019 	 -89.744
| 33> H 	 -84.2413 	 -43.1626 	 -88.961
| 34> H 	 -83.9038 	 -44.2017 	 -90.3094
| 35> C 	 -85.3164 	 -44.8971 	 -89.0381
| 36> H 	 -84.5368 	 -45.47 	 -88.4714
| 37> H 	 -85.7934 	 -45.6005 	 -89.7766
| 38> H 	 -86.0052 	 -44.622 	 -88.3104
| 39> H 	 -80.9772 	 -41.2543 	 -93.9942
| 40> H 	 -88.3487 	 -45.3977 	 -93.5561
| 41> *
| 42>
| 43>                          ****END OF INPUT****

CARTESIAN COORDINATES (ANGSTROEM)
---------------------------------
  S    -82.679900  -43.065200  -93.763100
  C    -82.042600  -41.487600  -93.965400
  C    -82.987900  -40.505400  -94.016300
  C    -84.286500  -41.076200  -93.837200
  C    -84.293700  -42.409900  -93.508700
  H    -85.194300  -40.584800  -93.867700
  C    -82.668700  -39.038000  -94.115500
  H    -81.664400  -38.926900  -93.720600
  H    -83.445300  -38.495000  -93.500600
  C    -82.710800  -38.436200  -95.583100
  H    -82.154600  -39.061700  -96.269400
  H    -83.696300  -38.489200  -96.045500
  C    -82.356300  -36.942700  -95.797800
  H    -81.288900  -36.813000  -95.584700
  H    -82.544500  -36.588100  -96.847500
  H    -82.919700  -36.364600  -95.120800
  S    -86.476500  -43.978100  -94.397600
  C    -87.580700  -44.661700  -93.229000
  C    -87.226800  -44.307300  -91.954600
  C    -86.094800  -43.412800  -91.966800
  C    -85.470600  -43.243700  -93.187700
  H    -87.931400  -44.661600  -91.209700
  C    -85.611200  -42.843300  -90.641500
  H    -86.452800  -42.386200  -90.066000
  H    -85.083100  -41.967600  -90.833800
  C    -84.700000  -43.701900  -89.744000
  H    -84.241300  -43.162600  -88.961000
  H    -83.903800  -44.201700  -90.309400
  C    -85.316400  -44.897100  -89.038100
  H    -84.536800  -45.470000  -88.471400
  H    -85.793400  -45.600500  -89.776600
  H    -86.005200  -44.622000  -88.310400
  H    -80.977200  -41.254300  -93.994200
  H    -88.348700  -45.397700  -93.556100

 Total Charge           Charge          ....    0
 Multiplicity           Mult            ....    1
 Number of Electrons    NEL             ....  134
 Basis Dimension        Dim             ....  322

ORBITAL ENERGIES
----------------

  NO   OCC          E(Eh)            E(eV)
   0   2.0000     -88.966143     -2420.8918
   1   2.0000     -88.961760     -2420.7725
   2   2.0000     -10.329653      -281.0842
   3   2.0000     -10.326871      -281.0085
   4   2.0000     -10.319638      -280.8116
   5   2.0000     -10.311402      -280.5875
   6   2.0000     -10.306495      -280.4540
   7   2.0000     -10.303419      -280.3703
   8   2.0000     -10.299010      -280.2503
   9   2.0000     -10.294748      -280.1343
  10   2.0000     -10.290558      -280.0203
  11   2.0000     -10.287854      -279.9467
  12   2.0000     -10.284098      -279.8445
  13   2.0000     -10.280606      -279.7495
  14   2.0000     -10.277073      -279.6534
  15   2.0000     -10.269559      -279.4489
  16   2.0000      -8.081378      -219.9055
  17   2.0000      -8.077083      -219.7886
  18   2.0000      -6.039814      -164.3517
  19   2.0000      -6.035868      -164.2443
  20   2.0000      -6.035512      -164.2346
  21   2.0000      -6.032129      -164.1426
  22   2.0000      -6.031402      -164.1228
  23   2.0000      -6.027987      -164.0299
  24   2.0000      -1.009428       -27.4679
  25   2.0000      -0.990178       -26.9441
  26   2.0000      -0.905512       -24.6402
  27   2.0000      -0.903528       -24.5862
  28   2.0000      -0.871122       -23.7044
  29   2.0000      -0.852107       -23.1870
  30   2.0000      -0.845972       -23.0201
  31   2.0000      -0.821900       -22.3650
  32   2.0000      -0.783491       -21.3199
  33   2.0000      -0.771097       -20.9826
  34   2.0000      -0.706349       -19.2207
  35   2.0000      -0.697895       -18.9907
  36   2.0000      -0.687755       -18.7148
  37   2.0000      -0.656688       -17.8694
  38   2.0000      -0.649855       -17.6834
  39   2.0000      -0.621680       -16.9168
  40   2.0000      -0.596446       -16.2301
  41   2.0000      -0.573819       -15.6144
  42   2.0000      -0.558477       -15.1969
  43   2.0000      -0.547698       -14.9036
  44   2.0000      -0.540164       -14.6986
  45   2.0000      -0.524347       -14.2682
  46   2.0000      -0.517197       -14.0736
  47   2.0000      -0.513264       -13.9666
  48   2.0000      -0.504008       -13.7148
  49   2.0000      -0.501657       -13.6508
  50   2.0000      -0.491658       -13.3787
  51   2.0000      -0.473692       -12.8898
  52   2.0000      -0.471895       -12.8409
  53   2.0000      -0.470599       -12.8056
  54   2.0000      -0.462367       -12.5816
  55   2.0000      -0.450799       -12.2669
  56   2.0000      -0.436656       -11.8820
  57   2.0000      -0.434371       -11.8198
  58   2.0000      -0.427309       -11.6277
  59   2.0000      -0.426759       -11.6127
  60   2.0000      -0.416181       -11.3249
  61   2.0000      -0.414379       -11.2758
  62   2.0000      -0.408381       -11.1126
  63   2.0000      -0.337133        -9.1738
  64   2.0000      -0.330162        -8.9842
  65   2.0000      -0.320786        -8.7290
  66   2.0000      -0.316962        -8.6250
  67   0.0000       0.049524         1.3476
  68   0.0000       0.050750         1.3810
  69   0.0000       0.118696         3.2299
  70   0.0000       0.123369         3.3570
  71   0.0000       0.127494         3.4693

MULLIKEN ATOMIC CHARGES
-----------------------
   0 S :    0.123222
   1 C :   -0.117765
   2 C :   -0.083773
   3 C :    0.079237
   4 C :   -0.193054
   5 H :   -0.018273
   6 C :    0.077779
   7 H :    0.024020
   8 H :    0.038412
   9 C :   -0.091989
  10 H :    0.020108
  11 H :    0.021090
  12 C :   -0.039050
  13 H :    0.029551
  14 H :    0.046375
  15 H :    0.022108
  16 S :    0.103428
  17 C :   -0.129206
  18 C :   -0.015893
  19 C :   -0.054320
  20 C :   -0.143314
  21 H :    0.031367
  22 C :    0.111577
  23 H :    0.022468
  24 H :   -0.001494
  25 C :   -0.038879
  26 H :    0.017235
  27 H :    0.026660
  28 C :   -0.072993
  29 H :    0.032257
  30 H :    0.037930
  31 H :    0.009836
  32 H :    0.047514
  33 H :    0.077830
Sum of atomic charges:   -0.0000000

LOEWDIN ATOMIC CHARGES
----------------------
   0 S :    0.417079
   1 C :   -0.200607
   2 C :   -0.070638
   3 C :   -0.041848
   4 C :   -0.192775
   5 H :    0.019965
   6 C :   -0.026458
   7 H :    0.030538
   8 H :    0.038161
   9 C :   -0.047237
  10 H :    0.019548
  11 H :    0.023262
  12 C :   -0.063156
  13 H :    0.022567
  14 H :    0.035409
  15 H :    0.016503
  16 S :    0.407705
  17 C :   -0.185068
  18 C :   -0.078683
  19 C :   -0.049092
  20 C :   -0.214204
  21 H :    0.039126
  22 C :   -0.034601
  23 H :    0.035743
  24 H :    0.022300
  25 C :   -0.036408
  26 H :    0.020006
  27 H :    0.028853
  28 C :   -0.069225
  29 H :    0.030539
  30 H :    0.027196
  31 H :    0.007601
  32 H :    0.029982
  33 H :    0.037915

  Mayer bond orders larger than 0.100000
B(  0-S ,  1-C ) :   1.1560 B(  0-S ,  4-C ) :   1.1428 B(  1-C ,  2-C ) :   1.6195
B(  1-C , 32-H ) :   0.9605 B(  2-C ,  3-C ) :   1.2268 B(  2-C ,  6-C ) :   1.0292
B(  3-C ,  4-C ) :   1.6039 B(  3-C ,  5-H ) :   1.0097 B(  4-C , 20-C ) :   1.0074
B(  6-C ,  7-H ) :   0.9402 B(  6-C ,  8-H ) :   0.9393 B(  6-C ,  9-C ) :   1.0488
B(  9-C , 10-H ) :   0.9580 B(  9-C , 11-H ) :   0.9584 B(  9-C , 12-C ) :   1.0791
B( 12-C , 13-H ) :   0.9776 B( 12-C , 14-H ) :   0.9751 B( 12-C , 15-H ) :   0.9750
B( 16-S , 17-C ) :   1.1720 B( 16-S , 20-C ) :   1.1400 B( 17-C , 18-C ) :   1.6093
B( 17-C , 33-H ) :   0.9595 B( 18-C , 19-C ) :   1.2183 B( 18-C , 21-H ) :   0.9952
B( 19-C , 20-C ) :   1.6130 B( 19-C , 22-C ) :   1.0502 B( 22-C , 23-H ) :   0.9355
B( 22-C , 24-H ) :   0.9140 B( 22-C , 25-C ) :   1.0723 B( 25-C , 26-H ) :   0.9540
B( 25-C , 27-H ) :   0.9546 B( 25-C , 28-C ) :   1.0883 B( 28-C , 29-H ) :   0.9728
B( 28-C , 30-H ) :   0.9715 B( 28-C , 31-H ) :   0.9751

Dispersion correction           -0.014133317
FINAL SINGLE POINT ENERGY     -1339.875600315867

DIPOLE MOMENT
-------------
                                X             Y             Z
Electronic contribution:     -4.88509     -15.76480      -9.89074
Nuclear contribution   :      4.81561      16.21259      10.15212
                        -----------------------------------------
Total Dipole Moment    :     -0.06948       0.44779       0.26139
                        -----------------------------------------
Magnitude (a.u.)       :      0.52313
Magnitude (Debye)      :      1.32970

Rotational constants in cm-1:     0.022521     0.006930     0.006243
Rotational constants in MHz :   675.177479   207.746809   187.166634

                             ****ORCA TERMINATED NORMALLY****
TOTAL RUN TIME: 0 days 0 hours 0 minutes 21 seconds 95 msec
