                         Program Version 4.2.1 -  RELEASE  -
|  1> ! wB97X-D3 SP def2-SVP
|  2> %pal
|  3> nprocs 24
|  4> end
|  5>
|  6> * xyz 0 1
|  7> S 	 -102.873 	 13.2499 	 -7.10428
|  8> C 	 -103.145 	 13.6265 	 -5.44283
|  9> C 	 -103.746 	 12.6387 	 -4.71028
| 10> C 	 -103.989 	 11.4588 	 -5.49248
| 11> C 	 -103.618 	 11.664 	 -6.85372
| 12> H 	 -104.359 	 10.5419 	 -5.101
| 13> C 	 -103.978 	 12.7277 	 -3.2257
| 14> H 	 -103.395 	 13.5511 	 -2.77899
| 15> H 	 -103.541 	 11.7954 	 -2.8572
| 16> C 	 -105.491 	 12.6847 	 -2.86316
| 17> H 	 -105.906 	 11.723 	 -3.24857
| 18> H 	 -105.503 	 12.6864 	 -1.80835
| 19> C 	 -106.387 	 13.781 	 -3.51876
| 20> H 	 -107.435 	 13.6876 	 -3.24238
| 21> H 	 -106.064 	 14.7478 	 -3.13983
| 22> H 	 -106.325 	 13.8275 	 -4.52105
| 23> S 	 -102.317 	 10.218 	 -8.67472
| 24> C 	 -103.265 	 9.27379 	 -9.81413
| 25> C 	 -104.641 	 9.19336 	 -9.57183
| 26> C 	 -104.935 	 10.0533 	 -8.45394
| 27> C 	 -103.8 	 10.6228 	 -7.86272
| 28> H 	 -105.289 	 8.60905 	 -10.2094
| 29> C 	 -106.334 	 10.156 	 -7.86422
| 30> H 	 -106.284 	 10.6052 	 -6.91937
| 31> H 	 -106.766 	 9.16299 	 -7.6897
| 32> C 	 -107.331 	 10.8758 	 -8.82502
| 33> H 	 -107.408 	 10.5158 	 -9.85098
| 34> H 	 -106.951 	 11.9305 	 -8.80385
| 35> C 	 -108.759 	 11.0548 	 -8.23323
| 36> H 	 -108.912 	 11.8753 	 -7.51711
| 37> H 	 -109.156 	 10.1618 	 -7.73917
| 38> H 	 -109.392 	 11.3611 	 -9.00333
| 39> H 	 -102.862 	 14.5739 	 -4.92907
| 40> H 	 -102.831 	 8.63928 	 -10.5802
| 41> *
| 42>
| 43>                          ****END OF INPUT****

CARTESIAN COORDINATES (ANGSTROEM)
---------------------------------
  S    -102.873000   13.249900   -7.104280
  C    -103.145000   13.626500   -5.442830
  C    -103.746000   12.638700   -4.710280
  C    -103.989000   11.458800   -5.492480
  C    -103.618000   11.664000   -6.853720
  H    -104.359000   10.541900   -5.101000
  C    -103.978000   12.727700   -3.225700
  H    -103.395000   13.551100   -2.778990
  H    -103.541000   11.795400   -2.857200
  C    -105.491000   12.684700   -2.863160
  H    -105.906000   11.723000   -3.248570
  H    -105.503000   12.686400   -1.808350
  C    -106.387000   13.781000   -3.518760
  H    -107.435000   13.687600   -3.242380
  H    -106.064000   14.747800   -3.139830
  H    -106.325000   13.827500   -4.521050
  S    -102.317000   10.218000   -8.674720
  C    -103.265000    9.273790   -9.814130
  C    -104.641000    9.193360   -9.571830
  C    -104.935000   10.053300   -8.453940
  C    -103.800000   10.622800   -7.862720
  H    -105.289000    8.609050  -10.209400
  C    -106.334000   10.156000   -7.864220
  H    -106.284000   10.605200   -6.919370
  H    -106.766000    9.162990   -7.689700
  C    -107.331000   10.875800   -8.825020
  H    -107.408000   10.515800   -9.850980
  H    -106.951000   11.930500   -8.803850
  C    -108.759000   11.054800   -8.233230
  H    -108.912000   11.875300   -7.517110
  H    -109.156000   10.161800   -7.739170
  H    -109.392000   11.361100   -9.003330
  H    -102.862000   14.573900   -4.929070
  H    -102.831000    8.639280  -10.580200

 Total Charge           Charge          ....    0
 Multiplicity           Mult            ....    1
 Number of Electrons    NEL             ....  134
 Basis Dimension        Dim             ....  322

ORBITAL ENERGIES
----------------

  NO   OCC          E(Eh)            E(eV)
   0   2.0000     -88.971456     -2421.0364
   1   2.0000     -88.967037     -2420.9162
   2   2.0000     -10.332781      -281.1693
   3   2.0000     -10.323055      -280.9046
   4   2.0000     -10.318088      -280.7694
   5   2.0000     -10.310105      -280.5522
   6   2.0000     -10.306889      -280.4647
   7   2.0000     -10.298423      -280.2343
   8   2.0000     -10.296085      -280.1707
   9   2.0000     -10.295358      -280.1509
  10   2.0000     -10.294083      -280.1162
  11   2.0000     -10.289850      -280.0011
  12   2.0000     -10.289322      -279.9867
  13   2.0000     -10.286848      -279.9194
  14   2.0000     -10.272337      -279.5245
  15   2.0000     -10.267848      -279.4023
  16   2.0000      -8.085808      -220.0260
  17   2.0000      -8.081934      -219.9206
  18   2.0000      -6.044329      -164.4746
  19   2.0000      -6.040417      -164.3681
  20   2.0000      -6.040315      -164.3653
  21   2.0000      -6.036538      -164.2626
  22   2.0000      -6.036478      -164.2609
  23   2.0000      -6.032771      -164.1600
  24   2.0000      -1.003532       -27.3075
  25   2.0000      -0.981148       -26.6984
  26   2.0000      -0.909293       -24.7431
  27   2.0000      -0.902127       -24.5481
  28   2.0000      -0.866112       -23.5681
  29   2.0000      -0.849594       -23.1186
  30   2.0000      -0.846039       -23.0219
  31   2.0000      -0.811140       -22.0722
  32   2.0000      -0.785408       -21.3720
  33   2.0000      -0.770431       -20.9645
  34   2.0000      -0.708040       -19.2667
  35   2.0000      -0.696006       -18.9393
  36   2.0000      -0.691320       -18.8118
  37   2.0000      -0.661288       -17.9946
  38   2.0000      -0.636103       -17.3092
  39   2.0000      -0.618462       -16.8292
  40   2.0000      -0.592632       -16.1263
  41   2.0000      -0.567195       -15.4342
  42   2.0000      -0.559151       -15.2153
  43   2.0000      -0.548026       -14.9126
  44   2.0000      -0.543036       -14.7768
  45   2.0000      -0.523817       -14.2538
  46   2.0000      -0.516445       -14.0532
  47   2.0000      -0.508257       -13.8304
  48   2.0000      -0.499028       -13.5792
  49   2.0000      -0.491076       -13.3629
  50   2.0000      -0.487758       -13.2726
  51   2.0000      -0.480363       -13.0713
  52   2.0000      -0.469321       -12.7709
  53   2.0000      -0.466913       -12.7054
  54   2.0000      -0.462183       -12.5766
  55   2.0000      -0.450540       -12.2598
  56   2.0000      -0.448531       -12.2052
  57   2.0000      -0.439392       -11.9565
  58   2.0000      -0.437744       -11.9116
  59   2.0000      -0.426547       -11.6069
  60   2.0000      -0.421257       -11.4630
  61   2.0000      -0.415354       -11.3024
  62   2.0000      -0.407709       -11.0943
  63   2.0000      -0.340855        -9.2751
  64   2.0000      -0.330300        -8.9879
  65   2.0000      -0.329128        -8.9560
  66   2.0000      -0.291075        -7.9205
  67   0.0000       0.033726         0.9177
  68   0.0000       0.065529         1.7831
  69   0.0000       0.107116         2.9148
  70   0.0000       0.121834         3.3153
  71   0.0000       0.127842         3.4788

MULLIKEN ATOMIC CHARGES
-----------------------
   0 S :    0.137273
   1 C :   -0.142387
   2 C :   -0.091001
   3 C :    0.031025
   4 C :   -0.148430
   5 H :    0.010597
   6 C :    0.064391
   7 H :    0.026416
   8 H :    0.031317
   9 C :   -0.073434
  10 H :    0.028239
  11 H :    0.026317
  12 C :   -0.007415
  13 H :    0.032175
  14 H :    0.014259
  15 H :    0.020393
  16 S :    0.110959
  17 C :   -0.091515
  18 C :   -0.032034
  19 C :   -0.018863
  20 C :   -0.190358
  21 H :    0.025792
  22 C :    0.110417
  23 H :   -0.001483
  24 H :    0.024414
  25 C :   -0.124164
  26 H :    0.042750
  27 H :    0.042189
  28 C :   -0.032198
  29 H :    0.028205
  30 H :    0.025593
  31 H :    0.016703
  32 H :    0.052564
  33 H :    0.051294
Sum of atomic charges:    0.0000000

LOEWDIN ATOMIC CHARGES
----------------------
   0 S :    0.412093
   1 C :   -0.218468
   2 C :   -0.068558
   3 C :   -0.053202
   4 C :   -0.196679
   5 H :    0.025782
   6 C :   -0.030843
   7 H :    0.029528
   8 H :    0.035816
   9 C :   -0.031673
  10 H :    0.025441
  11 H :    0.017691
  12 C :   -0.054194
  13 H :    0.028779
  14 H :    0.023163
  15 H :    0.009698
  16 S :    0.410745
  17 C :   -0.178010
  18 C :   -0.065273
  19 C :   -0.044823
  20 C :   -0.209728
  21 H :    0.035154
  22 C :   -0.026342
  23 H :    0.020332
  24 H :    0.029249
  25 C :   -0.041454
  26 H :    0.024087
  27 H :    0.035336
  28 C :   -0.070122
  29 H :    0.027208
  30 H :    0.021164
  31 H :    0.019106
  32 H :    0.035219
  33 H :    0.023779

  Mayer bond orders larger than 0.100000
B(  0-S ,  1-C ) :   1.1301 B(  0-S ,  4-C ) :   1.1514 B(  1-C ,  2-C ) :   1.6242
B(  1-C , 32-H ) :   0.9553 B(  2-C ,  3-C ) :   1.2392 B(  2-C ,  6-C ) :   1.0218
B(  3-C ,  4-C ) :   1.5506 B(  3-C ,  5-H ) :   0.9940 B(  4-C , 20-C ) :   1.0413
B(  6-C ,  7-H ) :   0.9470 B(  6-C ,  8-H ) :   0.9374 B(  6-C ,  9-C ) :   1.0614
B(  9-C , 10-H ) :   0.9578 B(  9-C , 11-H ) :   0.9605 B(  9-C , 12-C ) :   1.0706
B( 12-C , 13-H ) :   0.9750 B( 12-C , 14-H ) :   0.9747 B( 12-C , 15-H ) :   0.9747
B( 16-S , 17-C ) :   1.1612 B( 16-S , 20-C ) :   1.1383 B( 17-C , 18-C ) :   1.6245
B( 17-C , 33-H ) :   0.9626 B( 18-C , 19-C ) :   1.2178 B( 18-C , 21-H ) :   0.9912
B( 19-C , 20-C ) :   1.6032 B( 19-C , 22-C ) :   1.0479 B( 22-C , 23-H ) :   0.9337
B( 22-C , 24-H ) :   0.9367 B( 22-C , 25-C ) :   1.0494 B( 25-C , 26-H ) :   0.9667
B( 25-C , 27-H ) :   0.9565 B( 25-C , 28-C ) :   1.0777 B( 28-C , 29-H ) :   0.9761
B( 28-C , 30-H ) :   0.9747 B( 28-C , 31-H ) :   0.9729

Dispersion correction           -0.014401501
FINAL SINGLE POINT ENERGY     -1339.871199292476

DIPOLE MOMENT
-------------
                                X             Y             Z
Electronic contribution:     26.51714      -2.68503     -13.31573
Nuclear contribution   :    -26.96948       2.54537      13.61177
                        -----------------------------------------
Total Dipole Moment    :     -0.45235      -0.13966       0.29605
                        -----------------------------------------
Magnitude (a.u.)       :      0.55836
Magnitude (Debye)      :      1.41924

Rotational constants in cm-1:     0.016871     0.009743     0.007017
Rotational constants in MHz :   505.786254   292.075595   210.353303

                             ****ORCA TERMINATED NORMALLY****
TOTAL RUN TIME: 0 days 0 hours 0 minutes 21 seconds 835 msec
