                         Program Version 4.2.1 -  RELEASE  -
|  1> ! wB97X-D3 SP def2-SVP
|  2> %pal
|  3> nprocs 24
|  4> end
|  5>
|  6> * xyz 0 1
|  7> S 	 -42.1401 	 -11.1041 	 15.2586
|  8> C 	 -42.1638 	 -11.7922 	 16.8318
|  9> C 	 -42.0328 	 -10.8635 	 17.7666
| 10> C 	 -41.7855 	 -9.50727 	 17.2756
| 11> C 	 -41.7713 	 -9.46522 	 15.9048
| 12> H 	 -41.8809 	 -8.61631 	 17.8454
| 13> C 	 -42.0697 	 -11.169 	 19.1859
| 14> H 	 -41.1109 	 -11.5907 	 19.5267
| 15> H 	 -42.9031 	 -11.7841 	 19.3985
| 16> C 	 -42.3774 	 -10.005 	 20.1347
| 17> H 	 -41.7384 	 -9.22788 	 19.964
| 18> H 	 -43.352 	 -9.56159 	 19.9462
| 19> C 	 -42.2717 	 -10.4712 	 21.6294
| 20> H 	 -42.5916 	 -9.60144 	 22.2337
| 21> H 	 -42.9962 	 -11.2371 	 21.9326
| 22> H 	 -41.2913 	 -10.8297 	 21.9038
| 23> S 	 -40.5938 	 -8.62828 	 13.6415
| 24> C 	 -40.3891 	 -7.00012 	 13.2293
| 25> C 	 -40.9984 	 -6.18349 	 14.1479
| 26> C 	 -41.6352 	 -6.93073 	 15.127
| 27> C 	 -41.5022 	 -8.33509 	 15.0321
| 28> H 	 -40.9624 	 -5.07531 	 14.1117
| 29> C 	 -42.391 	 -6.30488 	 16.3065
| 30> H 	 -42.6695 	 -7.0968 	 16.8996
| 31> H 	 -43.3173 	 -5.85819 	 15.8833
| 32> C 	 -41.746 	 -5.26923 	 17.2644
| 33> H 	 -42.5352 	 -4.85223 	 17.8568
| 34> H 	 -41.4125 	 -4.41744 	 16.6885
| 35> C 	 -40.6514 	 -5.79319 	 18.1726
| 36> H 	 -40.2321 	 -4.91469 	 18.6205
| 37> H 	 -40.0518 	 -6.41802 	 17.6035
| 38> H 	 -41.009 	 -6.42816 	 18.9
| 39> H 	 -42.379 	 -12.8569 	 17.047
| 40> H 	 -39.714 	 -6.57895 	 12.4241
| 41> *
| 42>
| 43>                          ****END OF INPUT****

CARTESIAN COORDINATES (ANGSTROEM)
---------------------------------
  S    -42.140100  -11.104100   15.258600
  C    -42.163800  -11.792200   16.831800
  C    -42.032800  -10.863500   17.766600
  C    -41.785500   -9.507270   17.275600
  C    -41.771300   -9.465220   15.904800
  H    -41.880900   -8.616310   17.845400
  C    -42.069700  -11.169000   19.185900
  H    -41.110900  -11.590700   19.526700
  H    -42.903100  -11.784100   19.398500
  C    -42.377400  -10.005000   20.134700
  H    -41.738400   -9.227880   19.964000
  H    -43.352000   -9.561590   19.946200
  C    -42.271700  -10.471200   21.629400
  H    -42.591600   -9.601440   22.233700
  H    -42.996200  -11.237100   21.932600
  H    -41.291300  -10.829700   21.903800
  S    -40.593800   -8.628280   13.641500
  C    -40.389100   -7.000120   13.229300
  C    -40.998400   -6.183490   14.147900
  C    -41.635200   -6.930730   15.127000
  C    -41.502200   -8.335090   15.032100
  H    -40.962400   -5.075310   14.111700
  C    -42.391000   -6.304880   16.306500
  H    -42.669500   -7.096800   16.899600
  H    -43.317300   -5.858190   15.883300
  C    -41.746000   -5.269230   17.264400
  H    -42.535200   -4.852230   17.856800
  H    -41.412500   -4.417440   16.688500
  C    -40.651400   -5.793190   18.172600
  H    -40.232100   -4.914690   18.620500
  H    -40.051800   -6.418020   17.603500
  H    -41.009000   -6.428160   18.900000
  H    -42.379000  -12.856900   17.047000
  H    -39.714000   -6.578950   12.424100

 Total Charge           Charge          ....    0
 Multiplicity           Mult            ....    1
 Number of Electrons    NEL             ....  134
 Basis Dimension        Dim             ....  322

ORBITAL ENERGIES
----------------

  NO   OCC          E(Eh)            E(eV)
   0   2.0000     -88.965835     -2420.8835
   1   2.0000     -88.962806     -2420.8010
   2   2.0000     -10.336692      -281.2757
   3   2.0000     -10.323904      -280.9277
   4   2.0000     -10.317015      -280.7403
   5   2.0000     -10.306816      -280.4627
   6   2.0000     -10.301378      -280.3147
   7   2.0000     -10.293255      -280.0937
   8   2.0000     -10.292206      -280.0652
   9   2.0000     -10.290856      -280.0284
  10   2.0000     -10.283146      -279.8186
  11   2.0000     -10.282786      -279.8088
  12   2.0000     -10.281317      -279.7689
  13   2.0000     -10.281154      -279.7644
  14   2.0000     -10.280977      -279.7596
  15   2.0000     -10.263275      -279.2779
  16   2.0000      -8.082659      -219.9403
  17   2.0000      -8.077696      -219.8053
  18   2.0000      -6.040825      -164.3792
  19   2.0000      -6.036608      -164.2645
  20   2.0000      -6.036430      -164.2596
  21   2.0000      -6.033879      -164.1902
  22   2.0000      -6.032267      -164.1463
  23   2.0000      -6.028114      -164.0333
  24   2.0000      -1.019424       -27.7399
  25   2.0000      -0.994673       -27.0664
  26   2.0000      -0.917647       -24.9705
  27   2.0000      -0.911072       -24.7915
  28   2.0000      -0.879410       -23.9300
  29   2.0000      -0.857609       -23.3367
  30   2.0000      -0.844673       -22.9847
  31   2.0000      -0.824323       -22.4310
  32   2.0000      -0.785431       -21.3727
  33   2.0000      -0.771827       -21.0025
  34   2.0000      -0.721450       -19.6316
  35   2.0000      -0.704215       -19.1627
  36   2.0000      -0.692957       -18.8563
  37   2.0000      -0.659119       -17.9355
  38   2.0000      -0.639187       -17.3932
  39   2.0000      -0.628158       -17.0931
  40   2.0000      -0.596637       -16.2353
  41   2.0000      -0.579952       -15.7813
  42   2.0000      -0.572262       -15.5720
  43   2.0000      -0.558954       -15.2099
  44   2.0000      -0.541083       -14.7236
  45   2.0000      -0.526961       -14.3393
  46   2.0000      -0.522319       -14.2130
  47   2.0000      -0.513687       -13.9781
  48   2.0000      -0.511924       -13.9302
  49   2.0000      -0.503594       -13.7035
  50   2.0000      -0.501615       -13.6496
  51   2.0000      -0.481260       -13.0957
  52   2.0000      -0.472332       -12.8528
  53   2.0000      -0.468914       -12.7598
  54   2.0000      -0.463210       -12.6046
  55   2.0000      -0.450866       -12.2687
  56   2.0000      -0.448406       -12.2017
  57   2.0000      -0.438454       -11.9309
  58   2.0000      -0.437832       -11.9140
  59   2.0000      -0.426138       -11.5958
  60   2.0000      -0.418012       -11.3747
  61   2.0000      -0.411831       -11.2065
  62   2.0000      -0.408344       -11.1116
  63   2.0000      -0.363019        -9.8782
  64   2.0000      -0.334006        -9.0888
  65   2.0000      -0.325883        -8.8677
  66   2.0000      -0.288307        -7.8452
  67   0.0000       0.027127         0.7382
  68   0.0000       0.080260         2.1840
  69   0.0000       0.112677         3.0661
  70   0.0000       0.122065         3.3216
  71   0.0000       0.132885         3.6160

MULLIKEN ATOMIC CHARGES
-----------------------
   0 S :    0.098383
   1 C :   -0.133901
   2 C :   -0.067918
   3 C :    0.024633
   4 C :   -0.114369
   5 H :   -0.003293
   6 C :    0.072647
   7 H :    0.044265
   8 H :    0.018446
   9 C :   -0.103982
  10 H :    0.016499
  11 H :    0.024639
  12 C :   -0.043166
  13 H :    0.033531
  14 H :    0.029649
  15 H :    0.034497
  16 S :    0.124475
  17 C :   -0.106448
  18 C :   -0.047422
  19 C :   -0.073185
  20 C :   -0.139443
  21 H :    0.030600
  22 C :    0.075901
  23 H :   -0.022632
  24 H :    0.037575
  25 C :   -0.068853
  26 H :    0.016814
  27 H :    0.014983
  28 C :    0.025600
  29 H :    0.036287
  30 H :    0.021241
  31 H :    0.007372
  32 H :    0.057323
  33 H :    0.079251
Sum of atomic charges:   -0.0000000

LOEWDIN ATOMIC CHARGES
----------------------
   0 S :    0.386313
   1 C :   -0.203640
   2 C :   -0.071635
   3 C :   -0.065372
   4 C :   -0.163944
   5 H :    0.022009
   6 C :   -0.034177
   7 H :    0.037837
   8 H :    0.029108
   9 C :   -0.033453
  10 H :    0.005053
  11 H :    0.023522
  12 C :   -0.062202
  13 H :    0.030732
  14 H :    0.025158
  15 H :    0.022367
  16 S :    0.471686
  17 C :   -0.215035
  18 C :   -0.081721
  19 C :   -0.061747
  20 C :   -0.228766
  21 H :    0.040122
  22 C :   -0.029910
  23 H :    0.011343
  24 H :    0.039109
  25 C :   -0.033901
  26 H :    0.021970
  27 H :    0.016865
  28 C :   -0.050310
  29 H :    0.031679
  30 H :    0.020765
  31 H :    0.012933
  32 H :    0.040592
  33 H :    0.046646

  Mayer bond orders larger than 0.100000
B(  0-S ,  1-C ) :   1.1085 B(  0-S ,  4-C ) :   1.1397 B(  1-C ,  2-C ) :   1.6649
B(  1-C , 32-H ) :   0.9668 B(  2-C ,  3-C ) :   1.2092 B(  2-C ,  6-C ) :   1.0355
B(  3-C ,  4-C ) :   1.6005 B(  3-C ,  5-H ) :   0.9783 B(  4-C , 20-C ) :   1.0425
B(  6-C ,  7-H ) :   0.9336 B(  6-C ,  8-H ) :   0.9392 B(  6-C ,  9-C ) :   1.0794
B(  9-C , 10-H ) :   0.9407 B(  9-C , 11-H ) :   0.9580 B(  9-C , 12-C ) :   1.0858
B( 12-C , 13-H ) :   0.9729 B( 12-C , 14-H ) :   0.9756 B( 12-C , 15-H ) :   0.9759
B( 16-S , 17-C ) :   1.2055 B( 16-S , 20-C ) :   1.1802 B( 17-C , 18-C ) :   1.5282
B( 17-C , 20-C ) :   0.1058 B( 17-C , 33-H ) :   0.9589 B( 18-C , 19-C ) :   1.3283
B( 18-C , 21-H ) :   0.9918 B( 19-C , 20-C ) :   1.5056 B( 19-C , 22-C ) :   1.0380
B( 22-C , 23-H ) :   0.9364 B( 22-C , 24-H ) :   0.9270 B( 22-C , 25-C ) :   1.0786
B( 25-C , 26-H ) :   0.9493 B( 25-C , 27-H ) :   0.9556 B( 25-C , 28-C ) :   1.0787
B( 28-C , 29-H ) :   0.9687 B( 28-C , 30-H ) :   0.9767 B( 28-C , 31-H ) :   0.9662

Dispersion correction           -0.014580484
FINAL SINGLE POINT ENERGY     -1339.859936118045

DIPOLE MOMENT
-------------
                                X             Y             Z
Electronic contribution:      2.75517     -10.90810     -30.35044
Nuclear contribution   :     -2.81289      11.30902      30.96248
                        -----------------------------------------
Total Dipole Moment    :     -0.05773       0.40092       0.61204
                        -----------------------------------------
Magnitude (a.u.)       :      0.73394
Magnitude (Debye)      :      1.86552

Rotational constants in cm-1:     0.018255     0.009764     0.006697
Rotational constants in MHz :   547.276439   292.707521   200.778223

                             ****ORCA TERMINATED NORMALLY****
TOTAL RUN TIME: 0 days 0 hours 0 minutes 22 seconds 405 msec
