                         Program Version 4.2.1 -  RELEASE  -
|  1> ! wB97X-D3 SP def2-SVP
|  2> %pal
|  3> nprocs 24
|  4> end
|  5>
|  6> * xyz 0 1
|  7> S 	 -37.9794 	 10.8571 	 24.9104
|  8> C 	 -39.4716 	 11.2399 	 24.0033
|  9> C 	 -40.0692 	 12.3599 	 24.5682
| 10> C 	 -39.3884 	 12.8542 	 25.7602
| 11> C 	 -38.1531 	 12.2939 	 25.8751
| 12> H 	 -39.6829 	 13.6174 	 26.474
| 13> C 	 -41.4682 	 12.8676 	 24.2767
| 14> H 	 -41.8095 	 12.4129 	 23.3679
| 15> H 	 -41.49 	 13.929 	 24.0662
| 16> C 	 -42.41 	 12.4483 	 25.3652
| 17> H 	 -42.6033 	 11.4251 	 25.4642
| 18> H 	 -41.829 	 12.7542 	 26.2832
| 19> C 	 -43.7598 	 13.1271 	 25.3125
| 20> H 	 -44.1992 	 13.0197 	 24.2197
| 21> H 	 -44.4982 	 12.5692 	 25.8962
| 22> H 	 -43.6878 	 14.1664 	 25.542
| 23> S 	 -36.629 	 14.2587 	 26.8878
| 24> C 	 -35.4566 	 13.8775 	 28.2438
| 25> C 	 -35.735 	 12.6815 	 28.7686
| 26> C 	 -36.8629 	 12.0031 	 28.1095
| 27> C 	 -37.2037 	 12.6276 	 26.8935
| 28> H 	 -35.2923 	 12.3108 	 29.6595
| 29> C 	 -37.2738 	 10.669 	 28.5381
| 30> H 	 -36.5026 	 9.90008 	 28.4409
| 31> H 	 -38.0912 	 10.3544 	 27.7909
| 32> C 	 -37.7458 	 10.5512 	 29.9789
| 33> H 	 -36.8901 	 10.4604 	 30.6221
| 34> H 	 -38.2249 	 9.61279 	 30.2797
| 35> C 	 -38.6012 	 11.7482 	 30.5036
| 36> H 	 -39.6245 	 11.7006 	 30.1331
| 37> H 	 -38.1432 	 12.7672 	 30.359
| 38> H 	 -38.7323 	 11.5811 	 31.5965
| 39> H 	 -39.8728 	 10.8072 	 23.1274
| 40> H 	 -34.7834 	 14.5871 	 28.6363
| 41> *
| 42>
| 43>                          ****END OF INPUT****

CARTESIAN COORDINATES (ANGSTROEM)
---------------------------------
  S    -37.979400   10.857100   24.910400
  C    -39.471600   11.239900   24.003300
  C    -40.069200   12.359900   24.568200
  C    -39.388400   12.854200   25.760200
  C    -38.153100   12.293900   25.875100
  H    -39.682900   13.617400   26.474000
  C    -41.468200   12.867600   24.276700
  H    -41.809500   12.412900   23.367900
  H    -41.490000   13.929000   24.066200
  C    -42.410000   12.448300   25.365200
  H    -42.603300   11.425100   25.464200
  H    -41.829000   12.754200   26.283200
  C    -43.759800   13.127100   25.312500
  H    -44.199200   13.019700   24.219700
  H    -44.498200   12.569200   25.896200
  H    -43.687800   14.166400   25.542000
  S    -36.629000   14.258700   26.887800
  C    -35.456600   13.877500   28.243800
  C    -35.735000   12.681500   28.768600
  C    -36.862900   12.003100   28.109500
  C    -37.203700   12.627600   26.893500
  H    -35.292300   12.310800   29.659500
  C    -37.273800   10.669000   28.538100
  H    -36.502600    9.900080   28.440900
  H    -38.091200   10.354400   27.790900
  C    -37.745800   10.551200   29.978900
  H    -36.890100   10.460400   30.622100
  H    -38.224900    9.612790   30.279700
  C    -38.601200   11.748200   30.503600
  H    -39.624500   11.700600   30.133100
  H    -38.143200   12.767200   30.359000
  H    -38.732300   11.581100   31.596500
  H    -39.872800   10.807200   23.127400
  H    -34.783400   14.587100   28.636300

 Total Charge           Charge          ....    0
 Multiplicity           Mult            ....    1
 Number of Electrons    NEL             ....  134
 Basis Dimension        Dim             ....  322

ORBITAL ENERGIES
----------------

  NO   OCC          E(Eh)            E(eV)
   0   2.0000     -88.968186     -2420.9474
   1   2.0000     -88.960981     -2420.7514
   2   2.0000     -10.325433      -280.9693
   3   2.0000     -10.324885      -280.9544
   4   2.0000     -10.317239      -280.7464
   5   2.0000     -10.316351      -280.7222
   6   2.0000     -10.304633      -280.4033
   7   2.0000     -10.303707      -280.3781
   8   2.0000     -10.295055      -280.1427
   9   2.0000     -10.292832      -280.0822
  10   2.0000     -10.288985      -279.9775
  11   2.0000     -10.286339      -279.9055
  12   2.0000     -10.285647      -279.8867
  13   2.0000     -10.283777      -279.8358
  14   2.0000     -10.280535      -279.7476
  15   2.0000     -10.280063      -279.7347
  16   2.0000      -8.082154      -219.9266
  17   2.0000      -8.075313      -219.7404
  18   2.0000      -6.040826      -164.3792
  19   2.0000      -6.036871      -164.2716
  20   2.0000      -6.034013      -164.1938
  21   2.0000      -6.032663      -164.1571
  22   2.0000      -6.030113      -164.0877
  23   2.0000      -6.025639      -163.9660
  24   2.0000      -1.007703       -27.4210
  25   2.0000      -0.980448       -26.6793
  26   2.0000      -0.920089       -25.0369
  27   2.0000      -0.908048       -24.7092
  28   2.0000      -0.877175       -23.8692
  29   2.0000      -0.847849       -23.0711
  30   2.0000      -0.837025       -22.7766
  31   2.0000      -0.820764       -22.3341
  32   2.0000      -0.781716       -21.2716
  33   2.0000      -0.768507       -20.9121
  34   2.0000      -0.712908       -19.3992
  35   2.0000      -0.697241       -18.9729
  36   2.0000      -0.692374       -18.8404
  37   2.0000      -0.664392       -18.0790
  38   2.0000      -0.642685       -17.4884
  39   2.0000      -0.619375       -16.8540
  40   2.0000      -0.594430       -16.1753
  41   2.0000      -0.575748       -15.6669
  42   2.0000      -0.566432       -15.4134
  43   2.0000      -0.551343       -15.0028
  44   2.0000      -0.545516       -14.8442
  45   2.0000      -0.527930       -14.3657
  46   2.0000      -0.515711       -14.0332
  47   2.0000      -0.512957       -13.9583
  48   2.0000      -0.509238       -13.8571
  49   2.0000      -0.502612       -13.6768
  50   2.0000      -0.492322       -13.3968
  51   2.0000      -0.474176       -12.9030
  52   2.0000      -0.465691       -12.6721
  53   2.0000      -0.459735       -12.5100
  54   2.0000      -0.456612       -12.4250
  55   2.0000      -0.448867       -12.2143
  56   2.0000      -0.446676       -12.1547
  57   2.0000      -0.441033       -12.0011
  58   2.0000      -0.428428       -11.6581
  59   2.0000      -0.424616       -11.5544
  60   2.0000      -0.419644       -11.4191
  61   2.0000      -0.406047       -11.0491
  62   2.0000      -0.402206       -10.9446
  63   2.0000      -0.345001        -9.3880
  64   2.0000      -0.330949        -9.0056
  65   2.0000      -0.322186        -8.7671
  66   2.0000      -0.297950        -8.1076
  67   0.0000       0.033330         0.9070
  68   0.0000       0.060970         1.6591
  69   0.0000       0.095587         2.6011
  70   0.0000       0.114776         3.1232
  71   0.0000       0.126903         3.4532

MULLIKEN ATOMIC CHARGES
-----------------------
   0 S :    0.112805
   1 C :   -0.088599
   2 C :   -0.098862
   3 C :    0.011587
   4 C :   -0.164149
   5 H :    0.033037
   6 C :    0.103398
   7 H :   -0.003866
   8 H :    0.029215
   9 C :   -0.077548
  10 H :    0.019225
  11 H :    0.025823
  12 C :   -0.050974
  13 H :    0.029757
  14 H :    0.037038
  15 H :    0.037293
  16 S :    0.078676
  17 C :   -0.066136
  18 C :    0.012175
  19 C :   -0.044315
  20 C :   -0.156900
  21 H :    0.012414
  22 C :    0.063353
  23 H :    0.039442
  24 H :    0.034822
  25 C :   -0.089234
  26 H :    0.011917
  27 H :    0.025522
  28 C :   -0.078414
  29 H :    0.035968
  30 H :    0.060151
  31 H :    0.028790
  32 H :    0.033393
  33 H :    0.043196
Sum of atomic charges:    0.0000000

LOEWDIN ATOMIC CHARGES
----------------------
   0 S :    0.400782
   1 C :   -0.184723
   2 C :   -0.051074
   3 C :   -0.063437
   4 C :   -0.197706
   5 H :    0.034862
   6 C :   -0.029934
   7 H :    0.021414
   8 H :    0.030568
   9 C :   -0.041875
  10 H :    0.019652
  11 H :    0.028495
  12 C :   -0.066030
  13 H :    0.033155
  14 H :    0.027304
  15 H :    0.020166
  16 S :    0.373904
  17 C :   -0.146514
  18 C :   -0.057061
  19 C :   -0.056603
  20 C :   -0.199300
  21 H :    0.028171
  22 C :   -0.048576
  23 H :    0.035248
  24 H :    0.033728
  25 C :   -0.047880
  26 H :    0.017165
  27 H :    0.029730
  28 C :   -0.074641
  29 H :    0.023867
  30 H :    0.033428
  31 H :    0.028209
  32 H :    0.024014
  33 H :    0.021493

  Mayer bond orders larger than 0.100000
B(  0-S ,  1-C ) :   1.1093 B(  0-S ,  4-C ) :   1.1369 B(  1-C ,  2-C ) :   1.6515
B(  1-C , 32-H ) :   0.9713 B(  2-C ,  3-C ) :   1.1805 B(  2-C ,  6-C ) :   1.0436
B(  3-C ,  4-C ) :   1.6236 B(  3-C ,  5-H ) :   0.9845 B(  4-C , 20-C ) :   1.0232
B(  6-C ,  7-H ) :   0.9276 B(  6-C ,  8-H ) :   0.9394 B(  6-C ,  9-C ) :   1.0547
B(  9-C , 10-H ) :   0.9545 B(  9-C , 11-H ) :   0.9557 B(  9-C , 12-C ) :   1.0845
B( 12-C , 13-H ) :   0.9694 B( 12-C , 14-H ) :   0.9740 B( 12-C , 15-H ) :   0.9757
B( 16-S , 17-C ) :   1.1076 B( 16-S , 20-C ) :   1.1336 B( 17-C , 18-C ) :   1.6593
B( 17-C , 33-H ) :   0.9761 B( 18-C , 19-C ) :   1.1745 B( 18-C , 21-H ) :   0.9930
B( 19-C , 20-C ) :   1.5923 B( 19-C , 22-C ) :   1.0754 B( 22-C , 23-H ) :   0.9410
B( 22-C , 24-H ) :   0.9261 B( 22-C , 25-C ) :   1.0522 B( 25-C , 26-H ) :   0.9513
B( 25-C , 27-H ) :   0.9531 B( 25-C , 28-C ) :   1.0856 B( 28-C , 29-H ) :   0.9778
B( 28-C , 30-H ) :   0.9663 B( 28-C , 31-H ) :   0.9730

Dispersion correction           -0.014704635
FINAL SINGLE POINT ENERGY     -1339.854294044038

DIPOLE MOMENT
-------------
                                X             Y             Z
Electronic contribution:     21.08584       3.26878     -11.02600
Nuclear contribution   :    -21.49233      -3.42008      11.44966
                        -----------------------------------------
Total Dipole Moment    :     -0.40648      -0.15131       0.42366
                        -----------------------------------------
Magnitude (a.u.)       :      0.60631
Magnitude (Debye)      :      1.54111

Rotational constants in cm-1:     0.019368     0.008173     0.007556
Rotational constants in MHz :   580.648239   245.025430   226.510070

                             ****ORCA TERMINATED NORMALLY****
TOTAL RUN TIME: 0 days 0 hours 0 minutes 22 seconds 51 msec
