                         Program Version 4.2.1 -  RELEASE  -
|  1> ! wB97X-D3 SP def2-SVP
|  2> %pal
|  3> nprocs 24
|  4> end
|  5>
|  6> * xyz 0 1
|  7> S 	 44.5264 	 -33.4578 	 -118.831
|  8> C 	 44.3963 	 -31.9427 	 -119.697
|  9> C 	 43.4756 	 -32.0393 	 -120.672
| 10> C 	 42.8044 	 -33.3003 	 -120.751
| 11> C 	 43.1434 	 -34.1271 	 -119.695
| 12> H 	 42.1538 	 -33.7303 	 -121.517
| 13> C 	 43.137 	 -30.8977 	 -121.665
| 14> H 	 43.0976 	 -29.9137 	 -121.163
| 15> H 	 42.1646 	 -31.092 	 -122.122
| 16> C 	 44.0894 	 -30.7176 	 -122.793
| 17> H 	 43.8072 	 -29.7986 	 -123.309
| 18> H 	 45.079 	 -30.4627 	 -122.43
| 19> C 	 44.308 	 -31.9044 	 -123.729
| 20> H 	 44.8215 	 -31.6039 	 -124.655
| 21> H 	 44.8929 	 -32.7078 	 -123.209
| 22> H 	 43.4281 	 -32.418 	 -124.088
| 23> S 	 44.1133 	 -36.6856 	 -119.402
| 24> C 	 43.013 	 -38.0985 	 -119.093
| 25> C 	 41.6977 	 -37.671 	 -118.963
| 26> C 	 41.6045 	 -36.2569 	 -119.14
| 27> C 	 42.8053 	 -35.5427 	 -119.434
| 28> H 	 40.9927 	 -38.4863 	 -118.873
| 29> C 	 40.283 	 -35.5416 	 -119.095
| 30> H 	 40.3433 	 -34.4576 	 -119.261
| 31> H 	 39.8658 	 -35.6216 	 -118.043
| 32> C 	 39.2754 	 -35.9278 	 -120.181
| 33> H 	 39.1787 	 -36.9935 	 -120.476
| 34> H 	 39.6381 	 -35.4714 	 -121.072
| 35> C 	 37.7996 	 -35.4562 	 -119.844
| 36> H 	 37.2862 	 -35.3202 	 -120.805
| 37> H 	 37.6572 	 -34.5376 	 -119.311
| 38> H 	 37.2939 	 -36.2419 	 -119.238
| 39> H 	 44.9588 	 -30.9886 	 -119.461
| 40> H 	 43.3827 	 -39.119 	 -119.146
| 41> *
| 42>
| 43>                          ****END OF INPUT****

CARTESIAN COORDINATES (ANGSTROEM)
---------------------------------
  S     44.526400  -33.457800  -118.831000
  C     44.396300  -31.942700  -119.697000
  C     43.475600  -32.039300  -120.672000
  C     42.804400  -33.300300  -120.751000
  C     43.143400  -34.127100  -119.695000
  H     42.153800  -33.730300  -121.517000
  C     43.137000  -30.897700  -121.665000
  H     43.097600  -29.913700  -121.163000
  H     42.164600  -31.092000  -122.122000
  C     44.089400  -30.717600  -122.793000
  H     43.807200  -29.798600  -123.309000
  H     45.079000  -30.462700  -122.430000
  C     44.308000  -31.904400  -123.729000
  H     44.821500  -31.603900  -124.655000
  H     44.892900  -32.707800  -123.209000
  H     43.428100  -32.418000  -124.088000
  S     44.113300  -36.685600  -119.402000
  C     43.013000  -38.098500  -119.093000
  C     41.697700  -37.671000  -118.963000
  C     41.604500  -36.256900  -119.140000
  C     42.805300  -35.542700  -119.434000
  H     40.992700  -38.486300  -118.873000
  C     40.283000  -35.541600  -119.095000
  H     40.343300  -34.457600  -119.261000
  H     39.865800  -35.621600  -118.043000
  C     39.275400  -35.927800  -120.181000
  H     39.178700  -36.993500  -120.476000
  H     39.638100  -35.471400  -121.072000
  C     37.799600  -35.456200  -119.844000
  H     37.286200  -35.320200  -120.805000
  H     37.657200  -34.537600  -119.311000
  H     37.293900  -36.241900  -119.238000
  H     44.958800  -30.988600  -119.461000
  H     43.382700  -39.119000  -119.146000

 Total Charge           Charge          ....    0
 Multiplicity           Mult            ....    1
 Number of Electrons    NEL             ....  134
 Basis Dimension        Dim             ....  322

ORBITAL ENERGIES
----------------

  NO   OCC          E(Eh)            E(eV)
   0   2.0000     -88.965515     -2420.8747
   1   2.0000     -88.963440     -2420.8183
   2   2.0000     -10.335932      -281.2550
   3   2.0000     -10.333402      -281.1862
   4   2.0000     -10.325323      -280.9663
   5   2.0000     -10.317558      -280.7550
   6   2.0000     -10.310409      -280.5605
   7   2.0000     -10.301702      -280.3236
   8   2.0000     -10.301654      -280.3223
   9   2.0000     -10.300143      -280.2811
  10   2.0000     -10.292368      -280.0696
  11   2.0000     -10.289862      -280.0014
  12   2.0000     -10.287210      -279.9292
  13   2.0000     -10.281479      -279.7733
  14   2.0000     -10.280498      -279.7466
  15   2.0000     -10.277137      -279.6551
  16   2.0000      -8.080329      -219.8769
  17   2.0000      -8.077503      -219.8000
  18   2.0000      -6.038906      -164.3270
  19   2.0000      -6.036070      -164.2498
  20   2.0000      -6.034887      -164.2176
  21   2.0000      -6.031940      -164.1374
  22   2.0000      -6.030904      -164.1092
  23   2.0000      -6.028388      -164.0408
  24   2.0000      -1.006609       -27.3912
  25   2.0000      -0.981729       -26.7142
  26   2.0000      -0.914731       -24.8911
  27   2.0000      -0.901586       -24.5334
  28   2.0000      -0.872075       -23.7304
  29   2.0000      -0.845356       -23.0033
  30   2.0000      -0.839606       -22.8469
  31   2.0000      -0.819303       -22.2944
  32   2.0000      -0.784527       -21.3481
  33   2.0000      -0.766355       -20.8536
  34   2.0000      -0.705601       -19.2004
  35   2.0000      -0.699084       -19.0230
  36   2.0000      -0.694444       -18.8968
  37   2.0000      -0.658916       -17.9300
  38   2.0000      -0.640564       -17.4306
  39   2.0000      -0.615800       -16.7568
  40   2.0000      -0.596090       -16.2204
  41   2.0000      -0.577324       -15.7098
  42   2.0000      -0.556269       -15.1369
  43   2.0000      -0.548492       -14.9252
  44   2.0000      -0.542157       -14.7528
  45   2.0000      -0.525412       -14.2972
  46   2.0000      -0.517355       -14.0779
  47   2.0000      -0.508909       -13.8481
  48   2.0000      -0.502265       -13.6673
  49   2.0000      -0.495476       -13.4826
  50   2.0000      -0.489886       -13.3305
  51   2.0000      -0.478723       -13.0267
  52   2.0000      -0.470204       -12.7949
  53   2.0000      -0.468967       -12.7612
  54   2.0000      -0.457370       -12.4457
  55   2.0000      -0.446051       -12.1377
  56   2.0000      -0.442328       -12.0364
  57   2.0000      -0.434771       -11.8307
  58   2.0000      -0.432924       -11.7805
  59   2.0000      -0.427575       -11.6349
  60   2.0000      -0.416295       -11.3280
  61   2.0000      -0.407725       -11.0948
  62   2.0000      -0.403954       -10.9921
  63   2.0000      -0.351272        -9.5586
  64   2.0000      -0.331357        -9.0167
  65   2.0000      -0.328622        -8.9423
  66   2.0000      -0.294329        -8.0091
  67   0.0000       0.029670         0.8074
  68   0.0000       0.060213         1.6385
  69   0.0000       0.107278         2.9192
  70   0.0000       0.119348         3.2476
  71   0.0000       0.131123         3.5680

MULLIKEN ATOMIC CHARGES
-----------------------
   0 S :    0.099879
   1 C :   -0.138409
   2 C :   -0.077997
   3 C :    0.033910
   4 C :   -0.150039
   5 H :    0.028452
   6 C :    0.074814
   7 H :    0.031277
   8 H :    0.019595
   9 C :   -0.055577
  10 H :    0.023253
  11 H :    0.013323
  12 C :   -0.071227
  13 H :    0.036930
  14 H :    0.050514
  15 H :    0.017491
  16 S :    0.083183
  17 C :   -0.121123
  18 C :   -0.010120
  19 C :   -0.022052
  20 C :   -0.141633
  21 H :    0.031037
  22 C :    0.030013
  23 H :    0.028047
  24 H :    0.042538
  25 C :   -0.078530
  26 H :    0.031437
  27 H :    0.013990
  28 C :   -0.068890
  29 H :    0.035019
  30 H :    0.029179
  31 H :    0.042211
  32 H :    0.072309
  33 H :    0.067194
Sum of atomic charges:   -0.0000000

LOEWDIN ATOMIC CHARGES
----------------------
   0 S :    0.398876
   1 C :   -0.201093
   2 C :   -0.069497
   3 C :   -0.062332
   4 C :   -0.182835
   5 H :    0.038211
   6 C :   -0.028989
   7 H :    0.035748
   8 H :    0.027954
   9 C :   -0.047030
  10 H :    0.024216
  11 H :    0.021054
  12 C :   -0.073261
  13 H :    0.030217
  14 H :    0.034502
  15 H :    0.017340
  16 S :    0.382538
  17 C :   -0.161120
  18 C :   -0.067966
  19 C :   -0.057951
  20 C :   -0.208193
  21 H :    0.039862
  22 C :   -0.043524
  23 H :    0.032394
  24 H :    0.035201
  25 C :   -0.039431
  26 H :    0.023777
  27 H :    0.015805
  28 C :   -0.068821
  29 H :    0.028412
  30 H :    0.019329
  31 H :    0.029916
  32 H :    0.046621
  33 H :    0.030072

  Mayer bond orders larger than 0.100000
B(  0-S ,  1-C ) :   1.1237 B(  0-S ,  4-C ) :   1.1517 B(  1-C ,  2-C ) :   1.6467
B(  1-C , 32-H ) :   0.9595 B(  2-C ,  3-C ) :   1.2133 B(  2-C ,  6-C ) :   1.0100
B(  3-C ,  4-C ) :   1.5910 B(  3-C ,  5-H ) :   0.9918 B(  4-C , 20-C ) :   1.0208
B(  6-C ,  7-H ) :   0.9411 B(  6-C ,  8-H ) :   0.9423 B(  6-C ,  9-C ) :   1.0915
B(  9-C , 10-H ) :   0.9537 B(  9-C , 11-H ) :   0.9498 B(  9-C , 12-C ) :   1.0721
B( 12-C , 13-H ) :   0.9736 B( 12-C , 14-H ) :   0.9721 B( 12-C , 15-H ) :   0.9768
B( 16-S , 17-C ) :   1.1543 B( 16-S , 20-C ) :   1.1425 B( 17-C , 18-C ) :   1.6012
B( 17-C , 20-C ) :   0.1036 B( 17-C , 33-H ) :   0.9671 B( 18-C , 19-C ) :   1.2242
B( 18-C , 21-H ) :   0.9972 B( 19-C , 20-C ) :   1.5787 B( 19-C , 22-C ) :   1.0542
B( 22-C , 23-H ) :   0.9381 B( 22-C , 24-H ) :   0.9436 B( 22-C , 25-C ) :   1.0368
B( 25-C , 26-H ) :   0.9633 B( 25-C , 27-H ) :   0.9609 B( 25-C , 28-C ) :   1.0638
B( 28-C , 29-H ) :   0.9770 B( 28-C , 30-H ) :   0.9789 B( 28-C , 31-H ) :   0.9798

Dispersion correction           -0.014073045
FINAL SINGLE POINT ENERGY     -1339.874044955937

DIPOLE MOMENT
-------------
                                X             Y             Z
Electronic contribution:     17.99353      -9.94156      15.42073
Nuclear contribution   :    -18.41056      10.08589     -15.84613
                        -----------------------------------------
Total Dipole Moment    :     -0.41703       0.14433      -0.42540
                        -----------------------------------------
Magnitude (a.u.)       :      0.61295
Magnitude (Debye)      :      1.55800

Rotational constants in cm-1:     0.017774     0.008440     0.006715
Rotational constants in MHz :   532.855515   253.019559   201.320274

                             ****ORCA TERMINATED NORMALLY****
TOTAL RUN TIME: 0 days 0 hours 0 minutes 21 seconds 200 msec
