                         Program Version 4.2.1 -  RELEASE  -
|  1> ! wB97X-D3 SP def2-SVP
|  2> %pal
|  3> nprocs 24
|  4> end
|  5>
|  6> * xyz 0 1
|  7> S 	 -82.0374 	 -3.80108 	 -57.6318
|  8> C 	 -80.3647 	 -3.34883 	 -57.2999
|  9> C 	 -79.4513 	 -4.0365 	 -58.0301
| 10> C 	 -80.1477 	 -4.9058 	 -58.9451
| 11> C 	 -81.5093 	 -4.81086 	 -58.9587
| 12> H 	 -79.6589 	 -5.54376 	 -59.6397
| 13> C 	 -77.9435 	 -3.81925 	 -58.0062
| 14> H 	 -77.5043 	 -4.79774 	 -58.0494
| 15> H 	 -77.6839 	 -3.4184 	 -57.0289
| 16> C 	 -77.3985 	 -2.82021 	 -59.0203
| 17> H 	 -77.8588 	 -2.77391 	 -60.0003
| 18> H 	 -77.6904 	 -1.91981 	 -58.6105
| 19> C 	 -75.8198 	 -2.87612 	 -59.2511
| 20> H 	 -75.5325 	 -3.81331 	 -59.6272
| 21> H 	 -75.7006 	 -2.07773 	 -59.9474
| 22> H 	 -75.1436 	 -2.69121 	 -58.4115
| 23> S 	 -83.7701 	 -6.38571 	 -58.912
| 24> C 	 -84.3394 	 -7.07045 	 -60.4687
| 25> C 	 -83.3674 	 -6.97955 	 -61.4542
| 26> C 	 -82.309 	 -6.10848 	 -61.0568
| 27> C 	 -82.4 	 -5.66567 	 -59.755
| 28> H 	 -83.5122 	 -7.55082 	 -62.3954
| 29> C 	 -81.1018 	 -5.96044 	 -61.9188
| 30> H 	 -80.4249 	 -6.89676 	 -61.8718
| 31> H 	 -80.5038 	 -5.08739 	 -61.6276
| 32> C 	 -81.2842 	 -5.64707 	 -63.4641
| 33> H 	 -81.7648 	 -6.48715 	 -63.9771
| 34> H 	 -80.3595 	 -5.4623 	 -63.9004
| 35> C 	 -82.0847 	 -4.32928 	 -63.6737
| 36> H 	 -81.4164 	 -3.50273 	 -63.5274
| 37> H 	 -82.9749 	 -4.2631 	 -62.9429
| 38> H 	 -82.4183 	 -4.28757 	 -64.7203
| 39> H 	 -80.1784 	 -2.53775 	 -56.6311
| 40> H 	 -85.2751 	 -7.55855 	 -60.6223
| 41> *
| 42>
| 43>                          ****END OF INPUT****

CARTESIAN COORDINATES (ANGSTROEM)
---------------------------------
  S    -82.037400   -3.801080  -57.631800
  C    -80.364700   -3.348830  -57.299900
  C    -79.451300   -4.036500  -58.030100
  C    -80.147700   -4.905800  -58.945100
  C    -81.509300   -4.810860  -58.958700
  H    -79.658900   -5.543760  -59.639700
  C    -77.943500   -3.819250  -58.006200
  H    -77.504300   -4.797740  -58.049400
  H    -77.683900   -3.418400  -57.028900
  C    -77.398500   -2.820210  -59.020300
  H    -77.858800   -2.773910  -60.000300
  H    -77.690400   -1.919810  -58.610500
  C    -75.819800   -2.876120  -59.251100
  H    -75.532500   -3.813310  -59.627200
  H    -75.700600   -2.077730  -59.947400
  H    -75.143600   -2.691210  -58.411500
  S    -83.770100   -6.385710  -58.912000
  C    -84.339400   -7.070450  -60.468700
  C    -83.367400   -6.979550  -61.454200
  C    -82.309000   -6.108480  -61.056800
  C    -82.400000   -5.665670  -59.755000
  H    -83.512200   -7.550820  -62.395400
  C    -81.101800   -5.960440  -61.918800
  H    -80.424900   -6.896760  -61.871800
  H    -80.503800   -5.087390  -61.627600
  C    -81.284200   -5.647070  -63.464100
  H    -81.764800   -6.487150  -63.977100
  H    -80.359500   -5.462300  -63.900400
  C    -82.084700   -4.329280  -63.673700
  H    -81.416400   -3.502730  -63.527400
  H    -82.974900   -4.263100  -62.942900
  H    -82.418300   -4.287570  -64.720300
  H    -80.178400   -2.537750  -56.631100
  H    -85.275100   -7.558550  -60.622300

 Total Charge           Charge          ....    0
 Multiplicity           Mult            ....    1
 Number of Electrons    NEL             ....  134
 Basis Dimension        Dim             ....  322

ORBITAL ENERGIES
----------------

  NO   OCC          E(Eh)            E(eV)
   0   2.0000     -88.966163     -2420.8924
   1   2.0000     -88.964258     -2420.8405
   2   2.0000     -10.328871      -281.0629
   3   2.0000     -10.327627      -281.0290
   4   2.0000     -10.319003      -280.7943
   5   2.0000     -10.312280      -280.6114
   6   2.0000     -10.302169      -280.3363
   7   2.0000     -10.301126      -280.3079
   8   2.0000     -10.298738      -280.2429
   9   2.0000     -10.297532      -280.2101
  10   2.0000     -10.292918      -280.0845
  11   2.0000     -10.289747      -279.9982
  12   2.0000     -10.285697      -279.8881
  13   2.0000     -10.283455      -279.8270
  14   2.0000     -10.278760      -279.6993
  15   2.0000     -10.278168      -279.6832
  16   2.0000      -8.080137      -219.8717
  17   2.0000      -8.079122      -219.8441
  18   2.0000      -6.038695      -164.3213
  19   2.0000      -6.037657      -164.2930
  20   2.0000      -6.034986      -164.2203
  21   2.0000      -6.033759      -164.1869
  22   2.0000      -6.030652      -164.1024
  23   2.0000      -6.029698      -164.0764
  24   2.0000      -1.006694       -27.3935
  25   2.0000      -0.983045       -26.7500
  26   2.0000      -0.911936       -24.8151
  27   2.0000      -0.901798       -24.5392
  28   2.0000      -0.869772       -23.6677
  29   2.0000      -0.850153       -23.1339
  30   2.0000      -0.842387       -22.9225
  31   2.0000      -0.815596       -22.1935
  32   2.0000      -0.785403       -21.3719
  33   2.0000      -0.768976       -20.9249
  34   2.0000      -0.713277       -19.4093
  35   2.0000      -0.703664       -19.1477
  36   2.0000      -0.692742       -18.8505
  37   2.0000      -0.659372       -17.9424
  38   2.0000      -0.644729       -17.5440
  39   2.0000      -0.622117       -16.9287
  40   2.0000      -0.594783       -16.1849
  41   2.0000      -0.566752       -15.4221
  42   2.0000      -0.560522       -15.2526
  43   2.0000      -0.546891       -14.8817
  44   2.0000      -0.542350       -14.7581
  45   2.0000      -0.533892       -14.5279
  46   2.0000      -0.521646       -14.1947
  47   2.0000      -0.509406       -13.8617
  48   2.0000      -0.501838       -13.6557
  49   2.0000      -0.496453       -13.5092
  50   2.0000      -0.489489       -13.3197
  51   2.0000      -0.474577       -12.9139
  52   2.0000      -0.471660       -12.8345
  53   2.0000      -0.467316       -12.7163
  54   2.0000      -0.456602       -12.4248
  55   2.0000      -0.453099       -12.3295
  56   2.0000      -0.445371       -12.1192
  57   2.0000      -0.440716       -11.9925
  58   2.0000      -0.429073       -11.6757
  59   2.0000      -0.423995       -11.5375
  60   2.0000      -0.422042       -11.4843
  61   2.0000      -0.417727       -11.3669
  62   2.0000      -0.410405       -11.1677
  63   2.0000      -0.352018        -9.5789
  64   2.0000      -0.330844        -9.0027
  65   2.0000      -0.330102        -8.9825
  66   2.0000      -0.289577        -7.8798
  67   0.0000       0.026062         0.7092
  68   0.0000       0.076634         2.0853
  69   0.0000       0.094274         2.5653
  70   0.0000       0.120952         3.2913
  71   0.0000       0.133940         3.6447

MULLIKEN ATOMIC CHARGES
-----------------------
   0 S :    0.097404
   1 C :   -0.130281
   2 C :   -0.069349
   3 C :    0.010713
   4 C :   -0.124914
   5 H :   -0.001396
   6 C :    0.100892
   7 H :    0.020661
   8 H :    0.016294
   9 C :   -0.049643
  10 H :    0.029496
  11 H :    0.001338
  12 C :   -0.030947
  13 H :    0.025651
  14 H :    0.031181
  15 H :    0.032026
  16 S :    0.095330
  17 C :   -0.093912
  18 C :   -0.041866
  19 C :   -0.026701
  20 C :   -0.125519
  21 H :    0.042214
  22 C :   -0.024305
  23 H :    0.063218
  24 H :    0.029829
  25 C :   -0.047826
  26 H :    0.027503
  27 H :    0.016401
  28 C :   -0.087018
  29 H :    0.027819
  30 H :    0.061438
  31 H :    0.036336
  32 H :    0.039129
  33 H :    0.048804
Sum of atomic charges:    0.0000000

LOEWDIN ATOMIC CHARGES
----------------------
   0 S :    0.388872
   1 C :   -0.177542
   2 C :   -0.061456
   3 C :   -0.054571
   4 C :   -0.193045
   5 H :    0.023138
   6 C :   -0.026028
   7 H :    0.026169
   8 H :    0.032074
   9 C :   -0.030845
  10 H :    0.025665
  11 H :    0.014649
  12 C :   -0.055547
  13 H :    0.017131
  14 H :    0.026237
  15 H :    0.025847
  16 S :    0.378239
  17 C :   -0.165406
  18 C :   -0.067035
  19 C :   -0.071005
  20 C :   -0.180582
  21 H :    0.042635
  22 C :   -0.042786
  23 H :    0.042524
  24 H :    0.029832
  25 C :   -0.036331
  26 H :    0.016546
  27 H :    0.015763
  28 C :   -0.070384
  29 H :    0.019771
  30 H :    0.036930
  31 H :    0.026753
  32 H :    0.020589
  33 H :    0.023198

  Mayer bond orders larger than 0.100000
B(  0-S ,  1-C ) :   1.1322 B(  0-S ,  4-C ) :   1.1330 B(  1-C ,  2-C ) :   1.6280
B(  1-C , 32-H ) :   0.9710 B(  2-C ,  3-C ) :   1.2167 B(  2-C ,  6-C ) :   1.0271
B(  3-C ,  4-C ) :   1.5835 B(  3-C ,  5-H ) :   0.9978 B(  4-C , 20-C ) :   1.0456
B(  6-C ,  7-H ) :   0.9405 B(  6-C ,  8-H ) :   0.9386 B(  6-C ,  9-C ) :   1.0483
B(  9-C , 10-H ) :   0.9637 B(  9-C , 11-H ) :   0.9524 B(  9-C , 12-C ) :   1.0679
B( 12-C , 13-H ) :   0.9798 B( 12-C , 14-H ) :   0.9772 B( 12-C , 15-H ) :   0.9788
B( 16-S , 17-C ) :   1.1350 B( 16-S , 20-C ) :   1.1282 B( 17-C , 18-C ) :   1.6346
B( 17-C , 33-H ) :   0.9709 B( 18-C , 19-C ) :   1.2026 B( 18-C , 21-H ) :   0.9860
B( 19-C , 20-C ) :   1.6212 B( 19-C , 22-C ) :   1.0637 B( 22-C , 23-H ) :   0.9352
B( 22-C , 24-H ) :   0.9274 B( 22-C , 25-C ) :   1.0645 B( 25-C , 26-H ) :   0.9583
B( 25-C , 27-H ) :   0.9578 B( 25-C , 28-C ) :   1.0694 B( 28-C , 29-H ) :   0.9775
B( 28-C , 30-H ) :   0.9755 B( 28-C , 31-H ) :   0.9749

Dispersion correction           -0.013936328
FINAL SINGLE POINT ENERGY     -1339.868375060860

DIPOLE MOMENT
-------------
                                X             Y             Z
Electronic contribution:    -23.53051      -7.22115      17.83976
Nuclear contribution   :     24.19520       7.22016     -18.27321
                        -----------------------------------------
Total Dipole Moment    :      0.66469      -0.00099      -0.43345
                        -----------------------------------------
Magnitude (a.u.)       :      0.79353
Magnitude (Debye)      :      2.01700

Rotational constants in cm-1:     0.018172     0.008677     0.006424
Rotational constants in MHz :   544.788843   260.141025   192.575526

                             ****ORCA TERMINATED NORMALLY****
TOTAL RUN TIME: 0 days 0 hours 0 minutes 21 seconds 440 msec
