                         Program Version 4.2.1 -  RELEASE  -
|  1> ! wB97X-D3 SP def2-SVP
|  2> %pal
|  3> nprocs 24
|  4> end
|  5>
|  6> * xyz 0 1
|  7> S 	 -50.8433 	 13.9478 	 26.5837
|  8> C 	 -52.3975 	 13.0334 	 26.5044
|  9> C 	 -52.419 	 12.2478 	 25.328
| 10> C 	 -51.2362 	 12.395 	 24.5129
| 11> C 	 -50.3762 	 13.3911 	 24.9281
| 12> H 	 -51.0576 	 11.9929 	 23.5798
| 13> C 	 -53.6377 	 11.4742 	 24.8889
| 14> H 	 -54.1127 	 11.8933 	 23.9326
| 15> H 	 -54.4552 	 11.6059 	 25.6085
| 16> C 	 -53.4268 	 9.88176 	 24.7621
| 17> H 	 -52.7743 	 9.73681 	 23.8762
| 18> H 	 -52.8289 	 9.55977 	 25.6803
| 19> C 	 -54.7862 	 9.14017 	 24.638
| 20> H 	 -54.7542 	 8.08883 	 24.9242
| 21> H 	 -55.6027 	 9.48442 	 25.3037
| 22> H 	 -55.2274 	 9.13092 	 23.6228
| 23> S 	 -49.8952 	 15.2103 	 23.0335
| 24> C 	 -48.4937 	 14.9711 	 21.9293
| 25> C 	 -47.5915 	 14.0615 	 22.4826
| 26> C 	 -48.1228 	 13.5186 	 23.6679
| 27> C 	 -49.3643 	 13.9579 	 24.0559
| 28> H 	 -46.7772 	 13.7728 	 21.914
| 29> C 	 -47.393 	 12.2969 	 24.3339
| 30> H 	 -46.4529 	 12.4771 	 23.7734
| 31> H 	 -47.7945 	 11.3551 	 23.9752
| 32> C 	 -47.1828 	 12.1745 	 25.8583
| 33> H 	 -46.7273 	 11.226 	 26.1728
| 34> H 	 -48.1403 	 12.3101 	 26.2637
| 35> C 	 -46.2439 	 13.1724 	 26.5435
| 36> H 	 -46.6633 	 14.1711 	 26.4073
| 37> H 	 -45.1227 	 13.0267 	 26.3506
| 38> H 	 -46.3312 	 13.0157 	 27.5989
| 39> H 	 -53.2056 	 13.2477 	 27.1522
| 40> H 	 -48.3909 	 15.4465 	 21.0115
| 41> *
| 42>
| 43>                          ****END OF INPUT****

CARTESIAN COORDINATES (ANGSTROEM)
---------------------------------
  S    -50.843300   13.947800   26.583700
  C    -52.397500   13.033400   26.504400
  C    -52.419000   12.247800   25.328000
  C    -51.236200   12.395000   24.512900
  C    -50.376200   13.391100   24.928100
  H    -51.057600   11.992900   23.579800
  C    -53.637700   11.474200   24.888900
  H    -54.112700   11.893300   23.932600
  H    -54.455200   11.605900   25.608500
  C    -53.426800    9.881760   24.762100
  H    -52.774300    9.736810   23.876200
  H    -52.828900    9.559770   25.680300
  C    -54.786200    9.140170   24.638000
  H    -54.754200    8.088830   24.924200
  H    -55.602700    9.484420   25.303700
  H    -55.227400    9.130920   23.622800
  S    -49.895200   15.210300   23.033500
  C    -48.493700   14.971100   21.929300
  C    -47.591500   14.061500   22.482600
  C    -48.122800   13.518600   23.667900
  C    -49.364300   13.957900   24.055900
  H    -46.777200   13.772800   21.914000
  C    -47.393000   12.296900   24.333900
  H    -46.452900   12.477100   23.773400
  H    -47.794500   11.355100   23.975200
  C    -47.182800   12.174500   25.858300
  H    -46.727300   11.226000   26.172800
  H    -48.140300   12.310100   26.263700
  C    -46.243900   13.172400   26.543500
  H    -46.663300   14.171100   26.407300
  H    -45.122700   13.026700   26.350600
  H    -46.331200   13.015700   27.598900
  H    -53.205600   13.247700   27.152200
  H    -48.390900   15.446500   21.011500

 Total Charge           Charge          ....    0
 Multiplicity           Mult            ....    1
 Number of Electrons    NEL             ....  134
 Basis Dimension        Dim             ....  322

ORBITAL ENERGIES
----------------

  NO   OCC          E(Eh)            E(eV)
   0   2.0000     -88.966979     -2420.9146
   1   2.0000     -88.966495     -2420.9014
   2   2.0000     -10.335475      -281.2426
   3   2.0000     -10.322095      -280.8785
   4   2.0000     -10.321097      -280.8513
   5   2.0000     -10.321046      -280.8499
   6   2.0000     -10.311411      -280.5878
   7   2.0000     -10.304656      -280.4040
   8   2.0000     -10.303702      -280.3780
   9   2.0000     -10.301951      -280.3303
  10   2.0000     -10.294553      -280.1290
  11   2.0000     -10.294271      -280.1213
  12   2.0000     -10.290125      -280.0085
  13   2.0000     -10.285600      -279.8854
  14   2.0000     -10.277334      -279.6605
  15   2.0000     -10.272376      -279.5255
  16   2.0000      -8.081454      -219.9076
  17   2.0000      -8.079727      -219.8606
  18   2.0000      -6.039867      -164.3531
  19   2.0000      -6.038376      -164.3126
  20   2.0000      -6.035830      -164.2433
  21   2.0000      -6.034528      -164.2078
  22   2.0000      -6.032370      -164.1491
  23   2.0000      -6.030424      -164.0962
  24   2.0000      -1.007919       -27.4269
  25   2.0000      -0.976253       -26.5652
  26   2.0000      -0.899540       -24.4777
  27   2.0000      -0.898315       -24.4444
  28   2.0000      -0.873057       -23.7571
  29   2.0000      -0.848073       -23.0773
  30   2.0000      -0.842632       -22.9292
  31   2.0000      -0.818371       -22.2690
  32   2.0000      -0.776816       -21.1382
  33   2.0000      -0.766939       -20.8695
  34   2.0000      -0.712172       -19.3792
  35   2.0000      -0.697050       -18.9677
  36   2.0000      -0.686777       -18.6881
  37   2.0000      -0.674361       -18.3503
  38   2.0000      -0.649720       -17.6798
  39   2.0000      -0.619142       -16.8477
  40   2.0000      -0.585333       -15.9277
  41   2.0000      -0.569572       -15.4988
  42   2.0000      -0.556976       -15.1561
  43   2.0000      -0.554386       -15.0856
  44   2.0000      -0.541519       -14.7355
  45   2.0000      -0.523556       -14.2467
  46   2.0000      -0.518133       -14.0991
  47   2.0000      -0.511325       -13.9139
  48   2.0000      -0.503686       -13.7060
  49   2.0000      -0.498114       -13.5544
  50   2.0000      -0.482260       -13.1230
  51   2.0000      -0.477767       -13.0007
  52   2.0000      -0.469847       -12.7852
  53   2.0000      -0.465687       -12.6720
  54   2.0000      -0.456617       -12.4252
  55   2.0000      -0.451120       -12.2756
  56   2.0000      -0.446392       -12.1469
  57   2.0000      -0.432589       -11.7714
  58   2.0000      -0.425790       -11.5863
  59   2.0000      -0.424204       -11.5432
  60   2.0000      -0.411616       -11.2006
  61   2.0000      -0.410348       -11.1661
  62   2.0000      -0.401756       -10.9323
  63   2.0000      -0.344222        -9.3668
  64   2.0000      -0.329241        -8.9591
  65   2.0000      -0.314765        -8.5652
  66   2.0000      -0.311926        -8.4879
  67   0.0000       0.036712         0.9990
  68   0.0000       0.041835         1.1384
  69   0.0000       0.108276         2.9463
  70   0.0000       0.118592         3.2271
  71   0.0000       0.119083         3.2404

MULLIKEN ATOMIC CHARGES
-----------------------
   0 S :    0.089859
   1 C :   -0.110865
   2 C :   -0.061743
   3 C :    0.104268
   4 C :   -0.182582
   5 H :   -0.010433
   6 C :    0.010546
   7 H :    0.052568
   8 H :    0.012505
   9 C :   -0.097341
  10 H :    0.045489
  11 H :    0.052881
  12 C :   -0.068451
  13 H :    0.033536
  14 H :    0.031359
  15 H :    0.039709
  16 S :    0.114747
  17 C :   -0.090533
  18 C :   -0.003905
  19 C :   -0.043624
  20 C :   -0.163954
  21 H :    0.006034
  22 C :    0.073355
  23 H :    0.007386
  24 H :    0.038382
  25 C :   -0.042157
  26 H :    0.028078
  27 H :    0.019982
  28 C :   -0.072394
  29 H :    0.033793
  30 H :    0.044800
  31 H :    0.022008
  32 H :    0.049957
  33 H :    0.036741
Sum of atomic charges:   -0.0000000

LOEWDIN ATOMIC CHARGES
----------------------
   0 S :    0.353962
   1 C :   -0.172932
   2 C :   -0.057382
   3 C :   -0.041507
   4 C :   -0.177161
   5 H :    0.020988
   6 C :   -0.041893
   7 H :    0.038964
   8 H :    0.024707
   9 C :   -0.042787
  10 H :    0.026491
  11 H :    0.034786
  12 C :   -0.081186
  13 H :    0.028177
  14 H :    0.028302
  15 H :    0.030087
  16 S :    0.420002
  17 C :   -0.150863
  18 C :   -0.062430
  19 C :   -0.055631
  20 C :   -0.224334
  21 H :    0.025473
  22 C :   -0.032490
  23 H :    0.028300
  24 H :    0.031969
  25 C :   -0.040293
  26 H :    0.029256
  27 H :    0.014986
  28 C :   -0.072564
  29 H :    0.024484
  30 H :    0.032264
  31 H :    0.022840
  32 H :    0.022739
  33 H :    0.014674

  Mayer bond orders larger than 0.100000
B(  0-S ,  1-C ) :   1.1202 B(  0-S ,  4-C ) :   1.1167 B(  1-C ,  2-C ) :   1.6183
B(  1-C , 32-H ) :   0.9736 B(  2-C ,  3-C ) :   1.1973 B(  2-C ,  6-C ) :   1.0425
B(  3-C ,  4-C ) :   1.6195 B(  3-C ,  5-H ) :   0.9986 B(  4-C , 20-C ) :   1.0232
B(  6-C ,  7-H ) :   0.9437 B(  6-C ,  8-H ) :   0.9469 B(  6-C ,  9-C ) :   1.0319
B(  9-C , 10-H ) :   0.9598 B(  9-C , 11-H ) :   0.9613 B(  9-C , 12-C ) :   1.0680
B( 12-C , 13-H ) :   0.9760 B( 12-C , 14-H ) :   0.9756 B( 12-C , 15-H ) :   0.9761
B( 16-S , 17-C ) :   1.1737 B( 16-S , 20-C ) :   1.1480 B( 17-C , 18-C ) :   1.5884
B( 17-C , 33-H ) :   0.9752 B( 18-C , 19-C ) :   1.2639 B( 18-C , 21-H ) :   1.0010
B( 19-C , 20-C ) :   1.5914 B( 19-C , 22-C ) :   1.0014 B( 22-C , 23-H ) :   0.9393
B( 22-C , 24-H ) :   0.9389 B( 22-C , 25-C ) :   1.0647 B( 25-C , 26-H ) :   0.9557
B( 25-C , 27-H ) :   0.9525 B( 25-C , 28-C ) :   1.0918 B( 28-C , 29-H ) :   0.9733
B( 28-C , 30-H ) :   0.9738 B( 28-C , 31-H ) :   0.9714

Dispersion correction           -0.014447425
FINAL SINGLE POINT ENERGY     -1339.845400278648

DIPOLE MOMENT
-------------
                                X             Y             Z
Electronic contribution:      1.60542      20.85185      -3.25688
Nuclear contribution   :     -1.81818     -21.37217       2.84613
                        -----------------------------------------
Total Dipole Moment    :     -0.21276      -0.52033      -0.41074
                        -----------------------------------------
Magnitude (a.u.)       :      0.69622
Magnitude (Debye)      :      1.76964

Rotational constants in cm-1:     0.018824     0.007804     0.007150
Rotational constants in MHz :   564.316335   233.971140   214.354294

                             ****ORCA TERMINATED NORMALLY****
TOTAL RUN TIME: 0 days 0 hours 0 minutes 20 seconds 163 msec
