                         Program Version 4.2.1 -  RELEASE  -
|  1> ! wB97X-D3 SP def2-SVP
|  2> %pal
|  3> nprocs 24
|  4> end
|  5>
|  6> * xyz 0 1
|  7> S 	 -51.131 	 11.7771 	 -100.842
|  8> C 	 -49.8348 	 12.0208 	 -99.7582
|  9> C 	 -50.1709 	 13.026 	 -98.8133
| 10> C 	 -51.4564 	 13.5873 	 -99.0018
| 11> C 	 -52.1821 	 12.925 	 -100.019
| 12> H 	 -51.9294 	 14.3642 	 -98.3228
| 13> C 	 -49.3073 	 13.4331 	 -97.5857
| 14> H 	 -49.6714 	 14.4664 	 -97.251
| 15> H 	 -48.3368 	 13.6039 	 -97.9122
| 16> C 	 -49.1774 	 12.4375 	 -96.4564
| 17> H 	 -48.3334 	 11.8416 	 -96.7927
| 18> H 	 -48.8404 	 12.9857 	 -95.5953
| 19> C 	 -50.4632 	 11.7622 	 -95.9786
| 20> H 	 -50.9311 	 11.2466 	 -96.8034
| 21> H 	 -50.1703 	 10.9964 	 -95.2048
| 22> H 	 -51.1516 	 12.5645 	 -95.571
| 23> S 	 -54.608 	 13.9736 	 -99.0325
| 24> C 	 -55.9827 	 13.9662 	 -100.086
| 25> C 	 -55.7261 	 13.4092 	 -101.305
| 26> C 	 -54.3661 	 13.0016 	 -101.477
| 27> C 	 -53.5692 	 13.2926 	 -100.364
| 28> H 	 -56.4572 	 13.3714 	 -102.015
| 29> C 	 -53.8551 	 12.5637 	 -102.818
| 30> H 	 -52.8017 	 12.8146 	 -102.928
| 31> H 	 -54.3228 	 13.3096 	 -103.445
| 32> C 	 -54.1829 	 11.1794 	 -103.407
| 33> H 	 -55.2166 	 10.9114 	 -103.41
| 34> H 	 -53.6983 	 10.478 	 -102.768
| 35> C 	 -53.6279 	 11.0402 	 -104.812
| 36> H 	 -52.6161 	 11.2653 	 -104.906
| 37> H 	 -54.0927 	 11.773 	 -105.509
| 38> H 	 -53.8117 	 10.0305 	 -105.178
| 39> H 	 -48.986 	 11.3646 	 -99.77
| 40> H 	 -56.9417 	 14.4246 	 -99.8267
| 41> *
| 42>
| 43>                          ****END OF INPUT****

CARTESIAN COORDINATES (ANGSTROEM)
---------------------------------
  S    -51.131000   11.777100  -100.842000
  C    -49.834800   12.020800  -99.758200
  C    -50.170900   13.026000  -98.813300
  C    -51.456400   13.587300  -99.001800
  C    -52.182100   12.925000  -100.019000
  H    -51.929400   14.364200  -98.322800
  C    -49.307300   13.433100  -97.585700
  H    -49.671400   14.466400  -97.251000
  H    -48.336800   13.603900  -97.912200
  C    -49.177400   12.437500  -96.456400
  H    -48.333400   11.841600  -96.792700
  H    -48.840400   12.985700  -95.595300
  C    -50.463200   11.762200  -95.978600
  H    -50.931100   11.246600  -96.803400
  H    -50.170300   10.996400  -95.204800
  H    -51.151600   12.564500  -95.571000
  S    -54.608000   13.973600  -99.032500
  C    -55.982700   13.966200  -100.086000
  C    -55.726100   13.409200  -101.305000
  C    -54.366100   13.001600  -101.477000
  C    -53.569200   13.292600  -100.364000
  H    -56.457200   13.371400  -102.015000
  C    -53.855100   12.563700  -102.818000
  H    -52.801700   12.814600  -102.928000
  H    -54.322800   13.309600  -103.445000
  C    -54.182900   11.179400  -103.407000
  H    -55.216600   10.911400  -103.410000
  H    -53.698300   10.478000  -102.768000
  C    -53.627900   11.040200  -104.812000
  H    -52.616100   11.265300  -104.906000
  H    -54.092700   11.773000  -105.509000
  H    -53.811700   10.030500  -105.178000
  H    -48.986000   11.364600  -99.770000
  H    -56.941700   14.424600  -99.826700

 Total Charge           Charge          ....    0
 Multiplicity           Mult            ....    1
 Number of Electrons    NEL             ....  134
 Basis Dimension        Dim             ....  322

ORBITAL ENERGIES
----------------

  NO   OCC          E(Eh)            E(eV)
   0   2.0000     -88.972965     -2421.0775
   1   2.0000     -88.965024     -2420.8614
   2   2.0000     -10.335935      -281.2551
   3   2.0000     -10.333304      -281.1835
   4   2.0000     -10.317052      -280.7413
   5   2.0000     -10.315418      -280.6968
   6   2.0000     -10.305635      -280.4306
   7   2.0000     -10.303926      -280.3841
   8   2.0000     -10.299185      -280.2551
   9   2.0000     -10.288240      -279.9572
  10   2.0000     -10.288092      -279.9532
  11   2.0000     -10.285878      -279.8930
  12   2.0000     -10.281192      -279.7655
  13   2.0000     -10.280368      -279.7430
  14   2.0000     -10.279791      -279.7273
  15   2.0000     -10.273020      -279.5431
  16   2.0000      -8.087274      -220.0659
  17   2.0000      -8.079049      -219.8421
  18   2.0000      -6.045803      -164.5147
  19   2.0000      -6.041553      -164.3990
  20   2.0000      -6.038356      -164.3120
  21   2.0000      -6.037737      -164.2952
  22   2.0000      -6.033766      -164.1871
  23   2.0000      -6.029585      -164.0733
  24   2.0000      -1.002498       -27.2794
  25   2.0000      -0.982949       -26.7474
  26   2.0000      -0.911992       -24.8166
  27   2.0000      -0.909663       -24.7532
  28   2.0000      -0.867976       -23.6188
  29   2.0000      -0.856790       -23.3145
  30   2.0000      -0.845612       -23.0103
  31   2.0000      -0.809579       -22.0298
  32   2.0000      -0.784107       -21.3366
  33   2.0000      -0.770947       -20.9785
  34   2.0000      -0.710419       -19.3315
  35   2.0000      -0.695487       -18.9252
  36   2.0000      -0.693291       -18.8654
  37   2.0000      -0.666258       -18.1298
  38   2.0000      -0.636818       -17.3287
  39   2.0000      -0.608164       -16.5490
  40   2.0000      -0.597379       -16.2555
  41   2.0000      -0.569620       -15.5001
  42   2.0000      -0.564441       -15.3592
  43   2.0000      -0.555980       -15.1290
  44   2.0000      -0.541828       -14.7439
  45   2.0000      -0.530918       -14.4470
  46   2.0000      -0.517696       -14.0872
  47   2.0000      -0.508729       -13.8432
  48   2.0000      -0.504953       -13.7405
  49   2.0000      -0.492440       -13.4000
  50   2.0000      -0.485811       -13.2196
  51   2.0000      -0.479787       -13.0557
  52   2.0000      -0.472488       -12.8571
  53   2.0000      -0.464919       -12.6511
  54   2.0000      -0.458018       -12.4633
  55   2.0000      -0.451506       -12.2861
  56   2.0000      -0.446050       -12.1376
  57   2.0000      -0.437244       -11.8980
  58   2.0000      -0.434101       -11.8125
  59   2.0000      -0.421475       -11.4689
  60   2.0000      -0.421253       -11.4629
  61   2.0000      -0.414430       -11.2772
  62   2.0000      -0.405644       -11.0381
  63   2.0000      -0.361766        -9.8442
  64   2.0000      -0.333126        -9.0648
  65   2.0000      -0.329742        -8.9727
  66   2.0000      -0.278792        -7.5863
  67   0.0000       0.017629         0.4797
  68   0.0000       0.081996         2.2312
  69   0.0000       0.105625         2.8742
  70   0.0000       0.110315         3.0018
  71   0.0000       0.134178         3.6512

MULLIKEN ATOMIC CHARGES
-----------------------
   0 S :    0.117281
   1 C :   -0.130386
   2 C :   -0.090298
   3 C :   -0.037221
   4 C :   -0.112990
   5 H :    0.049143
   6 C :    0.073947
   7 H :    0.024040
   8 H :    0.007764
   9 C :   -0.067137
  10 H :    0.023212
  11 H :    0.023429
  12 C :   -0.062124
  13 H :    0.046299
  14 H :    0.045650
  15 H :    0.044482
  16 S :    0.075253
  17 C :   -0.081111
  18 C :    0.016110
  19 C :   -0.036922
  20 C :   -0.127021
  21 H :   -0.023935
  22 C :   -0.005027
  23 H :    0.021347
  24 H :    0.019251
  25 C :   -0.006732
  26 H :    0.022468
  27 H :    0.018026
  28 C :   -0.035240
  29 H :    0.015700
  30 H :    0.023308
  31 H :    0.035846
  32 H :    0.050961
  33 H :    0.062624
Sum of atomic charges:   -0.0000000

LOEWDIN ATOMIC CHARGES
----------------------
   0 S :    0.436923
   1 C :   -0.219656
   2 C :   -0.059668
   3 C :   -0.079895
   4 C :   -0.190748
   5 H :    0.039593
   6 C :   -0.031192
   7 H :    0.031680
   8 H :    0.020447
   9 C :   -0.047520
  10 H :    0.022534
  11 H :    0.025634
  12 C :   -0.067667
  13 H :    0.023077
  14 H :    0.033874
  15 H :    0.034865
  16 S :    0.380225
  17 C :   -0.181055
  18 C :   -0.060857
  19 C :   -0.055695
  20 C :   -0.169847
  21 H :    0.015456
  22 C :   -0.040940
  23 H :    0.024857
  24 H :    0.033043
  25 C :   -0.031329
  26 H :    0.021950
  27 H :    0.019797
  28 C :   -0.058811
  29 H :    0.015869
  30 H :    0.027372
  31 H :    0.028423
  32 H :    0.025550
  33 H :    0.033712

  Mayer bond orders larger than 0.100000
B(  0-S ,  1-C ) :   1.1609 B(  0-S ,  4-C ) :   1.1691 B(  1-C ,  2-C ) :   1.5324
B(  1-C ,  4-C ) :   0.1038 B(  1-C , 32-H ) :   0.9779 B(  2-C ,  3-C ) :   1.3109
B(  2-C ,  6-C ) :   1.0136 B(  3-C ,  4-C ) :   1.4876 B(  3-C ,  5-H ) :   0.9748
B(  4-C , 20-C ) :   1.0921 B(  6-C ,  7-H ) :   0.9443 B(  6-C ,  8-H ) :   0.9390
B(  6-C ,  9-C ) :   1.0756 B(  9-C , 10-H ) :   0.9575 B(  9-C , 11-H ) :   0.9519
B(  9-C , 12-C ) :   1.0764 B( 12-C , 13-H ) :   0.9728 B( 12-C , 14-H ) :   0.9736
B( 12-C , 15-H ) :   0.9732 B( 16-S , 17-C ) :   1.1463 B( 16-S , 20-C ) :   1.1101
B( 17-C , 18-C ) :   1.6246 B( 17-C , 33-H ) :   0.9617 B( 18-C , 19-C ) :   1.2237
B( 18-C , 21-H ) :   1.0059 B( 19-C , 20-C ) :   1.5929 B( 19-C , 22-C ) :   1.0281
B( 22-C , 23-H ) :   0.9433 B( 22-C , 24-H ) :   0.9343 B( 22-C , 25-C ) :   1.0550
B( 25-C , 26-H ) :   0.9549 B( 25-C , 27-H ) :   0.9484 B( 25-C , 28-C ) :   1.0899
B( 28-C , 29-H ) :   0.9738 B( 28-C , 30-H ) :   0.9731 B( 28-C , 31-H ) :   0.9734

Dispersion correction           -0.014325493
FINAL SINGLE POINT ENERGY     -1339.876777144837

DIPOLE MOMENT
-------------
                                X             Y             Z
Electronic contribution:     -6.49515       6.50112       1.45425
Nuclear contribution   :      6.55131      -6.54873      -1.54803
                        -----------------------------------------
Total Dipole Moment    :      0.05616      -0.04761      -0.09377
                        -----------------------------------------
Magnitude (a.u.)       :      0.11923
Magnitude (Debye)      :      0.30305

Rotational constants in cm-1:     0.020748     0.008436     0.006391
Rotational constants in MHz :   621.997842   252.899290   191.590716

                             ****ORCA TERMINATED NORMALLY****
TOTAL RUN TIME: 0 days 0 hours 0 minutes 22 seconds 338 msec
