                         Program Version 4.2.1 -  RELEASE  -
|  1> ! wB97X-D3 SP def2-SVP
|  2> %pal
|  3> nprocs 24
|  4> end
|  5>
|  6> * xyz 0 1
|  7> S 	 -53.0947 	 12.1286 	 25.9637
|  8> C 	 -54.7395 	 11.9381 	 25.5392
|  9> C 	 -55.4841 	 13.0455 	 25.8082
| 10> C 	 -54.7407 	 13.9656 	 26.6042
| 11> C 	 -53.3482 	 13.7492 	 26.6657
| 12> H 	 -55.1467 	 14.8067 	 27.1669
| 13> C 	 -56.9625 	 13.153 	 25.6107
| 14> H 	 -57.3848 	 12.1696 	 25.8709
| 15> H 	 -57.0404 	 13.2034 	 24.512
| 16> C 	 -57.7274 	 14.2979 	 26.3361
| 17> H 	 -57.5907 	 14.2034 	 27.408
| 18> H 	 -57.2741 	 15.2377 	 26.138
| 19> C 	 -59.2275 	 14.4402 	 26.2636
| 20> H 	 -59.4938 	 15.4173 	 26.6607
| 21> H 	 -59.5763 	 14.3073 	 25.2286
| 22> H 	 -59.8455 	 13.653 	 26.7361
| 23> S 	 -51.9869 	 13.9146 	 28.9911
| 24> C 	 -50.947 	 15.3547 	 29.3472
| 25> C 	 -51.1434 	 16.2189 	 28.3018
| 26> C 	 -51.8379 	 15.7125 	 27.1859
| 27> C 	 -52.4129 	 14.5249 	 27.4075
| 28> H 	 -50.8776 	 17.1931 	 28.5196
| 29> C 	 -52.1368 	 16.653 	 26.0035
| 30> H 	 -52.3245 	 15.9323 	 25.1841
| 31> H 	 -51.1863 	 17.1694 	 25.871
| 32> C 	 -53.4132 	 17.5309 	 26.2208
| 33> H 	 -54.182 	 16.8158 	 26.2921
| 34> H 	 -53.6073 	 18.0492 	 25.3157
| 35> C 	 -53.4286 	 18.5118 	 27.355
| 36> H 	 -54.3591 	 19.0893 	 27.4502
| 37> H 	 -52.5551 	 19.1802 	 27.3642
| 38> H 	 -53.508 	 18.084 	 28.3325
| 39> H 	 -55.1211 	 11.0613 	 25.0561
| 40> H 	 -50.677 	 15.5868 	 30.3386
| 41> *
| 42>
| 43>                          ****END OF INPUT****

CARTESIAN COORDINATES (ANGSTROEM)
---------------------------------
  S    -53.094700   12.128600   25.963700
  C    -54.739500   11.938100   25.539200
  C    -55.484100   13.045500   25.808200
  C    -54.740700   13.965600   26.604200
  C    -53.348200   13.749200   26.665700
  H    -55.146700   14.806700   27.166900
  C    -56.962500   13.153000   25.610700
  H    -57.384800   12.169600   25.870900
  H    -57.040400   13.203400   24.512000
  C    -57.727400   14.297900   26.336100
  H    -57.590700   14.203400   27.408000
  H    -57.274100   15.237700   26.138000
  C    -59.227500   14.440200   26.263600
  H    -59.493800   15.417300   26.660700
  H    -59.576300   14.307300   25.228600
  H    -59.845500   13.653000   26.736100
  S    -51.986900   13.914600   28.991100
  C    -50.947000   15.354700   29.347200
  C    -51.143400   16.218900   28.301800
  C    -51.837900   15.712500   27.185900
  C    -52.412900   14.524900   27.407500
  H    -50.877600   17.193100   28.519600
  C    -52.136800   16.653000   26.003500
  H    -52.324500   15.932300   25.184100
  H    -51.186300   17.169400   25.871000
  C    -53.413200   17.530900   26.220800
  H    -54.182000   16.815800   26.292100
  H    -53.607300   18.049200   25.315700
  C    -53.428600   18.511800   27.355000
  H    -54.359100   19.089300   27.450200
  H    -52.555100   19.180200   27.364200
  H    -53.508000   18.084000   28.332500
  H    -55.121100   11.061300   25.056100
  H    -50.677000   15.586800   30.338600

 Total Charge           Charge          ....    0
 Multiplicity           Mult            ....    1
 Number of Electrons    NEL             ....  134
 Basis Dimension        Dim             ....  322

ORBITAL ENERGIES
----------------

  NO   OCC          E(Eh)            E(eV)
   0   2.0000     -88.966013     -2420.8883
   1   2.0000     -88.955723     -2420.6083
   2   2.0000     -10.329028      -281.0672
   3   2.0000     -10.320104      -280.8243
   4   2.0000     -10.314901      -280.6827
   5   2.0000     -10.310383      -280.5598
   6   2.0000     -10.299029      -280.2508
   7   2.0000     -10.298370      -280.2329
   8   2.0000     -10.297922      -280.2207
   9   2.0000     -10.294563      -280.1293
  10   2.0000     -10.292810      -280.0816
  11   2.0000     -10.287944      -279.9492
  12   2.0000     -10.285812      -279.8912
  13   2.0000     -10.283203      -279.8202
  14   2.0000     -10.281539      -279.7749
  15   2.0000     -10.276593      -279.6403
  16   2.0000      -8.080736      -219.8880
  17   2.0000      -8.070238      -219.6023
  18   2.0000      -6.039178      -164.3344
  19   2.0000      -6.035140      -164.2245
  20   2.0000      -6.031658      -164.1297
  21   2.0000      -6.028807      -164.0522
  22   2.0000      -6.024809      -163.9434
  23   2.0000      -6.020880      -163.8365
  24   2.0000      -1.009231       -27.4626
  25   2.0000      -0.987721       -26.8773
  26   2.0000      -0.913109       -24.8470
  27   2.0000      -0.905772       -24.6473
  28   2.0000      -0.879570       -23.9343
  29   2.0000      -0.853473       -23.2242
  30   2.0000      -0.846678       -23.0393
  31   2.0000      -0.819416       -22.2974
  32   2.0000      -0.783699       -21.3255
  33   2.0000      -0.775790       -21.1103
  34   2.0000      -0.721135       -19.6231
  35   2.0000      -0.705578       -19.1998
  36   2.0000      -0.694301       -18.8929
  37   2.0000      -0.668636       -18.1945
  38   2.0000      -0.644744       -17.5444
  39   2.0000      -0.617106       -16.7923
  40   2.0000      -0.584616       -15.9082
  41   2.0000      -0.573717       -15.6116
  42   2.0000      -0.567837       -15.4516
  43   2.0000      -0.563264       -15.3272
  44   2.0000      -0.539310       -14.6754
  45   2.0000      -0.536177       -14.5901
  46   2.0000      -0.524163       -14.2632
  47   2.0000      -0.509384       -13.8610
  48   2.0000      -0.505850       -13.7649
  49   2.0000      -0.499791       -13.6000
  50   2.0000      -0.499109       -13.5814
  51   2.0000      -0.486443       -13.2368
  52   2.0000      -0.477661       -12.9978
  53   2.0000      -0.473148       -12.8750
  54   2.0000      -0.453213       -12.3325
  55   2.0000      -0.452623       -12.3165
  56   2.0000      -0.438208       -11.9242
  57   2.0000      -0.433993       -11.8096
  58   2.0000      -0.432501       -11.7690
  59   2.0000      -0.426531       -11.6065
  60   2.0000      -0.422147       -11.4872
  61   2.0000      -0.410083       -11.1589
  62   2.0000      -0.405908       -11.0453
  63   2.0000      -0.337426        -9.1818
  64   2.0000      -0.324406        -8.8275
  65   2.0000      -0.323168        -8.7939
  66   2.0000      -0.307614        -8.3706
  67   0.0000       0.035174         0.9571
  68   0.0000       0.053855         1.4655
  69   0.0000       0.117624         3.2007
  70   0.0000       0.126953         3.4546
  71   0.0000       0.131938         3.5902

MULLIKEN ATOMIC CHARGES
-----------------------
   0 S :    0.126130
   1 C :   -0.129359
   2 C :   -0.075237
   3 C :    0.004040
   4 C :   -0.170005
   5 H :    0.031903
   6 C :    0.076255
   7 H :    0.031283
   8 H :    0.037746
   9 C :   -0.088442
  10 H :    0.028811
  11 H :    0.024271
  12 C :   -0.029167
  13 H :    0.039508
  14 H :    0.019689
  15 H :    0.032332
  16 S :    0.076998
  17 C :   -0.081146
  18 C :   -0.028505
  19 C :   -0.030472
  20 C :   -0.177300
  21 H :   -0.004874
  22 C :    0.064646
  23 H :    0.037390
  24 H :    0.028915
  25 C :    0.014405
  26 H :   -0.011258
  27 H :    0.022956
  28 C :   -0.050135
  29 H :    0.027121
  30 H :    0.035383
  31 H :    0.020044
  32 H :    0.043348
  33 H :    0.052726
Sum of atomic charges:   -0.0000000

LOEWDIN ATOMIC CHARGES
----------------------
   0 S :    0.417502
   1 C :   -0.199037
   2 C :   -0.073476
   3 C :   -0.053374
   4 C :   -0.203465
   5 H :    0.029828
   6 C :   -0.033925
   7 H :    0.034637
   8 H :    0.037766
   9 C :   -0.048097
  10 H :    0.028280
  11 H :    0.020254
  12 C :   -0.064731
  13 H :    0.031649
  14 H :    0.023091
  15 H :    0.027319
  16 S :    0.373311
  17 C :   -0.157450
  18 C :   -0.059256
  19 C :   -0.062565
  20 C :   -0.197535
  21 H :    0.019601
  22 C :   -0.021783
  23 H :    0.037775
  24 H :    0.027630
  25 C :   -0.031074
  26 H :    0.017331
  27 H :    0.023097
  28 C :   -0.073029
  29 H :    0.032684
  30 H :    0.026561
  31 H :    0.022685
  32 H :    0.026544
  33 H :    0.021254

  Mayer bond orders larger than 0.100000
B(  0-S ,  1-C ) :   1.1698 B(  0-S ,  4-C ) :   1.1375 B(  1-C ,  2-C ) :   1.5894
B(  1-C ,  4-C ) :   0.1034 B(  1-C , 32-H ) :   0.9716 B(  2-C ,  3-C ) :   1.2733
B(  2-C ,  6-C ) :   1.0032 B(  3-C ,  4-C ) :   1.5559 B(  3-C ,  5-H ) :   0.9718
B(  4-C , 20-C ) :   1.0437 B(  6-C ,  7-H ) :   0.9450 B(  6-C ,  8-H ) :   0.9232
B(  6-C ,  9-C ) :   1.0827 B(  9-C , 10-H ) :   0.9476 B(  9-C , 11-H ) :   0.9490
B(  9-C , 12-C ) :   1.0877 B( 12-C , 13-H ) :   0.9704 B( 12-C , 14-H ) :   0.9732
B( 12-C , 15-H ) :   0.9739 B( 16-S , 17-C ) :   1.1300 B( 16-S , 20-C ) :   1.1454
B( 17-C , 18-C ) :   1.6377 B( 17-C , 20-C ) :   0.1003 B( 17-C , 33-H ) :   0.9695
B( 18-C , 19-C ) :   1.2103 B( 18-C , 21-H ) :   0.9938 B( 19-C , 20-C ) :   1.6352
B( 19-C , 22-C ) :   1.0329 B( 22-C , 23-H ) :   0.9280 B( 22-C , 24-H ) :   0.9384
B( 22-C , 25-C ) :   1.0703 B( 25-C , 26-H ) :   0.9436 B( 25-C , 27-H ) :   0.9520
B( 25-C , 28-C ) :   1.0914 B( 28-C , 29-H ) :   0.9658 B( 28-C , 30-H ) :   0.9741
B( 28-C , 31-H ) :   0.9651

Dispersion correction           -0.014925450
FINAL SINGLE POINT ENERGY     -1339.857685845148

DIPOLE MOMENT
-------------
                                X             Y             Z
Electronic contribution:     21.58924     -18.55559       5.06624
Nuclear contribution   :    -22.31285      19.08322      -5.08568
                        -----------------------------------------
Total Dipole Moment    :     -0.72360       0.52763      -0.01944
                        -----------------------------------------
Magnitude (a.u.)       :      0.89575
Magnitude (Debye)      :      2.27682

Rotational constants in cm-1:     0.017527     0.009229     0.007189
Rotational constants in MHz :   525.460812   276.689599   215.535333

                             ****ORCA TERMINATED NORMALLY****
TOTAL RUN TIME: 0 days 0 hours 0 minutes 21 seconds 122 msec
