                         Program Version 4.2.1 -  RELEASE  -
|  1> ! wB97X-D3 SP def2-SVP
|  2> %pal
|  3> nprocs 24
|  4> end
|  5>
|  6> * xyz 0 1
|  7> S 	 -121.805 	 62.3005 	 -54.3124
|  8> C 	 -120.546 	 63.2375 	 -54.986
|  9> C 	 -119.924 	 63.9497 	 -53.9453
| 10> C 	 -120.538 	 63.8032 	 -52.6776
| 11> C 	 -121.583 	 62.9413 	 -52.7179
| 12> H 	 -120.393 	 64.5265 	 -51.8535
| 13> C 	 -118.708 	 64.8737 	 -54.1476
| 14> H 	 -117.845 	 64.2953 	 -54.605
| 15> H 	 -118.307 	 65.1312 	 -53.194
| 16> C 	 -119.006 	 66.1396 	 -54.8925
| 17> H 	 -118.024 	 66.5871 	 -55.1665
| 18> H 	 -119.42 	 65.8136 	 -55.839
| 19> C 	 -119.798 	 67.1883 	 -54.0757
| 20> H 	 -119.327 	 68.1916 	 -54.328
| 21> H 	 -120.863 	 67.2402 	 -54.3175
| 22> H 	 -119.757 	 67.0996 	 -53.0266
| 23> S 	 -124.301 	 63.5024 	 -52.323
| 24> C 	 -124.818 	 63.5555 	 -50.6622
| 25> C 	 -123.866 	 63.0828 	 -49.7759
| 26> C 	 -122.608 	 62.8192 	 -50.3407
| 27> C 	 -122.654 	 62.9083 	 -51.7305
| 28> H 	 -124.089 	 63.0171 	 -48.706
| 29> C 	 -121.44 	 62.3246 	 -49.514
| 30> H 	 -121.662 	 62.2466 	 -48.4141
| 31> H 	 -120.63 	 63.0939 	 -49.5451
| 32> C 	 -121.036 	 60.9065 	 -49.9414
| 33> H 	 -120.009 	 60.8185 	 -49.54
| 34> H 	 -120.928 	 60.7909 	 -51.0032
| 35> C 	 -122.18 	 59.9401 	 -49.7353
| 36> H 	 -123.126 	 60.2459 	 -50.151
| 37> H 	 -122.347 	 59.6782 	 -48.696
| 38> H 	 -121.845 	 59.0566 	 -50.2736
| 39> H 	 -120.306 	 63.1317 	 -56.0544
| 40> H 	 -125.738 	 64.0088 	 -50.2621
| 41> *
| 42>
| 43>                          ****END OF INPUT****

CARTESIAN COORDINATES (ANGSTROEM)
---------------------------------
  S    -121.805000   62.300500  -54.312400
  C    -120.546000   63.237500  -54.986000
  C    -119.924000   63.949700  -53.945300
  C    -120.538000   63.803200  -52.677600
  C    -121.583000   62.941300  -52.717900
  H    -120.393000   64.526500  -51.853500
  C    -118.708000   64.873700  -54.147600
  H    -117.845000   64.295300  -54.605000
  H    -118.307000   65.131200  -53.194000
  C    -119.006000   66.139600  -54.892500
  H    -118.024000   66.587100  -55.166500
  H    -119.420000   65.813600  -55.839000
  C    -119.798000   67.188300  -54.075700
  H    -119.327000   68.191600  -54.328000
  H    -120.863000   67.240200  -54.317500
  H    -119.757000   67.099600  -53.026600
  S    -124.301000   63.502400  -52.323000
  C    -124.818000   63.555500  -50.662200
  C    -123.866000   63.082800  -49.775900
  C    -122.608000   62.819200  -50.340700
  C    -122.654000   62.908300  -51.730500
  H    -124.089000   63.017100  -48.706000
  C    -121.440000   62.324600  -49.514000
  H    -121.662000   62.246600  -48.414100
  H    -120.630000   63.093900  -49.545100
  C    -121.036000   60.906500  -49.941400
  H    -120.009000   60.818500  -49.540000
  H    -120.928000   60.790900  -51.003200
  C    -122.180000   59.940100  -49.735300
  H    -123.126000   60.245900  -50.151000
  H    -122.347000   59.678200  -48.696000
  H    -121.845000   59.056600  -50.273600
  H    -120.306000   63.131700  -56.054400
  H    -125.738000   64.008800  -50.262100

 Total Charge           Charge          ....    0
 Multiplicity           Mult            ....    1
 Number of Electrons    NEL             ....  134
 Basis Dimension        Dim             ....  322

ORBITAL ENERGIES
----------------

  NO   OCC          E(Eh)            E(eV)
   0   2.0000     -88.967940     -2420.9407
   1   2.0000     -88.964649     -2420.8512
   2   2.0000     -10.330172      -281.0983
   3   2.0000     -10.323324      -280.9119
   4   2.0000     -10.317380      -280.7502
   5   2.0000     -10.316115      -280.7158
   6   2.0000     -10.301970      -280.3309
   7   2.0000     -10.301805      -280.3264
   8   2.0000     -10.296336      -280.1776
   9   2.0000     -10.291500      -280.0460
  10   2.0000     -10.290035      -280.0061
  11   2.0000     -10.287392      -279.9342
  12   2.0000     -10.285145      -279.8730
  13   2.0000     -10.279811      -279.7279
  14   2.0000     -10.278615      -279.6953
  15   2.0000     -10.269701      -279.4528
  16   2.0000      -8.081254      -219.9021
  17   2.0000      -8.080521      -219.8822
  18   2.0000      -6.039788      -164.3510
  19   2.0000      -6.038878      -164.3262
  20   2.0000      -6.036092      -164.2504
  21   2.0000      -6.034685      -164.2121
  22   2.0000      -6.031919      -164.1369
  23   2.0000      -6.031568      -164.1273
  24   2.0000      -1.009938       -27.4818
  25   2.0000      -0.982044       -26.7228
  26   2.0000      -0.911601       -24.8059
  27   2.0000      -0.910604       -24.7788
  28   2.0000      -0.867271       -23.5996
  29   2.0000      -0.850696       -23.1486
  30   2.0000      -0.844913       -22.9913
  31   2.0000      -0.807637       -21.9769
  32   2.0000      -0.784254       -21.3406
  33   2.0000      -0.770770       -20.9737
  34   2.0000      -0.706887       -19.2354
  35   2.0000      -0.701478       -19.0882
  36   2.0000      -0.682307       -18.5665
  37   2.0000      -0.658798       -17.9268
  38   2.0000      -0.643041       -17.4980
  39   2.0000      -0.612814       -16.6755
  40   2.0000      -0.595872       -16.2145
  41   2.0000      -0.569601       -15.4996
  42   2.0000      -0.553859       -15.0713
  43   2.0000      -0.543439       -14.7877
  44   2.0000      -0.539370       -14.6770
  45   2.0000      -0.537119       -14.6157
  46   2.0000      -0.517983       -14.0950
  47   2.0000      -0.511471       -13.9178
  48   2.0000      -0.500856       -13.6290
  49   2.0000      -0.492930       -13.4133
  50   2.0000      -0.487621       -13.2689
  51   2.0000      -0.484859       -13.1937
  52   2.0000      -0.475504       -12.9391
  53   2.0000      -0.466520       -12.6947
  54   2.0000      -0.456264       -12.4156
  55   2.0000      -0.441164       -12.0047
  56   2.0000      -0.435455       -11.8493
  57   2.0000      -0.433818       -11.8048
  58   2.0000      -0.431214       -11.7339
  59   2.0000      -0.421607       -11.4725
  60   2.0000      -0.417301       -11.3553
  61   2.0000      -0.407536       -11.0896
  62   2.0000      -0.406874       -11.0716
  63   2.0000      -0.350966        -9.5503
  64   2.0000      -0.334731        -9.1085
  65   2.0000      -0.326147        -8.8749
  66   2.0000      -0.286307        -7.7908
  67   0.0000       0.027535         0.7493
  68   0.0000       0.059261         1.6126
  69   0.0000       0.110316         3.0018
  70   0.0000       0.120950         3.2912
  71   0.0000       0.132174         3.5966

MULLIKEN ATOMIC CHARGES
-----------------------
   0 S :    0.102468
   1 C :   -0.144095
   2 C :   -0.098968
   3 C :    0.027978
   4 C :   -0.147120
   5 H :    0.038054
   6 C :    0.037707
   7 H :    0.040255
   8 H :   -0.000122
   9 C :   -0.048078
  10 H :    0.027808
  11 H :    0.022053
  12 C :   -0.053519
  13 H :    0.038131
  14 H :    0.046460
  15 H :    0.020607
  16 S :    0.107314
  17 C :   -0.096430
  18 C :   -0.045521
  19 C :   -0.041446
  20 C :   -0.156024
  21 H :    0.019911
  22 C :    0.041983
  23 H :    0.027592
  24 H :    0.036167
  25 C :   -0.067288
  26 H :    0.033172
  27 H :    0.032012
  28 C :   -0.035440
  29 H :    0.050933
  30 H :    0.022261
  31 H :    0.029883
  32 H :    0.068710
  33 H :    0.062593
Sum of atomic charges:   -0.0000000

LOEWDIN ATOMIC CHARGES
----------------------
   0 S :    0.428849
   1 C :   -0.214961
   2 C :   -0.062797
   3 C :   -0.067431
   4 C :   -0.206536
   5 H :    0.040936
   6 C :   -0.037964
   7 H :    0.037452
   8 H :    0.017469
   9 C :   -0.042058
  10 H :    0.026658
  11 H :    0.021439
  12 C :   -0.067704
  13 H :    0.036686
  14 H :    0.031300
  15 H :    0.016582
  16 S :    0.375997
  17 C :   -0.191302
  18 C :   -0.079923
  19 C :   -0.054819
  20 C :   -0.171060
  21 H :    0.032435
  22 C :   -0.036979
  23 H :    0.033804
  24 H :    0.032104
  25 C :   -0.044246
  26 H :    0.030277
  27 H :    0.024066
  28 C :   -0.057319
  29 H :    0.030926
  30 H :    0.018288
  31 H :    0.029629
  32 H :    0.034345
  33 H :    0.035854

  Mayer bond orders larger than 0.100000
B(  0-S ,  1-C ) :   1.1549 B(  0-S ,  4-C ) :   1.1687 B(  1-C ,  2-C ) :   1.5580
B(  1-C , 32-H ) :   0.9743 B(  2-C ,  3-C ) :   1.2950 B(  2-C ,  6-C ) :   1.0143
B(  3-C ,  4-C ) :   1.5479 B(  3-C ,  5-H ) :   0.9788 B(  4-C , 20-C ) :   1.0339
B(  6-C ,  7-H ) :   0.9430 B(  6-C ,  8-H ) :   0.9435 B(  6-C ,  9-C ) :   1.0837
B(  9-C , 10-H ) :   0.9601 B(  9-C , 11-H ) :   0.9582 B(  9-C , 12-C ) :   1.0496
B( 12-C , 13-H ) :   0.9795 B( 12-C , 14-H ) :   0.9766 B( 12-C , 15-H ) :   0.9805
B( 16-S , 17-C ) :   1.1554 B( 16-S , 20-C ) :   1.1163 B( 17-C , 18-C ) :   1.6144
B( 17-C , 20-C ) :   0.1016 B( 17-C , 33-H ) :   0.9597 B( 18-C , 19-C ) :   1.2439
B( 18-C , 21-H ) :   0.9851 B( 19-C , 20-C ) :   1.5994 B( 19-C , 22-C ) :   1.0335
B( 22-C , 23-H ) :   0.9441 B( 22-C , 24-H ) :   0.9288 B( 22-C , 25-C ) :   1.0667
B( 25-C , 26-H ) :   0.9581 B( 25-C , 27-H ) :   0.9623 B( 25-C , 28-C ) :   1.0496
B( 28-C , 29-H ) :   0.9702 B( 28-C , 30-H ) :   0.9764 B( 28-C , 31-H ) :   0.9762

Dispersion correction           -0.015311599
FINAL SINGLE POINT ENERGY     -1339.865485569434

DIPOLE MOMENT
-------------
                                X             Y             Z
Electronic contribution:    -15.32489      -5.07068      -7.29395
Nuclear contribution   :     15.70899       5.40486       7.56846
                        -----------------------------------------
Total Dipole Moment    :      0.38411       0.33419       0.27450
                        -----------------------------------------
Magnitude (a.u.)       :      0.57842
Magnitude (Debye)      :      1.47023

Rotational constants in cm-1:     0.020965     0.008515     0.007949
Rotational constants in MHz :   628.499977   255.284997   238.309263

                             ****ORCA TERMINATED NORMALLY****
TOTAL RUN TIME: 0 days 0 hours 0 minutes 22 seconds 264 msec
