                         Program Version 4.2.1 -  RELEASE  -
|  1> ! wB97X-D3 SP def2-SVP
|  2> %pal
|  3> nprocs 24
|  4> end
|  5>
|  6> * xyz 0 1
|  7> S 	 27.0894 	 -8.06121 	 -114.283
|  8> C 	 27.952 	 -9.41022 	 -114.878
|  9> C 	 27.8072 	 -10.5138 	 -114.098
| 10> C 	 26.9005 	 -10.3235 	 -113.042
| 11> C 	 26.3419 	 -9.0115 	 -113.042
| 12> H 	 26.6113 	 -11.1498 	 -112.363
| 13> C 	 28.459 	 -11.8312 	 -114.373
| 14> H 	 27.6664 	 -12.4308 	 -114.917
| 15> H 	 28.4688 	 -12.3049 	 -113.47
| 16> C 	 29.8619 	 -11.8515 	 -114.908
| 17> H 	 30.0635 	 -12.8472 	 -115.241
| 18> H 	 30.0025 	 -11.1836 	 -115.769
| 19> C 	 30.8889 	 -11.5826 	 -113.78
| 20> H 	 31.8739 	 -11.9562 	 -114.076
| 21> H 	 31.105 	 -10.4863 	 -113.677
| 22> H 	 30.7952 	 -12.0221 	 -112.812
| 23> S 	 24.1346 	 -9.6562 	 -111.716
| 24> C 	 23.2934 	 -8.49643 	 -110.745
| 25> C 	 23.9031 	 -7.24036 	 -110.773
| 26> C 	 25.1048 	 -7.23882 	 -111.54
| 27> C 	 25.3877 	 -8.48935 	 -112.052
| 28> H 	 23.1602 	 -6.52362 	 -110.332
| 29> C 	 25.8653 	 -5.90463 	 -111.877
| 30> H 	 26.2117 	 -5.88697 	 -112.867
| 31> H 	 26.8171 	 -5.75961 	 -111.314
| 32> C 	 24.9854 	 -4.57478 	 -111.756
| 33> H 	 24.7104 	 -4.46066 	 -110.653
| 34> H 	 23.9992 	 -4.69704 	 -112.223
| 35> C 	 25.7405 	 -3.26724 	 -112.155
| 36> H 	 25.24 	 -2.27431 	 -111.929
| 37> H 	 25.8738 	 -3.2893 	 -113.267
| 38> H 	 26.7619 	 -3.43435 	 -111.717
| 39> H 	 28.5981 	 -9.28448 	 -115.788
| 40> H 	 22.443 	 -8.67075 	 -110.227
| 41> *
| 42>
| 43>                          ****END OF INPUT****

CARTESIAN COORDINATES (ANGSTROEM)
---------------------------------
  S     27.089400   -8.061210  -114.283000
  C     27.952000   -9.410220  -114.878000
  C     27.807200  -10.513800  -114.098000
  C     26.900500  -10.323500  -113.042000
  C     26.341900   -9.011500  -113.042000
  H     26.611300  -11.149800  -112.363000
  C     28.459000  -11.831200  -114.373000
  H     27.666400  -12.430800  -114.917000
  H     28.468800  -12.304900  -113.470000
  C     29.861900  -11.851500  -114.908000
  H     30.063500  -12.847200  -115.241000
  H     30.002500  -11.183600  -115.769000
  C     30.888900  -11.582600  -113.780000
  H     31.873900  -11.956200  -114.076000
  H     31.105000  -10.486300  -113.677000
  H     30.795200  -12.022100  -112.812000
  S     24.134600   -9.656200  -111.716000
  C     23.293400   -8.496430  -110.745000
  C     23.903100   -7.240360  -110.773000
  C     25.104800   -7.238820  -111.540000
  C     25.387700   -8.489350  -112.052000
  H     23.160200   -6.523620  -110.332000
  C     25.865300   -5.904630  -111.877000
  H     26.211700   -5.886970  -112.867000
  H     26.817100   -5.759610  -111.314000
  C     24.985400   -4.574780  -111.756000
  H     24.710400   -4.460660  -110.653000
  H     23.999200   -4.697040  -112.223000
  C     25.740500   -3.267240  -112.155000
  H     25.240000   -2.274310  -111.929000
  H     25.873800   -3.289300  -113.267000
  H     26.761900   -3.434350  -111.717000
  H     28.598100   -9.284480  -115.788000
  H     22.443000   -8.670750  -110.227000

 Total Charge           Charge          ....    0
 Multiplicity           Mult            ....    1
 Number of Electrons    NEL             ....  134
 Basis Dimension        Dim             ....  322

ORBITAL ENERGIES
----------------

  NO   OCC          E(Eh)            E(eV)
   0   2.0000     -88.967082     -2420.9174
   1   2.0000     -88.965064     -2420.8625
   2   2.0000     -10.332764      -281.1688
   3   2.0000     -10.327718      -281.0315
   4   2.0000     -10.312032      -280.6046
   5   2.0000     -10.307878      -280.4916
   6   2.0000     -10.306685      -280.4591
   7   2.0000     -10.298741      -280.2430
   8   2.0000     -10.297763      -280.2164
   9   2.0000     -10.295899      -280.1656
  10   2.0000     -10.295728      -280.1610
  11   2.0000     -10.292187      -280.0647
  12   2.0000     -10.291978      -280.0590
  13   2.0000     -10.289121      -279.9812
  14   2.0000     -10.282977      -279.8140
  15   2.0000     -10.278009      -279.6788
  16   2.0000      -8.082317      -219.9310
  17   2.0000      -8.080195      -219.8733
  18   2.0000      -6.040675      -164.3751
  19   2.0000      -6.038563      -164.3177
  20   2.0000      -6.036657      -164.2658
  21   2.0000      -6.034659      -164.2114
  22   2.0000      -6.033342      -164.1756
  23   2.0000      -6.031069      -164.1137
  24   2.0000      -1.010342       -27.4928
  25   2.0000      -0.988989       -26.9118
  26   2.0000      -0.917994       -24.9799
  27   2.0000      -0.895619       -24.3710
  28   2.0000      -0.868310       -23.6279
  29   2.0000      -0.854536       -23.2531
  30   2.0000      -0.843789       -22.9607
  31   2.0000      -0.808578       -22.0025
  32   2.0000      -0.782507       -21.2931
  33   2.0000      -0.772120       -21.0104
  34   2.0000      -0.714175       -19.4337
  35   2.0000      -0.700254       -19.0549
  36   2.0000      -0.696433       -18.9509
  37   2.0000      -0.656210       -17.8564
  38   2.0000      -0.637219       -17.3396
  39   2.0000      -0.609695       -16.5906
  40   2.0000      -0.596086       -16.2203
  41   2.0000      -0.577477       -15.7139
  42   2.0000      -0.555263       -15.1095
  43   2.0000      -0.554684       -15.0937
  44   2.0000      -0.535198       -14.5635
  45   2.0000      -0.523356       -14.2412
  46   2.0000      -0.516493       -14.0545
  47   2.0000      -0.512389       -13.9428
  48   2.0000      -0.503851       -13.7105
  49   2.0000      -0.488416       -13.2905
  50   2.0000      -0.484482       -13.1834
  51   2.0000      -0.479834       -13.0569
  52   2.0000      -0.468989       -12.7618
  53   2.0000      -0.464033       -12.6270
  54   2.0000      -0.459625       -12.5070
  55   2.0000      -0.448974       -12.2172
  56   2.0000      -0.445403       -12.1200
  57   2.0000      -0.434816       -11.8319
  58   2.0000      -0.432772       -11.7763
  59   2.0000      -0.428737       -11.6665
  60   2.0000      -0.421246       -11.4627
  61   2.0000      -0.416436       -11.3318
  62   2.0000      -0.405191       -11.0258
  63   2.0000      -0.351481        -9.5643
  64   2.0000      -0.333864        -9.0849
  65   2.0000      -0.330784        -9.0011
  66   2.0000      -0.283346        -7.7102
  67   0.0000       0.026311         0.7160
  68   0.0000       0.080641         2.1944
  69   0.0000       0.112798         3.0694
  70   0.0000       0.120876         3.2892
  71   0.0000       0.130403         3.5485

MULLIKEN ATOMIC CHARGES
-----------------------
   0 S :    0.109051
   1 C :   -0.163890
   2 C :   -0.080440
   3 C :   -0.015197
   4 C :   -0.131208
   5 H :    0.029752
   6 C :    0.103984
   7 H :    0.048253
   8 H :   -0.017900
   9 C :   -0.029816
  10 H :    0.021972
  11 H :    0.032102
  12 C :   -0.068763
  13 H :    0.018235
  14 H :    0.041698
  15 H :    0.031647
  16 S :    0.103130
  17 C :   -0.063139
  18 C :   -0.081301
  19 C :   -0.019400
  20 C :   -0.120981
  21 H :    0.047476
  22 C :    0.062116
  23 H :    0.013001
  24 H :    0.045086
  25 C :   -0.136507
  26 H :    0.039660
  27 H :    0.039422
  28 C :   -0.074956
  29 H :    0.060651
  30 H :    0.038030
  31 H :    0.041957
  32 H :    0.064576
  33 H :    0.011697
Sum of atomic charges:    0.0000000

LOEWDIN ATOMIC CHARGES
----------------------
   0 S :    0.440880
   1 C :   -0.222453
   2 C :   -0.069727
   3 C :   -0.075015
   4 C :   -0.201227
   5 H :    0.034660
   6 C :   -0.032986
   7 H :    0.043862
   8 H :    0.016180
   9 C :   -0.033332
  10 H :    0.025156
  11 H :    0.026244
  12 C :   -0.069961
  13 H :    0.025410
  14 H :    0.032599
  15 H :    0.022819
  16 S :    0.426401
  17 C :   -0.178444
  18 C :   -0.079420
  19 C :   -0.060627
  20 C :   -0.189753
  21 H :    0.048980
  22 C :   -0.031065
  23 H :    0.009742
  24 H :    0.037660
  25 C :   -0.050553
  26 H :    0.025135
  27 H :    0.021345
  28 C :   -0.078596
  29 H :    0.037507
  30 H :    0.026757
  31 H :    0.032634
  32 H :    0.035018
  33 H :    0.004170

  Mayer bond orders larger than 0.100000
B(  0-S ,  1-C ) :   1.1497 B(  0-S ,  4-C ) :   1.1805 B(  1-C ,  2-C ) :   1.5767
B(  1-C , 32-H ) :   0.9631 B(  2-C ,  3-C ) :   1.3057 B(  2-C ,  6-C ) :   1.0094
B(  3-C ,  4-C ) :   1.4912 B(  3-C ,  5-H ) :   0.9842 B(  4-C , 20-C ) :   1.0514
B(  6-C ,  7-H ) :   0.9257 B(  6-C ,  8-H ) :   0.9284 B(  6-C ,  9-C ) :   1.0806
B(  9-C , 10-H ) :   0.9506 B(  9-C , 11-H ) :   0.9553 B(  9-C , 12-C ) :   1.0739
B( 12-C , 13-H ) :   0.9749 B( 12-C , 14-H ) :   0.9767 B( 12-C , 15-H ) :   0.9766
B( 16-S , 17-C ) :   1.1597 B( 16-S , 20-C ) :   1.1574 B( 17-C , 18-C ) :   1.6252
B( 17-C , 33-H ) :   0.9750 B( 18-C , 19-C ) :   1.2188 B( 18-C , 21-H ) :   0.9827
B( 19-C , 20-C ) :   1.5997 B( 19-C , 22-C ) :   1.0136 B( 22-C , 23-H ) :   0.9434
B( 22-C , 24-H ) :   0.9317 B( 22-C , 25-C ) :   1.0605 B( 25-C , 26-H ) :   0.9517
B( 25-C , 27-H ) :   0.9609 B( 25-C , 28-C ) :   1.0638 B( 28-C , 29-H ) :   0.9735
B( 28-C , 30-H ) :   0.9759 B( 28-C , 31-H ) :   0.9724

Dispersion correction           -0.013510576
FINAL SINGLE POINT ENERGY     -1339.856619907519

DIPOLE MOMENT
-------------
                                X             Y             Z
Electronic contribution:    -14.19326      -6.01642       1.14243
Nuclear contribution   :     14.33950       5.93648      -1.22639
                        -----------------------------------------
Total Dipole Moment    :      0.14624      -0.07994      -0.08395
                        -----------------------------------------
Magnitude (a.u.)       :      0.18662
Magnitude (Debye)      :      0.47435

Rotational constants in cm-1:     0.022399     0.007322     0.005900
Rotational constants in MHz :   671.512711   219.519291   176.892294

                             ****ORCA TERMINATED NORMALLY****
TOTAL RUN TIME: 0 days 0 hours 0 minutes 20 seconds 763 msec
