                         Program Version 4.2.1 -  RELEASE  -
|  1> ! wB97X-D3 SP def2-SVP
|  2> %pal
|  3> nprocs 24
|  4> end
|  5>
|  6> * xyz 0 1
|  7> S 	 -100.375 	 37.8164 	 -81.2299
|  8> C 	 -99.2048 	 36.6001 	 -80.9307
|  9> C 	 -98.5893 	 36.2723 	 -82.1308
| 10> C 	 -99.099 	 37.0339 	 -83.2323
| 11> C 	 -100.087 	 37.9369 	 -82.9478
| 12> H 	 -98.6632 	 36.8775 	 -84.2227
| 13> C 	 -97.6128 	 35.1687 	 -82.2977
| 14> H 	 -96.8162 	 35.2193 	 -81.55
| 15> H 	 -97.0377 	 35.2336 	 -83.2461
| 16> C 	 -98.2059 	 33.7075 	 -82.2645
| 17> H 	 -98.4731 	 33.3818 	 -81.2954
| 18> H 	 -99.1286 	 33.6731 	 -82.9276
| 19> C 	 -97.0924 	 32.7115 	 -82.8093
| 20> H 	 -96.7873 	 32.9919 	 -83.7988
| 21> H 	 -96.2444 	 32.8431 	 -82.2074
| 22> H 	 -97.3985 	 31.6204 	 -82.8515
| 23> S 	 -100.411 	 40.7748 	 -83.1088
| 24> C 	 -101.261 	 41.3897 	 -84.4622
| 25> C 	 -101.272 	 40.5299 	 -85.5229
| 26> C 	 -100.868 	 39.2284 	 -85.1511
| 27> C 	 -100.465 	 39.1134 	 -83.8129
| 28> H 	 -101.64 	 40.8885 	 -86.4691
| 29> C 	 -100.833 	 38.1555 	 -86.1721
| 30> H 	 -101.627 	 38.2849 	 -86.9352
| 31> H 	 -100.981 	 37.1448 	 -85.7572
| 32> C 	 -99.4913 	 38.1568 	 -86.9479
| 33> H 	 -99.5591 	 37.4334 	 -87.754
| 34> H 	 -98.7798 	 37.74 	 -86.2712
| 35> C 	 -99.1351 	 39.5446 	 -87.5659
| 36> H 	 -99.0644 	 40.289 	 -86.8437
| 37> H 	 -99.7972 	 39.9 	 -88.3951
| 38> H 	 -98.1475 	 39.4434 	 -88.0306
| 39> H 	 -98.9043 	 36.2926 	 -79.9926
| 40> H 	 -101.548 	 42.4275 	 -84.5612
| 41> *
| 42>
| 43>                          ****END OF INPUT****

CARTESIAN COORDINATES (ANGSTROEM)
---------------------------------
  S    -100.375000   37.816400  -81.229900
  C    -99.204800   36.600100  -80.930700
  C    -98.589300   36.272300  -82.130800
  C    -99.099000   37.033900  -83.232300
  C    -100.087000   37.936900  -82.947800
  H    -98.663200   36.877500  -84.222700
  C    -97.612800   35.168700  -82.297700
  H    -96.816200   35.219300  -81.550000
  H    -97.037700   35.233600  -83.246100
  C    -98.205900   33.707500  -82.264500
  H    -98.473100   33.381800  -81.295400
  H    -99.128600   33.673100  -82.927600
  C    -97.092400   32.711500  -82.809300
  H    -96.787300   32.991900  -83.798800
  H    -96.244400   32.843100  -82.207400
  H    -97.398500   31.620400  -82.851500
  S    -100.411000   40.774800  -83.108800
  C    -101.261000   41.389700  -84.462200
  C    -101.272000   40.529900  -85.522900
  C    -100.868000   39.228400  -85.151100
  C    -100.465000   39.113400  -83.812900
  H    -101.640000   40.888500  -86.469100
  C    -100.833000   38.155500  -86.172100
  H    -101.627000   38.284900  -86.935200
  H    -100.981000   37.144800  -85.757200
  C    -99.491300   38.156800  -86.947900
  H    -99.559100   37.433400  -87.754000
  H    -98.779800   37.740000  -86.271200
  C    -99.135100   39.544600  -87.565900
  H    -99.064400   40.289000  -86.843700
  H    -99.797200   39.900000  -88.395100
  H    -98.147500   39.443400  -88.030600
  H    -98.904300   36.292600  -79.992600
  H    -101.548000   42.427500  -84.561200

 Total Charge           Charge          ....    0
 Multiplicity           Mult            ....    1
 Number of Electrons    NEL             ....  134
 Basis Dimension        Dim             ....  322

ORBITAL ENERGIES
----------------

  NO   OCC          E(Eh)            E(eV)
   0   2.0000     -88.966072     -2420.8899
   1   2.0000     -88.964310     -2420.8419
   2   2.0000     -10.335841      -281.2525
   3   2.0000     -10.333754      -281.1958
   4   2.0000     -10.312034      -280.6047
   5   2.0000     -10.311883      -280.6006
   6   2.0000     -10.302469      -280.3444
   7   2.0000     -10.299989      -280.2770
   8   2.0000     -10.295532      -280.1557
   9   2.0000     -10.294604      -280.1304
  10   2.0000     -10.294298      -280.1221
  11   2.0000     -10.289431      -279.9897
  12   2.0000     -10.289100      -279.9806
  13   2.0000     -10.286670      -279.9145
  14   2.0000     -10.280399      -279.7439
  15   2.0000     -10.276451      -279.6365
  16   2.0000      -8.081416      -219.9065
  17   2.0000      -8.078997      -219.8407
  18   2.0000      -6.039902      -164.3541
  19   2.0000      -6.037507      -164.2889
  20   2.0000      -6.035577      -164.2364
  21   2.0000      -6.033645      -164.1838
  22   2.0000      -6.032379      -164.1494
  23   2.0000      -6.029619      -164.0743
  24   2.0000      -1.008417       -27.4404
  25   2.0000      -0.990512       -26.9532
  26   2.0000      -0.910661       -24.7803
  27   2.0000      -0.907104       -24.6835
  28   2.0000      -0.867206       -23.5979
  29   2.0000      -0.847951       -23.0739
  30   2.0000      -0.843350       -22.9487
  31   2.0000      -0.817759       -22.2523
  32   2.0000      -0.783478       -21.3195
  33   2.0000      -0.770076       -20.9548
  34   2.0000      -0.710656       -19.3379
  35   2.0000      -0.705163       -19.1885
  36   2.0000      -0.691111       -18.8061
  37   2.0000      -0.660566       -17.9749
  38   2.0000      -0.646770       -17.5995
  39   2.0000      -0.622811       -16.9475
  40   2.0000      -0.594739       -16.1837
  41   2.0000      -0.576178       -15.6786
  42   2.0000      -0.562113       -15.2959
  43   2.0000      -0.555327       -15.1112
  44   2.0000      -0.542894       -14.7729
  45   2.0000      -0.524976       -14.2853
  46   2.0000      -0.517161       -14.0727
  47   2.0000      -0.513237       -13.9659
  48   2.0000      -0.496620       -13.5137
  49   2.0000      -0.494698       -13.4614
  50   2.0000      -0.491476       -13.3737
  51   2.0000      -0.485778       -13.2187
  52   2.0000      -0.472901       -12.8683
  53   2.0000      -0.465977       -12.6799
  54   2.0000      -0.457882       -12.4596
  55   2.0000      -0.446885       -12.1604
  56   2.0000      -0.441283       -12.0079
  57   2.0000      -0.439413       -11.9570
  58   2.0000      -0.429640       -11.6911
  59   2.0000      -0.427600       -11.6356
  60   2.0000      -0.425024       -11.5655
  61   2.0000      -0.419142       -11.4054
  62   2.0000      -0.415144       -11.2966
  63   2.0000      -0.351608        -9.5677
  64   2.0000      -0.330412        -8.9910
  65   2.0000      -0.324525        -8.8308
  66   2.0000      -0.292846        -7.9688
  67   0.0000       0.023685         0.6445
  68   0.0000       0.072805         1.9811
  69   0.0000       0.108451         2.9511
  70   0.0000       0.125535         3.4160
  71   0.0000       0.131737         3.5847

MULLIKEN ATOMIC CHARGES
-----------------------
   0 S :    0.106948
   1 C :   -0.078583
   2 C :   -0.086116
   3 C :    0.021724
   4 C :   -0.106819
   5 H :    0.003847
   6 C :    0.023811
   7 H :    0.025689
   8 H :    0.019137
   9 C :   -0.063449
  10 H :    0.025318
  11 H :    0.043548
  12 C :   -0.057386
  13 H :    0.021659
  14 H :    0.019337
  15 H :    0.050611
  16 S :    0.103996
  17 C :   -0.087668
  18 C :   -0.036626
  19 C :   -0.037613
  20 C :   -0.153709
  21 H :    0.015840
  22 C :    0.052500
  23 H :    0.022301
  24 H :    0.029556
  25 C :   -0.052655
  26 H :    0.024517
  27 H :    0.018195
  28 C :   -0.057167
  29 H :    0.043519
  30 H :    0.035708
  31 H :    0.031036
  32 H :    0.024317
  33 H :    0.054677
Sum of atomic charges:   -0.0000000

LOEWDIN ATOMIC CHARGES
----------------------
   0 S :    0.430764
   1 C :   -0.186254
   2 C :   -0.070323
   3 C :   -0.062286
   4 C :   -0.203282
   5 H :    0.028388
   6 C :   -0.040137
   7 H :    0.029815
   8 H :    0.030928
   9 C :   -0.028855
  10 H :    0.014223
  11 H :    0.029830
  12 C :   -0.065932
  13 H :    0.018509
  14 H :    0.015888
  15 H :    0.034567
  16 S :    0.395699
  17 C :   -0.188299
  18 C :   -0.072652
  19 C :   -0.055473
  20 C :   -0.178528
  21 H :    0.032135
  22 C :   -0.036059
  23 H :    0.029681
  24 H :    0.031674
  25 C :   -0.029705
  26 H :    0.022702
  27 H :    0.015422
  28 C :   -0.063724
  29 H :    0.016355
  30 H :    0.030407
  31 H :    0.029698
  32 H :    0.016429
  33 H :    0.028394

  Mayer bond orders larger than 0.100000
B(  0-S ,  1-C ) :   1.1642 B(  0-S ,  4-C ) :   1.1618 B(  1-C ,  2-C ) :   1.5463
B(  1-C , 32-H ) :   0.9847 B(  2-C ,  3-C ) :   1.3065 B(  2-C ,  6-C ) :   1.0462
B(  3-C ,  4-C ) :   1.5178 B(  3-C ,  5-H ) :   0.9879 B(  4-C , 20-C ) :   1.0342
B(  6-C ,  7-H ) :   0.9344 B(  6-C ,  8-H ) :   0.9470 B(  6-C ,  9-C ) :   1.0444
B(  9-C , 10-H ) :   0.9592 B(  9-C , 11-H ) :   0.9622 B(  9-C , 12-C ) :   1.0667
B( 12-C , 13-H ) :   0.9776 B( 12-C , 14-H ) :   0.9757 B( 12-C , 15-H ) :   0.9761
B( 16-S , 17-C ) :   1.1688 B( 16-S , 20-C ) :   1.1289 B( 17-C , 18-C ) :   1.6024
B( 17-C , 33-H ) :   0.9627 B( 18-C , 19-C ) :   1.2377 B( 18-C , 21-H ) :   0.9956
B( 19-C , 20-C ) :   1.5867 B( 19-C , 22-C ) :   1.0638 B( 22-C , 23-H ) :   0.9356
B( 22-C , 24-H ) :   0.9320 B( 22-C , 25-C ) :   1.0707 B( 25-C , 26-H ) :   0.9535
B( 25-C , 27-H ) :   0.9550 B( 25-C , 28-C ) :   1.0797 B( 28-C , 29-H ) :   0.9703
B( 28-C , 30-H ) :   0.9740 B( 28-C , 31-H ) :   0.9701

Dispersion correction           -0.014424198
FINAL SINGLE POINT ENERGY     -1339.874869522104

DIPOLE MOMENT
-------------
                                X             Y             Z
Electronic contribution:    -12.72724      19.58280      17.00800
Nuclear contribution   :     13.12949     -19.87482     -17.46430
                        -----------------------------------------
Total Dipole Moment    :      0.40226      -0.29202      -0.45631
                        -----------------------------------------
Magnitude (a.u.)       :      0.67476
Magnitude (Debye)      :      1.71510

Rotational constants in cm-1:     0.020868     0.008152     0.006228
Rotational constants in MHz :   625.613964   244.382922   186.697558

                             ****ORCA TERMINATED NORMALLY****
TOTAL RUN TIME: 0 days 0 hours 0 minutes 21 seconds 793 msec
