                         Program Version 4.2.1 -  RELEASE  -
|  1> ! wB97X-D3 SP def2-SVP
|  2> %pal
|  3> nprocs 24
|  4> end
|  5>
|  6> * xyz 0 1
|  7> S 	 36.4727 	 -22.0648 	 -114.303
|  8> C 	 38.1639 	 -21.7741 	 -114.241
|  9> C 	 38.7811 	 -22.6225 	 -113.292
| 10> C 	 37.8427 	 -23.4955 	 -112.616
| 11> C 	 36.5728 	 -23.3122 	 -113.104
| 12> H 	 38.0079 	 -24.2578 	 -111.844
| 13> C 	 40.2412 	 -22.6811 	 -113.011
| 14> H 	 40.3688 	 -22.9311 	 -111.946
| 15> H 	 40.6414 	 -21.7013 	 -113.23
| 16> C 	 40.8343 	 -23.816 	 -113.776
| 17> H 	 41.9002 	 -23.7419 	 -113.743
| 18> H 	 40.5968 	 -24.8401 	 -113.288
| 19> C 	 40.5422 	 -23.9938 	 -115.234
| 20> H 	 39.4601 	 -24.2135 	 -115.363
| 21> H 	 40.8497 	 -23.1816 	 -115.927
| 22> H 	 41.1491 	 -24.7904 	 -115.624
| 23> S 	 34.2063 	 -22.9181 	 -111.956
| 24> C 	 33.2538 	 -24.188 	 -111.439
| 25> C 	 33.6941 	 -25.4153 	 -111.891
| 26> C 	 34.8382 	 -25.3274 	 -112.732
| 27> C 	 35.3544 	 -24.0109 	 -112.673
| 28> H 	 33.1317 	 -26.3159 	 -111.773
| 29> C 	 35.7106 	 -26.5469 	 -113.267
| 30> H 	 35.9021 	 -27.0601 	 -112.328
| 31> H 	 36.6277 	 -26.2542 	 -113.809
| 32> C 	 34.9388 	 -27.455 	 -114.25
| 33> H 	 34.0228 	 -27.827 	 -113.74
| 34> H 	 35.6161 	 -28.3378 	 -114.406
| 35> C 	 34.4802 	 -26.7858 	 -115.496
| 36> H 	 33.7377 	 -25.9397 	 -115.312
| 37> H 	 33.919 	 -27.5241 	 -116.042
| 38> H 	 35.1786 	 -26.3773 	 -116.287
| 39> H 	 38.7987 	 -21.0949 	 -114.836
| 40> H 	 32.3586 	 -23.9642 	 -110.862
| 41> *
| 42>
| 43>                          ****END OF INPUT****

CARTESIAN COORDINATES (ANGSTROEM)
---------------------------------
  S     36.472700  -22.064800  -114.303000
  C     38.163900  -21.774100  -114.241000
  C     38.781100  -22.622500  -113.292000
  C     37.842700  -23.495500  -112.616000
  C     36.572800  -23.312200  -113.104000
  H     38.007900  -24.257800  -111.844000
  C     40.241200  -22.681100  -113.011000
  H     40.368800  -22.931100  -111.946000
  H     40.641400  -21.701300  -113.230000
  C     40.834300  -23.816000  -113.776000
  H     41.900200  -23.741900  -113.743000
  H     40.596800  -24.840100  -113.288000
  C     40.542200  -23.993800  -115.234000
  H     39.460100  -24.213500  -115.363000
  H     40.849700  -23.181600  -115.927000
  H     41.149100  -24.790400  -115.624000
  S     34.206300  -22.918100  -111.956000
  C     33.253800  -24.188000  -111.439000
  C     33.694100  -25.415300  -111.891000
  C     34.838200  -25.327400  -112.732000
  C     35.354400  -24.010900  -112.673000
  H     33.131700  -26.315900  -111.773000
  C     35.710600  -26.546900  -113.267000
  H     35.902100  -27.060100  -112.328000
  H     36.627700  -26.254200  -113.809000
  C     34.938800  -27.455000  -114.250000
  H     34.022800  -27.827000  -113.740000
  H     35.616100  -28.337800  -114.406000
  C     34.480200  -26.785800  -115.496000
  H     33.737700  -25.939700  -115.312000
  H     33.919000  -27.524100  -116.042000
  H     35.178600  -26.377300  -116.287000
  H     38.798700  -21.094900  -114.836000
  H     32.358600  -23.964200  -110.862000

 Total Charge           Charge          ....    0
 Multiplicity           Mult            ....    1
 Number of Electrons    NEL             ....  134
 Basis Dimension        Dim             ....  322

ORBITAL ENERGIES
----------------

  NO   OCC          E(Eh)            E(eV)
   0   2.0000     -88.965834     -2420.8834
   1   2.0000     -88.961327     -2420.7608
   2   2.0000     -10.324248      -280.9371
   3   2.0000     -10.322127      -280.8794
   4   2.0000     -10.312103      -280.6066
   5   2.0000     -10.311234      -280.5829
   6   2.0000     -10.309268      -280.5294
   7   2.0000     -10.299093      -280.2526
   8   2.0000     -10.297933      -280.2210
   9   2.0000     -10.293153      -280.0909
  10   2.0000     -10.291849      -280.0554
  11   2.0000     -10.291576      -280.0480
  12   2.0000     -10.286591      -279.9124
  13   2.0000     -10.284308      -279.8502
  14   2.0000     -10.278550      -279.6936
  15   2.0000     -10.272388      -279.5259
  16   2.0000      -8.081072      -219.8972
  17   2.0000      -8.078259      -219.8206
  18   2.0000      -6.039545      -164.3444
  19   2.0000      -6.036337      -164.2571
  20   2.0000      -6.035406      -164.2317
  21   2.0000      -6.032389      -164.1497
  22   2.0000      -6.031950      -164.1377
  23   2.0000      -6.029389      -164.0680
  24   2.0000      -1.010948       -27.5093
  25   2.0000      -0.987944       -26.8833
  26   2.0000      -0.920571       -25.0500
  27   2.0000      -0.907326       -24.6896
  28   2.0000      -0.865018       -23.5383
  29   2.0000      -0.851751       -23.1773
  30   2.0000      -0.846259       -23.0279
  31   2.0000      -0.811770       -22.0894
  32   2.0000      -0.785706       -21.3801
  33   2.0000      -0.772866       -21.0307
  34   2.0000      -0.700737       -19.0680
  35   2.0000      -0.687609       -18.7108
  36   2.0000      -0.685684       -18.6584
  37   2.0000      -0.654423       -17.8078
  38   2.0000      -0.637050       -17.3350
  39   2.0000      -0.616592       -16.7783
  40   2.0000      -0.600117       -16.3300
  41   2.0000      -0.567983       -15.4556
  42   2.0000      -0.554782       -15.0964
  43   2.0000      -0.551230       -14.9997
  44   2.0000      -0.545855       -14.8535
  45   2.0000      -0.539520       -14.6811
  46   2.0000      -0.516845       -14.0641
  47   2.0000      -0.511517       -13.9191
  48   2.0000      -0.500713       -13.6251
  49   2.0000      -0.495748       -13.4900
  50   2.0000      -0.488240       -13.2857
  51   2.0000      -0.471139       -12.8203
  52   2.0000      -0.469389       -12.7727
  53   2.0000      -0.465385       -12.6638
  54   2.0000      -0.461766       -12.5653
  55   2.0000      -0.448345       -12.2001
  56   2.0000      -0.443256       -12.0616
  57   2.0000      -0.439912       -11.9706
  58   2.0000      -0.433490       -11.7959
  59   2.0000      -0.416627       -11.3370
  60   2.0000      -0.415079       -11.2949
  61   2.0000      -0.408019       -11.1028
  62   2.0000      -0.407315       -11.0836
  63   2.0000      -0.340242        -9.2584
  64   2.0000      -0.330797        -9.0014
  65   2.0000      -0.323941        -8.8149
  66   2.0000      -0.293567        -7.9884
  67   0.0000       0.043589         1.1861
  68   0.0000       0.064325         1.7504
  69   0.0000       0.118566         3.2264
  70   0.0000       0.123375         3.3572
  71   0.0000       0.130902         3.5620

MULLIKEN ATOMIC CHARGES
-----------------------
   0 S :    0.131185
   1 C :   -0.114069
   2 C :   -0.159044
   3 C :    0.039746
   4 C :   -0.156415
   5 H :    0.022415
   6 C :    0.137612
   7 H :    0.030297
   8 H :    0.018612
   9 C :   -0.100247
  10 H :    0.018689
  11 H :    0.036119
  12 C :   -0.056286
  13 H :    0.053170
  14 H :    0.023322
  15 H :    0.022780
  16 S :    0.122486
  17 C :   -0.087840
  18 C :   -0.034540
  19 C :   -0.018415
  20 C :   -0.212795
  21 H :    0.012338
  22 C :    0.053753
  23 H :    0.041997
  24 H :    0.041353
  25 C :   -0.086731
  26 H :    0.026874
  27 H :    0.039957
  28 C :   -0.075701
  29 H :    0.050304
  30 H :    0.024434
  31 H :    0.042389
  32 H :    0.050938
  33 H :    0.061314
Sum of atomic charges:   -0.0000000

LOEWDIN ATOMIC CHARGES
----------------------
   0 S :    0.427093
   1 C :   -0.226967
   2 C :   -0.057723
   3 C :   -0.067233
   4 C :   -0.206322
   5 H :    0.038222
   6 C :   -0.034238
   7 H :    0.039374
   8 H :    0.028728
   9 C :   -0.049552
  10 H :    0.019651
  11 H :    0.034217
  12 C :   -0.072941
  13 H :    0.029482
  14 H :    0.024120
  15 H :    0.025058
  16 S :    0.450165
  17 C :   -0.208062
  18 C :   -0.080094
  19 C :   -0.051651
  20 C :   -0.210142
  21 H :    0.026136
  22 C :   -0.025496
  23 H :    0.032686
  24 H :    0.033861
  25 C :   -0.050935
  26 H :    0.026740
  27 H :    0.030704
  28 C :   -0.081469
  29 H :    0.037015
  30 H :    0.024489
  31 H :    0.031443
  32 H :    0.034847
  33 H :    0.028791

  Mayer bond orders larger than 0.100000
B(  0-S ,  1-C ) :   1.1346 B(  0-S ,  4-C ) :   1.1695 B(  1-C ,  2-C ) :   1.6008
B(  1-C , 32-H ) :   0.9636 B(  2-C ,  3-C ) :   1.2187 B(  2-C ,  6-C ) :   1.0400
B(  3-C ,  4-C ) :   1.5890 B(  3-C ,  5-H ) :   0.9938 B(  4-C , 20-C ) :   1.0005
B(  6-C ,  7-H ) :   0.9331 B(  6-C ,  8-H ) :   0.9344 B(  6-C ,  9-C ) :   1.0714
B(  9-C , 10-H ) :   0.9527 B(  9-C , 11-H ) :   0.9503 B(  9-C , 12-C ) :   1.0958
B( 12-C , 13-H ) :   0.9671 B( 12-C , 14-H ) :   0.9709 B( 12-C , 15-H ) :   0.9677
B( 16-S , 17-C ) :   1.1946 B( 16-S , 20-C ) :   1.1828 B( 17-C , 18-C ) :   1.5622
B( 17-C , 20-C ) :   0.1052 B( 17-C , 33-H ) :   0.9699 B( 18-C , 19-C ) :   1.2634
B( 18-C , 21-H ) :   0.9917 B( 19-C , 20-C ) :   1.5501 B( 19-C , 22-C ) :   1.0155
B( 22-C , 23-H ) :   0.9455 B( 22-C , 24-H ) :   0.9464 B( 22-C , 25-C ) :   1.0726
B( 25-C , 26-H ) :   0.9518 B( 25-C , 27-H ) :   0.9550 B( 25-C , 28-C ) :   1.0809
B( 28-C , 29-H ) :   0.9673 B( 28-C , 30-H ) :   0.9698 B( 28-C , 31-H ) :   0.9739

Dispersion correction           -0.014957045
FINAL SINGLE POINT ENERGY     -1339.874998341517

DIPOLE MOMENT
-------------
                                X             Y             Z
Electronic contribution:    -14.62366      17.69506       9.65535
Nuclear contribution   :     14.92769     -18.18429      -9.62103
                        -----------------------------------------
Total Dipole Moment    :      0.30403      -0.48923       0.03433
                        -----------------------------------------
Magnitude (a.u.)       :      0.57703
Magnitude (Debye)      :      1.46668

Rotational constants in cm-1:     0.019600     0.009121     0.007387
Rotational constants in MHz :   587.601697   273.447837   221.467209

                             ****ORCA TERMINATED NORMALLY****
TOTAL RUN TIME: 0 days 0 hours 0 minutes 22 seconds 106 msec
