                         Program Version 4.2.1 -  RELEASE  -
|  1> ! wB97X-D3 SP def2-SVP
|  2> %pal
|  3> nprocs 24
|  4> end
|  5>
|  6> * xyz 0 1
|  7> S 	 -115.801 	 14.899 	 -114.418
|  8> C 	 -114.298 	 14.6561 	 -115.283
|  9> C 	 -114.513 	 14.4689 	 -116.651
| 10> C 	 -115.876 	 14.745 	 -116.937
| 11> C 	 -116.725 	 14.9247 	 -115.855
| 12> H 	 -116.347 	 14.8156 	 -117.977
| 13> C 	 -113.463 	 14.4696 	 -117.696
| 14> H 	 -112.521 	 14.1503 	 -117.232
| 15> H 	 -113.296 	 15.5137 	 -117.864
| 16> C 	 -113.719 	 13.7233 	 -119.029
| 17> H 	 -114.304 	 12.8133 	 -118.793
| 18> H 	 -114.37 	 14.3525 	 -119.693
| 19> C 	 -112.432 	 13.155 	 -119.743
| 20> H 	 -111.901 	 12.3841 	 -119.237
| 21> H 	 -112.713 	 12.759 	 -120.733
| 22> H 	 -111.713 	 14.0641 	 -119.894
| 23> S 	 -118.912 	 13.5867 	 -116.697
| 24> C 	 -120.494 	 14.058 	 -116.081
| 25> C 	 -120.398 	 15.2089 	 -115.333
| 26> C 	 -119.087 	 15.7431 	 -115.129
| 27> C 	 -118.186 	 15.0039 	 -115.882
| 28> H 	 -121.26 	 15.4857 	 -114.791
| 29> C 	 -118.833 	 16.9059 	 -114.162
| 30> H 	 -117.882 	 16.7157 	 -113.638
| 31> H 	 -119.647 	 16.9668 	 -113.426
| 32> C 	 -118.819 	 18.2712 	 -114.897
| 33> H 	 -118.928 	 19.0818 	 -114.182
| 34> H 	 -119.707 	 18.2616 	 -115.632
| 35> C 	 -117.462 	 18.3916 	 -115.602
| 36> H 	 -117.199 	 19.4133 	 -115.841
| 37> H 	 -117.274 	 17.7437 	 -116.502
| 38> H 	 -116.644 	 18.1253 	 -114.92
| 39> H 	 -113.251 	 14.6299 	 -114.943
| 40> H 	 -121.345 	 13.4353 	 -116.335
| 41> *
| 42>
| 43>                          ****END OF INPUT****

CARTESIAN COORDINATES (ANGSTROEM)
---------------------------------
  S    -115.801000   14.899000  -114.418000
  C    -114.298000   14.656100  -115.283000
  C    -114.513000   14.468900  -116.651000
  C    -115.876000   14.745000  -116.937000
  C    -116.725000   14.924700  -115.855000
  H    -116.347000   14.815600  -117.977000
  C    -113.463000   14.469600  -117.696000
  H    -112.521000   14.150300  -117.232000
  H    -113.296000   15.513700  -117.864000
  C    -113.719000   13.723300  -119.029000
  H    -114.304000   12.813300  -118.793000
  H    -114.370000   14.352500  -119.693000
  C    -112.432000   13.155000  -119.743000
  H    -111.901000   12.384100  -119.237000
  H    -112.713000   12.759000  -120.733000
  H    -111.713000   14.064100  -119.894000
  S    -118.912000   13.586700  -116.697000
  C    -120.494000   14.058000  -116.081000
  C    -120.398000   15.208900  -115.333000
  C    -119.087000   15.743100  -115.129000
  C    -118.186000   15.003900  -115.882000
  H    -121.260000   15.485700  -114.791000
  C    -118.833000   16.905900  -114.162000
  H    -117.882000   16.715700  -113.638000
  H    -119.647000   16.966800  -113.426000
  C    -118.819000   18.271200  -114.897000
  H    -118.928000   19.081800  -114.182000
  H    -119.707000   18.261600  -115.632000
  C    -117.462000   18.391600  -115.602000
  H    -117.199000   19.413300  -115.841000
  H    -117.274000   17.743700  -116.502000
  H    -116.644000   18.125300  -114.920000
  H    -113.251000   14.629900  -114.943000
  H    -121.345000   13.435300  -116.335000

 Total Charge           Charge          ....    0
 Multiplicity           Mult            ....    1
 Number of Electrons    NEL             ....  134
 Basis Dimension        Dim             ....  322

ORBITAL ENERGIES
----------------

  NO   OCC          E(Eh)            E(eV)
   0   2.0000     -88.968864     -2420.9659
   1   2.0000     -88.964191     -2420.8387
   2   2.0000     -10.329989      -281.0933
   3   2.0000     -10.324054      -280.9318
   4   2.0000     -10.319526      -280.8086
   5   2.0000     -10.313283      -280.6387
   6   2.0000     -10.308719      -280.5145
   7   2.0000     -10.298315      -280.2314
   8   2.0000     -10.297568      -280.2111
   9   2.0000     -10.297222      -280.2017
  10   2.0000     -10.293576      -280.1025
  11   2.0000     -10.292418      -280.0709
  12   2.0000     -10.292069      -280.0614
  13   2.0000     -10.290297      -280.0132
  14   2.0000     -10.290183      -280.0101
  15   2.0000     -10.271914      -279.5130
  16   2.0000      -8.083405      -219.9606
  17   2.0000      -8.078371      -219.8237
  18   2.0000      -6.041961      -164.4101
  19   2.0000      -6.037833      -164.2978
  20   2.0000      -6.036887      -164.2720
  21   2.0000      -6.034242      -164.2001
  22   2.0000      -6.032962      -164.1652
  23   2.0000      -6.029131      -164.0610
  24   2.0000      -1.007414       -27.4131
  25   2.0000      -0.983233       -26.7551
  26   2.0000      -0.910845       -24.7853
  27   2.0000      -0.907067       -24.6826
  28   2.0000      -0.866045       -23.5663
  29   2.0000      -0.848099       -23.0779
  30   2.0000      -0.841406       -22.8958
  31   2.0000      -0.808158       -21.9911
  32   2.0000      -0.782401       -21.2902
  33   2.0000      -0.771771       -21.0009
  34   2.0000      -0.708695       -19.2846
  35   2.0000      -0.696597       -18.9554
  36   2.0000      -0.685565       -18.6552
  37   2.0000      -0.666893       -18.1471
  38   2.0000      -0.629907       -17.1406
  39   2.0000      -0.614478       -16.7208
  40   2.0000      -0.597539       -16.2599
  41   2.0000      -0.567794       -15.4504
  42   2.0000      -0.559596       -15.2274
  43   2.0000      -0.553190       -15.0531
  44   2.0000      -0.541709       -14.7407
  45   2.0000      -0.520747       -14.1702
  46   2.0000      -0.509716       -13.8701
  47   2.0000      -0.506674       -13.7873
  48   2.0000      -0.503075       -13.6894
  49   2.0000      -0.491250       -13.3676
  50   2.0000      -0.485244       -13.2042
  51   2.0000      -0.476205       -12.9582
  52   2.0000      -0.471185       -12.8216
  53   2.0000      -0.469242       -12.7687
  54   2.0000      -0.456828       -12.4309
  55   2.0000      -0.444413       -12.0931
  56   2.0000      -0.442495       -12.0409
  57   2.0000      -0.437196       -11.8967
  58   2.0000      -0.428819       -11.6687
  59   2.0000      -0.423731       -11.5303
  60   2.0000      -0.421247       -11.4627
  61   2.0000      -0.415662       -11.3107
  62   2.0000      -0.412331       -11.2201
  63   2.0000      -0.341343        -9.2884
  64   2.0000      -0.332348        -9.0436
  65   2.0000      -0.328889        -8.9495
  66   2.0000      -0.291261        -7.9256
  67   0.0000       0.029513         0.8031
  68   0.0000       0.070748         1.9252
  69   0.0000       0.102208         2.7812
  70   0.0000       0.118497         3.2245
  71   0.0000       0.127687         3.4746

MULLIKEN ATOMIC CHARGES
-----------------------
   0 S :    0.124014
   1 C :   -0.126184
   2 C :   -0.084220
   3 C :   -0.034786
   4 C :   -0.140041
   5 H :    0.034442
   6 C :    0.065990
   7 H :    0.010732
   8 H :    0.043382
   9 C :   -0.106151
  10 H :    0.040989
  11 H :    0.047326
  12 C :   -0.075085
  13 H :    0.041228
  14 H :    0.041521
  15 H :    0.041342
  16 S :    0.098443
  17 C :   -0.105571
  18 C :   -0.009299
  19 C :   -0.046627
  20 C :   -0.155389
  21 H :    0.005846
  22 C :    0.066583
  23 H :    0.032555
  24 H :    0.024267
  25 C :   -0.063173
  26 H :    0.034200
  27 H :    0.047470
  28 C :   -0.063584
  29 H :    0.023164
  30 H :    0.055309
  31 H :    0.017775
  32 H :    0.048626
  33 H :    0.064907
Sum of atomic charges:   -0.0000000

LOEWDIN ATOMIC CHARGES
----------------------
   0 S :    0.433591
   1 C :   -0.210761
   2 C :   -0.065285
   3 C :   -0.085178
   4 C :   -0.216545
   5 H :    0.037454
   6 C :   -0.038024
   7 H :    0.029381
   8 H :    0.037614
   9 C :   -0.046407
  10 H :    0.028371
  11 H :    0.029661
  12 C :   -0.067974
  13 H :    0.020629
  14 H :    0.029529
  15 H :    0.032815
  16 S :    0.392515
  17 C :   -0.174369
  18 C :   -0.068266
  19 C :   -0.050905
  20 C :   -0.184721
  21 H :    0.024339
  22 C :   -0.028465
  23 H :    0.024507
  24 H :    0.030794
  25 C :   -0.037984
  26 H :    0.023353
  27 H :    0.035123
  28 C :   -0.077457
  29 H :    0.020720
  30 H :    0.034922
  31 H :    0.023320
  32 H :    0.034302
  33 H :    0.029398

  Mayer bond orders larger than 0.100000
B(  0-S ,  1-C ) :   1.1460 B(  0-S ,  4-C ) :   1.1504 B(  1-C ,  2-C ) :   1.5901
B(  1-C , 32-H ) :   0.9625 B(  2-C ,  3-C ) :   1.2475 B(  2-C ,  6-C ) :   1.0453
B(  3-C ,  4-C ) :   1.5622 B(  3-C ,  5-H ) :   0.9820 B(  4-C , 20-C ) :   1.0428
B(  6-C ,  7-H ) :   0.9375 B(  6-C ,  8-H ) :   0.9337 B(  6-C ,  9-C ) :   1.0415
B(  9-C , 10-H ) :   0.9662 B(  9-C , 11-H ) :   0.9529 B(  9-C , 12-C ) :   1.0771
B( 12-C , 13-H ) :   0.9774 B( 12-C , 14-H ) :   0.9752 B( 12-C , 15-H ) :   0.9767
B( 16-S , 17-C ) :   1.1487 B( 16-S , 20-C ) :   1.1429 B( 17-C , 18-C ) :   1.6135
B( 17-C , 33-H ) :   0.9707 B( 18-C , 19-C ) :   1.2306 B( 18-C , 21-H ) :   0.9912
B( 19-C , 20-C ) :   1.5902 B( 19-C , 22-C ) :   1.0352 B( 22-C , 23-H ) :   0.9382
B( 22-C , 24-H ) :   0.9333 B( 22-C , 25-C ) :   1.0668 B( 25-C , 26-H ) :   0.9558
B( 25-C , 27-H ) :   0.9535 B( 25-C , 28-C ) :   1.0725 B( 28-C , 29-H ) :   0.9738
B( 28-C , 30-H ) :   0.9716 B( 28-C , 31-H ) :   0.9719

Dispersion correction           -0.015018717
FINAL SINGLE POINT ENERGY     -1339.877912667759

DIPOLE MOMENT
-------------
                                X             Y             Z
Electronic contribution:    -12.18180      -9.43643      10.26948
Nuclear contribution   :     12.23834       9.62339     -10.34425
                        -----------------------------------------
Total Dipole Moment    :      0.05654       0.18695      -0.07478
                        -----------------------------------------
Magnitude (a.u.)       :      0.20914
Magnitude (Debye)      :      0.53160

Rotational constants in cm-1:     0.021438     0.008115     0.006936
Rotational constants in MHz :   642.705626   243.286143   207.942273

                             ****ORCA TERMINATED NORMALLY****
TOTAL RUN TIME: 0 days 0 hours 0 minutes 20 seconds 575 msec
