                         Program Version 4.2.1 -  RELEASE  -
|  1> ! wB97X-D3 SP def2-SVP
|  2> %pal
|  3> nprocs 24
|  4> end
|  5>
|  6> * xyz 0 1
|  7> S 	 -94.2279 	 -4.48357 	 -116.082
|  8> C 	 -94.9172 	 -3.38945 	 -117.264
|  9> C 	 -95.8749 	 -4.03391 	 -117.932
| 10> C 	 -95.9984 	 -5.43506 	 -117.633
| 11> C 	 -95.0319 	 -5.89512 	 -116.695
| 12> H 	 -96.665 	 -6.23816 	 -118.053
| 13> C 	 -96.582 	 -3.45176 	 -119.066
| 14> H 	 -95.9837 	 -3.60775 	 -119.89
| 15> H 	 -96.6193 	 -2.35131 	 -119.004
| 16> C 	 -98.0383 	 -3.88716 	 -119.389
| 17> H 	 -98.109 	 -4.98174 	 -119.433
| 18> H 	 -98.6556 	 -3.62872 	 -118.465
| 19> C 	 -98.5591 	 -3.38468 	 -120.71
| 20> H 	 -98.3091 	 -2.27521 	 -120.91
| 21> H 	 -98.1774 	 -3.93254 	 -121.603
| 22> H 	 -99.6331 	 -3.48394 	 -120.869
| 23> S 	 -95.5905 	 -7.36733 	 -114.445
| 24> C 	 -95.2826 	 -9.11307 	 -114.322
| 25> C 	 -94.7251 	 -9.52319 	 -115.525
| 26> C 	 -94.5967 	 -8.50326 	 -116.498
| 27> C 	 -94.956 	 -7.23751 	 -116.023
| 28> H 	 -94.4375 	 -10.566 	 -115.65
| 29> C 	 -94.2205 	 -8.76468 	 -117.966
| 30> H 	 -95.1259 	 -8.65495 	 -118.578
| 31> H 	 -94.0016 	 -9.8083 	 -118.035
| 32> C 	 -93.1534 	 -7.99597 	 -118.682
| 33> H 	 -93.6251 	 -7.02257 	 -118.731
| 34> H 	 -92.9456 	 -8.29188 	 -119.652
| 35> C 	 -91.9005 	 -7.76456 	 -117.888
| 36> H 	 -91.3279 	 -7.02905 	 -118.349
| 37> H 	 -91.385 	 -8.71885 	 -117.945
| 38> H 	 -92.1603 	 -7.53946 	 -116.84
| 39> H 	 -94.593 	 -2.37447 	 -117.423
| 40> H 	 -95.4302 	 -9.79198 	 -113.475
| 41> *
| 42>
| 43>                          ****END OF INPUT****

CARTESIAN COORDINATES (ANGSTROEM)
---------------------------------
  S    -94.227900   -4.483570  -116.082000
  C    -94.917200   -3.389450  -117.264000
  C    -95.874900   -4.033910  -117.932000
  C    -95.998400   -5.435060  -117.633000
  C    -95.031900   -5.895120  -116.695000
  H    -96.665000   -6.238160  -118.053000
  C    -96.582000   -3.451760  -119.066000
  H    -95.983700   -3.607750  -119.890000
  H    -96.619300   -2.351310  -119.004000
  C    -98.038300   -3.887160  -119.389000
  H    -98.109000   -4.981740  -119.433000
  H    -98.655600   -3.628720  -118.465000
  C    -98.559100   -3.384680  -120.710000
  H    -98.309100   -2.275210  -120.910000
  H    -98.177400   -3.932540  -121.603000
  H    -99.633100   -3.483940  -120.869000
  S    -95.590500   -7.367330  -114.445000
  C    -95.282600   -9.113070  -114.322000
  C    -94.725100   -9.523190  -115.525000
  C    -94.596700   -8.503260  -116.498000
  C    -94.956000   -7.237510  -116.023000
  H    -94.437500  -10.566000  -115.650000
  C    -94.220500   -8.764680  -117.966000
  H    -95.125900   -8.654950  -118.578000
  H    -94.001600   -9.808300  -118.035000
  C    -93.153400   -7.995970  -118.682000
  H    -93.625100   -7.022570  -118.731000
  H    -92.945600   -8.291880  -119.652000
  C    -91.900500   -7.764560  -117.888000
  H    -91.327900   -7.029050  -118.349000
  H    -91.385000   -8.718850  -117.945000
  H    -92.160300   -7.539460  -116.840000
  H    -94.593000   -2.374470  -117.423000
  H    -95.430200   -9.791980  -113.475000

 Total Charge           Charge          ....    0
 Multiplicity           Mult            ....    1
 Number of Electrons    NEL             ....  134
 Basis Dimension        Dim             ....  322

ORBITAL ENERGIES
----------------

  NO   OCC          E(Eh)            E(eV)
   0   2.0000     -88.967983     -2420.9419
   1   2.0000     -88.964647     -2420.8511
   2   2.0000     -10.338933      -281.3367
   3   2.0000     -10.330272      -281.1010
   4   2.0000     -10.322417      -280.8873
   5   2.0000     -10.312394      -280.6145
   6   2.0000     -10.306452      -280.4528
   7   2.0000     -10.304413      -280.3973
   8   2.0000     -10.298583      -280.2387
   9   2.0000     -10.296443      -280.1805
  10   2.0000     -10.295014      -280.1416
  11   2.0000     -10.288889      -279.9749
  12   2.0000     -10.284723      -279.8615
  13   2.0000     -10.283850      -279.8378
  14   2.0000     -10.265251      -279.3317
  15   2.0000     -10.259236      -279.1680
  16   2.0000      -8.082741      -219.9426
  17   2.0000      -8.079651      -219.8585
  18   2.0000      -6.041237      -164.3904
  19   2.0000      -6.038183      -164.3073
  20   2.0000      -6.037031      -164.2760
  21   2.0000      -6.033946      -164.1920
  22   2.0000      -6.033679      -164.1848
  23   2.0000      -6.030511      -164.0986
  24   2.0000      -1.010016       -27.4839
  25   2.0000      -0.991103       -26.9693
  26   2.0000      -0.916378       -24.9359
  27   2.0000      -0.913081       -24.8462
  28   2.0000      -0.873180       -23.7604
  29   2.0000      -0.848370       -23.0853
  30   2.0000      -0.845807       -23.0156
  31   2.0000      -0.818261       -22.2660
  32   2.0000      -0.783388       -21.3171
  33   2.0000      -0.775590       -21.1049
  34   2.0000      -0.713468       -19.4144
  35   2.0000      -0.696992       -18.9661
  36   2.0000      -0.683894       -18.6097
  37   2.0000      -0.662341       -18.0232
  38   2.0000      -0.645699       -17.5704
  39   2.0000      -0.617677       -16.8078
  40   2.0000      -0.586622       -15.9628
  41   2.0000      -0.576876       -15.6976
  42   2.0000      -0.565518       -15.3885
  43   2.0000      -0.562371       -15.3029
  44   2.0000      -0.553975       -15.0744
  45   2.0000      -0.524408       -14.2699
  46   2.0000      -0.515458       -14.0263
  47   2.0000      -0.510839       -13.9006
  48   2.0000      -0.509303       -13.8588
  49   2.0000      -0.501957       -13.6590
  50   2.0000      -0.489867       -13.3300
  51   2.0000      -0.482414       -13.1272
  52   2.0000      -0.474672       -12.9165
  53   2.0000      -0.469402       -12.7731
  54   2.0000      -0.459618       -12.5068
  55   2.0000      -0.453036       -12.3277
  56   2.0000      -0.443340       -12.0639
  57   2.0000      -0.434628       -11.8268
  58   2.0000      -0.429060       -11.6753
  59   2.0000      -0.420207       -11.4344
  60   2.0000      -0.416798       -11.3416
  61   2.0000      -0.411906       -11.2085
  62   2.0000      -0.394851       -10.7444
  63   2.0000      -0.343689        -9.3522
  64   2.0000      -0.329565        -8.9679
  65   2.0000      -0.325902        -8.8683
  66   2.0000      -0.305421        -8.3109
  67   0.0000       0.034607         0.9417
  68   0.0000       0.055992         1.5236
  69   0.0000       0.118303         3.2192
  70   0.0000       0.127302         3.4641
  71   0.0000       0.131717         3.5842

MULLIKEN ATOMIC CHARGES
-----------------------
   0 S :    0.106898
   1 C :   -0.123034
   2 C :   -0.028373
   3 C :    0.015703
   4 C :   -0.177082
   5 H :    0.040677
   6 C :    0.059603
   7 H :    0.020978
   8 H :    0.016602
   9 C :   -0.092783
  10 H :    0.029946
  11 H :    0.045533
  12 C :   -0.073539
  13 H :    0.036519
  14 H :    0.035931
  15 H :    0.036613
  16 S :    0.122957
  17 C :   -0.106532
  18 C :   -0.040104
  19 C :   -0.065568
  20 C :   -0.161909
  21 H :    0.024004
  22 C :    0.090928
  23 H :    0.032745
  24 H :   -0.006339
  25 C :   -0.046823
  26 H :    0.017201
  27 H :    0.010416
  28 C :   -0.014211
  29 H :    0.021655
  30 H :    0.015288
  31 H :    0.042385
  32 H :    0.047293
  33 H :    0.066423
Sum of atomic charges:   -0.0000000

LOEWDIN ATOMIC CHARGES
----------------------
   0 S :    0.413165
   1 C :   -0.187386
   2 C :   -0.070958
   3 C :   -0.067845
   4 C :   -0.201480
   5 H :    0.041388
   6 C :   -0.032888
   7 H :    0.024955
   8 H :    0.031367
   9 C :   -0.048524
  10 H :    0.022610
  11 H :    0.033865
  12 C :   -0.077984
  13 H :    0.030890
  14 H :    0.030514
  15 H :    0.028381
  16 S :    0.430233
  17 C :   -0.188682
  18 C :   -0.072035
  19 C :   -0.060963
  20 C :   -0.219367
  21 H :    0.034113
  22 C :   -0.029616
  23 H :    0.036071
  24 H :    0.018821
  25 C :   -0.041308
  26 H :    0.022162
  27 H :    0.015881
  28 C :   -0.054143
  29 H :    0.016908
  30 H :    0.020907
  31 H :    0.029272
  32 H :    0.033103
  33 H :    0.038573

  Mayer bond orders larger than 0.100000
B(  0-S ,  1-C ) :   1.1308 B(  0-S ,  4-C ) :   1.1755 B(  1-C ,  2-C ) :   1.6024
B(  1-C , 32-H ) :   0.9789 B(  2-C ,  3-C ) :   1.2205 B(  2-C ,  6-C ) :   1.0327
B(  3-C ,  4-C ) :   1.5561 B(  3-C ,  5-H ) :   0.9861 B(  4-C , 20-C ) :   0.9995
B(  6-C ,  7-H ) :   0.9366 B(  6-C ,  8-H ) :   0.9351 B(  6-C ,  9-C ) :   1.0565
B(  9-C , 10-H ) :   0.9493 B(  9-C , 11-H ) :   0.9585 B(  9-C , 12-C ) :   1.0815
B( 12-C , 13-H ) :   0.9744 B( 12-C , 14-H ) :   0.9714 B( 12-C , 15-H ) :   0.9723
B( 16-S , 17-C ) :   1.1603 B( 16-S , 20-C ) :   1.1780 B( 17-C , 18-C ) :   1.5835
B( 17-C , 20-C ) :   0.1055 B( 17-C , 33-H ) :   0.9665 B( 18-C , 19-C ) :   1.2882
B( 18-C , 21-H ) :   0.9842 B( 19-C , 20-C ) :   1.5551 B( 19-C , 22-C ) :   1.0261
B( 22-C , 23-H ) :   0.9345 B( 22-C , 24-H ) :   0.9290 B( 22-C , 25-C ) :   1.0742
B( 25-C , 26-H ) :   0.9455 B( 25-C , 27-H ) :   0.9505 B( 25-C , 28-C ) :   1.0944
B( 28-C , 29-H ) :   0.9730 B( 28-C , 30-H ) :   0.9773 B( 28-C , 31-H ) :   0.9670

Dispersion correction           -0.014912406
FINAL SINGLE POINT ENERGY     -1339.864021948559

DIPOLE MOMENT
-------------
                                X             Y             Z
Electronic contribution:      3.31695      -1.33675      24.22890
Nuclear contribution   :     -3.55310       1.21017     -24.87340
                        -----------------------------------------
Total Dipole Moment    :     -0.23615      -0.12658      -0.64450
                        -----------------------------------------
Magnitude (a.u.)       :      0.69798
Magnitude (Debye)      :      1.77412

Rotational constants in cm-1:     0.019684     0.008044     0.007587
Rotational constants in MHz :   590.106684   241.154911   227.451982

                             ****ORCA TERMINATED NORMALLY****
TOTAL RUN TIME: 0 days 0 hours 0 minutes 22 seconds 156 msec
