                         Program Version 4.2.1 -  RELEASE  -
|  1> ! wB97X-D3 SP def2-SVP
|  2> %pal
|  3> nprocs 24
|  4> end
|  5>
|  6> * xyz 0 1
|  7> S 	 -148.557 	 6.19397 	 9.02224
|  8> C 	 -147.976 	 4.5238 	 9.13739
|  9> C 	 -148.466 	 3.74624 	 8.09861
| 10> C 	 -149.473 	 4.44436 	 7.31547
| 11> C 	 -149.674 	 5.79261 	 7.70618
| 12> H 	 -149.98 	 4.02932 	 6.45941
| 13> C 	 -148.073 	 2.26105 	 7.81155
| 14> H 	 -147.734 	 1.63921 	 8.70748
| 15> H 	 -147.165 	 2.55125 	 7.26903
| 16> C 	 -149.076 	 1.40545 	 6.98854
| 17> H 	 -150.147 	 1.33854 	 7.41634
| 18> H 	 -149.141 	 1.95113 	 6.00982
| 19> C 	 -148.538 	 0.0474449 	 6.45717
| 20> H 	 -147.486 	 0.0761827 	 6.14305
| 21> H 	 -148.514 	 -0.553683 	 7.29982
| 22> H 	 -149.163 	 -0.375858 	 5.67184
| 23> S 	 -151.569 	 7.77535 	 8.24501
| 24> C 	 -152.53 	 8.41566 	 6.92497
| 25> C 	 -152.126 	 7.80719 	 5.75317
| 26> C 	 -151.061 	 6.90232 	 5.82807
| 27> C 	 -150.696 	 6.67187 	 7.14273
| 28> H 	 -152.686 	 8.01118 	 4.82467
| 29> C 	 -150.334 	 6.33096 	 4.65655
| 30> H 	 -149.684 	 5.54166 	 4.93117
| 31> H 	 -149.632 	 7.13548 	 4.28601
| 32> C 	 -151.119 	 5.86199 	 3.36142
| 33> H 	 -151.581 	 6.81311 	 2.94157
| 34> H 	 -151.917 	 5.06745 	 3.54677
| 35> C 	 -150.13 	 5.37791 	 2.25829
| 36> H 	 -149.699 	 4.44576 	 2.60431
| 37> H 	 -149.426 	 6.17372 	 2.01735
| 38> H 	 -150.785 	 5.2146 	 1.39394
| 39> H 	 -147.226 	 4.21923 	 9.89704
| 40> H 	 -153.429 	 9.10608 	 6.98399
| 41> *
| 42>
| 43>                          ****END OF INPUT****

CARTESIAN COORDINATES (ANGSTROEM)
---------------------------------
  S    -148.557000    6.193970    9.022240
  C    -147.976000    4.523800    9.137390
  C    -148.466000    3.746240    8.098610
  C    -149.473000    4.444360    7.315470
  C    -149.674000    5.792610    7.706180
  H    -149.980000    4.029320    6.459410
  C    -148.073000    2.261050    7.811550
  H    -147.734000    1.639210    8.707480
  H    -147.165000    2.551250    7.269030
  C    -149.076000    1.405450    6.988540
  H    -150.147000    1.338540    7.416340
  H    -149.141000    1.951130    6.009820
  C    -148.538000    0.047445    6.457170
  H    -147.486000    0.076183    6.143050
  H    -148.514000   -0.553683    7.299820
  H    -149.163000   -0.375858    5.671840
  S    -151.569000    7.775350    8.245010
  C    -152.530000    8.415660    6.924970
  C    -152.126000    7.807190    5.753170
  C    -151.061000    6.902320    5.828070
  C    -150.696000    6.671870    7.142730
  H    -152.686000    8.011180    4.824670
  C    -150.334000    6.330960    4.656550
  H    -149.684000    5.541660    4.931170
  H    -149.632000    7.135480    4.286010
  C    -151.119000    5.861990    3.361420
  H    -151.581000    6.813110    2.941570
  H    -151.917000    5.067450    3.546770
  C    -150.130000    5.377910    2.258290
  H    -149.699000    4.445760    2.604310
  H    -149.426000    6.173720    2.017350
  H    -150.785000    5.214600    1.393940
  H    -147.226000    4.219230    9.897040
  H    -153.429000    9.106080    6.983990

 Total Charge           Charge          ....    0
 Multiplicity           Mult            ....    1
 Number of Electrons    NEL             ....  134
 Basis Dimension        Dim             ....  322

ORBITAL ENERGIES
----------------

  NO   OCC          E(Eh)            E(eV)
   0   2.0000     -88.967304     -2420.9234
   1   2.0000     -88.965872     -2420.8844
   2   2.0000     -10.335721      -281.2493
   3   2.0000     -10.329595      -281.0826
   4   2.0000     -10.322944      -280.9016
   5   2.0000     -10.317262      -280.7470
   6   2.0000     -10.310649      -280.5670
   7   2.0000     -10.307085      -280.4700
   8   2.0000     -10.302200      -280.3371
   9   2.0000     -10.302126      -280.3351
  10   2.0000     -10.301340      -280.3137
  11   2.0000     -10.298171      -280.2275
  12   2.0000     -10.293428      -280.0984
  13   2.0000     -10.292101      -280.0623
  14   2.0000     -10.283536      -279.8292
  15   2.0000     -10.278505      -279.6923
  16   2.0000      -8.081001      -219.8952
  17   2.0000      -8.079850      -219.8639
  18   2.0000      -6.039607      -164.3461
  19   2.0000      -6.038386      -164.3128
  20   2.0000      -6.035666      -164.2388
  21   2.0000      -6.034444      -164.2056
  22   2.0000      -6.031706      -164.1311
  23   2.0000      -6.030629      -164.1017
  24   2.0000      -1.001565       -27.2540
  25   2.0000      -0.977418       -26.5969
  26   2.0000      -0.904430       -24.6108
  27   2.0000      -0.903898       -24.5963
  28   2.0000      -0.867682       -23.6108
  29   2.0000      -0.853740       -23.2314
  30   2.0000      -0.842300       -22.9201
  31   2.0000      -0.809625       -22.0310
  32   2.0000      -0.781541       -21.2668
  33   2.0000      -0.771114       -20.9831
  34   2.0000      -0.707201       -19.2439
  35   2.0000      -0.693979       -18.8841
  36   2.0000      -0.689030       -18.7494
  37   2.0000      -0.650922       -17.7125
  38   2.0000      -0.633986       -17.2516
  39   2.0000      -0.617376       -16.7997
  40   2.0000      -0.596245       -16.2247
  41   2.0000      -0.569182       -15.4882
  42   2.0000      -0.566424       -15.4132
  43   2.0000      -0.556297       -15.1376
  44   2.0000      -0.528374       -14.3778
  45   2.0000      -0.526346       -14.3226
  46   2.0000      -0.509571       -13.8661
  47   2.0000      -0.508638       -13.8408
  48   2.0000      -0.503603       -13.7037
  49   2.0000      -0.499628       -13.5956
  50   2.0000      -0.495282       -13.4773
  51   2.0000      -0.483513       -13.1570
  52   2.0000      -0.472422       -12.8552
  53   2.0000      -0.466568       -12.6960
  54   2.0000      -0.459415       -12.5013
  55   2.0000      -0.448128       -12.1942
  56   2.0000      -0.442344       -12.0368
  57   2.0000      -0.438438       -11.9305
  58   2.0000      -0.435260       -11.8440
  59   2.0000      -0.420311       -11.4372
  60   2.0000      -0.416099       -11.3226
  61   2.0000      -0.413302       -11.2465
  62   2.0000      -0.405857       -11.0439
  63   2.0000      -0.349493        -9.5102
  64   2.0000      -0.331168        -9.0115
  65   2.0000      -0.327405        -8.9091
  66   2.0000      -0.284828        -7.7506
  67   0.0000       0.021776         0.5926
  68   0.0000       0.075238         2.0473
  69   0.0000       0.108913         2.9637
  70   0.0000       0.119301         3.2464
  71   0.0000       0.125289         3.4093

MULLIKEN ATOMIC CHARGES
-----------------------
   0 S :    0.108866
   1 C :   -0.162311
   2 C :   -0.060489
   3 C :    0.006842
   4 C :   -0.137794
   5 H :    0.016631
   6 C :    0.024174
   7 H :    0.045382
   8 H :    0.051868
   9 C :   -0.144947
  10 H :    0.066243
  11 H :    0.034991
  12 C :   -0.013590
  13 H :    0.028639
  14 H :    0.012401
  15 H :    0.045791
  16 S :    0.102523
  17 C :   -0.112383
  18 C :   -0.059718
  19 C :    0.019760
  20 C :   -0.162366
  21 H :    0.025469
  22 C :    0.053479
  23 H :   -0.003017
  24 H :    0.044543
  25 C :   -0.153104
  26 H :    0.038545
  27 H :    0.052549
  28 C :   -0.033806
  29 H :    0.037569
  30 H :    0.039037
  31 H :    0.039416
  32 H :    0.064785
  33 H :    0.084022
Sum of atomic charges:    0.0000000

LOEWDIN ATOMIC CHARGES
----------------------
   0 S :    0.388461
   1 C :   -0.205955
   2 C :   -0.058826
   3 C :   -0.066528
   4 C :   -0.185527
   5 H :    0.026021
   6 C :   -0.041407
   7 H :    0.035238
   8 H :    0.042931
   9 C :   -0.056496
  10 H :    0.039232
  11 H :    0.025112
  12 C :   -0.060906
  13 H :    0.029677
  14 H :    0.013081
  15 H :    0.030664
  16 S :    0.390807
  17 C :   -0.196401
  18 C :   -0.078075
  19 C :   -0.060085
  20 C :   -0.182447
  21 H :    0.033405
  22 C :   -0.037187
  23 H :    0.018416
  24 H :    0.045235
  25 C :   -0.047180
  26 H :    0.024813
  27 H :    0.029717
  28 C :   -0.061596
  29 H :    0.023116
  30 H :    0.026612
  31 H :    0.030559
  32 H :    0.036228
  33 H :    0.049290

  Mayer bond orders larger than 0.100000
B(  0-S ,  1-C ) :   1.1257 B(  0-S ,  4-C ) :   1.1499 B(  1-C ,  2-C ) :   1.6134
B(  1-C , 32-H ) :   0.9684 B(  2-C ,  3-C ) :   1.2548 B(  2-C ,  6-C ) :   0.9784
B(  3-C ,  4-C ) :   1.5403 B(  3-C ,  5-H ) :   0.9837 B(  4-C , 20-C ) :   1.0760
B(  6-C ,  7-H ) :   0.9548 B(  6-C ,  8-H ) :   0.9357 B(  6-C ,  9-C ) :   1.0692
B(  9-C , 10-H ) :   0.9583 B(  9-C , 11-H ) :   0.9459 B(  9-C , 12-C ) :   1.0695
B( 12-C , 13-H ) :   0.9725 B( 12-C , 14-H ) :   0.9746 B( 12-C , 15-H ) :   0.9766
B( 16-S , 17-C ) :   1.1497 B( 16-S , 20-C ) :   1.1320 B( 17-C , 18-C ) :   1.6062
B( 17-C , 20-C ) :   0.1005 B( 17-C , 33-H ) :   0.9581 B( 18-C , 19-C ) :   1.2559
B( 18-C , 21-H ) :   0.9822 B( 19-C , 20-C ) :   1.5663 B( 19-C , 22-C ) :   1.0486
B( 22-C , 23-H ) :   0.9313 B( 22-C , 24-H ) :   0.9239 B( 22-C , 25-C ) :   1.0524
B( 25-C , 26-H ) :   0.9512 B( 25-C , 27-H ) :   0.9603 B( 25-C , 28-C ) :   1.0775
B( 28-C , 29-H ) :   0.9768 B( 28-C , 30-H ) :   0.9741 B( 28-C , 31-H ) :   0.9749

Dispersion correction           -0.013438726
FINAL SINGLE POINT ENERGY     -1339.864725921301

DIPOLE MOMENT
-------------
                                X             Y             Z
Electronic contribution:     -3.64357      23.16362      23.54890
Nuclear contribution   :      3.69584     -23.66852     -24.24548
                        -----------------------------------------
Total Dipole Moment    :      0.05227      -0.50490      -0.69658
                        -----------------------------------------
Magnitude (a.u.)       :      0.86190
Magnitude (Debye)      :      2.19078

Rotational constants in cm-1:     0.015193     0.009257     0.006342
Rotational constants in MHz :   455.483240   277.524437   190.123641

                             ****ORCA TERMINATED NORMALLY****
TOTAL RUN TIME: 0 days 0 hours 0 minutes 19 seconds 888 msec
