                         Program Version 4.2.1 -  RELEASE  -
|  1> ! wB97X-D3 SP def2-SVP
|  2> %pal
|  3> nprocs 24
|  4> end
|  5>
|  6> * xyz 0 1
|  7> S 	 -83.2 	 -41.2403 	 -84.9898
|  8> C 	 -82.6171 	 -40.2213 	 -83.6415
|  9> C 	 -82.2252 	 -40.9708 	 -82.6063
| 10> C 	 -82.1611 	 -42.3675 	 -82.8352
| 11> C 	 -82.6077 	 -42.72 	 -84.1301
| 12> H 	 -81.8937 	 -43.1757 	 -82.1447
| 13> C 	 -81.678 	 -40.4471 	 -81.2746
| 14> H 	 -81.6119 	 -39.3737 	 -81.4528
| 15> H 	 -80.6809 	 -40.7941 	 -81.2517
| 16> C 	 -82.5574 	 -40.6708 	 -79.9742
| 17> H 	 -83.5343 	 -40.2934 	 -80.2177
| 18> H 	 -82.7489 	 -41.7409 	 -79.8786
| 19> C 	 -81.9768 	 -40.0133 	 -78.6951
| 20> H 	 -81.023 	 -40.463 	 -78.5985
| 21> H 	 -81.829 	 -38.8647 	 -78.7968
| 22> H 	 -82.5189 	 -40.298 	 -77.8337
| 23> S 	 -84.0896 	 -44.7922 	 -85.2538
| 24> C 	 -83.4016 	 -46.317 	 -85.7521
| 25> C 	 -82.0474 	 -46.2839 	 -85.5334
| 26> C 	 -81.6044 	 -45.1062 	 -84.9087
| 27> C 	 -82.5687 	 -44.1226 	 -84.6775
| 28> H 	 -81.398 	 -47.0957 	 -85.8564
| 29> C 	 -80.1268 	 -44.8791 	 -84.5308
| 30> H 	 -80.0361 	 -43.9282 	 -83.9256
| 31> H 	 -79.4303 	 -44.8607 	 -85.38
| 32> C 	 -79.6268 	 -45.9919 	 -83.6171
| 33> H 	 -78.6544 	 -45.7626 	 -83.3472
| 34> H 	 -79.7005 	 -46.9717 	 -84.1857
| 35> C 	 -80.3962 	 -46.0016 	 -82.2578
| 36> H 	 -81.5322 	 -46.0653 	 -82.4505
| 37> H 	 -80.1809 	 -45.1035 	 -81.8029
| 38> H 	 -80.0378 	 -46.8522 	 -81.7081
| 39> H 	 -82.6475 	 -39.1453 	 -83.6334
| 40> H 	 -83.9127 	 -47.2105 	 -86.1105
| 41> *
| 42>
| 43>                          ****END OF INPUT****

CARTESIAN COORDINATES (ANGSTROEM)
---------------------------------
  S    -83.200000  -41.240300  -84.989800
  C    -82.617100  -40.221300  -83.641500
  C    -82.225200  -40.970800  -82.606300
  C    -82.161100  -42.367500  -82.835200
  C    -82.607700  -42.720000  -84.130100
  H    -81.893700  -43.175700  -82.144700
  C    -81.678000  -40.447100  -81.274600
  H    -81.611900  -39.373700  -81.452800
  H    -80.680900  -40.794100  -81.251700
  C    -82.557400  -40.670800  -79.974200
  H    -83.534300  -40.293400  -80.217700
  H    -82.748900  -41.740900  -79.878600
  C    -81.976800  -40.013300  -78.695100
  H    -81.023000  -40.463000  -78.598500
  H    -81.829000  -38.864700  -78.796800
  H    -82.518900  -40.298000  -77.833700
  S    -84.089600  -44.792200  -85.253800
  C    -83.401600  -46.317000  -85.752100
  C    -82.047400  -46.283900  -85.533400
  C    -81.604400  -45.106200  -84.908700
  C    -82.568700  -44.122600  -84.677500
  H    -81.398000  -47.095700  -85.856400
  C    -80.126800  -44.879100  -84.530800
  H    -80.036100  -43.928200  -83.925600
  H    -79.430300  -44.860700  -85.380000
  C    -79.626800  -45.991900  -83.617100
  H    -78.654400  -45.762600  -83.347200
  H    -79.700500  -46.971700  -84.185700
  C    -80.396200  -46.001600  -82.257800
  H    -81.532200  -46.065300  -82.450500
  H    -80.180900  -45.103500  -81.802900
  H    -80.037800  -46.852200  -81.708100
  H    -82.647500  -39.145300  -83.633400
  H    -83.912700  -47.210500  -86.110500

 Total Charge           Charge          ....    0
 Multiplicity           Mult            ....    1
 Number of Electrons    NEL             ....  134
 Basis Dimension        Dim             ....  322

ORBITAL ENERGIES
----------------

  NO   OCC          E(Eh)            E(eV)
   0   2.0000     -88.969773     -2420.9906
   1   2.0000     -88.962864     -2420.8026
   2   2.0000     -10.344552      -281.4896
   3   2.0000     -10.333717      -281.1947
   4   2.0000     -10.320205      -280.8271
   5   2.0000     -10.315809      -280.7074
   6   2.0000     -10.305007      -280.4135
   7   2.0000     -10.299341      -280.2593
   8   2.0000     -10.298014      -280.2232
   9   2.0000     -10.293059      -280.0884
  10   2.0000     -10.291840      -280.0552
  11   2.0000     -10.291320      -280.0411
  12   2.0000     -10.291021      -280.0329
  13   2.0000     -10.284117      -279.8451
  14   2.0000     -10.281822      -279.7826
  15   2.0000     -10.274204      -279.5753
  16   2.0000      -8.082873      -219.9461
  17   2.0000      -8.077665      -219.8044
  18   2.0000      -6.041661      -164.4020
  19   2.0000      -6.037726      -164.2949
  20   2.0000      -6.036154      -164.2521
  21   2.0000      -6.033291      -164.1742
  22   2.0000      -6.031944      -164.1375
  23   2.0000      -6.028636      -164.0475
  24   2.0000      -1.002819       -27.2881
  25   2.0000      -0.984561       -26.7913
  26   2.0000      -0.909101       -24.7379
  27   2.0000      -0.903366       -24.5818
  28   2.0000      -0.868617       -23.6363
  29   2.0000      -0.847380       -23.0584
  30   2.0000      -0.841501       -22.8984
  31   2.0000      -0.817176       -22.2365
  32   2.0000      -0.779477       -21.2106
  33   2.0000      -0.773209       -21.0401
  34   2.0000      -0.709465       -19.3055
  35   2.0000      -0.703208       -19.1353
  36   2.0000      -0.690791       -18.7974
  37   2.0000      -0.655453       -17.8358
  38   2.0000      -0.641153       -17.4467
  39   2.0000      -0.617311       -16.7979
  40   2.0000      -0.596898       -16.2424
  41   2.0000      -0.568475       -15.4690
  42   2.0000      -0.558501       -15.1976
  43   2.0000      -0.550871       -14.9900
  44   2.0000      -0.546041       -14.8585
  45   2.0000      -0.527235       -14.3468
  46   2.0000      -0.517744       -14.0885
  47   2.0000      -0.515845       -14.0369
  48   2.0000      -0.507664       -13.8142
  49   2.0000      -0.498950       -13.5771
  50   2.0000      -0.490425       -13.3451
  51   2.0000      -0.479388       -13.0448
  52   2.0000      -0.471435       -12.8284
  53   2.0000      -0.466152       -12.6846
  54   2.0000      -0.459872       -12.5138
  55   2.0000      -0.447655       -12.1813
  56   2.0000      -0.440064       -11.9747
  57   2.0000      -0.432495       -11.7688
  58   2.0000      -0.425781       -11.5861
  59   2.0000      -0.424752       -11.5581
  60   2.0000      -0.422204       -11.4888
  61   2.0000      -0.419352       -11.4111
  62   2.0000      -0.407117       -11.0782
  63   2.0000      -0.346227        -9.4213
  64   2.0000      -0.333703        -9.0805
  65   2.0000      -0.330080        -8.9819
  66   2.0000      -0.298206        -8.1146
  67   0.0000       0.029824         0.8115
  68   0.0000       0.059913         1.6303
  69   0.0000       0.112516         3.0617
  70   0.0000       0.124704         3.3934
  71   0.0000       0.125225         3.4076

MULLIKEN ATOMIC CHARGES
-----------------------
   0 S :    0.105589
   1 C :   -0.125943
   2 C :   -0.070823
   3 C :    0.017415
   4 C :   -0.127185
   5 H :    0.026911
   6 C :    0.066619
   7 H :    0.002783
   8 H :    0.025344
   9 C :   -0.066775
  10 H :    0.022196
  11 H :    0.026747
  12 C :   -0.026465
  13 H :    0.019836
  14 H :    0.051566
  15 H :    0.034681
  16 S :    0.091703
  17 C :   -0.088269
  18 C :   -0.043085
  19 C :   -0.046212
  20 C :   -0.171630
  21 H :    0.025907
  22 C :    0.054167
  23 H :    0.026535
  24 H :    0.040420
  25 C :   -0.091478
  26 H :    0.013898
  27 H :    0.036851
  28 C :   -0.052648
  29 H :    0.059863
  30 H :    0.015646
  31 H :    0.037059
  32 H :    0.044170
  33 H :    0.064606
Sum of atomic charges:    0.0000000

LOEWDIN ATOMIC CHARGES
----------------------
   0 S :    0.367774
   1 C :   -0.178079
   2 C :   -0.070346
   3 C :   -0.060906
   4 C :   -0.170817
   5 H :    0.036481
   6 C :   -0.025865
   7 H :    0.025102
   8 H :    0.023501
   9 C :   -0.036172
  10 H :    0.021137
  11 H :    0.022859
  12 C :   -0.062739
  13 H :    0.021013
  14 H :    0.039321
  15 H :    0.023140
  16 S :    0.406193
  17 C :   -0.183747
  18 C :   -0.079913
  19 C :   -0.060392
  20 C :   -0.198534
  21 H :    0.034649
  22 C :   -0.032354
  23 H :    0.032115
  24 H :    0.031501
  25 C :   -0.037950
  26 H :    0.012495
  27 H :    0.023775
  28 C :   -0.060502
  29 H :    0.036831
  30 H :    0.008494
  31 H :    0.024713
  32 H :    0.029815
  33 H :    0.037409

  Mayer bond orders larger than 0.100000
B(  0-S ,  1-C ) :   1.1082 B(  0-S ,  4-C ) :   1.1374 B(  1-C ,  2-C ) :   1.6599
B(  1-C , 32-H ) :   0.9637 B(  2-C ,  3-C ) :   1.2091 B(  2-C ,  6-C ) :   1.0135
B(  3-C ,  4-C ) :   1.5844 B(  3-C ,  5-H ) :   0.9901 B(  4-C , 20-C ) :   1.0268
B(  6-C ,  7-H ) :   0.9410 B(  6-C ,  8-H ) :   0.9437 B(  6-C ,  9-C ) :   1.0470
B(  9-C , 10-H ) :   0.9542 B(  9-C , 11-H ) :   0.9591 B(  9-C , 12-C ) :   1.0763
B( 12-C , 13-H ) :   0.9744 B( 12-C , 14-H ) :   0.9749 B( 12-C , 15-H ) :   0.9738
B( 16-S , 17-C ) :   1.1720 B( 16-S , 20-C ) :   1.1433 B( 17-C , 18-C ) :   1.5773
B( 17-C , 20-C ) :   0.1039 B( 17-C , 33-H ) :   0.9665 B( 18-C , 19-C ) :   1.2707
B( 18-C , 21-H ) :   0.9894 B( 19-C , 20-C ) :   1.5793 B( 19-C , 22-C ) :   1.0311
B( 22-C , 23-H ) :   0.9409 B( 22-C , 24-H ) :   0.9399 B( 22-C , 25-C ) :   1.0750
B( 25-C , 26-H ) :   0.9555 B( 25-C , 27-H ) :   0.9554 B( 25-C , 28-C ) :   1.0680
B( 28-C , 29-H ) :   0.9744 B( 28-C , 30-H ) :   0.9720 B( 28-C , 31-H ) :   0.9734

Dispersion correction           -0.014660204
FINAL SINGLE POINT ENERGY     -1339.866783698156

DIPOLE MOMENT
-------------
                                X             Y             Z
Electronic contribution:    -15.71052      -0.04646     -24.17604
Nuclear contribution   :     16.23452      -0.09000      24.65770
                        -----------------------------------------
Total Dipole Moment    :      0.52400      -0.13645       0.48166
                        -----------------------------------------
Magnitude (a.u.)       :      0.72470
Magnitude (Debye)      :      1.84204

Rotational constants in cm-1:     0.019055     0.008279     0.006608
Rotational constants in MHz :   571.267750   248.188030   198.094055

                             ****ORCA TERMINATED NORMALLY****
TOTAL RUN TIME: 0 days 0 hours 0 minutes 21 seconds 595 msec
