                         Program Version 4.2.1 -  RELEASE  -
|  1> ! wB97X-D3 SP def2-SVP
|  2> %pal
|  3> nprocs 24
|  4> end
|  5>
|  6> * xyz 0 1
|  7> S 	 -140.438 	 24.5477 	 -20.3367
|  8> C 	 -141.625 	 23.2375 	 -20.1874
|  9> C 	 -142.819 	 23.7177 	 -19.7007
| 10> C 	 -142.699 	 25.1321 	 -19.368
| 11> C 	 -141.472 	 25.6959 	 -19.6065
| 12> H 	 -143.488 	 25.8209 	 -19.0842
| 13> C 	 -144.075 	 22.9092 	 -19.6463
| 14> H 	 -144.318 	 22.6349 	 -20.6184
| 15> H 	 -144.846 	 23.6224 	 -19.4724
| 16> C 	 -144.177 	 21.8211 	 -18.6042
| 17> H 	 -143.396 	 21.0831 	 -18.839
| 18> H 	 -143.986 	 22.1758 	 -17.5807
| 19> C 	 -145.509 	 21.1051 	 -18.7026
| 20> H 	 -145.95 	 20.6726 	 -19.5926
| 21> H 	 -145.704 	 20.3576 	 -17.9065
| 22> H 	 -146.195 	 21.8877 	 -18.4685
| 23> S 	 -140.435 	 28.1773 	 -20.5226
| 24> C 	 -140.699 	 29.5224 	 -19.4479
| 25> C 	 -141.152 	 29.1407 	 -18.2046
| 26> C 	 -141.321 	 27.6806 	 -18.1114
| 27> C 	 -141.06 	 27.0665 	 -19.3062
| 28> H 	 -141.33 	 29.8319 	 -17.4039
| 29> C 	 -141.871 	 27.139 	 -16.8156
| 30> H 	 -142.963 	 27.0152 	 -16.934
| 31> H 	 -141.631 	 27.9177 	 -16.0355
| 32> C 	 -141.301 	 25.791 	 -16.384
| 33> H 	 -140.216 	 25.912 	 -16.6008
| 34> H 	 -141.828 	 25.0173 	 -16.932
| 35> C 	 -141.368 	 25.5819 	 -14.8786
| 36> H 	 -141.017 	 24.6158 	 -14.5326
| 37> H 	 -142.306 	 25.8859 	 -14.4839
| 38> H 	 -140.83 	 26.3349 	 -14.3388
| 39> H 	 -141.555 	 22.2116 	 -20.486
| 40> H 	 -140.411 	 30.4689 	 -19.5648
| 41> *
| 42>
| 43>                          ****END OF INPUT****

CARTESIAN COORDINATES (ANGSTROEM)
---------------------------------
  S    -140.438000   24.547700  -20.336700
  C    -141.625000   23.237500  -20.187400
  C    -142.819000   23.717700  -19.700700
  C    -142.699000   25.132100  -19.368000
  C    -141.472000   25.695900  -19.606500
  H    -143.488000   25.820900  -19.084200
  C    -144.075000   22.909200  -19.646300
  H    -144.318000   22.634900  -20.618400
  H    -144.846000   23.622400  -19.472400
  C    -144.177000   21.821100  -18.604200
  H    -143.396000   21.083100  -18.839000
  H    -143.986000   22.175800  -17.580700
  C    -145.509000   21.105100  -18.702600
  H    -145.950000   20.672600  -19.592600
  H    -145.704000   20.357600  -17.906500
  H    -146.195000   21.887700  -18.468500
  S    -140.435000   28.177300  -20.522600
  C    -140.699000   29.522400  -19.447900
  C    -141.152000   29.140700  -18.204600
  C    -141.321000   27.680600  -18.111400
  C    -141.060000   27.066500  -19.306200
  H    -141.330000   29.831900  -17.403900
  C    -141.871000   27.139000  -16.815600
  H    -142.963000   27.015200  -16.934000
  H    -141.631000   27.917700  -16.035500
  C    -141.301000   25.791000  -16.384000
  H    -140.216000   25.912000  -16.600800
  H    -141.828000   25.017300  -16.932000
  C    -141.368000   25.581900  -14.878600
  H    -141.017000   24.615800  -14.532600
  H    -142.306000   25.885900  -14.483900
  H    -140.830000   26.334900  -14.338800
  H    -141.555000   22.211600  -20.486000
  H    -140.411000   30.468900  -19.564800

 Total Charge           Charge          ....    0
 Multiplicity           Mult            ....    1
 Number of Electrons    NEL             ....  134
 Basis Dimension        Dim             ....  322

ORBITAL ENERGIES
----------------

  NO   OCC          E(Eh)            E(eV)
   0   2.0000     -88.968536     -2420.9569
   1   2.0000     -88.964338     -2420.8427
   2   2.0000     -10.325537      -280.9721
   3   2.0000     -10.324657      -280.9482
   4   2.0000     -10.312301      -280.6120
   5   2.0000     -10.310131      -280.5529
   6   2.0000     -10.302735      -280.3517
   7   2.0000     -10.301400      -280.3153
   8   2.0000     -10.294847      -280.1370
   9   2.0000     -10.294349      -280.1235
  10   2.0000     -10.292892      -280.0838
  11   2.0000     -10.292237      -280.0660
  12   2.0000     -10.282730      -279.8073
  13   2.0000     -10.278602      -279.6950
  14   2.0000     -10.276608      -279.6407
  15   2.0000     -10.267639      -279.3967
  16   2.0000      -8.083157      -219.9539
  17   2.0000      -8.079366      -219.8507
  18   2.0000      -6.041907      -164.4087
  19   2.0000      -6.037969      -164.3015
  20   2.0000      -6.037737      -164.2952
  21   2.0000      -6.033675      -164.1847
  22   2.0000      -6.033618      -164.1831
  23   2.0000      -6.030174      -164.0894
  24   2.0000      -1.008088       -27.4315
  25   2.0000      -0.984390       -26.7866
  26   2.0000      -0.922212       -25.0947
  27   2.0000      -0.911566       -24.8050
  28   2.0000      -0.872832       -23.7510
  29   2.0000      -0.852842       -23.2070
  30   2.0000      -0.846110       -23.0238
  31   2.0000      -0.817258       -22.2387
  32   2.0000      -0.786667       -21.4063
  33   2.0000      -0.775614       -21.1055
  34   2.0000      -0.713682       -19.4203
  35   2.0000      -0.711166       -19.3518
  36   2.0000      -0.687376       -18.7044
  37   2.0000      -0.664744       -18.0886
  38   2.0000      -0.643612       -17.5136
  39   2.0000      -0.614701       -16.7269
  40   2.0000      -0.593948       -16.1622
  41   2.0000      -0.576536       -15.6883
  42   2.0000      -0.571375       -15.5479
  43   2.0000      -0.564757       -15.3678
  44   2.0000      -0.531158       -14.4536
  45   2.0000      -0.528153       -14.3718
  46   2.0000      -0.518763       -14.1163
  47   2.0000      -0.515860       -14.0373
  48   2.0000      -0.509785       -13.8720
  49   2.0000      -0.502588       -13.6761
  50   2.0000      -0.492026       -13.3887
  51   2.0000      -0.487058       -13.2535
  52   2.0000      -0.470324       -12.7982
  53   2.0000      -0.465501       -12.6669
  54   2.0000      -0.452937       -12.3251
  55   2.0000      -0.451522       -12.2865
  56   2.0000      -0.449423       -12.2294
  57   2.0000      -0.440533       -11.9875
  58   2.0000      -0.427491       -11.6326
  59   2.0000      -0.425519       -11.5790
  60   2.0000      -0.419602       -11.4179
  61   2.0000      -0.409722       -11.1491
  62   2.0000      -0.407988       -11.1019
  63   2.0000      -0.345808        -9.4099
  64   2.0000      -0.329972        -8.9790
  65   2.0000      -0.328386        -8.9358
  66   2.0000      -0.298216        -8.1149
  67   0.0000       0.032200         0.8762
  68   0.0000       0.072144         1.9631
  69   0.0000       0.110196         2.9986
  70   0.0000       0.122911         3.3446
  71   0.0000       0.125786         3.4228

MULLIKEN ATOMIC CHARGES
-----------------------
   0 S :    0.109522
   1 C :   -0.100635
   2 C :   -0.109133
   3 C :    0.007196
   4 C :   -0.168631
   5 H :    0.013263
   6 C :    0.113142
   7 H :    0.015538
   8 H :   -0.009742
   9 C :   -0.043598
  10 H :    0.024957
  11 H :    0.040383
  12 C :   -0.051241
  13 H :    0.033434
  14 H :    0.034283
  15 H :    0.007579
  16 S :    0.116881
  17 C :   -0.018471
  18 C :   -0.045759
  19 C :   -0.057788
  20 C :   -0.128156
  21 H :    0.016825
  22 C :    0.026978
  23 H :    0.043425
  24 H :    0.025988
  25 C :   -0.073463
  26 H :    0.038323
  27 H :    0.052394
  28 C :    0.003309
  29 H :    0.040444
  30 H :    0.000230
  31 H :    0.002727
  32 H :    0.036355
  33 H :    0.003440
Sum of atomic charges:    0.0000000

LOEWDIN ATOMIC CHARGES
----------------------
   0 S :    0.412891
   1 C :   -0.186437
   2 C :   -0.059448
   3 C :   -0.071486
   4 C :   -0.202306
   5 H :    0.030410
   6 C :   -0.031293
   7 H :    0.027780
   8 H :    0.025982
   9 C :   -0.032533
  10 H :    0.021380
  11 H :    0.033080
  12 C :   -0.075649
  13 H :    0.026819
  14 H :    0.030440
  15 H :    0.021292
  16 S :    0.401438
  17 C :   -0.163532
  18 C :   -0.061598
  19 C :   -0.049931
  20 C :   -0.204734
  21 H :    0.028185
  22 C :   -0.036600
  23 H :    0.034760
  24 H :    0.034531
  25 C :   -0.042608
  26 H :    0.032166
  27 H :    0.026532
  28 C :   -0.066807
  29 H :    0.027358
  30 H :    0.017704
  31 H :    0.021517
  32 H :    0.026585
  33 H :    0.004114

  Mayer bond orders larger than 0.100000
B(  0-S ,  1-C ) :   1.1315 B(  0-S ,  4-C ) :   1.1568 B(  1-C ,  2-C ) :   1.6271
B(  1-C , 32-H ) :   0.9712 B(  2-C ,  3-C ) :   1.2255 B(  2-C ,  6-C ) :   1.0144
B(  3-C ,  4-C ) :   1.5918 B(  3-C ,  5-H ) :   0.9927 B(  4-C , 20-C ) :   1.0191
B(  6-C ,  7-H ) :   0.9328 B(  6-C ,  8-H ) :   0.9277 B(  6-C ,  9-C ) :   1.0642
B(  9-C , 10-H ) :   0.9569 B(  9-C , 11-H ) :   0.9523 B(  9-C , 12-C ) :   1.0716
B( 12-C , 13-H ) :   0.9778 B( 12-C , 14-H ) :   0.9731 B( 12-C , 15-H ) :   0.9706
B( 16-S , 17-C ) :   1.1418 B( 16-S , 20-C ) :   1.1136 B( 17-C , 18-C ) :   1.6428
B( 17-C , 33-H ) :   0.9747 B( 18-C , 19-C ) :   1.2178 B( 18-C , 21-H ) :   0.9885
B( 19-C , 20-C ) :   1.6220 B( 19-C , 22-C ) :   1.0407 B( 22-C , 23-H ) :   0.9199
B( 22-C , 24-H ) :   0.9396 B( 22-C , 25-C ) :   1.0639 B( 25-C , 26-H ) :   0.9626
B( 25-C , 27-H ) :   0.9449 B( 25-C , 28-C ) :   1.0940 B( 28-C , 29-H ) :   0.9740
B( 28-C , 30-H ) :   0.9642 B( 28-C , 31-H ) :   0.9652

Dispersion correction           -0.014639191
FINAL SINGLE POINT ENERGY     -1339.861294848683

DIPOLE MOMENT
-------------
                                X             Y             Z
Electronic contribution:     17.59887      16.06715     -20.25372
Nuclear contribution   :    -18.18769     -16.10980      20.69308
                        -----------------------------------------
Total Dipole Moment    :     -0.58881      -0.04266       0.43936
                        -----------------------------------------
Magnitude (a.u.)       :      0.73590
Magnitude (Debye)      :      1.87052

Rotational constants in cm-1:     0.020163     0.008356     0.006800
Rotational constants in MHz :   604.474392   250.514958   203.860228

                             ****ORCA TERMINATED NORMALLY****
TOTAL RUN TIME: 0 days 0 hours 0 minutes 22 seconds 198 msec
