                         Program Version 4.2.1 -  RELEASE  -
|  1> ! wB97X-D3 SP def2-SVP
|  2> %pal
|  3> nprocs 24
|  4> end
|  5>
|  6> * xyz 0 1
|  7> S 	 -110.353 	 54.8611 	 -89.1441
|  8> C 	 -110.811 	 56.4183 	 -88.4129
|  9> C 	 -109.74 	 57.3198 	 -88.4813
| 10> C 	 -108.68 	 56.806 	 -89.2915
| 11> C 	 -108.861 	 55.5683 	 -89.842
| 12> H 	 -107.722 	 57.3273 	 -89.4506
| 13> C 	 -109.655 	 58.6117 	 -87.7757
| 14> H 	 -109.769 	 59.4354 	 -88.4588
| 15> H 	 -108.641 	 58.7823 	 -87.5209
| 16> C 	 -110.696 	 58.9602 	 -86.6864
| 17> H 	 -110.645 	 60.0711 	 -86.3785
| 18> H 	 -111.726 	 58.9578 	 -87.0155
| 19> C 	 -110.552 	 58.1097 	 -85.4796
| 20> H 	 -110.67 	 57.039 	 -85.7181
| 21> H 	 -109.525 	 58.2629 	 -85.0198
| 22> H 	 -111.362 	 58.4295 	 -84.84
| 23> S 	 -108.325 	 52.9829 	 -90.6696
| 24> C 	 -107.119 	 52.7464 	 -91.9404
| 25> C 	 -106.619 	 53.9315 	 -92.4533
| 26> C 	 -107.114 	 55.0423 	 -91.7447
| 27> C 	 -108.042 	 54.7426 	 -90.7496
| 28> H 	 -105.982 	 53.9886 	 -93.2837
| 29> C 	 -106.689 	 56.4496 	 -92.1262
| 30> H 	 -105.834 	 56.6541 	 -91.4998
| 31> H 	 -107.393 	 57.1926 	 -91.7156
| 32> C 	 -106.687 	 56.885 	 -93.5888
| 33> H 	 -107.692 	 56.918 	 -94.0129
| 34> H 	 -106.139 	 56.1949 	 -94.1033
| 35> C 	 -105.898 	 58.2028 	 -93.8482
| 36> H 	 -106.072 	 58.5465 	 -94.8994
| 37> H 	 -104.826 	 58.0608 	 -93.7362
| 38> H 	 -106.241 	 59.0145 	 -93.2271
| 39> H 	 -111.659 	 56.5731 	 -87.7749
| 40> H 	 -106.846 	 51.8455 	 -92.4103
| 41> *
| 42>
| 43>                          ****END OF INPUT****

CARTESIAN COORDINATES (ANGSTROEM)
---------------------------------
  S    -110.353000   54.861100  -89.144100
  C    -110.811000   56.418300  -88.412900
  C    -109.740000   57.319800  -88.481300
  C    -108.680000   56.806000  -89.291500
  C    -108.861000   55.568300  -89.842000
  H    -107.722000   57.327300  -89.450600
  C    -109.655000   58.611700  -87.775700
  H    -109.769000   59.435400  -88.458800
  H    -108.641000   58.782300  -87.520900
  C    -110.696000   58.960200  -86.686400
  H    -110.645000   60.071100  -86.378500
  H    -111.726000   58.957800  -87.015500
  C    -110.552000   58.109700  -85.479600
  H    -110.670000   57.039000  -85.718100
  H    -109.525000   58.262900  -85.019800
  H    -111.362000   58.429500  -84.840000
  S    -108.325000   52.982900  -90.669600
  C    -107.119000   52.746400  -91.940400
  C    -106.619000   53.931500  -92.453300
  C    -107.114000   55.042300  -91.744700
  C    -108.042000   54.742600  -90.749600
  H    -105.982000   53.988600  -93.283700
  C    -106.689000   56.449600  -92.126200
  H    -105.834000   56.654100  -91.499800
  H    -107.393000   57.192600  -91.715600
  C    -106.687000   56.885000  -93.588800
  H    -107.692000   56.918000  -94.012900
  H    -106.139000   56.194900  -94.103300
  C    -105.898000   58.202800  -93.848200
  H    -106.072000   58.546500  -94.899400
  H    -104.826000   58.060800  -93.736200
  H    -106.241000   59.014500  -93.227100
  H    -111.659000   56.573100  -87.774900
  H    -106.846000   51.845500  -92.410300

 Total Charge           Charge          ....    0
 Multiplicity           Mult            ....    1
 Number of Electrons    NEL             ....  134
 Basis Dimension        Dim             ....  322

ORBITAL ENERGIES
----------------

  NO   OCC          E(Eh)            E(eV)
   0   2.0000     -88.970214     -2421.0026
   1   2.0000     -88.962826     -2420.8016
   2   2.0000     -10.335878      -281.2535
   3   2.0000     -10.333277      -281.1828
   4   2.0000     -10.318656      -280.7849
   5   2.0000     -10.315482      -280.6985
   6   2.0000     -10.304776      -280.4072
   7   2.0000     -10.303798      -280.3806
   8   2.0000     -10.294888      -280.1381
   9   2.0000     -10.292098      -280.0622
  10   2.0000     -10.291346      -280.0418
  11   2.0000     -10.289647      -279.9955
  12   2.0000     -10.287361      -279.9333
  13   2.0000     -10.284139      -279.8457
  14   2.0000     -10.283381      -279.8250
  15   2.0000     -10.276600      -279.6405
  16   2.0000      -8.083951      -219.9755
  17   2.0000      -8.076602      -219.7755
  18   2.0000      -6.042562      -164.4265
  19   2.0000      -6.038732      -164.3222
  20   2.0000      -6.035352      -164.2303
  21   2.0000      -6.034542      -164.2082
  22   2.0000      -6.031442      -164.1239
  23   2.0000      -6.026969      -164.0022
  24   2.0000      -1.002564       -27.2811
  25   2.0000      -0.980681       -26.6857
  26   2.0000      -0.917861       -24.9763
  27   2.0000      -0.910511       -24.7763
  28   2.0000      -0.868692       -23.6383
  29   2.0000      -0.854838       -23.2613
  30   2.0000      -0.846909       -23.0456
  31   2.0000      -0.816916       -22.2294
  32   2.0000      -0.785168       -21.3655
  33   2.0000      -0.774050       -21.0630
  34   2.0000      -0.710678       -19.3385
  35   2.0000      -0.706351       -19.2208
  36   2.0000      -0.697516       -18.9804
  37   2.0000      -0.665096       -18.0982
  38   2.0000      -0.639151       -17.3922
  39   2.0000      -0.615801       -16.7568
  40   2.0000      -0.599851       -16.3228
  41   2.0000      -0.577518       -15.7151
  42   2.0000      -0.570067       -15.5123
  43   2.0000      -0.555796       -15.1240
  44   2.0000      -0.539683       -14.6855
  45   2.0000      -0.525649       -14.3036
  46   2.0000      -0.518940       -14.1211
  47   2.0000      -0.513461       -13.9720
  48   2.0000      -0.508668       -13.8416
  49   2.0000      -0.498302       -13.5595
  50   2.0000      -0.491835       -13.3835
  51   2.0000      -0.478481       -13.0201
  52   2.0000      -0.474342       -12.9075
  53   2.0000      -0.466663       -12.6986
  54   2.0000      -0.462324       -12.5805
  55   2.0000      -0.456328       -12.4173
  56   2.0000      -0.444102       -12.0846
  57   2.0000      -0.441716       -12.0197
  58   2.0000      -0.431535       -11.7427
  59   2.0000      -0.423337       -11.5196
  60   2.0000      -0.417924       -11.3723
  61   2.0000      -0.412816       -11.2333
  62   2.0000      -0.407870       -11.0987
  63   2.0000      -0.357549        -9.7294
  64   2.0000      -0.337503        -9.1839
  65   2.0000      -0.323586        -8.8052
  66   2.0000      -0.281327        -7.6553
  67   0.0000       0.018207         0.4954
  68   0.0000       0.070874         1.9286
  69   0.0000       0.095519         2.5992
  70   0.0000       0.121065         3.2944
  71   0.0000       0.134654         3.6641

MULLIKEN ATOMIC CHARGES
-----------------------
   0 S :    0.072015
   1 C :   -0.108176
   2 C :   -0.092670
   3 C :   -0.019302
   4 C :   -0.094469
   5 H :    0.019368
   6 C :    0.113077
   7 H :    0.024975
   8 H :    0.008489
   9 C :   -0.118310
  10 H :    0.032011
  11 H :    0.025173
  12 C :   -0.047768
  13 H :    0.039627
  14 H :    0.040937
  15 H :    0.032726
  16 S :    0.096448
  17 C :   -0.050598
  18 C :   -0.025715
  19 C :   -0.041712
  20 C :   -0.126322
  21 H :    0.001171
  22 C :    0.022854
  23 H :    0.037005
  24 H :    0.022533
  25 C :   -0.025715
  26 H :    0.045446
  27 H :    0.000583
  28 C :   -0.071313
  29 H :    0.038220
  30 H :    0.037798
  31 H :    0.027975
  32 H :    0.047049
  33 H :    0.036588
Sum of atomic charges:    0.0000000

LOEWDIN ATOMIC CHARGES
----------------------
   0 S :    0.362460
   1 C :   -0.188637
   2 C :   -0.055930
   3 C :   -0.075271
   4 C :   -0.164805
   5 H :    0.033384
   6 C :   -0.036970
   7 H :    0.037664
   8 H :    0.030051
   9 C :   -0.050650
  10 H :    0.034989
  11 H :    0.021331
  12 C :   -0.071046
  13 H :    0.024792
  14 H :    0.032538
  15 H :    0.025385
  16 S :    0.386571
  17 C :   -0.163231
  18 C :   -0.061941
  19 C :   -0.053431
  20 C :   -0.184655
  21 H :    0.024882
  22 C :   -0.042331
  23 H :    0.033149
  24 H :    0.033150
  25 C :   -0.029755
  26 H :    0.032283
  27 H :    0.005974
  28 C :   -0.061036
  29 H :    0.032253
  30 H :    0.025709
  31 H :    0.019180
  32 H :    0.023149
  33 H :    0.020793

  Mayer bond orders larger than 0.100000
B(  0-S ,  1-C ) :   1.1166 B(  0-S ,  4-C ) :   1.1238 B(  1-C ,  2-C ) :   1.6215
B(  1-C , 32-H ) :   0.9608 B(  2-C ,  3-C ) :   1.2294 B(  2-C ,  6-C ) :   1.0277
B(  3-C ,  4-C ) :   1.5968 B(  3-C ,  5-H ) :   0.9860 B(  4-C , 20-C ) :   1.0683
B(  6-C ,  7-H ) :   0.9178 B(  6-C ,  8-H ) :   0.9331 B(  6-C ,  9-C ) :   1.0746
B(  9-C , 10-H ) :   0.9498 B(  9-C , 11-H ) :   0.9486 B(  9-C , 12-C ) :   1.0860
B( 12-C , 13-H ) :   0.9725 B( 12-C , 14-H ) :   0.9719 B( 12-C , 15-H ) :   0.9720
B( 16-S , 17-C ) :   1.1529 B( 16-S , 20-C ) :   1.1168 B( 17-C , 18-C ) :   1.6063
B( 17-C , 33-H ) :   0.9683 B( 18-C , 19-C ) :   1.2544 B( 18-C , 21-H ) :   0.9974
B( 19-C , 20-C ) :   1.5990 B( 19-C , 22-C ) :   1.0296 B( 22-C , 23-H ) :   0.9356
B( 22-C , 24-H ) :   0.9320 B( 22-C , 25-C ) :   1.0511 B( 25-C , 26-H ) :   0.9582
B( 25-C , 27-H ) :   0.9543 B( 25-C , 28-C ) :   1.0796 B( 28-C , 29-H ) :   0.9743
B( 28-C , 30-H ) :   0.9785 B( 28-C , 31-H ) :   0.9782

Dispersion correction           -0.013525032
FINAL SINGLE POINT ENERGY     -1339.864238250685

DIPOLE MOMENT
-------------
                                X             Y             Z
Electronic contribution:     -5.51036     -25.73188      -0.82193
Nuclear contribution   :      5.88572      26.41438       0.61975
                        -----------------------------------------
Total Dipole Moment    :      0.37536       0.68250      -0.20218
                        -----------------------------------------
Magnitude (a.u.)       :      0.80472
Magnitude (Debye)      :      2.04544

Rotational constants in cm-1:     0.019630     0.007855     0.005877
Rotational constants in MHz :   588.479340   235.492033   176.187687

                             ****ORCA TERMINATED NORMALLY****
TOTAL RUN TIME: 0 days 0 hours 0 minutes 21 seconds 115 msec
