                         Program Version 4.2.1 -  RELEASE  -
|  1> ! wB97X-D3 SP def2-SVP
|  2> %pal
|  3> nprocs 24
|  4> end
|  5>
|  6> * xyz 0 1
|  7> S 	 -41.7897 	 -46.1031 	 -79.5237
|  8> C 	 -40.3427 	 -46.4103 	 -80.3889
|  9> C 	 -40.2465 	 -47.7375 	 -80.7663
| 10> C 	 -41.3641 	 -48.4774 	 -80.2217
| 11> C 	 -42.3181 	 -47.7751 	 -79.6068
| 12> H 	 -41.3894 	 -49.5222 	 -80.2417
| 13> C 	 -39.203 	 -48.4058 	 -81.6473
| 14> H 	 -39.0765 	 -49.3872 	 -81.2929
| 15> H 	 -38.2994 	 -47.8426 	 -81.6726
| 16> C 	 -39.6847 	 -48.6826 	 -83.0457
| 17> H 	 -40.6573 	 -49.1811 	 -82.8617
| 18> H 	 -39.9334 	 -47.7692 	 -83.6037
| 19> C 	 -38.6856 	 -49.55 	 -83.9405
| 20> H 	 -39.1418 	 -49.6971 	 -84.9022
| 21> H 	 -37.7646 	 -48.9953 	 -84.0613
| 22> H 	 -38.4753 	 -50.5805 	 -83.6463
| 23> S 	 -44.0585 	 -47.7126 	 -77.4879
| 24> C 	 -45.3457 	 -48.9125 	 -77.4131
| 25> C 	 -45.3362 	 -49.7211 	 -78.4927
| 26> C 	 -44.3737 	 -49.3444 	 -79.4779
| 27> C 	 -43.5682 	 -48.2548 	 -79.0928
| 28> H 	 -46.0213 	 -50.5467 	 -78.5901
| 29> C 	 -44.2121 	 -50.2039 	 -80.7717
| 30> H 	 -44.9422 	 -50.9761 	 -80.6541
| 31> H 	 -43.2729 	 -50.6559 	 -80.657
| 32> C 	 -44.2841 	 -49.5025 	 -82.1003
| 33> H 	 -43.6485 	 -50.052 	 -82.8708
| 34> H 	 -43.8587 	 -48.5354 	 -82.017
| 35> C 	 -45.7499 	 -49.4353 	 -82.4797
| 36> H 	 -45.7159 	 -49.0086 	 -83.4722
| 37> H 	 -46.3995 	 -48.8569 	 -81.8959
| 38> H 	 -46.1032 	 -50.3901 	 -82.6283
| 39> H 	 -39.5574 	 -45.6555 	 -80.6236
| 40> H 	 -45.9721 	 -49.0404 	 -76.53
| 41> *
| 42>
| 43>                          ****END OF INPUT****

CARTESIAN COORDINATES (ANGSTROEM)
---------------------------------
  S    -41.789700  -46.103100  -79.523700
  C    -40.342700  -46.410300  -80.388900
  C    -40.246500  -47.737500  -80.766300
  C    -41.364100  -48.477400  -80.221700
  C    -42.318100  -47.775100  -79.606800
  H    -41.389400  -49.522200  -80.241700
  C    -39.203000  -48.405800  -81.647300
  H    -39.076500  -49.387200  -81.292900
  H    -38.299400  -47.842600  -81.672600
  C    -39.684700  -48.682600  -83.045700
  H    -40.657300  -49.181100  -82.861700
  H    -39.933400  -47.769200  -83.603700
  C    -38.685600  -49.550000  -83.940500
  H    -39.141800  -49.697100  -84.902200
  H    -37.764600  -48.995300  -84.061300
  H    -38.475300  -50.580500  -83.646300
  S    -44.058500  -47.712600  -77.487900
  C    -45.345700  -48.912500  -77.413100
  C    -45.336200  -49.721100  -78.492700
  C    -44.373700  -49.344400  -79.477900
  C    -43.568200  -48.254800  -79.092800
  H    -46.021300  -50.546700  -78.590100
  C    -44.212100  -50.203900  -80.771700
  H    -44.942200  -50.976100  -80.654100
  H    -43.272900  -50.655900  -80.657000
  C    -44.284100  -49.502500  -82.100300
  H    -43.648500  -50.052000  -82.870800
  H    -43.858700  -48.535400  -82.017000
  C    -45.749900  -49.435300  -82.479700
  H    -45.715900  -49.008600  -83.472200
  H    -46.399500  -48.856900  -81.895900
  H    -46.103200  -50.390100  -82.628300
  H    -39.557400  -45.655500  -80.623600
  H    -45.972100  -49.040400  -76.530000

 Total Charge           Charge          ....    0
 Multiplicity           Mult            ....    1
 Number of Electrons    NEL             ....  134
 Basis Dimension        Dim             ....  322

ORBITAL ENERGIES
----------------

  NO   OCC          E(Eh)            E(eV)
   0   2.0000     -88.964026     -2420.8342
   1   2.0000     -88.962782     -2420.8004
   2   2.0000     -10.328067      -281.0410
   3   2.0000     -10.324407      -280.9414
   4   2.0000     -10.318213      -280.7728
   5   2.0000     -10.315753      -280.7059
   6   2.0000     -10.307516      -280.4818
   7   2.0000     -10.300835      -280.3000
   8   2.0000     -10.292290      -280.0675
   9   2.0000     -10.291430      -280.0441
  10   2.0000     -10.285471      -279.8819
  11   2.0000     -10.285233      -279.8754
  12   2.0000     -10.283403      -279.8256
  13   2.0000     -10.282739      -279.8076
  14   2.0000     -10.282184      -279.7924
  15   2.0000     -10.260824      -279.2112
  16   2.0000      -8.078646      -219.8311
  17   2.0000      -8.078346      -219.8230
  18   2.0000      -6.037154      -164.2793
  19   2.0000      -6.036937      -164.2734
  20   2.0000      -6.033136      -164.1700
  21   2.0000      -6.032723      -164.1587
  22   2.0000      -6.029453      -164.0697
  23   2.0000      -6.028979      -164.0568
  24   2.0000      -1.010974       -27.5100
  25   2.0000      -0.986622       -26.8474
  26   2.0000      -0.915560       -24.9137
  27   2.0000      -0.914277       -24.8787
  28   2.0000      -0.876038       -23.8382
  29   2.0000      -0.851649       -23.1746
  30   2.0000      -0.842614       -22.9287
  31   2.0000      -0.818168       -22.2635
  32   2.0000      -0.786882       -21.4122
  33   2.0000      -0.776229       -21.1223
  34   2.0000      -0.713086       -19.4041
  35   2.0000      -0.700208       -19.0536
  36   2.0000      -0.690823       -18.7982
  37   2.0000      -0.665369       -18.1056
  38   2.0000      -0.642065       -17.4715
  39   2.0000      -0.628512       -17.1027
  40   2.0000      -0.595430       -16.2025
  41   2.0000      -0.574686       -15.6380
  42   2.0000      -0.564367       -15.3572
  43   2.0000      -0.556898       -15.1540
  44   2.0000      -0.551750       -15.0139
  45   2.0000      -0.526968       -14.3395
  46   2.0000      -0.517976       -14.0948
  47   2.0000      -0.508649       -13.8410
  48   2.0000      -0.504046       -13.7158
  49   2.0000      -0.502059       -13.6617
  50   2.0000      -0.495393       -13.4803
  51   2.0000      -0.486352       -13.2343
  52   2.0000      -0.474932       -12.9235
  53   2.0000      -0.466489       -12.6938
  54   2.0000      -0.462634       -12.5889
  55   2.0000      -0.448605       -12.2072
  56   2.0000      -0.444517       -12.0959
  57   2.0000      -0.436364       -11.8741
  58   2.0000      -0.435563       -11.8523
  59   2.0000      -0.426088       -11.5944
  60   2.0000      -0.419832       -11.4242
  61   2.0000      -0.417395       -11.3579
  62   2.0000      -0.410411       -11.1679
  63   2.0000      -0.358594        -9.7578
  64   2.0000      -0.332413        -9.0454
  65   2.0000      -0.325768        -8.8646
  66   2.0000      -0.289566        -7.8795
  67   0.0000       0.025531         0.6947
  68   0.0000       0.081044         2.2053
  69   0.0000       0.108147         2.9428
  70   0.0000       0.121019         3.2931
  71   0.0000       0.130484         3.5507

MULLIKEN ATOMIC CHARGES
-----------------------
   0 S :    0.105030
   1 C :   -0.130668
   2 C :   -0.102598
   3 C :   -0.005694
   4 C :   -0.103206
   5 H :   -0.013999
   6 C :    0.144068
   7 H :    0.004519
   8 H :    0.010660
   9 C :   -0.113782
  10 H :    0.022481
  11 H :    0.030365
  12 C :   -0.036477
  13 H :    0.029874
  14 H :    0.035657
  15 H :    0.031632
  16 S :    0.090207
  17 C :   -0.087472
  18 C :   -0.022310
  19 C :   -0.090397
  20 C :   -0.125233
  21 H :    0.016455
  22 C :    0.114558
  23 H :   -0.004984
  24 H :    0.011755
  25 C :   -0.075167
  26 H :    0.035881
  27 H :    0.036857
  28 C :    0.014215
  29 H :    0.016059
  30 H :    0.033784
  31 H :    0.003386
  32 H :    0.061757
  33 H :    0.062787
Sum of atomic charges:   -0.0000000

LOEWDIN ATOMIC CHARGES
----------------------
   0 S :    0.408028
   1 C :   -0.210319
   2 C :   -0.060526
   3 C :   -0.060762
   4 C :   -0.193469
   5 H :    0.019590
   6 C :   -0.026279
   7 H :    0.027040
   8 H :    0.023093
   9 C :   -0.038414
  10 H :    0.023077
  11 H :    0.023356
  12 C :   -0.065788
  13 H :    0.026592
  14 H :    0.025344
  15 H :    0.025011
  16 S :    0.394063
  17 C :   -0.174352
  18 C :   -0.075790
  19 C :   -0.045468
  20 C :   -0.197907
  21 H :    0.032192
  22 C :   -0.023938
  23 H :    0.021909
  24 H :    0.020061
  25 C :   -0.035917
  26 H :    0.032311
  27 H :    0.022386
  28 C :   -0.049706
  29 H :    0.027342
  30 H :    0.021981
  31 H :    0.013101
  32 H :    0.039291
  33 H :    0.032867

  Mayer bond orders larger than 0.100000
B(  0-S ,  1-C ) :   1.1421 B(  0-S ,  4-C ) :   1.1255 B(  1-C ,  2-C ) :   1.6229
B(  1-C , 32-H ) :   0.9620 B(  2-C ,  3-C ) :   1.2264 B(  2-C ,  6-C ) :   1.0422
B(  3-C ,  4-C ) :   1.5981 B(  3-C ,  5-H ) :   1.0050 B(  4-C , 20-C ) :   1.0553
B(  6-C ,  7-H ) :   0.9283 B(  6-C ,  8-H ) :   0.9371 B(  6-C ,  9-C ) :   1.0608
B(  9-C , 10-H ) :   0.9562 B(  9-C , 11-H ) :   0.9551 B(  9-C , 12-C ) :   1.0729
B( 12-C , 13-H ) :   0.9749 B( 12-C , 14-H ) :   0.9762 B( 12-C , 15-H ) :   0.9764
B( 16-S , 17-C ) :   1.1533 B( 16-S , 20-C ) :   1.1349 B( 17-C , 18-C ) :   1.6068
B( 17-C , 33-H ) :   0.9653 B( 18-C , 19-C ) :   1.2586 B( 18-C , 21-H ) :   0.9909
B( 19-C , 20-C ) :   1.5778 B( 19-C , 22-C ) :   1.0224 B( 22-C , 23-H ) :   0.9326
B( 22-C , 24-H ) :   0.9266 B( 22-C , 25-C ) :   1.0685 B( 25-C , 26-H ) :   0.9513
B( 25-C , 27-H ) :   0.9573 B( 25-C , 28-C ) :   1.0790 B( 28-C , 29-H ) :   0.9678
B( 28-C , 30-H ) :   0.9785 B( 28-C , 31-H ) :   0.9722

Dispersion correction           -0.014746334
FINAL SINGLE POINT ENERGY     -1339.873286528775

DIPOLE MOMENT
-------------
                                X             Y             Z
Electronic contribution:     -5.64023      15.46316      26.48104
Nuclear contribution   :      5.77419     -16.11658     -26.94758
                        -----------------------------------------
Total Dipole Moment    :      0.13396      -0.65342      -0.46655
                        -----------------------------------------
Magnitude (a.u.)       :      0.81398
Magnitude (Debye)      :      2.06898

Rotational constants in cm-1:     0.018779     0.009259     0.006923
Rotational constants in MHz :   562.991280   277.580851   207.535572

                             ****ORCA TERMINATED NORMALLY****
TOTAL RUN TIME: 0 days 0 hours 0 minutes 22 seconds 244 msec
