                         Program Version 4.2.1 -  RELEASE  -
|  1> ! wB97X-D3 SP def2-SVP
|  2> %pal
|  3> nprocs 24
|  4> end
|  5>
|  6> * xyz 0 1
|  7> S 	 4.3087 	 -26.1707 	 -113.22
|  8> C 	 5.67499 	 -25.4227 	 -112.463
|  9> C 	 6.34999 	 -24.6185 	 -113.411
| 10> C 	 5.8514 	 -24.8174 	 -114.747
| 11> C 	 4.84777 	 -25.7614 	 -114.879
| 12> H 	 6.23035 	 -24.3298 	 -115.681
| 13> C 	 7.4565 	 -23.6346 	 -113.094
| 14> H 	 7.30693 	 -22.7901 	 -113.706
| 15> H 	 8.44574 	 -24.1734 	 -113.325
| 16> C 	 7.6743 	 -23.1251 	 -111.665
| 17> H 	 7.78413 	 -24.0418 	 -111.003
| 18> H 	 8.53506 	 -22.5303 	 -111.682
| 19> C 	 6.49598 	 -22.2451 	 -111.123
| 20> H 	 6.71219 	 -21.8611 	 -110.138
| 21> H 	 6.29054 	 -21.4218 	 -111.849
| 22> H 	 5.6101 	 -22.8922 	 -111.174
| 23> S 	 2.45999 	 -26.6989 	 -115.675
| 24> C 	 2.18659 	 -26.9463 	 -117.368
| 25> C 	 3.26634 	 -26.5902 	 -118.158
| 26> C 	 4.40907 	 -26.1586 	 -117.398
| 27> C 	 4.08194 	 -26.1555 	 -116.048
| 28> H 	 3.1554 	 -26.534 	 -119.215
| 29> C 	 5.63053 	 -25.5877 	 -118.184
| 30> H 	 6.09119 	 -24.9073 	 -117.449
| 31> H 	 5.21942 	 -25.1027 	 -119.103
| 32> C 	 6.65043 	 -26.631 	 -118.647
| 33> H 	 7.27998 	 -26.3236 	 -119.459
| 34> H 	 6.05226 	 -27.4409 	 -119.063
| 35> C 	 7.55362 	 -27.1249 	 -117.538
| 36> H 	 8.08644 	 -27.9357 	 -117.827
| 37> H 	 6.94329 	 -27.3063 	 -116.655
| 38> H 	 8.18977 	 -26.3068 	 -117.275
| 39> H 	 5.99759 	 -25.619 	 -111.43
| 40> H 	 1.22996 	 -27.1831 	 -117.701
| 41> *
| 42>
| 43>                          ****END OF INPUT****

CARTESIAN COORDINATES (ANGSTROEM)
---------------------------------
  S      4.308700  -26.170700  -113.220000
  C      5.674990  -25.422700  -112.463000
  C      6.349990  -24.618500  -113.411000
  C      5.851400  -24.817400  -114.747000
  C      4.847770  -25.761400  -114.879000
  H      6.230350  -24.329800  -115.681000
  C      7.456500  -23.634600  -113.094000
  H      7.306930  -22.790100  -113.706000
  H      8.445740  -24.173400  -113.325000
  C      7.674300  -23.125100  -111.665000
  H      7.784130  -24.041800  -111.003000
  H      8.535060  -22.530300  -111.682000
  C      6.495980  -22.245100  -111.123000
  H      6.712190  -21.861100  -110.138000
  H      6.290540  -21.421800  -111.849000
  H      5.610100  -22.892200  -111.174000
  S      2.459990  -26.698900  -115.675000
  C      2.186590  -26.946300  -117.368000
  C      3.266340  -26.590200  -118.158000
  C      4.409070  -26.158600  -117.398000
  C      4.081940  -26.155500  -116.048000
  H      3.155400  -26.534000  -119.215000
  C      5.630530  -25.587700  -118.184000
  H      6.091190  -24.907300  -117.449000
  H      5.219420  -25.102700  -119.103000
  C      6.650430  -26.631000  -118.647000
  H      7.279980  -26.323600  -119.459000
  H      6.052260  -27.440900  -119.063000
  C      7.553620  -27.124900  -117.538000
  H      8.086440  -27.935700  -117.827000
  H      6.943290  -27.306300  -116.655000
  H      8.189770  -26.306800  -117.275000
  H      5.997590  -25.619000  -111.430000
  H      1.229960  -27.183100  -117.701000

 Total Charge           Charge          ....    0
 Multiplicity           Mult            ....    1
 Number of Electrons    NEL             ....  134
 Basis Dimension        Dim             ....  322

ORBITAL ENERGIES
----------------

  NO   OCC          E(Eh)            E(eV)
   0   2.0000     -88.968466     -2420.9550
   1   2.0000     -88.963152     -2420.8104
   2   2.0000     -10.333328      -281.1841
   3   2.0000     -10.331941      -281.1464
   4   2.0000     -10.318523      -280.7813
   5   2.0000     -10.313409      -280.6421
   6   2.0000     -10.309459      -280.5346
   7   2.0000     -10.307839      -280.4906
   8   2.0000     -10.304279      -280.3937
   9   2.0000     -10.299383      -280.2605
  10   2.0000     -10.294923      -280.1391
  11   2.0000     -10.293856      -280.1101
  12   2.0000     -10.288995      -279.9778
  13   2.0000     -10.280652      -279.7508
  14   2.0000     -10.278115      -279.6817
  15   2.0000     -10.261493      -279.2294
  16   2.0000      -8.083889      -219.9738
  17   2.0000      -8.077660      -219.8043
  18   2.0000      -6.042310      -164.4196
  19   2.0000      -6.038484      -164.3155
  20   2.0000      -6.036387      -164.2585
  21   2.0000      -6.034523      -164.2077
  22   2.0000      -6.032233      -164.1454
  23   2.0000      -6.028176      -164.0350
  24   2.0000      -1.008295       -27.4371
  25   2.0000      -0.982339       -26.7308
  26   2.0000      -0.913841       -24.8669
  27   2.0000      -0.909570       -24.7506
  28   2.0000      -0.868586       -23.6354
  29   2.0000      -0.857571       -23.3357
  30   2.0000      -0.842734       -22.9320
  31   2.0000      -0.810473       -22.0541
  32   2.0000      -0.786041       -21.3893
  33   2.0000      -0.772709       -21.0265
  34   2.0000      -0.706135       -19.2149
  35   2.0000      -0.703624       -19.1466
  36   2.0000      -0.692252       -18.8371
  37   2.0000      -0.668324       -18.1860
  38   2.0000      -0.635231       -17.2855
  39   2.0000      -0.611803       -16.6480
  40   2.0000      -0.593989       -16.1633
  41   2.0000      -0.577561       -15.7162
  42   2.0000      -0.562564       -15.3082
  43   2.0000      -0.551392       -15.0041
  44   2.0000      -0.549375       -14.9492
  45   2.0000      -0.533873       -14.5274
  46   2.0000      -0.523780       -14.2528
  47   2.0000      -0.509430       -13.8623
  48   2.0000      -0.507183       -13.8011
  49   2.0000      -0.503571       -13.7029
  50   2.0000      -0.493057       -13.4168
  51   2.0000      -0.483106       -13.1460
  52   2.0000      -0.469884       -12.7862
  53   2.0000      -0.461539       -12.5591
  54   2.0000      -0.458866       -12.4864
  55   2.0000      -0.449582       -12.2337
  56   2.0000      -0.443353       -12.0643
  57   2.0000      -0.437292       -11.8993
  58   2.0000      -0.435433       -11.8487
  59   2.0000      -0.424762       -11.5584
  60   2.0000      -0.420042       -11.4299
  61   2.0000      -0.411786       -11.2053
  62   2.0000      -0.409732       -11.1494
  63   2.0000      -0.362534        -9.8651
  64   2.0000      -0.338020        -9.1980
  65   2.0000      -0.322950        -8.7879
  66   2.0000      -0.279207        -7.5976
  67   0.0000       0.017496         0.4761
  68   0.0000       0.073475         1.9994
  69   0.0000       0.090452         2.4613
  70   0.0000       0.114430         3.1138
  71   0.0000       0.136874         3.7245

MULLIKEN ATOMIC CHARGES
-----------------------
   0 S :    0.078352
   1 C :   -0.124856
   2 C :   -0.098643
   3 C :   -0.018344
   4 C :   -0.107481
   5 H :    0.030000
   6 C :    0.037602
   7 H :    0.021310
   8 H :    0.056702
   9 C :   -0.078121
  10 H :    0.033607
  11 H :    0.024132
  12 C :   -0.058092
  13 H :    0.042931
  14 H :    0.029745
  15 H :    0.036971
  16 S :    0.102540
  17 C :   -0.060177
  18 C :   -0.025705
  19 C :   -0.066042
  20 C :   -0.136858
  21 H :    0.012391
  22 C :    0.060022
  23 H :    0.009925
  24 H :    0.042588
  25 C :   -0.060762
  26 H :    0.023795
  27 H :    0.019003
  28 C :    0.004309
  29 H :    0.017609
  30 H :    0.035364
  31 H :    0.015467
  32 H :    0.068645
  33 H :    0.032071
Sum of atomic charges:    0.0000000

LOEWDIN ATOMIC CHARGES
----------------------
   0 S :    0.383098
   1 C :   -0.211935
   2 C :   -0.062220
   3 C :   -0.076455
   4 C :   -0.176745
   5 H :    0.034760
   6 C :   -0.037238
   7 H :    0.023646
   8 H :    0.047419
   9 C :   -0.039044
  10 H :    0.026411
  11 H :    0.017639
  12 C :   -0.067761
  13 H :    0.023326
  14 H :    0.027034
  15 H :    0.025972
  16 S :    0.411767
  17 C :   -0.174926
  18 C :   -0.062441
  19 C :   -0.056995
  20 C :   -0.190910
  21 H :    0.027239
  22 C :   -0.022928
  23 H :    0.024627
  24 H :    0.040674
  25 C :   -0.040185
  26 H :    0.019911
  27 H :    0.021942
  28 C :   -0.049410
  29 H :    0.012393
  30 H :    0.030150
  31 H :    0.022423
  32 H :    0.035955
  33 H :    0.012808

  Mayer bond orders larger than 0.100000
B(  0-S ,  1-C ) :   1.1395 B(  0-S ,  4-C ) :   1.1352 B(  1-C ,  2-C ) :   1.5820
B(  1-C ,  4-C ) :   0.1015 B(  1-C , 32-H ) :   0.9636 B(  2-C ,  3-C ) :   1.2645
B(  2-C ,  6-C ) :   1.0170 B(  3-C ,  4-C ) :   1.5674 B(  3-C ,  5-H ) :   0.9747
B(  4-C , 20-C ) :   1.0824 B(  6-C ,  7-H ) :   0.9444 B(  6-C ,  8-H ) :   0.9323
B(  6-C ,  9-C ) :   1.0898 B(  9-C , 10-H ) :   0.9497 B(  9-C , 11-H ) :   0.9532
B(  9-C , 12-C ) :   1.0739 B( 12-C , 13-H ) :   0.9763 B( 12-C , 14-H ) :   0.9741
B( 12-C , 15-H ) :   0.9758 B( 16-S , 17-C ) :   1.1497 B( 16-S , 20-C ) :   1.1422
B( 17-C , 18-C ) :   1.6190 B( 17-C , 33-H ) :   0.9771 B( 18-C , 19-C ) :   1.2258
B( 18-C , 21-H ) :   0.9908 B( 19-C , 20-C ) :   1.6046 B( 19-C , 22-C ) :   1.0189
B( 22-C , 23-H ) :   0.9403 B( 22-C , 24-H ) :   0.9363 B( 22-C , 25-C ) :   1.0686
B( 25-C , 26-H ) :   0.9556 B( 25-C , 27-H ) :   0.9525 B( 25-C , 28-C ) :   1.0815
B( 28-C , 29-H ) :   0.9711 B( 28-C , 30-H ) :   0.9778 B( 28-C , 31-H ) :   0.9718

Dispersion correction           -0.014566863
FINAL SINGLE POINT ENERGY     -1339.868006355045

DIPOLE MOMENT
-------------
                                X             Y             Z
Electronic contribution:    -21.96855     -10.93821       1.43407
Nuclear contribution   :     22.39403      11.28740      -1.85149
                        -----------------------------------------
Total Dipole Moment    :      0.42548       0.34919      -0.41742
                        -----------------------------------------
Magnitude (a.u.)       :      0.69080
Magnitude (Debye)      :      1.75586

Rotational constants in cm-1:     0.021267     0.008345     0.006586
Rotational constants in MHz :   637.572179   250.182199   197.454727

                             ****ORCA TERMINATED NORMALLY****
TOTAL RUN TIME: 0 days 0 hours 0 minutes 21 seconds 889 msec
