                         Program Version 4.2.1 -  RELEASE  -
|  1> ! wB97X-D3 SP def2-SVP
|  2> %pal
|  3> nprocs 24
|  4> end
|  5>
|  6> * xyz 0 1
|  7> S 	 -40.9026 	 6.69068 	 3.80498
|  8> C 	 -39.9693 	 5.87787 	 2.59366
|  9> C 	 -39.0746 	 4.98836 	 3.18472
| 10> C 	 -39.0716 	 5.13298 	 4.60831
| 11> C 	 -39.8929 	 6.12137 	 5.17919
| 12> H 	 -38.4569 	 4.46799 	 5.20017
| 13> C 	 -38.1916 	 3.8629 	 2.60091
| 14> H 	 -37.2682 	 3.89795 	 3.20497
| 15> H 	 -38.0307 	 4.21781 	 1.60958
| 16> C 	 -38.9523 	 2.60796 	 2.56067
| 17> H 	 -39.0163 	 2.33775 	 3.64346
| 18> H 	 -39.9691 	 2.79537 	 2.28039
| 19> C 	 -38.328 	 1.64313 	 1.51747
| 20> H 	 -38.8633 	 0.762816 	 1.51601
| 21> H 	 -38.3496 	 2.05169 	 0.568888
| 22> H 	 -37.2463 	 1.48941 	 1.79387
| 23> S 	 -38.828 	 7.3712 	 7.36094
| 24> C 	 -39.8118 	 7.69101 	 8.64072
| 25> C 	 -41.1573 	 7.45253 	 8.46035
| 26> C 	 -41.3743 	 6.72673 	 7.245
| 27> C 	 -40.1846 	 6.53583 	 6.55477
| 28> H 	 -41.8339 	 7.66335 	 9.24039
| 29> C 	 -42.7264 	 6.24834 	 6.78722
| 30> H 	 -42.5061 	 5.97604 	 5.76209
| 31> H 	 -43.478 	 7.06512 	 6.79995
| 32> C 	 -43.2661 	 4.97067 	 7.49447
| 33> H 	 -44.2121 	 4.7141 	 7.06298
| 34> H 	 -43.6052 	 5.23056 	 8.48983
| 35> C 	 -42.4375 	 3.67216 	 7.35193
| 36> H 	 -42.345 	 3.24693 	 6.27024
| 37> H 	 -42.8948 	 2.87314 	 7.94755
| 38> H 	 -41.4218 	 3.91254 	 7.77189
| 39> H 	 -40.242 	 5.76817 	 1.56275
| 40> H 	 -39.4251 	 8.23497 	 9.47311
| 41> *
| 42>
| 43>                          ****END OF INPUT****

CARTESIAN COORDINATES (ANGSTROEM)
---------------------------------
  S    -40.902600    6.690680    3.804980
  C    -39.969300    5.877870    2.593660
  C    -39.074600    4.988360    3.184720
  C    -39.071600    5.132980    4.608310
  C    -39.892900    6.121370    5.179190
  H    -38.456900    4.467990    5.200170
  C    -38.191600    3.862900    2.600910
  H    -37.268200    3.897950    3.204970
  H    -38.030700    4.217810    1.609580
  C    -38.952300    2.607960    2.560670
  H    -39.016300    2.337750    3.643460
  H    -39.969100    2.795370    2.280390
  C    -38.328000    1.643130    1.517470
  H    -38.863300    0.762816    1.516010
  H    -38.349600    2.051690    0.568888
  H    -37.246300    1.489410    1.793870
  S    -38.828000    7.371200    7.360940
  C    -39.811800    7.691010    8.640720
  C    -41.157300    7.452530    8.460350
  C    -41.374300    6.726730    7.245000
  C    -40.184600    6.535830    6.554770
  H    -41.833900    7.663350    9.240390
  C    -42.726400    6.248340    6.787220
  H    -42.506100    5.976040    5.762090
  H    -43.478000    7.065120    6.799950
  C    -43.266100    4.970670    7.494470
  H    -44.212100    4.714100    7.062980
  H    -43.605200    5.230560    8.489830
  C    -42.437500    3.672160    7.351930
  H    -42.345000    3.246930    6.270240
  H    -42.894800    2.873140    7.947550
  H    -41.421800    3.912540    7.771890
  H    -40.242000    5.768170    1.562750
  H    -39.425100    8.234970    9.473110

 Total Charge           Charge          ....    0
 Multiplicity           Mult            ....    1
 Number of Electrons    NEL             ....  134
 Basis Dimension        Dim             ....  322

ORBITAL ENERGIES
----------------

  NO   OCC          E(Eh)            E(eV)
   0   2.0000     -88.965296     -2420.8688
   1   2.0000     -88.962604     -2420.7955
   2   2.0000     -10.334878      -281.2263
   3   2.0000     -10.327265      -281.0192
   4   2.0000     -10.312894      -280.6281
   5   2.0000     -10.308240      -280.5015
   6   2.0000     -10.305643      -280.4308
   7   2.0000     -10.298343      -280.2322
   8   2.0000     -10.293683      -280.1053
   9   2.0000     -10.290906      -280.0298
  10   2.0000     -10.288316      -279.9593
  11   2.0000     -10.287674      -279.9418
  12   2.0000     -10.286264      -279.9035
  13   2.0000     -10.283917      -279.8396
  14   2.0000     -10.283772      -279.8357
  15   2.0000     -10.273785      -279.5639
  16   2.0000      -8.082009      -219.9226
  17   2.0000      -8.076431      -219.7709
  18   2.0000      -6.040158      -164.3610
  19   2.0000      -6.036323      -164.2567
  20   2.0000      -6.035102      -164.2235
  21   2.0000      -6.032915      -164.1640
  22   2.0000      -6.030931      -164.1100
  23   2.0000      -6.027197      -164.0084
  24   2.0000      -1.008863       -27.4526
  25   2.0000      -0.984596       -26.7922
  26   2.0000      -0.921198       -25.0671
  27   2.0000      -0.907620       -24.6976
  28   2.0000      -0.867305       -23.6006
  29   2.0000      -0.851528       -23.1712
  30   2.0000      -0.843319       -22.9479
  31   2.0000      -0.810356       -22.0509
  32   2.0000      -0.783747       -21.3268
  33   2.0000      -0.773765       -21.0552
  34   2.0000      -0.707013       -19.2388
  35   2.0000      -0.703251       -19.1364
  36   2.0000      -0.692487       -18.8435
  37   2.0000      -0.661620       -18.0036
  38   2.0000      -0.634520       -17.2662
  39   2.0000      -0.622008       -16.9257
  40   2.0000      -0.593888       -16.1605
  41   2.0000      -0.575213       -15.6523
  42   2.0000      -0.563105       -15.3229
  43   2.0000      -0.550036       -14.9672
  44   2.0000      -0.543425       -14.7874
  45   2.0000      -0.530887       -14.4462
  46   2.0000      -0.511939       -13.9306
  47   2.0000      -0.509388       -13.8611
  48   2.0000      -0.503379       -13.6977
  49   2.0000      -0.494175       -13.4472
  50   2.0000      -0.491941       -13.3864
  51   2.0000      -0.479248       -13.0410
  52   2.0000      -0.472600       -12.8601
  53   2.0000      -0.463977       -12.6255
  54   2.0000      -0.463051       -12.6003
  55   2.0000      -0.451391       -12.2830
  56   2.0000      -0.442869       -12.0511
  57   2.0000      -0.440045       -11.9742
  58   2.0000      -0.435010       -11.8372
  59   2.0000      -0.425272       -11.5722
  60   2.0000      -0.422504       -11.4969
  61   2.0000      -0.404631       -11.0106
  62   2.0000      -0.402962       -10.9651
  63   2.0000      -0.342435        -9.3181
  64   2.0000      -0.333527        -9.0757
  65   2.0000      -0.323855        -8.8126
  66   2.0000      -0.292762        -7.9665
  67   0.0000       0.029110         0.7921
  68   0.0000       0.067093         1.8257
  69   0.0000       0.104832         2.8526
  70   0.0000       0.113949         3.1007
  71   0.0000       0.132611         3.6085

MULLIKEN ATOMIC CHARGES
-----------------------
   0 S :    0.093530
   1 C :   -0.101105
   2 C :   -0.157160
   3 C :    0.032625
   4 C :   -0.148078
   5 H :    0.003751
   6 C :    0.083442
   7 H :    0.043399
   8 H :    0.002488
   9 C :   -0.067925
  10 H :    0.025885
  11 H :    0.022329
  12 C :    0.013333
  13 H :    0.022448
  14 H :    0.018310
  15 H :    0.035116
  16 S :    0.129140
  17 C :   -0.074253
  18 C :   -0.024283
  19 C :   -0.059924
  20 C :   -0.159078
  21 H :    0.004026
  22 C :    0.086750
  23 H :    0.005435
  24 H :    0.042489
  25 C :   -0.046278
  26 H :    0.014801
  27 H :    0.017518
  28 C :   -0.095064
  29 H :    0.054493
  30 H :    0.039184
  31 H :    0.051741
  32 H :    0.043977
  33 H :    0.046937
Sum of atomic charges:   -0.0000000

LOEWDIN ATOMIC CHARGES
----------------------
   0 S :    0.403509
   1 C :   -0.207521
   2 C :   -0.063397
   3 C :   -0.066226
   4 C :   -0.187366
   5 H :    0.024335
   6 C :   -0.027246
   7 H :    0.035462
   8 H :    0.021972
   9 C :   -0.042235
  10 H :    0.029922
  11 H :    0.022150
  12 C :   -0.047689
  13 H :    0.016239
  14 H :    0.016743
  15 H :    0.033961
  16 S :    0.447000
  17 C :   -0.202032
  18 C :   -0.071761
  19 C :   -0.047050
  20 C :   -0.202091
  21 H :    0.025445
  22 C :   -0.033748
  23 H :    0.015704
  24 H :    0.038754
  25 C :   -0.042487
  26 H :    0.021468
  27 H :    0.019941
  28 C :   -0.075451
  29 H :    0.038594
  30 H :    0.027129
  31 H :    0.030008
  32 H :    0.026378
  33 H :    0.021588

  Mayer bond orders larger than 0.100000
B(  0-S ,  1-C ) :   1.1557 B(  0-S ,  4-C ) :   1.1322 B(  1-C ,  2-C ) :   1.5923
B(  1-C ,  4-C ) :   0.1034 B(  1-C , 32-H ) :   0.9650 B(  2-C ,  3-C ) :   1.2788
B(  2-C ,  6-C ) :   1.0086 B(  3-C ,  4-C ) :   1.5456 B(  3-C ,  5-H ) :   0.9885
B(  4-C , 20-C ) :   1.0318 B(  6-C ,  7-H ) :   0.9398 B(  6-C ,  8-H ) :   0.9347
B(  6-C ,  9-C ) :   1.0662 B(  9-C , 10-H ) :   0.9509 B(  9-C , 11-H ) :   0.9533
B(  9-C , 12-C ) :   1.0721 B( 12-C , 13-H ) :   0.9744 B( 12-C , 14-H ) :   0.9745
B( 12-C , 15-H ) :   0.9734 B( 16-S , 17-C ) :   1.2024 B( 16-S , 20-C ) :   1.1470
B( 17-C , 18-C ) :   1.5845 B( 17-C , 33-H ) :   0.9651 B( 18-C , 19-C ) :   1.2304
B( 18-C , 21-H ) :   1.0050 B( 19-C , 20-C ) :   1.5861 B( 19-C , 22-C ) :   1.0409
B( 22-C , 23-H ) :   0.9188 B( 22-C , 24-H ) :   0.9366 B( 22-C , 25-C ) :   1.0750
B( 25-C , 26-H ) :   0.9503 B( 25-C , 27-H ) :   0.9566 B( 25-C , 28-C ) :   1.0691
B( 28-C , 29-H ) :   0.9722 B( 28-C , 30-H ) :   0.9722 B( 28-C , 31-H ) :   0.9763

Dispersion correction           -0.014636705
FINAL SINGLE POINT ENERGY     -1339.857918643248

DIPOLE MOMENT
-------------
                                X             Y             Z
Electronic contribution:      4.80939      22.86678       6.26223
Nuclear contribution   :     -4.98267     -23.29194      -6.23128
                        -----------------------------------------
Total Dipole Moment    :     -0.17328      -0.42516       0.03095
                        -----------------------------------------
Magnitude (a.u.)       :      0.46016
Magnitude (Debye)      :      1.16963

Rotational constants in cm-1:     0.021080     0.007860     0.007054
Rotational constants in MHz :   631.947608   235.630192   211.467414

                             ****ORCA TERMINATED NORMALLY****
TOTAL RUN TIME: 0 days 0 hours 0 minutes 22 seconds 286 msec
