                         Program Version 4.2.1 -  RELEASE  -
|  1> ! wB97X-D3 SP def2-SVP
|  2> %pal
|  3> nprocs 24
|  4> end
|  5>
|  6> * xyz 0 1
|  7> S 	 -106.105 	 14.9253 	 -118.18
|  8> C 	 -105.95 	 13.8206 	 -116.77
|  9> C 	 -105.848 	 14.5948 	 -115.669
| 10> C 	 -105.881 	 15.9752 	 -115.911
| 11> C 	 -106.157 	 16.3019 	 -117.219
| 12> H 	 -105.707 	 16.7156 	 -115.119
| 13> C 	 -105.608 	 14.0866 	 -114.286
| 14> H 	 -106.525 	 13.8013 	 -113.918
| 15> H 	 -105.217 	 14.7711 	 -113.613
| 16> C 	 -104.685 	 12.8918 	 -114.188
| 17> H 	 -105.019 	 11.9925 	 -114.727
| 18> H 	 -103.746 	 13.1247 	 -114.653
| 19> C 	 -104.47 	 12.3993 	 -112.775
| 20> H 	 -105.365 	 12.1163 	 -112.211
| 21> H 	 -103.725 	 11.5886 	 -113.008
| 22> H 	 -103.893 	 13.0085 	 -112.147
| 23> S 	 -107.582 	 18.5505 	 -117.893
| 24> C 	 -106.752 	 20.0373 	 -118.271
| 25> C 	 -105.412 	 19.7373 	 -118.504
| 26> C 	 -105.057 	 18.4131 	 -118.112
| 27> C 	 -106.147 	 17.681 	 -117.693
| 28> H 	 -104.703 	 20.4967 	 -118.958
| 29> C 	 -103.524 	 18.1044 	 -118.193
| 30> H 	 -103.084 	 18.5802 	 -119.089
| 31> H 	 -103.294 	 17.0793 	 -118.428
| 32> C 	 -102.723 	 18.5854 	 -117.003
| 33> H 	 -102.956 	 18.0242 	 -116.153
| 34> H 	 -102.924 	 19.5632 	 -116.714
| 35> C 	 -101.146 	 18.5614 	 -117.195
| 36> H 	 -100.585 	 18.9418 	 -116.341
| 37> H 	 -100.867 	 19.2276 	 -117.989
| 38> H 	 -100.815 	 17.5488 	 -117.537
| 39> H 	 -106.107 	 12.7494 	 -116.778
| 40> H 	 -107.174 	 21.0137 	 -118.61
| 41> *
| 42>
| 43>                          ****END OF INPUT****

CARTESIAN COORDINATES (ANGSTROEM)
---------------------------------
  S    -106.105000   14.925300  -118.180000
  C    -105.950000   13.820600  -116.770000
  C    -105.848000   14.594800  -115.669000
  C    -105.881000   15.975200  -115.911000
  C    -106.157000   16.301900  -117.219000
  H    -105.707000   16.715600  -115.119000
  C    -105.608000   14.086600  -114.286000
  H    -106.525000   13.801300  -113.918000
  H    -105.217000   14.771100  -113.613000
  C    -104.685000   12.891800  -114.188000
  H    -105.019000   11.992500  -114.727000
  H    -103.746000   13.124700  -114.653000
  C    -104.470000   12.399300  -112.775000
  H    -105.365000   12.116300  -112.211000
  H    -103.725000   11.588600  -113.008000
  H    -103.893000   13.008500  -112.147000
  S    -107.582000   18.550500  -117.893000
  C    -106.752000   20.037300  -118.271000
  C    -105.412000   19.737300  -118.504000
  C    -105.057000   18.413100  -118.112000
  C    -106.147000   17.681000  -117.693000
  H    -104.703000   20.496700  -118.958000
  C    -103.524000   18.104400  -118.193000
  H    -103.084000   18.580200  -119.089000
  H    -103.294000   17.079300  -118.428000
  C    -102.723000   18.585400  -117.003000
  H    -102.956000   18.024200  -116.153000
  H    -102.924000   19.563200  -116.714000
  C    -101.146000   18.561400  -117.195000
  H    -100.585000   18.941800  -116.341000
  H    -100.867000   19.227600  -117.989000
  H    -100.815000   17.548800  -117.537000
  H    -106.107000   12.749400  -116.778000
  H    -107.174000   21.013700  -118.610000

 Total Charge           Charge          ....    0
 Multiplicity           Mult            ....    1
 Number of Electrons    NEL             ....  134
 Basis Dimension        Dim             ....  322

ORBITAL ENERGIES
----------------

  NO   OCC          E(Eh)            E(eV)
   0   2.0000     -88.967414     -2420.9264
   1   2.0000     -88.964924     -2420.8587
   2   2.0000     -10.323007      -280.9033
   3   2.0000     -10.322808      -280.8979
   4   2.0000     -10.318928      -280.7923
   5   2.0000     -10.311981      -280.6033
   6   2.0000     -10.302805      -280.3536
   7   2.0000     -10.296227      -280.1746
   8   2.0000     -10.292453      -280.0719
   9   2.0000     -10.291461      -280.0449
  10   2.0000     -10.286962      -279.9225
  11   2.0000     -10.281624      -279.7772
  12   2.0000     -10.280125      -279.7364
  13   2.0000     -10.276221      -279.6302
  14   2.0000     -10.275044      -279.5982
  15   2.0000     -10.274044      -279.5710
  16   2.0000      -8.083068      -219.9515
  17   2.0000      -8.080118      -219.8712
  18   2.0000      -6.041538      -164.3986
  19   2.0000      -6.038642      -164.3198
  20   2.0000      -6.037399      -164.2860
  21   2.0000      -6.034455      -164.2059
  22   2.0000      -6.033842      -164.1892
  23   2.0000      -6.030917      -164.1096
  24   2.0000      -1.016329       -27.6557
  25   2.0000      -0.993398       -27.0317
  26   2.0000      -0.922857       -25.1122
  27   2.0000      -0.904275       -24.6066
  28   2.0000      -0.873045       -23.7568
  29   2.0000      -0.850764       -23.1505
  30   2.0000      -0.845148       -22.9976
  31   2.0000      -0.812986       -22.1225
  32   2.0000      -0.787121       -21.4186
  33   2.0000      -0.774561       -21.0769
  34   2.0000      -0.712121       -19.3778
  35   2.0000      -0.704180       -19.1617
  36   2.0000      -0.693657       -18.8754
  37   2.0000      -0.657601       -17.8942
  38   2.0000      -0.641691       -17.4613
  39   2.0000      -0.619811       -16.8659
  40   2.0000      -0.598520       -16.2866
  41   2.0000      -0.579842       -15.7783
  42   2.0000      -0.568270       -15.4634
  43   2.0000      -0.554597       -15.0914
  44   2.0000      -0.532668       -14.4946
  45   2.0000      -0.526432       -14.3249
  46   2.0000      -0.518509       -14.1094
  47   2.0000      -0.511796       -13.9267
  48   2.0000      -0.510981       -13.9045
  49   2.0000      -0.502186       -13.6652
  50   2.0000      -0.493065       -13.4170
  51   2.0000      -0.478129       -13.0106
  52   2.0000      -0.471528       -12.8309
  53   2.0000      -0.463955       -12.6248
  54   2.0000      -0.455712       -12.4005
  55   2.0000      -0.450062       -12.2468
  56   2.0000      -0.449190       -12.2231
  57   2.0000      -0.439887       -11.9699
  58   2.0000      -0.431004       -11.7282
  59   2.0000      -0.422152       -11.4873
  60   2.0000      -0.418277       -11.3819
  61   2.0000      -0.414011       -11.2658
  62   2.0000      -0.410950       -11.1825
  63   2.0000      -0.334452        -9.1009
  64   2.0000      -0.330408        -8.9909
  65   2.0000      -0.321368        -8.7449
  66   2.0000      -0.315888        -8.5958
  67   0.0000       0.050343         1.3699
  68   0.0000       0.053052         1.4436
  69   0.0000       0.111375         3.0307
  70   0.0000       0.122840         3.3426
  71   0.0000       0.138485         3.7684

MULLIKEN ATOMIC CHARGES
-----------------------
   0 S :    0.112818
   1 C :   -0.145324
   2 C :   -0.061491
   3 C :    0.006572
   4 C :   -0.129591
   5 H :    0.019269
   6 C :    0.174139
   7 H :    0.005886
   8 H :   -0.002026
   9 C :   -0.122507
  10 H :    0.022908
  11 H :    0.024110
  12 C :   -0.037334
  13 H :    0.041154
  14 H :    0.031887
  15 H :    0.013531
  16 S :    0.131877
  17 C :   -0.110784
  18 C :   -0.070173
  19 C :   -0.004110
  20 C :   -0.205378
  21 H :    0.045249
  22 C :    0.084861
  23 H :    0.012957
  24 H :    0.014031
  25 C :   -0.016883
  26 H :    0.012762
  27 H :    0.004758
  28 C :   -0.070631
  29 H :    0.039760
  30 H :    0.019227
  31 H :    0.034809
  32 H :    0.050711
  33 H :    0.072955
Sum of atomic charges:    0.0000000

LOEWDIN ATOMIC CHARGES
----------------------
   0 S :    0.422545
   1 C :   -0.188181
   2 C :   -0.061878
   3 C :   -0.065395
   4 C :   -0.217185
   5 H :    0.034803
   6 C :   -0.022523
   7 H :    0.025152
   8 H :    0.022471
   9 C :   -0.039907
  10 H :    0.022001
  11 H :    0.022551
  12 C :   -0.065821
  13 H :    0.027409
  14 H :    0.039655
  15 H :    0.013012
  16 S :    0.445210
  17 C :   -0.207960
  18 C :   -0.075667
  19 C :   -0.056792
  20 C :   -0.224299
  21 H :    0.041333
  22 C :   -0.026892
  23 H :    0.031557
  24 H :    0.024774
  25 C :   -0.030424
  26 H :    0.016194
  27 H :    0.014521
  28 C :   -0.065805
  29 H :    0.027903
  30 H :    0.018131
  31 H :    0.026740
  32 H :    0.031148
  33 H :    0.041617

  Mayer bond orders larger than 0.100000
B(  0-S ,  1-C ) :   1.1210 B(  0-S ,  4-C ) :   1.1855 B(  1-C ,  2-C ) :   1.6020
B(  1-C , 32-H ) :   0.9716 B(  2-C ,  3-C ) :   1.2708 B(  2-C ,  6-C ) :   1.0161
B(  3-C ,  4-C ) :   1.5472 B(  3-C ,  5-H ) :   0.9972 B(  4-C , 20-C ) :   0.9949
B(  6-C ,  7-H ) :   0.9108 B(  6-C ,  8-H ) :   0.9443 B(  6-C ,  9-C ) :   1.0755
B(  9-C , 10-H ) :   0.9497 B(  9-C , 11-H ) :   0.9579 B(  9-C , 12-C ) :   1.0870
B( 12-C , 13-H ) :   0.9738 B( 12-C , 14-H ) :   0.9729 B( 12-C , 15-H ) :   0.9724
B( 16-S , 17-C ) :   1.1632 B( 16-S , 20-C ) :   1.1728 B( 17-C , 18-C ) :   1.5913
B( 17-C , 20-C ) :   0.1013 B( 17-C , 33-H ) :   0.9622 B( 18-C , 19-C ) :   1.2717
B( 18-C , 21-H ) :   0.9753 B( 19-C , 20-C ) :   1.5919 B( 19-C , 22-C ) :   1.0318
B( 22-C , 23-H ) :   0.9411 B( 22-C , 24-H ) :   0.9307 B( 22-C , 25-C ) :   1.0649
B( 25-C , 26-H ) :   0.9521 B( 25-C , 27-H ) :   0.9549 B( 25-C , 28-C ) :   1.0758
B( 28-C , 29-H ) :   0.9759 B( 28-C , 30-H ) :   0.9762 B( 28-C , 31-H ) :   0.9777

Dispersion correction           -0.013861530
FINAL SINGLE POINT ENERGY     -1339.857492542111

DIPOLE MOMENT
-------------
                                X             Y             Z
Electronic contribution:    -22.99827       7.01765     -16.58341
Nuclear contribution   :     23.45780      -6.98642      16.92774
                        -----------------------------------------
Total Dipole Moment    :      0.45953       0.03123       0.34433
                        -----------------------------------------
Magnitude (a.u.)       :      0.57507
Magnitude (Debye)      :      1.46171

Rotational constants in cm-1:     0.018419     0.008048     0.006483
Rotational constants in MHz :   552.179163   241.277828   194.351399

                             ****ORCA TERMINATED NORMALLY****
TOTAL RUN TIME: 0 days 0 hours 0 minutes 21 seconds 278 msec
