                         Program Version 4.2.1 -  RELEASE  -
|  1> ! wB97X-D3 SP def2-SVP
|  2> %pal
|  3> nprocs 24
|  4> end
|  5>
|  6> * xyz 0 1
|  7> S 	 -45.449 	 12.442 	 -18.4782
|  8> C 	 -44.8814 	 11.7111 	 -16.9251
|  9> C 	 -44.5839 	 12.7038 	 -15.9784
| 10> C 	 -44.7202 	 13.9935 	 -16.531
| 11> C 	 -45.2342 	 13.9602 	 -17.8143
| 12> H 	 -44.4211 	 14.942 	 -16.0343
| 13> C 	 -43.7831 	 12.5138 	 -14.7063
| 14> H 	 -43.9257 	 11.4318 	 -14.4368
| 15> H 	 -44.1971 	 13.237 	 -14.1057
| 16> C 	 -42.2926 	 12.959 	 -14.8871
| 17> H 	 -41.8432 	 12.3421 	 -15.6467
| 18> H 	 -42.2139 	 14.0761 	 -15.1192
| 19> C 	 -41.3495 	 12.5873 	 -13.642
| 20> H 	 -41.4185 	 11.4757 	 -13.4741
| 21> H 	 -40.2068 	 12.6397 	 -13.7797
| 22> H 	 -41.6553 	 13.1641 	 -12.8237
| 23> S 	 -45.3386 	 14.9312 	 -20.4217
| 24> C 	 -45.8429 	 16.5816 	 -20.6691
| 25> C 	 -46.0003 	 17.279 	 -19.4329
| 26> C 	 -45.8514 	 16.4149 	 -18.28
| 27> C 	 -45.524 	 15.0992 	 -18.6396
| 28> H 	 -46.2805 	 18.2939 	 -19.3846
| 29> C 	 -46.3277 	 16.9265 	 -16.8601
| 30> H 	 -46.4422 	 15.9967 	 -16.329
| 31> H 	 -47.3901 	 17.3462 	 -16.9309
| 32> C 	 -45.3707 	 17.7902 	 -15.9776
| 33> H 	 -45.1388 	 18.7867 	 -16.3352
| 34> H 	 -44.3671 	 17.3523 	 -16.0214
| 35> C 	 -45.9128 	 17.8351 	 -14.5701
| 36> H 	 -46.7738 	 18.5565 	 -14.6895
| 37> H 	 -45.2443 	 18.3728 	 -13.8498
| 38> H 	 -46.2114 	 16.9318 	 -14.0196
| 39> H 	 -44.6611 	 10.6553 	 -16.718
| 40> H 	 -45.7431 	 17.1102 	 -21.5875
| 41> *
| 42>
| 43>                          ****END OF INPUT****

CARTESIAN COORDINATES (ANGSTROEM)
---------------------------------
  S    -45.449000   12.442000  -18.478200
  C    -44.881400   11.711100  -16.925100
  C    -44.583900   12.703800  -15.978400
  C    -44.720200   13.993500  -16.531000
  C    -45.234200   13.960200  -17.814300
  H    -44.421100   14.942000  -16.034300
  C    -43.783100   12.513800  -14.706300
  H    -43.925700   11.431800  -14.436800
  H    -44.197100   13.237000  -14.105700
  C    -42.292600   12.959000  -14.887100
  H    -41.843200   12.342100  -15.646700
  H    -42.213900   14.076100  -15.119200
  C    -41.349500   12.587300  -13.642000
  H    -41.418500   11.475700  -13.474100
  H    -40.206800   12.639700  -13.779700
  H    -41.655300   13.164100  -12.823700
  S    -45.338600   14.931200  -20.421700
  C    -45.842900   16.581600  -20.669100
  C    -46.000300   17.279000  -19.432900
  C    -45.851400   16.414900  -18.280000
  C    -45.524000   15.099200  -18.639600
  H    -46.280500   18.293900  -19.384600
  C    -46.327700   16.926500  -16.860100
  H    -46.442200   15.996700  -16.329000
  H    -47.390100   17.346200  -16.930900
  C    -45.370700   17.790200  -15.977600
  H    -45.138800   18.786700  -16.335200
  H    -44.367100   17.352300  -16.021400
  C    -45.912800   17.835100  -14.570100
  H    -46.773800   18.556500  -14.689500
  H    -45.244300   18.372800  -13.849800
  H    -46.211400   16.931800  -14.019600
  H    -44.661100   10.655300  -16.718000
  H    -45.743100   17.110200  -21.587500

 Total Charge           Charge          ....    0
 Multiplicity           Mult            ....    1
 Number of Electrons    NEL             ....  134
 Basis Dimension        Dim             ....  322

ORBITAL ENERGIES
----------------

  NO   OCC          E(Eh)            E(eV)
   0   2.0000     -88.971307     -2421.0323
   1   2.0000     -88.969941     -2420.9952
   2   2.0000     -10.331720      -281.1404
   3   2.0000     -10.324222      -280.9364
   4   2.0000     -10.320095      -280.8241
   5   2.0000     -10.317936      -280.7653
   6   2.0000     -10.310245      -280.5560
   7   2.0000     -10.302904      -280.3563
   8   2.0000     -10.300752      -280.2977
   9   2.0000     -10.299266      -280.2573
  10   2.0000     -10.297046      -280.1969
  11   2.0000     -10.295341      -280.1505
  12   2.0000     -10.293397      -280.0976
  13   2.0000     -10.292798      -280.0813
  14   2.0000     -10.288268      -279.9580
  15   2.0000     -10.287872      -279.9472
  16   2.0000      -8.086480      -220.0443
  17   2.0000      -8.083859      -219.9730
  18   2.0000      -6.044955      -164.4916
  19   2.0000      -6.042399      -164.4220
  20   2.0000      -6.041024      -164.3846
  21   2.0000      -6.038529      -164.3167
  22   2.0000      -6.037142      -164.2790
  23   2.0000      -6.034596      -164.2097
  24   2.0000      -1.011019       -27.5112
  25   2.0000      -0.976579       -26.5741
  26   2.0000      -0.913446       -24.8561
  27   2.0000      -0.906006       -24.6537
  28   2.0000      -0.863226       -23.4896
  29   2.0000      -0.855326       -23.2746
  30   2.0000      -0.841598       -22.9010
  31   2.0000      -0.806878       -21.9563
  32   2.0000      -0.782336       -21.2885
  33   2.0000      -0.769928       -20.9508
  34   2.0000      -0.707267       -19.2457
  35   2.0000      -0.699441       -19.0328
  36   2.0000      -0.697041       -18.9674
  37   2.0000      -0.663802       -18.0630
  38   2.0000      -0.633523       -17.2390
  39   2.0000      -0.620632       -16.8883
  40   2.0000      -0.590721       -16.0743
  41   2.0000      -0.577057       -15.7025
  42   2.0000      -0.563836       -15.3428
  43   2.0000      -0.553803       -15.0698
  44   2.0000      -0.525457       -14.2984
  45   2.0000      -0.521131       -14.1807
  46   2.0000      -0.519940       -14.1483
  47   2.0000      -0.507955       -13.8222
  48   2.0000      -0.500470       -13.6185
  49   2.0000      -0.498224       -13.5574
  50   2.0000      -0.488520       -13.2933
  51   2.0000      -0.484444       -13.1824
  52   2.0000      -0.472457       -12.8562
  53   2.0000      -0.461696       -12.5634
  54   2.0000      -0.459952       -12.5159
  55   2.0000      -0.455445       -12.3933
  56   2.0000      -0.442884       -12.0515
  57   2.0000      -0.440345       -11.9824
  58   2.0000      -0.431651       -11.7458
  59   2.0000      -0.429054       -11.6751
  60   2.0000      -0.417347       -11.3566
  61   2.0000      -0.415558       -11.3079
  62   2.0000      -0.409028       -11.1302
  63   2.0000      -0.352816        -9.6006
  64   2.0000      -0.336535        -9.1576
  65   2.0000      -0.331309        -9.0154
  66   2.0000      -0.280288        -7.6270
  67   0.0000       0.017586         0.4785
  68   0.0000       0.074013         2.0140
  69   0.0000       0.095135         2.5887
  70   0.0000       0.115310         3.1378
  71   0.0000       0.124063         3.3759

MULLIKEN ATOMIC CHARGES
-----------------------
   0 S :    0.113176
   1 C :   -0.131773
   2 C :   -0.080032
   3 C :   -0.030897
   4 C :   -0.112961
   5 H :    0.017572
   6 C :    0.102249
   7 H :    0.037706
   8 H :    0.008668
   9 C :   -0.104779
  10 H :    0.033146
  11 H :    0.052875
  12 C :   -0.082368
  13 H :    0.033311
  14 H :    0.049322
  15 H :    0.031756
  16 S :    0.097957
  17 C :   -0.079526
  18 C :   -0.022354
  19 C :   -0.043684
  20 C :   -0.125815
  21 H :    0.007262
  22 C :    0.008184
  23 H :    0.017873
  24 H :    0.051925
  25 C :   -0.033146
  26 H :    0.025720
  27 H :    0.022080
  28 C :   -0.089976
  29 H :    0.036004
  30 H :    0.036205
  31 H :    0.048157
  32 H :    0.048478
  33 H :    0.057684
Sum of atomic charges:    0.0000000

LOEWDIN ATOMIC CHARGES
----------------------
   0 S :    0.424030
   1 C :   -0.198156
   2 C :   -0.056544
   3 C :   -0.076330
   4 C :   -0.208887
   5 H :    0.035861
   6 C :   -0.023839
   7 H :    0.038694
   8 H :    0.020146
   9 C :   -0.036780
  10 H :    0.022400
  11 H :    0.033007
  12 C :   -0.076315
  13 H :    0.029097
  14 H :    0.036927
  15 H :    0.012207
  16 S :    0.386693
  17 C :   -0.187998
  18 C :   -0.059114
  19 C :   -0.056947
  20 C :   -0.182157
  21 H :    0.022905
  22 C :   -0.032778
  23 H :    0.025630
  24 H :    0.040427
  25 C :   -0.045401
  26 H :    0.024727
  27 H :    0.019939
  28 C :   -0.077024
  29 H :    0.034280
  30 H :    0.029568
  31 H :    0.027653
  32 H :    0.029332
  33 H :    0.024743

  Mayer bond orders larger than 0.100000
B(  0-S ,  1-C ) :   1.1163 B(  0-S ,  4-C ) :   1.1704 B(  1-C ,  2-C ) :   1.6043
B(  1-C , 32-H ) :   0.9650 B(  2-C ,  3-C ) :   1.2443 B(  2-C ,  6-C ) :   1.0375
B(  3-C ,  4-C ) :   1.5432 B(  3-C ,  5-H ) :   0.9809 B(  4-C , 20-C ) :   1.0733
B(  6-C ,  7-H ) :   0.9431 B(  6-C ,  8-H ) :   0.9231 B(  6-C ,  9-C ) :   1.0626
B(  9-C , 10-H ) :   0.9626 B(  9-C , 11-H ) :   0.9534 B(  9-C , 12-C ) :   1.0645
B( 12-C , 13-H ) :   0.9758 B( 12-C , 14-H ) :   0.9776 B( 12-C , 15-H ) :   0.9804
B( 16-S , 17-C ) :   1.1512 B( 16-S , 20-C ) :   1.1253 B( 17-C , 18-C ) :   1.5960
B( 17-C , 20-C ) :   0.1024 B( 17-C , 33-H ) :   0.9688 B( 18-C , 19-C ) :   1.2505
B( 18-C , 21-H ) :   0.9928 B( 19-C , 20-C ) :   1.5951 B( 19-C , 22-C ) :   1.0180
B( 22-C , 23-H ) :   0.9394 B( 22-C , 24-H ) :   0.9468 B( 22-C , 25-C ) :   1.0455
B( 25-C , 26-H ) :   0.9513 B( 25-C , 27-H ) :   0.9507 B( 25-C , 28-C ) :   1.0758
B( 28-C , 29-H ) :   0.9744 B( 28-C , 30-H ) :   0.9723 B( 28-C , 31-H ) :   0.9769

Dispersion correction           -0.014040308
FINAL SINGLE POINT ENERGY     -1339.849045923825

DIPOLE MOMENT
-------------
                                X             Y             Z
Electronic contribution:     -9.88898      -9.05551     -29.18200
Nuclear contribution   :     10.17135       9.42304      29.71993
                        -----------------------------------------
Total Dipole Moment    :      0.28237       0.36753       0.53794
                        -----------------------------------------
Magnitude (a.u.)       :      0.71006
Magnitude (Debye)      :      1.80483

Rotational constants in cm-1:     0.016347     0.009473     0.006703
Rotational constants in MHz :   490.058056   283.979328   200.961234

                             ****ORCA TERMINATED NORMALLY****
TOTAL RUN TIME: 0 days 0 hours 0 minutes 20 seconds 628 msec
