                         Program Version 4.2.1 -  RELEASE  -
|  1> ! wB97X-D3 SP def2-SVP
|  2> %pal
|  3> nprocs 24
|  4> end
|  5>
|  6> * xyz 0 1
|  7> S 	 -90.6708 	 -34.0274 	 -59.6908
|  8> C 	 -90.4801 	 -35.3488 	 -58.5487
|  9> C 	 -90.0437 	 -34.7963 	 -57.3175
| 10> C 	 -90.104 	 -33.3407 	 -57.3402
| 11> C 	 -90.5158 	 -32.8267 	 -58.5078
| 12> H 	 -89.8486 	 -32.5447 	 -56.6055
| 13> C 	 -89.4757 	 -35.6379 	 -56.1171
| 14> H 	 -89.25 	 -34.7737 	 -55.458
| 15> H 	 -88.5841 	 -36.0942 	 -56.4158
| 16> C 	 -90.4936 	 -36.4949 	 -55.3721
| 17> H 	 -91.409 	 -35.9271 	 -55.1851
| 18> H 	 -90.7904 	 -37.3738 	 -55.9455
| 19> C 	 -89.9907 	 -37.0331 	 -54.0089
| 20> H 	 -90.1881 	 -36.2382 	 -53.2952
| 21> H 	 -90.6169 	 -37.8948 	 -53.7877
| 22> H 	 -88.923 	 -37.2947 	 -53.9647
| 23> S 	 -89.4202 	 -30.8606 	 -60.0707
| 24> C 	 -89.9222 	 -29.1685 	 -59.8144
| 25> C 	 -90.9325 	 -29.0667 	 -58.8368
| 26> C 	 -91.2629 	 -30.2985 	 -58.2347
| 27> C 	 -90.5148 	 -31.3807 	 -58.7951
| 28> H 	 -91.4167 	 -28.1385 	 -58.5656
| 29> C 	 -92.3241 	 -30.6034 	 -57.2032
| 30> H 	 -92.7088 	 -31.6101 	 -57.2651
| 31> H 	 -93.2458 	 -29.9757 	 -57.3107
| 32> C 	 -91.8298 	 -30.4362 	 -55.7668
| 33> H 	 -91.6079 	 -29.4172 	 -55.5062
| 34> H 	 -90.9044 	 -30.8647 	 -55.5559
| 35> C 	 -92.8826 	 -30.7596 	 -54.7311
| 36> H 	 -92.4645 	 -30.9568 	 -53.7807
| 37> H 	 -93.3548 	 -31.7105 	 -54.9854
| 38> H 	 -93.8209 	 -30.1758 	 -54.6302
| 39> H 	 -90.3788 	 -36.4622 	 -58.9581
| 40> H 	 -89.5796 	 -28.1895 	 -60.2413
| 41> *
| 42>
| 43>                          ****END OF INPUT****

CARTESIAN COORDINATES (ANGSTROEM)
---------------------------------
  S    -90.670800  -34.027400  -59.690800
  C    -90.480100  -35.348800  -58.548700
  C    -90.043700  -34.796300  -57.317500
  C    -90.104000  -33.340700  -57.340200
  C    -90.515800  -32.826700  -58.507800
  H    -89.848600  -32.544700  -56.605500
  C    -89.475700  -35.637900  -56.117100
  H    -89.250000  -34.773700  -55.458000
  H    -88.584100  -36.094200  -56.415800
  C    -90.493600  -36.494900  -55.372100
  H    -91.409000  -35.927100  -55.185100
  H    -90.790400  -37.373800  -55.945500
  C    -89.990700  -37.033100  -54.008900
  H    -90.188100  -36.238200  -53.295200
  H    -90.616900  -37.894800  -53.787700
  H    -88.923000  -37.294700  -53.964700
  S    -89.420200  -30.860600  -60.070700
  C    -89.922200  -29.168500  -59.814400
  C    -90.932500  -29.066700  -58.836800
  C    -91.262900  -30.298500  -58.234700
  C    -90.514800  -31.380700  -58.795100
  H    -91.416700  -28.138500  -58.565600
  C    -92.324100  -30.603400  -57.203200
  H    -92.708800  -31.610100  -57.265100
  H    -93.245800  -29.975700  -57.310700
  C    -91.829800  -30.436200  -55.766800
  H    -91.607900  -29.417200  -55.506200
  H    -90.904400  -30.864700  -55.555900
  C    -92.882600  -30.759600  -54.731100
  H    -92.464500  -30.956800  -53.780700
  H    -93.354800  -31.710500  -54.985400
  H    -93.820900  -30.175800  -54.630200
  H    -90.378800  -36.462200  -58.958100
  H    -89.579600  -28.189500  -60.241300

 Total Charge           Charge          ....    0
 Multiplicity           Mult            ....    1
 Number of Electrons    NEL             ....  134
 Basis Dimension        Dim             ....  322

ORBITAL ENERGIES
----------------

  NO   OCC          E(Eh)            E(eV)
   0   2.0000     -88.973988     -2421.1053
   1   2.0000     -88.963213     -2420.8121
   2   2.0000     -10.331124      -281.1242
   3   2.0000     -10.327674      -281.0303
   4   2.0000     -10.325799      -280.9793
   5   2.0000     -10.320988      -280.8483
   6   2.0000     -10.313490      -280.6443
   7   2.0000     -10.307219      -280.4737
   8   2.0000     -10.297399      -280.2065
   9   2.0000     -10.294139      -280.1178
  10   2.0000     -10.293364      -280.0967
  11   2.0000     -10.293187      -280.0919
  12   2.0000     -10.286621      -279.9132
  13   2.0000     -10.278615      -279.6953
  14   2.0000     -10.277515      -279.6654
  15   2.0000     -10.272716      -279.5348
  16   2.0000      -8.087321      -220.0672
  17   2.0000      -8.079046      -219.8420
  18   2.0000      -6.045926      -164.5180
  19   2.0000      -6.041924      -164.4091
  20   2.0000      -6.038164      -164.3068
  21   2.0000      -6.037516      -164.2892
  22   2.0000      -6.033304      -164.1745
  23   2.0000      -6.029870      -164.0811
  24   2.0000      -1.009487       -27.4695
  25   2.0000      -0.979827       -26.6625
  26   2.0000      -0.912740       -24.8369
  27   2.0000      -0.907721       -24.7004
  28   2.0000      -0.866814       -23.5872
  29   2.0000      -0.853898       -23.2357
  30   2.0000      -0.845770       -23.0146
  31   2.0000      -0.814266       -22.1573
  32   2.0000      -0.781789       -21.2736
  33   2.0000      -0.766860       -20.8673
  34   2.0000      -0.708718       -19.2852
  35   2.0000      -0.699226       -19.0269
  36   2.0000      -0.690463       -18.7885
  37   2.0000      -0.659649       -17.9500
  38   2.0000      -0.643574       -17.5125
  39   2.0000      -0.611662       -16.6442
  40   2.0000      -0.596248       -16.2247
  41   2.0000      -0.567374       -15.4390
  42   2.0000      -0.561852       -15.2888
  43   2.0000      -0.555216       -15.1082
  44   2.0000      -0.527735       -14.3604
  45   2.0000      -0.524689       -14.2775
  46   2.0000      -0.518606       -14.1120
  47   2.0000      -0.508124       -13.8268
  48   2.0000      -0.503236       -13.6937
  49   2.0000      -0.496331       -13.5058
  50   2.0000      -0.493405       -13.4262
  51   2.0000      -0.477298       -12.9879
  52   2.0000      -0.469911       -12.7869
  53   2.0000      -0.465247       -12.6600
  54   2.0000      -0.457367       -12.4456
  55   2.0000      -0.456444       -12.4205
  56   2.0000      -0.444341       -12.0911
  57   2.0000      -0.440125       -11.9764
  58   2.0000      -0.437175       -11.8961
  59   2.0000      -0.426400       -11.6029
  60   2.0000      -0.423569       -11.5259
  61   2.0000      -0.404558       -11.0086
  62   2.0000      -0.403943       -10.9919
  63   2.0000      -0.345336        -9.3971
  64   2.0000      -0.333720        -9.0810
  65   2.0000      -0.327523        -8.9124
  66   2.0000      -0.294180        -8.0050
  67   0.0000       0.031535         0.8581
  68   0.0000       0.061682         1.6784
  69   0.0000       0.105869         2.8808
  70   0.0000       0.122869         3.3434
  71   0.0000       0.132524         3.6062

MULLIKEN ATOMIC CHARGES
-----------------------
   0 S :    0.104156
   1 C :   -0.162131
   2 C :   -0.113561
   3 C :    0.017863
   4 C :   -0.144245
   5 H :    0.025854
   6 C :    0.092427
   7 H :    0.019368
   8 H :    0.032914
   9 C :   -0.086816
  10 H :    0.034329
  11 H :    0.027454
  12 C :   -0.051860
  13 H :    0.032822
  14 H :    0.035900
  15 H :    0.038580
  16 S :    0.126812
  17 C :   -0.103206
  18 C :   -0.044647
  19 C :    0.001421
  20 C :   -0.195337
  21 H :    0.017070
  22 C :    0.056856
  23 H :    0.032677
  24 H :    0.028981
  25 C :   -0.031721
  26 H :    0.012541
  27 H :   -0.002708
  28 C :   -0.034022
  29 H :    0.022037
  30 H :    0.001169
  31 H :    0.034898
  32 H :    0.102333
  33 H :    0.071797
Sum of atomic charges:   -0.0000000

LOEWDIN ATOMIC CHARGES
----------------------
   0 S :    0.421494
   1 C :   -0.222781
   2 C :   -0.058874
   3 C :   -0.078611
   4 C :   -0.222605
   5 H :    0.040202
   6 C :   -0.025512
   7 H :    0.034405
   8 H :    0.023197
   9 C :   -0.041966
  10 H :    0.029286
  11 H :    0.019470
  12 C :   -0.064672
  13 H :    0.024261
  14 H :    0.028060
  15 H :    0.026305
  16 S :    0.406394
  17 C :   -0.196886
  18 C :   -0.068360
  19 C :   -0.054480
  20 C :   -0.191444
  21 H :    0.032217
  22 C :   -0.029725
  23 H :    0.030921
  24 H :    0.036778
  25 C :   -0.038617
  26 H :    0.023822
  27 H :    0.013011
  28 C :   -0.070100
  29 H :    0.022106
  30 H :    0.020573
  31 H :    0.030369
  32 H :    0.057625
  33 H :    0.044136

  Mayer bond orders larger than 0.100000
B(  0-S ,  1-C ) :   1.1455 B(  0-S ,  4-C ) :   1.1637 B(  1-C ,  2-C ) :   1.5858
B(  1-C , 32-H ) :   0.9564 B(  2-C ,  3-C ) :   1.2412 B(  2-C ,  6-C ) :   0.9947
B(  3-C ,  4-C ) :   1.5895 B(  3-C ,  5-H ) :   0.9805 B(  4-C , 20-C ) :   1.0134
B(  6-C ,  7-H ) :   0.9467 B(  6-C ,  8-H ) :   0.9426 B(  6-C ,  9-C ) :   1.0693
B(  9-C , 10-H ) :   0.9575 B(  9-C , 11-H ) :   0.9614 B(  9-C , 12-C ) :   1.0736
B( 12-C , 13-H ) :   0.9799 B( 12-C , 14-H ) :   0.9771 B( 12-C , 15-H ) :   0.9771
B( 16-S , 17-C ) :   1.1479 B( 16-S , 20-C ) :   1.1573 B( 17-C , 18-C ) :   1.5931
B( 17-C , 20-C ) :   0.1130 B( 17-C , 33-H ) :   0.9589 B( 18-C , 19-C ) :   1.2816
B( 18-C , 21-H ) :   0.9842 B( 19-C , 20-C ) :   1.5568 B( 19-C , 22-C ) :   1.0459
B( 22-C , 23-H ) :   0.9333 B( 22-C , 24-H ) :   0.9379 B( 22-C , 25-C ) :   1.0564
B( 25-C , 26-H ) :   0.9456 B( 25-C , 27-H ) :   0.9512 B( 25-C , 28-C ) :   1.0839
B( 28-C , 29-H ) :   0.9711 B( 28-C , 30-H ) :   0.9670 B( 28-C , 31-H ) :   0.9737

Dispersion correction           -0.014005262
FINAL SINGLE POINT ENERGY     -1339.852244751260

DIPOLE MOMENT
-------------
                                X             Y             Z
Electronic contribution:      7.70635       7.72239     -30.22047
Nuclear contribution   :     -7.72437      -7.73851      30.81534
                        -----------------------------------------
Total Dipole Moment    :     -0.01802      -0.01613       0.59486
                        -----------------------------------------
Magnitude (a.u.)       :      0.59535
Magnitude (Debye)      :      1.51327

Rotational constants in cm-1:     0.018424     0.008593     0.006408
Rotational constants in MHz :   552.331138   257.604240   192.113395

                             ****ORCA TERMINATED NORMALLY****
TOTAL RUN TIME: 0 days 0 hours 0 minutes 20 seconds 225 msec
