                         Program Version 4.2.1 -  RELEASE  -
|  1> ! wB97X-D3 SP def2-SVP
|  2> %pal
|  3> nprocs 24
|  4> end
|  5>
|  6> * xyz 0 1
|  7> S 	 -109.714 	 62.9098 	 -15.5826
|  8> C 	 -110.922 	 63.8654 	 -14.8965
|  9> C 	 -110.703 	 64.165 	 -13.5663
| 10> C 	 -109.484 	 63.6803 	 -13.1198
| 11> C 	 -108.878 	 62.8893 	 -14.0645
| 12> H 	 -109.014 	 63.8081 	 -12.2022
| 13> C 	 -111.65 	 64.996 	 -12.7243
| 14> H 	 -111.793 	 64.5544 	 -11.7382
| 15> H 	 -112.668 	 65.034 	 -13.0978
| 16> C 	 -111.199 	 66.423 	 -12.5103
| 17> H 	 -110.114 	 66.4384 	 -12.2812
| 18> H 	 -111.2 	 66.8843 	 -13.4936
| 19> C 	 -112.125 	 67.3957 	 -11.7876
| 20> H 	 -112.826 	 67.6811 	 -12.6278
| 21> H 	 -112.84 	 66.8151 	 -11.1377
| 22> H 	 -111.84 	 68.3082 	 -11.3645
| 23> S 	 -106.244 	 63.1934 	 -13.437
| 24> C 	 -105.127 	 61.9448 	 -13.7563
| 25> C 	 -105.684 	 60.8504 	 -14.3526
| 26> C 	 -107.099 	 61.0342 	 -14.5712
| 27> C 	 -107.578 	 62.1882 	 -13.9357
| 28> H 	 -105.224 	 59.9768 	 -14.727
| 29> C 	 -107.892 	 59.9558 	 -15.1656
| 30> H 	 -107.189 	 59.3189 	 -15.6093
| 31> H 	 -108.377 	 60.3942 	 -16.0382
| 32> C 	 -108.871 	 59.1645 	 -14.254
| 33> H 	 -109.571 	 58.5596 	 -14.8831
| 34> H 	 -109.366 	 59.9193 	 -13.6061
| 35> C 	 -108.126 	 58.2878 	 -13.3376
| 36> H 	 -108.661 	 58.1777 	 -12.4272
| 37> H 	 -107.173 	 58.627 	 -13.1165
| 38> H 	 -108.1 	 57.3295 	 -13.9081
| 39> H 	 -111.645 	 64.3107 	 -15.5907
| 40> H 	 -104.026 	 62.0624 	 -13.6521
| 41> *
| 42>
| 43>                          ****END OF INPUT****

CARTESIAN COORDINATES (ANGSTROEM)
---------------------------------
  S    -109.714000   62.909800  -15.582600
  C    -110.922000   63.865400  -14.896500
  C    -110.703000   64.165000  -13.566300
  C    -109.484000   63.680300  -13.119800
  C    -108.878000   62.889300  -14.064500
  H    -109.014000   63.808100  -12.202200
  C    -111.650000   64.996000  -12.724300
  H    -111.793000   64.554400  -11.738200
  H    -112.668000   65.034000  -13.097800
  C    -111.199000   66.423000  -12.510300
  H    -110.114000   66.438400  -12.281200
  H    -111.200000   66.884300  -13.493600
  C    -112.125000   67.395700  -11.787600
  H    -112.826000   67.681100  -12.627800
  H    -112.840000   66.815100  -11.137700
  H    -111.840000   68.308200  -11.364500
  S    -106.244000   63.193400  -13.437000
  C    -105.127000   61.944800  -13.756300
  C    -105.684000   60.850400  -14.352600
  C    -107.099000   61.034200  -14.571200
  C    -107.578000   62.188200  -13.935700
  H    -105.224000   59.976800  -14.727000
  C    -107.892000   59.955800  -15.165600
  H    -107.189000   59.318900  -15.609300
  H    -108.377000   60.394200  -16.038200
  C    -108.871000   59.164500  -14.254000
  H    -109.571000   58.559600  -14.883100
  H    -109.366000   59.919300  -13.606100
  C    -108.126000   58.287800  -13.337600
  H    -108.661000   58.177700  -12.427200
  H    -107.173000   58.627000  -13.116500
  H    -108.100000   57.329500  -13.908100
  H    -111.645000   64.310700  -15.590700
  H    -104.026000   62.062400  -13.652100

 Total Charge           Charge          ....    0
 Multiplicity           Mult            ....    1
 Number of Electrons    NEL             ....  134
 Basis Dimension        Dim             ....  322

ORBITAL ENERGIES
----------------

  NO   OCC          E(Eh)            E(eV)
   0   2.0000     -88.966899     -2420.9124
   1   2.0000     -88.965978     -2420.8873
   2   2.0000     -10.325690      -280.9763
   3   2.0000     -10.323278      -280.9107
   4   2.0000     -10.315504      -280.6991
   5   2.0000     -10.308709      -280.5142
   6   2.0000     -10.299131      -280.2536
   7   2.0000     -10.297541      -280.2103
   8   2.0000     -10.289857      -280.0012
   9   2.0000     -10.289088      -279.9803
  10   2.0000     -10.286047      -279.8976
  11   2.0000     -10.282962      -279.8136
  12   2.0000     -10.282301      -279.7956
  13   2.0000     -10.282121      -279.7907
  14   2.0000     -10.279260      -279.7129
  15   2.0000     -10.260566      -279.2042
  16   2.0000      -8.083051      -219.9510
  17   2.0000      -8.081607      -219.9117
  18   2.0000      -6.041207      -164.3896
  19   2.0000      -6.040046      -164.3580
  20   2.0000      -6.037390      -164.2857
  21   2.0000      -6.035982      -164.2474
  22   2.0000      -6.034086      -164.1958
  23   2.0000      -6.032401      -164.1500
  24   2.0000      -1.016394       -27.6575
  25   2.0000      -0.994230       -27.0544
  26   2.0000      -0.918323       -24.9888
  27   2.0000      -0.914976       -24.8978
  28   2.0000      -0.869712       -23.6661
  29   2.0000      -0.861601       -23.4454
  30   2.0000      -0.855321       -23.2745
  31   2.0000      -0.816163       -22.2089
  32   2.0000      -0.786578       -21.4039
  33   2.0000      -0.769591       -20.9416
  34   2.0000      -0.704108       -19.1598
  35   2.0000      -0.695521       -18.9261
  36   2.0000      -0.682657       -18.5761
  37   2.0000      -0.671331       -18.2678
  38   2.0000      -0.650579       -17.7032
  39   2.0000      -0.623587       -16.9687
  40   2.0000      -0.597330       -16.2542
  41   2.0000      -0.570253       -15.5174
  42   2.0000      -0.559537       -15.2258
  43   2.0000      -0.557385       -15.1672
  44   2.0000      -0.551655       -15.0113
  45   2.0000      -0.526937       -14.3387
  46   2.0000      -0.519963       -14.1489
  47   2.0000      -0.512601       -13.9486
  48   2.0000      -0.510070       -13.8797
  49   2.0000      -0.498684       -13.5699
  50   2.0000      -0.490212       -13.3393
  51   2.0000      -0.478356       -13.0167
  52   2.0000      -0.475237       -12.9319
  53   2.0000      -0.470173       -12.7941
  54   2.0000      -0.462619       -12.5885
  55   2.0000      -0.454278       -12.3615
  56   2.0000      -0.440786       -11.9944
  57   2.0000      -0.434690       -11.8285
  58   2.0000      -0.431054       -11.7296
  59   2.0000      -0.428642       -11.6639
  60   2.0000      -0.421199       -11.4614
  61   2.0000      -0.409745       -11.1497
  62   2.0000      -0.394499       -10.7349
  63   2.0000      -0.351696        -9.5701
  64   2.0000      -0.338084        -9.1997
  65   2.0000      -0.329079        -8.9547
  66   2.0000      -0.286523        -7.7967
  67   0.0000       0.030873         0.8401
  68   0.0000       0.074795         2.0353
  69   0.0000       0.110420         3.0047
  70   0.0000       0.117419         3.1951
  71   0.0000       0.130505         3.5512

MULLIKEN ATOMIC CHARGES
-----------------------
   0 S :    0.125699
   1 C :   -0.142260
   2 C :   -0.044033
   3 C :    0.018135
   4 C :   -0.136573
   5 H :   -0.012684
   6 C :    0.091022
   7 H :    0.022930
   8 H :    0.007910
   9 C :   -0.094897
  10 H :    0.026548
  11 H :    0.016226
  12 C :   -0.026368
  13 H :    0.021322
  14 H :    0.025098
  15 H :    0.038503
  16 S :    0.112375
  17 C :   -0.086273
  18 C :   -0.000889
  19 C :   -0.131736
  20 C :   -0.129368
  21 H :    0.000985
  22 C :    0.087510
  23 H :   -0.015432
  24 H :    0.023462
  25 C :   -0.060692
  26 H :    0.038220
  27 H :    0.039711
  28 C :   -0.008942
  29 H :    0.024346
  30 H :    0.016175
  31 H :    0.027482
  32 H :    0.058067
  33 H :    0.068420
Sum of atomic charges:    0.0000000

LOEWDIN ATOMIC CHARGES
----------------------
   0 S :    0.450601
   1 C :   -0.216197
   2 C :   -0.060084
   3 C :   -0.058385
   4 C :   -0.195285
   5 H :    0.022901
   6 C :   -0.029056
   7 H :    0.028862
   8 H :    0.026998
   9 C :   -0.054773
  10 H :    0.022458
  11 H :    0.023467
  12 C :   -0.068913
  13 H :    0.033660
  14 H :    0.027230
  15 H :    0.020846
  16 S :    0.433998
  17 C :   -0.202182
  18 C :   -0.070085
  19 C :   -0.059636
  20 C :   -0.206655
  21 H :    0.024176
  22 C :   -0.040804
  23 H :    0.018954
  24 H :    0.026609
  25 C :   -0.034260
  26 H :    0.029293
  27 H :    0.028277
  28 C :   -0.058061
  29 H :    0.023587
  30 H :    0.014168
  31 H :    0.031755
  32 H :    0.029205
  33 H :    0.037330

  Mayer bond orders larger than 0.100000
B(  0-S ,  1-C ) :   1.1733 B(  0-S ,  4-C ) :   1.1726 B(  1-C ,  2-C ) :   1.5736
B(  1-C , 32-H ) :   0.9670 B(  2-C ,  3-C ) :   1.2582 B(  2-C ,  6-C ) :   1.0308
B(  3-C ,  4-C ) :   1.5350 B(  3-C ,  5-H ) :   1.0171 B(  4-C , 20-C ) :   1.0363
B(  6-C ,  7-H ) :   0.9309 B(  6-C ,  8-H ) :   0.9391 B(  6-C ,  9-C ) :   1.0648
B(  9-C , 10-H ) :   0.9586 B(  9-C , 11-H ) :   0.9634 B(  9-C , 12-C ) :   1.0457
B( 12-C , 13-H ) :   0.9796 B( 12-C , 14-H ) :   0.9754 B( 12-C , 15-H ) :   0.9786
B( 16-S , 17-C ) :   1.1752 B( 16-S , 20-C ) :   1.1488 B( 17-C , 18-C ) :   1.5753
B( 17-C , 33-H ) :   0.9593 B( 18-C , 19-C ) :   1.2670 B( 18-C , 21-H ) :   0.9931
B( 19-C , 20-C ) :   1.5553 B( 19-C , 22-C ) :   1.0687 B( 22-C , 23-H ) :   0.9201
B( 22-C , 24-H ) :   0.9128 B( 22-C , 25-C ) :   1.0613 B( 25-C , 26-H ) :   0.9606
B( 25-C , 27-H ) :   0.9615 B( 25-C , 28-C ) :   1.0659 B( 28-C , 29-H ) :   0.9725
B( 28-C , 30-H ) :   0.9781 B( 28-C , 31-H ) :   0.9760

Dispersion correction           -0.014463132
FINAL SINGLE POINT ENERGY     -1339.858526254697

DIPOLE MOMENT
-------------
                                X             Y             Z
Electronic contribution:     13.26494       1.10639      -8.27736
Nuclear contribution   :    -13.37281      -1.10931       8.17012
                        -----------------------------------------
Total Dipole Moment    :     -0.10787      -0.00292      -0.10724
                        -----------------------------------------
Magnitude (a.u.)       :      0.15213
Magnitude (Debye)      :      0.38669

Rotational constants in cm-1:     0.023609     0.007568     0.006604
Rotational constants in MHz :   707.769893   226.875153   197.978874

                             ****ORCA TERMINATED NORMALLY****
TOTAL RUN TIME: 0 days 0 hours 0 minutes 20 seconds 587 msec
