                         Program Version 4.2.1 -  RELEASE  -
|  1> ! wB97X-D3 SP def2-SVP
|  2> %pal
|  3> nprocs 24
|  4> end
|  5>
|  6> * xyz 0 1
|  7> S 	 -131.203 	 26.8932 	 -17.2045
|  8> C 	 -131.217 	 25.7883 	 -18.524
|  9> C 	 -130.93 	 26.4025 	 -19.6581
| 10> C 	 -130.706 	 27.7694 	 -19.4613
| 11> C 	 -130.85 	 28.2225 	 -18.1791
| 12> H 	 -130.259 	 28.4407 	 -20.1704
| 13> C 	 -130.725 	 25.6942 	 -21.0286
| 14> H 	 -130.986 	 26.3246 	 -21.9174
| 15> H 	 -131.505 	 24.8808 	 -21.1656
| 16> C 	 -129.301 	 25.1856 	 -21.2677
| 17> H 	 -129.114 	 24.8975 	 -22.3138
| 18> H 	 -128.564 	 26.0116 	 -21.1617
| 19> C 	 -128.903 	 23.9654 	 -20.4304
| 20> H 	 -128.595 	 24.2792 	 -19.3977
| 21> H 	 -129.676 	 23.1734 	 -20.4095
| 22> H 	 -127.959 	 23.4991 	 -20.8514
| 23> S 	 -129.436 	 29.9502 	 -16.3583
| 24> C 	 -129.903 	 31.6035 	 -16.359
| 25> C 	 -130.904 	 31.8744 	 -17.3054
| 26> C 	 -131.373 	 30.7718 	 -18.0752
| 27> C 	 -130.684 	 29.6115 	 -17.7111
| 28> H 	 -131.239 	 32.9208 	 -17.4414
| 29> C 	 -132.392 	 30.9414 	 -19.1116
| 30> H 	 -132.062 	 30.5477 	 -20.0141
| 31> H 	 -132.425 	 32.0649 	 -19.2866
| 32> C 	 -133.854 	 30.6145 	 -18.688
| 33> H 	 -134.046 	 31.2091 	 -17.7178
| 34> H 	 -133.866 	 29.58 	 -18.4604
| 35> C 	 -134.974 	 31.0273 	 -19.7305
| 36> H 	 -135.866 	 30.4788 	 -19.5404
| 37> H 	 -134.735 	 30.62 	 -20.7105
| 38> H 	 -135.188 	 32.0939 	 -19.7522
| 39> H 	 -131.608 	 24.7618 	 -18.372
| 40> H 	 -129.48 	 32.3257 	 -15.6989
| 41> *
| 42>
| 43>                          ****END OF INPUT****

CARTESIAN COORDINATES (ANGSTROEM)
---------------------------------
  S    -131.203000   26.893200  -17.204500
  C    -131.217000   25.788300  -18.524000
  C    -130.930000   26.402500  -19.658100
  C    -130.706000   27.769400  -19.461300
  C    -130.850000   28.222500  -18.179100
  H    -130.259000   28.440700  -20.170400
  C    -130.725000   25.694200  -21.028600
  H    -130.986000   26.324600  -21.917400
  H    -131.505000   24.880800  -21.165600
  C    -129.301000   25.185600  -21.267700
  H    -129.114000   24.897500  -22.313800
  H    -128.564000   26.011600  -21.161700
  C    -128.903000   23.965400  -20.430400
  H    -128.595000   24.279200  -19.397700
  H    -129.676000   23.173400  -20.409500
  H    -127.959000   23.499100  -20.851400
  S    -129.436000   29.950200  -16.358300
  C    -129.903000   31.603500  -16.359000
  C    -130.904000   31.874400  -17.305400
  C    -131.373000   30.771800  -18.075200
  C    -130.684000   29.611500  -17.711100
  H    -131.239000   32.920800  -17.441400
  C    -132.392000   30.941400  -19.111600
  H    -132.062000   30.547700  -20.014100
  H    -132.425000   32.064900  -19.286600
  C    -133.854000   30.614500  -18.688000
  H    -134.046000   31.209100  -17.717800
  H    -133.866000   29.580000  -18.460400
  C    -134.974000   31.027300  -19.730500
  H    -135.866000   30.478800  -19.540400
  H    -134.735000   30.620000  -20.710500
  H    -135.188000   32.093900  -19.752200
  H    -131.608000   24.761800  -18.372000
  H    -129.480000   32.325700  -15.698900

 Total Charge           Charge          ....    0
 Multiplicity           Mult            ....    1
 Number of Electrons    NEL             ....  134
 Basis Dimension        Dim             ....  322

ORBITAL ENERGIES
----------------

  NO   OCC          E(Eh)            E(eV)
   0   2.0000     -88.967474     -2420.9280
   1   2.0000     -88.961382     -2420.7623
   2   2.0000     -10.335910      -281.2544
   3   2.0000     -10.322490      -280.8892
   4   2.0000     -10.317893      -280.7641
   5   2.0000     -10.308763      -280.5157
   6   2.0000     -10.305647      -280.4309
   7   2.0000     -10.302662      -280.3497
   8   2.0000     -10.295485      -280.1544
   9   2.0000     -10.295168      -280.1458
  10   2.0000     -10.293713      -280.1062
  11   2.0000     -10.289749      -279.9983
  12   2.0000     -10.288778      -279.9719
  13   2.0000     -10.284499      -279.8554
  14   2.0000     -10.283769      -279.8356
  15   2.0000     -10.279148      -279.7098
  16   2.0000      -8.081038      -219.8962
  17   2.0000      -8.078244      -219.8202
  18   2.0000      -6.039492      -164.3429
  19   2.0000      -6.036571      -164.2634
  20   2.0000      -6.035786      -164.2421
  21   2.0000      -6.032317      -164.1477
  22   2.0000      -6.031856      -164.1351
  23   2.0000      -6.029177      -164.0623
  24   2.0000      -1.017877       -27.6978
  25   2.0000      -0.982969       -26.7479
  26   2.0000      -0.908176       -24.7127
  27   2.0000      -0.907277       -24.6883
  28   2.0000      -0.867332       -23.6013
  29   2.0000      -0.851191       -23.1621
  30   2.0000      -0.844532       -22.9809
  31   2.0000      -0.806584       -21.9483
  32   2.0000      -0.785783       -21.3823
  33   2.0000      -0.776193       -21.1213
  34   2.0000      -0.709505       -19.3066
  35   2.0000      -0.694893       -18.9090
  36   2.0000      -0.689447       -18.7608
  37   2.0000      -0.658505       -17.9188
  38   2.0000      -0.646376       -17.5888
  39   2.0000      -0.618981       -16.8433
  40   2.0000      -0.597648       -16.2628
  41   2.0000      -0.567887       -15.4530
  42   2.0000      -0.563580       -15.3358
  43   2.0000      -0.544237       -14.8094
  44   2.0000      -0.536273       -14.5927
  45   2.0000      -0.517810       -14.0903
  46   2.0000      -0.516195       -14.0464
  47   2.0000      -0.513500       -13.9730
  48   2.0000      -0.505812       -13.7638
  49   2.0000      -0.495597       -13.4859
  50   2.0000      -0.492463       -13.4006
  51   2.0000      -0.480854       -13.0847
  52   2.0000      -0.472089       -12.8462
  53   2.0000      -0.463808       -12.6209
  54   2.0000      -0.459985       -12.5168
  55   2.0000      -0.449154       -12.2221
  56   2.0000      -0.438059       -11.9202
  57   2.0000      -0.433205       -11.7881
  58   2.0000      -0.428862       -11.6699
  59   2.0000      -0.425352       -11.5744
  60   2.0000      -0.419094       -11.4041
  61   2.0000      -0.414773       -11.2866
  62   2.0000      -0.407839       -11.0979
  63   2.0000      -0.346348        -9.4246
  64   2.0000      -0.333985        -9.0882
  65   2.0000      -0.331023        -9.0076
  66   2.0000      -0.295275        -8.0349
  67   0.0000       0.032775         0.8918
  68   0.0000       0.065252         1.7756
  69   0.0000       0.107937         2.9371
  70   0.0000       0.124800         3.3960
  71   0.0000       0.138909         3.7799

MULLIKEN ATOMIC CHARGES
-----------------------
   0 S :    0.114178
   1 C :   -0.155888
   2 C :   -0.030893
   3 C :    0.015995
   4 C :   -0.158342
   5 H :    0.005670
   6 C :    0.030830
   7 H :    0.029566
   8 H :    0.032385
   9 C :   -0.063367
  10 H :    0.027362
  11 H :    0.030281
  12 C :   -0.083815
  13 H :    0.047750
  14 H :    0.034658
  15 H :    0.036173
  16 S :    0.100036
  17 C :   -0.079243
  18 C :   -0.057434
  19 C :   -0.002308
  20 C :   -0.186838
  21 H :    0.025983
  22 C :    0.094340
  23 H :    0.011024
  24 H :    0.014057
  25 C :   -0.091696
  26 H :    0.040751
  27 H :    0.033713
  28 C :   -0.022971
  29 H :    0.024665
  30 H :    0.022563
  31 H :    0.044711
  32 H :    0.063626
  33 H :    0.052477
Sum of atomic charges:   -0.0000000

LOEWDIN ATOMIC CHARGES
----------------------
   0 S :    0.441333
   1 C :   -0.200405
   2 C :   -0.075205
   3 C :   -0.068363
   4 C :   -0.220253
   5 H :    0.027815
   6 C :   -0.036146
   7 H :    0.034316
   8 H :    0.033340
   9 C :   -0.050219
  10 H :    0.025277
  11 H :    0.028967
  12 C :   -0.076568
  13 H :    0.029662
  14 H :    0.023706
  15 H :    0.031431
  16 S :    0.373163
  17 C :   -0.187073
  18 C :   -0.078435
  19 C :   -0.047855
  20 C :   -0.164692
  21 H :    0.033422
  22 C :   -0.032827
  23 H :    0.019983
  24 H :    0.037883
  25 C :   -0.030547
  26 H :    0.034581
  27 H :    0.018390
  28 C :   -0.065463
  29 H :    0.025594
  30 H :    0.025354
  31 H :    0.027285
  32 H :    0.037052
  33 H :    0.025499

  Mayer bond orders larger than 0.100000
B(  0-S ,  1-C ) :   1.1531 B(  0-S ,  4-C ) :   1.1747 B(  1-C ,  2-C ) :   1.6100
B(  1-C , 32-H ) :   0.9637 B(  2-C ,  3-C ) :   1.2660 B(  2-C ,  6-C ) :   1.0059
B(  3-C ,  4-C ) :   1.5638 B(  3-C ,  5-H ) :   0.9997 B(  4-C , 20-C ) :   1.0329
B(  6-C ,  7-H ) :   0.9439 B(  6-C ,  8-H ) :   0.9478 B(  6-C ,  9-C ) :   1.0735
B(  9-C , 10-H ) :   0.9570 B(  9-C , 11-H ) :   0.9521 B(  9-C , 12-C ) :   1.0763
B( 12-C , 13-H ) :   0.9742 B( 12-C , 14-H ) :   0.9751 B( 12-C , 15-H ) :   0.9738
B( 16-S , 17-C ) :   1.1628 B( 16-S , 20-C ) :   1.1223 B( 17-C , 18-C ) :   1.6051
B( 17-C , 20-C ) :   0.1040 B( 17-C , 33-H ) :   0.9682 B( 18-C , 19-C ) :   1.2462
B( 18-C , 21-H ) :   0.9780 B( 19-C , 20-C ) :   1.5889 B( 19-C , 22-C ) :   1.0482
B( 22-C , 23-H ) :   0.9249 B( 22-C , 24-H ) :   0.9296 B( 22-C , 25-C ) :   1.0472
B( 25-C , 26-H ) :   0.9570 B( 25-C , 27-H ) :   0.9622 B( 25-C , 28-C ) :   1.0756
B( 28-C , 29-H ) :   0.9734 B( 28-C , 30-H ) :   0.9729 B( 28-C , 31-H ) :   0.9778

Dispersion correction           -0.014236899
FINAL SINGLE POINT ENERGY     -1339.876091292825

DIPOLE MOMENT
-------------
                                X             Y             Z
Electronic contribution:      8.55822       4.40507      20.27912
Nuclear contribution   :     -8.76394      -4.29607     -20.84570
                        -----------------------------------------
Total Dipole Moment    :     -0.20571       0.10900      -0.56658
                        -----------------------------------------
Magnitude (a.u.)       :      0.61254
Magnitude (Debye)      :      1.55696

Rotational constants in cm-1:     0.018775     0.008261     0.006664
Rotational constants in MHz :   562.852413   247.666273   199.776478

                             ****ORCA TERMINATED NORMALLY****
TOTAL RUN TIME: 0 days 0 hours 0 minutes 21 seconds 258 msec
