                         Program Version 4.2.1 -  RELEASE  -
|  1> ! wB97X-D3 SP def2-SVP
|  2> %pal
|  3> nprocs 24
|  4> end
|  5>
|  6> * xyz 0 1
|  7> S 	 -34.852 	 -11.8405 	 20.9972
|  8> C 	 -34.223 	 -13.4681 	 21.0802
|  9> C 	 -34.3944 	 -14.1879 	 19.9334
| 10> C 	 -34.9975 	 -13.3504 	 18.9626
| 11> C 	 -35.3182 	 -12.0255 	 19.3495
| 12> H 	 -35.2781 	 -13.7539 	 17.9998
| 13> C 	 -33.9007 	 -15.5781 	 19.5764
| 14> H 	 -34.1055 	 -15.6701 	 18.4888
| 15> H 	 -34.4727 	 -16.2998 	 20.2066
| 16> C 	 -32.3262 	 -15.7634 	 19.5711
| 17> H 	 -32.1266 	 -16.6418 	 18.9088
| 18> H 	 -31.7347 	 -15.028 	 18.9929
| 19> C 	 -31.6845 	 -16.0777 	 20.8978
| 20> H 	 -32.3094 	 -16.7277 	 21.494
| 21> H 	 -30.7518 	 -16.6235 	 20.7301
| 22> H 	 -31.4612 	 -15.1819 	 21.4483
| 23> S 	 -37.3506 	 -10.058 	 19.2839
| 24> C 	 -37.5197 	 -9.08668 	 17.8057
| 25> C 	 -36.6168 	 -9.49077 	 16.8507
| 26> C 	 -35.8967 	 -10.6809 	 17.2198
| 27> C 	 -36.0066 	 -11.0426 	 18.5595
| 28> H 	 -36.5816 	 -9.05273 	 15.9261
| 29> C 	 -34.9201 	 -11.3656 	 16.1879
| 30> H 	 -35.1714 	 -11.0766 	 15.1835
| 31> H 	 -34.9409 	 -12.4362 	 16.257
| 32> C 	 -33.5049 	 -10.8208 	 16.4105
| 33> H 	 -33.2638 	 -11.0404 	 17.5341
| 34> H 	 -33.4224 	 -9.69863 	 16.3194
| 35> C 	 -32.4462 	 -11.5624 	 15.4714
| 36> H 	 -32.7583 	 -12.6351 	 15.4855
| 37> H 	 -31.3929 	 -11.591 	 15.7606
| 38> H 	 -32.6067 	 -11.2276 	 14.3943
| 39> H 	 -33.7273 	 -13.9338 	 21.9465
| 40> H 	 -38.263 	 -8.28505 	 17.7242
| 41> *
| 42>
| 43>                          ****END OF INPUT****

CARTESIAN COORDINATES (ANGSTROEM)
---------------------------------
  S    -34.852000  -11.840500   20.997200
  C    -34.223000  -13.468100   21.080200
  C    -34.394400  -14.187900   19.933400
  C    -34.997500  -13.350400   18.962600
  C    -35.318200  -12.025500   19.349500
  H    -35.278100  -13.753900   17.999800
  C    -33.900700  -15.578100   19.576400
  H    -34.105500  -15.670100   18.488800
  H    -34.472700  -16.299800   20.206600
  C    -32.326200  -15.763400   19.571100
  H    -32.126600  -16.641800   18.908800
  H    -31.734700  -15.028000   18.992900
  C    -31.684500  -16.077700   20.897800
  H    -32.309400  -16.727700   21.494000
  H    -30.751800  -16.623500   20.730100
  H    -31.461200  -15.181900   21.448300
  S    -37.350600  -10.058000   19.283900
  C    -37.519700   -9.086680   17.805700
  C    -36.616800   -9.490770   16.850700
  C    -35.896700  -10.680900   17.219800
  C    -36.006600  -11.042600   18.559500
  H    -36.581600   -9.052730   15.926100
  C    -34.920100  -11.365600   16.187900
  H    -35.171400  -11.076600   15.183500
  H    -34.940900  -12.436200   16.257000
  C    -33.504900  -10.820800   16.410500
  H    -33.263800  -11.040400   17.534100
  H    -33.422400   -9.698630   16.319400
  C    -32.446200  -11.562400   15.471400
  H    -32.758300  -12.635100   15.485500
  H    -31.392900  -11.591000   15.760600
  H    -32.606700  -11.227600   14.394300
  H    -33.727300  -13.933800   21.946500
  H    -38.263000   -8.285050   17.724200

 Total Charge           Charge          ....    0
 Multiplicity           Mult            ....    1
 Number of Electrons    NEL             ....  134
 Basis Dimension        Dim             ....  322

ORBITAL ENERGIES
----------------

  NO   OCC          E(Eh)            E(eV)
   0   2.0000     -88.971561     -2421.0392
   1   2.0000     -88.963359     -2420.8161
   2   2.0000     -10.333270      -281.1826
   3   2.0000     -10.331474      -281.1337
   4   2.0000     -10.323567      -280.9185
   5   2.0000     -10.313211      -280.6367
   6   2.0000     -10.309561      -280.5374
   7   2.0000     -10.306045      -280.4417
   8   2.0000     -10.297817      -280.2179
   9   2.0000     -10.296920      -280.1934
  10   2.0000     -10.295425      -280.1528
  11   2.0000     -10.294458      -280.1264
  12   2.0000     -10.293132      -280.0904
  13   2.0000     -10.291901      -280.0569
  14   2.0000     -10.288430      -279.9624
  15   2.0000     -10.276431      -279.6359
  16   2.0000      -8.086321      -220.0400
  17   2.0000      -8.076938      -219.7847
  18   2.0000      -6.044849      -164.4887
  19   2.0000      -6.040721      -164.3764
  20   2.0000      -6.037159      -164.2794
  21   2.0000      -6.035646      -164.2383
  22   2.0000      -6.031609      -164.1284
  23   2.0000      -6.027546      -164.0179
  24   2.0000      -1.006023       -27.3753
  25   2.0000      -0.980250       -26.6740
  26   2.0000      -0.910999       -24.7895
  27   2.0000      -0.899583       -24.4789
  28   2.0000      -0.872185       -23.7334
  29   2.0000      -0.852539       -23.1988
  30   2.0000      -0.836513       -22.7627
  31   2.0000      -0.807869       -21.9832
  32   2.0000      -0.786546       -21.4030
  33   2.0000      -0.771300       -20.9882
  34   2.0000      -0.707304       -19.2467
  35   2.0000      -0.702081       -19.1046
  36   2.0000      -0.686234       -18.6734
  37   2.0000      -0.666694       -18.1417
  38   2.0000      -0.634422       -17.2635
  39   2.0000      -0.619356       -16.8535
  40   2.0000      -0.595205       -16.1964
  41   2.0000      -0.571962       -15.5639
  42   2.0000      -0.560479       -15.2514
  43   2.0000      -0.544670       -14.8212
  44   2.0000      -0.541587       -14.7373
  45   2.0000      -0.527482       -14.3535
  46   2.0000      -0.516203       -14.0466
  47   2.0000      -0.507381       -13.8065
  48   2.0000      -0.503973       -13.7138
  49   2.0000      -0.498441       -13.5633
  50   2.0000      -0.489123       -13.3097
  51   2.0000      -0.482535       -13.1305
  52   2.0000      -0.475478       -12.9384
  53   2.0000      -0.467159       -12.7120
  54   2.0000      -0.457967       -12.4619
  55   2.0000      -0.451090       -12.2748
  56   2.0000      -0.442541       -12.0422
  57   2.0000      -0.436247       -11.8709
  58   2.0000      -0.431811       -11.7502
  59   2.0000      -0.422406       -11.4943
  60   2.0000      -0.414723       -11.2852
  61   2.0000      -0.409968       -11.1558
  62   2.0000      -0.408941       -11.1279
  63   2.0000      -0.352325        -9.5872
  64   2.0000      -0.334742        -9.1088
  65   2.0000      -0.329717        -8.9720
  66   2.0000      -0.285274        -7.7627
  67   0.0000       0.022145         0.6026
  68   0.0000       0.070719         1.9244
  69   0.0000       0.110583         3.0091
  70   0.0000       0.118244         3.2176
  71   0.0000       0.127816         3.4781

MULLIKEN ATOMIC CHARGES
-----------------------
   0 S :    0.133185
   1 C :   -0.146181
   2 C :   -0.067440
   3 C :   -0.003550
   4 C :   -0.144337
   5 H :    0.003422
   6 C :    0.061002
   7 H :    0.028540
   8 H :    0.056880
   9 C :   -0.101655
  10 H :    0.025652
  11 H :    0.035652
  12 C :   -0.030975
  13 H :    0.022015
  14 H :    0.032985
  15 H :    0.036507
  16 S :    0.081302
  17 C :   -0.093455
  18 C :    0.018881
  19 C :   -0.057386
  20 C :   -0.135850
  21 H :   -0.011600
  22 C :    0.096471
  23 H :    0.009872
  24 H :    0.018440
  25 C :   -0.135354
  26 H :    0.053209
  27 H :    0.044769
  28 C :   -0.063141
  29 H :    0.021435
  30 H :    0.049615
  31 H :    0.041346
  32 H :    0.050392
  33 H :    0.069350
Sum of atomic charges:    0.0000000

LOEWDIN ATOMIC CHARGES
----------------------
   0 S :    0.432358
   1 C :   -0.203780
   2 C :   -0.073458
   3 C :   -0.062464
   4 C :   -0.211325
   5 H :    0.022151
   6 C :   -0.027417
   7 H :    0.037379
   8 H :    0.040771
   9 C :   -0.047165
  10 H :    0.026944
  11 H :    0.031009
  12 C :   -0.067717
  13 H :    0.021942
  14 H :    0.030775
  15 H :    0.021589
  16 S :    0.360165
  17 C :   -0.167478
  18 C :   -0.062197
  19 C :   -0.044330
  20 C :   -0.179624
  21 H :    0.018045
  22 C :   -0.023390
  23 H :    0.024135
  24 H :    0.022190
  25 C :   -0.049406
  26 H :    0.033952
  27 H :    0.027335
  28 C :   -0.080421
  29 H :    0.025055
  30 H :    0.027346
  31 H :    0.030492
  32 H :    0.032320
  33 H :    0.034218

  Mayer bond orders larger than 0.100000
B(  0-S ,  1-C ) :   1.1517 B(  0-S ,  4-C ) :   1.1568 B(  1-C ,  2-C ) :   1.5898
B(  1-C , 32-H ) :   0.9589 B(  2-C ,  3-C ) :   1.3062 B(  2-C ,  6-C ) :   1.0066
B(  3-C ,  4-C ) :   1.5117 B(  3-C ,  5-H ) :   0.9857 B(  4-C , 20-C ) :   1.0977
B(  6-C ,  7-H ) :   0.9429 B(  6-C ,  8-H ) :   0.9391 B(  6-C ,  9-C ) :   1.0636
B(  9-C , 10-H ) :   0.9605 B(  9-C , 11-H ) :   0.9548 B(  9-C , 12-C ) :   1.0804
B( 12-C , 13-H ) :   0.9751 B( 12-C , 14-H ) :   0.9707 B( 12-C , 15-H ) :   0.9745
B( 16-S , 17-C ) :   1.1421 B( 16-S , 20-C ) :   1.1103 B( 17-C , 18-C ) :   1.6115
B( 17-C , 20-C ) :   0.1004 B( 17-C , 33-H ) :   0.9664 B( 18-C , 19-C ) :   1.2338
B( 18-C , 21-H ) :   1.0008 B( 19-C , 20-C ) :   1.5984 B( 19-C , 22-C ) :   1.0432
B( 22-C , 23-H ) :   0.9343 B( 22-C , 24-H ) :   0.9398 B( 22-C , 25-C ) :   1.0508
B( 25-C , 26-H ) :   0.9588 B( 25-C , 27-H ) :   0.9594 B( 25-C , 28-C ) :   1.0525
B( 28-C , 29-H ) :   0.9749 B( 28-C , 30-H ) :   0.9777 B( 28-C , 31-H ) :   0.9754

Dispersion correction           -0.014515172
FINAL SINGLE POINT ENERGY     -1339.871018071656

DIPOLE MOMENT
-------------
                                X             Y             Z
Electronic contribution:    -21.72274      17.09051      12.89284
Nuclear contribution   :     22.07962     -17.53662     -13.39463
                        -----------------------------------------
Total Dipole Moment    :      0.35688      -0.44611      -0.50179
                        -----------------------------------------
Magnitude (a.u.)       :      0.76037
Magnitude (Debye)      :      1.93272

Rotational constants in cm-1:     0.020084     0.008606     0.006564
Rotational constants in MHz :   602.088407   258.007066   196.790943

                             ****ORCA TERMINATED NORMALLY****
TOTAL RUN TIME: 0 days 0 hours 0 minutes 21 seconds 842 msec
