                         Program Version 4.2.1 -  RELEASE  -
|  1> ! wB97X-D3 SP def2-SVP
|  2> %pal
|  3> nprocs 24
|  4> end
|  5>
|  6> * xyz 0 1
|  7> S 	 -131.46 	 9.67661 	 -8.104
|  8> C 	 -129.85 	 10.041 	 -7.567
|  9> C 	 -129.397 	 11.2719 	 -7.99345
| 10> C 	 -130.386 	 11.9315 	 -8.74686
| 11> C 	 -131.445 	 11.0925 	 -9.00039
| 12> H 	 -130.267 	 12.8482 	 -9.20934
| 13> C 	 -128.044 	 11.9144 	 -7.68991
| 14> H 	 -128.407 	 12.9429 	 -7.5986
| 15> H 	 -127.391 	 11.9136 	 -8.57323
| 16> C 	 -127.361 	 11.5237 	 -6.39882
| 17> H 	 -126.836 	 12.4091 	 -5.99945
| 18> H 	 -128.116 	 11.2692 	 -5.65222
| 19> C 	 -126.329 	 10.3342 	 -6.52006
| 20> H 	 -125.887 	 10.5335 	 -7.46157
| 21> H 	 -125.671 	 10.3463 	 -5.64525
| 22> H 	 -126.815 	 9.32298 	 -6.51732
| 23> S 	 -134.204 	 11.4996 	 -8.88223
| 24> C 	 -135.011 	 12.0033 	 -10.3773
| 25> C 	 -134.099 	 12.0751 	 -11.4177
| 26> C 	 -132.767 	 11.7952 	 -11.0817
| 27> C 	 -132.631 	 11.4507 	 -9.72545
| 28> H 	 -134.522 	 12.3359 	 -12.4149
| 29> C 	 -131.684 	 11.7587 	 -12.1079
| 30> H 	 -132.012 	 11.1128 	 -12.9285
| 31> H 	 -130.821 	 11.301 	 -11.6122
| 32> C 	 -131.206 	 13.1548 	 -12.6673
| 33> H 	 -130.762 	 13.6599 	 -11.8432
| 34> H 	 -132.081 	 13.782 	 -12.9468
| 35> C 	 -130.247 	 13.0453 	 -13.8411
| 36> H 	 -129.416 	 12.4103 	 -13.6317
| 37> H 	 -129.866 	 13.9906 	 -14.1585
| 38> H 	 -130.813 	 12.5905 	 -14.6756
| 39> H 	 -129.235 	 9.40573 	 -6.92899
| 40> H 	 -136.037 	 12.2825 	 -10.613
| 41> *
| 42>
| 43>                          ****END OF INPUT****

CARTESIAN COORDINATES (ANGSTROEM)
---------------------------------
  S    -131.460000    9.676610   -8.104000
  C    -129.850000   10.041000   -7.567000
  C    -129.397000   11.271900   -7.993450
  C    -130.386000   11.931500   -8.746860
  C    -131.445000   11.092500   -9.000390
  H    -130.267000   12.848200   -9.209340
  C    -128.044000   11.914400   -7.689910
  H    -128.407000   12.942900   -7.598600
  H    -127.391000   11.913600   -8.573230
  C    -127.361000   11.523700   -6.398820
  H    -126.836000   12.409100   -5.999450
  H    -128.116000   11.269200   -5.652220
  C    -126.329000   10.334200   -6.520060
  H    -125.887000   10.533500   -7.461570
  H    -125.671000   10.346300   -5.645250
  H    -126.815000    9.322980   -6.517320
  S    -134.204000   11.499600   -8.882230
  C    -135.011000   12.003300  -10.377300
  C    -134.099000   12.075100  -11.417700
  C    -132.767000   11.795200  -11.081700
  C    -132.631000   11.450700   -9.725450
  H    -134.522000   12.335900  -12.414900
  C    -131.684000   11.758700  -12.107900
  H    -132.012000   11.112800  -12.928500
  H    -130.821000   11.301000  -11.612200
  C    -131.206000   13.154800  -12.667300
  H    -130.762000   13.659900  -11.843200
  H    -132.081000   13.782000  -12.946800
  C    -130.247000   13.045300  -13.841100
  H    -129.416000   12.410300  -13.631700
  H    -129.866000   13.990600  -14.158500
  H    -130.813000   12.590500  -14.675600
  H    -129.235000    9.405730   -6.928990
  H    -136.037000   12.282500  -10.613000

 Total Charge           Charge          ....    0
 Multiplicity           Mult            ....    1
 Number of Electrons    NEL             ....  134
 Basis Dimension        Dim             ....  322

ORBITAL ENERGIES
----------------

  NO   OCC          E(Eh)            E(eV)
   0   2.0000     -88.968175     -2420.9471
   1   2.0000     -88.967599     -2420.9315
   2   2.0000     -10.324651      -280.9480
   3   2.0000     -10.319149      -280.7983
   4   2.0000     -10.316441      -280.7246
   5   2.0000     -10.308150      -280.4990
   6   2.0000     -10.298549      -280.2378
   7   2.0000     -10.297242      -280.2022
   8   2.0000     -10.294859      -280.1374
   9   2.0000     -10.290293      -280.0131
  10   2.0000     -10.289813      -280.0001
  11   2.0000     -10.289637      -279.9952
  12   2.0000     -10.286329      -279.9052
  13   2.0000     -10.285034      -279.8700
  14   2.0000     -10.283541      -279.8294
  15   2.0000     -10.274788      -279.5912
  16   2.0000      -8.084604      -219.9933
  17   2.0000      -8.081045      -219.8964
  18   2.0000      -6.042795      -164.4328
  19   2.0000      -6.039724      -164.3492
  20   2.0000      -6.038971      -164.3288
  21   2.0000      -6.035724      -164.2404
  22   2.0000      -6.035492      -164.2341
  23   2.0000      -6.031710      -164.1312
  24   2.0000      -1.016507       -27.6606
  25   2.0000      -0.982676       -26.7400
  26   2.0000      -0.915196       -24.9037
  27   2.0000      -0.904794       -24.6207
  28   2.0000      -0.867138       -23.5960
  29   2.0000      -0.857987       -23.3470
  30   2.0000      -0.850382       -23.1401
  31   2.0000      -0.810319       -22.0499
  32   2.0000      -0.787193       -21.4206
  33   2.0000      -0.769808       -20.9475
  34   2.0000      -0.708106       -19.2685
  35   2.0000      -0.703321       -19.1383
  36   2.0000      -0.695434       -18.9237
  37   2.0000      -0.657942       -17.9035
  38   2.0000      -0.640082       -17.4175
  39   2.0000      -0.618786       -16.8380
  40   2.0000      -0.590490       -16.0680
  41   2.0000      -0.572574       -15.5805
  42   2.0000      -0.563491       -15.3334
  43   2.0000      -0.552332       -15.0297
  44   2.0000      -0.536393       -14.5960
  45   2.0000      -0.525940       -14.3115
  46   2.0000      -0.521579       -14.1929
  47   2.0000      -0.509657       -13.8685
  48   2.0000      -0.507532       -13.8106
  49   2.0000      -0.495336       -13.4788
  50   2.0000      -0.489545       -13.3212
  51   2.0000      -0.485593       -13.2137
  52   2.0000      -0.471542       -12.8313
  53   2.0000      -0.467060       -12.7093
  54   2.0000      -0.456048       -12.4097
  55   2.0000      -0.454336       -12.3631
  56   2.0000      -0.444665       -12.1000
  57   2.0000      -0.442102       -12.0302
  58   2.0000      -0.430844       -11.7239
  59   2.0000      -0.427522       -11.6335
  60   2.0000      -0.422025       -11.4839
  61   2.0000      -0.419678       -11.4200
  62   2.0000      -0.415606       -11.3092
  63   2.0000      -0.340734        -9.2719
  64   2.0000      -0.333497        -9.0749
  65   2.0000      -0.329596        -8.9688
  66   2.0000      -0.291063        -7.9202
  67   0.0000       0.034784         0.9465
  68   0.0000       0.066729         1.8158
  69   0.0000       0.110075         2.9953
  70   0.0000       0.129655         3.5281
  71   0.0000       0.132403         3.6029

MULLIKEN ATOMIC CHARGES
-----------------------
   0 S :    0.135706
   1 C :   -0.128100
   2 C :   -0.092268
   3 C :    0.055456
   4 C :   -0.177684
   5 H :   -0.019020
   6 C :    0.072994
   7 H :    0.027902
   8 H :    0.045544
   9 C :   -0.103557
  10 H :    0.036047
  11 H :    0.030451
  12 C :   -0.044417
  13 H :    0.026879
  14 H :    0.042831
  15 H :    0.040233
  16 S :    0.113050
  17 C :   -0.092435
  18 C :   -0.066222
  19 C :   -0.000271
  20 C :   -0.165444
  21 H :    0.027162
  22 C :    0.054708
  23 H :    0.031376
  24 H :    0.027515
  25 C :   -0.084016
  26 H :    0.014486
  27 H :    0.030558
  28 C :   -0.008551
  29 H :    0.022910
  30 H :    0.029097
  31 H :    0.028527
  32 H :    0.034730
  33 H :    0.053822
Sum of atomic charges:   -0.0000000

LOEWDIN ATOMIC CHARGES
----------------------
   0 S :    0.451184
   1 C :   -0.210868
   2 C :   -0.058062
   3 C :   -0.052541
   4 C :   -0.215767
   5 H :    0.019271
   6 C :   -0.036175
   7 H :    0.038381
   8 H :    0.034065
   9 C :   -0.046040
  10 H :    0.029540
  11 H :    0.024363
  12 C :   -0.062046
  13 H :    0.018897
  14 H :    0.028774
  15 H :    0.027417
  16 S :    0.383820
  17 C :   -0.189628
  18 C :   -0.076059
  19 C :   -0.060349
  20 C :   -0.191669
  21 H :    0.036357
  22 C :   -0.030534
  23 H :    0.031748
  24 H :    0.030908
  25 C :   -0.037435
  26 H :    0.015061
  27 H :    0.024765
  28 C :   -0.059837
  29 H :    0.021298
  30 H :    0.023313
  31 H :    0.029047
  32 H :    0.023316
  33 H :    0.035484

  Mayer bond orders larger than 0.100000
B(  0-S ,  1-C ) :   1.1396 B(  0-S ,  4-C ) :   1.1832 B(  1-C ,  2-C ) :   1.6114
B(  1-C , 32-H ) :   0.9623 B(  2-C ,  3-C ) :   1.2687 B(  2-C ,  6-C ) :   0.9920
B(  3-C ,  4-C ) :   1.5429 B(  3-C ,  5-H ) :   1.0052 B(  4-C , 20-C ) :   1.0347
B(  6-C ,  7-H ) :   0.9369 B(  6-C ,  8-H ) :   0.9344 B(  6-C ,  9-C ) :   1.0805
B(  9-C , 10-H ) :   0.9583 B(  9-C , 11-H ) :   0.9574 B(  9-C , 12-C ) :   1.0603
B( 12-C , 13-H ) :   0.9783 B( 12-C , 14-H ) :   0.9753 B( 12-C , 15-H ) :   0.9784
B( 16-S , 17-C ) :   1.1345 B( 16-S , 20-C ) :   1.1340 B( 17-C , 18-C ) :   1.6361
B( 17-C , 20-C ) :   0.1055 B( 17-C , 33-H ) :   0.9623 B( 18-C , 19-C ) :   1.2400
B( 18-C , 21-H ) :   0.9808 B( 19-C , 20-C ) :   1.5809 B( 19-C , 22-C ) :   1.0565
B( 22-C , 23-H ) :   0.9395 B( 22-C , 24-H ) :   0.9230 B( 22-C , 25-C ) :   1.0521
B( 25-C , 26-H ) :   0.9518 B( 25-C , 27-H ) :   0.9603 B( 25-C , 28-C ) :   1.0875
B( 28-C , 29-H ) :   0.9731 B( 28-C , 30-H ) :   0.9729 B( 28-C , 31-H ) :   0.9736

Dispersion correction           -0.014015828
FINAL SINGLE POINT ENERGY     -1339.881280480637

DIPOLE MOMENT
-------------
                                X             Y             Z
Electronic contribution:    -24.70609      -8.20044       8.85108
Nuclear contribution   :     25.19972       8.54209      -9.12406
                        -----------------------------------------
Total Dipole Moment    :      0.49363       0.34165      -0.27298
                        -----------------------------------------
Magnitude (a.u.)       :      0.65948
Magnitude (Debye)      :      1.67626

Rotational constants in cm-1:     0.019234     0.008188     0.006207
Rotational constants in MHz :   576.624432   245.462247   186.078406

                             ****ORCA TERMINATED NORMALLY****
TOTAL RUN TIME: 0 days 0 hours 0 minutes 21 seconds 330 msec
