                         Program Version 4.2.1 -  RELEASE  -
|  1> ! wB97X-D3 SP def2-SVP
|  2> %pal
|  3> nprocs 24
|  4> end
|  5>
|  6> * xyz 0 1
|  7> S 	 -106.379 	 21.7573 	 -117.49
|  8> C 	 -107.275 	 20.7701 	 -116.289
|  9> C 	 -107.529 	 21.4557 	 -115.098
| 10> C 	 -107.056 	 22.7923 	 -115.146
| 11> C 	 -106.339 	 23.1082 	 -116.35
| 12> H 	 -107.248 	 23.4471 	 -114.261
| 13> C 	 -108.201 	 20.8436 	 -113.846
| 14> H 	 -108.396 	 19.7482 	 -113.982
| 15> H 	 -109.22 	 21.3136 	 -113.787
| 16> C 	 -107.471 	 20.8216 	 -112.548
| 17> H 	 -106.524 	 20.2979 	 -112.565
| 18> H 	 -107.203 	 21.8267 	 -112.274
| 19> C 	 -108.138 	 20.1616 	 -111.332
| 20> H 	 -109.174 	 20.5847 	 -111.289
| 21> H 	 -108.039 	 19.0643 	 -111.282
| 22> H 	 -107.818 	 20.4772 	 -110.342
| 23> S 	 -106.359 	 25.7703 	 -117.296
| 24> C 	 -104.85 	 26.6564 	 -117.2
| 25> C 	 -103.812 	 25.8666 	 -116.714
| 26> C 	 -104.193 	 24.4722 	 -116.461
| 27> C 	 -105.558 	 24.2794 	 -116.67
| 28> H 	 -102.849 	 26.2695 	 -116.612
| 29> C 	 -103.148 	 23.5832 	 -115.845
| 30> H 	 -103.661 	 23.0807 	 -115.015
| 31> H 	 -102.379 	 24.1962 	 -115.452
| 32> C 	 -102.543 	 22.4984 	 -116.751
| 33> H 	 -102.371 	 22.8622 	 -117.775
| 34> H 	 -103.319 	 21.7578 	 -116.914
| 35> C 	 -101.315 	 21.7851 	 -116.19
| 36> H 	 -100.974 	 20.9656 	 -116.773
| 37> H 	 -101.424 	 21.5735 	 -115.118
| 38> H 	 -100.484 	 22.5824 	 -116.228
| 39> H 	 -107.585 	 19.6969 	 -116.464
| 40> H 	 -104.752 	 27.7334 	 -117.357
| 41> *
| 42>
| 43>                          ****END OF INPUT****

CARTESIAN COORDINATES (ANGSTROEM)
---------------------------------
  S    -106.379000   21.757300  -117.490000
  C    -107.275000   20.770100  -116.289000
  C    -107.529000   21.455700  -115.098000
  C    -107.056000   22.792300  -115.146000
  C    -106.339000   23.108200  -116.350000
  H    -107.248000   23.447100  -114.261000
  C    -108.201000   20.843600  -113.846000
  H    -108.396000   19.748200  -113.982000
  H    -109.220000   21.313600  -113.787000
  C    -107.471000   20.821600  -112.548000
  H    -106.524000   20.297900  -112.565000
  H    -107.203000   21.826700  -112.274000
  C    -108.138000   20.161600  -111.332000
  H    -109.174000   20.584700  -111.289000
  H    -108.039000   19.064300  -111.282000
  H    -107.818000   20.477200  -110.342000
  S    -106.359000   25.770300  -117.296000
  C    -104.850000   26.656400  -117.200000
  C    -103.812000   25.866600  -116.714000
  C    -104.193000   24.472200  -116.461000
  C    -105.558000   24.279400  -116.670000
  H    -102.849000   26.269500  -116.612000
  C    -103.148000   23.583200  -115.845000
  H    -103.661000   23.080700  -115.015000
  H    -102.379000   24.196200  -115.452000
  C    -102.543000   22.498400  -116.751000
  H    -102.371000   22.862200  -117.775000
  H    -103.319000   21.757800  -116.914000
  C    -101.315000   21.785100  -116.190000
  H    -100.974000   20.965600  -116.773000
  H    -101.424000   21.573500  -115.118000
  H    -100.484000   22.582400  -116.228000
  H    -107.585000   19.696900  -116.464000
  H    -104.752000   27.733400  -117.357000

 Total Charge           Charge          ....    0
 Multiplicity           Mult            ....    1
 Number of Electrons    NEL             ....  134
 Basis Dimension        Dim             ....  322

ORBITAL ENERGIES
----------------

  NO   OCC          E(Eh)            E(eV)
   0   2.0000     -88.972806     -2421.0731
   1   2.0000     -88.965185     -2420.8658
   2   2.0000     -10.336770      -281.2778
   3   2.0000     -10.328198      -281.0445
   4   2.0000     -10.324616      -280.9471
   5   2.0000     -10.320027      -280.8222
   6   2.0000     -10.307467      -280.4804
   7   2.0000     -10.307102      -280.4705
   8   2.0000     -10.306429      -280.4522
   9   2.0000     -10.302338      -280.3409
  10   2.0000     -10.292023      -280.0602
  11   2.0000     -10.288009      -279.9510
  12   2.0000     -10.285064      -279.8708
  13   2.0000     -10.284569      -279.8574
  14   2.0000     -10.280567      -279.7485
  15   2.0000     -10.280505      -279.7468
  16   2.0000      -8.085826      -220.0265
  17   2.0000      -8.079054      -219.8422
  18   2.0000      -6.044283      -164.4733
  19   2.0000      -6.040493      -164.3702
  20   2.0000      -6.037672      -164.2934
  21   2.0000      -6.036807      -164.2699
  22   2.0000      -6.033726      -164.1860
  23   2.0000      -6.029701      -164.0765
  24   2.0000      -0.995473       -27.0882
  25   2.0000      -0.973139       -26.4804
  26   2.0000      -0.914047       -24.8725
  27   2.0000      -0.906763       -24.6743
  28   2.0000      -0.867398       -23.6031
  29   2.0000      -0.848284       -23.0830
  30   2.0000      -0.845108       -22.9966
  31   2.0000      -0.806141       -21.9362
  32   2.0000      -0.785484       -21.3741
  33   2.0000      -0.769809       -20.9476
  34   2.0000      -0.708342       -19.2750
  35   2.0000      -0.695950       -18.9378
  36   2.0000      -0.689003       -18.7487
  37   2.0000      -0.661441       -17.9987
  38   2.0000      -0.631450       -17.1826
  39   2.0000      -0.620655       -16.8889
  40   2.0000      -0.593544       -16.1512
  41   2.0000      -0.571581       -15.5535
  42   2.0000      -0.564870       -15.3709
  43   2.0000      -0.556151       -15.1337
  44   2.0000      -0.528130       -14.3711
  45   2.0000      -0.521080       -14.1793
  46   2.0000      -0.517326       -14.0771
  47   2.0000      -0.508897       -13.8478
  48   2.0000      -0.502185       -13.6651
  49   2.0000      -0.499982       -13.6052
  50   2.0000      -0.492417       -13.3994
  51   2.0000      -0.477588       -12.9958
  52   2.0000      -0.471018       -12.8170
  53   2.0000      -0.463868       -12.6225
  54   2.0000      -0.455808       -12.4032
  55   2.0000      -0.451424       -12.2839
  56   2.0000      -0.442787       -12.0489
  57   2.0000      -0.438242       -11.9252
  58   2.0000      -0.436392       -11.8748
  59   2.0000      -0.423371       -11.5205
  60   2.0000      -0.414665       -11.2836
  61   2.0000      -0.409281       -11.1371
  62   2.0000      -0.403758       -10.9868
  63   2.0000      -0.337566        -9.1856
  64   2.0000      -0.327104        -8.9009
  65   2.0000      -0.319426        -8.6920
  66   2.0000      -0.307278        -8.3614
  67   0.0000       0.034892         0.9495
  68   0.0000       0.050115         1.3637
  69   0.0000       0.109727         2.9858
  70   0.0000       0.112535         3.0622
  71   0.0000       0.126904         3.4532

MULLIKEN ATOMIC CHARGES
-----------------------
   0 S :    0.123543
   1 C :   -0.153167
   2 C :   -0.081460
   3 C :    0.046458
   4 C :   -0.191116
   5 H :    0.034926
   6 C :    0.046290
   7 H :    0.021302
   8 H :    0.048466
   9 C :   -0.053415
  10 H :    0.027917
  11 H :    0.012907
  12 C :   -0.074161
  13 H :    0.026623
  14 H :    0.046344
  15 H :    0.025588
  16 S :    0.108594
  17 C :   -0.096115
  18 C :   -0.028035
  19 C :   -0.011639
  20 C :   -0.183903
  21 H :    0.003618
  22 C :    0.107122
  23 H :    0.034042
  24 H :    0.004999
  25 C :   -0.085062
  26 H :    0.027374
  27 H :    0.019981
  28 C :   -0.043392
  29 H :    0.039874
  30 H :    0.034195
  31 H :    0.025789
  32 H :    0.069539
  33 H :    0.065972
Sum of atomic charges:    0.0000000

LOEWDIN ATOMIC CHARGES
----------------------
   0 S :    0.403467
   1 C :   -0.195353
   2 C :   -0.068128
   3 C :   -0.056275
   4 C :   -0.195582
   5 H :    0.041115
   6 C :   -0.037706
   7 H :    0.034628
   8 H :    0.039520
   9 C :   -0.050054
  10 H :    0.027842
  11 H :    0.016959
  12 C :   -0.072623
  13 H :    0.029209
  14 H :    0.028073
  15 H :    0.028247
  16 S :    0.383234
  17 C :   -0.183270
  18 C :   -0.067597
  19 C :   -0.037498
  20 C :   -0.204355
  21 H :    0.021311
  22 C :   -0.026394
  23 H :    0.038381
  24 H :    0.022481
  25 C :   -0.045894
  26 H :    0.023806
  27 H :    0.015227
  28 C :   -0.064963
  29 H :    0.023358
  30 H :    0.026681
  31 H :    0.029385
  32 H :    0.039049
  33 H :    0.033720

  Mayer bond orders larger than 0.100000
B(  0-S ,  1-C ) :   1.1427 B(  0-S ,  4-C ) :   1.1634 B(  1-C ,  2-C ) :   1.6095
B(  1-C ,  4-C ) :   0.1088 B(  1-C , 32-H ) :   0.9560 B(  2-C ,  3-C ) :   1.2712
B(  2-C ,  6-C ) :   1.0163 B(  3-C ,  4-C ) :   1.5438 B(  3-C ,  5-H ) :   0.9842
B(  4-C , 20-C ) :   1.0405 B(  6-C ,  7-H ) :   0.9463 B(  6-C ,  8-H ) :   0.9331
B(  6-C ,  9-C ) :   1.0656 B(  9-C , 10-H ) :   0.9544 B(  9-C , 11-H ) :   0.9504
B(  9-C , 12-C ) :   1.0842 B( 12-C , 13-H ) :   0.9719 B( 12-C , 14-H ) :   0.9777
B( 12-C , 15-H ) :   0.9722 B( 16-S , 17-C ) :   1.1496 B( 16-S , 20-C ) :   1.1188
B( 17-C , 18-C ) :   1.6323 B( 17-C , 33-H ) :   0.9631 B( 18-C , 19-C ) :   1.2170
B( 18-C , 21-H ) :   0.9932 B( 19-C , 20-C ) :   1.6121 B( 19-C , 22-C ) :   1.0450
B( 22-C , 23-H ) :   0.9196 B( 22-C , 24-H ) :   0.9388 B( 22-C , 25-C ) :   1.0575
B( 25-C , 26-H ) :   0.9590 B( 25-C , 27-H ) :   0.9473 B( 25-C , 28-C ) :   1.0845
B( 28-C , 29-H ) :   0.9742 B( 28-C , 30-H ) :   0.9724 B( 28-C , 31-H ) :   0.9752

Dispersion correction           -0.014049911
FINAL SINGLE POINT ENERGY     -1339.870510833858

DIPOLE MOMENT
-------------
                                X             Y             Z
Electronic contribution:     -8.75245      15.18210     -20.68342
Nuclear contribution   :      8.99748     -15.37157      21.31526
                        -----------------------------------------
Total Dipole Moment    :      0.24504      -0.18948       0.63184
                        -----------------------------------------
Magnitude (a.u.)       :      0.70368
Magnitude (Debye)      :      1.78861

Rotational constants in cm-1:     0.016922     0.007992     0.006905
Rotational constants in MHz :   507.306471   239.583852   207.021298

                             ****ORCA TERMINATED NORMALLY****
TOTAL RUN TIME: 0 days 0 hours 0 minutes 21 seconds 77 msec
