                         Program Version 4.2.1 -  RELEASE  -
|  1> ! wB97X-D3 SP def2-SVP
|  2> %pal
|  3> nprocs 24
|  4> end
|  5>
|  6> * xyz 0 1
|  7> S 	 -96.5057 	 49.8428 	 -93.3876
|  8> C 	 -96.0446 	 48.4285 	 -92.5045
|  9> C 	 -95.4992 	 47.4768 	 -93.3936
| 10> C 	 -95.4654 	 47.8448 	 -94.7652
| 11> C 	 -95.9135 	 49.1403 	 -94.913
| 12> H 	 -94.94 	 47.3358 	 -95.5436
| 13> C 	 -95.0375 	 46.069 	 -92.9885
| 14> H 	 -94.9754 	 46.0302 	 -91.9098
| 15> H 	 -93.982 	 45.9619 	 -93.2832
| 16> C 	 -95.9098 	 44.89 	 -93.447
| 17> H 	 -96.9928 	 45.0258 	 -93.1574
| 18> H 	 -96.0165 	 44.9273 	 -94.5568
| 19> C 	 -95.6047 	 43.4269 	 -92.9347
| 20> H 	 -94.529 	 43.5029 	 -92.7353
| 21> H 	 -95.9718 	 43.1355 	 -92.0053
| 22> H 	 -95.8534 	 42.6119 	 -93.6558
| 23> S 	 -94.9087 	 51.5081 	 -95.9954
| 24> C 	 -95.1433 	 51.8334 	 -97.6766
| 25> C 	 -95.6907 	 50.7665 	 -98.2905
| 26> C 	 -95.9581 	 49.6216 	 -97.5016
| 27> C 	 -95.7286 	 49.9516 	 -96.1547
| 28> H 	 -95.9752 	 50.8497 	 -99.3431
| 29> C 	 -96.6635 	 48.4072 	 -98.1049
| 30> H 	 -97.5072 	 48.6571 	 -98.7445
| 31> H 	 -97.2681 	 47.9974 	 -97.2932
| 32> C 	 -95.7695 	 47.3575 	 -98.7688
| 33> H 	 -94.7994 	 47.1194 	 -98.3057
| 34> H 	 -95.5583 	 47.8533 	 -99.6909
| 35> C 	 -96.3747 	 45.9932 	 -99.2531
| 36> H 	 -96.5974 	 45.3079 	 -98.4508
| 37> H 	 -95.5804 	 45.4256 	 -99.882
| 38> H 	 -97.2437 	 46.1083 	 -99.7775
| 39> H 	 -96.1035 	 48.3474 	 -91.4772
| 40> H 	 -95.1002 	 52.782 	 -98.0868
| 41> *
| 42>
| 43>                          ****END OF INPUT****

CARTESIAN COORDINATES (ANGSTROEM)
---------------------------------
  S    -96.505700   49.842800  -93.387600
  C    -96.044600   48.428500  -92.504500
  C    -95.499200   47.476800  -93.393600
  C    -95.465400   47.844800  -94.765200
  C    -95.913500   49.140300  -94.913000
  H    -94.940000   47.335800  -95.543600
  C    -95.037500   46.069000  -92.988500
  H    -94.975400   46.030200  -91.909800
  H    -93.982000   45.961900  -93.283200
  C    -95.909800   44.890000  -93.447000
  H    -96.992800   45.025800  -93.157400
  H    -96.016500   44.927300  -94.556800
  C    -95.604700   43.426900  -92.934700
  H    -94.529000   43.502900  -92.735300
  H    -95.971800   43.135500  -92.005300
  H    -95.853400   42.611900  -93.655800
  S    -94.908700   51.508100  -95.995400
  C    -95.143300   51.833400  -97.676600
  C    -95.690700   50.766500  -98.290500
  C    -95.958100   49.621600  -97.501600
  C    -95.728600   49.951600  -96.154700
  H    -95.975200   50.849700  -99.343100
  C    -96.663500   48.407200  -98.104900
  H    -97.507200   48.657100  -98.744500
  H    -97.268100   47.997400  -97.293200
  C    -95.769500   47.357500  -98.768800
  H    -94.799400   47.119400  -98.305700
  H    -95.558300   47.853300  -99.690900
  C    -96.374700   45.993200  -99.253100
  H    -96.597400   45.307900  -98.450800
  H    -95.580400   45.425600  -99.882000
  H    -97.243700   46.108300  -99.777500
  H    -96.103500   48.347400  -91.477200
  H    -95.100200   52.782000  -98.086800

 Total Charge           Charge          ....    0
 Multiplicity           Mult            ....    1
 Number of Electrons    NEL             ....  134
 Basis Dimension        Dim             ....  322

ORBITAL ENERGIES
----------------

  NO   OCC          E(Eh)            E(eV)
   0   2.0000     -88.970935     -2421.0222
   1   2.0000     -88.964141     -2420.8374
   2   2.0000     -10.334347      -281.2119
   3   2.0000     -10.333577      -281.1909
   4   2.0000     -10.314509      -280.6721
   5   2.0000     -10.306322      -280.4493
   6   2.0000     -10.305587      -280.4293
   7   2.0000     -10.304022      -280.3867
   8   2.0000     -10.294861      -280.1374
   9   2.0000     -10.294796      -280.1356
  10   2.0000     -10.294304      -280.1223
  11   2.0000     -10.294230      -280.1202
  12   2.0000     -10.288855      -279.9740
  13   2.0000     -10.287148      -279.9275
  14   2.0000     -10.280882      -279.7570
  15   2.0000     -10.280378      -279.7433
  16   2.0000      -8.085248      -220.0108
  17   2.0000      -8.079196      -219.8461
  18   2.0000      -6.043763      -164.4591
  19   2.0000      -6.039729      -164.3494
  20   2.0000      -6.037675      -164.2935
  21   2.0000      -6.036114      -164.2510
  22   2.0000      -6.033675      -164.1847
  23   2.0000      -6.029945      -164.0831
  24   2.0000      -1.005825       -27.3699
  25   2.0000      -0.986111       -26.8334
  26   2.0000      -0.906684       -24.6721
  27   2.0000      -0.902158       -24.5490
  28   2.0000      -0.867496       -23.6058
  29   2.0000      -0.852397       -23.1949
  30   2.0000      -0.847818       -23.0703
  31   2.0000      -0.815859       -22.2007
  32   2.0000      -0.785948       -21.3867
  33   2.0000      -0.772879       -21.0311
  34   2.0000      -0.707906       -19.2631
  35   2.0000      -0.701011       -19.0755
  36   2.0000      -0.697625       -18.9833
  37   2.0000      -0.659240       -17.9388
  38   2.0000      -0.647358       -17.6155
  39   2.0000      -0.623024       -16.9533
  40   2.0000      -0.601676       -16.3724
  41   2.0000      -0.564819       -15.3695
  42   2.0000      -0.562948       -15.3186
  43   2.0000      -0.548339       -14.9211
  44   2.0000      -0.530229       -14.4283
  45   2.0000      -0.522586       -14.2203
  46   2.0000      -0.517555       -14.0834
  47   2.0000      -0.514590       -14.0027
  48   2.0000      -0.509624       -13.8676
  49   2.0000      -0.499586       -13.5944
  50   2.0000      -0.490060       -13.3352
  51   2.0000      -0.482788       -13.1373
  52   2.0000      -0.477956       -13.0059
  53   2.0000      -0.467400       -12.7186
  54   2.0000      -0.459387       -12.5006
  55   2.0000      -0.451531       -12.2868
  56   2.0000      -0.443132       -12.0582
  57   2.0000      -0.442688       -12.0462
  58   2.0000      -0.431072       -11.7301
  59   2.0000      -0.425951       -11.5907
  60   2.0000      -0.421531       -11.4704
  61   2.0000      -0.405517       -11.0347
  62   2.0000      -0.399042       -10.8585
  63   2.0000      -0.351695        -9.5701
  64   2.0000      -0.333627        -9.0784
  65   2.0000      -0.330587        -8.9957
  66   2.0000      -0.292377        -7.9560
  67   0.0000       0.023833         0.6485
  68   0.0000       0.075368         2.0509
  69   0.0000       0.115935         3.1548
  70   0.0000       0.122339         3.3290
  71   0.0000       0.126250         3.4354

MULLIKEN ATOMIC CHARGES
-----------------------
   0 S :    0.114507
   1 C :   -0.083648
   2 C :   -0.111128
   3 C :    0.047673
   4 C :   -0.144039
   5 H :    0.017582
   6 C :    0.083763
   7 H :    0.004332
   8 H :    0.033300
   9 C :   -0.108564
  10 H :    0.034236
  11 H :    0.029025
  12 C :   -0.038708
  13 H :    0.020025
  14 H :    0.022167
  15 H :    0.050175
  16 S :    0.103423
  17 C :   -0.060114
  18 C :   -0.040101
  19 C :   -0.012192
  20 C :   -0.166471
  21 H :    0.019339
  22 C :    0.059612
  23 H :    0.023786
  24 H :    0.015251
  25 C :   -0.073597
  26 H :    0.039577
  27 H :    0.019643
  28 C :   -0.044776
  29 H :    0.027465
  30 H :    0.045310
  31 H :    0.014718
  32 H :    0.024495
  33 H :    0.033936
Sum of atomic charges:   -0.0000000

LOEWDIN ATOMIC CHARGES
----------------------
   0 S :    0.408724
   1 C :   -0.192394
   2 C :   -0.055271
   3 C :   -0.055222
   4 C :   -0.181184
   5 H :    0.034435
   6 C :   -0.038210
   7 H :    0.023871
   8 H :    0.032120
   9 C :   -0.052148
  10 H :    0.029936
  11 H :    0.024043
  12 C :   -0.068689
  13 H :    0.026361
  14 H :    0.015095
  15 H :    0.036331
  16 S :    0.405333
  17 C :   -0.187879
  18 C :   -0.069209
  19 C :   -0.058129
  20 C :   -0.182970
  21 H :    0.032254
  22 C :   -0.037540
  23 H :    0.033787
  24 H :    0.028246
  25 C :   -0.043094
  26 H :    0.026900
  27 H :    0.023139
  28 C :   -0.060321
  29 H :    0.020254
  30 H :    0.040478
  31 H :    0.009129
  32 H :    0.014472
  33 H :    0.017354

  Mayer bond orders larger than 0.100000
B(  0-S ,  1-C ) :   1.1385 B(  0-S ,  4-C ) :   1.1610 B(  1-C ,  2-C ) :   1.5925
B(  1-C , 32-H ) :   0.9813 B(  2-C ,  3-C ) :   1.2523 B(  2-C ,  6-C ) :   1.0359
B(  3-C ,  4-C ) :   1.5556 B(  3-C ,  5-H ) :   0.9937 B(  4-C , 20-C ) :   1.0245
B(  6-C ,  7-H ) :   0.9401 B(  6-C ,  8-H ) :   0.9315 B(  6-C ,  9-C ) :   1.0579
B(  9-C , 10-H ) :   0.9578 B(  9-C , 11-H ) :   0.9592 B(  9-C , 12-C ) :   1.0576
B( 12-C , 13-H ) :   0.9784 B( 12-C , 14-H ) :   0.9785 B( 12-C , 15-H ) :   0.9764
B( 16-S , 17-C ) :   1.1348 B( 16-S , 20-C ) :   1.1636 B( 17-C , 18-C ) :   1.6282
B( 17-C , 33-H ) :   0.9728 B( 18-C , 19-C ) :   1.2426 B( 18-C , 21-H ) :   0.9841
B( 19-C , 20-C ) :   1.5824 B( 19-C , 22-C ) :   1.0369 B( 22-C , 23-H ) :   0.9407
B( 22-C , 24-H ) :   0.9358 B( 22-C , 25-C ) :   1.0400 B( 25-C , 26-H ) :   0.9615
B( 25-C , 27-H ) :   0.9542 B( 25-C , 28-C ) :   1.0816 B( 28-C , 29-H ) :   0.9765
B( 28-C , 30-H ) :   0.9755 B( 28-C , 31-H ) :   0.9749

Dispersion correction           -0.013750747
FINAL SINGLE POINT ENERGY     -1339.857857766709

DIPOLE MOMENT
-------------
                                X             Y             Z
Electronic contribution:      1.18725      32.32982       8.06593
Nuclear contribution   :     -1.24294     -32.82279      -8.29272
                        -----------------------------------------
Total Dipole Moment    :     -0.05569      -0.49297      -0.22679
                        -----------------------------------------
Magnitude (a.u.)       :      0.54549
Magnitude (Debye)      :      1.38651

Rotational constants in cm-1:     0.016308     0.009188     0.006242
Rotational constants in MHz :   488.887259   275.459034   187.123144

                             ****ORCA TERMINATED NORMALLY****
TOTAL RUN TIME: 0 days 0 hours 0 minutes 20 seconds 186 msec
