                         Program Version 4.2.1 -  RELEASE  -
|  1> ! wB97X-D3 SP def2-SVP
|  2> %pal
|  3> nprocs 24
|  4> end
|  5>
|  6> * xyz 0 1
|  7> S 	 -57.2513 	 3.98307 	 -18.4812
|  8> C 	 -55.6599 	 4.70644 	 -18.679
|  9> C 	 -55.1057 	 4.46655 	 -19.9534
| 10> C 	 -55.9642 	 3.55893 	 -20.6765
| 11> C 	 -57.0693 	 3.08694 	 -19.9814
| 12> H 	 -55.9013 	 3.14342 	 -21.6474
| 13> C 	 -53.8192 	 5.02456 	 -20.5164
| 14> H 	 -53.3033 	 5.52558 	 -19.7135
| 15> H 	 -54.11 	 5.85781 	 -21.1952
| 16> C 	 -52.8456 	 4.06729 	 -21.2232
| 17> H 	 -52.8297 	 3.15541 	 -20.6145
| 18> H 	 -53.321 	 3.79318 	 -22.1747
| 19> C 	 -51.3348 	 4.55855 	 -21.4176
| 20> H 	 -51.3413 	 5 	 -22.3922
| 21> H 	 -50.9463 	 5.15569 	 -20.5551
| 22> H 	 -50.6701 	 3.68159 	 -21.5738
| 23> S 	 -58.5892 	 2.64919 	 -22.1739
| 24> C 	 -59.7235 	 1.29639 	 -22.2807
| 25> C 	 -59.5842 	 0.519147 	 -21.1221
| 26> C 	 -58.6179 	 1.04974 	 -20.1929
| 27> C 	 -58.0587 	 2.19688 	 -20.5904
| 28> H 	 -60.171 	 -0.384929 	 -21.1514
| 29> C 	 -58.3594 	 0.463142 	 -18.8365
| 30> H 	 -59.195 	 -0.198745 	 -18.6578
| 31> H 	 -58.4612 	 1.23004 	 -18.142
| 32> C 	 -56.9949 	 -0.277824 	 -18.877
| 33> H 	 -56.2687 	 0.488782 	 -19.1473
| 34> H 	 -56.9396 	 -0.925719 	 -19.7398
| 35> C 	 -56.9815 	 -1.08035 	 -17.6032
| 36> H 	 -57.7152 	 -1.90929 	 -17.5969
| 37> H 	 -57.002 	 -0.43889 	 -16.7218
| 38> H 	 -56.0853 	 -1.70619 	 -17.6393
| 39> H 	 -55.2281 	 5.40728 	 -18.0248
| 40> H 	 -60.3806 	 0.870711 	 -23.0277
| 41> *
| 42>
| 43>                          ****END OF INPUT****

CARTESIAN COORDINATES (ANGSTROEM)
---------------------------------
  S    -57.251300    3.983070  -18.481200
  C    -55.659900    4.706440  -18.679000
  C    -55.105700    4.466550  -19.953400
  C    -55.964200    3.558930  -20.676500
  C    -57.069300    3.086940  -19.981400
  H    -55.901300    3.143420  -21.647400
  C    -53.819200    5.024560  -20.516400
  H    -53.303300    5.525580  -19.713500
  H    -54.110000    5.857810  -21.195200
  C    -52.845600    4.067290  -21.223200
  H    -52.829700    3.155410  -20.614500
  H    -53.321000    3.793180  -22.174700
  C    -51.334800    4.558550  -21.417600
  H    -51.341300    5.000000  -22.392200
  H    -50.946300    5.155690  -20.555100
  H    -50.670100    3.681590  -21.573800
  S    -58.589200    2.649190  -22.173900
  C    -59.723500    1.296390  -22.280700
  C    -59.584200    0.519147  -21.122100
  C    -58.617900    1.049740  -20.192900
  C    -58.058700    2.196880  -20.590400
  H    -60.171000   -0.384929  -21.151400
  C    -58.359400    0.463142  -18.836500
  H    -59.195000   -0.198745  -18.657800
  H    -58.461200    1.230040  -18.142000
  C    -56.994900   -0.277824  -18.877000
  H    -56.268700    0.488782  -19.147300
  H    -56.939600   -0.925719  -19.739800
  C    -56.981500   -1.080350  -17.603200
  H    -57.715200   -1.909290  -17.596900
  H    -57.002000   -0.438890  -16.721800
  H    -56.085300   -1.706190  -17.639300
  H    -55.228100    5.407280  -18.024800
  H    -60.380600    0.870711  -23.027700

 Total Charge           Charge          ....    0
 Multiplicity           Mult            ....    1
 Number of Electrons    NEL             ....  134
 Basis Dimension        Dim             ....  322

ORBITAL ENERGIES
----------------

  NO   OCC          E(Eh)            E(eV)
   0   2.0000     -88.970777     -2421.0179
   1   2.0000     -88.964172     -2420.8382
   2   2.0000     -10.329952      -281.0923
   3   2.0000     -10.317686      -280.7585
   4   2.0000     -10.317387      -280.7504
   5   2.0000     -10.316252      -280.7195
   6   2.0000     -10.309767      -280.5430
   7   2.0000     -10.294966      -280.1403
   8   2.0000     -10.293710      -280.1061
   9   2.0000     -10.293152      -280.0909
  10   2.0000     -10.292842      -280.0825
  11   2.0000     -10.292171      -280.0642
  12   2.0000     -10.289348      -279.9874
  13   2.0000     -10.280169      -279.7376
  14   2.0000     -10.276524      -279.6384
  15   2.0000     -10.276015      -279.6246
  16   2.0000      -8.084624      -219.9938
  17   2.0000      -8.078502      -219.8272
  18   2.0000      -6.043141      -164.4422
  19   2.0000      -6.039367      -164.3395
  20   2.0000      -6.037209      -164.2808
  21   2.0000      -6.035335      -164.2298
  22   2.0000      -6.032916      -164.1640
  23   2.0000      -6.029206      -164.0630
  24   2.0000      -1.008372       -27.4392
  25   2.0000      -0.981959       -26.7205
  26   2.0000      -0.912351       -24.8263
  27   2.0000      -0.906400       -24.6644
  28   2.0000      -0.870223       -23.6800
  29   2.0000      -0.850270       -23.1370
  30   2.0000      -0.843531       -22.9536
  31   2.0000      -0.815355       -22.1869
  32   2.0000      -0.781640       -21.2695
  33   2.0000      -0.768731       -20.9182
  34   2.0000      -0.711501       -19.3609
  35   2.0000      -0.702492       -19.1158
  36   2.0000      -0.692607       -18.8468
  37   2.0000      -0.669026       -18.2051
  38   2.0000      -0.639280       -17.3957
  39   2.0000      -0.616289       -16.7701
  40   2.0000      -0.588294       -16.0083
  41   2.0000      -0.570068       -15.5123
  42   2.0000      -0.565734       -15.3944
  43   2.0000      -0.561303       -15.2738
  44   2.0000      -0.529810       -14.4169
  45   2.0000      -0.520114       -14.1530
  46   2.0000      -0.516435       -14.0529
  47   2.0000      -0.508987       -13.8502
  48   2.0000      -0.507406       -13.8072
  49   2.0000      -0.499436       -13.5903
  50   2.0000      -0.491470       -13.3736
  51   2.0000      -0.482990       -13.1428
  52   2.0000      -0.470788       -12.8108
  53   2.0000      -0.464570       -12.6416
  54   2.0000      -0.460782       -12.5385
  55   2.0000      -0.452696       -12.3185
  56   2.0000      -0.445830       -12.1316
  57   2.0000      -0.435675       -11.8553
  58   2.0000      -0.434891       -11.8340
  59   2.0000      -0.427048       -11.6206
  60   2.0000      -0.417675       -11.3655
  61   2.0000      -0.414097       -11.2682
  62   2.0000      -0.396620       -10.7926
  63   2.0000      -0.343133        -9.3371
  64   2.0000      -0.330862        -9.0032
  65   2.0000      -0.325595        -8.8599
  66   2.0000      -0.296205        -8.0601
  67   0.0000       0.032169         0.8754
  68   0.0000       0.069313         1.8861
  69   0.0000       0.105865         2.8807
  70   0.0000       0.120583         3.2812
  71   0.0000       0.133229         3.6254

MULLIKEN ATOMIC CHARGES
-----------------------
   0 S :    0.116651
   1 C :   -0.099357
   2 C :   -0.088061
   3 C :    0.007666
   4 C :   -0.141106
   5 H :    0.000604
   6 C :    0.095760
   7 H :    0.000553
   8 H :    0.046151
   9 C :   -0.117146
  10 H :    0.036418
  11 H :    0.038126
  12 C :   -0.055087
  13 H :    0.036109
  14 H :    0.054590
  15 H :    0.038915
  16 S :    0.106618
  17 C :   -0.088309
  18 C :   -0.065859
  19 C :   -0.056584
  20 C :   -0.162713
  21 H :    0.016543
  22 C :    0.114636
  23 H :    0.003837
  24 H :    0.008482
  25 C :   -0.075118
  26 H :    0.041818
  27 H :    0.018639
  28 C :   -0.008761
  29 H :    0.031804
  30 H :    0.044445
  31 H :    0.017988
  32 H :    0.030547
  33 H :    0.051201
Sum of atomic charges:   -0.0000000

LOEWDIN ATOMIC CHARGES
----------------------
   0 S :    0.404432
   1 C :   -0.189319
   2 C :   -0.053082
   3 C :   -0.063627
   4 C :   -0.193732
   5 H :    0.018729
   6 C :   -0.038114
   7 H :    0.024098
   8 H :    0.039537
   9 C :   -0.043823
  10 H :    0.024398
  11 H :    0.024632
  12 C :   -0.068143
  13 H :    0.025111
  14 H :    0.033390
  15 H :    0.032908
  16 S :    0.411228
  17 C :   -0.190531
  18 C :   -0.072328
  19 C :   -0.059301
  20 C :   -0.206574
  21 H :    0.029991
  22 C :   -0.021742
  23 H :    0.025695
  24 H :    0.015312
  25 C :   -0.034937
  26 H :    0.029735
  27 H :    0.023735
  28 C :   -0.065794
  29 H :    0.031286
  30 H :    0.029080
  31 H :    0.023800
  32 H :    0.018057
  33 H :    0.035894

  Mayer bond orders larger than 0.100000
B(  0-S ,  1-C ) :   1.1404 B(  0-S ,  4-C ) :   1.1411 B(  1-C ,  2-C ) :   1.6092
B(  1-C , 32-H ) :   0.9692 B(  2-C ,  3-C ) :   1.2121 B(  2-C ,  6-C ) :   1.0379
B(  3-C ,  4-C ) :   1.5794 B(  3-C ,  5-H ) :   0.9994 B(  4-C , 20-C ) :   1.0324
B(  6-C ,  7-H ) :   0.9334 B(  6-C ,  8-H ) :   0.9296 B(  6-C ,  9-C ) :   1.0529
B(  9-C , 10-H ) :   0.9664 B(  9-C , 11-H ) :   0.9552 B(  9-C , 12-C ) :   1.0693
B( 12-C , 13-H ) :   0.9787 B( 12-C , 14-H ) :   0.9759 B( 12-C , 15-H ) :   0.9771
B( 16-S , 17-C ) :   1.1400 B( 16-S , 20-C ) :   1.1221 B( 17-C , 18-C ) :   1.6438
B( 17-C , 33-H ) :   0.9635 B( 18-C , 19-C ) :   1.2131 B( 18-C , 21-H ) :   0.9906
B( 19-C , 20-C ) :   1.6255 B( 19-C , 22-C ) :   1.0358 B( 22-C , 23-H ) :   0.9346
B( 22-C , 24-H ) :   0.9307 B( 22-C , 25-C ) :   1.0415 B( 25-C , 26-H ) :   0.9590
B( 25-C , 27-H ) :   0.9539 B( 25-C , 28-C ) :   1.0799 B( 28-C , 29-H ) :   0.9702
B( 28-C , 30-H ) :   0.9715 B( 28-C , 31-H ) :   0.9689

Dispersion correction           -0.014153295
FINAL SINGLE POINT ENERGY     -1339.857835000834

DIPOLE MOMENT
-------------
                                X             Y             Z
Electronic contribution:    -20.03049       8.51662      -3.33918
Nuclear contribution   :     20.40182      -8.77775       3.25261
                        -----------------------------------------
Total Dipole Moment    :      0.37134      -0.26113      -0.08657
                        -----------------------------------------
Magnitude (a.u.)       :      0.46214
Magnitude (Debye)      :      1.17467

Rotational constants in cm-1:     0.018036     0.008051     0.007168
Rotational constants in MHz :   540.709353   241.359444   214.880998

                             ****ORCA TERMINATED NORMALLY****
TOTAL RUN TIME: 0 days 0 hours 0 minutes 20 seconds 246 msec
