                         Program Version 4.2.1 -  RELEASE  -
|  1> ! wB97X-D3 SP def2-SVP
|  2> %pal
|  3> nprocs 24
|  4> end
|  5>
|  6> * xyz 0 1
|  7> S 	 -59.4845 	 3.00983 	 -24.3077
|  8> C 	 -60.7712 	 3.98906 	 -24.9962
|  9> C 	 -61.9612 	 3.77511 	 -24.4195
| 10> C 	 -61.8267 	 2.82854 	 -23.3464
| 11> C 	 -60.581 	 2.38266 	 -23.1225
| 12> H 	 -62.5653 	 2.35577 	 -22.7338
| 13> C 	 -63.2462 	 4.38417 	 -24.772
| 14> H 	 -64.0254 	 3.65857 	 -25.1089
| 15> H 	 -62.9408 	 5.03889 	 -25.616
| 16> C 	 -63.9754 	 5.10798 	 -23.6449
| 17> H 	 -64.387 	 4.40698 	 -22.9497
| 18> H 	 -63.3346 	 5.76311 	 -23.0591
| 19> C 	 -65.0607 	 6.04873 	 -24.1689
| 20> H 	 -65.5242 	 6.5876 	 -23.3488
| 21> H 	 -64.7421 	 6.88762 	 -24.7531
| 22> H 	 -65.9683 	 5.56644 	 -24.5978
| 23> S 	 -59.2211 	 0.0443558 	 -23.0907
| 24> C 	 -59.0521 	 -0.883332 	 -21.6112
| 25> C 	 -59.9015 	 -0.412371 	 -20.5874
| 26> C 	 -60.5345 	 0.825049 	 -20.9936
| 27> C 	 -60.2268 	 1.26081 	 -22.2899
| 28> H 	 -59.823 	 -0.905658 	 -19.6674
| 29> C 	 -61.2983 	 1.65277 	 -19.982
| 30> H 	 -61.8033 	 0.950035 	 -19.3572
| 31> H 	 -62.0662 	 2.32488 	 -20.4477
| 32> C 	 -60.4504 	 2.49647 	 -19.1433
| 33> H 	 -59.8382 	 3.15822 	 -19.7711
| 34> H 	 -59.7402 	 1.87957 	 -18.6222
| 35> C 	 -61.1563 	 3.26378 	 -18.0602
| 36> H 	 -61.9786 	 2.71126 	 -17.5694
| 37> H 	 -61.6014 	 4.14453 	 -18.4156
| 38> H 	 -60.4345 	 3.53884 	 -17.3134
| 39> H 	 -60.6403 	 4.59151 	 -25.8084
| 40> H 	 -58.3339 	 -1.71581 	 -21.4757
| 41> *
| 42>
| 43>                          ****END OF INPUT****

CARTESIAN COORDINATES (ANGSTROEM)
---------------------------------
  S    -59.484500    3.009830  -24.307700
  C    -60.771200    3.989060  -24.996200
  C    -61.961200    3.775110  -24.419500
  C    -61.826700    2.828540  -23.346400
  C    -60.581000    2.382660  -23.122500
  H    -62.565300    2.355770  -22.733800
  C    -63.246200    4.384170  -24.772000
  H    -64.025400    3.658570  -25.108900
  H    -62.940800    5.038890  -25.616000
  C    -63.975400    5.107980  -23.644900
  H    -64.387000    4.406980  -22.949700
  H    -63.334600    5.763110  -23.059100
  C    -65.060700    6.048730  -24.168900
  H    -65.524200    6.587600  -23.348800
  H    -64.742100    6.887620  -24.753100
  H    -65.968300    5.566440  -24.597800
  S    -59.221100    0.044356  -23.090700
  C    -59.052100   -0.883332  -21.611200
  C    -59.901500   -0.412371  -20.587400
  C    -60.534500    0.825049  -20.993600
  C    -60.226800    1.260810  -22.289900
  H    -59.823000   -0.905658  -19.667400
  C    -61.298300    1.652770  -19.982000
  H    -61.803300    0.950035  -19.357200
  H    -62.066200    2.324880  -20.447700
  C    -60.450400    2.496470  -19.143300
  H    -59.838200    3.158220  -19.771100
  H    -59.740200    1.879570  -18.622200
  C    -61.156300    3.263780  -18.060200
  H    -61.978600    2.711260  -17.569400
  H    -61.601400    4.144530  -18.415600
  H    -60.434500    3.538840  -17.313400
  H    -60.640300    4.591510  -25.808400
  H    -58.333900   -1.715810  -21.475700

 Total Charge           Charge          ....    0
 Multiplicity           Mult            ....    1
 Number of Electrons    NEL             ....  134
 Basis Dimension        Dim             ....  322

ORBITAL ENERGIES
----------------

  NO   OCC          E(Eh)            E(eV)
   0   2.0000     -88.963575     -2420.8220
   1   2.0000     -88.963241     -2420.8129
   2   2.0000     -10.327475      -281.0249
   3   2.0000     -10.322294      -280.8839
   4   2.0000     -10.321963      -280.8749
   5   2.0000     -10.307946      -280.4935
   6   2.0000     -10.305744      -280.4336
   7   2.0000     -10.297077      -280.1977
   8   2.0000     -10.295816      -280.1634
   9   2.0000     -10.293783      -280.1081
  10   2.0000     -10.287271      -279.9309
  11   2.0000     -10.285401      -279.8800
  12   2.0000     -10.284386      -279.8524
  13   2.0000     -10.277630      -279.6685
  14   2.0000     -10.273429      -279.5542
  15   2.0000     -10.268586      -279.4224
  16   2.0000      -8.078902      -219.8381
  17   2.0000      -8.077740      -219.8065
  18   2.0000      -6.037455      -164.2875
  19   2.0000      -6.036283      -164.2556
  20   2.0000      -6.033472      -164.1791
  21   2.0000      -6.032183      -164.1440
  22   2.0000      -6.029414      -164.0687
  23   2.0000      -6.028557      -164.0454
  24   2.0000      -1.013076       -27.5672
  25   2.0000      -0.983021       -26.7494
  26   2.0000      -0.921403       -25.0727
  27   2.0000      -0.917641       -24.9703
  28   2.0000      -0.876538       -23.8518
  29   2.0000      -0.853875       -23.2351
  30   2.0000      -0.846565       -23.0362
  31   2.0000      -0.819712       -22.3055
  32   2.0000      -0.784738       -21.3538
  33   2.0000      -0.775675       -21.1072
  34   2.0000      -0.714120       -19.4322
  35   2.0000      -0.700848       -19.0711
  36   2.0000      -0.691508       -18.8169
  37   2.0000      -0.665907       -18.1203
  38   2.0000      -0.649276       -17.6677
  39   2.0000      -0.621473       -16.9111
  40   2.0000      -0.596058       -16.2195
  41   2.0000      -0.582666       -15.8552
  42   2.0000      -0.574003       -15.6194
  43   2.0000      -0.560914       -15.2632
  44   2.0000      -0.529801       -14.4166
  45   2.0000      -0.524312       -14.2673
  46   2.0000      -0.519978       -14.1493
  47   2.0000      -0.513945       -13.9852
  48   2.0000      -0.506105       -13.7718
  49   2.0000      -0.503985       -13.7141
  50   2.0000      -0.492164       -13.3925
  51   2.0000      -0.484016       -13.1708
  52   2.0000      -0.476978       -12.9792
  53   2.0000      -0.466347       -12.6900
  54   2.0000      -0.459181       -12.4949
  55   2.0000      -0.446648       -12.1539
  56   2.0000      -0.443343       -12.0640
  57   2.0000      -0.436322       -11.8729
  58   2.0000      -0.433676       -11.8009
  59   2.0000      -0.425336       -11.5740
  60   2.0000      -0.423665       -11.5285
  61   2.0000      -0.415166       -11.2972
  62   2.0000      -0.409883       -11.1535
  63   2.0000      -0.353172        -9.6103
  64   2.0000      -0.330709        -8.9991
  65   2.0000      -0.328490        -8.9387
  66   2.0000      -0.290436        -7.9032
  67   0.0000       0.027763         0.7555
  68   0.0000       0.076334         2.0772
  69   0.0000       0.105818         2.8795
  70   0.0000       0.125057         3.4030
  71   0.0000       0.130290         3.5454

MULLIKEN ATOMIC CHARGES
-----------------------
   0 S :    0.096395
   1 C :   -0.087731
   2 C :   -0.047658
   3 C :    0.018072
   4 C :   -0.124926
   5 H :    0.005227
   6 C :    0.077432
   7 H :    0.044260
   8 H :    0.015273
   9 C :   -0.065586
  10 H :    0.028859
  11 H :    0.026572
  12 C :   -0.055057
  13 H :    0.015876
  14 H :    0.030414
  15 H :    0.032113
  16 S :    0.094717
  17 C :   -0.117324
  18 C :   -0.017779
  19 C :   -0.045418
  20 C :   -0.143011
  21 H :    0.008386
  22 C :    0.077480
  23 H :    0.005524
  24 H :    0.019519
  25 C :   -0.058426
  26 H :    0.027122
  27 H :    0.005517
  28 C :   -0.009473
  29 H :    0.022438
  30 H :    0.017325
  31 H :    0.029163
  32 H :    0.003646
  33 H :    0.071060
Sum of atomic charges:    0.0000000

LOEWDIN ATOMIC CHARGES
----------------------
   0 S :    0.398272
   1 C :   -0.170138
   2 C :   -0.063285
   3 C :   -0.056477
   4 C :   -0.199718
   5 H :    0.027263
   6 C :   -0.035815
   7 H :    0.041774
   8 H :    0.033464
   9 C :   -0.036344
  10 H :    0.022675
  11 H :    0.025384
  12 C :   -0.072047
  13 H :    0.026740
  14 H :    0.023468
  15 H :    0.027385
  16 S :    0.393744
  17 C :   -0.185077
  18 C :   -0.065981
  19 C :   -0.052819
  20 C :   -0.188090
  21 H :    0.025786
  22 C :   -0.034990
  23 H :    0.024780
  24 H :    0.030026
  25 C :   -0.042937
  26 H :    0.028335
  27 H :    0.018860
  28 C :   -0.058774
  29 H :    0.026844
  30 H :    0.016583
  31 H :    0.027619
  32 H :    0.008550
  33 H :    0.034938

  Mayer bond orders larger than 0.100000
B(  0-S ,  1-C ) :   1.1156 B(  0-S ,  4-C ) :   1.1260 B(  1-C ,  2-C ) :   1.6525
B(  1-C , 32-H ) :   0.9750 B(  2-C ,  3-C ) :   1.1762 B(  2-C ,  6-C ) :   1.0459
B(  3-C ,  4-C ) :   1.6268 B(  3-C ,  5-H ) :   0.9934 B(  4-C , 20-C ) :   1.0500
B(  6-C ,  7-H ) :   0.9282 B(  6-C ,  8-H ) :   0.9391 B(  6-C ,  9-C ) :   1.0579
B(  9-C , 10-H ) :   0.9497 B(  9-C , 11-H ) :   0.9573 B(  9-C , 12-C ) :   1.0974
B( 12-C , 13-H ) :   0.9691 B( 12-C , 14-H ) :   0.9749 B( 12-C , 15-H ) :   0.9722
B( 16-S , 17-C ) :   1.1608 B( 16-S , 20-C ) :   1.1298 B( 17-C , 18-C ) :   1.6090
B( 17-C , 20-C ) :   0.1014 B( 17-C , 33-H ) :   0.9626 B( 18-C , 19-C ) :   1.2195
B( 18-C , 21-H ) :   1.0013 B( 19-C , 20-C ) :   1.6016 B( 19-C , 22-C ) :   1.0547
B( 22-C , 23-H ) :   0.9165 B( 22-C , 24-H ) :   0.9339 B( 22-C , 25-C ) :   1.0926
B( 25-C , 26-H ) :   0.9471 B( 25-C , 27-H ) :   0.9504 B( 25-C , 28-C ) :   1.0867
B( 28-C , 29-H ) :   0.9710 B( 28-C , 30-H ) :   0.9722 B( 28-C , 31-H ) :   0.9735

Dispersion correction           -0.013613901
FINAL SINGLE POINT ENERGY     -1339.871797856636

DIPOLE MOMENT
-------------
                                X             Y             Z
Electronic contribution:     20.75994     -16.52143     -14.27668
Nuclear contribution   :    -21.24570      16.73761      14.64053
                        -----------------------------------------
Total Dipole Moment    :     -0.48576       0.21618       0.36385
                        -----------------------------------------
Magnitude (a.u.)       :      0.64427
Magnitude (Debye)      :      1.63759

Rotational constants in cm-1:     0.017533     0.008825     0.006547
Rotational constants in MHz :   525.613369   264.579620   196.282157

                             ****ORCA TERMINATED NORMALLY****
TOTAL RUN TIME: 0 days 0 hours 0 minutes 21 seconds 399 msec
